default_name
292172
  92.5464047  64.7186213  77.7100879  92.0590344  63.9776428  77.2268473
  93.5518555  64.7884041  77.6445238  92.0594047  66.0296213  77.2450879
  91.2941603  65.8777362  76.4838834  92.8910976  66.5891025  76.8168734
  91.5134047  66.6766213  78.4950879  90.4257783  66.6988586  78.4267315
  91.8942686  67.6963149  78.5522608  91.9704047  65.8696213  79.6680879
  91.1893315  65.8544897  80.4282161  92.8991255  66.2313945  80.1093337
  92.1744047  64.4606213  79.1030879  93.0008121  63.9291654  79.5750025
  90.8894047  63.6286213  79.2350879  89.9294047  63.8566213  78.4920879
  90.8814047  62.6916213  80.1850879  91.6959758  62.5876996  80.7731131
  89.7574047  61.7596213  80.3780879  89.4283931  61.3774633  79.4117516
  90.1774047  60.5716213  81.2590879  90.5358461  60.9603518  82.2122446
  89.3072026  59.9378471  81.4299056  91.2784047  59.7276213  80.6330879
  91.4444047  59.6906213  79.4120879  92.0354047  59.0396213  81.4750879
  92.7829019  58.4607061  81.1198345  91.8614944  59.0972332  82.4683335
  88.5444047  62.4586213  80.9950879  88.6914047  63.4656213  81.6900879
  87.3594047  61.8966213  80.7480879  87.3398009  61.0295246  80.2305376
  86.0734047  62.5346213  81.0940879  86.0993009  63.5016061  80.5917246
  84.9144047  61.7226213  80.5280879  84.8698643  60.7549333  81.0277841
  83.9798829  62.2590988  80.6922860  85.0634168  61.5722942  79.4588375
  85.8514047  62.7956213  82.5930879  85.1824047  63.7706213  82.9570879
  86.4034047  61.9266213  83.4460879  86.8554902  61.1030902  83.0752583
  86.3254047  62.0816213  84.9090879  85.2835283  62.1735198  85.2159223
  86.9384047  60.8606213  85.6120879  87.9738123  60.7959190  85.2776570
  86.9149668  61.0723528  86.6810689  86.2204047  59.5116213  85.3360879
  86.4424302  58.8716403  86.1900374  85.1575588  59.7533364  85.3304721
  86.5844047  58.7776213  84.0390879  87.4694047  59.2686213  83.3040879
  85.9694047  57.7126213  83.8080879  87.0034047  63.3556213  85.4330879
  86.5354047  63.9416213  86.4070879  88.0844047  63.7806213  84.7740879
  88.3627362  63.2838543  83.9399096  88.9274047  64.8976213  85.2360879
  88.7486603  65.0969848  86.2926880  90.4124047  64.5256213  85.0490879
  90.6246949  64.5434846  83.9801103  91.0120446  65.2850979  85.5508123
  90.7594047  63.1456213  85.6150879  90.2984047  62.8186213  86.7290879
  91.4964047  62.3896213  84.9440879  88.6504047  66.2486213  84.5370879
  89.4074047  67.2026213  84.7310879  87.5694047  66.3426213  83.7550879
  86.9214242  65.5694462  83.7058863  87.3244047  67.5166213  82.8950879
  88.2747459  67.9154859  82.5403233  86.4684047  67.1336213  81.6790879
  85.6436882  66.5203235  82.0421413  86.0744014  68.0571564  81.2548895
  87.2334047  66.3716213  80.6100879  88.0751485  66.9934054  80.3052062
  87.6062342  65.4546653  81.0664782  86.2494047  65.9536213  79.1590879
  86.1024047  67.5546213  78.3690879  87.0953135  67.9329097  78.1259232
  85.5174286  67.4567617  77.4545787  85.6048967  68.2497594  79.0453793
  86.6634047  68.6946213  83.6190879  85.7504047  68.5086213  84.4230879
  87.1394047  69.9026213  83.3100879  87.9882125  69.9490791  82.7646831
  86.5324047  71.1596213  83.7600879  85.7989979  70.9713331  84.5441550
  87.6154047  72.1196213  84.3150879  87.1295387  73.0189233  84.6936249
  88.4014047  71.4516213  85.4440879  88.8879631  70.5524332  85.0661707
  89.1564985  72.1421131  85.8197920  87.7207771  71.1835150  86.2521508
  88.5214047  72.5036213  83.2710879  89.1865307  73.0973830  83.6269738
  85.7694047  71.8046213  82.5850879  85.6524047  71.1976213  81.5140879
  85.2474047  73.0196213  82.7860879  85.2363453  73.3999412  83.7216806
  84.5624047  73.7716213  81.7170879  83.8094165  73.1369515  81.2498597
  83.8684047  75.0246213  82.2810879  83.3788902  75.5450797  81.4579246
  83.1188946  74.7047225  83.0049659  84.7894047  75.8976213  82.9100879
  84.3227016  76.6652084  83.2486112  85.4404047  74.1526213  80.4980879
  84.8964047  74.3656213  79.4080879  86.7504047  74.3016213  80.7270879
  87.0834832  74.1988910  81.6750354  87.7194047  74.6446213  79.6840879
  87.2857952  75.3759745  79.0020289  88.9844047  75.2456213  80.3070879
  89.3685196  74.5161552  81.0201337  89.7060436  75.3801275  79.5013302
  88.7594047  76.5746213  81.0130879  88.5297259  77.3286459  80.2602298
  87.9104446  76.4653624  81.6879443  89.9854047  77.0066213  81.8060879
  90.2363174  76.2127998  82.5096426  90.8118799  77.1489479  81.1098255
  89.7364047  78.3006213  82.5690879  89.5778368  79.0944098  81.8391176
  88.8328944  78.1695255  83.1645559  90.8714047  78.6676213  83.4630879
  91.7086218  78.7895654  82.9114567  90.6563290  79.5295386  83.9436510
  91.0182279  77.9324025  84.1398415  88.0854047  73.4146213  78.8550879
  88.3084047  73.5146213  77.6470879  88.1574047  72.2566213  79.5070879
  88.1142900  72.2300981  80.5158183  88.3354047  71.0026213  78.7910879
  89.2069273  71.0739529  78.1403503  88.5464047  69.8426213  79.7650879
  87.7381065  69.8710459  80.4958035  88.4927121  68.9116614  79.2007026
  89.8774047  69.9216213  80.4820879  90.8904047  70.2276213  79.8200879
  89.9164047  69.6746213  81.7040879  87.1044047  70.7556213  77.9270879
  87.2004047  70.2066213  76.8300879  85.9454047  71.1706213  78.4290879
  85.8998037  71.5077234  79.3800779  84.7054047  71.0836213  77.6660879
  84.6445066  70.1135065  77.1728659  83.4914047  71.2416213  78.5870879
  83.7436202  72.0385550  79.2866473  82.6398004  71.5480937  77.9796797
  83.1354047  69.9856213  79.3590879  82.9924047  68.7666213  78.7120879
  83.1436690  68.7237308  77.6334874  82.6644047  67.6196213  79.4100879
  82.5664809  66.6671291  78.8892506  82.4604047  67.6846213  80.7670879
  82.1304047  66.5446213  81.4570879  82.0707195  65.7693875  80.8940160
  82.5864047  68.8826213  81.4330879  82.4278442  68.9320563  82.5103600
  82.9154047  70.0256213  80.7300879  83.0060790  70.9787431  81.2510842
  84.6624047  72.1216213  76.5380879  84.0074047  71.9036213  75.5150879
  85.3534047  73.2466213  76.7300879  85.7187453  73.4606443  77.6470502
  85.5504047  74.2266213  75.6570879  84.6975781  74.1953705  74.9789955
  85.6814047  75.6466213  76.2130879  85.6851541  75.5709002  77.3004478
  86.6370354  76.0464316  75.8739393  84.5654047  76.5696213  75.7760879
  83.2324047  76.2286213  75.9800879  83.0018350  75.2807931  76.4664611
  82.2074047  77.0676213  75.5780879  81.1672936  76.7858782  75.7420743
  82.5094047  78.2666213  74.9610879  81.4904047  79.1096213  74.5580879
  80.6170324  78.7636084  74.7558138  83.8274047  78.6276213  74.7500879
  84.0667357  79.5744538  74.2660122  84.8444047  77.7816213  75.1560879
  85.8848098  78.0617587  74.9912233  86.7804047  73.8716213  74.8250879
  87.5374047  74.7516213  74.4000879  86.9714047  72.5676213  74.6310879
  86.4189257  71.9254303  75.1810488  87.9494047  72.0146213  73.6940879
  87.9848787  72.6377121  72.8004445  89.3524047  71.9636213  74.3120879
  89.3131499  71.4273946  75.2602542  90.0479535  71.4613573  73.6397466
  89.9404047  73.3176213  74.6070879  89.9664047  74.3056213  73.6330879
  89.5546824  74.0907209  72.6469832  90.5064047  75.5516213  73.9010879
  90.5155799  76.3203818  73.1284148  91.0344047  75.8206213  75.1500879
  91.4607607  76.8002143  75.3662312  91.0204047  74.8426213  76.1260879
  91.4362346  75.0507909  77.1119130  90.4784047  73.5986213  75.8520879
  90.4715001  72.8258424  76.6207654  87.4754047  70.6086213  73.3130879
  88.0244047  69.9766213  72.4100879  86.4434047  70.1446213  74.0220879
  86.0871611  70.7211312  74.7709711  85.8424047  68.8226213  73.8160879
  85.8820143  68.5609737  72.7586992  86.5994047  67.7556213  74.6130879
  87.6657142  67.9279982  74.4669047  86.3521111  67.8847366  75.6667838
  86.2514047  66.3406213  74.1810879  85.4734047  66.1916213  73.2160879
  86.7534047  65.3816213  74.8090879  84.3514047  68.8586213  74.2110879
  83.9274047  68.2856213  75.2170879  83.5874047  69.5586213  73.3800879
  84.0805790  70.0100996  72.6230900  82.1214047  69.7426213  73.4710879
  81.8736699  70.2601453  74.3978540  81.6054047  70.5706213  72.2970879
  81.8999849  70.0819157  71.3683852  80.5178601  70.6172446  72.3534176
  82.1314047  71.8716213  72.3280879  81.7929882  72.3714599  71.5816059
  81.3234047  68.4536213  73.4780879  80.3424047  68.3386213  74.2040879
  81.7364047  67.4986213  72.6490879  82.4678547  67.6989340  71.9820384
  81.0654047  66.1966213  72.5750879  79.9848288  66.3380930  72.5960783
  81.4404047  65.4656213  71.2740879  82.5002485  65.6432956  71.0917083
  81.2728451  64.4000138  71.4306271  80.6384047  65.9316213  70.0790879
  79.2854047  65.6226213  69.9680879  78.8148900  65.0363548  70.7573958
  78.5404047  66.0446213  68.8830879  77.4789548  65.8061845  68.8154578
  79.1454047  66.7816213  67.8890879  78.4044047  67.1846213  66.8110879
  77.4890936  66.8988146  66.8571279  80.4844047  67.1026213  67.9670879
  80.9601642  67.6868543  67.1794172  81.2254047  66.6766213  69.0570879
  82.2849916  66.9229538  69.1256159  81.2844047  65.2876213  73.8000879
  80.6454047  64.2416213  73.9000879  82.1734047  65.6766213  74.7180879
  82.8096611  66.4305545  74.5016117  82.3264047  64.9836213  76.0050879
  82.3806913  63.9210020  75.7684607  83.6244047  65.3976213  76.6850879
  83.5815606  66.4573846  76.9364166  83.7603829  64.8140195  77.5955928
  84.4617475  65.2182385  76.0107154  81.1444047  65.1866213  76.9640879
  80.9624047  64.3946213  77.8920879  80.3654047  66.2466213  76.7550879
  80.6026401  66.8992188  76.0216472  79.1574047  66.4966213  77.5420879
  79.4093155  66.4952009  78.6025775  78.5324047  67.8536213  77.1880879
  78.6082030  67.9957400  76.1100544  77.4848801  67.8943280  77.4866430
  79.2044047  69.0296213  77.8230879  79.4484047  70.2026213  77.1370879
  79.2172203  70.3610451  76.1667501  80.0264047  71.0706213  77.9500879
  80.3014069  72.0640613  77.5957579  80.1654047  70.5036213  79.1360879
  80.5779056  70.9296607  79.9536656  79.6554047  69.2286213  79.0840879
  79.6739949  68.5975424  79.9726233  78.1064047  65.4306213  77.2680879
  77.7784047  65.1886213  76.1080879  77.5634047  64.8356213  78.3330879
  77.9450999  64.9999645  79.2536309  76.5034047  63.8336213  78.1890879
  76.8061863  63.1077185  77.4344439  76.2164047  63.0826213  79.5100879
  75.4921478  62.2812217  79.3641089  77.1573136  62.6612853  79.8640180
  75.6834047  63.9486213  80.6270879  74.3364047  64.2666213  80.7060879
  73.6569532  63.8897476  79.9416196  73.8524047  65.0486213  81.7340879
  72.7935244  65.3044953  81.7715266  74.7074047  65.5066213  82.7140879
  74.3286489  66.1214078  83.5305935  76.0474047  65.1836213  82.6580879
  76.7265441  65.5452214  83.4301729  76.5284047  64.4036213  81.6260879
  77.5850351  64.1384002  81.5901723  75.2324047  64.4486213  77.6000879
  74.5054047  63.7746213  76.8750879  74.9834047  65.7206213  77.9150879
  75.6401016  66.2132245  78.5034676  73.8034047  66.4356213  77.4480879
  72.9288303  65.9149965  77.8381758  73.8429818  67.4416598  77.8657235
  73.6884047  66.5316213  75.9440879  72.5774047  66.5026213  75.4150879
  74.8294047  66.6256213  75.2580879  75.7058802  66.6957829  75.7550462
  74.8544047  66.6826213  73.7940879  74.1474830  67.4231064  73.4198652
  76.2704047  66.9916213  73.2370879  76.9657165  66.2393309  73.6095139
  76.2714047  66.9736213  71.7090879  75.5766220  67.7260199  71.3358938
  77.2745114  67.1928620  71.3432857  75.9637938  65.9891251  71.3566082
  76.8094047  68.3426213  73.7660879  76.8426299  68.2544920  74.8520115
  77.8236115  68.4399764  73.3787818  76.0024047  69.5686213  73.3830879
  74.9881389  69.4721974  73.7704730  76.4692469  70.4582001  73.8059438
  75.9691187  69.6576804  72.2972424  74.3504047  65.3556213  73.2180879
  73.5014047  65.3426213  72.3240879  74.8684047  64.2516213  73.7460879
  75.6286192  64.3267588  74.4067903  74.4574047  62.9176213  73.3110879
  74.3974814  62.8858361  72.2232009  75.4694047  61.8676213  73.7760879
  75.5921241  61.9842579  74.8528586  75.1689494  60.8436621  73.5539748
  76.8204047  62.0576213  73.1690879  77.1634047  61.5306213  71.9460879
  76.5558308  60.9611742  71.3745254  78.4004047  61.8876213  71.6480879
  78.8648527  61.5574742  70.7189001  78.8634047  62.6406213  72.6270879
  79.7821757  63.0575478  72.6732627  77.8904047  62.7716213  73.5860879
  78.0790729  63.3731266  74.4752992  73.0404047  62.5736213  73.7530879
  72.3204047  61.8736213  73.0420879  72.6424047  63.0876213  74.9110879
  73.3175736  63.5411990  75.5098480  71.2634047  62.9666213  75.3870879
  70.9974513  61.9149791  75.4939363  71.1134047  63.6496213  76.7480879
  71.9511656  63.3266126  77.3660859  71.1800506  64.7244577  76.5796092
  69.8094047  63.3286213  77.4560879  69.0018689  63.6433652  76.7950865
  69.7586544  62.2497114  77.6026383  69.6684047  64.0256213  78.7910879
  70.6964047  64.3846213  79.4220879  68.5104047  64.2006213  79.2150879
  70.2544047  63.5536213  74.3880879  69.2514047  62.9126213  74.0700879
  70.5334047  64.7646213  73.9060879  71.3250180  65.2668219  74.2819102
  69.7084047  65.4266213  72.8940879  68.6788946  65.4947720  73.2456039
  70.2294047  66.8516213  72.6150879  70.3004428  67.3631492  73.5749796
  71.2248581  66.7524894  72.1822536  69.3414047  67.6626213  71.6700879
  69.2843971  67.1097958  70.7324126  68.3515308  67.7102569  72.1239378
  69.8424047  69.0736213  71.3970879  70.9414047  69.4506213  71.8690879
  69.1214047  69.8176213  70.6970879  69.6554047  64.6296213  71.5820879
  68.6034047  64.5436213  70.9480879  70.7984047  64.0766213  71.1770879
  71.6451809  64.2652903  71.6942663  70.8914047  63.2496213  69.9660879
  70.4316239  63.7756348  69.1294216  72.3604047  62.9506213  69.6120879
  72.8531182  62.6391589  70.5331329  72.3553219  62.1211512  68.9049433
  73.1134047  64.1286213  69.0070879  72.4952066  64.5431155  68.2107673
  73.2447810  64.8752052  69.7903215  74.7334047  63.6826213  68.3320879
  75.6574047  63.3326213  69.8220879  75.1778559  62.5179309  70.3646849
  76.6752639  63.0441508  69.5596985  75.6832342  64.2220952  70.4515878
  70.1184047  61.9406213  70.1150879  69.4094047  61.5336213  69.2000879
  70.2644047  61.2916213  71.2660879  70.9151806  61.6467007  71.9520242
  69.5814047  60.0216213  71.5460879  69.6733317  59.3538252  70.6895267
  70.2074047  59.3406213  72.7670879  70.2129339  60.1279480  73.5208686
  69.5624578  58.5264307  73.0975983  71.6344047  58.8136213  72.5680879
  72.1792070  59.5212654  71.9431630  72.3604047  58.6466213  73.8970879
  71.8164077  57.9387180  74.5224190  73.3678922  58.2717341  73.7167289
  72.4170576  59.6097650  74.4042811  71.6284047  57.5046213  71.7920879
  71.1750292  57.6637209  70.8137028  72.6520560  57.1524758  71.6646796
  71.0538246  56.7587162  72.3412530  68.0654047  60.1816213  71.7390879
  67.3004047  59.3056213  71.3360879  67.6394047  61.2886213  72.3510879
  68.3035399  61.8768265  72.8338284  66.2054047  61.6166213  72.4610879
  65.6399497  60.7085092  72.6701151  65.9534047  62.6196213  73.5880879
  66.6788727  63.4276849  73.4941265  64.9466716  63.0202502  73.4694086
  66.0844047  61.9796213  74.9570879  65.3561894  61.1707735  75.0168244
  67.0907236  61.5684298  75.0367491  65.8474047  62.9566213  76.0900879
  66.5946644  63.7488721  76.0449141  64.8524074  63.3902222  75.9897389
  65.9534047  62.2366213  77.4230879  65.0756980  61.5988034  77.5275863
  66.8504276  61.6179469  77.3967999  66.0284047  63.1676213  78.5770879
  65.1970984  63.7406962  78.6018796  66.0972592  62.6370592  79.4337459
  66.8418763  63.7584398  78.4806687  65.5654047  62.1016213  71.1540879
  64.3374047  62.1466213  71.0540879  66.3854047  62.4696213  70.1690879
  67.3613300  62.6294200  70.3743528  65.9154047  62.7056213  68.8010879
  65.0087032  63.3103319  68.8188819  66.9914047  63.4546213  67.9890879
  67.2469088  64.3546379  68.5483615  67.8665795  62.8083267  67.9222111
  66.5354047  63.8416213  66.5820879  65.4994047  63.3396213  66.0920879
  67.2394047  64.6636213  65.9530879  65.5724047  61.3426213  68.1820879
  66.4414047  60.6526213  67.6480879  64.2994047  60.9656213  68.2700879
  63.6264420  61.5815945  68.7034440  63.8504047  59.6316213  67.8440879
  64.5675306  58.8809390  68.1762111  62.4824047  59.2996213  68.4430879
  61.8282551  60.1540214  68.2693410  62.0914399  58.4300110  67.9148602
  62.5424047  59.0026213  69.9320879  63.1120612  58.0831680  70.0669879
  63.0682683  59.8287573  70.4106963  61.1734047  58.8446213  70.5600879
  60.9914047  59.3206213  71.7010879  60.2804047  58.2506213  69.9150879
  63.8124047  59.4456213  66.3290879  64.1174047  58.3616213  65.8440879
  63.4384047  60.4926213  65.5940879  63.0936348  61.3225576  66.0549987
  63.4454047  60.4636213  64.1240879  62.8201448  59.6630217  63.7288796
  62.9604047  61.8106213  63.5290879  63.4662850  62.6189275  64.0571272
  63.2584047  61.9146213  62.0330879  62.7524495  61.1068587  61.5042875
  62.9021344  62.8736180  61.6569267  64.3333838  61.8376342  61.8700090
  61.4684047  61.9936213  63.7890879  61.2832168  61.9907543  64.8632384
  61.1392230  62.9430033  63.3666986  60.9151933  61.1780460  63.3233681
  64.8484047  60.1216213  63.6100879  65.0104047  59.2646213  62.7370879
  65.8484047  60.7996213  64.1680879  65.6323225  61.5397558  64.8204748
  67.2514047  60.5426213  63.8520879  67.4279862  60.6704917  62.7841144
  68.1354047  61.5296213  64.6150879  67.7904896  62.5273373  64.3436188
  67.9482228  61.3569075  65.6749147  69.6264047  61.4166213  64.3390879
  69.8890030  60.3641079  64.2325116  69.8570642  61.9436528  63.4132715
  70.4264047  62.0256213  65.4820879  71.3939263  62.3706247  65.1174325
  69.8807732  62.8650469  65.9130755  70.6494047  61.0216213  66.5300879
  69.8283212  60.7423445  67.0477033  71.8174047  60.4506213  66.8320879
  72.9354047  60.7886213  66.2020879  72.9103389  61.4919042  65.4776123
  73.8062142  60.3410275  66.4499796  71.8694047  59.5366213  67.7980879
  71.0272835  59.2822889  68.2943206  72.7507490  59.1015235  68.0305118
  67.6694047  59.1136213  64.2010879  68.0884047  58.3596213  63.3290879
  67.5434047  58.7546213  65.4750879  67.1078086  59.3893563  66.1288974
  68.1174047  57.5126213  65.9920879  69.1348170  57.3902518  65.6206082
  68.1524047  57.5116213  67.5400879  67.1276611  57.4892563  67.9108986
  68.9124047  56.3036213  68.0750879  69.9374376  56.3255481  67.7050523
  68.9193488  56.3314818  69.1647093  68.4247109  55.3887101  67.7386464
  68.7884047  58.7086213  68.0100879  68.8083647  58.7046681  68.9698724
  67.3964047  56.2676213  65.4560879  68.0594047  55.3046213  65.0570879
  66.0594047  56.2986213  65.4280879  65.5696218  57.0858158  65.8287582
  65.2644047  55.1686213  64.9150879  65.6496354  54.2431285  65.3430593
  63.7754047  55.2926213  65.2730879  63.5077689  56.2783774  64.8926208
  63.2487160  54.5280340  64.7020317  63.3794047  55.1906213  66.7480879
  63.8985236  55.9619773  67.3169695  61.8764047  55.3826213  66.8880879
  61.3565710  54.6113007  66.3198131  61.5966022  55.3096248  67.9390317
  61.5978812  56.3646679  66.5058451  63.7964047  53.8566213  67.3520879
  64.8783885  53.7465851  67.2792686  63.4979420  53.8224466  68.3998729
  63.3118343  53.0444785  66.8101335  65.4034047  54.9606213  63.4050879
  65.3054047  53.8186213  62.9420879  65.6124047  56.0356213  62.6410879
  65.5430063  56.9621212  63.0371701  65.8704047  55.9116213  61.1990879
  65.1051713  55.2747845  60.7552908  65.8544047  57.2786213  60.4780879
  66.5814069  57.9339751  60.9577540  66.2044047  57.1266213  58.9990879
  65.4775229  56.4717260  58.5186146  66.1851419  58.1046417  58.5182511
  67.2006708  56.6948697  58.9034578  64.5484047  57.8646213  60.5830879
  64.5414932  58.7133318  60.1344868  67.2064047  55.1996213  60.9490879
  67.2984047  54.3446213  60.0640879  68.2284047  55.5586213  61.7250879
  68.1587768  56.3902932  62.2939228  69.5024047  54.8326213  61.7080879
  69.8699568  54.7887432  60.6828663  70.5724047  55.5086213  62.5860879
  70.0523638  55.9705875  63.4252803  71.2352223  54.7264358  62.9561674
  71.3894047  56.5606213  61.8560879  70.9544047  57.8806213  61.7740879
  70.0119279  58.1498231  62.2509184  71.6934047  58.8456213  61.1030879
  71.3415104  59.8760605  61.0534174  72.8844047  58.4946213  60.5050879
  73.6094047  59.4476213  59.8390879  73.1947957  60.3133301  59.8548116
  73.3414047  57.1876213  60.5680879  74.2813693  56.9097568  60.0912668
  72.5974047  56.2326213  61.2410879  72.9535517  55.2039528  61.2967697
  69.2984047  53.3756213  62.1230879  69.8044047  52.4726213  61.4520879
  68.5444047  53.1426213  63.1980879  68.1931043  53.9043569  63.7606234
  68.2824047  51.7686213  63.6450879  69.2325397  51.2451541  63.7515060
  67.5464047  51.7236213  64.9860879  68.0019214  52.4623014  65.6455995
  66.5045337  51.9898135  64.8079122  67.6144047  50.3486213  65.6400879
  67.2314601  49.6185085  64.9270735  68.6604278  50.1309325  65.8558412
  66.8074047  50.2736213  66.9230879  67.0560993  49.3475799  67.4414482
  67.0688674  51.1236595  67.5533035  65.3634047  50.2996213  66.6750879
  65.0705161  50.2741487  65.7088236  64.4254047  50.3466213  67.6240879
  64.7534047  50.3746213  68.9160879  65.7261685  50.3602340  69.1874247
  64.0276081  50.4100891  69.6175585  63.1434047  50.3736213  67.2800879
  62.8852585  50.3584762  66.3037523  62.4321621  50.4091842  67.9963057
  67.5054047  50.9696213  62.5940879  67.8514047  49.8256213  62.3150879
  66.4724047  51.5796213  62.0170879  66.1880176  52.4911096  62.3463483
  65.6674047  50.9346213  60.9750879  65.2910787  49.9804037  61.3437975
  64.4704047  51.8146213  60.5780879  64.8272862  52.8296304  60.4034705
  64.0407228  51.4178408  59.6582843  63.3814047  51.8576213  61.6460879
  63.4314047  51.1376213  62.6430879  62.3924047  52.7106213  61.4350879
  61.6416889  52.7848333  62.1066667  62.3926541  53.2836789  60.6033994
  66.4784047  50.5616213  59.7310879  66.2444047  49.5106213  59.1440879
  67.4354047  51.4056213  59.3460879  67.5373358  52.2951124  59.8135437
  68.3024047  51.1206213  58.1930879  67.6868274  50.9430126  57.3112609
  69.2454047  52.2956213  57.9040879  69.6983253  52.1425950  56.9245241
  68.6594226  53.2146471  57.8932966  70.2644047  52.3966213  58.8850879
  70.8364273  53.1389811  58.6770209  69.1134047  49.8266213  58.3650879
  69.3454047  49.1096213  57.3940879  69.5164047  49.5296213  59.5990879
  69.3474027  50.1869385  60.3470663  70.2614047  48.3056213  59.9050879
  70.8314489  47.9944393  59.0296939  71.2364047  48.5386213  61.0680879
  70.6429125  48.6155033  61.9791068  71.8837353  47.6638138  61.1295300
  72.0884047  49.7896213  60.9110879  72.5050971  49.7708694  59.9040543
  71.4229793  50.6469598  61.0124872  73.4284047  49.9366213  62.1030879
  73.4854047  51.7186213  62.2720879  72.5237654  52.0805469  62.6358992
  74.2675231  51.9921049  62.9803239  73.6996675  52.1693368  61.3030429
  69.3114047  47.1486213  60.2270879  69.4244047  46.0706213  59.6340879
  68.3714047  47.3826213  61.1430879  68.3096875  48.3019814  61.5566907
  67.4714047  46.3246213  61.6490879  68.0639395  45.4700789  61.9758279
  66.6334047  46.8276213  62.8410879  66.3343338  47.8658321  62.6969559
  65.7445573  46.2023432  62.9252165  67.3374047  46.7616213  64.1790879
  68.7294047  46.8586213  64.2970879  69.3331123  46.9769211  63.3972867
  69.3424047  46.8056213  65.5430879  70.4280357  46.8702619  65.6160788
  68.5754047  46.6706213  66.6940879  69.0572427  46.6315037  67.6710229
  67.1944047  46.5856213  66.5980879  66.5882934  46.4822523  67.4981124
  66.5824047  46.6326213  65.3480879  65.4971083  46.5684776  65.2698760
  66.5414047  45.7376213  60.5830879  66.2914047  44.5326213  60.5900879
  66.0404047  46.5806213  59.6800879  66.1886810  47.5734940  59.7910710
  65.1954047  46.1216213  58.5660879  64.6243999  45.2470207  58.8777392
  64.2124047  47.2206213  58.1310879  64.7611071  48.0894586  57.7675681
  63.5613991  46.8460762  57.3411463  63.3174047  47.7076213  59.2290879
  62.8874047  47.1056213  60.3630879  62.0774047  48.0026213  61.0170879
  61.6167826  47.7296220  61.9665075  62.0084047  49.1146213  60.3090879
  61.4811677  49.9445154  60.5401652  62.7544047  48.9666213  59.2270879
  62.8403340  49.7818370  58.5086585  65.9764047  45.6246213  57.3340879
  65.3604047  45.2656213  56.3350879  67.3114047  45.6106213  57.3980879
  67.7580167  45.9606038  58.2336412  68.1634047  45.1496213  56.2940879
  67.5933946  44.5003328  55.6295488  68.6754047  46.3486213  55.4870879
  69.2562624  46.9882602  56.1515919  69.3149834  45.9851240  54.6827814
  67.5584047  47.1676213  54.8830879  67.0974047  46.8776213  53.7880879
  67.1224047  48.1996213  55.5930879  66.3770844  48.7779902  55.2324125
  67.5377260  48.4023490  56.4911472  69.3454047  44.3296213  56.8220879
  70.4954047  44.5776213  56.4590879  69.0454047  43.3436213  57.6680879
  68.0792448  43.2070945  57.9288460  70.0684047  42.4866213  58.2990879
  70.7812576  43.1061164  58.8432991  69.4214047  41.5026213  59.2840879
  68.6142417  40.9960115  58.7550004  70.1832445  40.7756067  59.5654239
  68.8694047  42.1656213  60.5330879  69.7016473  42.3560439  61.2107400
  68.4155701  43.1125589  60.2407775  67.8344047  41.3036213  61.2330879
  67.1878803  40.8428013  60.4862613  68.3425015  40.5255936  61.8028335
  67.0044047  42.0926213  62.1510879  66.0826663  42.3299953  61.8132252
  67.3634047  42.5076213  63.3700879  68.5694047  42.2346213  63.8740879
  69.2326115  41.7026870  63.3288331  68.8128884  42.5613076  64.7982586
  66.4994047  43.2126213  64.0960879  65.5860442  43.4262739  63.7216215
  66.7609275  43.5308516  65.0182777  70.9204047  41.7076213  57.2980879
  72.0984047  41.4516213  57.5630879  70.3294047  41.3306213  56.1630879
  69.3266507  41.4166658  56.0783530  71.0674047  40.6586213  55.0780879
  71.5317573  39.7527850  55.4678782  70.1334047  40.2706213  53.9050879
  70.6493668  39.6342551  53.1861161  69.2769617  39.7349911  54.3146068
  69.5824047  41.4346213  53.1310879  68.5724047  42.2446213  53.6120879
  68.2864047  43.1726213  52.7130879  67.5174745  43.9194680  52.9107371
  69.0644047  42.9866213  51.6610879  69.0671650  43.5433776  50.8184049
  69.8804047  41.9036213  51.8940879  70.5945629  41.5858861  51.1344013
  72.2804047  41.4576213  54.5820879  73.3004047  40.8706213  54.2290879
  72.1694047  42.7856213  54.5840879  71.2764897  43.2076125  54.7955718
  73.2834047  43.6636213  54.2200879  73.7703943  43.2869162  53.3206249
  72.7814047  45.0886213  53.9460879  72.3577032  45.3855612  54.9054642
  73.6536188  45.7049927  53.7283063  71.7324047  45.2796213  52.8430879
  70.8219919  44.7428119  53.1097058  71.4214047  46.7596213  52.6910879
  72.3313062  47.2970621  52.4240006  70.6760998  46.8962032  51.9075276
  71.0334633  47.1484649  53.6325774  72.1834047  44.6896213  51.5120879
  72.3604467  43.6205056  51.6293368  71.4085296  44.8489733  50.7622368
  73.1042289  45.1768468  51.1914742  74.3864047  43.7016213  55.2860879
  75.5474047  43.9386213  54.9600879  74.0204047  43.4716213  56.5480879
  73.0422228  43.3206492  56.7492518  74.9644047  43.5266213  57.6760879
  75.8644061  44.0675461  57.3836890  74.3204047  44.2526213  58.8660879
  73.2819267  43.9356736  58.9620396  74.8516128  44.0407736  59.7940096
  74.3014047  45.7396213  58.7140879  73.2914047  46.3626213  57.9950879
  72.5007675  45.7596119  57.5485765  73.2824047  47.7426213  57.8420879
  72.4823695  48.2239860  57.2796536  74.2934047  48.5096213  58.4060879
  74.2898303  49.5929871  58.2860649  75.3074047  47.8956213  59.1220879
  76.1017368  48.4931950  59.5693488  75.3104047  46.5186213  59.2690879
  76.1110114  46.0317095  59.8259055  75.5254047  42.1856213  58.1480879
  76.5324047  42.1756213  58.8510879  74.8964047  41.0706213  57.7780879
  74.0852637  41.1219230  57.1784899  75.2884047  39.7586213  58.3080879
  75.2867462  39.7896789  59.3976437  74.3134047  38.6666213  57.8470879
  73.3338610  38.9215659  58.2515585  74.2785047  38.7084655  56.7584506
  74.6944047  37.2586213  58.2890879  75.3229260  36.8248538  57.5113298
  75.2669143  37.3437951  59.2127114  73.4824047  36.3606213  58.5230879
  72.6538465  36.7430030  57.9269550  73.7341958  35.3535823  58.1905624
  73.0754047  36.3236213  59.9960879  73.9317259  35.9632815  60.5661492
  72.8409930  37.3439740  60.2994534  71.8974047  35.4436213  60.2580879
  72.1145601  34.4980073  59.9774503  71.6773999  35.4602021  61.2436958
  71.1036940  35.7776002  59.7302808  76.7344047  39.3856213  57.9500879
  77.1044047  39.3706213  56.7770879  77.5284047  39.1056213  58.9890879
  77.1451585  39.2755281  59.9079749  78.9474047  38.7186213  58.8840879
  79.3852953  38.6563024  59.8803145  79.0904047  37.3456213  58.1960879
  78.6492155  37.4343951  57.2033289  80.1514186  37.1142348  58.1022270
  78.3944047  36.2306213  58.9620879  78.5714047  36.1536213  60.2030879
  77.6814047  35.4196213  58.3230879  79.8714047  39.7646213  58.2300879
  80.8994047  39.4106213  57.6520879  79.5204047  41.0436213  58.3550879
  78.6682662  41.2786533  58.8436768  80.3094047  42.1316213  57.7720879
  81.0084376  41.7276014  57.0398173  79.3984047  43.1446213  57.0720879
  78.7731585  43.5861371  57.8481228  80.0515799  43.9101339  56.6532171
  78.5154047  42.5756213  55.9730879  77.8540509  41.8364907  56.4251917
  77.9209210  43.3932574  55.5654579  79.3124047  41.9256213  54.8580879
  80.0740479  42.6279826  54.5194330  79.7937297  41.0299084  55.2506744
  78.4174047  41.5486213  53.6910879  77.5246282  41.0630735  54.0851615
  78.1328345  42.4610620  53.1670928  79.1064047  40.6276213  52.7450879
  79.3697953  39.7818892  53.2303326  78.4831982  40.3988828  51.9839096
  79.9334687  41.0775121  52.3794891  81.1464047  42.8596213  58.8220879
  80.8774047  42.7796213  60.0250879  82.1654047  43.5636213  58.3340879
  82.3727099  43.4823245  57.3489408  83.0104047  44.4276213  59.1490879
  82.9388089  44.1876079  60.2099210  84.4904047  44.3306213  58.7200879
  84.5736143  44.6290485  57.6750441  85.3674047  45.2406213  59.5810879
  85.2850713  44.9424918  60.6262869  86.4055743  45.1552115  59.2601368
  85.0375615  46.2737122  59.4714149  84.9594047  42.8826213  58.7950879
  84.3520500  42.2685375  58.1301643  86.0043821  42.8224071  58.4909561
  84.8577166  42.5197365  59.8178660  82.5004047  45.8586213  58.9840879
  82.5524047  46.4036213  57.8850879  82.0064047  46.4476213  60.0730879
  82.0330873  45.9449045  60.9486810  81.3954047  47.7806213  60.0550879
  81.2623356  48.1588353  59.0415071  80.0214047  47.7756213  60.7650879
  80.1630580  47.4515369  61.7961082  79.3884047  49.1656213  60.7510879
  79.2460057  49.4902115  59.7203287  78.4236410  49.1311900  61.2571965
  80.0432015  49.8688161  61.2657333  79.0954047  46.7526213  60.1220879
  79.5389715  45.7600854  60.2009748  78.1326622  46.7614308  60.6331151
  78.9506110  47.0028223  59.0711193  82.3144047  48.7976213  60.7370879
  82.8734047  48.5146213  61.8000879  82.4674047  49.9706213  60.1150879
  82.0895346  50.0774943  59.1845549  83.1764047  51.1066213  60.7120879
  83.6775367  50.7900332  61.6268217  84.2284047  51.6516213  59.7410879
  84.9107179  50.8099547  59.6221535  83.7268167  51.8487437  58.7936428
  85.0204047  52.8956213  60.1690879  84.3222834  53.7084727  60.3690879
  85.8314047  52.6066213  61.4190879  86.5301243  51.7941314  61.2197140
  86.3860253  53.4995467  61.7074990  85.1613048  52.3183467  62.2290041
  85.9244047  53.3756213  59.0460879  85.3197947  53.6280752  58.1749891
  86.4746909  54.2576212  59.3737501  86.6281461  52.5859908  58.7827804
  82.1744047  52.2076213  61.0580879  81.4734047  52.7076213  60.1720879
  82.1094047  52.5766213  62.3390879  82.6060697  52.0310734  63.0288711
  81.3014047  53.7126213  62.8000879  80.5510067  53.9639357  62.0505260
  80.5864047  53.3566213  64.1090879  80.0016069  52.4564074  63.9200753
  81.3520524  53.1420087  64.8546247  79.6584047  54.4716213  64.6320879
  79.5224047  55.5676213  64.0220879  79.0514047  54.2336213  65.6980879
  82.2074047  54.9366213  62.9750879  83.0184047  54.9876213  63.8960879
  82.0614047  55.9136213  62.0850879  81.3716682  55.8147767  61.3539295
  82.9004047  57.1106213  62.0890879  83.8869695  56.9122154  62.5079247
  83.0744047  57.6686213  60.6580879  82.0869851  57.7926890  60.2134433
  83.7994047  59.0076213  60.6650879  84.7871534  58.8842505  61.1091974
  83.9040925  59.3700512  59.6424514  83.2266885  59.7284333  61.2486355
  83.8244047  56.6626213  59.8010879  83.2616444  55.7301231  59.7580760
  83.9443690  57.0607954  58.7935337  84.8059609  56.4742864  60.2360341
  82.2714047  58.1566213  63.0120879  81.2244047  58.7266213  62.6860879
  82.9194047  58.4086213  64.1490879  83.8149727  57.9724582  64.3158787
  82.3834047  59.2956213  65.1700879  83.1909986  59.6322854  65.8201252
  81.9170263  60.1583168  64.6943286  81.3474047  58.5736213  66.0050879
  80.1664047  58.9146213  65.9730879  81.7974047  57.5776213  66.7630879
  82.7930999  57.4250242  66.8366037  80.8944047  56.6036213  67.3940879
  80.0487867  56.4016524  66.7366398  81.6374047  55.2806213  67.6610879
  81.0130588  54.6568981  68.3008229  81.7981553  54.7763940  66.7081902
  82.8874047  55.5046213  68.2940879  83.3242726  54.6634501  68.4463289
  80.1844047  57.0866213  68.6650879  79.1624047  56.5116213  69.0420879
  80.7284047  58.1196213  69.3160879  81.6225997  58.4703794  69.0038645
  80.0884047  58.7706213  70.4650879  80.7332360  59.5927076  70.7756775
  79.1323388  59.1681652  70.1245057  79.8474047  57.8526213  71.6560879
  80.7974047  57.3276213  72.2360879  78.5744047  57.6536213  72.0100879
  77.8418132  58.1583799  71.5319376  78.1974047  56.7466213  73.0980879
  78.8812360  56.8570114  73.9396863  76.7564047  57.0056213  73.5950879
  76.5147773  56.2692121  74.3615199  76.6184047  58.3996213  74.1730879
  76.8594402  59.1366372  73.4070533  75.5944637  58.5523795  74.5141287
  77.3019089  58.5139692  75.0144245  75.8334047  56.8346213  72.5150879
  74.9405684  56.9964288  72.8285556  78.2854047  55.2656213  72.7140879
  78.1484047  54.4006213  73.5850879  78.4904047  54.9766213  71.4260879
  78.6271662  55.7365266  70.7749815  78.5264047  53.6086213  70.9120879
  79.2477587  53.5763282  70.0955680  78.8617415  52.9563953  71.7184687
  77.1824047  53.1156213  70.4040879  77.0624047  51.9496213  70.0460879
  76.1784047  53.9966213  70.3530879  76.3452692  54.9473551  70.6503432
  74.7944047  53.5986213  70.0230879  74.4784467  52.7638241  70.6486944
  73.7824047  54.7766213  70.1780879  73.8630309  55.1610328  71.1948610
  74.0534047  55.9066213  69.1830879  73.9724963  55.5230547  68.1660180
  73.3238851  56.7031432  69.3295622  75.0571951  56.2999357  69.3437358
  72.3264047  54.3046213  70.0240879  71.6984221  55.1915687  70.1081290
  72.2355652  53.8895402  69.0203173  71.8804047  53.2726213  71.0390879
  71.9705281  53.6871703  72.0431430  70.8416004  53.0018277  70.8502608
  72.5076733  52.3851422  70.9553327  74.6634047  52.9376213  68.6460879
  74.0314047  51.8846213  68.5300879  75.2764047  53.5276213  67.6220879
  75.7591355  54.4055125  67.7500615  75.1754047  52.9816213  66.2660879
  74.1523413  52.6501695  66.0883798  75.5434047  54.0266213  65.2050879
  76.6032514  54.2015621  65.3900744  75.4159032  53.5822973  64.2179610
  74.7854047  55.3626213  65.2670879  74.9928440  55.8418478  66.2238594
  75.2224047  56.2836213  64.1320879  75.0148421  55.8052375  63.1749225
  74.6738748  57.2234743  64.1944745  76.2911686  56.4811201  64.2147823
  73.2774047  55.1696213  65.2400879  72.9722374  54.5677154  66.0960562
  72.7853671  56.1411703  65.2858337  72.9920614  54.6614285  64.3189917
  76.0184047  51.7126213  66.1030879  75.6494047  50.8316213  65.3230879
  77.1314047  51.6176213  66.8360879  77.4397030  52.4104844  67.3805322
  77.9434047  50.3916213  66.8680879  78.2773983  50.1574694  65.8572860
  79.1724047  50.5476213  67.7650879  78.8790755  50.9126615  68.7493657
  79.6877261  49.5929788  67.8709259  80.3974047  51.7096213  67.1470879
  81.2512082  51.5612216  68.1559959  77.1524047  49.2036213  67.3780879
  77.2504047  48.1066213  66.8250879  76.3904047  49.4296213  68.4460879
  76.4234084  50.3314090  68.8997276  75.5914047  48.3746213  69.0610879
  76.1826486  47.4615255  69.1302685  75.1444047  48.7786213  70.4750879
  74.6337230  49.7390187  70.4048011  74.4472412  48.0225692  70.8362643
  76.3164047  48.8956213  71.4470879  76.8930266  47.9758575  71.3488905
  76.9176312  49.7388175  71.1070159  75.8794047  49.1396213  73.1810879
  74.9864047  50.6926213  73.0770879  74.1250504  50.5737334  72.4197955
  74.6468766  50.9843622  74.0709232  75.6440861  51.4644448  72.6772818
  74.4064047  47.9786213  68.1790879  74.0454047  46.8036213  68.1420879
  73.8204047  48.9396213  67.4630879  74.0595251  49.9085018  67.6186234
  72.8014047  48.6286213  66.4580879  71.9856361  48.0866543  66.9365150
  72.2294047  49.8976213  65.7990879  73.0790547  50.5278826  65.5364763
  71.6602112  49.6627214  64.8996765  71.3224047  50.7366213  66.6800879
  70.6114047  50.2066213  67.7610879  70.7259877  49.1506969  68.0060254
  69.7674047  51.0076213  68.5190879  69.2275051  50.5818381  69.3648525
  69.6114047  52.3466213  68.2010879  68.9514137  52.9773227  68.7966779
  70.2934047  52.8816213  67.1280879  70.1713883  53.9349766  66.8757890
  71.1344047  52.0796213  66.3700879  71.6622928  52.4995590  65.5138832
  73.3804047  47.7336213  65.3640879  72.7604047  46.7336213  64.9890879
  74.5624047  48.0976213  64.8580879  74.9703060  48.9777004  65.1394713
  75.2604047  47.2996213  63.8350879  74.5939340  47.2223117  62.9760540
  76.5434047  47.9946213  63.3950879  77.2246855  48.0713050  64.2424817
  77.0160510  47.4170316  62.6006724  76.3083875  48.9932996  63.0269741
  75.5624047  45.8736213  64.3120879  75.3724047  44.9106213  63.5640879
  76.0154047  45.7486213  65.5570879  76.2432179  46.5798496  66.0836428
  76.2734047  44.4446213  66.1720879  76.9648142  43.9072610  65.5230146
  76.9234047  44.6186213  67.5370879  76.2394114  45.1471719  68.2010814
  77.1536927  43.6398336  67.9578521  77.8433260  45.1936614  67.4313859
  75.0004047  43.5956213  66.2910879  75.0164047  42.4106213  65.9560879
  73.9064047  44.2056213  66.7480879  73.9698601  45.1474758  67.1072297
  72.6224047  43.5026213  66.8610879  72.7810931  42.5279699  67.3225767
  71.6304047  44.2966213  67.7210879  71.5648189  45.2998360  67.2999489
  70.6613822  43.8044054  67.6385110  72.0314047  44.3876213  69.1930879
  72.7315059  43.5769164  69.3948718  72.5323039  45.3445219  69.3398642
  70.8454047  44.2836213  70.1460879  71.0812557  44.8616240  71.0396124
  69.9777009  44.7192758  69.6507146  70.5354047  42.8426213  70.5400879
  69.5719052  42.8413616  71.0497619  70.4609906  42.2597271  69.6220487
  71.5704047  42.2376213  71.4310879  71.6392110  42.7773460  72.2820066
  71.3086083  41.2881536  71.6548596  72.4631960  42.2383025  70.9588354
  71.9934047  43.1386213  65.5080879  71.2414047  42.1686213  65.4250879
  72.3214047  43.8996213  64.4610879  72.8262197  44.7586132  64.6265992
  71.8984047  43.5936213  63.0870879  70.8532057  43.2933898  63.1613802
  71.9854047  44.8416213  62.2210879  73.0270967  45.1492734  62.1298293
  71.5825868  44.6265121  61.2313576  71.4089462  45.6444024  62.6808023
  72.6694047  42.4406213  62.4210879  72.3494047  42.0786213  61.2880879
  73.6834047  41.8906213  63.0990879  73.9951687  42.3419467  63.9471492
  74.3684047  40.6596213  62.6710879  74.3326309  39.9822771  63.5243313
  73.7709174  40.2494374  61.8569273  75.8134047  40.7956213  62.2060879
  76.3734047  39.8366213  61.6650879  76.4294047  41.9586213  62.4190879
  75.9322837  42.7173518  62.8632703  77.7964047  42.2006213  61.9590879
  77.8530435  41.9115429  60.9096476  78.1514047  43.6776213  62.0770879
  78.1079560  43.9798081  63.1234604  79.1584707  43.8415456  61.6936206
  77.4421129  44.2696476  61.4987202  78.8064047  41.3486213  62.7230879
  78.6404047  41.0916213  63.9090879  79.8434047  40.9086213  62.0160879
  79.8845016  41.1335130  61.0323023  80.9114047  40.0806213  62.5850879
  80.4847254  39.2858260  63.1969248  81.7344047  39.4416213  61.4530879
  81.0629489  38.7587582  60.9325647  82.0174691  40.2532890  60.7828864
  82.9824047  38.6886213  61.8930879  83.7649980  39.4157769  62.1096366
  82.7460668  38.1295104  62.7984284  83.4674047  37.7266213  60.8140879
  84.3884850  37.2565995  61.1587466  82.7044992  36.9627595  60.6637886
  83.7294047  38.3896213  59.5290879  83.0008501  38.3033629  58.8349215
  84.8364047  39.0736213  59.2120879  85.8344047  39.2376213  60.0870879
  85.7610880  38.8396515  61.0124769  86.6568696  39.7586991  59.8185193
  84.9434047  39.6146213  57.9970879  84.1926354  39.5041852  57.3305675
  85.7746777  40.1320885  57.7494760  81.8124047  40.9236213  63.4860879
  82.1234047  40.5346213  64.6140879  82.2244047  42.0736213  62.9550879
  81.9128654  42.2972629  62.0207288  83.1084047  43.0136213  63.6320879
  83.1669904  42.7831947  64.6958409  84.5144047  42.9056213  63.0290879
  84.7333744  41.8426082  62.9283175  84.4692399  43.3620774  62.0402967
  85.6104047  43.5736213  63.8460879  85.2850043  44.5862630  64.0843568
  85.7376211  43.0069395  64.7684706  86.9394047  43.6296213  63.0960879
  86.7327200  43.9757257  62.0833727  87.5752076  44.3544210  63.6045360
  87.6514047  42.2826213  63.0370879  86.9821766  41.5740963  62.5490032
  88.5501069  42.4079502  62.4331622  88.0264047  41.7646213  64.3840879
  87.1937457  41.6480098  64.9437132  88.4925956  40.8741963  64.2845414
  88.6468661  42.4208077  64.8363556  82.5574047  44.4346213  63.4610879
  82.1584047  44.8166213  62.3640879  82.5164047  45.2016213  64.5470879
  82.7232328  44.7933632  65.4474472  82.1564047  46.6216213  64.4940879
  82.0849458  46.9734546  63.4649105  80.8174047  46.9196213  65.2130879
  80.9164793  46.6600217  66.2670763  80.4564047  48.3976213  65.0850879
  80.3566978  48.6578779  64.0313204  79.5127044  48.5872853  65.5965151
  81.2417293  49.0043492  65.5359184  79.6924047  46.0456213  64.6660879
  79.9417696  44.9952382  64.8164696  78.7647099  46.2768296  65.1895615
  79.5660273  46.2396242  63.6009623  83.2814047  47.4156213  65.1510879
  83.6664047  47.1206213  66.2750879  83.8144047  48.4046213  64.4410879
  83.5109278  48.5449490  63.4880353  84.8444047  49.2936213  64.9790879
  85.0811993  49.0077284  66.0039259  86.1324047  49.2706213  64.1280879
  85.8770164  49.5008638  63.0937448  87.1384047  50.3006213  64.6460879
  87.3946460  50.0707499  65.6803027  88.0394188  50.2692084  64.0334807
  86.6988072  51.2966842  64.5940116  86.7564047  47.8656213  64.1450879
  87.2610255  47.7510709  65.1044298  85.9365393  47.1504185  64.0787163
  87.7414047  47.6096213  63.0230879  88.5618502  48.3241939  63.0890810
  88.1347769  46.5966584  63.1083162  87.2373641  47.7235439  62.0633669
  84.2864047  50.7086213  65.0160879  83.8354047  51.2186213  63.9970879
  84.3054047  51.3276213  66.1940879  84.5875075  50.8140446  67.0167400
  83.9324047  52.7296213  66.3480879  83.4286281  53.0760307  65.4456973
  83.2636041  52.8392332  67.2017801  85.1674047  53.5746213  66.5780879
  86.0424047  53.1766213  67.3460879  85.2544047  54.7186213  65.9000879
  84.5785822  54.9159615  65.1759194  86.3174047  55.7016213  66.1470879
  86.9974086  55.3035856  66.9002556  87.1124047  56.0596213  64.8750879
  86.4291350  56.4645768  64.1285935  88.1854047  57.0976213  65.1990879
  88.8693706  56.6931861  65.9452269  88.7401055  57.3424433  64.2932899
  87.7134238  57.9989104  65.5902542  87.7704047  54.8096213  64.2740879
  88.5680519  54.5059145  64.9520421  87.0098010  54.0297792  64.2363017
  88.3424047  55.0256213  62.8850879  89.1034607  55.8050564  62.9221622
  88.7899554  54.0982453  62.5276366  87.5452095  55.3289235  62.2064220
  85.6854047  56.9676213  66.7150879  84.7484047  57.5106213  66.1250879
  86.2144047  57.4266213  67.8490879  86.9902531  56.9229014  68.2545813
  85.7094047  58.6086213  68.5530879  85.2517671  59.3006233  67.8461224
  84.6474047  58.1846213  69.5840879  83.8241651  57.7547295  69.0135016
  85.1092681  57.4090934  70.1951024  84.1154047  59.2936213  70.4870879
  83.3071315  58.8684457  71.0820845  84.9182606  59.6215283  71.1473898
  83.5934047  60.4786213  69.7000879  82.5434047  60.3416213  69.0380879
  84.2414047  61.5406213  69.7310879  86.8694047  59.3276213  69.2470879
  87.6054047  58.7026213  70.0190879  87.0064047  60.6276213  68.9740879
  86.3566020  61.0534963  68.3287305  88.0924047  61.4526213  69.5130879
  88.9826264  60.8429450  69.6676820  88.4344047  62.5786213  68.5310879
  89.1724159  63.2457251  68.9765217  88.8362542  62.1561804  67.6101315
  87.0424047  63.6276213  68.0370879  87.7444395  64.4203053  67.2322914
  87.7694047  62.0446213  70.8860879  88.6724047  62.2616213  71.6950879
  86.4894047  62.3196213  71.1330879  85.8121146  62.1562044  70.4018750
  86.0154047  62.8586213  72.4120879  86.6109542  63.7259191  72.6970693
  84.5584047  63.2886213  72.2850879  84.4820473  64.0442064  71.5031929
  83.9586801  62.4207596  72.0107770  84.0844047  63.8216213  73.5010879
  83.1670336  64.0853944  73.3988439  86.1134047  61.8426213  73.5440879
  86.0724047  60.6336213  73.3070879  86.1884047  62.3556213  74.7750879
  86.2578974  63.3572976  74.8842424  86.2734047  61.5176213  75.9760879
  86.9557314  60.6868760  75.7961108  86.7934047  62.3296213  77.1710879
  87.0542136  61.6345727  77.9692016  87.6855025  62.8702378  76.8548673
  85.8254047  63.2516213  77.6450879  86.1854445  63.7391085  78.3896195
  84.9424047  60.8326213  76.3320879  84.8864047  60.0356213  77.2750879
  83.8684047  61.1386213  75.5900879  83.8829723  61.9581129  74.9999009
  82.6204047  60.3566213  75.6700879  82.2336348  60.3119709  76.6881815
  81.5214047  60.9196213  74.7220879  81.4348257  61.9919490  74.8973524
  81.8554047  60.6696213  73.2530879  81.9416925  59.5974148  73.0769390
  81.0633712  61.0778563  72.6252920  82.7998907  61.1548936  73.0070063
  80.1304047  60.3566213  75.0630879  79.5011704  60.4989347  74.1845028
  80.2523465  59.2902686  75.2531448  79.4784047  61.0106213  76.2610879
  79.3557015  62.0769838  76.0715759  78.5021342  60.5585070  76.4359814
  80.1068793  60.8683194  77.1402180  82.9034047  58.8726213  75.3640879
  82.2274047  57.9856213  75.8800879  83.9124047  58.6316213  74.5230879
  84.2906239  59.4207810  74.0188295  84.4604047  57.2966213  74.2410879
  83.7561146  56.7139460  73.6473169  85.7684047  57.4436213  73.4470879
  85.5844114  58.0960096  72.5934866  86.5183847  57.8969942  74.0952260
  86.2374047  56.1886213  72.9890879  87.0531124  56.3116405  72.4980816
  84.7254047  56.4166213  75.4730879  84.5354047  55.2076213  75.4140879
  85.1754047  57.0226213  76.5680879  85.3984216  58.0067976  76.5261385
  85.4014047  56.3066213  77.8410879  86.1477314  55.5263883  77.6916483
  85.9034047  57.2636213  78.9340879  85.1360618  58.0215437  79.0916880
  86.0292383  56.6796578  79.8458184  87.2194047  57.9406213  78.5800879
  87.9614047  57.4236213  77.7100879  87.5044047  59.0026213  79.1790879
  84.1384047  55.6096213  78.3500879  84.2054047  54.4996213  78.8820879
  82.9984047  56.2766213  78.1830879  83.0348033  57.2342907  77.8642717
  81.6994047  55.7156213  78.5420879  81.7853900  55.1473943  79.4682757
  80.6714047  56.8336213  78.7470879  80.5741374  57.4436804  77.8490533
  79.7202257  56.3451559  78.9586538  81.0544047  57.7096213  79.9090879
  80.8924047  57.2616213  81.2200879  80.4613070  56.2748423  81.3889712
  81.2694047  58.0486213  82.3000879  81.1324906  57.6903582  83.3203839
  81.8274047  59.2956213  82.0730879  82.2034047  60.0816213  83.1460879
  82.0325501  59.6653361  83.9940944  82.0054047  59.7586213  80.7810879
  82.4372388  60.7438087  80.6049470  81.6314047  58.9626213  79.7070879
  81.7875512  59.3146520  78.6873856  81.2094047  54.6916213  77.5230879
  80.6044047  53.6916213  77.9080879  81.4774047  54.9306213  76.2390879
  81.8823308  55.8155069  75.9686961  81.1244047  53.9736213  75.1810879
  80.0393840  53.8712103  75.1995617  81.5394047  54.5016213  73.8170879
  82.6242397  54.6009167  73.7800271  81.2119644  53.8074023  73.0431738
  81.0799620  55.4756244  73.6487742  81.7254047  52.5836213  75.4080879
  81.0604047  51.5776213  75.1730879  82.9714047  52.5436213  75.8750879
  83.4890438  53.4052967  75.9733967  83.6584047  51.2826213  76.1700879
  83.6005860  50.5951394  75.3262130  85.1554047  51.5076213  76.5260879
  85.2150807  52.2830528  77.2897920  85.8074047  50.2296213  77.0470879
  85.7485244  49.4538108  76.2837058  86.8528363  50.4255515  77.2853834
  85.2871133  49.8955694  77.9447559  85.9234047  52.0246213  75.3140879
  85.4924741  52.9708076  74.9867771  86.9687901  52.1758471  75.5831601
  85.8586086  51.2972287  74.5048893  82.9314047  50.5296213  77.2930879
  82.6714047  49.3366213  77.1630879  82.6014047  51.2326213  78.3750879
  82.9258984  52.1849900  78.4633879  81.8264047  50.6546213  79.4830879
  82.3108645  49.7426386  79.8319223  81.7324047  51.6376213  80.6540879
  81.3537200  52.5775744  80.2526090  81.0095890  51.2267467  81.3589421
  83.0504047  51.8866213  81.3680879  83.3265021  50.9896784  81.9224925
  83.8181888  52.1051027  80.6258780  82.9274047  53.0556213  82.3270879
  82.6726444  53.9473544  81.7543680  82.1280460  52.8388886  83.0357147
  84.2214047  53.2926213  83.0820879  84.4004717  52.4530500  83.7537691
  85.0415497  53.3673121  82.3680271  84.1364047  54.5496213  83.8720879
  83.3767719  54.4804503  84.5341098  85.0038079  54.6943371  84.3688465
  83.9709059  55.3277677  83.2498360  80.4144047  50.2356213  79.0660879
  79.9314047  49.1816213  79.4910879  79.7624047  51.0616213  78.2480879
  80.1734763  51.9569325  78.0255182  78.4164047  50.7656213  77.7350879
  77.7528930  50.5343309  78.5683682  77.8384047  51.9606213  76.9300879
  78.6128771  52.3250837  76.2552101  76.6064047  51.5586213  76.1210879
  75.8312719  51.1944631  76.7953716  76.2331761  52.4234788  75.5726149
  76.8745012  50.7706921  75.4172477  77.4624047  53.0936213  77.8910879
  76.4994287  52.8299532  78.3284174  78.2229247  53.1107141  78.6717393
  77.3674047  54.4606213  77.2500879  76.6067054  54.4444343  76.4695917
  77.0967624  55.1985773  78.0052520  78.3302015  54.7251942  76.8129114
  78.4154047  49.4816213  76.9020879  77.5754047  48.6026213  77.1140879
  79.3604047  49.3866213  75.9680879  79.9458268  50.1877073  75.7792986
  79.5254047  48.1896213  75.1300879  78.6168087  47.9499606  74.5777155
  80.6914047  48.3666213  74.1160879  81.5265963  48.8330096  74.6386166
  81.1444047  47.0366213  73.5180879  80.3098130  46.5698238  72.9949649
  81.9598892  47.2121047  72.8164533  81.4873322  46.3772006  74.3153751
  80.2854047  49.3286213  73.0080879  80.0394091  50.2985284  73.4403706
  81.1107005  49.4433964  72.3053695  79.4150166  48.9336520  72.4841370
  79.7264047  46.9336213  75.9900879  79.1094047  45.9016213  75.7260879
  80.5804047  47.0356213  77.0070879  81.1097316  47.8883149  77.1203402
  80.8304047  45.9336213  77.9400879  81.1009747  45.0337828  77.3876553
  81.9804047  46.2906213  78.8880879  82.8114600  46.6164324  78.2625534
  81.6354544  47.1261438  79.4971949  82.4434047  45.1546213  79.7980879
  81.5717887  44.7068363  80.2754504  82.9523377  44.4033569  79.1941912
  83.3954047  45.6766213  80.8670879  84.3740895  45.8104189  80.4062481
  83.0193605  46.6416495  81.2068095  83.5194047  44.7326213  82.0570879
  83.9124062  45.2920467  82.9060246  82.5289331  44.3493301  82.3023490
  84.4254047  43.5996213  81.7500879  85.3433671  43.9545494  81.5232159
  84.4887210  42.9917742  82.5542104  84.0611970  43.0808622  80.9637414
  79.5774047  45.5676213  78.7520879  79.2614047  44.3876213  78.9040879
  78.8744047  46.5816213  79.2570879  79.2148183  47.5237555  79.1282428
  77.6674047  46.3816213  80.0750879  77.9573221  45.7283034  80.8980234
  77.1894047  47.7116213  80.6530879  76.8869972  48.3733771  79.8414668
  76.3405736  47.5369587  81.3142074  77.9989337  48.1753101  81.2167854
  76.5254047  45.6926213  79.3190879  75.7254047  44.9786213  79.9270879
  76.4614047  45.8976213  78.0040879  77.0866489  46.5672251  77.5788823
  75.4464047  45.2616213  77.1600879  74.6034624  44.9287577  77.7656861
  74.9394047  46.2716213  76.1300879  75.7819080  46.6594007  75.5574496
  74.2482034  45.7621062  75.4587198  74.2174047  47.4346213  76.7760879
  73.0914047  47.2916213  77.2310879  74.8664047  48.5866213  76.8300879
  74.4258097  49.3916673  77.2518422  75.7993347  48.6554866  76.4492991
  75.9314047  43.9716213  76.4770879  75.2754047  43.4786213  75.5590879
  77.0554047  43.4206213  76.9460879  77.5910436  43.9530201  77.6167158
  77.6204047  42.1546213  76.4480879  78.6099245  42.0007138  76.8785091
  76.7264047  40.9676213  76.8360879  75.7864047  41.0892270  76.2978396
  77.2291909  40.0650064  76.4888235  76.4454047  40.8496213  78.3260879
  77.2760595  41.3006947  78.8689012  75.5283896  41.3959267  78.5468495
  76.2864047  39.3926213  78.7580879  75.8535217  38.8411035  77.9234985
  77.2784841  38.9982512  78.9779748  75.3954047  39.2386213  79.9850879
  74.3630252  39.3680547  79.6602185  75.5318044  38.2263620  80.3656475
  75.7034047  40.2206213  81.0640879  75.5766585  41.1586603  80.7117843
  75.0823088  40.0677516  81.8457340  76.6598574  40.1005673  81.3655584
  77.9244047  42.1396213  74.9400879  77.7264047  41.1236213  74.2640879
  78.4164047  43.2676213  74.4290879  78.4964717  44.0799850  75.0238600
  78.7554047  43.4096213  73.0070879  78.5487712  42.4812369  72.4746368
  77.9084047  44.5286213  72.3880879  78.0766586  45.3775748  73.0507098
  78.2903373  44.7626945  71.3943891  76.4044047  44.2376213  72.3020879
  76.0476085  43.9163677  73.2806549  75.6474047  45.4856213  71.8710879
  76.0033534  45.8072295  70.8923298  74.5817816  45.2634562  71.8146011
  75.8141536  46.2812548  72.5972164  76.1024047  43.0756213  71.3620879
  76.6033978  42.1769186  71.7218641  75.0265746  42.9032990  71.3305311
  76.4610528  43.3148171  70.3609606  80.2524047  43.6486213  72.7460879
  80.6414047  43.9136213  71.6100879  81.0874047  43.5266213  73.7790879
  80.7133613  43.3885978  74.7070644  82.5344047  43.7726213  73.6380879
  82.6857015  44.6633382  73.0283077  83.2224047  43.9876213  75.0060879
  84.2878978  44.0771231  74.7943965  82.8588434  44.9198131  75.4384554
  82.9944047  42.8466213  75.9930879  81.9074047  42.2206213  75.9720879
  83.9004047  42.5966213  76.8210879  83.2884047  42.7316213  72.7830879
  84.3984047  43.0126213  72.3240879  82.6904047  41.5546213  72.5750879
  81.8650685  41.3405208  73.1164569  83.2244047  40.5176213  71.6770879
  84.3055494  40.4485758  71.7973300  82.6024047  39.1406213  72.0020879
  83.1455516  38.3327569  71.5117352  82.6427659  39.0015429  73.0824250
  81.1604047  38.9936213  71.6030879  80.1514047  39.7746213  72.1280879
  78.9954047  39.4086213  71.6060879  78.0732087  39.9163510  71.8886900
  79.2134047  38.4086213  70.7700879  78.5134477  37.9252010  70.2256021
  80.5574047  38.1246213  70.7560879  80.9373989  37.3175316  70.1297399
  83.0444047  40.8496213  70.1880879  83.7244047  40.2826213  69.3340879
  82.1064047  41.7506213  69.8780879  81.5190961  42.1004597  70.6215803
  81.8404047  42.2116213  68.4990879  82.4135097  41.6490350  67.7621031
  80.3304047  42.0846213  68.1560879  79.7625940  42.6204691  68.9167175
  80.0034047  42.6606213  66.7750879  80.5705317  42.1249320  66.0138357
  78.9370900  42.5501203  66.5779509  80.2695491  43.7173153  66.7492697
  79.8974047  40.6306213  68.2320879  80.0676434  40.2524959  69.2401266
  78.8374676  40.5534893  67.9898410  80.4759547  40.0410389  67.5209104
  82.3054047  43.6636213  68.2650879  82.8874047  43.9646213  67.2150879
  82.0344047  44.5506213  69.2260879  81.6008775  44.2204207  70.0764532
  82.3224047  45.9856213  69.1030879  82.4682144  46.2955338  68.0682966
  81.1764047  46.8316213  69.7170879  81.0388770  46.5285191  70.7550255
  81.4964047  48.3226213  69.6610879  81.6336207  48.6265833  68.6233597
  80.6738104  48.8880031  70.0990177  82.4106856  48.5198074  70.2208287
  79.8434047  46.5486213  69.0270879  79.5924465  45.4938318  69.1390757
  79.0619670  47.1577136  69.4814680  79.9232035  46.7920762  67.9676245
  83.6294047  46.3386213  69.8170879  83.7924047  46.0156213  70.9920879
  84.5534047  46.9916213  69.1130879  84.4626966  47.0474012  68.1087175
  85.7174047  47.6266213  69.7430879  85.6687158  47.4811490  70.8222387
  87.0724047  47.0846213  69.2320879  87.8681016  47.7292069  69.6055530
  87.3104047  45.6566213  69.7080879  86.5153031  45.0113135  69.3346031
  88.2708315  45.3032989  69.3327975  87.3155491  45.6324220  70.7978074
  87.1064047  47.1236213  67.8050879  87.9500917  46.7858169  67.4957647
  85.6734047  49.1226213  69.4720879  85.3344047  49.5456213  68.3720879
  86.0184047  49.9106213  70.4850879  86.2459871  49.4889292  71.3741781
  86.0734047  51.3596213  70.3750879  85.6382049  51.7163837  69.4415886
  85.3634047  52.0386213  71.5660879  85.8370027  51.7108768  72.4915007
  85.4564047  53.5516213  71.4580879  84.9825752  53.8801797  70.5330822
  84.9493927  54.0088979  72.3077571  86.5040448  53.8525272  71.4558499
  83.8994047  51.5776213  71.6850879  83.9301893  50.5032545  71.8664416
  83.4895492  52.0817089  72.5603100  83.0224047  51.8616213  70.4820879
  83.4313976  51.3574476  69.6065118  82.0134280  51.4960574  70.6729496
  82.9907595  52.9359025  70.3003788  87.5434047  51.7756213  70.3450879
  88.3404047  51.3076213  71.1630879  87.8874047  52.6426213  69.3930879
  87.2017454  52.8837691  68.6917903  89.2114047  53.2536213  69.3060879
  89.8900947  52.7977388  70.0269556  89.8094047  53.1256213  67.8810879
  89.0919877  53.5220538  67.1625794  91.1244047  53.9006213  67.7690879
  91.8425265  53.5044250  68.4870227  91.5240053  53.7953663  66.7604544
  90.9445476  54.9548058  67.9799090  90.0274047  51.6476213  67.5220879
  90.8916649  51.3058113  68.0915798  89.1398825  51.1062030  67.8496089
  90.2604047  51.3896213  66.0480879  91.1480919  51.9303795  65.7199234
  90.4047492  50.3217571  65.8839844  89.3963097  51.7307736  65.4779521
  89.0664047  54.7296213  69.6740879  88.2864047  55.4466213  69.0450879
  89.8154047  55.1766213  70.6870879  90.3444794  54.5262398  71.2502782
  89.8434047  56.5876213  71.0510879  88.8886749  57.0452550  70.7919324
  90.0844047  56.7756213  72.5460879  89.3492389  56.1730085  73.0794623
  91.0859041  56.4082055  72.7699288  89.9664047  58.2286213  72.9880879
  90.7985978  58.7864996  72.5587544  89.0266706  58.6280238  72.6066702
  89.9954047  58.3606213  74.4970879  89.2316002  57.7083788  74.9205042
  90.9767167  58.0514005  74.8569610  89.7294047  59.7926213  74.9220879
  90.4902483  60.4392433  74.4849408  88.7462130  60.0930360  74.5598944
  89.7694047  59.9126213  76.4070879  90.6805101  59.6347066  76.7428708
  89.5906311  60.8706261  76.6723553  89.0641793  59.3138477  76.8123364
  90.9134047  57.3236213  70.2440879  92.1074047  57.1676213  70.4880879
  90.4724047  58.1286213  69.2840879  89.4828763  58.1782362  69.0879470
  91.3754047  58.9536213  68.4930879  91.8537094  59.6776679  69.1526941
  92.1350515  58.3108286  68.0482804  90.6504047  59.6956213  67.3900879
  89.4594047  59.4846213  67.1620879  91.3814047  60.5756213  66.7150879
  92.2941033  60.8359404  67.0605074  90.8954047  61.2126213  65.4900879
  89.8740319  61.5600125  65.6457029  91.7704047  62.4176213  65.0940879
  92.7159481  62.3044942  65.6244173  91.9444534  62.3377894  64.0210390
  91.1724047  63.7786213  65.4100879  90.2946454  63.9298231  64.7817747
  90.8752780  63.7955978  66.4586724  92.1844047  64.8956213  65.1490879
  92.6532109  65.1459774  66.1007399  92.9380027  64.5057155  64.4648635
  91.5514047  66.1496213  64.5480879  90.5595432  66.2691205  64.9840135
  92.1719920  67.0038539  64.8187487  91.4354047  66.0706213  63.0650879
  90.8600376  65.2793863  62.8140906  91.0131119  66.9185979  62.7147960
  92.3544184  65.9603181  62.6609268  90.8894047  60.1866213  64.3570879
  91.8374047  59.4116213  64.2190879  89.8364047  60.2026213  63.5410879
  89.0602962  60.8141280  63.7504068  89.7324047  59.3196213  62.3680879
  89.7659818  58.2651471  62.6420512  88.4274047  59.5846213  61.5820879
  88.3076889  60.6627053  61.4748397  88.4484047  58.9356213  60.2010879
  88.5676362  57.8574042  60.3075436  87.5120779  59.1479094  59.6850198
  89.2805238  59.3373312  59.6228936  87.2204047  59.1016213  62.3750879
  87.1743906  59.6315097  63.3265095  86.3105212  59.2958903  61.8072225
  87.3111324  58.0312503  62.5599535  90.9384047  59.4936213  61.4440879
  91.5054047  58.5096213  60.9660879  91.3474047  60.7446213  61.2410879
  90.8438950  61.5021646  61.6800702  92.4404047  61.0756213  60.3300879
  92.3550280  60.4791716  59.4217610  92.3964047  62.5656213  59.9460879
  92.4908129  63.1313996  60.8729543  93.2661127  62.7531343  59.3163682
  91.1284047  63.0036213  59.2080879  91.4249618  63.8356078  58.5693757
  90.8047590  62.1676342  58.5880249  89.9724047  63.4436213  60.1170879
  90.0364047  63.2076213  61.3510879  88.9844047  64.0136213  59.5870879
  93.8404047  60.7186213  60.8630879  94.8154047  60.8556213  60.1220879
  93.9414047  60.2806213  62.1250879  93.0989423  60.2236239  62.6792609
  95.2254047  59.9306213  62.7650879  96.0506341  60.0983663  62.0730205
  95.4374047  60.8096213  64.0020879  94.5375306  60.7213966  64.6108096
  96.2852241  60.3921502  64.5452455  95.7024047  62.2766213  63.6990879
  96.6699844  62.3449294  63.2018713  94.9209783  62.6194501  63.0208990
  95.7104047  63.1516213  64.9490879  95.7994047  62.6076213  66.0790879
  95.6294047  64.3966213  64.7990879  95.3914047  58.4616213  63.1910879
  96.4744047  58.0916213  63.6310879  94.3544047  57.6326213  63.0710879
  93.4704700  57.9754167  62.7228782  94.4254047  56.2366213  63.5470879
  95.3655456  56.0202324  64.0544440  93.2494047  55.8546213  64.4940879
  93.3697603  54.8170614  64.8056699  93.2344047  56.7566213  65.7250879
  93.1136077  57.7943722  65.4143115  92.4054704  56.4732853  66.3736934
  94.1734104  56.6473390  66.2676995  91.8964047  55.8726213  63.7900879
  91.9056636  55.1595598  62.9657338  91.1142077  55.5986281  64.4980393
  91.7010975  56.8725583  63.4026839  94.5194047  55.2346213  62.3950879
  94.1754047  55.5496213  61.2520879  95.0094047  54.0376213  62.7180879
  95.4054238  53.9179289  63.6394684  95.0024047  52.8886213  61.8110879
  94.6716350  53.2030517  60.8212273  96.4074047  52.2876213  61.6900879
  96.7116278  52.0102324  62.6993465  96.3065254  51.3888885  61.0816449
  97.4614047  53.2016213  61.0750879  97.5196391  54.0865000  61.7088853
  98.4112512  52.6680016  61.1088644  97.1664047  53.6236213  59.6390879
  97.6584047  54.6966213  59.2280879  96.4454047  52.9026213  58.9140879
  94.0524047  51.8366213  62.3670879  93.9144047  51.7116213  63.5810879
  93.3854047  51.0986213  61.4820879  93.4552160  51.3178623  60.4986454
  92.5164047  49.9826213  61.8880879  92.1135767  50.1747671  62.8825268
  91.3474047  49.8186213  60.9090879  91.8391982  49.6830081  59.9458395
  90.8303659  48.8995926  61.1850538  90.3334047  50.9646213  60.8080879
  90.8478834  51.8743623  60.4985983  89.2634047  50.6186213  59.7910879
  88.7481435  49.7091810  60.1001559  88.5465176  51.4369940  59.7244573
  89.7252408  50.4605960  58.8164927  89.6784047  51.2846213  62.1400879
  90.4424797  51.5770982  62.8603282  88.9701954  52.1029262  62.0100192
  89.1516832  50.4038759  62.5074445  93.3344047  48.6896213  61.9440879
  94.3954047  48.6106213  61.3320879  92.8504047  47.6756213  62.6870879
  91.6594047  47.6806213  63.5590879  90.8008863  48.0369468  62.9898091
  91.8369396  48.3470439  64.4031621  91.5164047  46.2496213  63.9810879
  90.8076824  45.7457472  63.3238797  91.1522157  46.2078414  65.0075976
  92.8724047  45.6536213  63.8750879  92.7925636  44.5879386  63.6605075
  93.4690521  45.7986768  64.7756824  93.5244047  46.3726213  62.6970879
  94.5888875  46.5573703  62.8414575  93.3164047  45.5626213  61.4100879
  94.0744047  44.6236213  61.1490879  92.2814047  45.9156213  60.6450879
  91.6421581  46.6115437  61.0016761  91.9864047  45.3016213  59.3520879
  92.6812515  44.4920855  59.1286174  90.5424047  44.7466213  59.2860879
  90.3563437  44.3475349  58.2889868  90.3624047  43.6436213  60.3140879
  90.5478620  44.0420870  61.3115505  89.3438945  43.2590742  60.2606005
  91.0660685  42.8368175  60.1090841  89.4904047  45.8366213  59.4950879
  89.5949121  46.5964518  58.7205960  88.4946710  45.3966783  59.4397321
  89.6307150  46.2947795  60.4741206  92.2284047  46.3296213  58.2520879
  92.1164047  47.5366213  58.4830879  92.5614047  45.8436213  57.0620879
  92.6197047  44.8427410  56.9398624  92.9184047  46.7026213  55.9320879
  93.6110123  47.4818265  56.2502595  93.5984047  45.8546213  54.8480879
  94.3995377  45.3117166  55.3496252  92.8437223  45.1488349  54.5010721
  94.1694047  46.6156213  53.6550879  94.5235003  45.8612682  52.9524724
  93.3531267  47.1784429  53.2022953  95.3084047  47.5626213  53.9980879
  95.6374047  48.4146213  53.1480879  95.8894047  47.4586213  55.0960879
  91.7134047  47.4576213  55.3440879  91.8394047  48.6266213  54.9670879
  90.5654047  46.7796213  55.2590879  90.5460385  45.8242952  55.5863132
  89.3284047  47.3536213  54.7110879  89.4127085  48.4399601  54.6817610
  89.0674047  46.8436213  53.2880879  88.9774122  45.7598922  53.3624641
  88.1109529  47.2669021  52.9812765  90.1284047  47.1936213  52.2600879
  91.1002984  46.8972240  52.6546410  89.9211134  46.6339881  51.3479788
  90.1404047  48.6836213  51.9490879  89.1745195  48.9565237  51.5240127
  90.2949519  49.2303798  52.8792867  91.2434047  49.0356213  50.9660879
  92.1663221  48.5465733  51.2777869  90.9619252  48.6810952  49.9745337
  91.4524047  50.5096213  50.9250879  91.7136577  50.8382732  51.8436926
  92.1878361  50.7272072  50.2678992  90.5974492  50.9629455  50.6358695
  88.1224047  46.9886213  55.5620879  88.1524047  46.0166213  56.3220879
  87.0584047  47.7756213  55.3980879  87.1699335  48.6249156  54.8629618
  85.7604047  47.5096213  56.0120879  85.7266994  46.5220571  56.4721749
  85.3874047  48.5676213  57.0820879  84.4698687  48.2596928  57.5834929
  86.5074047  48.6986213  58.1080879  87.4252190  49.0069914  57.6074625
  86.2324696  49.4447651  58.8535948  86.6664306  47.7378990  58.5978073
  85.0694047  49.9266213  56.4580879  84.2275826  49.8245105  55.7732442
  84.8135021  50.6370140  57.2441895  85.9400879  50.2886227  55.9113095
  84.6974047  47.4396213  54.9220879  84.8434047  48.0466213  53.8560879
  83.6344047  46.6926213  55.2070879  83.5826585  46.2544883  56.1156369
  82.5484047  46.4476213  54.2550879  82.9443845  46.4206427  53.2399173
  81.8714047  45.1036213  54.5530879  81.4304176  45.1719806  55.5475509
  81.0828829  44.9504951  53.8162801  82.8444047  43.9286213  54.5080879
  83.5194047  43.7526213  53.4640879  82.9234047  43.1826213  55.5150879
  81.5014047  47.5536213  54.2990879  80.9314047  47.9116213  53.2750879
  81.2344047  48.0726213  55.4960879  81.7398907  47.7347904  56.3025949
  80.2134047  49.0956213  55.6980879  79.9109771  49.5454222  54.7524051
  78.9694047  48.5146213  56.4140879  79.2716468  48.1174921  57.3831279
  77.9104047  49.6006213  56.6160879  77.6073078  49.9979342  55.6473902
  77.0434661  49.1740793  57.1206471  78.3250413  50.4045095  57.2243143
  78.3984047  47.3256213  55.6250879  78.0361530  47.7215314  54.6763363
  79.2274254  46.6424807  55.4403093  77.2784047  46.5826213  56.3220879
  76.4487812  47.2650487  56.5067973  76.9389030  45.7611424  55.6912074
  77.6400535  46.1859997  57.2707719  80.7814047  50.2476213  56.5250879
  81.4924047  50.0246213  57.5030879  80.4774047  51.4726213  56.1100879
  80.1077120  51.6010093  55.1789901  80.7074047  52.6556213  56.9320879
  81.2334145  52.3708248  57.8432980  81.5164047  53.7436213  56.1890879
  81.1062681  53.8611788  55.1860582  81.4444047  55.0846213  56.9310879
  81.8548181  54.9679610  57.9341093  82.0216590  55.8326253  56.3876100
  80.4055138  55.4073184  56.9994347  82.9774047  53.2946213  56.0450879
  83.3873602  53.2328880  57.0531684  82.9573829  52.2998312  55.6000133
  83.8464047  54.2086213  55.2010879  83.8672884  55.2035461  55.6458220
  84.8596813  53.8092639  55.1576889  83.4373094  54.2704910  54.1926669
  79.3464047  53.1956213  57.3690879  78.4514047  53.3766213  56.5460879
  79.2084047  53.4456213  58.6680879  79.9169373  53.1156407  59.3077705
  78.0344047  54.1096213  59.2200879  77.3779289  54.4450741  58.4172118
  77.2394047  53.2006213  60.1910879  76.3990106  53.7637628  60.5969322
  76.7174047  51.9636213  59.4580879  77.5573091  51.3996837  59.0523347
  76.1613408  51.3357827  60.1543008  76.0610777  52.2727002  58.6445744
  78.0804047  52.7736213  61.4050879  78.9697650  52.2726052  61.0228288
  78.3736734  53.6819238  61.9314714  77.3524047  51.8506213  62.3590879
  77.0592076  50.9418337  61.8335022  78.0100035  51.5933980  63.1894489
  76.4631142  52.3511518  62.7421431  78.5124047  55.3876213  59.8960879
  79.5884047  55.4116213  60.5010879  77.7414047  56.4606213  59.7610879
  76.9005849  56.4287259  59.2024252  78.1084047  57.7256213  60.3860879
  78.4430828  57.5403923  61.4067642  79.2364047  58.4206213  59.6200879
  80.0650471  57.7233342  59.4966303  78.8674633  58.7228643  58.6399699
  79.6844047  59.5676213  60.3320879  80.3909687  59.9933021  59.8410044
  76.9394047  58.6776213  60.4780879  76.1664047  58.8186213  59.5310879
  76.8234047  59.3226213  61.6320879  77.2932857  58.9689976  62.4532222
  75.9744047  60.4826213  61.7750879  75.3384264  60.5819442  60.8954484
  75.0854047  60.3546213  63.0070879  74.7766445  59.3118809  63.0809720
  75.6898994  60.6164180  63.8755053  73.8564047  61.2436213  62.9600879
  73.4973835  61.3148912  61.9333819  73.0971475  60.7635138  63.5774407
  74.1364047  62.6326213  63.4940879  73.9474047  62.8406213  64.7180879
  74.5734047  63.4976213  62.7000879  76.9064047  61.6866213  61.8190879
  77.5334047  61.9676213  62.8340879  76.9864047  62.3686213  60.6800879
  76.3500939  62.1083614  59.9401740  77.9674047  63.4296213  60.4140879
  78.6406739  63.5398189  61.2641846  78.8004047  63.0706213  59.1700879
  79.4435317  63.9032261  58.8850333  79.4138158  62.1961443  59.3871519
  77.9744047  62.7276213  57.9550879  77.5934047  61.4816213  57.5550879
  77.9246099  60.6463313  58.1720916  76.8424047  61.5586213  56.4110879
  76.4476864  60.7729231  55.9141218  76.7184047  62.8716213  56.0480879
  76.0534047  63.4466213  54.9610879  75.5352973  62.7910375  54.2611785
  76.0964047  64.8156213  54.8440879  75.5890269  65.3011343  54.0104544
  76.7844047  65.6106213  55.7810879  76.8127904  66.6958176  55.6828909
  77.4484047  65.0346213  56.8600879  77.9680862  65.6920757  57.5570711
  77.4204047  63.6416213  57.0020879  77.3394047  64.8126213  60.2150879
  78.0614047  65.8086213  60.0830879  76.0084047  64.8746213  60.2120879
  75.4732416  64.0750996  60.5194395  75.2884047  66.0526213  59.7590879
  75.7817698  66.4722227  58.8823754  73.8494047  65.6906213  59.3840879
  73.4019092  65.2136524  60.2560671  73.3287330  66.6249945  59.1744510
  73.7314047  64.7656213  58.1850879  72.7490098  64.9424111  57.7471994
  74.5036531  65.0678817  57.4777173  73.9124047  63.0076213  58.5450879
  72.4194047  62.7056213  59.4840879  71.5497604  62.9389492  58.8697786
  72.3826087  61.6577514  59.7819394  72.4151047  63.3359429  60.3733446
  75.2674047  67.1186213  60.8430879  74.8354047  66.8556213  61.9650879
  75.7284047  68.3176213  60.5000879  76.1787895  68.4451839  59.6051127
  75.6054047  69.4696213  61.3810879  75.5067580  69.1270477  62.4111420
  76.4963336  70.0908130  61.2890772  74.3934047  70.2926213  61.0190879
  73.6244047  69.9336213  60.1170879  74.2304047  71.4066213  61.7240879
  74.8142589  71.5834162  62.5290458  73.2074047  72.3896213  61.3820879
  72.2229577  71.9246232  61.4344334  73.2404047  73.5786213  62.3520879
  74.2066888  74.0633273  62.2126087  72.4455953  74.2596875  62.0479058
  73.0634047  73.2166213  63.8130879  71.9874047  72.4346213  64.2340879
  71.2731558  72.0783339  63.4917893  71.8184047  72.1096213  65.5690879
  70.9702151  71.5023566  65.8851668  72.7344047  72.5636213  66.5070879
  72.5774047  72.2386213  67.8380879  71.8028193  71.6959754  68.0028681
  73.8084047  73.3396213  66.1160879  74.5276445  73.6977453  66.8526623
  73.9684047  73.6626213  64.7760879  74.8128816  74.2751293  64.4601878
  73.4564047  72.8786213  59.9480879  74.6094047  73.0526213  59.5390879
  72.3814047  73.0726213  59.1880879  71.4678576  72.8996570  59.5825678
  72.4694047  73.4306213  57.7680879  71.4760440  73.4278138  57.3193946
  73.0714047  74.8346213  57.6180879  72.7147083  75.4792795  58.4213828
  74.1593242  74.7779188  57.6543673  72.6654047  75.6836213  56.0770879
  73.3470799  76.7935140  56.3460777  73.2594047  72.3816213  56.9620879
  73.9524047  72.7116213  55.9970879  73.1454047  71.1206213  57.3930879
  72.6124558  70.9994408  58.2424288  73.8504047  69.9546213  56.8400879
  73.5332488  69.0580843  57.3727536  73.5524047  69.7676213  55.3410879
  72.4667855  69.8578464  55.3038125  74.0045093  70.6043986  54.8086358
  73.9804047  68.4456213  54.6770879  75.0698002  68.4269216  54.6459651
  73.4724047  67.2156213  55.4210879  72.3829947  67.2333827  55.4522203
  73.8060035  66.3150234  54.9055919  73.8645160  67.2178470  56.4381150
  73.5084047  68.4176213  53.2350879  73.9498728  69.2528870  52.6914552
  73.8139583  67.4801936  52.7703647  72.4218789  68.4996438  53.2062295
  75.3604047  69.9136213  57.1150879  75.8434047  68.9506213  57.7220879
  76.0974047  70.9446213  56.6920879  75.6342664  71.7596063  56.3160540
  77.5714047  70.8926213  56.6430879  77.9164411  69.8593950  56.6817214
  78.0574047  71.5226213  55.3330879  77.7254392  72.5593668  55.2777988
  79.1451057  71.4862159  55.2724135  77.5334047  70.8356213  54.0980879
  77.8324047  69.5026213  53.8520879  78.4482895  68.9559540  54.5661893
  77.3574047  68.8646213  52.7130879  77.6022312  67.8174719  52.5352150
  76.5764047  69.5546213  51.8070879  76.2017953  69.0547924  50.9138137
  76.2694047  70.8856213  52.0360879  75.6521855  71.4335724  51.3241257
  76.7474047  71.5206213  53.1710879  76.5105192  72.5695277  53.3493587
  78.3404047  71.5086213  57.8280879  79.5644047  71.3826213  57.8830879
  77.6534047  72.1496213  58.7760879  76.6547990  72.2744163  58.6905773
  78.3354047  72.7556213  59.9290879  79.0963305  73.4515350  59.5758242
  77.3494047  73.5186213  60.8180879  76.7782203  74.1845622  60.1712725
  76.6809932  72.7780686  61.2573006  78.0024047  74.3236213  61.9190879
  78.7834047  75.4386213  61.6220879  78.9196096  75.7219548  60.5784070
  79.3834047  76.1846213  62.6280879  79.9884329  77.0565501  62.3795263
  79.2044047  75.8226213  63.9470879  79.8074047  76.5636213  64.9320879
  80.3204874  77.2983474  64.5878156  78.4324047  74.7206213  64.2700879
  78.2900363  74.4347055  65.3122414  77.8384047  73.9786213  63.2600879
  77.2306263  73.1085285  63.5083703  79.0744047  71.6756213  60.7300879
  78.6184047  70.5346213  60.8030879  80.2254047  72.0496213  61.2910879
  80.4658164  73.0279471  61.2191146  81.2124047  71.1276213  61.8930879
  81.8822492  71.7121129  62.5237837  80.5804047  70.0126213  62.7470879
  80.0877199  69.3347769  62.0500313  81.4063353  69.4945383  63.2344570
  79.5814047  70.4736213  63.7970879  80.1050465  71.1054543  64.5145049
  78.8123537  71.0582750  63.2922714  78.9364047  69.3126213  64.5240879
  79.6734047  68.3856213  64.9380879  77.6954047  69.3306213  64.6860879
  82.1754047  70.4936213  60.8790879  83.2714047  70.0946213  61.2630879
  81.7694047  70.3926213  59.6100879  80.8167585  70.6547443  59.4006695
  82.5894047  69.8236213  58.5300879  81.9957917  69.7598012  57.6181395
  83.8214047  70.6946213  58.2530879  84.4852656  70.6535111  59.1166259
  84.3405980  70.3050341  57.3774394  83.4404047  72.0306213  58.0170879
  84.2221723  72.5608174  57.8458236  82.9974047  68.3766213  58.7950879
  84.1284047  67.9766213  58.5120879  82.0624047  67.5976213  59.3330879
  81.1693117  67.9873791  59.5987436  82.3244047  66.1966213  59.6410879
  83.3632305  66.0790226  59.9494883  81.4214047  65.7066213  60.7710879
  81.2992555  66.5266186  61.4787483  80.4536079  65.4540379  60.3378778
  81.9834047  64.4966213  61.4920879  82.1922118  63.7303313  60.7455626
  82.9139662  64.7972578  61.9735182  80.8714047  63.8286213  62.7260879
  81.2904047  62.0876213  62.6180879  82.3457674  61.9520220  62.8545653
  80.6843743  61.5229028  63.3265516  81.0960155  61.7286143  61.6074307
  82.1874047  65.2846213  58.4230879  82.7064047  64.1746213  58.4450879
  81.5044047  65.7306213  57.3660879  80.9630493  66.5815351  57.4206712
  81.4694047  64.9616213  56.1140879  81.0270388  63.9844303  56.3077612
  80.6434047  65.6676213  55.0330879  79.6785440  65.8252640  55.5150545
  81.1143423  66.6315003  54.8400724  80.4364047  64.9236213  53.7040879
  81.3993963  64.8498709  53.1988069  79.8684047  63.5256213  53.9210879
  78.9051310  63.5985845  54.4259432  79.7367666  63.0328075  52.9578087
  80.5566271  62.9444993  54.5348857  79.5214047  65.7176213  52.7920879
  79.9666124  66.6914540  52.5882756  79.3842785  65.1780853  51.8549654
  78.5546697  65.8548782  53.2765288  82.8834047  64.6986213  55.5930879
  83.1684047  63.5966213  55.1310879  83.7524047  65.7056213  55.7040879
  83.4175481  66.5940828  56.0484807  85.1674047  65.5956213  55.3190879
  85.2434665  65.4725630  54.2387313  85.9474047  66.8566213  55.7260879
  85.9219673  66.9594855  56.8109248  86.9788631  66.7281970  55.3979097
  85.3944047  68.1296213  55.1040879  84.1924047  68.3996213  55.1740879
  86.2724047  68.9266213  54.5100879  85.9600927  69.7855678  54.0802370
  87.2493107  68.6709563  54.4903177  85.8544047  64.3756213  55.9530879
  86.6684047  63.7026213  55.3110879  85.5314047  64.1176213  57.2190879
  84.9549720  64.7810583  57.7167584  86.0314047  62.9536213  57.9450879
  87.1138796  62.8819086  57.8392361  85.6874047  63.0536213  59.4500879
  84.6041948  63.1167510  59.5538717  86.2024047  61.8416213  60.2220879
  87.2856716  61.7780921  60.1191489  85.9435090  61.9445769  61.2758774
  85.7462981  60.9355228  59.8232735  86.2764047  64.2386213  59.9970879
  86.0627631  64.3003801  60.9309741  85.4904047  61.6396213  57.3680879
  86.2404047  60.6786213  57.2290879  84.1974047  61.6036213  57.0440879
  83.6088972  62.3924540  57.2710265  83.5704047  60.4156213  56.4390879
  83.7784702  59.5236869  57.0300710  82.0294047  60.5726213  56.3020879
  81.8240538  61.4946257  55.7581779  81.4084047  59.3936213  55.5570879
  81.6129548  58.4712485  56.1006766  80.3307627  59.5383663  55.4806882
  81.8374895  59.3282736  54.5572291  81.3804047  60.7106213  57.6700879
  81.7804935  61.5895202  58.1756251  80.3022846  60.8193408  57.5520338
  81.5925034  59.8220768  58.2647338  84.2014047  60.1016213  55.0740879
  84.4234047  58.9356213  54.7540879  84.4964047  61.1416213  54.2880879
  84.2363366  62.0727643  54.5803833  85.1274047  60.9756213  52.9720879
  84.5787953  60.2262641  52.4014823  85.1304047  62.2946213  52.1770879
  85.7931843  62.9091986  52.7862818  85.6062114  62.0883470  51.2183601
  83.8084047  63.0446213  51.9420879  83.4340049  63.4100218  52.8983348
  84.0204047  64.2186213  50.9990879  84.3943862  63.8539384  50.0424045
  83.0740224  64.7369765  50.8449153  84.7449813  64.9076511  51.4330547
  82.7034047  62.1396213  51.4160879  82.5113751  61.3438452  52.1357854
  81.7944479  62.7229597  51.2690675  83.0119472  61.7030429  50.4661933
  86.5544047  60.4406213  53.1080879  86.9754047  59.5786213  52.3300879
  87.2944047  60.9576213  54.0900879  86.9630576  61.7702815  54.5899797
  88.6194047  60.4196213  54.4340879  89.2799071  60.4929110  53.5701062
  89.2434047  61.2056213  55.5970879  89.3383918  62.2373350  55.2584975
  88.5423582  61.1603665  56.4305060  90.5974047  60.6956213  56.0480879
  90.7044047  59.5856213  56.8980879  89.7914333  59.0960217  57.2370199
  91.9374047  59.1096213  57.3070879  92.0040804  58.2329935  57.9514325
  93.0914047  59.7496213  56.8870879  94.3154047  59.2806213  57.3100879
  94.2454341  58.5152303  57.8853100  93.0164047  60.8556213  56.0550879
  93.9258561  61.3595285  55.7278629  91.7754047  61.3216213  55.6380879
  91.7116192  62.1887164  54.9806858  88.5314047  58.9306213  54.7850879
  89.3484047  58.1326213  54.3120879  87.5464047  58.5776213  55.6140879
  86.9719487  59.3016948  56.0212944  87.3074047  57.1896213  56.0210879
  88.2369730  56.8133532  56.4481995  86.2224047  57.1266213  57.0860879
  85.2831395  57.4917055  56.6706430  86.0964848  56.0956235  57.4166753
  86.5092680  57.7473424  57.9349189  86.9414047  56.2876213  54.8480879
  87.3814047  55.1386213  54.7820879  86.1394047  56.8216213  53.9290879
  85.7551635  57.7399432  54.0998008  85.7444047  56.1206213  52.7070879
  85.3033275  55.1548984  52.9539267  84.7054047  56.9536213  51.9430879
  83.8401750  57.0305825  52.6015358  85.1501582  57.9400333  51.8116133
  84.2654047  56.4096213  50.5870879  85.1263636  55.9658032  50.0872118
  83.5027189  55.6464925  50.7421585  83.6994047  57.5216213  49.7260879
  83.2660403  57.0816364  48.8279189  82.9215387  58.0375530  50.2889718
  84.7154047  58.4976213  49.3270879  85.6750070  58.2512539  49.5234700
  84.4664047  59.6686213  48.7320879  83.2204047  60.0546213  48.4520879
  82.4434947  59.4552770  48.6914562  83.0597438  60.9444155  48.0020280
  85.4774047  60.4716213  48.4100879  86.4257481  60.1922625  48.6167364
  85.2917989  61.3567941  47.9605123  86.9424047  55.8236213  51.8060879
  87.1144047  54.6866213  51.3710879  87.7474047  56.8466213  51.5230879
  87.5507268  57.7558327  51.9164729  88.9084047  56.7096213  50.6280879
  88.5754931  56.3167622  49.6673950  89.6094047  58.0616213  50.3910879
  89.8778379  58.4575778  51.3705068  90.5154760  57.8724312  49.8154647
  88.7374047  59.0806213  49.6500879  87.7334047  58.7046213  49.0030879
  89.0784047  60.2796213  49.7140879  89.9384047  55.7316213  51.1860879
  90.5174047  54.9526213  50.4370879  90.1534047  55.7756213  52.4990879
  89.6241996  56.4214762  53.0673419  91.1774047  54.9606213  53.1480879
  92.0681614  54.9100252  52.5219156  91.5604047  55.5796213  54.4940879
  91.7478152  56.6379038  54.3123886  90.6953030  55.4714576  55.1483048
  92.7774047  54.9566213  55.1570879  92.5522013  53.9171254  55.3954836
  93.6142026  54.9958379  54.4597117  93.1444047  55.6996213  56.4300879
  93.4960967  56.6938799  56.1546581  92.2473823  55.7889149  57.0428495
  94.2274047  54.9796213  57.2190879  94.0842745  55.2005222  58.2768294
  94.1159032  53.9079933  57.0539208  95.5904047  55.4056213  56.8040879
  95.6940778  56.3985107  56.9574571  96.2794074  54.9070388  57.3488730
  95.7233900  55.2006266  55.8240924  90.7394047  53.5076213  53.3540879
  91.5004047  52.5856213  53.0470879  89.5244047  53.3146213  53.8720879
  88.8939436  54.0981989  53.9649546  89.0934047  52.0096213  54.3880879
  89.9093367  51.2904452  54.3163940  88.6844047  52.1396213  55.8550879
  87.9428916  52.9333179  55.9462095  88.2639140  51.2057009  56.2280225
  89.8014047  52.4956213  56.7650879  90.9864047  51.8336213  56.9140879
  91.1369040  50.9507662  56.2927854  91.7614047  52.4556213  57.8570879
  92.6828768  52.1638587  58.1501125  91.0774047  53.5376213  58.3440879
  91.4434047  54.4706213  59.3150879  92.4169539  54.3722427  59.7953194
  90.5414047  55.4636213  59.6050879  90.7910997  56.2151552  60.3540533
  89.2944047  55.5356213  58.9550879  88.5831831  56.3261283  59.1945914
  88.9354047  54.6096213  57.9970879  87.9610280  54.7135891  57.5197186
  89.8344047  53.5876213  57.6780879  87.9644047  51.3036213  53.6520879
  87.8354047  50.0976213  53.8050879  87.1304047  52.0106213  52.8930879
  87.2541249  53.0030287  52.7519492  85.9604047  51.3616213  52.2870879
  85.4543023  50.7623198  53.0439216  84.9684047  52.3786213  51.7260879
  84.8143948  53.0677431  52.5564440  85.4448283  52.9065840  50.9000274
  83.6124047  51.8226213  51.2640879  83.7929631  51.0540459  50.5125618
  82.8294047  51.2246213  52.4220879  82.6480488  51.9927674  53.1738594
  81.8762791  50.8415514  52.0575200  83.4017480  50.4102226  52.8662483
  82.8064047  52.9146213  50.5780879  83.3558796  53.2825669  49.7116049
  81.8473131  52.5101837  50.2545531  82.6375004  53.7349170  51.2757162
  86.3804047  50.3966213  51.1820879  87.0674047  50.7876213  50.2380879
  85.9584047  49.1406213  51.3130879  85.4602086  48.8730941  52.1499446
  86.2234047  48.1116213  50.3030879  87.2908004  48.0778181  50.0848610
  85.7864047  46.7416213  50.8130879  84.7177859  46.7570355  51.0273686
  85.9933081  45.9876692  50.0535831  86.3354848  46.5000470  51.7231715
  85.4944047  48.4406213  48.9990879  84.5264047  49.2026213  49.0170879
  85.9604047  47.8806213  47.8610879  87.2104047  47.1286213  47.6430879
  87.3353476  46.3990131  48.4431888  88.0522643  47.8209651  47.6486974
  87.0084047  46.4866213  46.3060879  86.6235787  45.4775441  46.4536384
  87.9669736  46.4374375  45.7895339  86.0404047  47.3336213  45.5520879
  85.3934014  46.6725146  44.9755260  86.5225730  48.0448319  44.8814219
  85.2114047  48.0866213  46.6080879  85.1673346  49.1559156  46.4012889
  83.7894047  47.5286213  46.7120879  83.5904047  46.4496213  47.2760879
  82.8184047  48.2906213  46.2100879  83.0755334  49.1698352  45.7846857
  81.3874047  47.9776213  46.3550879  80.7920904  48.7999271  45.9582085
  81.0224047  46.6886213  45.5870879  81.5238570  45.8593976  46.0861199
  79.9430273  46.5498738  45.6486789  81.4474047  46.7316213  44.1190879
  81.4174047  47.8226213  43.5090879  81.8044047  45.6656213  43.5690879
  80.9314047  47.9016213  47.8250879  79.9684047  47.1986213  48.1470879
  81.6154047  48.6406213  48.7040879  82.4213979  49.1571273  48.3820695
  81.2494047  48.7366213  50.1170879  80.9128802  47.7664603  50.4826534
  82.1064903  49.0678808  50.7034076  80.1264047  49.7396213  50.2760879
  79.9114047  50.5746213  49.3940879  79.4194047  49.6636213  51.4000879
  79.6962945  49.0022083  52.1113996  78.2184047  50.4736213  51.6330879
  77.9072532  50.9540746  50.7054843  77.0734047  49.5866213  52.1330879
  77.3913559  49.3076472  53.1376673  76.1709370  50.1948534  52.1939631
  76.7824047  48.3226213  51.3210879  77.6766833  47.6998820  51.2973711
  75.6394047  47.5436213  51.9520879  74.7445913  48.1655928  51.9757346
  75.4424468  46.6467590  51.3647666  75.9105454  47.2592201  52.9687979
  76.4694047  48.6596213  49.8710879  77.3220495  49.1708191  49.4241279
  76.2670216  47.7414332  49.3196598  75.5945471  49.3084300  49.8290132
  78.4814047  51.5916213  52.6380879  79.3244047  51.4516213  53.5230879
  77.7534047  52.6976213  52.4850879  77.1683092  52.7790083  51.6658574
  77.8034047  53.8266213  53.4180879  78.3730547  53.5335500  54.2999650
  78.4464047  55.0806213  52.7830879  77.7864077  55.4564880  52.0012768
  78.6644047  56.1696213  53.8320879  79.3247224  55.7946247  54.6140462
  79.1178554  57.0422010  53.3618882  77.7064003  56.4501384  54.2698513
  79.7934047  54.7266213  52.1380879  80.4330806  54.3411602  52.9320245
  79.5992501  53.9364695  51.4127854  80.4854047  55.8836213  51.4500879
  80.6803183  56.6740307  52.1749062  81.4284652  55.5419010  51.0235163
  79.8464862  56.2693416  50.6556681  76.3714047  54.1126213  53.8810879
  75.4464047  54.1136213  53.0670879  76.2014047  54.3276213  55.1870879
  77.0156753  54.3149269  55.7845004  74.8934047  54.5786213  55.8000879
  74.1266731  54.6465879  55.0283352  74.5304047  53.4346213  56.7510879
  75.3911145  53.1380647  57.3505311  73.7266674  53.7652296  57.4089667
  74.0374047  52.1906213  56.0600879  74.8994047  51.4106213  55.2960879
  75.9414567  51.7136146  55.1939970  74.4464047  50.2576213  54.6670879
  75.1314320  49.6599243  54.0657588  73.1244047  49.8676213  54.8040879
  72.7648730  48.9626734  54.3142858  72.2584047  50.6326213  55.5670879
  71.2164429  50.3310773  55.6742654  72.7154047  51.7806213  56.1940879
  72.0354780  52.3765841  56.8028800  74.9244047  55.8976213  56.5940879
  75.6334047  55.9776213  57.5950879  74.2014047  56.9406213  56.1730879
  74.0094047  58.1586213  56.9810879  74.9781244  58.5157798  57.3305449
  73.3774568  57.9266082  57.8383572  73.3534047  59.1126213  56.0290879
  74.1044592  59.6825318  55.4820794  72.6985839  59.7980669  56.5671170
  72.5684047  58.2316213  55.1180879  72.4445668  58.7688525  54.1777976
  71.5932933  57.9082054  55.4823124  73.4754047  57.0186213  54.9080879
  72.9555884  56.0750136  54.7422751  74.4284047  57.2816213  53.7520879
  75.6104047  57.5526213  53.9730879  73.9054047  57.2056213  52.5330879
  72.9625074  56.8607458  52.4230662  74.6974047  57.4646213  51.3240879
  75.7015419  57.7807728  51.6066758  74.8064047  56.2016213  50.4560879
  75.2724669  56.4861007  49.5127127  75.4553709  55.5040435  50.9855482
  73.4664047  55.5366213  50.1790879  72.4064047  56.1976213  50.2500879
  73.4844047  54.3246213  49.8760879  74.2354047  58.6646213  50.4810879
  74.8864047  58.9926213  49.4900879  73.1344047  59.3096213  50.8650879
  72.6105310  58.9748833  51.6610817  72.6144047  60.4576213  50.1270879
  73.4160539  60.9245145  49.5548392  71.5164047  60.0136213  49.1580879
  71.9311720  59.1993941  48.5638644  70.6936676  59.6367795  49.7657013
  71.0034047  61.1066213  48.2320879  70.5546758  61.8904399  48.8423104
  71.8507844  61.5155942  47.6818235  69.9694047  60.5746213  47.2490879
  70.4769184  60.0534741  46.4373401  69.3034268  59.8824209  47.7642883
  69.1674047  61.6626213  46.6800879  68.2585334  61.8024426  47.0978225
  69.5384047  62.4646213  45.6740879  70.7214047  62.3276213  45.0730879
  71.3582490  61.6051115  45.3772408  70.9748403  62.9470311  44.3166479
  68.7074047  63.4256213  45.2600879  67.8090444  63.5394209  45.7074115
  68.9814406  64.0338112  44.5017291  72.0914047  61.5326213  51.0780879
  71.3674047  61.2326213  52.0280879  72.4844047  62.7766213  50.8150879
  73.1720835  62.9202267  50.0894332  71.9964047  63.9406213  51.5450879
  71.0928054  63.6950906  52.1030504  73.0484047  64.4386213  52.5200879
  73.9562731  64.6971585  51.9750801  72.6740322  65.3202722  53.0403158
  73.2712074  63.6564525  53.2458084  71.6334047  65.0366213  50.5480879
  72.3224047  65.2246213  49.5430879  70.5444047  65.7466213  50.8340879
  70.0104482  65.5159636  51.6597917  70.0694047  66.8306213  49.9850879
  70.8417287  67.0946330  49.2626527  68.7924047  66.4336213  49.2180879
  68.3330668  67.3350427  48.8124423  69.1164047  65.4706213  48.0780879
  69.5753800  64.5686995  48.4830303  68.1984604  65.2062672  47.5531173
  69.8069714  65.9485445  47.3832443  67.8724047  65.8036213  50.1130879
  67.0778756  65.5570603  49.6339935  69.7874047  68.0606213  50.8400879
  69.2364047  67.9376213  51.9290879  70.1714047  69.2336213  50.3330879
  70.6353325  69.2323385  49.4359432  69.9714047  70.5116213  51.0060879
  69.5942203  70.3471977  52.0154422  71.2974047  71.2686213  51.0970879
  71.9819940  70.5134374  51.4832667  71.5788206  71.5251239  50.0757596
  71.3704047  72.5206213  51.9760879  70.6083285  73.2213493  51.6350296
  71.1424047  72.1996213  53.4450879  71.9044253  71.4992552  53.7870102
  71.2029297  73.1164326  54.0315131  70.1562176  71.7527855  53.5710766
  72.7164047  73.2086213  51.8050879  72.8470957  73.4983284  50.7624523
  72.7537933  74.0967835  52.4358583  73.5141070  72.5244053  52.0942567
  68.9544047  71.3296213  50.2150879  69.0964047  71.4966213  49.0030879
  67.9264047  71.8196213  50.9060879  67.8495067  71.5987997  51.8886478
  66.8874047  72.6466213  50.2990879  67.0885277  72.7623808  49.2340769
  65.5114047  72.0066213  50.4690879  65.3224023  71.9257230  51.5395237
  64.7786341  72.6776978  50.0209768  65.3984047  70.6466213  49.8360879
  65.8034047  69.5076213  50.5250879  66.2024564  69.6159793  51.5336095
  65.7064047  68.2536213  49.9510879  66.0286990  67.3693720  50.5009346
  65.2024047  68.1256213  48.6730879  65.1094047  66.8766213  48.1120879
  65.4203018  66.1797073  48.6945427  64.7914047  69.2386213  47.9660879
  64.3905766  69.1358871  46.9576818  64.8914047  70.4916213  48.5470879
  64.5711421  71.3753710  47.9952561  66.8694047  74.0296213  50.9250879
  67.3444047  74.2216213  52.0380879  66.3164047  74.9836213  50.1840879
  66.1090536  74.7870718  49.2153397  66.0644047  76.3306213  50.6860879
  66.1447066  76.3742706  51.7722488  67.0254047  77.3846213  50.0750879
  68.0485957  77.0454821  50.2368409  66.7854047  77.5836213  48.5780879
  65.7624892  77.9232277  48.4155693  67.4808153  78.3300158  48.1941610
  66.9415862  76.6396727  48.0559097  66.8974047  78.7086213  50.8140879
  67.1496497  78.5647748  51.8646985  67.5775321  79.4380486  50.3742445
  65.8732104  79.0727945  50.7334358  64.6044047  76.6946213  50.4130879
  64.0274047  76.2786213  49.4100879  64.0184047  77.4496213  51.3320879
  64.5003914  77.6229397  52.2025757  62.6604047  77.9646213  51.1780879
  62.4011995  78.1016208  50.1282579  61.6244047  77.0136213  51.8230879
  61.7501065  76.0242666  51.3832281  61.7974047  76.9216213  53.3510879
  61.6713725  77.9105848  53.7917314  61.0494113  76.2434300  53.7617721
  62.7940137  76.5456627  53.5824454  60.2984047  77.4526213  51.5040879
  59.6595603  76.8596200  51.9063660  62.6214047  79.3746213  51.7640879
  63.6534047  79.8866213  52.1860879  61.4524047  80.0056213  51.7640879
  60.6338894  79.5387666  51.4005240  61.3114047  81.3806213  52.2420879
  62.2006661  81.6693151  52.8024176  61.1474047  82.3306213  51.0690879
  60.2558275  82.0598780  50.5035014  61.0466304  83.3510869  51.4386751
  62.0218533  82.2638681  50.4217990  60.1254047  81.5006213  53.1710879
  59.1094047  80.8256213  52.9720879  60.2504047  82.3736213  54.1720879
  61.0998816  82.9127531  54.2605477  59.2164047  82.5366213  55.1930879
  58.2572203  82.1585129  54.8393954  59.5974047  81.8226213  56.5090879
  58.8072522  81.9794505  57.2433658  59.7724047  80.3296213  56.2630879
  60.5627643  80.1719678  55.5292094  60.0408277  79.8359747  57.1970916
  58.8390298  79.9110235  55.8866755  60.8764047  82.4216213  57.1340879
  61.7139108  82.1185205  56.5057454  60.7726484  83.5061969  57.1019959
  61.1304047  81.9816213  58.5590879  61.2347402  80.8971230  58.5919118
  62.0462601  82.4454753  58.9253496  60.2934760  82.2847976  59.1881621
  58.8804047  83.9836213  55.5300879  59.6944047  84.8966213  55.3540879
  57.6594047  84.1556213  56.0280879  56.9777935  83.4233623  55.8891555
  57.2564047  85.3396213  56.7610879  57.7004607  86.2292328  56.3144282
  55.7344047  85.4776213  56.7150879  55.4440313  85.4094498  55.6666914
  55.3249597  84.6276423  57.2609730  55.1914047  86.7716213  57.3090879
  55.8821815  87.5677558  57.0314227  54.2192130  86.9594952  56.8534062
  55.0434047  86.7346213  58.8180879  54.7224047  85.6566213  59.3640879
  55.2454047  87.7896213  59.4530879  57.7424047  85.1456213  58.1970879
  57.6454047  84.0426213  58.7400879  58.2674047  86.2086213  58.8060879
  58.3450269  87.0800220  58.3013751  58.8184047  86.1396213  60.1600879
  58.1311806  85.6160498  60.8246894  60.1554047  85.3676213  60.1250879
  60.1063836  84.6212226  59.3322543  60.9294456  86.0977380  59.8886765
  60.4874047  84.6866213  61.4410879  59.5714047  84.4006213  62.2340879
  61.6794047  84.4106213  61.6750879  59.0024047  87.5276213  60.8150879
  60.0184047  87.7836213  61.4590879  58.0034047  88.4016213  60.6810879
  57.1964492  88.1469569  60.1296642  58.0774047  89.7696213  61.2190879
  58.9669091  90.2684372  60.8342973  56.8334047  90.5876213  60.8030879
  56.9080020  90.6947357  59.7209322  55.9789817  89.9563565  61.0471493
  56.6464047  91.9706213  61.4420879  55.8804413  92.4825373  60.8595564
  56.2789538  91.7997458  62.4539592  57.9084047  92.8356213  61.4970879
  57.6466008  93.7821841  61.9699266  58.6455273  92.3159361  62.1091967
  58.5014047  93.1146213  60.1810879  57.8825055  93.0155171  59.3891021
  59.7754047  93.4626213  59.9570879  60.1784047  93.7046213  58.7170879
  59.5238255  93.6251279  57.9520344  61.1380613  93.9673105  58.5434410
  60.6634047  93.5546213  60.9430879  60.3809879  93.3588242  61.8928270
  61.6160285  93.8198558  60.7375222  58.2704047  89.7886213  62.7430879
  59.2284047  90.3856213  63.2360879  57.3664047  89.1346213  63.4690879
  56.6177374  88.6566851  62.9882828  57.3524047  89.1506213  64.9390879
  57.2001454  90.1666132  65.3033360  56.2024047  88.2646213  65.4560879
  55.2887476  88.6819840  65.0328407  56.3762318  87.2732648  65.0376424
  56.0584047  88.1586213  66.9710879  56.8234423  87.4767807  67.3424525
  56.2076803  89.1451383  67.4099534  54.6884047  87.6356213  67.4000879
  53.7084047  88.3846213  67.4270879  54.6174047  86.3496213  67.7430879
  53.7340628  85.9557840  68.0341216  55.4472692  85.7748539  67.7103972
  58.6954047  88.7246213  65.5540879  59.2344047  89.4136213  66.4160879
  59.2404047  87.6086213  65.0900879  58.7559960  87.0554708  64.3976487
  60.4884047  87.0916213  65.6380879  60.4920835  87.2245883  66.7199407
  60.6554047  85.5986213  65.3270879  59.6624897  85.1489794  65.3334992
  61.0812849  85.5234283  64.3265520  61.5474047  84.8676213  66.3120879
  61.1144047  84.6036213  67.6180879  60.1199811  84.9340110  67.9181942
  61.9274047  83.9336213  68.5250879  61.5828548  83.7416254  69.5412202
  63.1934047  83.5146213  68.1290879  64.0104047  82.8476213  69.0100879
  63.6089789  82.7231112  69.8731952  63.6414047  83.7566213  66.8430879
  64.6304977  83.4196409  66.5328624  62.8244047  84.4326213  65.9450879
  63.1757184  84.6328629  64.9328715  61.7004047  87.8976213  65.1560879
  62.6654047  88.0476213  65.9060879  61.6564047  88.4256213  63.9310879
  60.9334021  88.1598698  63.2778325  62.7094047  89.3356213  63.4700879
  63.6775564  88.8634879  63.6370361  62.5824047  89.6796213  61.9820879
  62.3506844  88.7597969  61.4451260  61.7567024  90.3824471  61.8709504
  63.8524047  90.2946213  61.4100879  64.1764439  91.0879629  62.0836667
  64.6158410  89.5176218  61.3708585  63.6414047  90.8656213  60.0220879
  63.3523284  90.0585951  59.3488550  62.8435411  91.6071197  60.0632362
  64.9144047  91.5196213  59.5110879  65.2662271  92.2112492  60.2765763
  65.6568928  90.7357768  59.3614270  64.7074047  92.2556213  58.2360879
  64.0197478  92.9822747  58.3746604  65.5800378  92.6697389  57.9409302
  64.3818055  91.6148409  57.5265213  62.7424047  90.6186213  64.3010879
  63.8274047  91.1176213  64.6080879  61.5694047  91.1496213  64.6560879
  60.7083136  90.7946343  64.2654403  61.4984047  92.2966213  65.5700879
  62.0576935  93.1272165  65.1394991  60.0474047  92.7556213  65.8180879
  59.4480163  91.8542557  65.9460441  60.0288637  93.3375080  66.7395889
  59.4704047  93.5936213  64.6740879  60.2254047  94.0456213  63.7880879
  58.2344047  93.8166213  64.6710879  62.1694047  91.9536213  66.9010879
  62.9554047  92.7416213  67.4200879  61.8664047  90.7636213  67.4180879
  61.1978389  90.1887472  66.9255041  62.3854047  90.2816213  68.6990879
  62.2225458  91.0197003  69.4844640  61.6394047  88.9936213  69.0740879
  60.5751430  89.1859686  68.9382622  61.9709033  88.2558377  68.3434141
  61.8814047  88.4646213  70.4690879  61.4574047  89.1796213  71.5910879
  60.9534771  90.1355135  71.4481668  61.6684047  88.6916213  72.8720879
  61.3423173  89.2626205  73.7414145  62.3004047  87.4656213  73.0430879
  62.5084047  86.9756213  74.3100879  62.1787355  87.5596868  74.9969542
  62.7244047  86.7296213  71.9470879  63.2222992  85.7693426  72.0814997
  62.5094047  87.2266213  70.6700879  62.8303621  86.6527672  69.8007330
  63.9124047  90.0546213  68.7060879  64.5794047  90.3886213  69.6860879
  64.4544047  89.5066213  67.6160879  63.8557593  89.3055409  66.8278686
  65.8744047  89.1266213  67.5290879  66.2894047  88.9978053  68.5287282
  66.0154047  87.8046213  66.7660879  65.5892680  87.9725430  65.7769929
  67.0847236  87.6149030  66.6730067  65.3434047  86.6056213  67.4090879
  64.2900619  86.8541260  67.5387610  65.4363142  85.7700819  66.7152984
  65.9444047  86.2156213  68.7590879  66.0184115  87.1189059  69.3646445
  65.2620357  85.5130258  69.2374513  67.3164047  85.5796213  68.6300879
  67.2306472  84.6817467  68.0180688  67.9869316  86.2878235  68.1433204
  67.8634047  85.2176213  69.9690879  67.2424451  84.5610604  70.4201275
  68.7749260  84.7970686  69.8578926  67.9433501  86.0495356  70.5362090
  66.8044047  90.1526213  66.8720879  67.9924047  90.1986213  67.2060879
  66.2894047  90.9426213  65.9260879  65.3114515  90.8623428  65.6867928
  67.1204047  91.8716213  65.1530879  68.1708153  91.7621354  65.4228093
  66.9544047  91.6566213  63.6310879  65.9308612  91.9051619  63.3505765
  67.9244047  92.5386213  62.8490879  68.9482422  92.2903246  63.1287416
  67.7890593  92.3700029  61.7807480  67.7295085  93.5862064  63.0786091
  67.1604047  90.1786213  63.2560879  66.3731578  89.6190660  63.7613016
  67.0186845  90.1108910  62.1774649  68.5124047  89.5956213  63.6260879
  68.6546565  89.6625810  64.7046892  68.5544820  88.5506925  63.3187565
  69.3001839  90.1544079  63.1208539  66.8304047  93.3246213  65.5160879
  67.7214047  94.0306213  65.9980879  65.5954047  93.7666213  65.2990879
  64.9053678  93.1600066  64.8796037  65.2404047  95.1726213  65.5250879
  66.0261165  95.8170967  65.1308700  63.9234047  95.5206213  64.8230879
  63.1536684  94.8305779  65.1686966  63.6076880  96.5449738  65.0208878
  63.9934047  95.3736213  63.3330879  64.7214047  96.2326213  62.5340879
  65.2456751  97.0259103  62.8745770  64.6204047  95.8516213  61.2720879
  65.1191368  96.4104680  60.4802195  63.8644047  94.7696213  61.2250879
  63.4624047  94.4466213  62.5000879  62.8307828  93.5742588  62.6678336
  65.2104047  95.5666213  67.0060879  65.3284047  96.7496213  67.3310879
  65.0754047  94.5796213  67.8900879  64.8502172  93.6581296  67.5433272
  65.1604047  94.7756213  69.3460879  64.3385094  95.3997872  69.6968074
  65.0694047  93.4106213  70.0390879  64.0917987  92.9666782  69.8512040
  65.8467663  92.7572460  69.6429696  65.2474047  93.4376213  71.5120879
  64.2764047  93.5946213  72.4500879  63.2560272  93.7169111  72.0868048
  64.8234047  93.5626213  73.7050879  64.3119987  93.6552648  74.5711021
  66.1754047  93.3816213  73.5960879  67.1564047  93.2846213  74.5870879
  66.8536060  93.3591647  75.6315279  68.4524047  93.0996213  74.1750879
  69.2457450  93.0216653  74.9184815  68.7844047  93.0076213  72.8110879
  69.8162892  92.8562200  72.4942418  67.8104047  93.1066213  71.8300879
  68.1186237  93.0401409  70.7866886  66.4774047  93.2946213  72.2220879
  66.4294047  95.5246213  69.8000879  66.3734047  96.3156213  70.7420879
  67.5544047  95.2836213  69.1230879  67.5560908  94.5648278  68.4135582
  68.8264047  95.9706213  69.4270879  69.0459885  95.8878142  70.4915245
  69.9794047  95.3376213  68.6380879  69.7505203  95.3352835  67.5723930
  70.8848595  95.9185735  68.8134336  70.3004047  93.9176213  69.0120879
  69.9344047  92.7896213  68.3350879  69.3441277  92.9320382  67.4298862
  70.4124047  91.6756213  68.9730879  70.2743218  90.7209648  68.6736491
  71.1134047  92.0676213  70.0820879  71.7884047  91.3016213  71.0380879
  71.7886278  90.2171242  70.9287051  72.4124047  91.9696213  72.0610879
  72.9436431  91.4045969  72.8270077  72.3834047  93.3696213  72.1460879
  72.8843401  93.8922955  72.9609345  71.7124047  94.1356213  71.1900879
  71.7133540  95.2199328  71.3013008  71.0654047  93.4776213  70.1370879
  68.8284047  97.5006213  69.1760879  69.7094047  98.2036213  69.6670879
  67.8584047  98.0066213  68.4170879  67.2084971  97.3828724  67.9602982
  67.7314047  99.4496213  68.1680879  68.7026067  99.8640853  67.8977444
  66.7484047  99.7136213  67.0190879  65.7879660  99.3030654  67.3306976
  66.6660644 100.7962095  66.9225328  67.1464047  99.1116213  65.6730879
  67.9557073  99.7163453  65.2638948  67.5093239  98.1019156  65.8651384
  65.9984047  99.0566213  64.6730879  66.1354047  98.3586213  63.6470879
  64.9544047  99.7016213  64.9070879  67.2814047 100.2546213  69.4000879
  67.5214047 101.4616213  69.4590879  66.6154047  99.5986213  70.3550879
  66.4079219  98.6196468  70.2184894  66.1024047 100.2586213  71.5680879
  66.7189124 101.1233918  71.8134232  64.6564047 100.7356213  71.3330879
  64.6027435 101.1827845  70.3404829  63.9923311  99.8724649  71.3785550
  64.1894047 101.7636213  72.3560879  64.5134047 101.6916213  73.5450879
  63.4114047 102.7316213  71.8900879  63.0676966 103.4450015  72.5170275
  63.1663041 102.7508482  70.9104672  66.1954047  99.3126213  72.7790879
  65.2444047  98.5966213  73.1050879  67.3584047  99.3226213  73.4290879
  68.1006173  99.9034517  73.0659683  67.6314047  98.5076213  74.6180879
  66.8586043  97.7599165  74.7964587  68.9974047  97.7876213  74.4930879
  69.7720603  98.5357543  74.3248473  69.3204047  96.9966213  75.7590879
  68.5463781  96.2479300  75.9277447  70.2846365  96.5017965  75.6428724
  69.3610383  97.6748304  76.6114276  69.0064047  96.8806213  73.2610879
  68.8364530  97.4800533  72.3667168  69.9718276  96.3804191  73.1845631
  68.2173514  96.1342611  73.3529688  67.6054047  99.4326213  75.8340879
  68.6184047 100.0626213  76.1570879  66.4344047  99.5236213  76.4760879
  65.6604608  98.9950471  76.0996314  66.1764047 100.4286213  77.6130879
  65.1101923 100.4324559  77.8395288  66.9434047  99.9776213  78.8670879
  68.0100864 100.0370408  78.6508500  66.6950288 100.6791486  79.6634979
  66.5964047  98.5746213  79.3060879  65.4944047  98.3296213  80.1320879
  64.8904678  99.1740970  80.4640827  65.1644047  97.0426213  80.5290879
  64.3017347  96.8645882  81.1711209  65.9404047  95.9776213  80.1000879
  65.6264047  94.6936213  80.4900879  64.8527540  94.6523900  81.0569779
  67.0364047  96.1986213  79.2800879  67.6457503  95.3600210  78.9431190
  67.3564047  97.4886213  78.8890879  68.2168873  97.6648428  78.2436300
  66.4734047 101.8916213  77.2690879  67.0664047 102.6276213  78.0600879
  66.0434047 102.2966213  76.0740879  65.5232374 101.6446077  75.5045235
  66.2874047 103.6416213  75.5440879  65.4372645 103.8759663  74.9034296
  66.2899567 104.3123102  76.4033139  67.5754047 103.8436213  74.7530879
  67.7404047 104.8916213  74.1270879  68.4814047 102.8606213  74.7690879
  68.2745999 102.0148913  75.2810175  69.7944047 102.9816213  74.1280879
  69.9937063 104.0273733  73.8940348  70.8994047 102.4686213  75.0550879
  70.7374763 101.4185925  75.2986406  71.8710564 102.5840022  74.5747959
  70.9754047 103.2046213  76.3590879  71.2484047 104.5676213  76.3850879
  71.4138825 105.0943537  75.4452635  71.3114047 105.2566213  77.5860879
  71.5240507 106.3256536  77.5933200  71.1034047 104.5836213  78.7790879
  71.1537866 105.1217051  79.7256751  70.8314047 103.2266213  78.7680879
  70.6675382 102.6960914  79.7060570  70.7674047 102.5426213  77.5650879
  70.5521608 101.4741197  77.5564603  69.8704047 102.2476213  72.7920879
  69.3104047 101.1646213  72.6260879  70.5844047 102.8616213  71.8550879
  70.9833670 103.7606544  72.0845828  70.7974047 102.3346213  70.5180879
  69.9208652 101.7891795  70.1684153  71.0464047 103.5226213  69.5730879
  70.2192404 104.2226060  69.6910702  71.9725350 103.9974601  69.8969874
  71.1664047 103.1236213  68.1150879  70.7734047 101.9996213  67.7340879
  71.6574047 103.9666213  67.3370879  71.9854047 101.3676213  70.5120879
  73.1244047 101.7846213  70.7040879  71.7074047 100.0776213  70.3080879
  70.7417284  99.7817485  70.3133759  72.7504047  99.0526213  70.1400879
  73.7335767  99.5094756  70.2530312  72.6014047  97.9406213  71.1920879
  71.6605757  97.4333547  70.9784982  73.4298280  97.2498442  71.0351101
  72.6044047  98.4156213  72.6380879  73.4095829  99.1407730  72.7561724
  71.6483917  98.8990251  72.8392393  72.8454047  97.0636213  73.8130879
  72.8764047  97.9786213  75.3520879  71.9328383  98.5093747  75.4789038
  73.0187233  97.2879322  76.1832285  73.6965510  98.6963032  75.3322389
  72.7124047  98.4576213  68.7220879  72.9364047  97.2626213  68.5340879
  72.4504047  99.3096213  67.7300879  72.2308218 100.2677595  67.9621524
  72.4094047  98.9086213  66.3190879  71.6663346  98.1236460  66.1785185
  72.0334047 100.1016213  65.4370879  72.6997773 100.9329775  65.6670742
  72.1544626  99.8181253  64.3915856  70.6984047 100.4926213  65.6660879
  70.4832132 101.2406911  65.1042302  73.7094047  98.3076213  65.7820879
  73.6674047  97.5116213  64.8460879  74.8554047  98.6936213  66.3430879
  74.8717945  99.4332690  67.0306575  76.1314047  98.1266213  65.9030879
  76.2195624  98.2337461  64.8219535  77.3154047  98.8336213  66.5620879
  78.2538927  98.4028725  66.2130965  77.2961737  99.8983251  66.3294167
  77.3494047  98.7156213  68.3590879  78.4665943  99.4183119  68.5234400
  76.1934047  96.6196213  66.1480879  76.8654047  95.9096213  65.4020879
  75.4884047  96.1406213  67.1790879  75.1342751  96.7886836  67.8680776
  75.2964047  94.7016213  67.4120879  76.2146942  94.1553494  67.1966098
  74.8464047  94.4036213  68.8710879  74.0242359  95.0724593  69.1256356
  74.3884047  92.9536213  69.0220879  75.2102381  92.2841432  68.7681398
  74.0798862  92.7748899  70.0521229  73.5479311  92.7660612  68.3538631
  76.0004047  94.7156213  69.8350879  76.8132575  94.0361357  69.5788253
  76.3075607  95.7415843  69.6322218  75.6664047  94.5706213  71.3030879
  75.3595854  93.5447300  71.5068249  76.5446934  94.8123105  71.9016649
  74.8538864  95.2501774  71.5602208  74.3144047  94.1006213  66.3960879
  74.5694047  93.0196213  65.8630879  73.1984047  94.7896213  66.1440879
  72.9993631  95.6135953  66.6932222  72.2204047  94.3806213  65.1150879
  71.6955711  93.4832911  65.4428797  71.1894047  95.4916213  64.8750879
  70.7569857  95.7368022  65.8451391  71.7364139  96.3536921  64.4933618
  70.0784047  95.1256213  63.9030879  70.5353413  94.8219085  62.9612448
  69.5203907  94.2883464  64.3222458  69.1334047  96.2906213  63.6550879
  68.2155481  95.8996881  63.2159872  68.9067844  96.7578723  64.6134298
  69.7424047  97.3226213  62.7200879  70.5345852  97.8437458  63.2576564
  70.1685947  96.7979576  61.8649918  68.7334047  98.3096213  62.2440879
  68.3386763  98.7961991  63.0362566  69.1779439  98.9748730  61.6277073
  67.9994831  97.8269861  61.7455686  72.8774047  94.0376213  63.7780879
  72.5674047  93.0116213  63.1700879  73.7874047  94.9076213  63.3430879
  74.0012122  95.7163217  63.9091173  74.4354047  94.7846213  62.0340879
  73.6762862  94.6745081  61.2596763  75.2804047  96.0296213  61.7200879
  76.0536933  96.1075997  62.4843152  75.7463383  95.8743952  60.7469945
  74.4614047  97.3176213  61.6920879  73.2334047  97.2686213  61.4470879
  75.0644047  98.3916213  61.9220879  75.3014047  93.5276213  61.9020879
  75.5244047  93.0596213  60.7840879  75.7854047  92.9986213  63.0280879
  75.6948495  93.5157982  63.8908898  76.5174047  91.7326213  63.0520879
  76.9480277  91.5179408  62.0740412  77.6554047  91.7616213  64.0970879
  77.2156940  91.7928502  65.0939723  78.5414047  90.5266213  63.9710879
  78.9818670  90.4949491  62.9745485  79.3348020  90.5703526  64.7172171
  77.9416529  89.6306718  64.1313188  78.5014047  93.0226213  63.9200879
  77.8733041  93.9036411  64.0519811  79.3000319  93.0320585  64.6618461
  78.9349221  93.0325225  62.9200551  75.5914047  90.5376213  63.3120879
  75.7594047  89.4846213  62.6920879  74.6284047  90.6936213  64.2220879
  74.5856046  91.5570479  64.7443540  73.6674047  89.6286213  64.5540879
  74.2528250  88.7656351  64.8713215  72.7824047  90.0676213  65.7110879
  72.1832999  90.9254969  65.4057637  72.1231726  89.2477791  65.9963458
  73.4057764  90.3445599  66.5612714  72.7944047  89.1926213  63.3740879
  72.4094047  88.0246213  63.2740879  72.4894047  90.1336213  62.4850879
  72.7445305  91.0915398  62.6784848  71.6924047  89.8556213  61.2890879
  70.8381313  89.2072193  61.4837439  71.1994047  91.1826213  60.6440879
  70.8452896  91.8383299  61.4395432  72.3114047  91.8846213  59.8620879
  72.6657344  91.2296628  59.0661102  71.9247156  92.8066886  59.4280786
  73.1371065  92.1183437  60.5341665  69.9664047  90.9536213  59.7690879
  70.2773383  90.3532440  58.9141211  69.2426568  90.3938619  60.3615048
  69.3314047  92.2386213  59.2790879  70.0544554  92.7987424  58.6861614
  68.4624027  92.0037344  58.6644637  69.0197758  92.8393616  60.1335458
  72.4464047  88.9726213  60.2750879  71.8194047  88.3566213  59.4160879
  73.7784047  88.9156213  60.4000879  74.2022716  89.4934143  61.1118403
  74.6534047  88.0876213  59.5650879  74.1880935  87.9313369  58.5918665
  76.0194047  88.7676213  59.3540879  76.5831724  88.5683959  60.2654465
  76.4785975  88.2368927  58.5200800  76.0274047  90.2656213  59.0690879
  75.3912929  90.7399222  59.8164173  77.0532982  90.6124433  59.1930201
  75.5344047  90.6306213  57.6800879  75.9390037  89.9199041  56.9594773
  74.4455414  90.5835511  57.6639463  75.9874047  92.0396213  57.3130879
  75.6001633  92.7186648  58.0727224  77.0770750  92.0521405  57.3367781
  75.5154047  92.4766213  55.9700879  74.5057063  92.4655040  55.9480621
  75.8459120  93.4129613  55.7853384  75.8744724  91.8477830  55.2660056
  74.9224047  86.6946213  60.1600879  75.7024047  85.9276213  59.5970879
  74.3284047  86.3786213  61.3090879  73.7835549  87.0719636  61.8015455
  74.4714047  85.0586213  61.9090879  75.2512536  84.5060136  61.3851034
  74.8514047  85.1566213  63.3890879  74.1280817  85.8146987  63.8705826
  74.7718055  84.1564839  63.8151033  76.2674047  85.6986213  63.6190879
  76.8694126  85.3725785  62.7709231  76.1946621  86.7861855  63.6156493
  76.9274047  85.2356213  64.9210879  78.0464047  85.7306213  65.2130879
  76.3504047  84.3856213  65.6560879  73.1474047  84.3296213  61.7330879
  72.1134047  84.8426213  62.1630879  73.1634047  83.1506213  61.0760879
  74.2704047  82.4856213  60.3640879  74.8770754  81.9252719  61.0754665
  74.8892311  83.2352283  59.8708920  73.5664047  81.6036213  59.3940879
  74.1800102  80.7253210  59.1936485  73.3994726  82.1492158  58.4653460
  72.2764047  81.2306213  60.0290879  72.4343913  80.3310449  60.6239842
  71.4742054  81.0553111  59.3122600  71.9114047  82.4046213  60.9460879
  71.1632829  83.0671514  60.5108111  71.4114047  81.8886213  62.2910879
  72.2174047  81.5326213  63.1440879  70.0944047  81.8746213  62.4690879
  69.4962294  82.2621918  61.7534940  69.4734047  81.3306213  63.6670879
  70.1814108  81.3771527  64.4945306  68.2174047  82.1206213  64.0520879
  67.6895771  82.2312469  63.1048503  67.6219058  81.5091324  64.7299982
  68.4424047  83.5016213  64.6750879  69.1667618  83.4001779  65.4832444
  68.9624047  84.5056213  63.6490879  68.2383223  84.6079520  62.8407984
  69.1095709  85.4731517  64.1290126  69.9110856  84.1535501  63.2439324
  67.1514047  84.0016213  65.3110879  66.8347139  83.3051164  66.0874173
  67.3197233  84.9842019  65.7518889  66.3748318  84.0737731  64.5496238
  69.1004047  79.8786213  63.3960879  68.4624047  79.5826213  62.3820879
  69.5124047  78.9796213  64.2850879  70.1737431  79.2432362  65.0014943
  69.0574047  77.6026213  64.2420879  68.7395631  77.3243867  63.2372688
  70.1434047  76.6106213  64.7080879  70.4780160  76.8976164  65.7049672
  69.5954047  75.1866213  64.7460879  69.2609983  74.8987302  63.7493974
  70.3781749  74.5042417  65.0773425  68.7551237  75.1384866  65.4387007
  71.3564047  76.6976213  63.7970879  71.7609124  77.7093881  63.8254332
  72.1165725  75.9933620  64.1351165  71.0631055  76.4526143  62.7762804
  67.8384047  77.5426213  65.1470879  67.9684047  77.6546213  66.3650879
  66.6594047  77.3966213  64.5470879  66.6077119  77.3871961  63.5384560
  65.4074047  77.3316213  65.3080879  65.5403371  76.7117796  66.1947809
  64.9894047  78.7456213  65.7540879  65.8416877  79.4063051  65.5953120
  64.1595661  79.0661745  65.1242359  64.5674047  78.8036213  67.2190879
  63.8624047  77.8706213  67.6900879  64.9404047  79.7916213  67.8980879
  64.2754047  76.6536213  64.5200879  64.3834047  76.4506213  63.3040879
  63.2024047  76.3016213  65.2290879  63.1723744  76.5201111  66.2147145
  62.0664047  75.5886213  64.6410879  62.3998369  74.8754544  63.8872211
  61.2384047  74.8336213  65.7020879  60.8991187  75.5455403  66.4545210
  60.0274047  74.1506213  65.0640879  60.3659363  73.4381691  64.3118185
  59.4596224  73.6251473  65.8319426  59.3925320  74.9011864  64.5932480
  62.1014047  73.8096213  66.4250879  62.9303879  74.3163556  66.9191620
  61.5000181  73.2874516  67.1692469  62.4927947  73.0905974  65.7054217
  61.1574047  76.5796213  63.9230879  60.6624047  77.5276213  64.5330879
  60.9384047  76.3426213  62.6310879  61.4113655  75.5662358  62.1910503
  60.0784047  77.1786213  61.8120879  59.9041658  78.1517340  62.2712084
  60.6834047  77.3966213  60.4080879  60.8771909  76.4235070  59.9568732
  59.7344047  78.1886213  59.5180879  59.5404977  79.1621074  59.9684497
  60.1867305  78.3267982  58.5360446  58.7958881  77.6445401  59.4119571
  62.0304047  78.1046213  60.5200879  62.7133921  77.4956685  61.1123774
  62.4474291  78.2529431  59.5240001  61.8940006  79.0717367  61.0040119
  58.7054047  76.5156213  61.7080879  58.5954047  75.3486213  61.3350879
  57.6694047  77.2746213  62.0500879  57.8433640  78.1913135  62.4367569
  56.2884047  76.8396213  61.9000879  56.1489395  75.8600162  62.3572777
  55.3564047  77.8426213  62.5950879  55.7940993  78.0416353  63.5733088
  55.3367792  78.7634980  62.0122492  53.9364047  77.3236213  62.7710879
  53.3744047  76.7186213  61.8360879  53.3634047  77.5506213  63.8560879
  55.9714047  76.7636213  60.3990879  56.1794047  77.7476213  59.6820879
  55.4614047  75.6086213  59.9150879  55.1724047  74.3506213  60.6320879
  54.6827227  74.5775806  61.5790838  56.1052156  73.8203709  60.8239144
  54.2784047  73.6096213  59.6850879  53.2385460  73.8621271  59.8925335
  54.4233347  72.5366840  59.8111919  54.6804047  74.0426213  58.3210879
  53.8593609  73.9847636  57.6064982  55.5107166  73.4298381  57.9701199
  55.1354047  75.5026213  58.4770879  56.0681933  75.6691562  57.9383208
  54.0584047  76.4866213  57.9590879  53.9704047  76.7066213  56.7490879
  53.2664047  77.0736213  58.8580879  53.2650657  76.7466612  59.8137001
  52.3434047  78.1536213  58.4910879  51.6987966  77.8213157  57.6773603
  51.4634047  78.5536213  59.6810879  52.1465923  78.8394875  60.4808594
  50.8963521  79.4269544  59.3588448  50.5034047  77.4846213  60.1910879
  49.8480572  77.1741743  59.3773047  51.0766755  76.6267900  60.5426390
  49.6594047  78.0406213  61.3420879  50.2177493  78.8684720  61.7791389
  48.7328130  78.4167829  60.9084641  49.3344047  77.0176213  62.4270879
  50.0646283  76.2123320  62.3471924  49.4468130  77.5150643  63.3904227
  47.9594047  76.4536213  62.3170879  47.8551755  75.9922615  61.4246849
  47.8085978  75.7867728  63.0605059  47.2825981  77.1996045  62.3915246
  53.0644047  79.4106213  57.9600879  52.4674047  80.1926213  57.2190879
  54.3284047  79.6056213  58.3470879  54.7415823  78.9752688  59.0194266
  55.1194047  80.7556213  57.8940879  54.4880551  81.6428140  57.8452416
  56.2714047  81.0276213  58.8660879  56.8023909  80.0854883  59.0022440
  56.9309073  81.7494465  58.3842947  55.8354047  81.5656213  60.2240879
  55.4345355  82.5729125  60.1110875  55.0569811  80.9063092  60.6081012
  56.9774047  81.6066213  61.2290879  56.9604047  80.8876213  62.2290879
  57.9874047  82.4276213  60.9560879  58.7691854  82.4905593  61.5924519
  57.9680276  82.9844168  60.1136482  55.6794047  80.6256213  56.4680879
  56.1084047  81.6266213  55.8940879  55.6824047  79.4116213  55.9090879
  55.3501674  78.6216007  56.4434896  56.1844047  79.1716213  54.5530879
  57.2171803  79.5123446  54.4797289  56.1354047  77.6766213  54.2080879
  55.0938765  77.4151727  54.3950714  56.3479794  77.5808846  53.1433126
  57.0464047  76.7346213  54.9960879  56.9683790  76.9663039  56.0583195
  56.6334047  75.2906213  54.7610879  56.7116186  75.0580437  53.6990667
  57.2885352  74.6281380  55.3267917  55.6035074  75.1488281  55.0886647
  58.5074047  76.9446213  54.6180879  58.7955947  77.9728712  54.8366012
  59.1336471  76.2623427  55.1929077  58.6396409  76.7490957  53.5539534
  55.3804047  79.9476213  53.5090879  54.1724047  79.7686213  53.3980879
  56.0684047  80.8126213  52.7650879  57.0374895  80.9701292  53.0020801
  55.4794047  81.6086213  51.6870879  54.3906664  81.6298329  51.7350262
  56.0054047  83.0606213  51.7580879  57.0946765  83.0270245  51.7366980
  55.5004047  83.9166213  50.6000879  54.4111513  83.9510725  50.6210906
  55.8972637  84.9273893  50.6947000  55.8315745  83.4836928  49.6561593
  55.6014047  83.6816213  53.0850879  56.0272793  83.1008192  53.9032577
  55.9720865  84.7054125  53.1355483  54.5146850  83.6846447  53.1695391
  55.7374047  80.9886213  50.2970879  54.9944047  81.2626213  49.3470879
  56.7664047  80.1476213  50.1810879  57.3020070  79.9053977  51.0024022
  57.1644047  79.5716213  48.9010879  56.4309436  79.8084831  48.1303543
  58.5434047  80.1146213  48.4550879  58.7745770  79.7099327  47.4697520
  58.5424047  81.6366213  48.3910879  58.3117499  82.0420665  49.3762337
  59.5245327  81.9881444  48.0749309  57.7902127  81.9702397  47.6762407
  59.5684047  79.6836213  49.3650879  60.4172640  80.0270755  49.0768563
  57.2534047  78.0526213  48.9590879  57.1294047  77.4466213  50.0220879
  57.4834047  77.4516213  47.7950879  57.2773508  77.9417353  46.9363508
  57.9284047  76.0596213  47.7100879  57.3673697  75.4513277  48.4195368
  57.7014047  75.4986213  46.2930879  57.9607628  74.4402979  46.3210939
  56.6501888  75.6076194  46.0263212  58.5484047  76.1796213  45.2240879
  59.1174047  77.2506213  45.4380879  58.6094047  75.5646213  44.0500879
  59.1547718  75.9661966  43.3008137  58.1101948  74.6976978  43.9110415
  59.4004047  75.9406213  48.1560879  59.9894047  76.9046213  48.6590879
  59.9774047  74.7526213  48.0060879  59.4263974  73.9686209  47.6869740
  61.3844047  74.5246213  48.3300879  61.8016013  75.4025075  48.8234053
  61.5264047  73.3306213  49.2610879  61.1212393  72.4418377  48.7773475
  62.5801055  73.1707959  49.4897161  60.9797951  73.5221885  50.1844617
  62.1794047  74.2996213  47.0530879  61.6534047  73.7726213  46.0690879
  63.4454047  74.7046213  47.0800879  63.7834699  75.2055822  47.8893156
  64.3614047  74.4916213  45.9670879  63.8712492  73.9055794  45.1896552
  64.7904047  75.8316213  45.3710879  63.9258580  76.4654051  45.1736638
  65.4777145  76.3527885  46.0374887  65.6524047  75.6596213  43.8000879
  65.8533658  76.9603369  43.6086413  65.5874047  73.7036213  46.4300879
  66.2204047  74.0436213  47.4340879  65.9014047  72.6456213  45.6890879
  65.3000375  72.3986676  44.9161256  67.0724047  71.8096213  45.9510879
  67.1197070  71.5498543  47.0086241  66.9794047  70.5156213  45.1320879
  66.0984084  70.0394674  45.5624625  66.7604485  70.8285391  44.1111860
  68.1434047  69.5206213  45.1220879  69.0441051  70.0389046  44.7931166
  68.3724047  68.9366213  46.5060879  67.4722303  68.4177475  46.8355646
  69.2043613  68.2332538  46.4711134  68.6051242  69.7393467  47.2057835
  67.8634047  68.4176213  44.1130879  67.7508931  68.8528449  43.1201020
  68.6929057  67.7105162  44.1074414  66.9454569  67.8978717  44.3875530
  68.3184047  72.5976213  45.5660879  68.4454047  73.0106213  44.4180879
  69.2184047  72.8176213  46.5230879  68.9890736  72.5850599  47.4788189
  70.4774047  73.5386213  46.2620879  70.5570114  73.7982690  45.2064625
  70.6064047  74.8246213  47.1220879  71.5760603  75.2865507  46.9363739
  69.5004047  75.8036213  46.7570879  68.5303818  75.3425367  46.9429834
  69.5964744  76.7039019  47.3640196  69.5808819  76.0667857  45.7023998
  70.5734047  74.5206213  48.6220879  69.5591633  74.2059206  48.8678086
  71.2628315  73.6957202  48.8018887  70.9604047  75.7006213  49.4910879
  70.2710989  76.5258152  49.3121683  70.9140534  75.4102290  50.5406703
  71.9747669  76.0156163  49.2462465  71.7574047  72.6926213  46.3730879
  72.8254047  73.1626213  45.9890879  71.6654047  71.4636213  46.8810879
  70.7980700  71.1394045  47.2844652  72.8274047  70.5696213  46.9200879
  73.3815643  70.6419240  45.9842574  73.7614047  70.9566213  48.0740879
  73.8744881  72.0400456  48.0353169  73.2515936  70.6778185  48.9962927
  75.1374047  70.3006213  48.0360879  75.6401421  70.5118710  48.9798726
  74.9975243  69.2246152  47.9324226  75.9884047  70.8156213  46.8810879
  75.5067296  70.5403933  45.9428248  76.0519423  71.9014915  46.9514319
  77.3874047  70.2226213  46.9250879  77.9199326  70.6632280  47.7679285
  77.2988563  69.1465294  47.0743680  78.1404047  70.4886213  45.6690879
  78.2229405  71.4856989  45.5307993  79.0618800  70.0806002  45.7361859
  77.6473398  70.0800592  44.8880225  72.4104047  69.1096213  47.0600879
  71.6554047  68.7696213  47.9690879  72.8894047  68.2716213  46.1390879
  73.3645910  68.6661633  45.3399421  72.8024047  66.8126213  46.2450879
  72.0744206  66.5463773  47.0114119  72.3664047  66.1896213  44.9200879
  73.1482471  66.4066513  44.1922694  72.3062446  65.1127572  45.0777098
  71.0374047  66.6986213  44.4000879  70.3045281  66.6486916  45.2053827
  71.1867387  67.7384712  44.1093808  70.5324047  65.9076213  43.2070879
  70.3844047  64.6706213  43.3390879  70.2644047  66.5226213  42.1480879
  74.1784047  66.2736213  46.5700879  75.1444047  66.6236213  45.8910879
  74.2694047  65.4166213  47.5840879  73.4580599  65.2375607  48.1583319
  75.5234047  64.7496213  47.9290879  76.3336182  65.0697896  47.2739958
  75.9264047  65.0386213  49.3880879  75.1150647  64.7235731  50.0442672
  77.2004047  64.2906213  49.7610879  78.0123639  64.6055030  49.1055936
  77.4626753  64.5120302  50.7956374  77.0388369  63.2184798  49.6492388
  76.1174047  66.5326213  49.5870879  75.1855016  67.0516303  49.3628376
  76.4021193  66.7285259  50.6208474  76.9018224  66.8911193  48.9205529
  75.3894047  63.2426213  47.7150879  74.5534047  62.6046213  48.3510879
  76.1984047  62.6986213  46.8020879  76.6897029  63.3107735  46.1664818
  76.3964047  61.2496213  46.6660879  75.5533761  60.7234011  47.1138537
  76.5004047  60.8426213  45.1890879  75.5663215  61.1233804  44.7025058
  77.3223209  61.4085023  44.7505306  76.7504047  59.3366213  44.9890879
  76.8364047  58.5716213  45.9780879  76.8604047  58.9156213  43.8140879
  77.6844047  60.9136213  47.4120879  78.7804047  61.2236213  46.9460879
  77.5494047  60.2526213  48.5560879  76.6294925  59.9774417  48.8693563
  78.6784047  60.0616213  49.4670879  79.2781951  60.9716933  49.4780221
  78.1924047  59.7436213  50.9110879  77.6224381  58.8147920  50.8884039
  79.3664047  59.5956213  51.8720879  79.9366176  60.5242774  51.8956614
  78.9926355  59.3738967  52.8717056  80.0106257  58.7827130  51.5370376
  77.2834047  60.8826213  51.4170879  77.9324102  61.7356702  51.6150781
  76.6035082  61.1258095  50.6005711  76.4824047  60.5586213  52.6610879
  77.1616794  60.3157651  53.4782211  75.8755000  61.4206963  52.9378416
  75.8327787  59.7059023  52.4637145  79.6974047  59.0316213  48.9260879
  80.8514047  59.0276213  49.3660879  79.2944047  58.1946213  47.9620879
  78.3138478  58.1328129  47.7280212  80.2334047  57.2806213  47.2860879
  80.8561498  56.7893128  48.0336866  79.4944047  56.2026213  46.4770879
  78.9001038  56.7090651  45.7165484  80.2571190  55.5916908  45.9942516
  78.5944047  55.3176213  47.3140879  79.1274047  54.3846213  48.2070879
  80.2105205  54.2937072  48.2889072  78.3024047  53.5806213  48.9830879
  78.7303837  52.8572442  49.6771062  76.9244047  53.7036213  48.8710879
  76.0844047  52.9216213  49.6300879  76.5552981  52.3185845  50.2099204
  76.3744047  54.6166213  47.9910879  75.2920249  54.7072768  47.8997861
  77.2044047  55.4186213  47.2230879  76.7746096  56.1443443  46.5326516
  81.2424047  58.0026213  46.3760879  82.3844047  57.5556213  46.2500879
  80.8204047  59.1036213  45.7480879  79.8827768  59.4374457  45.9198859
  81.6494047  59.8236213  44.7640879  82.6226046  59.3450259  44.6548745
  80.9544047  59.8446213  43.3900879  81.5669277  60.4167335  42.6932353
  80.7704047  58.4306213  42.8600879  80.1575524  57.8579969  43.5562294
  80.2776643  58.4674634  41.8885177  81.7439706  57.9517967  42.7552207
  79.6774047  60.4876213  43.5070879  79.2455634  60.4998550  42.6497877
  82.0234047  61.2726213  45.1080879  82.8984047  61.8356213  44.4530879
  81.3754047  61.8786213  46.1030879  80.6580589  61.3836462  46.6134937
  81.5974047  63.3026213  46.4130879  81.6001596  63.9257212  45.5187512
  80.5364047  63.8576213  47.4010879  79.5472208  63.5784056  47.0382476
  80.7374047  63.3016213  48.8090879  81.7262645  63.5808427  49.1728087
  79.9771699  63.7114298  49.4740695  80.6524545  62.2151642  48.7868131
  80.5424047  65.3806213  47.4130879  80.3166834  65.7532481  46.4139377
  79.7896192  65.7419317  48.1137079  81.5252145  65.7381940  47.7202157
  83.0184047  63.5556213  46.9380879  83.5974047  62.7036213  47.6090879
  83.5644047  64.7246213  46.6020879  83.0287775  65.3502834  46.0174942
  84.9124047  65.1266213  46.9930879  85.3829291  64.3375079  47.5796082
  85.7624047  65.3826213  45.7470879  85.3569098  66.2582898  45.2402568
  86.7806855  65.5921374  46.0746658  85.7714047  64.1956213  44.7840879
  85.5113020  63.3130192  45.3684346  84.9931436  64.3832933  44.0443644
  87.1054047  63.9606213  44.0720879  87.8895518  64.4143056  44.6782090
  87.2668465  62.8840740  44.0165728  87.1424047  64.5526213  42.6680879
  86.9214062  65.6158338  42.7621060  88.1576595  64.4249053  42.2925276
  86.1764047  63.9256213  41.7150879  85.2355524  64.0442320  42.0626912
  86.2597231  64.3685076  40.8112020  86.3812822  62.9405059  41.6274983
  84.8544047  66.3686213  47.8720879  83.8544047  67.0936213  47.8650879
  85.9294047  66.6146213  48.6220879  86.6969531  65.9582464  48.6102180
  86.0074047  67.7656213  49.5420879  85.1811346  67.7595755  50.2529608
  87.3434047  67.7856213  50.3340879  88.1639147  67.6618346  49.6273069
  87.5254047  69.0946213  51.1010879  86.7054607  69.2188886  51.8084424
  88.4711396  69.0706355  51.6424849  87.5296239  69.9294252  50.4002411
  87.4094047  66.6036213  51.2970879  87.3446032  65.6721137  50.7347744
  88.3516583  66.6322948  51.8442950  86.5791574  66.6609976  52.0010042
  85.8054047  69.0866213  48.7880879  85.0714047  69.9576213  49.2570879
  86.4394047  69.2136213  47.6210879  87.1334893  68.5255080  47.3664391
  86.2574047  70.3806213  46.7410879  86.5716803  71.2842634  47.2633530
  87.0974047  70.2376213  45.4530879  87.0304256  71.1906922  44.9284273
  88.1270644  70.0685184  45.7682152  86.6594047  69.1106213  44.5190879
  86.3952496  68.2662467  45.1557625  85.7766392  69.4435314  43.9731988
  87.7374047  68.6826213  43.5290879  87.9894047  69.4226213  42.5470879
  88.3254047  67.5886213  43.7180879  84.7824047  70.6866213  46.3930879
  84.4104047  71.8546213  46.2720879  83.9554047  69.6466213  46.2590879
  84.3233534  68.7105720  46.3514185  82.5314047  69.8066213  45.9230879
  82.4351713  70.4762705  45.0684487  81.8834047  68.4576213  45.5660879
  81.9461336  67.8281368  46.4537329  80.8364342  68.6412842  45.3247984
  82.5594047  67.7516213  44.3930879  83.1114047  68.4196213  43.4900879
  82.5234047  66.5036213  44.3770879  81.7084047  70.4586213  47.0440879
  80.6374047  71.0126213  46.7830879  82.2034047  70.3806213  48.2810879
  83.0606713  69.8678601  48.4303172  81.5194047  70.9456213  49.4480879
  80.4403648  70.8452822  49.3310237  81.9444047  70.2066213  50.7200879
  82.9845956  70.5066169  50.8469925  81.3517152  70.5926039  51.5494470
  81.8534047  68.6746213  50.6960879  82.5031814  68.2911507  49.9094231
  82.2864047  68.0996213  52.0360879  81.6367564  68.4823016  52.8232421
  82.2169435  67.0122815  52.0049730  83.3162404  68.3916555  52.2416478
  80.4474047  68.2086213  50.3410879  80.1767132  68.5869967  49.3553610
  80.4165009  67.1190923  50.3325509  79.7414107  68.5858233  51.0809460
  81.7604047  72.4496213  49.6140879  81.1734047  73.0676213  50.5010879
  82.6434047  73.0176213  48.7930879  83.2694115  72.4186443  48.2740104
  82.7604047  74.4586213  48.6150879  82.2221172  74.9880564  49.4012458
  84.2394047  74.9056213  48.6420879  84.7968560  74.2886063  47.9373604
  84.3944047  76.3806213  48.2620879  83.8375670  76.9983321  48.9666904
  85.4487247  76.6554821  48.2930710  84.0074277  76.5396545  47.2555802
  84.7784047  74.6896213  49.9540879  85.6972939  74.9669591  49.9721673
  82.1184047  74.7556213  47.2590879  82.7024047  74.4596213  46.2080879
  80.9134047  75.3266213  47.2880879  80.5399974  75.6587422  48.1657906
  80.0904047  75.4716213  46.0830879  80.7245184  75.5433454  45.1994281
  79.1814047  74.2526213  45.9340879  78.6020953  74.2991357  45.0119511
  79.7910288  73.3490403  45.9343885  78.1934047  74.1046213  47.0550879
  78.5504047  73.4656213  48.2320879  79.5550515  73.0554301  48.3346943
  77.6424047  73.3456213  49.2740879  77.9344093  72.8384066  50.1936352
  76.3654047  73.8696213  49.1470879  75.6502074  73.7728931  49.9639333
  75.9994047  74.5166213  47.9800879  74.9983982  74.9350154  47.8750524
  76.9104047  74.6316213  46.9430879  76.6264467  75.1408956  46.0221604
  79.2274047  76.7236213  46.1160879  79.0124047  77.3066213  47.1700879
  78.7404047  77.1146213  44.9420879  79.1240610  76.7026489  44.1035261
  77.6874047  78.1146213  44.8020879  77.2942581  78.3782205  45.7839486
  78.2064047  79.3956213  44.1190879  78.5173148  79.1496811  43.1037315
  77.1264047  80.4636213  44.0730879  76.8152951  80.7104343  45.0881710
  77.5183791  81.3567393  43.5864716  76.2697514  80.0908560  43.5115795
  79.3394047  79.9006213  44.8370879  79.6599171  80.6980007  44.4092349
  76.5794047  77.4916213  43.9610879  76.8344047  77.0606213  42.8400879
  75.3674047  77.4266213  44.5130879  75.2344252  77.7888388  45.4464765
  74.2074047  76.8626213  43.8140879  74.5285002  76.4176446  42.8722850
  73.5374047  75.7876213  44.6560879  73.2092315  76.2295342  45.5968932
  72.6729742  75.4029671  44.1148845  74.4324047  74.7336213  44.9200879
  73.9926616  74.0659767  45.4515730  73.1734047  77.9356213  43.5370879
  72.9474047  78.8016213  44.3810879  72.5044047  77.8586213  42.3740879
  72.5934047  76.8456213  41.3000879  72.2891550  75.8765101  41.6955064
  73.6231511  76.7865908  40.9476155  71.6494047  77.3616213  40.2380879
  70.7490992  76.7472436  40.2286453  72.1376260  77.3048291  39.2651973
  71.3404047  78.7736213  40.5960879  70.3159176  78.9663866  40.2777067
  71.9989589  79.5366281  40.1810858  71.4214047  78.7886213  42.1170879
  71.6753934  79.7593019  42.5429601  70.1274047  78.2796213  42.7480879
  70.0174047  77.0936213  43.0430879  69.1724047  79.1766213  42.9690879
  69.3711222  80.1578952  42.8360008  67.8434047  78.7966213  43.4580879
  67.6133651  77.7835183  43.1282343  67.7764047  78.8406213  44.9990879
  66.8504659  78.3781748  45.3409647  68.6267319  78.3085045  45.4255800
  67.8034047  80.2346213  45.5800879  66.6304047  80.9656213  45.7400879
  65.6831924  80.5117162  45.4487825  66.6524047  82.2506213  46.2600879
  65.7233791  82.8096611  46.3718314  67.8504047  82.8216213  46.6360879
  67.8737343  83.8314517  47.0457195  69.0274047  82.1056213  46.4910879
  69.9755657  82.5519557  46.7908821  69.0004047  80.8196213  45.9640879
  69.9276604  80.2584365  45.8484656  66.7754047  79.7086213  42.8620879
  67.0624047  80.8486213  42.4790879  65.5524047  79.1846213  42.7950879
  65.4449672  78.2063807  43.0222485  64.3654047  79.9386213  42.4040879
  64.5168547  80.9961879  42.6202243  64.0854047  79.7806213  40.9090879
  64.8414590  80.3075717  40.3270188  64.0870935  78.7255149  40.6355049
  62.4884047  80.4366213  40.3680879  62.6341594  80.1169916  39.0853211
  63.1964047  79.3976213  43.2200879  62.9924047  78.1836213  43.2640879
  62.4524047  80.2866213  43.8780879  62.6678024  81.2695830  43.7915469
  61.3184047  79.8966213  44.7140879  61.2332283  78.8109478  44.7605336
  61.5364047  80.4306213  46.1300879  61.5362696  81.5131543  46.0027248
  60.6776063  80.1361664  46.7332973  62.8274047  79.9996213  46.8350879
  63.6696962  80.1728911  46.1652943  63.0294047  80.7906213  48.1180879
  62.1876761  80.6174818  48.7886209  63.9513213  80.4689320  48.6025325
  63.0942090  81.8532212  47.8840319  62.7984047  78.5096213  47.1290879
  62.7028008  77.9562192  46.1949008  63.7221288  78.2194984  47.6297513
  61.9494450  78.2824388  47.7738781  60.0454047  80.4976213  44.1450879
  60.0114047  81.6936213  43.8780879  59.0204047  79.6646213  43.9500879
  59.1611123  78.6754897  44.0981400  57.7004047  80.1196213  43.5000879
  57.8144945  80.9876654  42.8507944  56.9774047  79.0136213  42.7180879
  57.6989519  78.5916882  42.0184870  56.6828589  78.2512971  43.4393400
  55.7444047  79.4926213  41.9510879  55.0497250  79.9508811  42.6550189
  56.0660816  80.2366608  41.2223690  55.0244047  78.3736213  41.2170879
  54.9814047  77.2326213  41.6800879  54.4474047  78.6996213  40.0690879
  53.9543662  77.9963787  39.5376142  54.5034603  79.6497545  39.7311440
  56.8634047  80.5316213  44.7120879  56.6974047  79.7516213  45.6500879
  56.3324047  81.7536213  44.6800879  56.5500725  82.3545793  43.8980588
  55.4974047  82.2916213  45.7590879  55.8701018  82.0232677  46.7476133
  55.4174047  83.8416213  45.6620879  55.1212882  84.1069971  44.6472037
  54.4134047  84.4176213  46.6500879  54.7091274  84.1530340  47.6652936
  54.3870055  85.5027920  46.5510524  53.4239430  84.0101817  46.4425784
  56.7944047  84.4656213  45.8820879  57.4852623  84.0996710  45.1225498
  56.7178766  85.5505667  45.8104191  57.1639449  84.1924713  46.8704856
  54.0944047  81.6576213  45.7030879  53.4544047  81.6656213  44.6520879
  53.6244047  81.1316213  46.8360879  54.2059734  81.1624708  47.6612701
  52.3244047  80.4306213  46.9200879  52.0292029  80.0764657  45.9323992
  52.4304047  79.2266213  47.8600879  52.9501074  79.5584423  48.7589222
  51.4158339  78.9234776  48.1186416  53.1704047  78.0496213  47.2540879
  52.6718053  77.7666374  46.3270390  54.1930718  78.3577581  47.0365890
  53.1904047  76.8566213  48.2050879  53.9325347  77.0443959  48.9810279
  52.2050685  76.7604127  48.6611097  53.5384047  75.5666213  47.4710879
  52.7323044  75.3407851  46.7730185  54.4638130  75.7256630  46.9175316
  53.7134047  74.4256213  48.4130879  52.8558740  74.2778076  48.9258177
  53.9423679  73.5911262  47.8922292  54.4605952  74.6345046  49.0597510
  51.1364047  81.2986213  47.3560879  49.9864047  80.9736213  47.0440879
  51.4124047  82.3786213  48.0860879  52.3749263  82.5880017  48.3092724
  50.3664047  83.2726213  48.6040879  49.5110976  83.2751272  47.9284085
  49.8994047  82.7966213  49.9830879  48.9658160  83.3154654  50.2006012
  49.7096631  81.7261863  49.9039229  50.8964047  83.0536213  51.1060879
  51.8926792  82.8217457  50.7295619  50.8436978  84.1109114  51.3658217
  50.6144047  82.2156213  52.3390879  49.5807771  82.3632315  52.6520162
  50.7771445  81.1625529  52.1096054  51.4964047  82.5966213  53.4410879
  51.9468454  83.4961146  53.3510078  51.7414047  81.8696213  54.5290879
  51.1754047  80.6816213  54.7080879  50.5450904  80.3154671  54.0089921
  51.3778743  80.1497598  55.5424913  52.5754047  82.3406213  55.4550879
  53.0131420  83.2414591  55.3247905  52.7661151  81.7946973  56.2831551
  50.8944047  84.6936213  48.7070879  52.1074047  84.9076213  48.6980879
  49.9824047  85.6546213  48.8220879  49.0013630  85.4387748  48.7168887
  50.3604047  87.0346213  49.0990879  51.1212645  87.3495357  48.3849307
  49.1604047  87.9806213  48.9850879  48.3557066  87.6056124  49.6174869
  49.4723218  88.9631482  49.3392752  48.6344047  88.1206213  47.5570879
  49.0624047  87.4226213  46.6330879  47.6864047  89.0276213  47.3810879
  47.2941180  89.1717628  46.4616130  47.3597613  89.5713153  48.1670915
  50.9144047  87.0966213  50.5160879  50.2614047  86.6376213  51.4560879
  52.1264047  87.6306213  50.6680879  52.6790728  87.8837424  49.8614982
  52.7174047  87.8066213  51.9990879  51.9908518  88.2702227  52.6663913
  53.1334047  86.4436213  52.5930879  52.6358739  85.6709995  52.0068987
  54.2132770  86.3419114  52.4852409  52.7524047  86.2906213  54.0640879
  52.7404047  87.3066213  54.8060879  52.4744047  85.1396213  54.4780879
  53.9214047  88.7486213  51.9800879  54.2884047  89.2966213  50.9320879
  54.4904047  88.9556213  53.1660879  53.9739987  88.7048106  53.9970621
  55.8034047  89.5536213  53.3260879  56.1004244  90.0499347  52.4022094
  55.7804047  90.5886213  54.4510879  55.5117497  90.1032041  55.3893277
  56.7913853  90.9890808  54.5262577  54.8134047  91.7136213  54.1720879
  55.1704047  92.7706213  53.3350879  56.1667686  92.7801415  52.8931966
  54.2784047  93.8016213  53.0610879  54.5755767  94.6258398  52.4126632
  53.0024047  93.7786213  53.6170879  52.1174047  94.8046213  53.3430879
  52.4871005  95.4738652  52.7625388  52.6214047  92.7306213  54.4430879
  51.6228384  92.7074936  54.8794718  53.5224047  91.7056213  54.7130879
  53.2278469  90.8764587  55.3563804  56.8014047  88.4446213  53.6290879
  56.4804047  87.5086213  54.3570879  58.0014047  88.5486213  53.0610879
  58.1831386  89.3251550  52.4413560  59.0594047  87.5526213  53.2560879
  58.7383985  86.7455858  53.9146834  59.5084047  86.9426213  51.9110879
  59.7818187  87.7543496  51.2369654  60.7014047  86.0096213  52.0930879
  60.4285938  85.1973243  52.7667709  60.9917416  85.5974728  51.1266829
  61.5375687  86.5664302  52.5160481  58.3474047  86.2036213  51.2610879
  57.5273384  86.8992370  51.0830094  58.6732707  85.7764767  50.3126900
  58.0089641  85.4051596  51.9214042  60.2384047  88.2086213  53.9710879
  60.7754047  89.2126213  53.4910879  60.6324047  87.6296213  55.1090879
  60.1395576  86.8087205  55.4305266  61.7014047  88.1766213  55.9560879
  62.0404312  89.1379692  55.5701211  61.1634047  88.3806213  57.3650879
  60.8319349  87.4452948  57.8160772  61.9489645  88.8210892  57.9790780
  60.0024047  89.3166213  57.4210879  58.6984047  88.8866213  57.3150879
  57.8894047  89.9276213  57.3840879  56.8089001  89.7941301  57.3312791
  58.6224047  91.0186213  57.5150879  58.2737497  91.9636272  57.5892724
  59.9494047  90.6646213  57.5350879  60.7169718  91.4326455  57.6303809
  62.9894047  87.3556213  56.0280879  64.0304047  87.8676213  56.4680879
  62.9304047  86.0936213  55.6130879  62.0703671  85.7162825  55.2415370
  64.0794047  85.2076213  55.7290879  64.9767246  85.7794542  55.4926066
  64.1994047  84.6806213  57.1520879  63.3121821  84.0981477  57.4004032
  65.0831570  84.0476611  57.2323600  64.2889253  85.5181466  57.8439236
  64.0034047  84.0456213  54.7650879  62.9244047  83.6756213  54.2930879
  65.1744047  83.4946213  54.4660879  66.0246060  83.9855274  54.7032973
  65.2844047  82.2136213  53.7990879  64.3540206  81.9946223  53.2751376
  66.4244047  82.2196213  52.7860879  67.2963706  82.4850827  53.3838379
  66.5493881  81.2119855  52.3896671  66.2804047  83.2076213  51.6290879
  66.2134725  84.2240759  52.0169549  67.4984047  83.0886213  50.7290879
  67.5657505  82.0724918  50.3404438  67.4073382  83.7892417  49.8990646
  68.3973175  83.3186225  51.3010631  64.9864047  82.9816213  50.8500879
  64.1334665  83.1083634  51.5168204  64.9209804  83.7035029  50.0360192
  64.9798965  81.9714666  50.4406441  65.5384047  81.1786213  54.8740879
  66.1164047  81.4866213  55.9190879  65.0854047  79.9596213  54.6220879
  64.5946182  79.7783045  53.7581712  65.2414047  78.8686213  55.5670879
  65.9186946  79.1438086  56.3755739  63.8884047  78.4466213  56.1790879
  63.2166986  78.1543126  55.3719536  64.0614047  77.2786213  57.1440879
  64.7326663  77.5703440  57.9518048  63.0920371  77.0032449  57.5595331
  64.4833482  76.4262079  56.6116813  63.2464047  79.6236213  56.8930879
  63.0794981  80.4331788  56.1825523  62.2928264  79.3137249  57.3205832
  63.9055449  79.9697668  57.6892151  65.8784047  77.7026213  54.8270879
  65.3854047  77.2876213  53.7750879  66.9784047  77.1946213  55.3740879
  67.3957445  77.6461078  56.1753910  67.6364047  76.0206213  54.8240879
  67.2441807  75.8001850  53.8312801  69.1354047  76.2456213  54.7150879
  69.5441523  76.4585162  55.7028638  69.6092456  75.3508050  54.3115054
  69.3294945  77.0891523  54.0526048  67.3384047  74.8176213  55.7060879
  67.2814047  74.9356213  56.9350879  67.1264047  73.6696213  55.0690879
  67.0069613  73.6762118  54.0661975  67.0084047  72.3986213  55.7700879
  67.6367250  72.4121160  56.6606668  65.5594047  72.1436213  56.1970879
  65.5584790  71.2337952  56.7973502  65.2645879  72.9888722  56.8189673
  64.5794047  71.9936213  55.0520879  64.3834047  70.7576213  54.4320879
  64.9464165  69.8958351  54.7904757  63.4924047  70.6146213  53.3790879
  63.3571100  69.6448219  52.9002494  62.7724047  71.7076213  52.9400879
  61.8864047  71.5546213  51.9020879  61.8533307  70.6557770  51.5665515
  62.9434047  72.9436213  53.5360879  62.3788539  73.8075761  53.1854245
  63.8414047  73.0806213  54.5880879  63.9779803  74.0510974  55.0651868
  67.5114047  71.2876213  54.8640879  67.7564047  71.5146213  53.6760879
  67.6384047  70.0856213  55.4160879  67.4346382  69.9585452  56.3971232
  68.1624047  68.9486213  54.6650879  68.0615028  69.1322303  53.5954124
  69.6514047  68.7356213  54.9890879  70.0865408  67.9650003  54.3527711
  70.1765608  69.6773045  54.8292636  69.9264047  68.3246213  56.4140879
  69.8604047  66.9896213  56.7840879  69.5944659  66.2515387  56.0273775
  70.1234047  66.5866213  58.0810879  70.0552079  65.5340200  58.3558249
  70.4744047  67.5276213  59.0310879  70.6866896  67.2197784  60.0549374
  70.5564047  68.8716213  58.6770879  70.8336745  69.6153345  59.4241570
  70.2854047  69.2646213  57.3740879  70.3532302  70.3165880  57.0968412
  67.3794047  67.6646213  54.8900879  66.6674047  67.5266213  55.8840879
  67.5244047  66.7406213  53.9410879  68.0425364  66.9901162  53.1107920
  66.9874047  65.3826213  54.0420879  66.4949493  65.2612183  55.0068927
  65.9674047  65.0956213  52.9310879  66.4793700  65.1699285  51.9716770
  65.5891528  64.0818936  53.0629277  64.7904047  66.0566213  52.9290879
  64.5324047  66.7626213  53.9040879  64.0644047  66.0816213  51.8200879
  63.2679927  66.6993876  51.7553380  64.3110688  65.4827863  51.0450690
  68.1344047  64.3916213  53.9040879  69.1384047  64.6856213  53.2500879
  67.9654047  63.2156213  54.5080879  67.1364108  63.0897286  55.0711326
  68.9404047  62.1196213  54.4500879  69.7197039  62.3933081  53.7388302
  69.5814047  61.8776213  55.8590879  68.9488043  62.3793938  56.5913047
  69.7214047  60.4026213  56.2330879  70.3542954  59.9002494  55.5015330
  70.1729717  60.3191872  57.2216357  68.7369523  59.9348079  56.2432484
  70.9894047  62.4566213  55.9140879  71.4214513  62.1639594  56.8710547
  71.5580867  61.9995190  55.1042991  71.0394047  63.9486213  55.7790879
  70.4712876  64.4064700  56.5888517  72.0754141  64.2838689  55.8280050
  70.6079206  64.2420297  54.8220964  68.2064047  60.8866213  53.9260879
  67.0794047  60.6346213  54.3380879  68.8604047  60.1356213  53.0380879
  69.7639996  60.4528951  52.7172249  68.3214047  58.8896213  52.4790879
  67.4233926  58.5989858  53.0242525  67.9584047  59.0756213  51.0000879
  68.8925463  59.2673070  50.4721339  67.5379477  58.1287240  50.6614119
  66.9734047  60.1996213  50.7120879  66.0086864  59.9179853  51.1341075
  67.3381077  61.0987498  51.2087355  66.8154047  60.4716213  49.2230879
  66.6954047  59.5006213  48.4480879  66.8084047  61.6546213  48.8180879
  69.3424047  57.7506213  52.6200879  70.5444047  57.9636213  52.4300879
  68.8534047  56.5556213  52.9620879  67.8706526  56.4891481  53.1854239
  69.6614047  55.3356213  53.0150879  70.7204140  55.5906483  52.9755938
  69.3884047  54.5686213  54.3220879  68.3319086  54.3185588  54.4189587
  69.9786883  53.6523426  54.3121543  69.7714047  55.3146213  55.5740879
  69.0204047  56.3996213  56.0240879  68.1461657  56.7135340  55.4537680
  69.3734047  57.0776213  57.1820879  68.7849300  57.9331475  57.5135589
  70.4754047  56.6666213  57.9180879  70.7544877  57.1930751  58.8308085
  71.2224047  55.5816213  57.4880879  72.0906794  55.2553161  58.0605599
  70.8644047  54.9106213  56.3280879  71.4449775  54.0504130  55.9948059
  69.2234047  54.5006213  51.8030879  68.3624047  53.6236213  51.9210879
  69.8084047  54.7876213  50.6390879  70.5901763  55.4267720  50.6186207
  69.2944047  54.2666213  49.3530879  68.2064818  54.3246842  49.3191523
  69.8684047  55.0246213  48.1320879  69.4016833  54.6312232  47.2290324
  69.5984047  56.5296213  48.2320879  70.0652452  56.9238462  49.1347209
  70.0143126  57.0326885  47.3591371  68.5233171  56.7044362  48.2736442
  71.2754047  54.7766213  48.0220879  71.6252708  55.2492872  47.2632856
  69.5164047  52.7706213  49.1120879  68.8494047  52.1876213  48.2570879
  70.4494047  52.1616213  49.8430879  71.0517239  52.7131340  50.4373477
  70.6984047  50.7146213  49.7480879  70.5991159  50.3917240  48.7117587
  72.1174047  50.3746213  50.2350879  72.2020834  50.7377197  51.2593380
  72.2093574  49.2885415  50.2263983  73.2264047  50.9846213  49.3870879
  72.9789514  52.0316483  49.2121532  74.1560261  50.9211172  49.9526614
  73.3964047  50.2706213  48.0460879  74.0766830  49.4297042  48.1809172
  72.4238893  49.9018790  47.7199863  73.9384047  51.1516213  47.0050879
  74.9065395  51.0025631  46.7589253  73.2584047  52.1086213  46.3670879
  71.9794047  52.3566213  46.6470879  71.5063245  51.8140406  47.3555378
  71.4889537  53.0860303  46.1495742  73.8674047  52.8406213  45.4370879
  74.8385573  52.6687155  45.2193468  73.3555779  53.5646221  44.9533992
  69.6714047  49.8616213  50.5000879  69.6574047  48.6456213  50.3290879
  68.8304047  50.4856213  51.3280879  68.9633187  51.4681052  51.5208533
  67.7404047  49.7836213  52.0140879  68.1231790  48.8764978  52.4817524
  67.1264047  50.6726213  53.1000879  66.7779525  51.6120244  52.6709002
  66.2925688  50.1628674  53.5827561  68.2724047  51.1206213  54.4220879
  67.4040835  51.8492323  55.1178196  66.6504047  49.3416213  51.0360879
  66.3674047  50.0336213  50.0590879  66.0434047  48.1896213  51.3160879
  66.3431959  47.6601840  52.1222645  65.0024047  47.6156213  50.4540879
  65.3852282  47.5079156  49.4392259  64.5704047  46.2286213  50.9670879
  65.4198324  45.5458485  50.9472550  64.1911740  46.3064365  51.9860231
  63.4854047  45.5876213  50.1530879  63.5734047  45.4266213  48.7850879
  62.4764047  44.8386213  48.3400879  62.3519189  44.6266164  47.2781763
  61.6814047  44.6066213  49.3690879  60.7734744  44.1658398  49.3306941
  62.2884047  45.0636213  50.5150879  61.7856201  44.9599774  51.4766319
  63.8044047  48.5596213  50.3530879  63.3494047  48.8686213  49.2530879
  63.3174047  49.0156213  51.5060879  63.6820047  48.6362803  52.3682170
  62.2514047  50.0176213  51.5840879  61.6291344  49.9739351  50.6902365
  61.3674047  49.7436213  52.8120879  61.2279203  48.6633731  52.8534065
  61.9407647  50.0688806  53.6801690  60.0074047  50.4316213  52.8150879
  59.6062578  50.3825693  53.8274000  60.1556336  51.4741873  52.5336873
  59.0254047  49.7786213  51.8470879  59.5492778  49.5809342  50.9119003
  58.6929051  48.8364725  52.2828621  57.8164047  50.6666213  51.5740879
  57.0998857  50.0783898  51.0007776  57.3799886  50.9320303  52.5369992
  58.1544047  51.9126213  50.8200879  58.5584159  51.6669069  49.9276199
  57.3151101  52.4546003  50.6719555  58.8180109  52.4580406  51.3513541
  62.8854047  51.4106213  51.6650879  64.0384047  51.5496213  52.0890879
  62.1384047  52.4316213  51.2390879  61.2380765  52.2526933  50.8177886
  62.6054047  53.8176213  51.3170879  63.5637255  53.9034634  50.8048852
  61.6104047  54.7866213  50.6620879  61.2835110  54.3329450  49.7264504
  60.7589587  54.8822222  51.3358832  62.1944047  56.1706213  50.3800879
  62.7943273  56.4627501  51.2419780  62.8354058  56.0909041  49.5020988
  61.1194047  57.2216213  50.1300879  61.5963150  58.1377849  49.7818066
  60.4378148  56.8532952  49.3633608  60.3464047  57.5246213  51.3400879
  60.5694591  56.9782446  52.1597333  59.3854047  58.4496213  51.4320879
  59.0494047  59.2046213  50.3810879  59.5262089  59.0786934  49.4996686
  58.3203130  59.8974503  50.4733523  58.7514047  58.6286213  52.5920879
  59.0006838  58.0653229  53.3924972  58.0250198  59.3266209  52.6646154
  62.8274047  54.1946213  52.7830879  61.9034047  54.1186213  53.5930879
  64.0604047  54.5846213  53.1030879  64.7414675  54.6890890  52.3646170
  64.4854047  54.8336213  54.4760879  63.6176938  54.9231181  55.1296682
  65.3694047  53.6816213  54.9870879  66.2877355  53.6646439  54.4001631
  65.7134047  53.8526213  56.4650879  64.7955317  53.8692243  57.0527384
  66.3383550  53.0214550  56.7917360  66.2522114  54.7894144  56.6072380
  64.6774047  52.4396213  54.8080879  65.2261665  51.7188798  55.1258811
  65.2494047  56.1556213  54.5460879  66.1904047  56.3866213  53.7840879
  64.8364047  57.0136213  55.4710879  64.1165660  56.7408874  56.1249593
  65.3914047  58.3496213  55.5770879  66.3753470  58.2802575  56.0409256
  65.4916244  58.7637749  54.5738271  64.5224047  59.2676213  56.4030879
  63.4364047  58.8866213  56.8300879  65.0164047  60.4746213  56.6470879
  65.9850628  60.6713843  56.4395180  64.2294047  61.5046213  57.3210879
  63.1701223  61.3068541  57.1570508  64.4954047  61.5346213  58.8380879
  63.8568152  62.2593389  59.3431493  64.2907016  60.5372860  59.2273424
  65.9124047  61.8656213  59.2250879  66.3224047  63.1856213  59.3660879
  65.6081799  63.9857366  59.1716701  67.6224047  63.4926213  59.7490879
  67.9315534  64.5335523  59.8439060  68.5244047  62.4766213  60.0100879
  69.5454564  62.7108835  60.3112103  68.1244047  61.1566213  59.8870879
  68.8309486  60.3527717  60.0937802  66.8254047  60.8566213  59.5010879
  66.5098958  59.8171750  59.4110577  64.4564047  62.8656213  56.6900879
  65.4344047  63.0736213  55.9690879  63.5204047  63.7716213  56.9610879
  62.7110860  63.4803785  57.4905028  63.5974047  65.1536213  56.5270879
  64.5033913  65.3146426  55.9428280  62.3884047  65.4876213  55.6550879
  62.4380740  64.8836848  54.7490565  61.4832243  65.2377171  56.2085283
  62.3644047  66.8616213  55.3060879  61.5953470  67.0396092  54.7597635
  63.6204047  66.0496213  57.7520879  63.0234047  65.7156213  58.7740879
  64.3074047  67.1836213  57.6440879  64.8839209  67.3313603  56.8280600
  64.3254047  68.1986213  58.7000879  63.8175806  67.8286120  59.5907657
  65.7714047  68.5816213  59.0800879  65.7416983  69.3261463  59.8756382
  66.5444047  67.3586213  59.5580879  66.5749373  66.6137912  58.7628549
  67.5611372  67.6506509  59.8209052  66.0508912  66.9353008  60.4329277
  66.4354047  69.1556213  57.9520879  67.3336586  69.3913358  58.1953552
  63.5314047  69.4516213  58.3020879  63.7264047  70.5246213  58.8720879
  62.6024047  69.3016213  57.3600879  62.4498335  68.3904665  56.9518988
  61.8064047  70.4196213  56.8710879  62.4627094  71.2511532  56.6143429
  61.0104047  70.0196213  55.6220879  60.7381583  70.9250012  55.0796229
  61.6442844  69.3958286  54.9918663  59.8354047  69.3036213  55.9660879
  59.3591582  69.0672873  55.1667536  60.8384047  70.9036213  57.9450879
  60.4934047  70.1366213  58.8500879  60.3794047  72.1686213  57.8400879
  60.9074047  73.2226213  56.9510879  60.5974951  73.0185109  55.9262000
  61.9959760  73.2291423  57.0064866  60.2994047  74.4806213  57.4970879
  60.1449277  75.1975562  56.6907132  60.9595473  74.9153996  58.2476084
  59.0124047  74.0616213  58.1030879  58.2270012  73.9667226  57.3532649
  58.6893169  74.7529189  58.8814333  59.3164047  72.6906213  58.7150879
  59.7437028  72.7633792  59.7151984  58.0364047  71.8406213  58.7660879
  57.3984047  71.7806213  59.8110879  57.6794047  71.1976213  57.6520879
  58.2086585  71.3550701  56.8063931  56.4874047  70.3316213  57.5800879
  55.6990252  70.7293793  58.2191070  55.9654047  70.2696213  56.1380879
  56.8092691  70.0206854  55.4946416  55.2255750  69.4705031  56.0915896
  55.3334047  71.5756213  55.6650879  54.3199708  71.5915802  56.0660839
  55.9025702  72.4053263  56.0843009  55.2814047  71.7106213  54.1520879
  56.3574047  71.7286213  53.5210879  54.1674047  71.8226213  53.5920879
  56.7064047  68.9066213  58.1150879  55.7454047  68.1426213  58.2360879
  57.9574047  68.5516213  58.4130879  58.6991255  69.2178142  58.2514195
  58.3104047  67.2376213  58.9480879  57.5551391  66.5034127  58.6677115
  59.6594047  66.7916213  58.3820879  60.4318229  67.4756465  58.7336259
  59.8757066  65.7851362  58.7402797  59.6364047  66.7936213  56.9680879
  60.4908516  66.5112218  56.6337664  58.3884047  67.2976213  60.4740879
  58.5044047  68.3886213  61.0400879  58.3394047  66.1286213  61.1510879
  58.0664047  64.7816213  60.6160879  58.9757082  64.3776252  60.1710546
  57.2876204  64.8448406  59.8560897  57.6254047  64.0116213  61.8230879
  57.8717015  62.9566140  61.7031020  56.5496631  64.1195631  61.9617601
  58.3694047  64.6166213  62.9570879  59.3759730  64.2041134  63.0260557
  57.8533679  64.4748904  63.9066762  58.4404047  66.1106213  62.6180879
  57.5871807  66.6694017  63.0026285  59.7314047  66.7106213  63.1700879
  60.7194047  66.8336213  62.4490879  59.7034047  67.0806213  64.4480879
  58.8569458  66.9531059  64.9841350  60.8444047  67.7146213  65.0980879
  61.0808905  68.6513245  64.5933497  60.5314047  68.0166213  66.5730879
  59.7054991  68.7279204  66.5787973  60.2138329  67.0880939  67.0475193
  61.7044047  68.5986213  67.3370879  61.9644047  69.9716213  67.3090879
  61.3025741  70.6190024  66.7337816  63.0414047  70.5146213  67.9960879
  63.2253169  71.5886825  67.9701913  63.8874047  69.6826213  68.7170879
  64.9554047  70.2356213  69.3880879  65.0105846  71.1884592  69.2848664
  63.6554047  68.3126213  68.7600879  64.3185066  67.6575672  69.3251548
  62.5674047  67.7786213  68.0750879  62.3759201  66.7060685  68.1077104
  62.0954047  66.8386213  65.0060879  62.0134047  65.6116213  65.1400879
  63.2304047  67.4796213  64.7340879  63.1729416  68.4047012  64.3328094
  64.5554047  66.9086213  64.9730879  64.4813620  66.0386367  65.6255784
  65.2844047  66.4916213  63.6740879  66.0738517  65.7859928  63.9328584
  64.3294047  65.8426213  62.6800879  63.5398875  66.5478591  62.4204695
  64.8763009  65.5626685  61.7797379  63.8878206  64.9523648  63.1279131
  65.9174047  67.6286213  63.0740879  66.3659787  67.3577075  62.2697326
  65.3814047  67.9676213  65.6960879  65.0204047  69.1456213  65.7010879
  66.4994047  67.5566213  66.2860879  66.7315900  66.5738225  66.3032923
  67.3614047  68.4886213  67.0240879  66.7465507  69.1674094  67.6151043
  68.2984047  67.7296213  67.9680879  68.7007845  68.4159418  68.7131744
  67.7632208  66.9230863  68.4692660  69.4694047  67.1056213  67.2860879
  69.3654047  65.9586213  66.5300879  68.5090713  65.4443186  66.3808046
  70.5524047  65.6486213  66.0410879  70.6807490  64.7706511  65.4080041
  71.4214047  66.5496213  66.4580879  72.4083641  66.5654444  66.2441703
  70.7694047  67.4736213  67.2370879  71.3224374  68.3044998  67.6751483
  68.1544047  69.4356213  66.1100879  68.7104047  70.4276213  66.5870879
  68.2174047  69.1276213  64.8150879  67.9342960  68.2093568  64.5040587
  68.7454047  70.0696213  63.8170879  69.6844353  70.4922150  64.1744887
  69.0024047  69.3656213  62.4830879  68.1474973  68.7506337  62.2019779
  69.1944534  70.0994840  61.7003601  70.1774047  68.4666213  62.5180879
  71.4864047  68.8416213  62.4840879  71.6902322  69.9109296  62.4281063
  72.2964047  67.7366213  62.5300879  73.3062784  67.7463861  62.5174645
  71.5134047  66.6166213  62.6000879  71.8774047  65.2766213  62.6670879
  72.9392012  65.0302798  62.6687413  70.8754047  64.3456213  62.7270879
  71.1265416  63.2863056  62.7807578  69.5224047  64.7256213  62.7210879
  68.7276624  63.9811453  62.7684126  69.1564047  66.0726213  62.6540879
  68.0956127  66.3221322  62.6303121  70.1684047  67.0386213  62.5990879
  67.8224047  71.2646213  63.5780879  68.2904047  72.3456213  63.2250879
  66.5214047  71.0606213  63.7840879  66.2352600  70.1085311  63.9622589
  65.4844047  72.0556213  63.4970879  64.5375880  71.5408441  63.3338649
  65.3034047  73.0706213  64.6560879  65.0772897  74.0233972  64.1773507
  64.4304851  72.7273808  65.2113332  66.4734047  73.2486213  65.6110879
  66.8302234  72.2539294  65.8782384  67.2560702  73.7820894  65.0716914
  66.1154047  74.0176213  66.8790879  66.7439997  74.9071594  66.9201900
  65.0694459  74.3155429  66.8062021  66.3214047  73.1906213  68.1450879
  65.4572473  72.5401877  68.2802495  67.2174647  72.5824395  68.0214322
  66.4764047  74.0656213  69.3420879  65.6460239  74.6289506  69.4570981
  66.6108431  73.4925755  70.1628466  67.2773520  74.6681106  69.2172313
  65.6724047  72.6166213  62.0720879  65.7514047  71.8106213  61.1440879
  65.7324047  73.9346213  61.8730879  65.5191643  74.5622157  62.6351595
  66.0574047  74.5136213  60.5660879  66.5960874  73.7780466  59.9687186
  64.7874047  74.9286213  59.8060879  64.2781266  75.6583520  60.4355543
  65.1233094  75.4123147  58.8888591  63.8214047  73.7916213  59.4590879
  63.2547471  74.0805333  58.5739158  64.4167255  72.9062792  59.2357841
  62.8384047  73.4496213  60.5780879  62.3754047  74.3306213  61.3010879
  62.5114047  72.1636213  60.7170879  61.8653513  71.8854894  61.4419044
  62.9114092  71.4741183  60.0968594  66.9734047  75.7206213  60.7650879
  67.1124047  76.2086213  61.8790879  67.5994047  76.1846213  59.6870879
  67.4711536  75.7108074  58.8043924  68.5094047  77.3206213  59.7350879
  68.6707649  77.6009317  60.7759953  69.8764047  76.9816213  59.0970879
  69.7169747  76.7421548  58.0457373  70.8514047  78.1496213  59.2100879
  71.0117012  78.3893811  60.2612396  71.8015860  77.8760940  58.7513532
  70.4385032  79.0190525  58.6985195  70.4534047  75.8556213  59.7670879
  71.3018867  75.6469447  59.3694289  67.8654047  78.5116213  59.0240879
  67.5424047  78.4296213  57.8370879  67.7244047  79.6176213  59.7590879
  68.0879231  79.6045164  60.7013098  67.0374047  80.8226213  59.2980879
  66.4848477  80.6516282  58.3742150  66.0504047  81.3336213  60.3780879
  66.6126912  81.5558858  61.2850232  65.3204047  82.5896213  59.9120879
  64.7574828  82.3680061  59.0053870  64.6356544  82.9229310  60.6919097
  66.0457862  83.3765572  59.7055564  65.0544047  80.2376213  60.7350879
  65.5903695  79.3706345  61.1213231  64.3648936  80.6059210  61.4947124
  64.4942849  79.9509848  59.8450283  68.0564047  81.9106213  58.9510879
  68.9284047  82.2166213  59.7580879  67.9294047  82.4776213  57.7480879
  67.1645578  82.1701435  57.1645076  68.8204047  83.5216213  57.2330879
  69.6288552  83.7009146  57.9418622  69.4294047  83.0916213  55.8940879
  68.6460628  82.8188077  55.1869477  70.0174133  83.9132011  55.4850004
  70.3524047  81.9086213  55.9910879  69.8484047  80.6126213  55.9660879
  68.7725517  80.4636451  55.8741840  70.6934047  79.5196213  56.0560879
  70.2824214  78.5101001  56.0483178  72.0624047  79.7096213  56.1560879
  72.7321145  78.8520419  56.2204799  72.5794047  80.9956213  56.1740879
  73.6556669  81.1487405  56.2535515  71.7284047  82.0866213  56.0910879
  72.1355871  83.0976311  56.1038017  68.0204047  84.7986213  57.0170879
  67.2734047  84.9066213  56.0410879  68.1664047  85.7626213  57.9230879
  68.7055636  85.5988295  58.7612880  67.4834047  87.0476213  57.7780879
  66.4644316  86.8762717  57.4310543  67.4264047  87.8116213  59.1130879
  68.4265265  87.8326379  59.5460012  67.1083267  88.8289284  58.8850252
  66.4624047  87.1916213  60.1010879  65.0964047  87.1666213  59.8390879
  64.7315924  87.6134274  58.9142227  64.2054047  86.5886213  60.7270879
  63.1375497  86.5835673  60.5085429  64.6734047  86.0206213  61.8940879
  63.7814047  85.4446213  62.7670879  62.8722669  85.4967622  62.4631975
  66.0274047  86.0276213  62.1810879  66.3989600  85.5790409  63.1024037
  66.9134047  86.6106213  61.2870879  67.9811961  86.6199694  61.5057984
  68.1364047  87.9046213  56.6980879  69.3194047  87.7666213  56.4100879
  67.3384047  88.7866213  56.1100879  66.3653098  88.8045971  56.3800185
  67.7944047  89.7366213  55.0940879  68.8300219  89.5228627  54.8296949
  66.9314047  89.6316213  53.8250879  66.1261373  90.3582972  53.9327250
  67.5686141  89.9174901  52.9882227  66.3394047  88.2536213  53.5640879
  67.1677379  87.5570430  53.4346904  65.7610831  87.9702794  54.4434988
  65.2794047  88.1876213  52.1130879  63.8184047  89.0516213  52.6690879
  64.0841428  90.0694688  52.9545152  63.0842733  89.0805415  51.8639076
  63.3939272  88.5328737  53.5286349  67.6494047  91.1126213  55.7370879
  66.8534047  91.2636213  56.6640879  68.4074047  92.1056213  55.2690879
  69.0938075  91.9407402  54.5467550  68.3244047  93.4506213  55.8580879
  68.4127514  93.3607797  56.9407802  69.4254047  94.3976213  55.3520879
  70.3172636  93.8054198  55.1471869  69.0783563  94.8621097  54.4290993
  69.7604047  95.4876213  56.3780879  68.8413663  95.7140374  56.9186477
  70.4895382  95.0590181  57.0656655  70.3224047  96.7666213  55.7760879
  69.9064047  97.8606213  56.2280879  71.1764047  96.6876213  54.8620879
  66.9484047  94.0626213  55.6070879  66.3144047  94.5706213  56.5290879
  66.5044047  93.9946213  54.3550879  67.1332264  93.6726226  53.6332849
  65.1584047  94.4166213  53.9650879  64.7471920  95.0964940  54.7112624
  65.2124047  95.1436213  52.6170879  65.7811573  94.5253936  51.9225274
  64.1922740  95.2569653  52.2502276  65.8624047  96.5056213  52.7280879
  65.2934047  97.3656213  53.4350879  66.9304047  96.7196213  52.1150879
  64.2404047  93.2046213  53.9010879  64.6724047  92.0896213  54.1510879
  62.9694047  93.4346213  53.5930879  62.6401659  94.3880877  53.5420689
  62.0054047  92.3546213  53.3730879  62.5126505  91.3929855  53.4509183
  60.8794047  92.3996213  54.4110879  60.1840094  91.5983879  54.1609886
  61.3409596  92.1913177  55.3763219  60.1324047  93.7096213  54.4830879
  59.0374047  93.9586213  53.6530879  58.7245072  93.1888791  52.9476153
  58.3494047  95.1646213  53.7160879  57.5014834  95.3542780  53.0579378
  58.7514047  96.1326213  54.6270879  58.0714047  97.3206213  54.6990879
  57.3412039  97.3730990  54.0780786  59.8324047  95.9066213  55.4630879
  60.1478466  96.6675513  56.1769383  60.5154047  94.7006213  55.3870879
  61.3674725  94.5146987  56.0409330  61.4354047  92.4526213  51.9700879
  61.5644047  93.4826213  51.3070879  60.8134047  91.3666213  51.5250879
  60.8184165  90.5291367  52.0896176  60.1184047  91.3326213  50.2450879
  60.4299124  92.1820388  49.6371800  60.4364047  90.0496213  49.4880879
  59.9654946  89.2718394  50.0892520  59.9328197  90.1176459  48.5237877
  61.9024047  89.7046213  49.2710879  62.4126518  89.6536210  50.2329339
  62.0014047  88.3636213  48.5760879  61.4917479  88.4139792  47.6138962
  63.0501959  88.1120778  48.4184058  61.5336623  87.5977540  49.1947677
  62.5914047  90.7806213  48.4580879  62.5283575  91.7320829  48.9861459
  63.6385066  90.5139180  48.3147408  62.1039613  90.8714136  47.4873899
  58.6194047  91.4016213  50.4670879  58.1074047  90.9116213  51.4750879
  57.9314047  92.0256213  49.5160879  58.4395696  92.5292580  48.8031939
  56.4804047  92.0356213  49.4640879  56.0701132  91.5275927  50.3368233
  55.9374047  93.4726213  49.4320879  56.2445445  93.9415710  48.4972876
  54.4134047  93.4856213  49.5310879  54.1055060  93.0172190  50.4659127
  54.0559321  94.5150329  49.5061029  53.9895606  92.9339008  48.6920043
  56.4934047  94.2126213  50.5280879  56.1561871  95.1112870  50.5112206
  56.1204047  91.2726213  48.2000879  56.3784047  91.7426213  47.0970879
  55.5394047  90.0896213  48.3760879  55.2674746  89.8102448  49.3078079
  55.3524047  89.1356213  47.2840879  55.6423012  89.5510884  46.3189733
  56.1574047  87.8296213  47.5240879  56.0069134  87.1610115  46.6764957
  57.6454047  88.1346213  47.6730879  57.7967448  88.8028581  48.5208241
  58.1920582  87.2065934  47.8405234  58.0116233  88.6125496  46.7644790
  55.6554047  87.0476213  48.7370879  54.6107619  86.7748891  48.5872861
  56.2523144  86.1438912  48.8598491  55.7445318  87.6654651  49.6306349
  53.8764047  88.8146213  47.0620879  53.0764047  88.8396213  47.9960879
  53.5354047  88.5126213  45.8130879  54.2354304  88.5924702  45.0894253
  52.1974047  88.0736213  45.4350879  51.5494814  88.0735626  46.3116121
  51.5984047  89.0086213  44.3850879  52.2002392  88.9018162  43.4825985
  50.5846645  88.6596091  44.1885650  51.5594047  90.4696213  44.7970879
  51.1244328  90.5361000  45.7943245  52.5807804  90.8495373  44.8206997
  50.7314047  91.3006213  43.8260879  51.0787953  92.3326789  43.8737946
  50.8879001  90.9112629  42.8201015  49.2474047  91.2486213  44.1650879
  48.9792958  90.2121091  44.3696870  49.0792506  91.8500043  45.0584869
  48.4084047  91.7666213  43.0550879  48.5637494  91.2092353  42.2272662
  47.4343641  91.7157894  43.3173110  48.6563867  92.7271988  42.8656286
  52.2894047  86.6696213  44.8650879  53.3334047  86.2866213  44.3330879
  51.1904047  85.9206213  44.9780879  50.3995924  86.3134244  45.4684152
  51.0664047  84.5616213  44.4310879  51.6686764  83.8531778  44.9998373
  49.5934047  84.0956213  44.4640879  49.0205602  84.7188978  43.7774470
  49.4544047  82.6236213  44.0550879  50.0266441  81.9996431  44.7415957
  48.4042866  82.3336640  44.0908078  49.8333823  82.4901744  43.0418414
  49.0684047  84.2836213  45.7830879  48.1531180  83.9950666  45.8073105
  51.5454047  84.4886213  42.9810879  51.1644047  85.3256213  42.1610879
  52.3924047  83.5006213  42.6900879  52.7016446  82.8906614  43.4333368
  52.8974047  83.2576213  41.3370879  52.9933971  82.1769900  41.2316327
  52.1331898  83.6226562  40.6509215  54.2264047  83.9086213  40.9890879
  54.8434047  83.5386213  39.9880879  54.6764047  84.8696213  41.7970879
  54.1103820  85.1747898  42.5759266  55.9374047  85.5726213  41.5360879
  56.0725968  85.6999604  40.4620269  55.9304047  86.9576213  42.1970879
  55.8138629  86.8141539  43.2713013  56.8928712  87.4281566  41.9962027
  54.8084047  87.8536213  41.6790879  54.9289204  87.9459320  40.5997105
  53.8750746  87.3344208  41.8968606  54.7754047  89.2426213  42.3070879
  54.5334047  90.2216213  41.5610879  54.9724047  89.3676213  43.5420879
  57.1164047  84.7166213  42.0020879  56.9284047  83.7396213  42.7320879
  58.3214047  85.0826213  41.5660879  58.4135423  85.9495136  41.0560804
  59.5154047  84.2506213  41.7440879  59.2849601  83.3918435  42.3745601
  59.9994047  83.7416213  40.3800879  60.1187340  84.6090097  39.7308598
  60.9686123  83.2669802  40.5332303  59.0444047  82.7476213  39.7290879
  59.0912747  81.8426288  40.3348045  58.0380871  83.1638315  39.7759177
  59.3884047  82.4076213  38.2770879  59.8854047  83.2836213  37.5260879
  59.1334047  81.2486213  37.8740879  60.6544047  84.9876213  42.4550879
  61.0354047  86.0876213  42.0530879  61.1894047  84.3676213  43.5070879
  60.7693896  83.5044873  43.8212317  62.3804047  84.8556213  44.2070879
  62.5739055  85.9007189  43.9653700  62.2544047  84.6966213  45.7370879
  62.1384581  83.6389956  45.9739100  63.4974047  85.2426213  46.4400879
  63.6137622  86.3003880  46.2040983  63.3887480  85.1211490  47.5178351
  64.3771693  84.6961561  46.1002508  60.9904047  85.3836213  46.2640879
  61.1860151  86.4557418  46.2839624  60.1868943  85.1744497  45.5578884
  60.5804047  84.9196213  47.6470879  61.3832855  85.1288966  48.3539728
  59.6784160  85.4481141  47.9556505  60.3841668  83.8476034  47.6278991
  63.5454047  83.9996213  43.7340879  63.4464047  82.7816213  43.7810879
  64.6364047  84.6166213  43.2810879  64.6491283  85.6214039  43.1793561
  65.7854047  83.8536213  42.7860879  65.7870445  82.8655839  43.2463907
  65.7334047  83.6836213  41.2550879  66.4392202  82.9279790  40.9102278
  64.7201373  83.3812174  40.9906241  66.0274047  84.9376213  40.4720879
  67.3334047  85.2546213  40.0960879  68.1453044  84.5902017  40.3918336
  67.6064047  86.3986213  39.3550879  68.6340125  86.6386362  39.0821119
  66.5714047  87.2346213  38.9630879  66.7812854  88.1310614  38.3796111
  65.2654047  86.9266213  39.3160879  64.4497185  87.5817638  39.0102376
  64.9964047  85.7806213  40.0610879  63.9692423  85.5337889  40.3296227
  67.1234047  84.4216213  43.2330879  67.2004047  85.5166213  43.7820879
  68.1714047  83.6406213  43.0030879  68.0399948  82.7407298  42.5637406
  69.5174047  84.0386213  43.3650879  69.8797393  84.7326585  42.6067178
  69.4718522  84.5457163  44.3288715  70.4764047  82.8766213  43.4660879
  70.2944047  81.8586213  42.8050879  71.5054047  83.0496213  44.2910879
  71.6105106  83.9417494  44.7527800  72.5044047  82.0156213  44.5470879
  72.1149160  81.0448471  44.2405015  73.8174047  82.2846213  43.7810879
  74.5468561  81.5248391  44.0616801  73.5954047  82.2416213  42.2890879
  72.8663656  83.0014894  42.0076596  74.5372129  82.4345171  41.7753879
  73.2220515  81.2577531  42.0049905  74.3314047  83.5706213  44.1390879
  75.1475412  83.7335523  43.6605744  72.8254047  81.9316213  46.0340879
  72.7654047  82.9336213  46.7430879  73.1604047  80.7256213  46.4890879
  73.0709128  79.9343430  45.8678237  73.6324047  80.4866213  47.8530879
  73.7274991  81.4435907  48.3661821  72.6834047  79.5646213  48.6540879
  72.5627194  78.6261937  48.1128956  73.2524047  79.2816213  50.0420879
  73.3729451  80.2195992  50.5840917  72.5699653  78.6314131  50.5894510
  74.2211613  78.7914971  49.9451953  71.3044047  80.2176213  48.7920879
  71.4084810  81.0271635  49.5145215  71.0516032  80.6323996  47.8163063
  70.2054047  79.2796213  49.2410879  70.4572956  78.8647769  50.2170771
  69.2656431  79.8273665  49.3112483  70.1004193  78.4700112  48.5188625
  75.0104047  79.8486213  47.7410879  75.1574047  78.7816213  47.1400879
  76.0104047  80.5216213  48.3060879  75.8061643  81.4113931  48.7381658
  77.3864047  80.0396213  48.3330879  77.4986121  79.2113526  47.6334596
  78.0631576  80.8464294  48.0517241  77.7424047  79.5606213  49.7250879
  77.2924047  80.1416213  50.7120879  78.5394047  78.4956213  49.7940879
  78.8819107  78.0909299  48.9344287  78.9594047  77.8956213  51.0570879
  78.8035613  78.6017508  51.8726816  78.1494047  76.6376213  51.3410879
  78.0509599  76.1016351  50.3970929  78.7292257  76.0360584  52.0411092
  76.7784047  76.8976213  51.9170879  76.8731827  77.5620037  52.7759907
  76.1573829  77.3727292  51.1576760  76.0004047  75.3596213  52.4410879
  76.9824047  74.9926213  53.8950879  76.8848548  75.8054772  54.6147046
  76.6315677  74.0645105  54.3463356  78.0287806  74.8843922  53.6096317
  80.4194047  77.5076213  50.9760879  80.8674047  76.9906213  49.9600879
  81.1524047  77.7466213  52.0540879  80.7672791  78.2861884  52.8160885
  82.5354047  77.2956213  52.1560879  82.6308714  76.2994166  51.7241601
  83.4734047  78.2516213  51.3990879  84.4505290  77.7694071  51.3708585
  83.0800997  78.3340793  50.3858693  83.6114047  79.6436213  52.0050879
  82.6586975  79.9126129  52.4612603  84.3836727  79.6057247  52.7733770
  83.9864047  80.6876213  50.9590879  84.3109960  81.5998317  51.4596992
  84.7984412  80.3041903  50.3412878  82.8454047  81.0076213  50.0910879
  82.8228390  80.5208158  49.2064351  81.8594047  81.8716213  50.3710879
  80.8734047  82.0466213  49.4900879  80.8774829  81.5290396  48.6227975
  80.1272038  82.6959197  49.6942825  81.8334047  82.5686213  51.5110879
  82.5724313  82.4495978  52.1891537  81.0748477  83.2112041  51.6893498
  82.9214047  77.1986213  53.6250879  82.2934047  77.8526213  54.4680879
  83.9424047  76.3796213  53.9460879  84.7184047  75.4616213  53.0940879
  84.9610298  75.9581663  52.1545793  84.1262409  74.5694247  52.8905534
  85.9344047  75.1646213  53.9190879  86.7176621  75.8937209  53.7116737
  86.3034993  74.1629872  53.6986344  85.4654047  75.2586213  55.3210879
  86.3276494  75.5326350  55.9289938  85.0035282  74.3602517  55.7306020
  84.4544047  76.4046213  55.3070879  83.6243046  76.2761395  56.0017278
  85.1494047  77.7276213  55.5880879  85.7554047  78.3056213  54.6820879
  85.0434047  78.2016213  56.8270879  84.4285640  77.7416443  57.4832064
  85.7444047  79.4096213  57.2630879  85.5452885  80.2255632  56.5683285
  85.2664047  79.8266213  58.6580879  84.1778896  79.8834751  58.6593680
  85.5908547  79.0666231  59.3688867  85.8204047  81.1636213  59.0940879
  86.7944047  81.2236213  59.8460879  85.2124047  82.2436213  58.6160879
  85.5427025  83.1620005  58.8760548  84.4226212  82.1414344  57.9948789
  87.2604047  79.1596213  57.2460879  87.7254047  78.0996213  57.6730879
  88.0154047  80.1296213  56.7310879  87.5739718  80.9845266  56.4238857
  89.4594047  79.9696213  56.5030879  89.5823855  79.0522629  55.9273896
  90.0034047  81.1356213  55.6840879  89.8955566  82.0602111  56.2511880
  91.0574168  80.9655467  55.4644667  89.4465674  81.2155829  54.7504726
  90.2604047  79.8076213  57.8010879  91.2404047  79.0656213  57.8250879
  89.8294047  80.4876213  58.8670879  89.0272064  81.0938929  58.7721573
  90.5014047  80.4206213  60.1720879  91.5810127  80.4049758  60.0227527
  90.1444047  81.6316213  61.0470879  89.0888779  81.5208596  61.2954708
  90.7425591  81.5332826  61.9529802  90.3794047  83.0056213  60.4300879
  89.7200758  83.0953190  59.5667568  90.1046954  83.7519475  61.1754965
  91.8214047  83.2316213  59.9930879  92.4760317  83.0722956  60.8499297
  92.0667828  82.5136038  59.2105663  92.0154047  84.6476213  59.4620879
  91.8029996  85.3460262  60.2715415  93.0552770  84.7552144  59.1535614
  91.1194047  84.9416213  58.3030879  90.1557771  84.8423989  58.5888786
  91.2804512  85.8863397  57.9842289  91.3163575  84.2948464  57.5527607
  90.1344047  79.1386213  60.9240879  90.9854047  78.5266213  61.5760879
  88.8594047  78.7546213  60.8460879  88.2070774  79.3308203  60.3336788
  88.3514047  77.5626213  61.5150879  89.1729600  76.9123044  61.8154777
  87.5814047  77.9866213  62.7660879  88.2094001  78.6719356  63.3353552
  86.6705893  78.5000705  62.4580534  87.2024047  76.8216213  63.6590879
  87.2984047  75.6486213  63.2790879  86.7574047  77.1466213  64.8650879
  86.4867085  76.4204366  65.5127600  86.6911831  78.1188709  65.1305047
  87.4664047  76.7656213  60.5450879  86.3204047  77.1406213  60.2840879
  88.0034047  75.6596213  60.0260879  88.9397266  75.3954232  60.2973811
  87.3264047  74.8636213  58.9890879  87.0408206  75.5109639  58.1599387
  88.2524047  73.7576213  58.4530879  88.6401650  73.1796987  59.2919841
  87.6626540  73.1077607  57.8065778  89.4294047  74.3036213  57.6520879
  90.5784047  73.6416213  57.7700879  89.3094047  75.2966213  56.9280879
  90.1051868  75.6377679  56.4080401  88.4160588  75.7628081  56.8595044
  85.9834047  74.2486213  59.4180879  85.1594047  73.9376213  58.5600879
  85.7644047  74.0756213  60.7220879  86.5196314  74.2176385  61.3774986
  84.4814047  73.5696213  61.2350879  84.1259198  72.7561023  60.6026983
  84.6454047  73.0426213  62.6650879  84.9768247  73.8720803  63.2897941
  83.6694502  72.6981974  63.0071185  85.6514047  71.8986213  62.7630879
  85.5143550  71.2566812  61.8928976  86.6521936  72.3299761  62.7417190
  85.4814047  71.0776213  64.0290879  85.6529416  71.7141279  64.8971509
  84.4677742  70.6785500  64.0664343  86.4264047  69.9616213  64.0720879
  87.2294939  70.0859987  64.6718191  86.3094047  68.8156213  63.3910879
  85.2704047  68.5916213  62.5770879  84.5558949  69.2972935  62.4693731
  85.2058076  67.7179799  62.0744174  87.2454047  67.8726213  63.5240879
  88.0332567  68.0301822  64.1361042  87.1612447  67.0061085  63.0120611
  83.3334047  74.5926213  61.1610879  82.1664047  74.2066213  61.1840879
  83.6644047  75.8816213  61.0690879  84.6258980  76.1554118  61.2128543
  82.6694047  76.9346213  60.8250879  81.7331789  76.6783323  61.3209673
  83.1604047  78.2776213  61.3710879  84.1275475  78.4830468  60.9122476
  82.4473731  79.0468263  61.0744239  83.3074047  78.2796213  62.8870879
  82.6444047  77.4716213  63.5780879  84.0904047  79.1076213  63.3890879
  82.3324047  77.0736213  59.3460879  83.0774047  76.6016213  58.4830879
  81.2014047  77.7186213  59.0680879  80.6462581  78.0780587  59.8314465
  80.7224047  77.9316213  57.7010879  81.4265756  77.4998183  56.9898997
  79.3614047  77.2656213  57.5060879  78.7757064  77.6697571  58.3317579
  78.9638164  77.6389631  56.5623510  79.2814047  75.7426213  57.5240879
  79.6902983  75.3652959  58.4613885  77.8254047  75.3166213  57.3980879
  77.4159281  75.6932124  56.4607476  77.7622882  74.2285196  57.4104053
  77.2539618  75.7226665  58.2327618  80.1224047  75.1406213  56.4110879
  81.1632235  75.4374313  56.5403147  80.0480482  74.0537234  56.4460920
  79.7601407  75.4982161  55.4472468  80.5724047  79.4116213  57.3920879
  79.9754047  80.1506213  58.1750879  81.1134047  79.8296213  56.2480879
  81.7722137  79.2307458  55.7712040  80.8014047  81.1316213  55.6530879
  80.3803353  81.7861043  56.4162732  82.0534047  81.7956213  55.0760879
  82.4946597  81.0980928  54.3641558  81.7420173  82.6996776  54.5528096
  83.0814047  82.1536213  56.1380879  82.7814047  82.0816213  57.3530879
  84.2084047  82.5186213  55.7430879  79.7804047  80.9246213  54.5410879
  79.8944047  79.9776213  53.7630879  78.7794047  81.8006213  54.4870879
  78.7251787  82.5182482  55.1957277  77.7714047  81.7916213  53.4340879
  77.9547977  80.9513990  52.7643919  76.3644047  81.6556213  54.0140879
  76.1410807  82.4603344  54.7145609  75.6562115  81.6883391  53.1861435
  76.1124047  80.3686213  54.7440879  76.5654047  80.1906213  56.0460879
  77.1237675  80.9922850  56.5294782  76.3144047  79.0096213  56.7300879
  76.6837958  78.8798634  57.7473459  75.5944047  77.9956213  56.1200879
  75.3972687  77.0667291  56.6552483  75.1244047  78.1636213  54.8270879
  74.5559801  77.3693900  54.3431558  75.3794047  79.3476213  54.1480879
  75.0035982  79.4863431  53.1343692  77.8194047  83.0996213  52.6690879
  78.2164047  84.1296213  53.2170879  77.4124047  83.0506213  51.4050879
  77.3554964  82.1583385  50.9353089  77.0634047  84.2536213  50.6520879
  76.9218074  85.0842304  51.3435631  78.1414047  84.6476213  49.6230879
  78.1844445  83.8832331  48.8472280  77.8134047  86.0046213  48.9860879
  77.7706507  86.7696519  49.7613297  78.5868533  86.2636123  48.2630388
  76.8493943  85.9458648  48.4807839  79.4214047  84.7196213  50.2650879
  80.0892417  84.9651866  49.6206566  75.7454047  83.9856213  49.9370879
  75.6454047  83.0286213  49.1620879  74.7374047  84.8066213  50.2240879
  74.8495603  85.4888684  50.9603347  73.4504047  84.7266213  49.5470879
  73.4630523  83.8873155  48.8517426  72.2814047  84.5556213  50.5370879
  72.2584404  85.4112063  51.2120303  70.9574047  84.4666213  49.7840879
  70.9794395  83.6109396  49.1092368  70.1411446  84.3460495  50.4963256
  70.8044133  85.3792011  49.2079882  72.4904047  83.2896213  51.3770879
  72.5614607  82.4592809  50.6745307  73.4435781  83.4123033  51.8913924
  71.3994047  82.9996213  52.3950879  70.4459473  82.8763477  51.8814514
  71.6407792  82.0849044  52.9365033  71.3280632  83.8293718  53.0983121
  73.2534047  85.9846213  48.7100879  73.2044047  87.0876213  49.2520879
  73.1684047  85.8066213  47.3910879  73.4464320  84.9190629  46.9973363
  72.7084047  86.8566213  46.4800879  72.8058462  87.8263191  46.9682380
  73.5274047  86.8746213  45.1910879  73.6591270  85.8443829  44.8603958
  72.9589697  87.4261732  44.4422407  74.8804047  87.5216213  45.3730879
  75.7284047  86.9576213  46.0870879  75.1044047  88.6046213  44.7960879
  71.2424047  86.5956213  46.1670879  70.8824047  85.4906213  45.7820879
  70.4054047  87.6156213  46.3370879  70.7769227  88.5190428  46.5938044
  68.9564047  87.4786213  46.1870879  68.7138347  86.5164009  45.7360990
  68.2864047  87.5576213  47.5610879  68.8873141  86.8870848  48.1754071
  68.3922741  88.5785051  47.9280865  66.8134047  87.1376213  47.6370879
  66.6064777  86.4247860  46.8388724  66.5114047  86.4946213  48.9810879
  66.7176648  87.2070584  49.7798300  65.4617898  86.2028956  49.0172191
  67.1379145  85.6122138  49.1112526  65.8674047  88.3086213  47.4000879
  66.0486348  88.7282670  46.4105665  64.8360158  87.9618026  47.4637658
  66.0399642  89.0745572  48.1561729  68.4204047  88.5786213  45.2870879
  68.7754047  89.7446213  45.4710879  67.5754047  88.1956213  44.3300879
  67.4063434  87.2077245  44.2052778  66.8874047  89.1336213  43.4450879
  67.0409991  90.1532464  43.7984611  67.4254047  89.0246213  42.0260879
  67.4117132  87.9710216  41.7470907  66.7603912  89.5830617  41.3673001
  68.8284047  89.5606213  41.8950879  69.2294047  90.4206213  42.7070879
  69.5304047  89.1206213  40.9690879  65.3954047  88.8356213  43.4340879
  64.9864047  87.6726213  43.4480879  64.5894047  89.8926213  43.4210879
  64.9827901  90.8179041  43.5169993  63.1374047  89.7656213  43.3000879
  62.8951330  88.8657240  42.7347662  62.4804047  89.6686213  44.6790879
  62.8628982  88.7873082  45.1939522  62.6790951  90.5552880  45.2811214
  60.9894047  89.5166213  44.6180879  60.4274047  88.3076213  44.2480879
  61.0818747  87.4677290  44.0149573  59.0554047  88.1566213  44.1720879
  58.6256868  87.1959570  43.8882442  58.2274047  89.2276213  44.4570879
  57.1452546  89.1129001  44.3947185  58.7734047  90.4436213  44.8210879
  58.1247580  91.2896895  45.0480816  60.1484047  90.5856213  44.8970879
  60.5824926  91.5450014  45.1786149  62.6054047  90.9766213  42.5470879
  62.9224047  92.1056213  42.9100879  61.8274047  90.7286213  41.4920879
  61.7478091  89.7776509  41.1613021  61.1094047  91.7806213  40.7640879
  61.2065124  92.7231162  41.3029503  61.6714047  91.9656213  39.3460879
  61.5757772  91.0046157  38.8406940  61.0389384  92.7013375  38.8492902
  63.1244047  92.4256213  39.2920879  63.1710388  93.2925815  38.6330689
  63.4141146  92.7205402  40.3006478  64.0794047  91.3476213  38.7830879
  65.0664994  91.5336484  39.2063337  63.7163155  90.3773524  39.1219742
  64.1704047  91.3526213  37.2580879  63.1529729  91.3070482  36.8696860
  64.6302607  92.2951802  36.9610788  64.9644047  90.2166213  36.7060879
  64.5382152  89.3431342  36.9808287  64.9851816  90.2787799  35.6982166
  65.9073316  90.2589109  37.0655314  59.6254047  91.4126213  40.7020879
  59.2374047  90.5286213  39.9440879  58.8114047  92.0776213  41.5190879
  59.2011309  92.7774551  42.1342671  57.3684047  91.8386213  41.5660879
  57.1117158  91.1007487  40.8059866  57.1107975  91.4494774  42.5511285
  56.5754047  93.1026213  41.3130879  57.1484047  94.1666213  41.0610879
  55.2504047  92.9706213  41.3730879  54.8568046  92.0472697  41.4853385
  54.3294047  94.1096213  41.2380879  54.4978557  94.6033283  40.2810211
  52.8674047  93.6456213  41.3000879  52.8009007  92.9151613  42.1063785
  52.2679888  94.5202921  41.5525785  52.3454047  93.0286213  40.0140879
  52.4760151  93.7446782  39.2027284  52.9144010  92.1249621  39.7955809
  50.8734047  92.6646213  40.1080879  50.0204047  93.5346213  40.2890879
  50.5694047  91.3736213  39.9890879  49.6052551  91.0778379  40.0441250
  51.3043752  90.6961501  39.8443376  54.5424047  95.1776213  42.3060879
  54.4544047  96.3676213  42.0110879  54.8194047  94.7396213  43.5350879
  54.9816525  93.7517741  43.6690019  54.8594047  95.6156213  44.7090879
  54.4740509  96.6039688  44.4585470  53.9874047  95.0166213  45.8190879
  54.5147276  94.0985894  46.0784087  54.0019674  95.6964108  46.6710117
  52.5384047  94.6866213  45.4550879  52.5305999  94.0696087  44.5565695
  51.8594047  93.9346213  46.5930879  51.8664113  94.5512298  47.4918892
  50.8296876  93.7083581  46.3163417  52.3956856  93.0055482  46.7862885
  51.7684047  95.9506213  45.1010879  52.2418551  96.4384801  44.2490680
  50.7409427  95.6912836  44.8458097  51.7701190  96.6287299  45.9544722
  56.2594047  95.8606213  45.2730879  56.4084047  96.6586213  46.1980879
  57.2764047  95.1906213  44.7310879  57.1373097  94.6448053  43.8927343
  58.6044047  95.1926213  45.3450879  58.8594837  96.1887270  45.7067607
  58.5984047  94.2276213  46.5330879  57.9188494  94.6047577  47.2973339
  58.2586596  93.2479838  46.1969574  60.1784047  93.9526213  47.3600879
  59.7133198  93.0995483  48.2683064  59.7014047  94.7906213  44.3590879
  59.5624047  93.8006213  43.6370879  60.7774047  95.5766213  44.3330879
  60.7419082  96.4541723  44.8318299  62.0054047  95.2366213  43.6140879
  61.9212665  94.2267856  43.2125261  62.2594047  96.2036213  42.4560879
  61.8578571  97.1732845  42.7503869  63.3393497  96.2811563  42.3303613
  61.6264047  95.7706213  41.1430879  62.0600304  94.8119193  40.8585528
  60.5580318  95.6472532  41.3204541  61.8414047  96.7776213  40.0210879
  62.9854047  97.2656213  39.8580879  60.8654047  97.0756213  39.2960879
  63.1534047  95.3096213  44.5990879  63.3424047  96.3346213  45.2490879
  63.9104047  94.2246213  44.7180879  63.6910046  93.3979425  44.1809052
  65.0564047  94.1786213  45.6230879  65.4395323  95.1866940  45.7815232
  64.6554047  93.5906213  46.9750879  63.7442334  94.1265838  47.2408137
  64.4317576  92.5301611  46.8588714  65.7004047  93.7746213  48.0870879
  66.6960283  93.6515007  47.6608534  65.5824047  95.1606213  48.7090879
  64.5871317  95.2843238  49.1359697  66.3303167  95.2719924  49.4941515
  65.7452346  95.9184226  47.9427173  65.5724047  92.6946213  49.1570879
  65.7195569  91.7142528  48.7039617  66.3262718  92.8549138  49.9278616
  64.5798072  92.7420063  49.6049759  66.1554047  93.3326213  45.0190879
  65.8924047  92.2636213  44.4870879  67.3834047  93.8276213  45.1060879
  67.5008356  94.7731377  45.4412117  68.5684047  93.0796213  44.7270879
  68.3261150  92.0219191  44.6238356  69.1014047  93.5906213  43.3910879
  68.3541652  93.3974345  42.6214054  69.2702082  94.6644658  43.4714827
  70.3114047  92.9486213  43.0440879  70.6235934  93.2878660  42.2020362
  69.5934047  93.2766213  45.8390879  70.0014047  94.4056213  46.1040879
  69.9944047  92.1906213  46.5000879  69.6065649  91.2865915  46.2711561
  70.9344047  92.2796213  47.6200879  71.5563094  93.1684659  47.5138379
  70.1714047  92.3716213  48.9450879  70.8679989  92.5085946  49.7721877
  69.4705455  93.2060180  48.9190411  69.1934047  90.9086213  49.3510879
  68.7209832  91.3728758  50.5044239  71.9284047  91.1256213  47.6730879
  71.6914047  90.0576213  47.1230879  73.0484047  91.3836213  48.3420879
  73.1643732  92.3118707  48.7228814  74.1154047  90.4126213  48.5510879
  73.7668856  89.4140305  48.2875541  75.3194047  90.7566213  47.6750879
  74.9569145  91.1020427  46.7069019  75.8828597  91.5552859  48.1575331
  76.1604047  89.6306213  47.4900879  76.9062044  89.8756174  46.9374944
  74.4914047  90.4726213  50.0290879  74.7304047  91.5606213  50.5660879
  74.5294047  89.3136213  50.6830879  74.4071000  88.4509973  50.1721859
  74.7374047  89.2396213  52.1300879  75.1773767  90.1674897  52.4955794
  73.4024047  89.0006213  52.8710879  73.0552985  87.9918788  52.6473556
  73.5734047  89.1556213  54.3730879  73.9200715  90.1643310  54.5976461
  72.6178882  88.9817901  54.8679313  74.3050863  88.4320799  54.7325743
  72.4164047  89.9336213  52.4130879  71.5902386  89.7796620  52.8771422
  75.6894047  88.0996213  52.4740879  75.4454047  86.9576213  52.0900879
  76.7624047  88.4196213  53.1950879  76.9838832  89.3937150  53.3440446
  77.6574047  87.4126213  53.7570879  77.6369377  86.5167581  53.1365159
  79.0974047  87.9356213  53.8150879  79.0656962  88.9017457  54.3187718
  79.6956058  87.2394395  54.4029539  79.7224047  88.1026213  52.4360879
  79.2744047  87.4426213  51.4670879  80.6854047  88.8906213  52.3260879
  77.1874047  87.0306213  55.1570879  76.9254047  87.9066213  55.9780879
  77.0654047  85.7256213  55.4150879  77.1836303  85.0654620  54.6598980
  76.7454047  85.2066213  56.7480879  76.5979281  86.0446378  57.4293207
  75.4754047  84.3506213  56.7430879  75.6851137  83.4535484  56.1605232
  75.3220558  84.0776014  57.7871398  74.2294047  85.0176213  56.2090879
  73.9964047  85.1006213  54.8370879  74.7360203  84.6874239  54.1512773
  72.8484047  85.6956213  54.3410879  72.6825657  85.7575672  53.2655592
  71.9074047  86.2056213  55.2160879  70.7844047  86.7876213  54.7000879
  70.7657271  86.7810593  53.7402922  72.1064047  86.1326213  56.5870879
  71.3681592  86.5399038  57.2778953  73.2574047  85.5346213  57.0760879
  73.4183141  85.4604608  58.1515917  77.8804047  84.3556213  57.2990879
  78.6994047  83.8266213  56.5500879  77.9004047  84.2206213  58.6200879
  77.2518488  84.7605169  59.1750540  78.8524047  83.3626213  59.3110879
  79.3084306  82.6712598  58.6024562  79.9594047  84.2016213  59.9580879
  79.4833355  85.0553204  60.4404313  80.4415979  83.5806947  60.7130978
  81.0034047  84.6966213  58.9660879  81.2854381  83.8617115  58.3246179
  80.5514719  85.4825476  58.3609609  82.2414047  85.2416213  59.6620879
  82.6021056  84.5019510  60.3768478  83.0134201  85.4324058  58.9166398
  81.9614047  86.4906213  60.3790879  81.0048988  86.8138721  60.3525406
  82.8614047  87.2146213  61.0540879  84.1404047  86.8326213  61.1310879
  84.4389451  85.9831039  60.6736013  84.8021691  87.3953219  61.6463893
  82.4814047  88.3416213  61.6600879  81.5182394  88.6406864  61.6055663
  83.1587815  88.8901441  62.1703644  78.1184047  82.5336213  60.3560879
  77.5104047  83.0836213  61.2720879  78.1444047  81.2136213  60.1790879
  78.4403906  80.8414802  59.2880196  77.7254047  80.2796213  61.2110879
  77.0132036  80.7687040  61.8756681  77.0564047  79.0426213  60.6010879
  76.3731270  79.3885967  59.8255031  77.8406528  78.4353151  60.1491650
  76.2884047  78.2056213  61.6180879  77.0333190  77.7853776  62.2938088
  75.6511324  78.8991726  62.1666976  75.2704047  76.8656213  60.9460879
  74.1554047  77.7656213  59.8810879  74.7277576  78.2953988  59.1196111
  73.4696228  77.0683283  59.3998538  73.5871267  78.4833944  60.4726647
  78.9894047  79.9176213  61.9880879  79.9074047  79.2986213  61.4440879
  79.0464047  80.3506213  63.2460879  78.2799608  80.9016996  63.6052198
  80.2074047  80.1236213  64.1150879  80.7066774  79.1973702  63.8306853
  81.2104047  81.2826213  63.9850879  81.9996734  81.1067961  64.7160050
  81.6290828  81.2327793  62.9799389  80.6054047  82.6586213  64.2140879
  79.7576147  82.7679538  63.5377749  80.2549116  82.7024372  65.2452701
  81.5984047  83.7846213  63.9680879  82.3690612  83.7681982  64.7387485
  82.0611996  83.6575193  62.9894330  80.9254047  85.0876213  64.0040879
  79.9279830  85.0655347  63.8467303  81.5094047  86.2686213  64.2310879
  80.7624047  87.3756213  64.2350879  79.7684957  87.3110774  64.0675199
  81.1947841  88.2723111  64.4056607  82.8234047  86.3706213  64.4640879
  83.3979489  85.5399868  64.4708312  83.2344547  87.2777619  64.6321130
  79.7604047  79.9406213  65.5680879  78.5834047  79.6836213  65.8440879
  80.5514047  80.0296213  66.5070879  77.7264047  58.0936213  66.5330879
  76.9184047  58.6106213  67.6820879  75.4244047  58.5766213  67.3300879
  75.0584047  58.6926213  66.1460879  77.3714047  60.0306213  68.0480879
  77.3664047  61.0266213  66.8670879  77.8684047  62.7096213  67.3040879
  76.6764047  63.7816213  66.4550879  79.3154047  62.9566213  66.2490879
  80.6064047  62.5206213  66.9210879  81.6204047  62.5116213  65.9270879
  81.0234047  63.5446213  67.9670879  81.0344047  63.0066213  69.2780879
  82.3924047  64.0386213  67.5120879  83.3164047  64.1016213  68.5680879
  82.8084047  62.9276213  66.5690879  74.5614047  58.4396213  68.2110879
  87.3814047  61.4436213  64.5810879  86.5874047  60.7536213  65.4820879
  85.4004047  61.3306213  65.8880879  85.0124047  62.5406213  65.4130879
  85.8104047  63.2366213  64.5040879  87.0124047  62.6716213  64.0810879
  87.8204047  63.2946213  63.2190879  85.1824047  64.3936213  64.2130879
  84.0174047  64.4496213  64.9030879  83.9044047  63.3036213  65.6520879
  80.2828332  62.6729248  69.4501572  83.1244564  63.5207655  69.1437123
  88.5568500  62.9232179  62.9742985  87.6042892  64.0672248  62.9088671
  79.2001458  62.4594240  65.4241805  79.3793152  63.8941999  66.0088866
  78.5831808  58.0564495  66.5920972  77.3339794  57.8342115  65.8137424
  77.9585940  60.6931855  66.1754273  76.4743515  61.0551003  66.4870933
  76.8835865  64.7102820  66.6442912  76.7267524  63.6281412  65.4985389
  75.7807939  63.5808860  66.7670760  76.7931839  60.3729665  68.7474508
  78.2677209  59.9870457  68.4171618  77.0591721  58.0421469  68.4553094
  83.3741498  65.1751231  64.8736892  80.4801040  61.6532761  67.3357173
  80.3892521  64.2763997  68.0273605  82.3614834  64.9318922  67.1344082
  86.8580936  59.8860648  65.8198263  83.2063591  62.1881717  67.0536182
  91.4374047  87.8606213  70.5760879  90.8142977  88.3385544  71.2112398
  92.4212607  87.7883218  70.7926513  91.0004047  86.4636213  70.3960879
  90.1773575  86.2562696  71.0799731  91.8338724  85.7974522  70.6189114
  90.5824047  86.3966213  68.9510879  89.4934990  86.3928082  68.9024262
  90.9681638  85.4736412  68.5181919  91.1544047  87.5886213  68.2600879
  90.4812110  87.9366011  67.4766216  92.1346156  87.3815727  67.8306492
  91.2774047  88.6566213  69.3540879  92.1787121  89.2591950  69.2416251
  90.0454047  89.5756213  69.3630879  89.1984047  89.4756213  70.2570879
  89.9674047  90.4636213  68.3700879  90.7424465  90.5478684  67.7279726
  88.8124047  91.3566213  68.1900879  88.5625684  91.8236051  69.1427721
  89.1194047  92.4636213  67.1650879  89.4728775  92.0075107  66.2403612
  88.1943156  93.0065509  66.9713419  90.1704047  93.4516213  67.6530879
  91.1044047  93.7996213  66.7770879  90.1334047  93.9056213  68.7950879
  90.8406165  94.5598411  69.0983168  89.3959810  93.6220966  69.4243103
  87.5904047  90.5566213  67.7310879  87.7354047  89.5096213  67.0950879
  86.3994047  91.0716213  68.0410879  86.3679227  91.9531606  68.5330194
  85.1294047  90.3596213  67.7990879  85.2628312  89.3846466  68.2678319
  83.9814047  91.0786213  68.4910879  83.8296554  92.0530106  68.0267200
  83.0713838  90.4861054  68.3968168  84.2193604  91.2127092  69.5463115
  84.7864047  90.1206213  66.3200879  84.1054047  89.1416213  65.9990879
  85.2484047  91.0086213  65.4360879  85.6888089  91.8532942  65.7717532
  85.0714047  90.8436213  63.9850879  84.0257294  90.6314408  63.7622838
  85.4804047  92.1246213  63.2450879  86.5325206  92.2940485  63.4740986
  85.3694814  91.9181569  62.1805840  84.6594047  93.3916213  63.6150879
  84.7031011  94.0437587  62.7427873  83.6376240  93.0379516  63.7528595
  85.1024047  94.1726213  64.8600879  86.0834047  93.7506213  65.5090879
  84.4474047  95.2016213  65.1380879  85.8414047  89.6416213  63.4070879
  85.4224047  89.0696213  62.3960879  86.9514047  89.2636213  64.0510879
  87.2219562  89.7730819  64.8801543  87.8294047  88.1766213  63.5810879
  87.7271951  88.0494982  62.5033625  89.2964047  88.5206213  63.8990879
  89.3923605  88.5461804  64.9845548  89.9263843  87.7267941  63.4977599
  89.7364047  89.8616213  63.3180879  89.3934047  90.1626213  62.1540879
  90.4414047  90.6136213  64.0290879  87.5214047  86.7806213  64.1630879
  88.1014047  85.7926213  63.7080879  86.6144047  86.6926213  65.1400879
  86.0593569  87.5015348  65.3802548  86.4594047  85.4706213  65.9540879
  87.4415010  85.0681859  66.2023455  85.7094047  85.7776213  67.2610879
  84.7948094  86.3066541  66.9932465  85.4547981  84.8225546  67.7205692
  86.5094047  86.6156213  68.2450879  87.4031132  86.0491573  68.5068217
  86.7986170  87.5338429  67.7338860  85.6104047  87.0336213  69.7510879
  85.6654047  85.4656213  70.6130879  86.7034556  85.1821815  70.7869017
  85.1494955  85.5575490  71.5688534  85.1767979  84.7010462  70.0091098
  85.7724047  84.2936213  65.2470879  84.9044047  84.4816213  64.3890879
  86.1904047  83.0866213  65.6350879  86.9800638  83.0571496  66.2641104
  85.6044047  81.8166213  65.1950879  84.8102143  81.9901330  64.4689650
  86.6874047  80.9266213  64.5400879  86.2269117  79.9946380  64.2122867
  87.3114047  81.6296213  63.3470879  87.7725330  82.5615303  63.6742055
  88.0701148  80.9862159  62.9015684  86.5400215  81.8463518  62.6081046
  87.7134047  80.6136213  65.4940879  88.3796255  80.0616970  65.0779992
  84.9864047  81.0996213  66.4100879  84.9474047  81.6676213  67.5080879
  84.5124047  79.8646213  66.2220879  84.4355239  79.5055784  65.2811964
  83.9494047  79.0596213  67.3280879  83.2427616  79.6633785  67.8975016
  83.2104047  77.8176213  66.7830879  82.7850552  77.2805008  67.6308370
  82.4070644  78.1629641  66.1323324  84.0684047  76.9506213  66.0560879
  83.5666432  76.1963361  65.7384575  84.9334047  78.6456213  68.4600879
  84.4804047  78.2696213  69.5520879  86.2364047  78.6706213  68.1590879
  86.5007469  78.8815509  67.2073888  87.2954047  78.3666213  69.1220879
  86.9422150  77.6285102  69.8421908  88.5204047  77.7986213  68.4000879
  88.1760579  76.9619067  67.7922777  88.9041106  78.5852745  67.7504369
  89.6264047  77.3266213  69.3320879  89.8764030  78.1411910  70.0118510
  89.2559619  76.4766194  69.9051245  90.8674047  76.9136213  68.5590879
  90.6007922  76.1002441  67.8842291  91.2143407  77.7681403  67.9781127
  91.9724047  76.4546213  69.4920879  92.1812136  77.2533182  70.2038341
  91.6294913  75.5703785  70.0293256  93.2114047  76.1266213  68.7380879
  93.5295623  76.9459655  68.2405434  93.9279094  75.8248734  69.3828121
  93.0182382  75.3862567  68.0788110  87.6944047  79.6096213  69.9200879
  87.9394047  79.5246213  71.1240879  87.7724047  80.7596213  69.2530879
  87.6620377  80.7850222  68.2494579  88.0284047  82.0146213  69.9530879
  88.9443895  81.9237615  70.5368820  88.1884047  83.1736213  68.9710879
  87.2525526  83.2721142  68.4210160  88.3694366  84.0825767  69.5447842
  89.3214047  82.9586213  68.0000879  90.3944047  82.5006213  68.4380879
  89.1424047  83.2526213  66.8020879  86.8584047  82.2946213  70.8790879
  87.0304047  82.8036213  71.9850879  85.6634047  81.9536213  70.4080879
  85.5904137  81.5458487  69.4869510  84.4404047  82.1806213  71.1600879
  84.3850795  83.2225090  71.4755372  83.2244047  81.8686213  70.2920879
  83.5749449  81.1579071  69.5436855  82.4659443  81.3947782  70.9152336
  82.6274047  83.0746213  69.6010879  82.4374047  84.2626213  70.2860879
  82.7341499  84.3186748  71.3334177  81.8824047  85.3656213  69.6650879
  81.7519862  86.2984422  70.2136661  81.4924047  85.2816213  68.3480879
  80.9354047  86.3756213  67.7260879  80.8667374  87.1402424  68.3024896
  81.6584047  84.1086213  67.6500879  81.3506026  84.0420391  66.6065721
  82.2174047  83.0126213  68.2760879  82.3432840  82.0781043  67.7293407
  84.3594047  81.3446213  72.4310879  83.5224047  81.6036213  73.2880879
  85.2154047  80.3376213  72.5580879  85.8768862  80.1196012  71.8266449
  85.1244047  79.4336213  73.7010879  84.0758673  79.2688863  73.9491422
  85.7714047  78.0846213  73.3960879  86.2874182  78.1877570  72.4415239
  86.4914752  77.8227225  74.1713347  84.7344047  77.0026213  73.2900879
  83.3974047  77.2976213  73.5190879  83.1221829  78.3236900  73.7630864
  82.4264047  76.3236213  73.4430879  81.3777458  76.5723817  73.6059820
  82.7874047  75.0346213  73.1530879  81.8054047  74.0816213  73.0920879
  80.9295796  74.4337750  73.2667813  84.1104047  74.7056213  72.9350879
  84.3944936  73.6786838  72.7053195  85.0784047  75.6906213  73.0100879
  86.1263493  75.4383575  72.8479913  85.6724047  80.0126213  75.0030879
  84.9324047  80.1426213  75.9830879  86.9564047  80.3596213  75.0290879
  87.5807980  80.1386177  74.2665987  87.5044047  81.0406213  76.1960879
  87.3273475  80.4314316  77.0824501  89.0114047  81.2776213  76.0580879
  89.5420520  80.3357200  75.9190388  89.1977377  81.9285605  75.2038876
  89.6314047  81.9486213  77.2540879  89.3104047  81.5386213  78.5380879
  88.6002954  80.7225823  78.6719725  89.8784047  82.1506213  79.6430879
  89.6095823  81.8234166  80.6474645  90.7864047  83.1766213  79.4710879
  91.2379028  83.6614490  80.3366464  91.1224047  83.5886213  78.1940879
  91.8392592  84.3977276  78.0542062  90.5494047  82.9746213  77.0950879
  90.8184740  83.2964946  76.0890565  86.7624047  82.3606213  76.3520879
  86.5184047  82.8186213  77.4720879  86.3794047  82.9526213  75.2210879
  86.6471435  82.5536108  74.3327153  85.6484047  84.2176213  75.2200879
  85.6495452  84.6479845  76.2215296  86.3074047  85.2086213  74.2620879
  87.3825365  85.0315852  74.2912271  85.9346598  85.0132858  73.2566003
  86.0234047  86.6466213  74.6340879  85.2524047  86.8516213  75.5940879
  86.5584047  87.5616213  73.9690879  84.1664047  84.0066213  74.8680879
  83.6634047  84.4996213  73.8590879  83.5024047  83.2526213  75.7370879
  84.0717579  82.7824158  76.4261765  82.0454047  82.9926213  75.7350879
  81.7517421  82.5493174  74.7835927  81.6684047  82.0256213  76.8630879
  81.8764552  82.5063333  77.8189802  80.6033414  81.8049144  76.7921759
  82.4084047  80.8186213  76.7700879  82.1544237  80.2316077  77.4859850
  81.1754047  84.2466213  75.8450879  80.1294047  84.3266213  75.2030879
  81.6074047  85.2186213  76.6460879  82.3855679  85.0463370  77.2664745
  80.9054047  86.5046213  76.7500879  79.8325676  86.3280126  76.8270884
  81.3644047  87.2876213  77.9900879  82.4437495  87.1624401  78.0763646
  81.1336385  88.3390679  77.8188950  80.7014047  86.8286213  79.2660879
  79.3454047  87.0696213  79.4940879  78.7700628  87.6016861  78.7364678
  78.7294047  86.6446213  80.6600879  77.6678212  86.8288744  80.8249909
  79.4744047  85.9776213  81.6200879  78.8764047  85.5656213  82.7780879
  77.9439088  85.7900437  82.8191435  80.8174047  85.7266213  81.4200879
  81.3982026  85.1972361  82.1754195  81.4254047  86.1516213  80.2520879
  82.4859566  85.9601030  80.0888381  80.9984047  87.3936213  75.4980879
  80.2904047  88.3906213  75.4120879  81.8634047  87.0486213  74.5430879
  82.5786429  86.3630820  74.7394793  81.8704047  87.7056213  73.2290879
  81.9435649  88.7738418  73.4331753  83.0844047  87.2816213  72.4230879
  83.0209840  86.2159439  72.2030664  83.1157862  87.8435721  71.4896390
  83.9896080  87.4803867  72.9968462  80.5974047  87.4726213  72.4060879
  80.2884047  88.2726213  71.5210879  79.8804047  86.3806213  72.6810879
  80.2301748  85.7143402  73.3547568  78.6034047  86.0936213  72.0170879
  78.7307457  86.1480590  70.9359219  78.1084047  84.6926213  72.3810879
  78.1901708  84.5145243  73.4533262  77.0669478  84.5932125  72.0751706
  78.8594047  83.5906213  71.7060879  78.7614047  83.3476213  70.3530879
  78.1967311  83.8859838  69.7116760  79.5164047  82.3106213  70.0400879
  79.5743743  81.9567642  69.0107562  80.1014047  81.8736213  71.1410879
  80.7400828  81.0937544  71.2043171  79.7024047  82.6526213  72.1990879
  80.0745887  82.4421589  73.2017274  77.5064047  87.0916213  72.3810879
  77.1834047  87.2366213  73.5570879  76.9204047  87.7306213  71.3650879
  77.2815786  87.6305499  70.4271975  75.8544047  88.7076213  71.5980879
  76.1891763  89.4184695  72.3535493  75.4754047  89.4886213  70.3180879
  74.7260626  90.2527538  70.5246967  76.3804067  89.9616417  69.9368752
  74.9284047  88.6396213  69.1990879  73.5944047  88.2616213  69.1760879
  72.9384944  88.5774833  69.9873294  73.0934047  87.4936213  68.1410879
  72.0458902  87.1922690  68.1419580  73.9214047  87.1086213  67.1060879
  73.5305245  86.5030206  66.2884325  75.2484047  87.4926213  67.1080879
  75.9054141  87.1898742  66.2927456  75.7424047  88.2606213  68.1440879
  76.7855442  88.5767419  68.1388301  74.6274047  88.0806213  72.2670879
  73.9504047  88.7566213  73.0390879  74.3634047  86.8066213  71.9730879
  74.9628167  86.3319580  71.3131641  73.2494047  86.0616213  72.5580879
  72.3326263  86.5362144  72.2082624  73.3056499  85.0467748  72.1643589
  73.2274047  86.0026213  74.0720879  72.1534047  86.0326213  74.6680879
  74.4084047  85.9336213  74.6900879  75.2531143  85.8958295  74.1376960
  74.5294047  85.8746213  76.1500879  73.8486058  85.1401999  76.5804799
  75.9834047  85.5656213  76.6100879  76.6509166  86.3154968  76.1855706
  76.0944047  85.5896213  78.1340879  75.4274757  84.8396398  78.5593338
  77.1210016  85.3704539  78.4276270  75.8140186  86.5759115  78.5038370
  76.4934047  84.2216213  76.0390879  76.5887184  84.3615541  74.9623173
  77.4801075  84.0582163  76.4724653  75.6144047  83.0176213  76.3160879
  74.6276065  83.1801039  75.8825806  76.0638149  82.1292273  75.8723697
  75.5189938  82.8767675  77.3927294  74.0804047  87.2056213  76.7580879
  73.3554047  87.2236213  77.7540879  74.5144047  88.3066213  76.1510879
  75.1811333  88.2276359  75.3965459  74.1354047  89.6476213  76.6060879
  74.2012346  89.7034880  77.6926626  75.0734047  90.6956213  76.0050879
  75.0704486  90.5586530  74.9237322  74.7904016  91.7213130  76.2416585
  76.4884047  90.5286213  76.4530879  76.9684047  91.0876213  77.6170879
  76.4274964  91.6682186  78.2419276  78.2324047  90.7436213  77.7770879
  78.7975791  91.0955616  78.6401145  78.5864047  89.9726213  76.7660879
  79.4979932  89.5623104  76.6220347  77.5104047  89.8126213  75.9300879
  77.6005411  89.1922282  75.0384102  72.6804047  89.9566213  76.2960879
  71.9954047  90.5746213  77.1000879  72.2164047  89.5026213  75.1350879
  72.8724982  89.1626280  74.4465785  70.7894047  89.5176213  74.7890879
  70.4417721  90.5468182  74.6996206  70.5544047  88.8046213  73.4560879
  71.3256440  89.1499169  72.7675677  70.6809332  87.7371906  73.6368702
  69.1824047  89.0566213  72.8480879  68.4372096  88.8122439  73.6050983
  69.1120830  90.1152584  72.5982050  68.9304047  88.2266213  71.6050879
  69.8944047  87.9316213  70.8520879  67.7564047  87.8716213  71.3760879
  69.9424047  88.8586213  75.8870879  68.9514047  89.4306213  76.3380879
  70.3484047  87.6676213  76.3210879  71.1248653  87.2022856  75.8731247
  69.6464047  86.9666213  77.3960879  68.5959693  86.8534543  77.1279875
  70.2434047  85.5736213  77.6390879  70.3905402  85.1015032  76.6677204
  71.2086162  85.7067894  78.1276912  69.3524047  84.6866213  78.5060879
  69.1062842  85.2484815  79.4071088  68.4432553  84.5023902  77.9337196
  69.9834047  83.3616213  78.8930879  69.3494047  82.6266213  79.6760879
  71.0924047  83.0416213  78.4200879  69.6544047  87.7766213  78.6980879
  68.6284047  87.8906213  79.3660879  70.8114047  88.3346213  79.0430879
  71.6348059  88.1628983  78.4839627  70.9514047  89.1456213  80.2540879
  70.5676147  88.5944802  81.1126028  72.4194047  89.4846213  80.5080879
  72.8469269  89.8147156  79.5613241  72.4457660  90.3060492  81.2240916
  73.2254047  88.3186213  81.0470879  72.6875820  87.8724926  81.8836385
  73.3477244  87.5771410  80.2575646  74.8464047  88.8586213  81.6070879
  75.6064047  89.3326213  80.0520879  75.0205145  90.1257758  79.5876124
  76.6194558  89.6902310  80.2363255  75.6415281  88.4701739  79.3864663
  70.1344047  90.4296213  80.2000879  69.4884047  90.7926213  81.1770879
  70.1724047  91.1086213  79.0560879  70.7901728  90.7974560  78.3201272
  69.4254047  92.3526213  78.8560879  69.5672393  93.0105433  79.7134798
  69.9154047  93.0756213  77.5980879  69.8909162  92.3047429  76.8278632
  69.2357737  93.8829103  77.3251665  71.3424047  93.6286213  77.7230879
  71.9319491  92.9272212  78.3134913  71.9964047  93.8186213  76.3570879
  71.4076385  94.5202985  75.7662391  73.0047711  94.2112817  76.4879153
  72.0445012  92.8601583  75.8402361  71.3564047  94.9296213  78.5220879
  70.9637203  94.7465890  79.5222867  72.3787841  95.3002837  78.5959185
  70.7367180  95.6720950  78.0192757  67.9084047  92.1306213  78.8030879
  67.1524047  92.9436213  79.3250879  67.4724047  91.0296213  78.1950879
  68.1144683  90.4792867  77.6428329  66.0454047  90.6496213  78.1950879
  65.4340144  91.5320571  78.0063870  65.7504047  89.6056213  77.1060879
  66.5084862  88.8248987  77.1684091  64.7688849  89.1749125  77.3040999
  65.7644047  90.2156213  75.7120879  65.0121825  91.0042490  75.6939535
  66.7512234  90.6518620  75.5572172  65.4744047  89.2136213  74.6060879
  66.2519230  88.4497707  74.5962574  64.5072208  88.7445361  74.7866807
  65.4484047  89.9286213  73.2610879  64.5781573  90.5848579  73.2722019
  66.3558337  90.5302340  73.2088000  65.3784047  89.0306213  72.0720879
  64.5374141  88.4733720  72.1201267  65.3654821  89.5877425  71.2297406
  66.1849230  88.4227459  72.0613685  65.5314047  90.1696213  79.5660879
  64.3184047  90.1186213  79.7830879  66.4414047  89.8086213  80.4710879
  67.3947135  89.6475030  80.1789532  66.0994047  89.5886213  81.8800879
  65.2129305  88.9586127  81.9532436  67.2584047  88.8906213  82.6050879
  67.5162632  88.0089360  82.0183687  68.1043319  89.5778894  82.6181145
  66.9244047  88.4726213  84.0260879  65.9444047  88.9456213  84.6430879
  67.6854047  87.6416213  84.5430879  65.7794047  90.9526213  82.5040879
  66.6694047  91.6486213  82.9870879  64.4984047  91.3176213  82.4770879
  63.8143274  90.6948628  82.0717370  64.0514047  92.6416213  82.9340879
  64.7297408  93.4053711  82.5537650  62.6364047  92.9506213  82.4340879
  61.9892188  92.1283064  82.7391252  62.3066594  93.8703192  82.9173308
  62.5654047  93.1176213  80.9280879  63.2694169  93.8979522  80.6390355
  62.8755908  92.1688146  80.4903098  61.1864047  93.4746213  80.4290879
  60.5544047  94.3946213  80.9910879  60.7384047  92.8396213  79.4560879
  64.1164047  92.8046213  84.4470879  64.4004047  93.8976213  84.9340879
  63.8604047  91.7216213  85.1770879  63.5387307  90.8802963  84.7201443
  63.9654047  91.7216213  86.6380879  63.3332316  92.4902678  87.0826538
  63.5754047  90.3496213  87.2420879  64.1255657  89.5694759  86.7159744
  63.9024047  90.2866213  88.7290879  63.3522174  91.0662299  89.2559705
  63.6169127  89.3113772  89.1234148  64.9723227  90.4371305  88.8730464
  62.0914047  90.0666213  87.0150879  61.8828811  90.0540302  85.9452929
  61.8355065  89.0986827  87.4460295  61.4954995  90.8449491  87.4917467
  65.3914047  92.1096213  87.0340879  65.5894047  92.9686213  87.8900879
  66.3704047  91.4946213  86.3770879  66.1387499  90.7506212  85.7345154
  67.7804047  91.8226213  86.5780879  68.0414072  91.7305909  87.6323684
  68.6534047  90.8606213  85.7730879  68.3407984  89.8539017  86.0503824
  68.4201259  91.0366455  84.7229943  70.1524047  91.0036213  85.9900879
  70.4005737  92.0595683  86.0972742  70.4363749  90.4702813  86.8972877
  70.9074047  90.4236213  84.8040879  71.9358781  90.2013675  85.0885957
  70.4203281  89.5106254  84.4616054  70.9234047  91.3906213  83.7000879
  70.0223633  91.5905004  83.2898782  71.9944047  92.0266213  83.2240879
  73.2154047  91.7916213  83.7050879  73.3415478  91.1180722  84.4470580
  74.0086625  92.2882186  83.3253080  71.8464047  92.8996213  82.2260879
  70.9285430  93.0708893  81.8409941  72.6529048  93.3852307  81.8602467
  68.1084047  93.2646213  86.1770879  68.6034047  94.0406213  86.9920879
  67.8274047  93.6076213  84.9230879  67.3504250  92.9525465  84.3202059
  68.2794047  94.8746213  84.3500879  69.3232486  95.0541492  84.6074959
  68.1424047  94.8806213  82.8120879  67.0842575  94.8243744  82.5566257
  68.7504047  96.1596213  82.2030879  69.8087192  96.2163293  82.4577528
  68.6388897  96.1350235  81.1190868  68.2341216  97.0331526  82.6012025
  68.8044047  93.7276213  82.2690879  68.7196162  93.7307175  81.3128444
  67.5704047  96.0966213  84.9430879  68.2274047  97.1006213  85.2190879
  66.2524047  96.0116213  85.1380879  65.7466700  95.1961833  84.8228221
  65.4854047  97.1296213  85.7140879  65.8219716  98.0599223  85.2565269
  63.9724047  96.9856213  85.4790879  63.7623432  95.9788789  85.8402571
  63.4755930  97.7125945  86.1215737  63.4514047  97.1326213  84.0420879
  64.0285927  96.4829753  83.3841252  61.9804047  96.7446213  83.9750879
  61.4024730  97.3941764  84.6324857  61.6218444  96.8527650  82.9514473
  61.8624661  95.7087987  84.2933055  63.6434047  98.5456213  83.5090879
  64.7044241  98.7952503  83.5138482  63.2612449  98.6051487  82.4900140
  63.1022138  99.2496156  84.1412297  65.7564047  97.3336213  87.2030879
  65.6864047  98.4676213  87.6720879  66.0584047  96.2676213  87.9460879
  65.9756927  95.3326328  87.5731876  66.4454047  96.4236213  89.3510879
  65.6820086  97.0211349  89.8493880  66.5834047  95.0766213  90.0970879
  67.3694103  94.4905995  89.6207750  66.9364047  95.3016213  91.5700879
  66.1505787  95.8872198  92.0472163  67.0280165  94.3391386  92.0734103
  67.8822422  95.8388909  91.6396111  65.3464047  94.3626213  90.0350879
  65.4356644  93.5269921  90.4991535  67.7534047  97.2126213  89.4370879
  67.8494047  98.1646213  90.2140879  68.7444047  96.8296213  88.6310879
  68.6874576  95.9514181  88.1354918  69.9884047  97.6096213  88.5280879
  70.4409095  97.6902225  89.5164411  71.0014047  96.9536213  87.5760879
  70.4272676  96.4768158  86.7816558  71.6235758  97.7414357  87.1514097
  71.8804047  95.9256213  88.2480879  71.4694047  94.6006213  88.3720879
  70.4996297  94.3143327  87.9650564  72.2664047  93.6526213  88.9980879
  71.9333655  92.6183465  89.0844734  73.4954047  94.0296213  89.5130879
  74.2784047  93.0906213  90.1340879  73.8763386  92.2190475  90.1514563
  73.9274047  95.3416213  89.4040879  74.8947796  95.6384259  89.8092956
  73.1214047  96.2796213  88.7750879  73.4554117  97.3133984  88.6865203
  69.7274047  99.0696213  88.1200879  70.3134047  99.9796213  88.7050879
  68.8404047  99.2886213  87.1470879  68.4293669  98.5148354  86.6446911
  68.5104047 100.6516213  86.7160879  69.4351538 101.1989181  86.5333189
  67.6704047 100.6656213  85.4320879  68.0935103  99.9277626  84.7504388
  66.6540742 100.3740765  85.6969917  67.6464047 102.0346213  84.7500879
  67.3059345 102.7668372  85.4822359  68.6650177 102.2737026  84.4445231
  66.7314047 102.0696213  83.5350879  66.8829480 103.0094627  83.0042096
  66.9828064 101.2371137  82.8779518  65.3204047 101.9636213  83.9070879
  65.1203660 101.9378849  84.8967452  64.3004047 101.9066213  83.0500879
  64.4964047 101.9456213  81.7300879  65.4347708 102.0198711  81.3639512
  63.7054218 101.9006996  81.1036474  63.0634047 101.8016213  83.5210879
  62.9073421 101.7660986  84.5183254  62.2842240 101.7577560  82.8799546
  67.7984047 101.4476213  87.8180879  68.1524047 102.5976213  88.0610879
  66.8104047 100.8316213  88.4720879  66.5154455  99.9172065  88.1607295
  66.0854047 101.4556213  89.5960879  65.6236313 102.3834761  89.2585233
  64.9834047 100.5256213  90.1360879  65.4143144  99.5373100  90.2962655
  64.6327620 100.9269850  91.0869070  63.7904047 100.3906213  89.1940879
  63.6474047 101.1326213  88.2240879  62.9264047  99.4306213  89.4830879
  62.1159785  99.2914575  88.8966217  63.0814721  98.8416065  90.2887656
  67.0104047 101.8546213  90.7490879  66.8294047 102.9186213  91.3410879
  68.0024047 101.0176213  91.0540879  68.0779649 100.1321950  90.5740772
  68.9514047 101.3056213  92.1370879  68.4017834 101.4702964  93.0638552
  69.9314047 100.1446213  92.3480879  70.4120516 100.2700752  93.3183143
  69.3683790  99.2113271  92.3400839  70.9174047 100.1086213  91.3350879
  71.5135849  99.3733316  91.4948321  69.7304047 102.6046213  91.9130879
  70.1334047 103.2506213  92.8800879  69.9314047 102.9826213  90.6510879
  69.6699947 102.3572567  89.9023001  70.5774047 104.2476213  90.3040879
  71.1947637 104.5883743  91.1352645  71.4684047 104.0706213  89.0740879
  70.8120869 103.9698365  88.2096872  72.0653916 104.9769412  88.9726435
  72.3904047 102.8626213  89.1540879  72.9759447 102.9563016  90.0686740
  71.7625809 101.9736520  89.2146925  73.5044047 102.7046213  87.7530879
  73.4814047 100.9306213  87.5300879  72.4625863 100.6031035  87.3231095
  74.1262570 100.6606420  86.6938000  73.8413316 100.4451798  88.4372265
  69.5414047 105.3506213  90.0610879  69.6194047 106.4176213  90.6700879
  68.5684047 105.0786213  89.1930879  68.5401939 104.1636095  88.7664067
  67.5744047 106.0816213  88.7640879  68.0869612 106.9786651  88.4166725
  66.7044047 105.5376213  87.6180879  66.4332068 104.4967527  87.7945630
  65.7999980 106.1430852  87.5584052  67.3524047 105.5906213  86.2500879
  68.7364047 105.4946213  86.0750879  69.3773908 105.3856729  86.9499405
  69.2954047 105.5366213  84.8070879  70.3773160 105.4756700  84.6893861
  68.4834047 105.6556213  83.6920879  68.9212477 105.6840551  82.6942979
  67.1104047 105.7386213  83.8480879  66.4667398 105.8314268  82.9733406
  66.5534047 105.7036213  85.1190879  65.4721257 105.7651881  85.2421530
  66.6614047 106.5876213  89.8870879  66.2334047 107.7376213  89.8450879
  66.3574047 105.7366213  90.8710879  66.6161757 104.7643792  90.7823059
  65.5774047 106.1476213  92.0540879  64.9513353 107.0021013  91.7971830
  64.6714047 105.0046213  92.5480879  65.2569046 104.1584557  92.9076612
  64.0500544 105.3863124  93.3582334  63.7364047 104.4676213  91.5070879
  63.3034047 105.2166213  90.4310879  62.4844047 104.4896213  89.6910879
  62.0431026 104.9001310  88.7828846  62.3564047 103.3026213  90.2570879
  61.7894882 102.5398162  89.9152780  63.1234047 103.2656213  91.3970879
  63.1433456 102.3655562  92.0115686  66.4504047 106.6506213  93.2170879
  65.9294047 106.9266213  94.2950879  67.7644047 106.7656213  93.0020879
  68.1355156 106.4665041  92.1116358  68.7034047 107.2676213  94.0150879
  68.1687309 107.8748487  94.7454973  69.3784047 106.0996213  94.7480879
  69.9844343 105.5395740  94.0359261  70.0203965 106.5079097  95.5286308
  68.3814047 105.1516213  95.3870879  67.8484047 105.4236213  96.4640879
  68.1214047 104.0366213  94.7220879  67.4652555 103.3682090  95.0999676
  68.5804192 103.8596321  93.8399987  69.7544047 108.1586213  93.3490879
  70.9594047 107.9596213  93.5230879  69.2824047 109.1456213  92.5880879
  68.2836560 109.2504350  92.4803180  70.1624047 110.0376213  91.8230879
  70.8303997 109.4429180  91.2000230  69.3494047 110.9726213  90.9170879
  68.5596866 111.4086086  91.5289372  70.0228136 111.7601212  90.5787619
  68.7314047 110.2796213  89.7090879  69.5213808 109.7319618  89.1951738
  67.9803655 109.5779104  90.0719157  68.0824047 111.2626213  88.7410879
  67.0443200 111.4201863  89.0337519  68.6185720 112.2107879  88.7811395
  68.1114047 110.7636213  87.3600879  68.8690596 111.1100416  86.7890788
  67.2384047 109.9106213  86.8130879  66.2114047 109.4206213  87.5060879
  66.0799151 109.6939231  88.4694760  65.5690630 108.7781089  87.0648684
  67.3944047 109.5376213  85.5440879  68.1681981 109.9003562  85.0057875
  66.7381969 108.8937377  85.1258727  71.1004047 110.8556213  92.7070879
  72.2024047 111.1936213  92.2820879  70.6574047 111.1806213  93.9210879
  69.6850810 111.0276694  94.1475646  71.5034047 111.8766213  94.9070879
  71.8851258 112.7980999  94.4674683  70.7104047 112.2306213  96.1840879
  71.3122032 112.8447432  96.8540073  69.8113356 112.7775251  95.9000614
  70.2564047 111.0426213  96.9820879  69.1614047 110.2776213  96.6300879
  68.9994047 109.3096213  97.5150879  68.1872062 108.5906452  97.4078219
  69.9424047 109.4216213  98.4340879  70.0675002 108.8187469  99.2347086
  70.7384047 110.5016213  98.1270879  71.5743728 110.7642945  98.7753636
  72.7924047 111.1176213  95.2620879  73.8194047 111.7436213  95.5190879
  72.7384047 109.7846213  95.2660879  71.8518295 109.3187634  95.1354731
  73.9264047 108.9606213  95.5270879  74.4468631 109.3408815  96.4060785
  73.5394047 107.4976213  95.7810879  72.9982303 107.2224514  94.8758194
  74.4591633 106.9161750  95.8448418  72.6674047 107.2076213  97.0040879
  71.7569311 107.8037179  96.9423836  72.3044047 105.7326213  97.0540879
  73.2144129 105.1358657  97.1162715  71.6837836 105.5401127  97.9292283
  71.7543099 105.4625340  96.1526729  73.3594047 107.6296213  98.2940879
  73.5657691 108.6994596  98.2631186  72.7121875 107.4093856  99.1430328
  74.2960595 107.0823720  98.4003663  74.9624047 109.0146213  94.4040879
  76.1584047 108.9406213  94.6810879  74.5064047 109.1436213  93.1550879
  73.5085314 109.1884256  93.0056198  75.3884047 109.0996213  91.9750879
  76.3329330 108.6194665  92.2308552  74.7184047 108.2966213  90.8530879
  73.6786411 108.6121685  90.7669444  75.2207938 108.4375152  89.8960852
  74.6984047 106.8186213  91.1140879  73.7474047 106.2646213  91.9640879
  73.0027288 106.9146482  92.4234598  73.7384047 104.9036213  92.2300879
  72.9855048 104.4799400  92.8947205  74.6904047 104.0816213  91.6480879
  74.6867897 103.0113850  91.8546819  75.6484047 104.6216213  90.8020879
  76.3964884 103.9764283  90.3414394  75.6534047 105.9826213  90.5430879
  76.4109041 106.4095392  89.8857937  75.8574047 110.4616213  91.4540879
  76.8524047 110.5246213  90.7310879  75.1484047 111.5296213  91.8280879
  74.3335975 111.3658923  92.4020055  75.4454047 112.9106213  91.4160879
  75.2349373 113.0485813  90.3555363  74.5564047 113.8706213  92.2220879
  73.5307560 113.5813720  91.9930055  74.7685852 113.6559596  93.2694655
  74.7334047 115.3656213  91.9630879  74.1918451 115.9068607  92.7388932
  75.7965370 115.5950052  92.0354399  74.2164047 115.7866213  90.5970879
  74.9077244 115.4329510  89.8321739  73.2361860 115.3380855  90.4355754
  74.1004047 117.3026213  90.5140879  73.2746246 117.6151318  91.1532474
  75.0298504 117.7347445  90.8848971  73.8554047 117.7726213  89.1210879
  72.9939830 117.3726611  88.7774541  73.7855287 118.7801698  89.1131331
  74.6206853 117.4835134  88.5287523  76.9224047 113.2916213  91.5930879
  77.4284047 113.3196213  92.7150879  77.5944047 113.5806213  90.4740879
  77.1342629 113.3955153  89.5942557  79.0024047 114.0206213  90.4480879
  79.3561461 114.0566064  89.4177136  79.1494047 115.4276213  91.0700879
  78.7913479 115.3554946  92.0970700  80.2047058 115.7004504  91.0721019
  78.3504047 116.4936213  90.3270879  78.3204047 116.4716213  89.0760879
  77.7664047 117.3756213  90.9980879  80.0054047 113.0316213  91.0870879
  81.0404047 113.4426213  91.6110879  79.7014047 111.7376213  91.0210879
  78.8361873 111.4584169  90.5811527  80.5684047 110.6936213  91.5730879
  81.2943287 111.1395386  92.2530080  79.7464047 109.6636213  92.3440879
  79.0786084 109.1963862  91.6203209  80.4521769 108.9219338  92.7181005
  78.9334047 110.2146213  93.4990879  78.2882077 111.0002364  93.1058570
  78.3197976 109.4030021  93.8900645  79.7964047 110.7796213  94.6150879
  80.4863912 110.0074487  94.9553338  80.3623980 111.6281487  94.2307023
  78.9294047 111.2346213  95.7810879  78.4418382 112.1662936  95.4940930
  78.1738336 110.4689746  95.9571461  79.7154047 111.4496213  97.0240879
  80.4153098 112.1593596  96.8612869  79.0980640 111.7492745  97.7651671
  80.1669312 110.5863234  97.2904328  81.3304047 109.9736213  90.4710879
  80.9294047 109.9956213  89.3030879  82.4274047 109.3346213  90.8650879
  82.7480515 109.4600186  91.8145933  83.2014047 108.4756213  89.9840879
  83.0292515 108.7096661  88.9335235  84.7094047 108.5906213  90.2730879
  84.8950533 108.2979557  91.3065194  85.5064047 107.6836213  89.3360879
  85.3216157 107.9759949  88.3024189  86.5698952 107.7784734  89.5553858
  85.1969244 106.6486079  89.4812463  85.1574047 110.0426213  90.1450879
  84.6085226 110.6570127  90.8587780  86.2253649 110.1134212  90.3513600
  84.9590050 110.3967838  89.1335014  82.7324047 107.0376213  90.2010879
  82.8024047 106.5306213  91.3270879  82.2624047 106.3956213  89.1260879
  82.2943288 106.8671553  88.2334873  81.6764047 105.0476213  89.1820879
  81.6366756 104.6592109  90.1997608  80.2444047 105.0326213  88.5900879
  80.2973490 105.3212439  87.5403293  79.6174047 103.6456213  88.7050879
  79.5636959 103.3564852  89.7546672  78.6130361 103.6641323  88.2820023
  80.2271289 102.9244279  88.1608287  79.3714047 106.0756213  89.2710879
  79.8037761 107.0651178  89.1225832  78.3701479 106.0489326  88.8411203
  79.3138212 105.8612797  90.3382536  82.5444047 104.0476213  88.4100879
  83.0374047 104.3726213  87.3330879  82.7224047 102.8456213  88.9680879
  82.3704609 102.6939631  89.9025582  83.4314047 101.7446213  88.3040879
  83.7945107 102.0757917  87.3311648  84.6284047 101.2856213  89.1430879
  85.3185541 102.1225778  89.0368018  84.3031287 101.2131272  90.1808934
  85.3384047  99.9796213  88.7350879  84.6131500  99.1663441  88.7612913
  85.9294047 100.0876213  87.3350879  86.6551416 100.9004453  87.3082190
  86.4234882  99.1513548  87.0754970  85.1330307 100.2884458  86.6184581
  86.4104047  99.6046213  89.7480879  85.9523505  99.4628754  90.7269617
  86.8967036  98.6798034  89.4377228  87.1510624 100.4022129  89.8061640
  82.4834047 100.5636213  88.0730879  81.9804047  99.9816213  89.0320879
  82.2564047 100.2166213  86.8060879  82.6326294 100.8030978  86.0749247
  81.4654047  99.0406213  86.4180879  80.7681885  98.7768187  87.2133218
  80.6654047  99.3526213  85.1490879  80.0597258 100.2321911  85.3672833
  81.3785689  99.5899287  84.3596691  79.7494047  98.1996213  84.6850879
  79.6554047  97.1236213  85.3370879  79.1164047  98.3946213  83.6200879
  82.4224047  97.8716213  86.1870879  83.1334047  97.8366213  85.1810879
  82.4394047  96.9266213  87.1270879  81.8461086  97.0312967  87.9377309
  83.3004047  95.7456213  87.0450879  84.2633192  95.9717627  86.5870977
  83.5504047  95.1306213  88.4460879  82.5857863  94.9365415  88.9150694
  84.3404047  93.8306213  88.3530879  85.3054038  94.0239979  87.8845975
  84.4971057  93.4277042  89.3536893  83.7845139  93.1090816  87.7543663
  84.2654047  96.1276213  89.3430879  83.6529846  97.0225874  89.4529942
  84.4333725  95.6803627  90.3228053  85.2233794  96.3959747  88.8976984
  82.6194047  94.7256213  86.1430879  81.5614047  94.2056213  86.4930879
  83.2294047  94.4436213  84.9920879  84.1121596  94.8863715  84.7803915
  82.6684047  93.5106213  84.0130879  83.4538706  93.2039921  83.3223483
  82.2826383  92.6352240  84.5355468  81.5404047  94.1526213  83.2250879
  80.3884047  93.7166213  83.3080879  81.8814047  95.1806213  82.4470879
  82.8619110  95.3842700  82.3158097  80.8914047  96.1116213  81.8750879
  80.0872699  96.2860519  82.5899588  81.5574047  97.4546213  81.5490879
  80.8809510  98.0356610  80.9222685  81.7373366  97.9894954  82.4816297
  82.7854047  97.2656213  80.8690879  83.1799300  98.1196246  80.6777036
  80.0984047  95.6146213  80.6570879  79.0384047  96.1686213  80.3550879
  80.6104047  94.5996213  79.9620879  81.5395062  94.2722730  80.1850519
  79.8784047  93.9316213  78.8790879  80.4959475  93.1091517  78.5181391
  78.9538938  93.5343937  79.2981215  79.5404047  94.8446213  77.7130879
  80.4334047  95.4246213  77.0910879  78.2424047  94.9786213  77.4340879
  77.5720463  94.4138463  77.9358330  77.7474047  95.8926213  76.4070879
  78.3493149  95.8089621  75.5022098  76.2764047  95.6006213  76.0490879
  75.9274603  96.3628889  75.3524631  76.1344047  94.2326213  75.4130879
  76.4827436  93.4697416  76.1093452  75.0874222  94.0512224  75.1701451
  76.7307595  94.1914460  74.5016242  75.4694047  95.6706213  77.2270879
  74.5547381  95.4882471  76.9996566  77.8344047  97.3626213  76.8120879
  77.6434047  98.2436213  75.9690879  78.0964047  97.6246213  78.0920879
  78.2455357  96.8508771  78.7238942  78.1784047  98.9786213  78.6260879
  78.9507619  98.9933702  79.3950781  78.4629248  99.6467715  77.8132392
  76.8714047  99.4626213  79.2290879  76.7764047 100.6256213  79.5920879
  75.8744047  98.5796213  79.3480879  76.0194885  97.6349867  79.0214145
  74.5244047  98.9616213  79.8080879  74.1263998  99.7683458  79.1925501
  73.5334047  97.7556213  79.7890879  73.5177148  97.3452534  78.7794085
  73.9374047  96.6616213  80.7770879  73.9528683  97.0711461  81.7871131
  73.2186056  95.8436739  80.7281935  74.9292573  96.2887642  80.5215390
  72.0844047  98.1956213  80.0900879  71.4653335  97.3022951  80.0075057
  72.0753172  98.5493022  81.1210713  71.5364047  99.2736213  79.1830879
  71.5447459  98.9204732  78.1519154  70.5140289  99.5113349  79.4769231
  72.1547314 100.1674801  79.2654794  74.4974047  99.6516213  81.1770879
  73.8584047 100.6936213  81.3210879  75.1994047  99.0876213  82.1610879
  75.7138854  98.2362640  81.9861602  75.1964047  99.6306213  83.5230879
  74.1767520  99.8929375  83.8052186  75.7364047  98.6126213  84.5310879
  76.7698812  98.4851831  84.2089308  75.7179002  99.0939226  85.5088950
  75.0574047  97.2406213  84.6240879  75.1482167  96.7297875  83.6654937
  75.7214047  96.4006213  85.7130879  75.6305859  96.9106260  86.6721218
  75.2323475  95.4282476  85.7715104  76.7758613  96.2626194  85.4739705
  73.5614047  97.3646213  84.8910879  73.0923611  97.9234401  84.0812614
  73.1186352  96.3703310  84.9497678  73.4022074  97.8888669  85.8333839
  76.0044047 100.9266213  83.6050879  75.6704047 101.8056213  84.4010879
  77.0604047 101.0336213  82.7930879  77.3633274 100.2255293  82.2683740
  77.8234047 102.2766213  82.6560879  78.2178503 102.5652527  83.6303588
  78.9994047 102.1146213  81.6780879  78.6356790 101.7143862  80.7317186
  79.4682244 103.0834891  81.5060315  80.3204047 101.0076213  82.2150879
  81.0777461 101.1594346  81.1323668  76.9484047 103.4246213  82.1690879
  77.0604047 104.5466213  82.6620879  76.0944047 103.1366213  81.1880879
  76.1091466 102.2203211  80.7634987  75.1994047 104.1496213  80.6230879
  75.7476834 105.0787012  80.4672024  74.6344047 103.6826213  79.2770879
  74.1913451 102.6976416  79.4240998  73.8594318 104.3879219  78.9769746
  75.6964047 103.6036213  78.1900879  76.2263361 104.5559606  78.1721042
  76.3903036 102.8073266  78.4593855  75.0204047 103.2716213  76.5550879
  74.3744047 101.6146213  76.8020879  73.6245171 101.6305946  77.5929814
  73.9190031 101.2600587  75.8774283  75.1869785 100.9458819  77.0860116
  74.0714047 104.5526213  81.5820879  73.6584047 105.7136213  81.5830879
  73.5804047 103.5996213  82.3810879  73.8404460 102.6361428  82.2255659
  72.6364047 103.8996213  83.4650879  71.7655759 104.4069089  83.0498583
  72.1644047 102.6206213  84.1860879  73.0563151 102.0256896  84.3826876
  71.6653458 102.8484223  85.1279726  71.2154047 101.7336213  83.3940879
  70.4274047 102.2116213  82.3380879  70.5027454 103.2601127  82.0498355
  69.5564047 101.3646213  81.6600879  68.9642446 101.7481892  80.8292313
  69.4404047 100.0346213  82.0390879  68.7577750  99.3710061  81.5083041
  70.1944047  99.5516213  83.0940879  70.1046790  98.5077600  83.3947590
  71.0644047 100.3956213  83.7690879  71.6467425 100.0187789  84.6099045
  73.2724047 104.8466213  84.4930879  72.6764047 105.8666213  84.8550879
  74.4814047 104.5106213  84.9440879  74.8831004 103.6286439  84.6597362
  75.2214047 105.3336213  85.9060879  74.6083940 105.4020032  86.8047764
  76.5364047 104.6606213  86.2650879  77.1649076 104.5931081  85.3770979
  77.0485108 105.2465134  87.0283559  76.3400014 103.6590104  86.6475805
  75.4764047 106.7686213  85.4090879  75.3714047 107.7256213  86.1820879
  75.8024047 106.9096213  84.1250879  75.9830130 106.0914230  83.5611450
  75.9744047 108.2296213  83.5100879  76.6622033 108.8057450  84.1290498
  76.5684047 108.0986213  82.1160879  75.8867729 107.5317756  81.4819238
  76.7197429 109.0905725  81.6903770  77.5250027 107.5794983  82.1755088
  74.6544047 108.9986213  83.4500879  74.6254047 110.2036213  83.7190879
  73.5744047 108.3026213  83.0960879  73.6774715 107.3545663  82.7634194
  72.2294047 108.8996213  83.0960879  72.2506380 109.8421134  82.5489527
  71.2094047 107.9686213  82.4290879  71.3586381 106.9750790  82.8518201
  70.2184784 108.3330550  82.6999258  71.3264047 107.8976213  80.9160879
  72.3778746 107.7739824  80.6568094  70.7624403 107.0327784  80.5666698
  70.7874047 109.1526213  80.2560879  69.7477937 109.2824686  80.5568329
  71.3739504 110.0041282  80.6010510  70.8684047 109.0626213  78.7460879
  71.8346773 108.6422422  78.4673418  70.0719602 108.4110710  78.3865640
  70.7194047 110.4126213  78.1340879  71.4575648 111.0163952  78.4667686
  70.7757166 110.3345417  77.1286862  69.8239195 110.8021523  78.3919075
  71.7464047 109.2736213  84.5020879  71.0024047 110.2346213  84.6670879
  72.1854047 108.5126213  85.5010879  72.6945512 107.6674275  85.2854107
  71.8794047 108.7986213  86.9000879  70.8149467 109.0311961  86.9307039
  72.1314047 107.5606213  87.7490879  73.1945343 107.3204636  87.7356752
  71.8156479 107.7522634  88.7745981  71.5647448 106.7213550  87.3458164
  72.6364047 110.0036213  87.4880879  72.3794047 110.3696213  88.6360879
  73.5624047 110.5986213  86.7260879  73.8309737 110.1522853  85.8607820
  74.2094047 111.8706213  87.0850879  74.0765781 112.5293670  86.2268861
  73.6507739 112.2640499  87.9343493  75.6894047 111.8186213  87.4460879
  76.2244047 112.7946213  87.9740879  76.3564047 110.7036213  87.1480879
  75.8657950 109.9358038  86.7123612  77.7664047 110.5186213  87.4950879
  77.8915539 110.8012420  88.5403450  78.1594047 109.0566213  87.3360879
  78.0480593 108.7613164  86.2927772  79.1970558 108.9234338  87.6420972
  77.5149094 108.4367500  87.9593733  78.6944047 111.4106213  86.6620879
  78.4794047 111.5976213  85.4670879  79.7144047 111.9586213  87.3200879
  79.7692557 111.8196734  88.3189794  80.7464047 112.7766213  86.6740879
  80.2825908 113.5729619  86.0920077  81.6574047 113.4136213  87.7420879
  81.0099798 114.0018390  88.3924264  82.0922204 112.5914573  88.3104907
  82.7684047 114.2976213  87.2000879  83.4976815 113.6544164  86.7076005
  82.3296022 114.9755138  86.4679567  83.4614047 115.1086213  88.2930879
  83.7727870 116.0621541  87.8665727  82.7441203 115.2865034  89.0943122
  84.6444047 114.4356213  88.8590879  85.4691437 114.4656972  88.2768504
  84.7204047 113.8146213  90.0430879  83.6724047 113.7216213  90.8630879
  82.7875553 114.1280447  90.5948317  83.7685476 113.2452096  91.7484625
  85.8744047 113.2626213  90.4170879  86.6777683 113.3170998  89.8073838
  85.9402692 112.7923582  91.3084987  81.6014047 111.9516213  85.7130879
  82.0194047 112.4426213  84.6660879  81.8654047 110.7076213  86.0960879
  81.3580407 110.3228438  86.8800697  82.8464047 109.8646213  85.4280879
  82.8964518 110.1040319  84.3658840  84.2234047 110.1126213  86.0510879
  84.1492507 111.0676948  86.5711215  84.3713938 109.3141500  86.7781662
  85.4014047 110.1486213  85.0920879  85.5324372 109.1630111  84.6454294
  85.2048756 110.8792972  84.3074918  86.6764047 110.5406213  85.8470879
  86.3699519 111.1090327  86.7252076  87.1611491 109.6171057  86.1636969
  87.6534047 111.3696213  85.0210879  87.0753303 111.9980197  84.3435586
  88.2232079 112.0002583  85.7035251  88.5934047 110.5156213  84.2290879
  88.0656351 109.9314893  83.5963567  89.2194013 111.1055590  83.6997470
  89.1294604 109.9335620  84.8567426  82.4294047 108.4146213  85.6400879
  82.0674047 108.0296213  86.7550879  82.4524047 107.6296213  84.5680879
  82.6699363 108.0272855  83.6655124  82.1414047 106.2036213  84.6400879
  82.1616181 105.8511506  85.6713275  80.7554047 105.8756213  84.0320879
  80.7793073 106.0926263  82.9641756  80.4054047 104.4076213  84.2440879
  80.3808560 104.1899525  85.3118513  79.4278062 104.2001364  83.8089424
  81.1568642 103.7813069  83.7633171  79.6704047 106.7636213  84.6330879
  79.9020990 107.8091786  84.4300371  78.7072538 106.5125323  84.1887973
  79.6254759 106.6045764  85.7104861  83.2274047 105.4346213  83.8950879
  83.5654047 105.7796213  82.7640879  83.7734047 104.4046213  84.5380879
  83.4922222 104.2156619  85.4895763  84.7844047 103.5436213  83.9310879
  84.9398889 103.8238441  82.8892631  86.1284047 103.6146213  84.6890879
  85.9667562 103.3104268  85.7232232  87.1634047 102.6916213  84.0420879
  87.3259373 102.9955026  83.0079990  88.1026946 102.7566798  84.5912716
  86.7998487 101.6643050  84.0654858  86.6564047 105.0556213  84.7230879
  87.1304238 105.2507497  83.7611464  85.7962049 105.7140769  84.8438850
  87.6484047 105.3136213  85.8350879  88.5091538 104.6558102  85.7146904
  87.9771134 106.3521308  85.7957454  87.1749351 105.1191350  86.7974295
  84.2664047 102.1106213  83.9390879  83.8884047 101.5996213  84.9820879
  84.2384047 101.4816213  82.7690879  84.4749392 101.9959104  81.9326326
  83.8794047 100.0736213  82.6370879  83.4787973  99.7048996  83.5813639
  83.1300667  99.9557239  81.8543414  85.1044047  99.2636213  82.2720879
  85.8494047  99.6536213  81.3710879  85.3284047  98.1576213  82.9780879
  84.7664598  97.9752385  83.7972666  86.3794047  97.2026213  82.6320879
  86.9763620  97.6114158  81.8168406  87.2974047  96.8676213  83.8220879
  86.7026996  96.4093442  84.6122830  88.3994047  95.9006213  83.3880879
  88.9948620  96.3584142  82.5981785  89.0402067  95.6732203  84.2400048
  87.9498614  94.9798908  83.0162474  87.9294047  98.1396213  84.3990879
  88.6990838  98.4671681  83.7002260  87.1462367  98.8955480  84.4567255
  88.5454047  97.9426213  85.7750879  89.3290308  97.1871161  85.7181498
  88.9732451  98.8838187  86.1203404  87.7761835  97.6154936  86.4746492
  85.7264047  95.9186213  82.1230879  84.8284047  95.3666213  82.7680879
  86.1914047  95.4496213  80.9680879  86.9423135  95.9442870  80.5081519
  85.6514047  94.2566213  80.3230879  85.2586912  93.5672077  81.0704728
  84.5094047  94.6586213  79.3780879  83.7452241  95.1231180  80.0012812
  84.9230086  95.4019995  78.6966037  83.8884047  93.5246213  78.5750879
  83.0560396  93.9156568  77.9899722  84.6639385  93.1579160  77.9026492
  83.4014047  92.3906213  79.4480879  84.0194047  91.3096213  79.4080879
  82.4204047  92.6026213  80.1900879  86.7654047  93.5686213  79.5480879
  87.3924047  94.2076213  78.7110879  87.0064047  92.2826213  79.8240879
  86.4707080  91.8292714  80.5504502  88.0684047  91.5196213  79.1660879
  88.9150604  92.1729369  78.9552515  88.5464047  90.3726213  80.0670879
  89.2452739  89.7425181  79.5169506  89.0422443  90.7815837  80.9474247
  87.2544047  89.2666213  80.6870879  88.0692711  88.4745382  81.3780984
  87.6074047  90.9846213  77.8090879  88.3784047  90.9586213  76.8490879
  86.3474047  90.5516213  77.7440879  85.7843968  90.5576991  78.5825892
  85.7504047  90.0306213  76.5090879  86.3144838  89.1668350  76.1572538
  84.3044047  89.5986213  76.7670879  84.3146163  88.7759417  77.4820657
  83.7649538  90.4439380  77.1943260  83.6614047  89.1816213  75.5780879
  82.7597813  88.9188457  75.7771459  85.7554047  91.0376213  75.3570879
  85.6864047  92.2506213  75.5700879  85.7944047  90.5096213  74.1360879
  85.9259443  89.5132104  74.0362781  85.7454047  91.3276213  72.9240879
  86.4122732  92.1836912  73.0267033  86.1874047  90.5066213  71.7130879
  86.3679783  91.1784781  70.8739807  87.1079971  89.9771266  71.9585366
  85.1854047  89.5716213  71.3610879  85.4752954  89.0632015  70.6001198
  84.3684047  91.9656213  72.6530879  84.2444047  92.7656213  71.7240879
  83.3494047  91.6136213  73.4470879  83.4214507  90.7615996  73.9846451
  82.0824047  92.3696213  73.5000879  81.5969955  92.4275578  72.5258598
  81.0954047  91.7506213  74.5360879  81.0632928  90.6733002  74.3734582
  81.5204047  92.0356213  75.9760879  81.5522992  93.1128121  76.1396217
  80.8036271  91.5854493  76.6628744  82.5088506  91.6121694  76.1543082
  79.6534047  92.2226213  74.2990879  79.0881954  92.0090292  75.2062910
  79.6864523  93.3000600  74.1374303  78.9824047  91.5566213  73.1190879
  78.9485681  90.4791317  73.2802438  77.9674157  91.9397735  73.0137743
  79.5468269  91.7701609  72.2113829  82.3114047  93.8616213  73.7980879
  81.5354047  94.7106213  73.3660879  83.3814047  94.1596213  74.5360879
  83.8887693  93.3929465  74.9542868  83.8294047  95.5286213  74.8210879
  83.0770906  96.0585793  75.4052687  85.1304047  95.4836213  75.6250879
  85.0301564  94.7432009  76.4187044  85.9462037  95.1962880  74.9617542
  85.4074047  96.7436213  76.1910879  86.2256276  96.6969360  76.6910195
  84.0464047  96.4106213  73.5840879  83.8964047  97.6296213  73.6680879
  84.4204047  95.7946213  72.4610879  84.6504472  94.8116274  72.4911367
  84.5414047  96.4986213  71.1790879  85.2756042  97.2985156  71.2751057
  84.9934047  95.5476213  70.0530879  84.2392386  94.7664437  69.9577241
  85.0318937  96.1291546  69.1319812  86.3614047  94.9076213  70.3100879
  87.0874047  95.3396213  71.2350879  86.7044047  93.9566213  69.5720879
  83.2114047  97.1396213  70.7760879  83.1884047  98.2746213  70.3040879
  82.1154047  96.4076213  70.9720879  82.2072493  95.4442643  71.2612372
  80.7754047  96.9206213  70.6830879  80.7841049  97.4471221  69.7287188
  79.7554047  95.7776213  70.6030879  79.7276876  95.2075431  71.5317115
  78.7859135  96.2471329  70.4365179  80.0694047  94.8516213  69.4540879
  79.8114047  95.2346213  68.1370879  79.3523695  96.2059857  67.9531389
  80.1284047  94.4036213  67.0710879  79.9143758  94.7102530  66.0472371
  80.7254047  93.1806213  67.3160879  81.0434047  92.3496213  66.2630879
  80.8070305  92.7190102  65.4091097  81.0004047  92.7836213  68.6110879
  81.4652584  91.8163878  68.8020618  80.6824047  93.6216213  69.6700879
  80.9127390  93.3200434  70.6918986  80.3404047  97.9746213  71.6920879
  79.6954047  98.9486213  71.3180879  80.7054047  97.7846213  72.9600879
  81.1959368  96.9380388  73.2106388  80.3554047  98.7266213  74.0270879
  79.2678749  98.7951637  74.0531651  80.8414047  98.2116213  75.3700879
  81.9294124  98.1461746  75.3625958  80.5244439  98.8947738  76.1580845
  80.4197712  97.2236536  75.5551399  80.9004047 100.1286213  73.7790879
  80.2154047 101.1106213  74.0610879  82.1214047 100.2116213  73.2490879
  82.6701422  99.3722964  73.1285874  82.7374047 101.4996213  72.9120879
  82.7087968 102.1817921  73.7617489  84.2124047 101.3356213  72.4570879
  84.2517958 100.5678723  71.6843595  84.7784047 102.6446213  71.9040879
  84.7397705 103.4127827  72.6764456  85.8126053 102.4921953  71.5953873
  84.1867472 102.9630208  71.0457961  85.0784047 100.8456213  73.6130879
  84.7074387  99.8821500  73.9626725  86.1088959 100.7366400  73.2749893
  85.0386328 101.5674033  74.4289002  81.9074047 102.2166213  71.8420879
  81.6594047 103.4096213  71.9570879  81.4814047 101.4786213  70.8180879
  81.8267208 100.5350746  70.7152488  80.5774047 102.0056213  69.7870879
  80.9790345 102.9354337  69.3842956  80.4264047 101.0006213  68.6410879
  80.1466336 100.0466770  69.0880976  79.6132978 101.3574126  68.0089036
  81.6784047 100.8176213  67.8000879  81.8522291 101.7271764  67.2251136
  82.5250623 100.6402578  68.4632735  81.5234047  99.6406213  66.8510879
  81.6228149  98.7204629  67.4268701  80.5284185  99.6858406  66.4083046
  82.5684047  99.6636213  65.7500879  82.2585388 100.3750333  64.9845968
  83.5212028  99.9797096  66.1747799  82.7204047  98.3156213  65.1410879
  81.8377379  98.0227242  64.7471205  83.4187691  98.3522399  64.4123586
  83.0079439  97.6563465  65.8501556  79.1884047 102.3766213  70.3210879
  78.6054047 103.3656213  69.8820879  78.6644047 101.5716213  71.2450879
  79.1575554 100.7235315  71.4851827  77.3564047 101.8176213  71.8690879
  76.6174086 102.0286773  71.0961459  76.8884047 100.6006213  72.7140879
  77.7229623 100.2771196  73.3361496  75.6944047 100.9446213  73.6030879
  74.8592434 101.2677888  72.9816630  75.4014445 100.0644962  74.1754994
  75.9694823 101.7473474  74.2872387  76.5064047  99.4426213  71.7890879
  75.5060146  99.6568249  71.4130067  77.2153465  99.4538399  70.9612140
  76.5174047  98.0796213  72.4430879  75.8083171  98.0674879  73.2708242
  76.2341913  97.3227733  71.7116028  77.5176493  97.8645040  72.8190338
  77.3894047 103.0906213  72.7180879  76.4834047 103.9216213  72.6310879
  78.4314047 103.2286213  73.5340879  79.0800282 102.4617829  73.6406049
  78.6244047 104.4206213  74.3610879  77.7720926 104.6183763  75.0111311
  79.8984047 104.2906213  75.2390879  80.7007156 103.8971217  74.6149449
  80.3294047 105.6316213  75.8380879  79.5277267 106.0255501  76.4627745
  81.2243878 105.4887839  76.4436481  80.5434605 106.3368480  75.0350082
  79.6724047 103.2576213  76.3420879  79.4469090 102.2900262  75.8937427
  80.5718136 103.1740515  76.9521530  78.8370409 103.5708432  76.9683148
  78.6684047 105.6836213  73.4910879  77.9934047 106.6716213  73.7990879
  79.4444047 105.6336213  72.4050879  79.9976343 104.8068238  72.2306106
  79.5734047 106.7656213  71.4790879  79.7955524 107.6717057  72.0427905
  80.7004047 106.5296213  70.4670879  81.5661840 106.1653568  71.0201131
  80.3622215 105.7592945  69.7740303  81.0854047 107.7786213  69.6880879
  80.1886015 108.1804666  69.2165319  81.4864459 108.5113060  70.3884030
  82.1204047 107.4766213  68.6270879  82.9900731 107.0223343  69.1018501
  81.6939771 106.7782544  67.9069889  82.5424047 108.7506213  67.9090879
  81.6612000 109.3698130  67.7412178  83.2514791 109.2910668  68.5361695
  83.1794047 108.4306213  66.6030879  82.5223811 107.9302067  66.0217060
  83.4519991 109.2872234  66.1426261  83.9962144 107.8572244  66.7584488
  78.2834047 107.0656213  70.7210879  77.9314047 108.2296213  70.5450879
  77.5894047 106.0246213  70.2680879  77.9499409 105.0884729  70.3853027
  76.3424047 106.2016213  69.5080879  76.5691999 106.8758708  68.6822243
  75.8614047 104.8746213  68.9350879  75.6216624 104.1918531  69.7502267
  74.9715981 105.0415735  68.3280694  76.6462966 104.4395849  68.3163897
  75.2424047 106.8576213  70.3420879  74.3994047 107.5636213  69.7960879
  75.2744047 106.6396213  71.6580879  75.9320882 105.9644622  72.0210095
  74.3254047 107.2586213  72.5920879  73.4289996 107.5848227  72.0646889
  73.9224047 106.2306213  73.6520879  74.8111288 105.8401514  74.1478722
  73.2883022 106.7301672  74.3845276  73.1524047 105.0716213  73.0560879
  71.9694047 105.2006213  72.7490879  73.8204047 103.9426213  72.8670879
  73.3497757 103.1410586  72.4719862  74.7970076 103.8890295  73.1190316
  74.8394047 108.5556213  73.2450879  74.2514047 109.0226213  74.2180879
  75.9134047 109.1326213  72.6940879  76.4133409 108.6076878  71.9908042
  76.4594047 110.4346213  73.1130879  77.3720158 110.6441778  72.5551218
  75.4484047 111.5686213  72.8480879  74.6792096 111.4709260  73.6141778
  75.9945210 112.4998020  72.9989504  74.7954047 111.5806213  71.4720879
  75.5577685 111.7567490  70.7132195  74.3191215 110.6170350  71.2910967
  73.7474047 112.6856213  71.4050879  73.0758276 112.5584636  72.2541545
  74.2655592 113.6406239  71.4921825  72.9424047 112.6616213  70.1140879
  72.6958883 111.6251611  69.8836956  72.0237513 113.2263420  70.2730389
  73.6994047 113.2556213  68.9780879  74.5504787 112.7322204  68.8303574
  73.1337120 113.2214443  68.1420713  73.9275596 114.2161580  69.1911928
  76.9124047 110.4766213  74.5800879  76.7414047 111.4936213  75.2520879
  77.4894047 109.3776213  75.0640879  77.5621969 108.5634426  74.4708647
  77.9354047 109.2646213  76.4610879  77.7372606 110.1948311  76.9935800
  77.1794047 108.1286213  77.1610879  77.3131462 107.2773051  76.4936501
  77.6611511 107.9199314  78.1163204  75.6834047 108.3706213  77.3860879
  75.2346062 108.7016317  76.4495449  74.9974047 107.0956213  77.8540879
  75.4453845 106.7642309  78.7908875  73.9358137 107.2890826  78.0080292
  75.1188986 106.3188980  77.0990776  75.4424047 109.4966213  78.3790879
  75.8866130 110.4170996  78.0002765  74.3702626 109.6397792  78.5136924
  75.8973310 109.2413134  79.3361453  79.4534047 109.0796213  76.6200879
  79.9314047 108.8446213  77.7290879  80.2064047 109.2276213  75.5300879
  79.7609266 109.3791824  74.6364001  81.6624047 109.0076213  75.5560879
  81.8848931 108.1477859  76.1879750  82.2214047 108.7386213  74.1420879
  83.3030477 108.6654889  74.2552224  81.8292838 107.7878901  73.7809072
  81.8894047 109.8366213  73.1420879  80.6944047 110.1716213  72.9830879
  82.8224047 110.3416213  72.4870879  82.4794047 110.1006213  76.2770879
  83.6604047 109.8896213  76.5570879  81.8654047 111.2476213  76.5800879
  80.9715407 111.4644088  76.1628234  82.5064047 112.2686213  77.4300879
  83.5842663 112.2503692  77.2689033  81.9844047 113.6746213  77.0990879
  80.8958996 113.7024326  77.1489114  82.3984102 114.3952852  77.8043135
  82.3634047 114.1496213  75.7280879  81.5224047 114.0366213  74.6390879
  82.1194047 114.5326213  73.5690879  81.6133816 114.5395142  72.6036906
  83.3204047 114.9586213  73.9220879  84.0032330 115.3841606  73.3115458
  83.4984047 114.7296213  75.2670879  84.4340398 115.0131448  75.7490657
  82.3674047 111.9946213  78.9350879  83.0404047 112.6426213  79.7360879
  81.4904047 111.0606213  79.3070879  80.8745821 110.6799222  78.6028649
  81.3304047 110.6016213  80.6950879  81.9513954 111.1685645  81.3886622
  79.8514047 110.7186213  81.1450879  79.2331943 110.1445226  80.4549243
  79.6564047 110.1886213  82.5640879  80.2739905 110.7625709  83.2549356
  78.6084771 110.2855708  82.8478993  79.9473787 109.1389197  82.6036143
  79.3814047 112.1646213  81.0490879  79.4671299 112.5073770  80.0179372
  78.3412959 112.2310884  81.3682357  79.9990464 112.7914292  81.6923075
  81.8174047 109.1556213  80.8920879  82.4804047 108.8586213  81.8870879
  81.4764047 108.2696213  79.9590879  80.9702272 108.5919976  79.1467104
  81.7754047 106.8436213  80.0680879  81.9860678 106.5412885  81.0939120
  80.6024047 105.9896213  79.5320879  80.4117439 106.2699337  78.4961475
  80.9284047 104.4996213  79.6040879  81.1187455 104.2184443  80.6398537
  80.0859434 103.9239033  79.2208019  81.8135725 104.2913745  79.0030780
  79.3174047 106.2946213  80.2900879  79.0661324 107.3485568  80.1709906
  78.5074848 105.6816108  79.8946798  79.4574821 106.0723296  81.3479469
  83.0454047 106.4756213  79.2940879  83.1204047 106.6906213  78.0850879
  84.0244047 105.9146213  80.0060879  83.9292178 105.8963523  81.0114262
  85.2244047 105.3246213  79.4120879  85.2833614 105.5792828  78.3538957
  86.5024047 105.8286213  80.1120879  86.4822873 105.4973612  81.1503375
  87.7684047 105.2876213  79.4260879  87.7894581 105.6188780  78.3878561
  88.6512524 105.6619332  79.9443250  87.7628971 104.1981402  79.4592732
  86.5284047 107.2596213  80.0880879  87.3243785 107.5725520  80.5240931
  85.1584047 103.8026213  79.5520879  84.7764047 103.2826213  80.6030879
  85.5304047 103.0966213  78.4910879  85.7712602 103.5796515  77.6374078
  85.5954047 101.6386213  78.5030879  85.2881379 101.2268781  79.4644171
  84.7324047 101.0226213  77.3800879  85.0877462 101.3927374  76.4183983
  84.8244047  99.5026213  77.4040879  84.4687743  99.1317124  78.3653653
  84.2093847  99.0882215  76.6052613  85.8609938  99.1985071  77.2588401
  83.2684047 101.4926213  77.4700879  83.2964708 102.5822532  77.4740054
  82.7790514 101.1455608  76.5600429  82.4934047 101.0026213  78.6790879
  82.9819301 101.3497031  79.5895697  81.4762610 101.3926570  78.6418061
  82.4645127  99.9130099  78.6756083  87.0524047 101.2216213  78.3120879
  87.7254047 101.7136213  77.4140879  87.5254047 100.3206213  79.1680879
  86.9164450  99.9884947  79.9022264  88.8794047  99.7766213  79.0920879
  89.4213345 100.2374327  78.2662162  89.6474047 100.0126213  80.4040879
  89.0286212  99.6690749  81.2330531  90.9804047  99.2606213  80.4170879
  91.5999609  99.6039844  79.5886239  91.4959492  99.4502102  81.3585605
  90.7959727  98.1913588  80.3133491  89.8964047 101.5066213  80.5910879
  90.7758829 101.7747608  80.0056648  89.0277512 102.0409914  80.2063943
  90.1184047 101.8816213  82.0270879  90.9872343 101.3479599  82.4123677
  90.2903536 102.9554793  82.1003118  89.2391029 101.6141881  82.6130978
  88.7754047  98.2826213  78.8480879  88.1434047  97.5736213  79.6310879
  89.4024047  97.8186213  77.7670879  89.8290009  98.4704610  77.1242660
  89.4534047  96.4026213  77.4470879  88.5367872  95.9186803  77.7843008
  89.5934047  96.1876213  75.9390879  88.9086189  96.8773641  75.4457093
  90.6188544  96.4378268  75.6671501  89.2844047  94.7626213  75.4970879
  89.9224327  94.0793913  76.0576394  88.2392220  94.5488853  75.7207216
  89.5314047  94.5796213  74.0080879  88.8562482  95.2365935  73.4597723
  90.5630312  94.8555981  73.7897233  89.2924047  93.1426213  73.5850879
  90.0518823  92.5118107  74.0470104  88.3057671  92.8359669  73.9323752
  89.3634047  93.0006213  72.1020879  90.2777118  93.2843160  71.7801257
  89.2011269  92.0366554  71.8480493  88.6594534  93.5847385  71.6738839
  90.6184047  95.7536213  78.1950879  91.7794047  96.0906213  77.9580879
  90.2984047  94.8356213  79.1010879  89.3235444  94.6455755  79.2844706
  91.3034047  94.0836213  79.8490879  91.7643235  93.3580125  79.1789051
  92.0620441  94.7792695  80.2077510  90.7054047  93.3496213  81.0360879
  89.5204047  93.5136213  81.3490879  91.5294047  92.5316213  81.6890879
  92.4398846  92.3255378  81.3035294  91.1514047  91.8976213  82.9520879
  90.1257657  91.5363643  82.8768744  92.0634047  90.7146213  83.2930879
  93.0830097  91.0226430  83.0615115  91.9713737  90.5414775  84.3653060
  91.7394047  89.4336213  82.5440879  90.6566843  89.3085562  82.5308210
  92.1058444  89.5317465  81.5222291  92.3834047  88.2166213  83.2000879
  92.4341630  87.4178394  82.4601756  93.3924416  88.4900601  83.5085927
  91.5934047  87.7356213  84.4140879  91.3809939  88.5958507  85.0489010
  90.6562379  87.3022865  84.0647479  92.3494047  86.7186213  85.1940879
  93.2176439  87.1200917  85.5182513  91.7977189  86.4242752  85.9872482
  92.5459587  85.9212466  84.6061599  91.2274047  92.9186213  84.0790879
  92.1794047  93.6916213  84.1580879  90.2444047  92.8836213  84.9710879
  89.4681958  92.2552268  84.8203582  90.2034047  93.7706213  86.1350879
  90.1935690  94.8243886  85.8565616  88.9594047  93.4786213  87.0130879
  88.8995346  92.4028017  87.1777907  89.0384047  94.1946213  88.3570879
  89.0978371  95.2705906  88.1932013  88.1490323  93.9656215  88.9441792
  89.9248983  93.8601879  88.8959619  87.6754047  93.8586213  86.2770879
  87.5990862  93.2803486  85.3562849  86.8153966  93.6452228  86.9118687
  87.6944805  94.9217548  86.0373297  91.4934047  93.6346213  86.9570879
  92.0464047  94.6346213  87.4030879  91.9854047  92.4026213  87.1020879
  91.4845465  91.6288655  86.6891201  93.1704047  92.1086213  87.9190879
  93.1438266  92.7020710  88.8329863  93.2094047  90.6156213  88.3020879
  93.2019207  90.0553251  87.3671487  94.1567933  90.4518494  88.8156380
  92.0574047  90.1386213  89.1920879  92.4503406  89.3404068  89.8218148
  91.7754560  90.9871085  89.8155247  90.8274047  89.6316213  88.4340879
  89.9464047  89.0216213  89.0830879  90.7254047  89.8386213  87.2020879
  94.5204047  92.5106213  87.2840879  95.5604047  92.3626213  87.9290879
  94.5054047  92.9896213  86.0350879  93.6243467  93.0140498  85.5418950
  95.7194047  93.4176213  85.3180879  96.5977265  93.2912516  85.9510814
  95.8954047  92.5626213  84.0610879  95.0229510  92.7260271  83.4284567
  96.7884528  92.9165844  83.5460392  96.0364047  91.0736213  84.3570879
  96.9280297  90.9577239  84.9732644  95.1593654  90.7659538  84.9265103
  96.1634047  90.2056213  83.1130879  95.8254047  90.6636213  81.9960879
  96.5994047  89.0426213  83.2560879  95.7614047  94.9006213  84.9240879
  96.8514047  95.4476213  84.7600879  94.6064047  95.5486213  84.7640879
  93.7307937  95.0730418  84.9290995  94.5654047  96.9356213  84.2610879
  95.3621035  97.1609276  83.5521399  93.2014047  97.3216213  83.6160879
  93.2551334  98.3554700  83.2749585  92.8804047  96.4126213  82.4340879
  92.8260516  95.3785823  82.7745435  91.9230399  96.7029092  82.0013225
  93.6624031  96.5058497  81.6805040  92.0634047  97.3616213  84.6410879
  92.2927343  98.0985492  85.4107939  91.1337807  97.6354029  84.1421467
  91.9529174  96.3794093  85.1006018  94.8994047  97.9926213  85.3140879
  94.7044047  97.7876213  86.5130879  95.3934047  99.1266213  84.8240879
  95.6831063  99.1434111  83.8566736  95.5444047 100.3406213  85.6100879
  95.5942503 100.0926038  86.6703246  96.8324047 101.0706213  85.2170879
  97.6422277 100.3420882  85.2561480  96.7070634 101.4191592  84.1919484
  97.1684047 102.2496213  86.1150879  96.3576077 102.9706560  86.0110787
  97.2021273 101.8872805  87.1425465  98.4914047 102.9206213  85.7700879
  99.2064047 103.3116213  86.7160879  98.8164047 103.0686213  84.5690879
  94.3234047 101.2196213  85.3270879  93.9994047 101.4676213  84.1580879
  93.6374047 101.6636213  86.3830879  93.9177906 101.3949818  87.3154590
  92.4714047 102.5456213  86.2330879  91.8656762 102.1943625  85.3977381
  91.6004047 102.5686213  87.4940879  92.3098425 102.2524644  88.2588376
  91.3837051 103.6298035  87.6166997  90.3114047 101.7676213  87.6350879
  90.5341068 100.7167967  87.8202158  89.5444047 102.3386213  88.8170879
  89.3209227 103.3893701  88.6324763  88.6132975 101.7870976  88.9473248
  90.1483184 102.2493529  89.7200939  89.4184047 101.8066213  86.4120879
  89.9557654 101.3985491  85.5560388  88.5235793 101.2119556  86.5958307
  89.1323940 102.8374618  86.2031270  92.9144047 103.9826213  85.9560879
  93.8834047 104.4426213  86.5540879  92.1814047 104.7096213  85.0870879
  91.2624047 104.1406213  84.0860879  90.4165970 103.6860870  84.6019446
  91.7914701 103.3778352  83.5148207  90.8584047 105.3146213  83.2380879
  89.8016546 105.2301928  82.9846120  91.4515151 105.3205526  82.3236010
  91.1254047 106.5266213  84.0500879  90.2888842 106.7580741  84.7094527
  91.3476199 107.3935784  83.4279100  92.3544047 106.1516213  84.8810879
  93.2926680 106.2785950  84.3410528  92.3844047 106.9906213  86.1560879
  93.0134047 108.0456213  86.1650879  91.6884047 106.5306213  87.1970879
  91.0777680 105.7389866  87.0537816  91.6964047 107.1726213  88.5150879
  92.3792854 108.0217997  88.5409559  90.2814047 107.6616213  88.9230879
  90.3280176 108.1000788  89.9199236  89.7824047 108.7026213  87.9350879
  89.7350803 108.2647350  86.9380338  88.7886891 109.0385610  88.2313550
  90.4649801 109.5523931  87.9261233  89.2774047 106.5176213  89.0210879
  89.6145484 105.8007689  89.7697927  88.3031326 106.9122618  89.3094494
  89.1960138 106.0211161  88.0541551  92.2764047 106.2466213  89.5910879
  92.2954047 105.0196213  89.4330879  92.7444047 106.8466213  90.6830879
  92.7587156 107.8553482  90.7317135  93.2704047 106.0906213  91.8180879
  93.9018558 105.2802348  91.4538868  94.1014047 106.9816213  92.7340879
  93.4625700 107.8058756  93.0512538  94.3801596 106.3839380  93.6019418
  95.3444047 107.5316213  92.0830879  95.8583343 106.7270256  91.5571573
  95.0294195 108.2902683  91.3666117  96.2784047 108.1496213  93.0900879
  96.3724047 109.3876213  93.1310879  96.9054047 107.3906213  93.8570879
  92.1624047 105.4596213  92.6430879  92.3214047 104.3406213  93.1200879
  91.0674047 106.1986213  92.8380879  91.0281272 107.1208711  92.4281953
  89.9354047 105.7526213  93.6550879  90.0027338 104.6770995  93.8188530
  89.9364047 106.4576213  95.0190879  89.8516531 107.5250780  94.8154888
  89.0442059 106.1164536  95.5441460  91.1654047 106.2016213  95.8860879
  92.0488906 106.4453704  95.2960540  91.1111792 106.8650742  96.7492170
  91.2554047 104.7546213  96.3620879  90.3805289 104.5410275  96.9761474
  91.2515310 104.1052257  95.4866624  92.5184047 104.5036213  97.1740879
  93.3567666 104.9878226  96.6732895  92.3877496 104.9381401  98.1651589
  92.7934047 103.0436213  97.3040879  92.9149314 102.6408759  96.3858683
  93.6346453 102.9064446  97.8459337  92.0168673 102.5948307  97.7684969
  88.5984047 106.0026213  92.9690879  88.4834047 106.8766213  92.1080879
  87.5944047 105.2286213  93.3730879  87.7937878 104.4482879  93.9825349
  86.2264047 105.4006213  92.8940879  86.0903712 106.3558329  92.3869737
  85.7974047 104.2626213  91.9310879  84.7676260 104.4315494  91.6162574
  86.7044047 104.2356213  90.7070879  87.7343616 104.0662606  91.0211051
  86.3916693 103.4322064  90.0401385  86.6369582 105.1890567  90.1831476
  85.7854047 102.8996213  92.6170879  85.0843288 102.9184050  93.4514989
  85.4788826 102.1354671  91.9027965  86.7844200 102.6700006  92.9876869
  85.2624047 105.5206213  94.0780879  85.4904047 104.9426213  95.1450879
  84.1954047 106.2876213  93.8770879  84.0877857 106.7546893  92.9880632
  83.1814047 106.5166213  94.9090879  83.6563050 106.5720509  95.8886268
  82.4434047 107.8296213  94.6490879  81.9699314 107.7512031  93.6704292
  81.6765666 107.9471245  95.4147591  83.3684047 109.0366213  94.6690879
  84.0174047 109.2766213  95.7100879  83.4394047 109.7496213  93.6470879
  82.1754047 105.3666213  94.9600879  81.7164047 104.9916213  96.0360879
  81.8254047 104.8336213  93.7890879  82.2353678 105.2089838  92.9458011
  80.8454047 103.7536213  93.6630879  80.6337992 103.2938082  94.6284346
  79.5244047 104.2696213  93.0360879  79.7524620 104.7320957  92.0757715
  78.5274047 103.1286213  92.8280879  78.2984897 102.6659246  93.7880933
  77.6113467 103.5217291  92.3871745  78.9608202 102.3838792  92.1605481
  78.9094047 105.3766213  93.9080879  78.5598262 104.9047728  94.8263769
  79.7076336 106.0806879  94.1430782  77.7634047 106.1146213  93.2530879
  76.9645428 105.4112358  93.0182085  77.3861478 106.8781604  93.9333706
  78.1123501 106.5871492  92.3349080  81.4264047 102.6266213  92.8040879
  82.1334047 102.8856213  91.8280879  81.1494047 101.3836213  93.1950879
  80.7672506 101.2348052  94.1180783  81.3994047 100.2136213  92.3500879
  81.8458262 100.5386053  91.4103047  82.3264047  99.1776213  93.0300879
  81.9924067  99.0328244  94.0575019  82.2954047  97.8376213  92.2900879
  82.6297389  97.9815415  91.2626599  82.9561689  97.1300357  92.7909013
  81.2782056  97.4459529  92.2891283  83.7614047  99.7076213  93.0730879
  84.1049071  99.7841998  92.0414665  83.7215921 100.7023287  93.5170153
  84.7234047  98.8396213  93.8630879  84.7641040  97.8448216  93.4194472
  85.7172711  99.2867540  93.8430554  84.3807874  98.7629487  94.8949961
  80.0554047  99.5696213  92.0320879  79.2754047  99.2996213  92.9360879
  79.7994047  99.3246213  90.7490879  80.3985954  99.7264157  90.0422420
  78.6164047  98.5826213  90.3150879  78.0843932  98.1820404  91.1779888
  77.6514047  99.4516213  89.4720879  76.7457149  98.8820612  89.2636950
  77.2884047 100.7226213  90.2350879  78.1935995 101.2929787  90.4434517
  76.6093366 101.3267685  89.6334457  76.8026639 100.4571295  91.1740603
  78.2484047  99.8096213  88.1020879  79.2354805 100.2354901  88.2821377
  78.3509666  98.8798919  87.5424596  77.4124047 100.7916213  87.3020879
  77.3097854 101.7218278  87.8609125  77.9008684 100.9931032  86.3487215
  76.4252700 100.3662300  87.1212364  79.0604047  97.3236213  89.5680879
  80.0484047  97.3406213  88.8380879  78.3504047  96.2226213  89.7780879
  77.5637258  96.2273807  90.4115016  78.7054047  94.9706213  89.1290879
  78.9258379  95.1551176  88.0776748  79.9394047  94.3406213  89.7850879
  80.7273119  95.0913655  89.8457881  79.6740547  94.0111180  90.7896360
  80.4014047  93.2296213  89.0290879  81.1730241  92.8505308  89.4562808
  77.5644047  93.9786213  89.1800879  76.9544047  93.7596213  90.2300879
  77.2724047  93.3956213  88.0300879  77.5648299  93.8149322  87.1590166
  76.4654047  92.1996213  87.9770879  75.9239869  92.0804452  88.9155777
  75.4554047  92.2796213  86.8390879  75.0736539  93.3002318  86.8122613
  75.9894261  92.0675396  85.9128360  74.2974047  91.3106213  86.9880879
  73.9940083  91.2501794  88.0332665  73.4767342  91.7138821  86.3948091
  74.6504047  89.9306213  86.4860879  74.3244047  89.6266213  85.3120879
  75.2894047  89.1686213  87.2530879  77.4524047  91.0416213  87.8470879
  77.9584047  90.7556213  86.7630879  77.7114047  90.4046213  88.9860879
  77.1724885  90.6735127  89.7968691  78.7504047  89.3766213  89.1490879
  79.3369970  89.2958141  88.2339492  79.6974047  89.7456213  90.3110879
  80.4046310  88.9449214  90.5274443  80.2438806  90.6491262  90.0406384
  78.9804047  90.0456213  91.5980879  78.6054047  91.2726213  92.0450879
  78.8663880  92.1225709  91.4145538  77.9514047  91.1646213  93.2460879
  77.5850641  91.9337987  93.7885454  77.8824047  89.8426213  93.5940879
  77.3174047  89.2326213  94.7220879  76.8391692  89.8639005  95.4710045
  77.4034047  87.8666213  94.8120879  76.9779735  87.3570275  95.6766238
  78.0284047  87.1056213  93.8140879  78.0888680  86.0202114  93.8936429
  78.5894047  87.7106213  92.6940879  79.0667813  87.0738120  91.9493152
  78.5214047  89.1046213  92.5750879  78.1794047  87.9816213  89.4060879
  78.9364047  87.0136213  89.4730879  76.8614047  87.8746213  89.5590879
  76.2642114  88.6655315  89.3643560  76.2464047  86.6496213  90.0490879
  76.8572648  86.2241740  90.8452938  74.8514047  86.9316213  90.6020879
  74.2611287  87.3634351  89.7938736  74.4180825  85.9760201  90.8973136
  74.8494047  87.8786213  91.7930879  73.9126737  87.7262898  92.3292138
  75.6845109  87.5974117  92.4346648  75.0024047  89.6196213  91.3500879
  73.4244047  89.8796213  90.5370879  72.6155834  89.6718490  91.2376147
  73.3551497  90.9136366  90.1992764  73.3423873  89.2115667  89.6797213
  76.1614047  85.6036213  88.9470879  75.7824047  85.9056213  87.8150879
  76.5354047  84.3756213  89.2870879  76.9636911  84.2218446  90.1887657
  76.3514047  83.2276213  88.4030879  76.1040701  83.5846031  87.4033436
  77.2785786  82.6557788  88.3650857  75.2384047  82.3286213  88.8940879
  74.5574047  82.6326213  89.8790879  75.0634047  81.2096213  88.1990879
  75.5809564  81.0682066  87.3433768  74.1314047  80.1696213  88.6240879
  73.1213607  80.5774877  88.6635241  74.1454047  78.9946213  87.6490879
  75.1431679  78.5587420  87.6998539  73.4156648  78.2746085  88.0194409
  73.8224047  79.3466213  86.2160879  72.6764047  80.0696213  85.8920879
  72.0056103  80.3836756  86.6917779  72.3834047  80.3906213  84.5750879
  71.4822437  80.9544084  84.3339348  73.2454047  79.9916213  83.5610879
  72.9654047  80.3096213  82.2540879  72.1509885  80.8082369  82.1555570
  74.3874047  79.2726213  83.8550879  75.0630293  78.9561541  83.0604305
  74.6714047  78.9536213  85.1750879  75.5701221  78.3864800  85.4174886
  74.5474047  79.6936213  90.0170879  75.7414047  79.5156213  90.2830879
  73.5694047  79.5336213  90.9080879  72.6183610  79.7239302  90.6263121
  73.8234047  79.1926213  92.3100879  72.8881781  79.1861505  92.8699169
  74.4584047  77.7986213  92.4000879  74.0847703  77.1619528  91.5981217
  75.5434479  77.8735505  92.3282060  74.1184047  76.9176213  93.9380879
  74.8078158  75.8236305  93.6269693  74.6834047  80.2616213  93.0150879
  75.4404047  79.9506213  93.9360879  74.5494047  81.5146213  92.5590879
  73.9870336  81.6089934  91.7254621  75.2554047  82.7166213  93.0720879
  74.8369422  83.6040318  92.5972291  75.1144047  82.8626213  94.5990879
  74.0433652  82.7284222  94.7506269  75.6534127  82.0416812  95.0719810
  75.5574047  84.1946213  95.2260879  76.6434116  84.2583887  95.1580900
  74.9334047  85.3936213  94.5220879  73.8473433  85.3307906  94.5900704
  75.2741537  86.3130091  94.9982358  75.2317844  85.3958329  93.4737248
  75.2324047  84.2176213  96.7170879  75.7542182  83.4009011  97.2158647
  75.5527798  85.1676778  97.1447019  74.1577711  84.1007342  96.8570840
  76.7254047  82.8486213  92.6700879  77.1424047  83.8806213  92.1400879
  77.4964047  81.7996213  92.9130879  77.0651888  80.9247401  93.1752617
  78.9514047  81.8736213  92.8920879  79.2889274  82.9095964  92.8615389
  79.4804047  81.2236213  94.1760879  79.0644284  80.2205813  94.2708179
  80.5686741  81.1648805  94.1582183  79.1094047  81.9646213  95.4340879
  79.4304047  83.3076213  95.5920879  79.9519525  83.8269644  94.7881162
  79.0954047  83.9876213  96.7550879  79.3499718  85.0416384  96.8661923
  78.4364047  83.3236213  97.7750879  78.1703768  83.8545185  98.6891323
  78.1154047  81.9856213  97.6340879  77.5976090  81.4609271  98.4370099
  78.4514047  81.3146213  96.4750879  78.2016868  80.2594075  96.3643410
  79.6224047  81.2386213  91.6670879  80.8364047  81.3766213  91.5070879
  78.8624047  80.5526213  90.8070879  77.8812620  80.3973196  90.9896797
  79.4484047  79.9566213  89.6010879  80.2507899  79.2781270  89.8907820
  78.4114047  79.1716213  88.7950879  77.9078208  78.4953939  89.4858983
  77.6918802  79.8888860  88.4002261  79.0084047  78.3736213  87.6520879
  79.8094047  77.2606213  87.9020879  80.0000666  76.9713357  88.9355585
  80.3594047  76.5266213  86.8650879  80.9826810  75.6583957  87.0791274
  80.1144047  76.8946213  85.5580879  80.6714047  76.1546213  84.5390879
  81.2013354  75.4194366  84.8557527  79.3234047  77.9926213  85.2780879
  79.1272142  78.2820240  84.2456850  78.7774047  78.7286213  86.3210879
  78.1571434  79.5991350  86.1075887  80.0674047  81.0606213  88.7470879
  79.5474047  82.1756213  88.7130879  81.1844047  80.7286213  88.0900879
  81.4597139  79.7593613  88.1596538  82.0974047  81.6716213  87.3960879
  82.7315684  81.0935881  86.7239173  81.3734047  82.7586213  86.5770879
  80.9315645  83.4390097  87.3050632  82.1498068  83.2803061  86.0174944
  80.2944047  82.2726213  85.6160879  80.7681237  81.6342473  84.8703199
  79.5717812  81.6892612  86.1867064  79.5814047  83.4216213  84.9200879
  80.2804047  84.3176213  84.3920879  78.3264047  83.4346213  84.8970879
  83.1264047  82.3346213  88.3290879  84.1634047  82.7986213  87.8550879
  82.8354047  82.3876213  89.6320879  81.9250927  82.0558897  89.9173693
  83.6964047  83.0036213  90.6410879  83.1679308  83.0518161  91.5931865
  84.9864047  82.1846213  90.8350879  85.5433060  82.1814430  89.8980980
  85.5871209  82.6565725  91.6125853  84.6894047  80.8516213  91.2120879
  85.5070380  80.3618378  91.3269263  84.0104047  84.4706213  90.3550879
  85.1274047  84.9356213  90.5990879  83.0194047  85.2056213  89.8570879
  82.1346993  84.7778155  89.6238973  83.2104047  86.6226213  89.5400879
  84.2116496  86.7701896  89.1353269  82.1924047  87.1056213  88.5110879
  82.0659043  86.3136148  87.7729669  81.2487495  87.2712378  89.0308821
  82.6164047  88.3856213  87.8120879  82.7734616  89.1437939  88.5792960
  83.5583204  88.1858579  87.3012147  81.4174047  88.9896213  86.6230879
  81.7804047  90.7456213  86.6820879  82.8171661  90.9128578  86.3901003
  81.1201868  91.2768794  85.9965386  81.6247143  91.1154987  87.6955239
  83.1744047  87.5286213  90.7760879  83.7074047  88.6346213  90.7240879
  82.5704047  87.0866213  91.8800879  82.0344923  86.2305274  91.8794764
  82.6084047  87.8826213  93.1120879  82.1302060  88.8439735  92.9243994
  81.8864047  87.1956213  94.2750879  80.8759773  87.0557737  93.8909288
  82.3411180  86.2229108  94.4626251  81.8294047  87.9966213  95.5880879
  82.8468851  88.1172199  95.9599622  81.1954047  89.3696213  95.3880879
  80.1776757  89.2498213  95.0166389  81.1743092  89.9026046  96.3386585
  81.7805730  89.9388832  94.6658557  81.0984047  87.2216213  96.6690879
  81.6170857  86.2814700  96.8566645  81.0731528  87.8111830  97.5855379
  80.0792460  87.0148360  96.3425084  84.0484047  88.1976213  93.5060879
  84.3414047  89.3286213  93.8870879  84.9374047  87.2116213  93.3700879
  84.6069549  86.2868787  93.1339665  86.3814047  87.3986213  93.6090879
  86.5550535  87.5517571  94.6742145  87.1894047  86.1686213  93.1500879
  87.0451539  86.0336340  92.0781414  88.2436760  86.3563297  93.3535028
  86.7764047  84.8846213  93.8630879  85.5894047  84.5946213  93.9910879
  87.7574047  84.1096213  94.3230879  87.5343846  83.2489707  94.8022981
  88.7197004  84.3862366  94.1905293  86.9334047  88.6506213  92.9140879
  87.7504047  89.3756213  93.4890879  86.4864047  88.8916213  91.6820879
  85.8727814  88.2189509  91.2449605  86.9134047  90.0536213  90.8990879
  87.9999735  90.1340019  90.9308111  86.4704047  89.9286213  89.4240879
  85.3830124  89.8591515  89.3948954  86.9244047  91.1266213  88.6010879
  88.0117946  91.1964764  88.6294273  86.5954399  91.0047911  87.5690808
  86.4914292  92.0373799  89.0147926  87.0424047  88.7446213  88.8660879
  86.7715133  88.6599180  87.9490037  86.4084047  91.3716213  91.4850879
  87.1544047  92.3486213  91.5270879  85.1544047  91.3876213  91.9360879
  84.5645497  90.5807408  91.7907803  84.5704047  92.5696213  92.5840879
  84.6947222  93.4609462  91.9691211  83.0624047  92.3816213  92.8840879
  82.9379889  91.4872705  93.4946258  82.4914047  93.5886213  93.6270879
  82.6150481  94.4833417  93.0169334  81.4314870  93.4269773  93.8234196
  83.0197916  93.7177576  94.5716686  82.2824047  92.1386213  91.5950879
  82.6587306  91.2401557  91.1059656  81.2255321  92.0091766  91.8282486
  82.4050537  92.9927242  90.9290802  85.3324047  92.8956213  93.8770879
  85.6104047  94.0656213  94.1560879  85.6774047  91.8586213  94.6410879
  85.3748172  90.9318791  94.3771010  86.4184047  92.0166213  95.8960879
  85.9112885  92.7457633  96.5279772  86.5094047  90.6856213  96.6580879
  87.0825901  90.0727296  95.9624432  87.0965138  90.8555804  97.5605938
  85.2044047  89.9596213  97.0250879  84.7554061  89.5609534  96.1153819
  85.4754047  88.8216213  97.9970879  85.9240121  89.2195950  98.9072896
  84.5382949  88.3221076  98.2428767  86.1583997  88.1064412  97.5386822
  84.1574047  90.9146213  97.5890879  83.9241981  91.6782625  96.8470864
  83.2524616  90.3587372  97.8343881  84.5462563  91.3903221  98.4894224
  87.8194047  92.5836213  95.6760879  88.2664047  93.4366213  96.4400879
  88.5074047  92.1036213  94.6420879  88.1610701  91.2929108  94.1492389
  89.7944047  92.6756213  94.2240879  90.5175574  92.5871247  95.0348393
  90.3434047  91.9316213  92.9910879  90.5460904  90.9108818  93.3152925
  89.5499614  91.9241390  92.2437649  91.6014047  92.5296213  92.3870879
  91.5284047  93.5976213  91.4890879  90.5475501  93.9922803  91.2240069
  92.6714047  94.1546213  90.9380879  92.5968697  94.9948445  90.2477465
  93.9144047  93.6376213  91.2690879  95.0394047  94.1966213  90.7120879
  94.8419750  94.9258399  90.1197524  94.0164047  92.5716213  92.1500879
  94.9928264  92.1625451  92.4096218  92.8644047  92.0246213  92.7030879
  92.9374814  91.1867773  93.3964690  89.6454047  94.1726213  93.9300879
  90.4334047  94.9826213  94.4160879  88.6344047  94.5166213  93.1350879
  88.0576170  93.7851897  92.7446739  88.3594047  95.9046213  92.7420879
  89.2703655  96.3058333  92.2979274  87.2524047  95.9376213  91.6960879
  86.3312331  95.5473197  92.1287628  87.0924142  96.9646567  91.3679087
  87.5403596  95.3245328  90.8420951  87.9854047  96.8036213  93.9280879
  88.3434047  97.9846213  93.9570879  87.2534047  96.2376213  94.8850879
  86.9041909  95.3012824  94.7387373  86.8994047  96.9236213  96.1280879
  86.3559543  97.8429839  95.9100667  86.0024047  96.0136213  96.9810879
  85.1021315  95.8406131  96.3914478  86.5469272  95.0763242  97.0954098
  85.6144047  96.5466213  98.3560879  86.4802569  97.0368637  98.8011308
  84.8080953  97.2706232  98.2386642  85.1514047  95.4146213  99.2620879
  84.7441105  95.8425996 100.1780819  84.3734645  94.8498738  98.7483090
  86.2404047  94.4996213  99.6150879  87.1739106  94.8048228  99.3794647
  86.0884047  93.3106213 100.2080879  84.8814047  92.8516213 100.5500879
  84.0603711  93.4083746 100.3602735  84.7953803  91.9499318 100.9969161
  87.1604047  92.5706213 100.4710879  88.0783308  92.9104830 100.2220784
  87.0523035  91.6717388 100.9187744  88.1474047  97.3106213  96.9150879
  88.3284047  98.4716213  97.2710879  88.9964047  96.3216213  97.1810879
  88.7785292  95.3878873  96.8636444  90.2094047  96.5186213  97.9800879
  89.9494308  96.9620403  98.9412811  90.9144047  95.1756213  98.2330879
  91.1223929  94.7203608  97.2648017  91.8538444  95.3883025  98.7433034
  90.0784047  94.2096213  99.0830879  89.0044047  94.6006213  99.5940879
  90.4944047  93.0446213  99.2420879  91.1804047  97.5046213  97.3230879
  91.7744047  98.3406213  98.0050879  91.3124047  97.4176213  96.0000879
  90.7749707  96.7280995  95.4942977  92.2634047  98.2416213  95.2520879
  93.2041672  98.3091758  95.7984409  92.5394047  97.6236213  93.8750879
  92.6000808  96.5441353  94.0133910  91.6862547  97.8605724  93.2394078
  93.8164047  98.1226213  93.2160879  93.6920355  99.1790500  92.9781982
  94.6383108  98.0040286  93.9221390  94.1264047  97.3496213  91.9430879
  93.8330564  96.3122702  92.1041734  93.5251160  97.7762145  91.1402371
  95.5994047  97.4066213  91.5590879  96.1561276  96.8180772  92.2883178
  95.7035660  96.9548181  90.5726177  96.1354047  98.7916213  91.5280879
  96.0393745  99.2103026  92.4421907  97.1113178  98.7691945  91.2688762
  95.6199491  99.3370318  90.8521205  91.7934047  99.6866213  95.0840879
  92.5534047 100.6096213  95.3540879  90.5444047  99.8676213  94.6520879
  89.9225947  99.0732413  94.6029748  90.0504047 101.1716213  94.1770879
  90.8472089 101.9141581  94.2200007  89.5754047 101.0466213  92.7260879
  88.8188229 100.2629013  92.6877979  89.1465961 101.9826670  92.3682589
  90.6354047 100.6636213  91.7520879  91.8164047 101.3106213  91.5160879
  92.0192780 102.1969115  92.1172800  92.5194047 100.6696213  90.5260879
  93.4226984 100.9472803  90.1696253  91.7934047  99.5916213  90.0980879
  92.0854047  98.6406213  89.1170879  93.0264552  98.7247542  88.5735400
  91.1634047  97.6566213  88.9000879  91.3602449  96.8942770  88.1463073
  89.9604047  97.6016213  89.6280879  89.2297322  96.8139379  89.4443160
  89.6684047  98.5466213  90.6000879  88.7297180  98.4541022  91.1463554
  90.5954047  99.5636213  90.8460879  88.9194047 101.8346213  94.9800879
  88.6774047 103.0266213  94.7850879  88.2114047 101.1046213  95.8430879
  88.4013814 100.1242126  95.9941080  87.0704047 101.7076213  96.5410879
  86.4808327 102.2782069  95.8234975  86.1654047 100.6606213  97.1950879
  86.0122410  99.9288796  96.4018703  86.7065858 100.1949570  98.0187261
  84.8064047 101.1626213  97.6960879  84.9878061 101.9057760  98.4725642
  83.9674047 101.7846213  96.5830879  83.7851864 101.0418807  95.8064079
  83.0153366 102.1237432  96.9913321  84.5016696 102.6330721  96.1555453
  84.0444047 100.0286213  98.3620879  84.6197301  99.6507122  99.2072417
  83.0804450 100.3956445  98.7144753  83.8857993  99.2251097  97.6428436
  87.5534047 102.7116213  97.5820879  88.4024047 102.3946213  98.4130879
  87.0154047 103.9276213  97.5130879  86.4010002 104.1562049  96.7447417
  87.3194047 104.9696213  98.4900879  88.3994054 105.0926185  98.5711400
  86.7094047 106.2966213  98.0520879  85.6271744 106.1918545  97.9752664
  86.9482107 107.0666101  98.7857016  87.1161372 106.5813804  97.0817373
  86.7964047 104.5746213  99.8760879  85.9384047 103.6886213  99.9860879
  87.3194047 105.2126213 100.9440879  88.5174047 106.0706213 101.0300879
  88.2756595 107.0696038 100.6671919  89.3134988 105.6453879 100.4189334
  88.8484047 106.0536213 102.4930879  89.3346988 106.9880629 102.7731522
  89.5138341 105.2185136 102.7119492  87.5414047 105.8896213 103.1910879
  87.0860051 106.8770337 103.2667637  87.5981501 105.4393289 104.1821057
  86.7064047 104.9996213 102.2580879  86.7685417 103.9413938 102.5118434
  85.2364047 105.4346213 102.2400879  84.9094047 106.4786213 101.6660879
  84.3654047 104.6106213 102.8170879  84.7028438 103.7359994 103.1929480
  82.9144047 104.8546213 102.8130879  82.3913031 103.9931890 103.2282968
  82.5814047 106.0896213 103.6660879  83.0103801 106.9656340 103.1795891
  81.4963897 106.1881722 103.6997053  83.1264047 105.9796213 105.0880879
  82.7694047 105.0056213 105.7910879  83.9114047 106.8576213 105.5010879
  82.2974047 104.9596213 101.3990879  81.2874047 105.6406213 101.2030879
  82.8974047 104.2646213 100.4300879  83.7625420 103.7846986 100.6333390
  82.3534047 104.1676213  99.0800879  81.9406235 105.1320392  98.7841000
  83.1463614 103.8845098  98.3878691  81.2534047 103.1216213  99.0260879
  81.1994047 102.2236213  99.8700879  80.3824047 103.2366213  98.0260879
  80.5046741 103.9793883  97.3527034  79.2224047 102.3536213  97.8830879
  78.9910622 101.8811889  98.8377540  78.0044047 103.1636213  97.4300879
  78.2180469 103.3725434  96.3818476  77.1266021 102.5212699  97.5004254
  77.7354047 104.4756213  98.1660879  78.5837725 105.1467208  98.0319297
  76.4804047 105.1276213  97.6070879  75.6314637 104.4572617  97.7413114
  76.2909025 106.0629803  98.1336743  76.6180312 105.3306152  96.5450367
  77.6124047 104.2426213  99.6610879  78.5395839 103.8124778 100.0397894
  77.4211155 105.1912720 100.1626570  76.7880716 103.5565742  99.8558014
  79.4844047 101.2226213  96.8890879  80.2534047 101.3916213  95.9440879
  78.8384047 100.0776213  97.1170879  78.3442633  99.9689817  97.9912281
  78.8584047  98.9456213  96.1840879  79.3503347  99.2575442  95.2627800
  79.5944047  97.7166213  96.7710879  79.0369118  97.3595098  97.6369825
  79.7104047  96.5906213  95.7390879  80.2682157  96.9468627  94.8730396
  80.2320170  95.7426411  96.1828794  78.7136439  96.2799704  95.4259376
  81.0044047  98.1106213  97.2340879  81.5389314  98.4638230  96.3522543
  80.8865086  98.9325081  97.9402763  81.7924047  96.9916213  97.8880879
  81.9111159  96.1695071  97.1823005  82.7744640  97.3619110  98.1822723
  81.2586915  96.6381905  98.7703218  77.4084047  98.6056213  95.8320879
  76.5524047  98.5656213  96.7160879  77.1434047  98.3846213  94.5410879
  77.9132170  98.4007294  93.8874604  75.8014047  98.0866213  94.0280879
  75.0965016  98.0162181  94.8564925  75.3324047  99.1936213  93.0790879
  76.1270414  99.5043104  92.4007634  74.4945473  98.8029372  92.5016271
  74.8394047 100.4396213  93.7640879  75.7174047 101.2706213  94.4560879
  76.7716462 100.9995045  94.5123949  75.2664047 102.4286213  95.0680879
  75.9637595 103.0646745  95.6132790  73.9304047 102.7776213  94.9870879
  73.5719644 103.6857084  95.4718540  73.0484047 101.9716213  94.2890879
  71.9960630 102.2473475  94.2208814  73.5024047 100.8146213  93.6770879
  72.8092640 100.1853668  93.1187917  75.8444047  96.7766213  93.2340879
  76.5104047  96.7316213  92.1980879  75.1844047  95.7036213  93.6870879
  75.0484047  94.4726213  92.8940879  76.0349899  94.1454245  92.5659230
  74.4243182  94.6729691  92.0231828  74.4084047  93.5066213  93.8460879
  75.1774155  92.9059554  94.3318060  73.7267417  92.8525913  93.3023217
  73.6694047  94.3436213  94.8310879  73.6339655  93.7779668  95.7621508
  72.6607333  94.6502893  94.5542554  74.5584047  95.5726213  95.0040879
  74.0263470  96.4942296  95.2399925  75.6164047  95.3126213  96.0660879
  76.7674047  95.0466213  95.7260879  75.2194047  95.3836213  97.3340879
  74.2750504  95.6808171  97.5340100  76.1404047  95.1706213  98.4670879
  77.1222976  94.8881126  98.0873848  76.2894047  96.4486213  99.3150879
  76.8209090  96.1839264 100.2291662  76.8910491  97.1486094  98.7353115
  74.9654047  97.0946213  99.6700879  73.9224047  96.4096213  99.7100879
  74.9674047  98.3136213  99.9250879  75.7924047  93.9786213  99.3670879
  76.5264047  93.6926213 100.3130879  74.6944047  93.2826213  99.0720879
  74.1080720  93.5738688  98.3030053  74.2704047  92.1356213  99.8700879
  75.1311573  91.6981562 100.3758828  73.2494047  92.5686213 100.9270879
  73.7318103  93.3280144 101.5424790  72.4093415  93.0136358 100.3938376
  72.7454047  91.4406213 101.8160879  72.2248520  90.7181868 101.1874274
  73.6074690  90.9622943 102.2810079  71.8014047  91.9446213 102.8970879
  72.3675123  92.5010253 103.6441058  71.0514414  92.5971397 102.4500151
  71.1194047  90.8306213 103.5590879  70.1579372  90.6748096 103.2918758
  71.6664047  90.0226213 104.4720879  72.9284047  90.1776213 104.8730879
  73.4913491  90.9200753 104.4832730  73.3157235  89.5518786 105.5648465
  70.9384047  89.0376213 104.9970879  69.9810286  88.9089399 104.7021776
  71.3473563  88.4242754 105.6874965  73.6904047  91.0426213  98.9740879
  72.8674047  91.3236213  98.1060879  74.1394047  89.8076213  99.1960879
  74.9118781  89.6823338  99.8345918  73.5924047  88.6246213  98.5270879
  72.6348808  88.8649254  98.0650261  74.5444047  88.1336213  97.4460879
  75.5049320  87.8803551  97.8948012  74.1243813  87.2501892  96.9652259
  74.6867381  88.9181423  96.7028738  73.3414047  87.5206213  99.5550879
  74.1294047  87.3326213 100.4870879  72.2374047  86.8016213  99.3850879
  71.5953122  87.0451265  98.6444654  71.8874047  85.6916213 100.2680879
  72.7408756  85.4573925 100.9043453  70.6874047  86.0446213 101.1650879
  70.2876855  85.1286399 101.6001775  71.1154047  86.9886213 102.2770879
  71.5148314  87.9050845 101.8427457  70.2551875  87.2282538 102.9021493
  71.8835244  86.5103680 102.8848433  69.6754047  86.6846213 100.3840879
  68.9283653  86.9036319 100.9458412  71.5774047  84.4506213  99.4380879
  70.9504047  84.5546213  98.3950879  72.0424047  83.2926213  99.9040879
  72.5915042  83.3010521 100.7517423  71.8184047  82.0116213  99.2360879
  71.3269631  82.1727152  98.2765917  73.1544047  81.3056213  98.9890879
  73.7557673  82.0820288  98.5161676  73.5692780  81.0721987  99.9696460
  73.1684047  80.0436213  98.1140879  72.4214256  79.3527983  98.5050951
  72.8624047  80.3486213  96.6580879  73.6092781  81.0390725  96.2662256
  72.8840950  79.4245364  96.0804224  71.8739131  80.8014648  96.5811635
  74.5194047  79.3556213  98.2240879  74.7020959  79.0763724  99.2617504
  74.5238952  78.4609877  97.6014228  75.3023590  80.0354600  97.8880807
  70.9134047  81.1456213 100.1130879  71.1514047  81.0086213 101.3160879
  69.8744047  80.5776213  99.5030879  69.7602434  80.7265166  98.5106683
  68.8814047  79.7636213 100.2000879  69.1311840  79.7022627 101.2593068
  67.4894047  80.3836213 100.0610879  67.2849149  80.4769924  98.9945210
  66.7777974  79.6890503 100.5075028  67.3534047  81.7346213 100.7190879
  67.7754047  82.8906213 100.0660879  68.2038806  82.8056034  99.0674489
  67.6574047  84.1366213 100.6670879  67.9910427  85.0318286 100.1423104
  67.1114047  84.2406213 101.9370879  67.0024047  85.4826213 102.5250879
  67.3326501  86.1915187 101.9683097  66.6824047  83.1076213 102.6080879
  66.2513046  83.1871619 103.6060490  66.8044047  81.8636213 102.0010879
  66.4700813  80.9672164 102.5233774  68.8634047  78.3576213  99.6280879
  69.2734047  78.1396213  98.4880879  68.3914047  77.4066213 100.4290879
  68.2778792  77.5994343 101.4139912  68.1274047  76.0546213  99.9550879
  68.0882994  76.0068603  98.8668375  69.1874047  75.0396213 100.4580879
  70.1736880  75.4826160 100.3198843  68.9914047  74.6836213 101.9300879
  68.0054501  74.2401175 102.0690079  69.7565201  73.9705109 102.2369635
  69.0721413  75.5857680 102.5364826  69.1694047  73.7856213  99.6030879
  69.3925990  74.0472369  98.5687555  69.9190048  73.0844059  99.9698254
  68.1836630  73.3234156  99.6558124  66.7094047  75.6396213 100.3520879
  66.2074047  76.0346213 101.4040879  66.0714047  74.8576213  99.4820879
  66.5204887  74.6575447  98.5998225  64.7234047  74.3276213  99.7120879
  64.5512185  74.1548279 100.7744408  63.6394047  75.2986213  99.1870879
  63.7496063  76.2495941  99.7082468  63.7634047  75.5266213  97.6780879
  63.6528385  74.5760955  97.1561918  62.9843182  76.2141248  97.3487518
  64.7414581  75.9521816  97.4535647  62.3354047  74.7856213  99.4860879
  61.6692194  75.3936037  99.1572190  64.6204047  72.9546213  99.0430879
  65.5344047  72.5516213  98.3220879  63.5294047  72.2346213  99.2950879
  62.7955186  72.6269745  99.8674248  63.3734047  70.8516213  98.8100879
  64.2279338  70.5851158  98.1881119  63.3104047  69.8926213  99.9840879
  62.4543037  70.1411022 100.6113425  63.2059222  68.8722716  99.6152109
  64.2256623  69.9745417 100.5703403  62.1264047  70.7226213  97.9470879
  61.1344047  71.4066213  98.1980879  62.1844047  69.8526213  96.9330879
  63.0386271  69.3411130  96.7634920  61.0614047  69.6596213  96.0060879
  60.1307377  69.9988922  96.4608992  61.2814047  70.4036213  94.6630879
  60.4258508  70.2206669  94.0129683  61.4284047  71.8986213  94.8980879
  62.2840948  72.0824075  95.5477939  61.5819583  72.4034941  93.9443450
  60.5246935  72.2832220  95.3708324  62.5114047  69.8676213  93.9110879
  63.3945479  70.1775789  94.4697338  62.4446264  68.7796698  93.9123878
  62.6164047  70.3636213  92.4880879  62.6836928  71.4515403  92.4860032
  63.5076203  69.9440939  92.0213645  61.7337696  70.0536329  91.9286576
  60.7464047  68.1996213  95.6810879  61.5914047  67.3096213  95.8180879
  59.5084047  67.9946213  95.2390879  58.8342956  68.7342046  95.3758091
  59.0714047  66.7776213  94.5720879  59.5834620  65.9115616  94.9914174
  57.5594047  66.5986213  94.7730879  57.3932374  66.5732432  95.8500483
  57.0862097  67.4865280  94.3537931  56.9544047  65.3516213  94.1360879
  57.6232421  64.5205575  94.3598971  55.9925052  65.1838081  94.6205331
  56.7534047  65.4496213  92.6290879  56.4474047  66.5456213  92.1090879
  56.9074047  64.4116213  91.9540879  59.4134047  66.9676213  93.0910879
  59.1814047  68.0436213  92.5370879  59.9514047  65.9276213  92.4530879
  60.0896954  65.0635667  92.9574535  60.4264047  66.0076213  91.0650879
  59.7107874  66.5494780  90.4467172  61.7744047  66.7626213  91.0370879
  61.7822579  67.4884076  91.8502741  62.5520083  66.0181048  91.2077568
  62.0364047  67.4766213  89.7170879  61.0754047  67.7646213  88.9690879
  63.2164047  67.7716213  89.4400879  60.5604047  64.6286213  90.3860879
  61.4904047  64.3896213  89.6200879  59.6074047  63.7396213  90.6520879
  58.8491882  64.0109509  91.2616674  59.6404047  62.3526213  90.1520879
  60.5254528  61.8379338  90.5261011  58.3894047  61.5976213  90.6390879
  58.5203204  61.4787023  91.7146429  57.5510577  62.2673723  90.4474950
  58.1074047  60.2356213  90.0070879  57.3208794  59.7680355  90.5994073
  57.7387606  60.4242294  88.9988069  59.3134047  59.3066213  89.9410879
  58.9810212  58.3358607  89.5733324  60.0370309  59.7300967  89.2445729
  59.9654047  59.1186213  91.2380879  59.3872020  59.2881936  92.0486594
  61.2324047  58.7346213  91.4270879  62.0504047  58.5156213  90.4060879
  61.7173547  58.6392231  89.4606249  63.0025253  58.2262760  90.5788463
  61.6984047  58.5806213  92.6580879  61.0943985  58.7540021  93.4487937
  62.6554153  58.2905842  92.7998906  59.7434047  62.2766213  88.6260879
  60.6734047  61.6656213  88.0900879  58.7864047  62.9076213  87.9520879
  58.1027683  63.4427513  88.4682045  58.6334047  62.8026213  86.5020879
  58.5118479  61.7576666  86.2167934  57.3984047  63.5836213  86.0390879
  56.5827634  63.3030054  86.7054835  57.6285307  64.6406747  86.1724300
  56.9824047  63.3326213  84.5930879  57.7477559  63.7581668  83.9440505
  56.9220658  62.2571750  84.4261253  55.6354047  63.9586213  84.2350879
  54.8404047  64.3166213  85.1080879  55.3724047  64.0816213  82.9380879
  54.4973763  64.4883221  82.6397238  56.0487855  63.7678262  82.2568074
  59.8754047  63.2816213  85.7540879  60.3704047  62.5846213  84.8700879
  60.3864047  64.4526213  86.1240879  59.9369585  65.0089934  86.8372131
  61.5444047  65.0186213  85.4290879  61.4446901  64.8396064  84.3585227
  61.6584047  66.5256213  85.6640879  60.6496160  66.9381569  85.6479982
  62.0938215  66.6702977  86.6528149  62.5114047  67.2346213  84.6270879
  62.0504047  67.4156213  83.3190879  61.0629735  67.0387357  83.0525614
  62.8284047  68.0636213  82.3650879  62.4570482  68.1992993  81.3493184
  64.0864047  68.5416213  82.7150879  64.8704047  69.1836213  81.7850879
  64.4528315  69.2484850  80.9230990  64.5654047  68.3746213  84.0040879
  65.5523346  68.7476137  84.2778515  63.7804047  67.7276213  84.9500879
  64.1500729  67.5957761  85.9669765  62.8544047  64.3156213  85.7910879
  63.7284047  64.1796213  84.9310879  62.9924047  63.8666213  87.0400879
  62.3191763  64.1023069  87.7551509  64.1694047  63.0796213  87.4250879
  65.0658125  63.6568814  87.1985417  64.1794047  62.7246213  88.9150879
  63.9462096  63.6305503  89.4745626  63.3997754  61.9821661  89.0854946
  65.5204047  62.1696213  89.3830879  65.8222148  61.3909052  88.6826503
  66.2458837  62.9826822  89.3563619  65.4594047  61.5916213  90.7870879
  65.2835784  62.4053997  91.4906139  64.6314458  60.8843869  90.8361089
  66.7554047  60.8806213  91.1480879  67.0721744  60.2860597  90.2912017
  67.5121626  61.6340676  91.3665723  66.5834047  59.9946213  92.3290879
  65.8825245  59.2961220  92.1266886  67.4605282  59.5403132  92.5397027
  66.2902931  60.5454247  93.1233173  64.2664047  61.8056213  86.5900879
  65.3554047  61.4476213  86.1510879  63.1364047  61.1366213  86.3710879
  62.2917997  61.4079836  86.8538965  63.0984047  59.9386213  85.5200879
  63.8623562  59.2348071  85.8504254  61.7244047  59.2446213  85.5940879
  60.9559076  60.0158076  85.5413332  61.6399298  58.5883818  84.7278813
  61.5384047  58.4266213  86.8730879  62.4614047  58.3826213  87.7200879
  60.4574047  57.8216213  87.0410879  63.4704047  60.2206213  84.0630879
  64.1174047  59.3976213  83.4210879  63.0654047  61.3826213  83.5590879
  62.4702395  61.9760501  84.1191949  63.3944047  61.8146213  82.1990879
  63.1955902  61.0117014  81.4892346  62.5324047  63.0256213  81.8230879
  61.5056135  62.8029445  82.1132845  62.9126841  63.8442892  82.4340465
  62.5684047  63.4276213  80.3600879  62.1264047  62.5516213  79.3640879
  61.7645804  61.5655152  79.6552535  62.1424047  62.9176213  78.0250879
  61.8056065  62.2179055  77.2601914  62.5904047  64.1836213  77.6610879
  62.6004047  64.5396213  76.3290879  62.2803287  63.8423561  75.7520504
  63.0244047  65.0826213  78.6270879  63.3712705  66.0767012  78.3449716
  63.0134047  64.7026213  79.9690879  63.3537044  65.3989726  80.7355023
  64.8834047  62.1516213  82.0370879  65.4514047  61.9206213  80.9690879
  65.5024047  62.6816213  83.0950879  64.9624796  62.8562194  83.9306091
  66.9074047  63.1166213  83.0690879  67.2372234  63.2491351  82.0386710
  67.0614047  64.4586213  83.8120879  66.4365884  64.4028321  84.7034864
  68.1075145  64.5413992  84.1068796  66.6664047  65.6826213  82.9900879
  65.6083127  65.6115871  82.7381033  66.8378816  66.5784313  83.5869314
  67.4894047  65.7606213  81.7090879  68.4210104  65.2265550  81.8961255
  66.9233632  65.2425962  80.9349132  67.7984047  67.1656213  81.2510879
  66.8788311  67.6665201  80.9484573  68.2660092  67.7243648  82.0617980
  68.7314047  67.0986213  80.0920879  68.2981330  66.5812852  79.3405969
  68.9450062  68.0342535  79.7773392  69.5837374  66.6348921  80.3724150
  67.9274047  62.1046213  83.6200879  69.0564047  62.0516213  83.1290879
  67.5414047  61.3236213  84.6290879  66.5908064  61.3893047  84.9639728
  68.4644047  60.4176213  85.3260879  69.4913136  60.5694893  84.9936822
  68.3864047  60.6026213  86.8670879  67.3772039  60.3527110  87.1944394
  69.3924047  59.7076213  87.5900879  70.4019407  59.9572760  87.2635756
  69.3101962  59.8629050  88.6658339  69.1835764  58.6634629  87.3572290
  68.6064047  62.0756213  87.2480879  67.7455319  62.6280867  86.8715502
  68.6171449  62.1188135  88.3371786  69.8834047  62.6956213  86.7040879
  69.8731796  62.6532102  85.6149614  69.9491570  63.7348894  87.0261091
  70.7447930  62.1439352  87.0805883  68.1854047  58.9686213  84.9500879
  69.0224047  58.3126213  84.3340879  66.9974047  58.4816213  85.2990879
  66.3467207  59.0636082  85.8070257  66.6594047  57.0686213  85.1030879
  67.5149494  56.4434103  85.3585359  65.4784047  56.6746213  86.0010879
  64.6528826  57.3526074  85.7844150  65.1521190  55.6456721  85.8497562
  65.7794047  56.8186213  87.4630879  66.4144047  55.8336213  88.1930879
  66.7047651  54.9405397  87.8213409  66.5764047  56.2466213  89.4380879
  67.0546401  55.6044792  90.1777118  66.0794047  57.4666213  89.5410879
  65.5844047  57.8526213  88.3170879  65.1413198  58.8410507  88.1954974
  66.4234047  56.6826213  83.6340879  66.4344047  55.5056213  83.2990879
  66.2254047  57.6786213  82.7750879  66.0374661  58.5969314  83.1512327
  66.1924047  57.5036213  81.3210879  65.3546188  56.8695986  81.0308654
  66.0214047  58.8766213  80.6570879  65.0503714  59.2928250  80.9253565
  66.8098828  59.5520498  80.9890498  66.0784047  58.8536213  79.1760879
  65.0374047  58.6756213  78.3210879  64.0509818  58.5403884  78.7646887
  65.4844047  58.7076213  77.0220879  64.9062824  58.6076769  76.1999655
  66.8394047  58.9066213  77.0220879  67.7384047  59.0126213  75.9560879
  67.3533696  58.9277994  74.9398931  69.0604047  59.2186213  76.2610879
  69.7910618  59.3046867  75.4568286  69.4964047  59.3216213  77.5890879
  70.5486968  59.4869667  77.8202625  68.6044047  59.2166213  78.6490879
  68.9955073  59.2891806  79.6639153  67.2474047  59.0096213  78.3670879
  67.4324047  56.7866213  80.7490879  67.3194047  56.0216213  79.7880879
  68.5984047  57.0406213  81.3370879  68.6364249  57.7359042  82.0686858
  69.8574047  56.4116213  80.9060879  69.9867213  56.5418820  79.8316538
  71.0514047  57.0536213  81.6250879  70.8889660  57.0405354  82.7028363
  71.9618917  56.5029576  81.3886921  71.3034047  58.4806213  81.2470879
  70.9254047  59.5946213  81.9400879  70.3803302  59.4301292  82.8695694
  71.3334047  60.7256213  81.2840879  71.1794938  61.6744494  81.5941461
  71.9914047  60.3596213  80.1400879  72.5904047  61.1456213  79.1490879
  72.5562791  62.2299436  79.2548198  73.1884047  60.4946213  78.0970879
  73.6592412  61.0759650  77.3043380  73.2084047  59.0936213  78.0170879
  73.6866038  58.5851451  77.1799039  72.6184047  58.3126213  79.0040879
  72.6664085  57.2287295  78.8993267  71.9934047  58.9486213  80.0870879
  69.9104047  54.8826213  81.0950879  70.7064047  54.2156213  80.4380879
  69.0754047  54.3376213  81.9820879  68.4992927  54.9437124  82.5485222
  69.0134047  52.8796213  82.2280879  70.0169705  52.4943507  82.4084249
  68.1414047  52.5726213  83.4560879  67.1682548  53.0302734  83.2782311
  68.0295282  51.4894645  83.5046177  68.7114047  53.0856213  84.7790879
  69.4932437  52.3902609  85.0845426  69.1518082  54.0630777  84.5823067
  67.6744047  53.2096213  85.8970879  66.5694047  52.6186213  85.7970879
  67.9704047  53.9096213  86.8920879  68.5064047  52.0506213  81.0380879
  68.8284047  50.8636213  80.9390879  67.7124047  52.6656213  80.1550879
  67.4475428  53.6260651  80.3209045  67.1424047  51.9776213  78.9900879
  67.7875047  51.1509033  78.6926275  65.7524047  51.4166213  79.3360879
  65.8188120  50.8808397  80.2829920  65.0609986  52.2528288  79.4400808
  65.2094047  50.4636213  78.2730879  65.7464047  50.3526213  77.1690879
  64.1344047  49.7656213  78.6110879  63.7281560  49.1183051  77.9507520
  63.7265140  49.8843136  79.5274056  67.0794047  52.9136213  77.7750879
  66.0434047  53.5226213  77.4950879  68.1974047  52.9936213  77.0570879
  69.0054075  52.4797595  77.3782998  68.3344047  53.8246213  75.8600879
  67.5093563  54.5287731  75.7525491  69.6654047  54.6216213  75.8930879
  70.4953126  53.9149925  75.8983814  69.7864047  55.5366213  74.6830879
  68.9570382  56.2438831  74.6773626  70.7285031  56.0826105  74.7325543
  69.7604600  54.9396644  73.7714570  69.7704047  55.4236213  77.1850879
  69.7411401  54.7452971  78.0378024  70.7090926  55.9775904  77.1942000
  68.9361686  56.1222875  77.2484640  68.2574047  52.9116213  74.6290879
  69.2654047  52.3486213  74.2060879  67.0454047  52.7616213  74.0860879
  66.2803586  53.2446884  74.5349197  66.7384047  51.8576213  72.9640879
  65.6596569  51.8240897  72.8115171  67.4044047  52.3346213  71.6620879
  68.4840809  52.3122563  71.8100694  67.1297853  51.6208401  70.8854280
  66.9844047  53.7176213  71.2430879  65.8024047  53.9236213  70.5350879
  65.1844484  53.0623801  70.2811330  65.4074047  55.1966213  70.1540879
  64.4825309  55.3440164  69.5964277  66.1954047  56.2806213  70.4820879
  65.8024047  57.5456213  70.1070879  64.9714175  57.5532018  69.6264608
  67.3724047  56.0996213  71.1870879  67.9943651  56.9564970  71.4459892
  67.7584047  54.8266213  71.5630879  68.6837370  54.6799259  72.1201703
  67.0994047  50.3986213  73.2700879  67.6074047  49.6776213  72.4050879
  66.8234047  49.9726213  74.5050879  66.3767921  50.6059720  75.1527787
  67.1414047  48.6196213  74.9650879  66.3925665  48.3630029  75.7144126
  67.0297016  47.9643054  74.1012691  68.5284047  48.4206213  75.5620879
  68.8364047  47.3216213  76.0290879  69.3594047  49.4646213  75.5540879
  69.0313281  50.3451033  75.1836606  70.7384047  49.3816213  76.0200879
  71.0054516  48.3396899  76.1966215  71.6954047  49.9616213  74.9760879
  71.4081534  50.9860810  74.7393005  72.7185343  49.9493122  75.3517931
  71.7054047  49.2086213  73.6800879  72.1354047  47.8866213  73.6360879
  72.4684947  47.4075772  74.5567766  72.1444047  47.1796213  72.4450879
  72.4795693  46.1425750  72.4277555  71.7264047  47.7926213  71.2740879
  71.7308822  47.2399897  70.3345784  71.3024047  49.1106213  71.3000879
  70.9762135  49.5949617  70.3797001  71.2924047  49.8166213  72.4990879
  70.9591882  50.8542709  72.5177941  70.9224047  50.1186213  77.3430879
  70.3964047  51.2166213  77.5400879  71.6814047  49.4946213  78.2370879
  72.0559681  48.5881615  77.9959815  71.9864047  50.0386213  79.5470879
  71.1092752  50.5167287  79.9831571  72.4194047  48.8836213  80.4590879
  71.6484836  48.1144311  80.4129762  73.3509199  48.4884377  80.0538602
  72.6324047  49.2996213  81.9020879  72.3344047  50.4556213  82.2780879
  73.1014047  48.4366213  82.6720879  73.1014047  51.0766213  79.4280879
  74.2044047  50.7426213  79.0090879  72.8114047  52.3286213  79.7800879
  71.8511350  52.5833940  79.9619459  73.8344047  53.3796213  79.8440879
  74.8113021  52.9527257  79.6170837  73.5394047  54.4946213  78.8320879
  72.5808368  54.9303818  79.1137962  74.3252525  55.2410778  78.9476131
  73.4824047  54.0396213  77.3830879  74.3310864  53.3851578  77.1842973
  72.5549362  53.4903738  77.2211271  73.5424047  55.4466213  76.2570879
  73.6784047  54.6026213  74.6830879  72.8088452  53.9616911  74.5375757
  73.7262432  55.3372407  73.8792555  74.5830072  53.9945930  74.6732298
  73.9384047  53.9476213  81.2610879  74.0994047  55.1586213  81.4430879
  73.8764047  53.0576213  82.2550879  73.7322760  52.0850588  82.0238987
  73.9304047  53.4366213  83.6770879  73.1590735  54.1775550  83.8872415
  73.6974047  52.2166213  84.5790879  74.3311346  51.4009606  84.2309739
  73.9742845  52.4810280  85.5996400  72.3414047  51.8066213  84.5490879
  72.2249719  51.0440466  85.1205099  75.2294047  54.1236213  84.1030879
  75.2204047  54.8966213  85.0570879  76.3374047  53.8476213  83.4170879
  76.3368079  53.1293449  82.7070330  77.6064047  54.5096213  83.7350879
  77.7971295  54.4399098  84.8060051  78.7654047  53.8516213  82.9890879
  79.7099960  54.3301588  83.2476383  78.8205035  52.7889154  83.2251394
  78.6254047  53.9586213  81.1940879  79.7556474  53.3102157  80.9275921
  77.5794047  56.0186213  83.4490879  78.3344047  56.7766213  84.0670879
  76.7234047  56.4486213  82.5170879  76.2919123  55.7831974  81.8916883
  76.4694047  57.8806213  82.2950879  77.3944910  58.4368043  82.4466629
  75.9214047  58.1676213  80.8740879  75.1106082  57.4694436  80.6661038
  75.4014047  59.5996213  80.7610879  76.2118059  60.2984285  80.9684984
  75.0235672  59.7710406  79.7531420  74.5972931  59.7525853  81.4808834
  77.0324047  57.9356213  79.8430879  77.7478838  58.7492616  79.9621673
  77.5106960  56.9910624  80.1022125  76.5614047  57.8846213  78.4050879
  76.0833853  58.8290734  78.1450736  77.4150598  57.7171463  77.7483349
  75.8461953  57.0708751  78.2851194  75.5364047  58.4396213  83.3760879
  75.7424047  59.5566213  83.8420879  74.5194047  57.6716213  83.7660879
  74.3363738  56.8035949  83.2832533  73.6164047  58.0656213  84.8600879
  73.0478358  58.9486799  84.5684786  72.6354047  56.9366213  85.1810879
  72.1690475  56.6410794  84.2412660  73.2214754  56.1051231  85.5725365
  71.5594047  57.3126213  86.1830879  72.0444203  57.6934406  87.0818856
  70.9403684  58.0957367  85.7453364  70.6884047  56.1216213  86.5440879
  69.7734037  56.4918639  87.0064649  70.4407575  55.5859014  85.6276958
  71.3964047  55.1806213  87.5050879  72.2114127  54.6909882  86.9720570
  71.8026528  55.7684274  88.3282195  70.4664047  54.1506213  88.0430879
  70.0901858  53.6055558  87.2805509  70.9666157  53.5432927  88.6763659
  69.7113548  54.6041020  88.5374096  74.3584047  58.4446213  86.1440879
  74.0244047  59.4436213  86.7830879  75.3544047  57.6376213  86.5090879
  75.5710578  56.8342915  85.9365304  76.0904047  57.8146213  87.7670879
  75.3851010  57.9588504  88.5855278  76.9564047  56.5816213  88.0760879
  77.6380998  56.4396554  87.2374958  77.5303101  56.7917120  88.9786369
  76.1294047  55.3096213  88.2820879  74.9534047  55.4066213  88.6980879
  76.6594047  54.2066213  88.0310879  76.9504047  59.0766213  87.8040879
  77.3254047  59.5216213  88.8880879  77.2644047  59.6446213  86.6380879
  77.1208072  59.1245421  85.7842748  77.9164047  60.9586213  86.5520879
  78.3702506  61.2304624  87.5050966  79.0114047  60.9746213  85.4610879
  78.5319192  60.9376032  84.4829148  79.8664047  62.2396213  85.5620879
  80.3466129  62.2771084  86.5398894  80.6291638  62.2263655  84.7835486
  79.2333489  63.1177778  85.4348752  79.8964047  59.7366213  85.5880879
  79.2873764  58.8403485  85.4702672  80.6644874  59.7575703  84.8149710
  80.3699403  59.7270298  86.5698073  76.9084047  62.1026213  86.3340879
  77.0984047  63.1946213  86.8650879  75.8494047  61.8576213  85.5680879
  75.7882873  60.9797102  85.0724709  74.7934047  62.8596213  85.3460879
  75.2844812  63.7408301  84.9332756  73.7844047  62.3436213  84.3290879
  73.2779160  61.4664937  84.7318490  73.0504595  63.1213254  84.1178986
  74.3015363  62.0731491  83.4084799  74.0664047  63.2896213  86.6320879
  73.6914047  64.4576213  86.7770879  73.8714047  62.3456213  87.5510879
  74.1242430  61.3927519  87.3315155  73.2024047  62.6106213  88.8290879
  72.3264723  63.2502493  88.7208403  72.7924047  61.2856213  89.5300879
  72.3375945  60.6347717  88.7833330  73.9884047  60.5716213  90.1690879
  74.4434861  61.2217177  90.9163337  73.6505455  59.6515823  90.6460367
  74.7230609  60.3330028  89.4000361  71.6834047  61.5256213  90.5560879
  72.1108143  62.0983933  91.3791031  70.9040543  62.1134870  90.0711896
  71.0864047  60.2406213  91.0920879  71.8651187  59.6523941  91.5775703
  70.3055728  60.4760853  91.8152459  70.6583606  59.6674865  90.2696558
  74.0384047  63.4896213  89.7700879  73.4784047  64.1696213  90.6280879
  75.3644047  63.4836213  89.5850879  75.7476295  62.8478252  88.9002511
  76.2944047  64.3386213  90.3410879  75.9203793  64.4616875  91.3574829
  77.7084047  63.7296213  90.4070879  78.1470294  63.9105583  89.4257778
  78.2407937  64.3157890  91.1561336  77.8204047  62.2476213  90.7480879
  77.2954182  61.6950325  89.9688988  78.8790186  61.9888840  90.7258651
  77.2394047  61.8856213  92.1040879  77.5690845  62.6196299  92.8393712
  76.1513961  61.8999173  92.0398045  77.7044047  60.4986213  92.5280879
  77.6051378  59.8331990  91.6704984  78.7539589  60.5679060  92.8139809
  76.9154047  59.9596213  93.6670879  75.9428987  59.8949364  93.4022340
  77.2597450  59.0419349  93.9107709  77.0075979  60.5758474  94.4619872
  76.4334047  65.7426213  89.7430879  77.2534047  66.5186213  90.2190879
  75.6804047  66.0716213  88.6930879  75.0958829  65.3792699  88.2469005
  75.7484047  67.4046213  88.1020879  76.5146648  67.9897170  88.6106228
  76.0974047  67.3296213  86.6150879  75.3662063  66.6898457  86.1209873
  76.0417760  68.3345416  86.1965898  77.5024047  66.7626213  86.3950879
  78.1400114  67.1392751  87.1948944  77.4047704  65.6809735  86.4878496
  78.1244047  67.1016213  85.0490879  77.9214047  68.2246213  84.5320879
  78.8474047  66.2356213  84.5100879  74.4344047  68.1346213  88.3460879
  73.3704047  67.6096213  88.0170879  74.4994047  69.3296213  88.9630879
  75.6434047  69.9606213  89.6440879  76.2293182  70.5325042  88.9245356
  76.2717729  69.1924538  90.0948330  74.9864047  70.8246213  90.6610879
  75.6313572  71.6711044  90.8968880  74.7981114  70.2485262  91.5670468
  73.7154047  71.2686213  90.0430879  73.9089254  72.1399866  89.4174911
  72.9386006  71.5085402  90.7691139  73.2694047  70.0886213  89.1700879
  72.5521315  69.4380820  89.6705038  72.6714047  70.5926213  87.8650879
  73.4104047  70.9176213  86.9300879  71.3424047  70.6406213  87.8220879
  70.8199218  70.3011535  88.6169920  70.6014047  71.1496213  86.6740879
  71.2385396  71.1290484  85.7899300  69.3594047  70.2966213  86.4020879
  68.9881242  70.0722540  87.4020426  68.6331174  70.9161114  85.8759333
  69.5694047  68.9906213  85.6310879  70.0759598  69.2298258  84.6960564
  70.3994047  67.9776213  86.4140879  69.8932262  67.7375574  87.3491021
  70.5184744  67.0698860  85.8225308  71.3802807  68.4007398  86.6307754
  68.2104047  68.4086213  85.2660879  67.6652923  69.1191696  84.6447403
  68.3490417  67.4776760  84.7163408  67.6427232  68.2118303  86.1755438
  70.1794047  72.5836213  86.9530879  69.6384047  72.8706213  88.0170879
  70.4354047  73.4776213  86.0040879  71.0297293  73.2294049  85.2260993
  69.9134047  74.8346213  86.0680879  69.6259273  75.0902782  87.0879386
  70.9374047  75.8786213  85.5670879  71.2144307  75.6363676  84.5410913
  70.3444047  77.2826213  85.6150879  70.0675427  77.5257830  86.6409148
  71.0819420  78.0015014  85.2582258  69.4592325  77.3256209  84.9804835
  72.2094047  75.8176213  86.4010879  72.6491185  74.8234009  86.3218440
  72.9200769  76.5588378  86.0355162  71.9711208  76.0268815  87.4439358
  68.6494047  74.8606213  85.2210879  68.7314047  74.7606213  84.0030879
  67.4904047  74.9616213  85.8680879  67.4820422  74.9131922  86.8768912
  66.2024047  75.0766213  85.1640879  66.3143480  75.7300678  84.2988853
  65.7194047  73.6956213  84.6790879  66.5981029  73.0596198  84.5718923
  65.0632658  73.2818406  85.4448341  64.9654047  73.7596213  83.3370879
  64.2174047  74.7386213  83.0830879  65.1214047  72.8146213  82.5300879
  65.1504047  75.7276213  86.0610879  65.3984047  75.9586213  87.2460879
  63.9844047  76.0326213  85.4950879  63.8374565  75.8416251  84.5142586
  62.9084047  76.6826213  86.2440879  63.3078447  77.3852443  86.9754345
  61.9154047  77.4366213  85.3240879  61.4676801  76.7253898  84.6299757
  60.8144047  78.1046213  86.1500879  61.2613539  78.8163794  86.8441612
  60.1278232  78.6285771  85.4851243  60.2685143  77.3454990  86.7103010
  62.6434047  78.4706213  84.4690879  63.3862808  77.9707577  83.8474982
  61.9251487  78.9866292  83.8319508  63.1393622  79.1938627  85.1164277
  62.1554047  75.6336213  87.0580879  61.6484047  74.6616213  86.5010879
  62.0994047  75.8386213  88.3700879  62.6375652  76.5962668  88.7656330
  61.3204047  74.9986213  89.2730879  61.1689449  73.9933554  88.8798963
  62.0084047  74.8906213  90.6550879  62.1897307  75.8975940  91.0308886
  61.1424047  74.1246213  91.6510879  60.9610219  73.1173298  91.2761678
  61.6557122  74.0675274  92.6109609  60.1910323  74.6410912  91.7785674
  63.3784047  74.2366213  90.5100879  64.0005770  74.8383952  89.8476138
  63.8532120  74.1658492  91.4886833  63.2620288  73.2375058  90.0901762
  59.9244047  75.6016213  89.4170879  59.7834047  76.7806213  89.7290879
  58.9014047  74.7866213  89.1810879  59.0893941  73.8548892  88.8395698
  57.5094047  75.1796213  89.3920879  57.3148718  76.1488648  88.9329331
  56.5834047  74.1366213  88.7480879  56.9497930  73.9909463  87.7319001
  56.6733263  73.2030665  89.3035063  55.1164047  74.5636213  88.7040879
  54.6574047  75.3686213  89.5420879  54.3954047  74.0556213  87.8200879
  57.2884047  75.2446213  90.9100879  57.5784047  74.2696213  91.6010879
  56.7874047  76.3856213  91.4400879  56.4664047  77.6616213  90.7760879
  55.9531024  77.4655912  89.8347095  57.3855281  78.2137757  90.5800351
  55.5904047  78.3486213  91.7760879  54.5547579  78.0373247  91.6395993
  55.6634718  79.4293295  91.6543000  56.1134047  77.9276213  93.1020879
  55.3506219  77.9572850  93.8801506  56.9504921  78.5635189  93.3902172
  56.5974047  76.4836213  92.9000879  57.5810871  76.3354262  93.3456275
  55.6044047  75.4906213  93.5140879  55.6844047  75.2296213  94.7140879
  54.6964047  74.9366213  92.7110879  54.5541444  75.3150550  91.7855344
  53.8284047  73.8326213  93.1550879  53.2900142  74.1280504  94.0556191
  52.8084047  73.4756213  92.0700879  53.3492152  73.3671126  91.1299554
  52.3568783  72.5212884  92.3411463  51.7224047  74.5206213  91.9100879
  51.1431111  74.5589721  92.8326110  52.1970557  75.4868708  91.7392944
  50.8024047  74.1976213  90.7490879  51.3883568  74.1626598  89.8306453
  50.3402791  73.2256669  90.9218423  49.7194047  75.2576213  90.6190879
  49.0140853  75.1266566  91.4397421  50.1903015  76.2374601  90.6982788
  48.9934047  75.1586213  89.3190879  48.5566291  74.2509095  89.2456976
  48.2855217  75.8775775  89.2732239  49.6467199  75.2803746  88.5585259
  54.5804047  72.5606213  93.5720879  54.0124047  71.7166213  94.2640879
  55.8354047  72.4236213  93.1310879  56.1776307  73.0822589  92.4461227
  56.7074047  71.3126213  93.5230879  56.1146551  70.4129049  93.6881862
  57.7304047  71.0296213  92.4120879  58.2526903  71.9644670  92.2086658
  58.4366469  70.2970395  92.8027872  57.1114047  70.5006213  91.1190879
  56.6510303  69.5354804  91.3304157  56.3469536  71.2016472  90.7840071
  58.1304047  70.3196213  90.0000879  57.7574047  70.7256213  88.7890879
  59.2384047  69.8156213  90.2190879  59.8981178  69.7053587  89.4623037
  59.4780479  69.5167926  91.1536327  57.4294047  71.5196213  94.8620879
  58.0464047  70.5836213  95.3680879  57.3624047  72.7226213  95.4330879
  56.9304387  73.4903255  94.9389878  57.9624047  72.9896213  96.7460879
  59.0014723  72.6603556  96.7414111  57.9234047  74.4876213  97.0880879
  56.8794061  74.7556205  96.9257844  58.1740005  74.6252030  98.1399306
  58.8224047  75.3866213  96.2260879  58.7343256  75.0750213  95.1852957
  58.4154047  76.8476213  96.3540879  58.5036729  77.1600969  97.3946005
  59.0675498  77.4626692  95.7339883  57.3831017  76.9678843  96.0254733
  60.2994047  75.2096213  96.5710879  60.5906734  74.1728446  96.4026953
  60.9014140  75.8627915  95.9393802  60.4619006  75.4667058  97.6177978
  57.2684047  72.1856213  97.8450879  56.0484047  72.2586213  97.9960879
  58.0594047  71.4096213  98.5830879  59.0345846  71.3464381  98.3278791
  57.5804047  70.5946213  99.7000879  56.4939829  70.5090601  99.7216747
  58.1854047  69.1766213  99.6160879  59.2716185  69.2648003  99.6376152
  57.7234047  68.2956213 100.7750879  56.6372521  68.2065898 100.7539479
  58.1704637  67.3060236 100.6805619  58.0323261  68.7446395 101.7190433
  57.8224047  68.5476213  98.2800879  58.2190311  69.1596671  97.4700327
  58.2496784  67.5465899  98.2211560  56.7379302  68.4850946  98.1900526
  57.9004047  71.2296213 101.0610879  57.1874047  70.9846213 102.0410879
  58.9644047  72.0286213 101.1260879  59.4923664  72.2087431 100.2841188
  59.4124047  72.6496213 102.3710879  58.7185659  72.4258993 103.1814183
  60.8284047  72.1556213 102.7790879  61.0714879  72.5740484 103.7557811
  60.8924047  70.6376213 102.8480879  60.6498754  70.2184605 101.8715720
  61.8971705  70.3285297 103.1361976  60.1760984  70.2764145 103.5860144
  61.8064047  72.6296213 101.8430879  62.6763512  72.3189795 102.1044213
  59.4644047  74.1706213 102.2470879  59.2504047  74.7296213 101.1750879
  59.7654047  74.8226213 103.3660879  59.6590502  74.3470716 104.2507577
  60.1544047  76.2326213 103.3790879  59.5256557  76.7951885 102.6889488
  59.9884047  76.8266213 104.7930879  60.1890235  77.8960824 104.7290241
  58.9621340  76.6692322 105.1248968  60.9324047  76.2146213 105.8220879
  61.6604047  75.2546213 105.5500879  60.9094047  76.7646213 107.0220879
  61.5108576  76.4063141 107.7500784  60.2904635  77.5411412 107.2065585
  61.5934047  76.3856213 102.8470879  62.1844047  75.4196213 102.3500879
  62.1364047  77.5966213 102.9320879  61.5813536  78.3551598 103.3017321
  63.4984047  77.8856213 102.4930879  63.9182888  77.0450992 101.9405310
  63.5044047  79.1086213 101.5940879  63.0951749  79.9609241 102.1364999
  64.5268282  79.3302625 101.2881048  62.8955254  78.9141706 100.7111642
  64.3824047  78.1266213 103.7040879  63.9204047  78.6636213 104.7110879
  65.6494047  77.7296213 103.5960879  65.9386945  77.2205935 102.7731046
  66.6364047  77.9656213 104.6470879  66.1921477  78.5784447 105.4314235
  67.1104047  76.6516213 105.2640879  66.2664194  76.0467545 105.5956361
  67.7107881  76.0798388 104.5564831  68.1544047  76.8996213 106.7230879
  68.3601140  75.6086350 106.9679069  67.8344047  78.7326213 104.0970879
  68.4354047  78.3256213 103.0970879  68.1674047  79.8356213 104.7680879
  67.5600411  80.1443249 105.5136822  69.3564047  80.6306213 104.4690879
  69.3638331  80.9205886 103.4183915  69.3494047  81.9026213 105.3290879
  68.4269353  82.3816944 105.0010052  69.2324044  81.5547144 106.3554269
  70.5024047  82.9126213 105.2600879  71.4182256  82.4014416 105.5568511
  70.6764047  83.4956213 103.8630879  69.7610866  84.0073934 103.5657987
  71.5042250  84.2047120 103.8652553  70.8885492  82.6923979 103.1574482
  70.2334047  84.0146213 106.2760879  70.1746437  83.5821968 107.2749151
  71.0421945  84.7446326 106.2437797  69.2905594  84.5069356 106.0378271
  70.6144047  79.8166213 104.7560879  70.7434047  79.2466213 105.8350879
  71.5204047  79.7486213 103.7790879  71.2846904  80.1149109 102.8678415
  72.8064047  79.0366213 103.9370879  72.9303209  78.7259503 104.9745018
  72.9034047  77.7946213 103.0100879  73.9234528  77.4110547 103.0319742
  71.9454047  76.7126213 103.4810879  70.9250349  77.0953218 103.4590336
  72.0224973  75.8468961 102.8233057  72.2007052  76.4186224 104.4991672
  72.5974047  78.1496213 101.5550879  71.5263199  78.3398862 101.4866965
  73.1438288  79.0637998 101.3231444  72.9814047  77.0686213 100.5680879
  72.4349947  76.1542049 100.7991259  72.7336917  77.3938284  99.5576534
  74.0525039  76.8781169 100.6355755  74.0564047  79.9146213 103.7660879
  75.1494047  79.4926213 104.1370879  73.9134047  81.1206213 103.2130879
  73.0175442  81.4113388 102.8483736  75.0504047  82.0396213 103.0800879
  75.6877532  81.9773180 103.9621335  75.8834047  81.6646213 101.8450879
  76.0526737  80.5892981 101.9010095  75.2660571  81.8899869 100.9754947
  77.2184047  82.3816213 101.7180879  77.6832009  82.0709569 100.7823780
  77.0265582  83.4542206 101.6893171  78.1514047  82.0646213 102.8770879
  77.7253659  82.4858341 103.7876754  78.2216537  80.9814581 102.9766977
  79.5344047  82.6416213 102.6530879  79.9619596  82.1857283 101.7600823
  79.4432774  83.7174004 102.5031072  80.4194047  82.3776213 103.8150879
  80.5043233  81.3808263 103.9539703  81.3324377  82.7720643 103.6393449
  80.0236193  82.8003432 104.6425897  74.5854047  83.4856213 102.9680879
  73.7674047  83.7906213 102.1110879  75.0924047  84.3486213 103.8530879
  75.6292363  83.9752598 104.6228362  74.9484047  85.8056213 103.7470879
  74.1470474  86.0401488 103.0464293  74.6124047  86.4296213 105.0990879
  75.4872895  86.2787081 105.7314653  74.4750150  87.4956922 104.9182096
  73.3844047  85.8726213 105.7940879  72.5299094  85.9933697 105.1282363
  73.5591008  84.8114206 105.9713831  73.0974047  86.5686213 107.1200879
  73.1774047  87.8146213 107.1800879  72.7824047  85.8686213 108.1040879
  76.2714047  86.4076213 103.2920879  77.3154047  86.1016213 103.8660879
  76.2254047  87.2776213 102.2880879  75.3436175  87.4648534 101.8325720
  77.4154047  87.9636213 101.7990879  78.2997894  87.6752734 102.3672590
  77.6704047  87.6686213 100.3070879  76.7888825  87.9621600  99.7371294
  78.8854047  88.4376213  99.7960879  79.7674677  88.1442537 100.3652990
  79.0422526  88.2110583  98.7414939  78.7155811  89.5076182  99.9159553
  77.8604047  86.1786213 100.0930879  76.9639194  85.6477908 100.4134551
  78.0396887  85.9828177  99.0359134  78.7142985  85.8332949 100.6759396
  77.2334047  89.4606213 101.9980879  76.3324047  90.0506213 101.4090879
  78.0774047  90.0506213 102.8470879  78.6497953  89.4633858 103.4366835
  78.2044047  91.5016213 102.9810879  77.3060833  91.9858078 102.5980981
  78.3854047  91.8976213 104.4540879  77.4846125  91.5982831 104.9898764
  79.2399153  91.3441346 104.8434003  78.6184047  93.3956213 104.6470879
  78.2504047  94.1946213 103.7590879  79.1754047  93.7806213 105.6960879
  79.4194047  91.9026213 102.1490879  80.5554047  91.6326213 102.5360879
  79.1754047  92.5556213 101.0150879  78.2224199  92.7961156 100.7825330
  80.2164047  92.7796213 100.0040879  80.8386575  91.8865726  99.9460813
  79.5904047  93.0656213  98.6110879  78.9468371  93.9410955  98.6974945
  80.6584047  93.3226213  97.5530879  81.3021233  92.4473477  97.4657765
  80.1801543  93.5184501  96.5933857  81.2573141  94.1860018  97.8428825
  78.7624047  91.8546213  98.1690879  79.4725684  91.0651153  97.9232248
  78.1681870  91.5524665  99.0314725  77.8494047  92.0966213  96.9880879
  78.4429921  92.3983847  96.1251321  77.3076013  91.1804214  96.7532987
  77.1386117  92.8857380  97.2333793  81.2544047  93.8376213 100.4280879
  82.3514047  93.8736213  99.8690879  80.9344047  94.6626213 101.4290879
  79.9869202  94.6861321 101.7781146  81.9104047  95.6036213 101.9980879
  82.4306674  96.1185403 101.1904466  81.2214047  96.6526213 102.8860879
  80.7149676  96.1328984 103.6994198  82.0086343  97.2860996 103.2948359
  80.2274047  97.5056213 102.1390879  80.6514047  98.4116213 101.1720879
  81.7183211  98.5048384 100.9693576  79.7434047  99.1876213 100.4720879
  80.0896302  99.8963865  99.7198369  78.3904047  99.0586213 100.7300879
  77.4884047  99.8236213 100.0290879  77.9067748 100.4070244  99.3917442
  77.9464047  98.1696213 101.6860879  76.8808695  98.0739532 101.8948525
  78.8604047  97.3966213 102.3820879  78.5139404  96.6882275 103.1345777
  83.0154047  94.9126213 102.7990879  84.1424047  95.4066213 102.8390879
  82.6884047  93.7906213 103.4410879  81.7680143  93.3988531 103.3014507
  83.5954047  93.1226213 104.3920879  84.5356894  93.6679088 104.4734846
  82.9464047  93.0496213 105.7870879  83.6299388  92.5433772 106.4687025
  82.6464047  94.4506213 106.3150879  81.9625164  94.9573513 105.6341907
  82.1883418  94.3773625 107.3014502  83.5739002  95.0186636 106.3870645
  81.7304047  92.2946213 105.7090879  81.3257573  92.2490108 106.5784442
  84.0444047  91.7036213 104.0210879  85.0614047  91.2436213 104.5360879
  83.2934047  91.0156213 103.1570879  82.4627639  91.4462906 102.7767472
  83.5754047  89.6156213 102.8070879  83.6969095  88.9802459 103.6843758
  82.4564047  89.0136213 101.9080879  81.4936589  89.2065016 102.3813921
  82.4674047  89.6276213 100.5060879  83.4297365  89.4347380 100.0319418
  81.6724310  89.1825702  99.9077177  82.3078926  90.7034355 100.5787608
  82.5644047  87.4946213 101.8320879  82.4696465  87.0726021 102.8325992
  81.7690152  87.1046222 101.1969849  83.5318726  87.2191894 101.4122737
  84.9454047  89.4356213 102.1330879  85.4084047  90.3086213 101.3980879
  85.5754047  88.2956213 102.4000879  85.1433755  87.6493271 103.0448778
  86.8704047  87.9406213 101.8280879  87.2477931  88.7607938 101.2173554
  87.8744047  87.6626213 102.9470879  87.4463357  86.8906415 103.5865434
  88.7855760  87.2851940 102.4829591  88.2024047  88.8876213 103.7830879
  88.7776331  89.5789651 103.1672495  87.2663558  89.3599320 104.0811434
  89.0014047  88.5276213 105.0180879  88.4287624  87.8175049 105.6146735
  89.9404948  88.0681566 104.7097026  89.2924047  89.7656213 105.8470879
  89.9671195  90.4087162 105.2820308  88.3539079  90.2909352 106.0241986
  89.9184047  89.4146213 107.1520879  90.7882652  88.9282243 106.9881961
  90.0982736  90.2585536 107.6769930  89.2931785  88.8190655 107.6760197
  86.7284047  86.7136213 100.9430879  85.7144047  86.0156213 100.9890879
  87.7584047  86.4566213 100.1440879  88.5385793  87.0978383 100.1277270
  87.7694047  85.3266213  99.2140879  86.8966492  85.3377921  98.5611927
  89.0484047  85.3356213  98.3330879  89.9111948  85.4753920  98.9843610
  89.2084047  84.0356213  97.5490879  88.3461520  83.8953854  96.8972022
  90.1151395  84.0836337  96.9460727  89.2783308  83.1982647  98.2433832
  89.0194047  86.5186213  97.3740879  88.9723252  87.4471588  97.9430375
  89.9215337  86.5132947  96.7623407  88.1435694  86.4431934  96.7296316
  87.6224047  83.9986213  99.9740879  86.8514047  83.1296213  99.5600879
  88.3394047  83.8626213 101.0890879  89.0247574  84.5662171 101.3243411
  88.2784047  82.6436213 101.9140879  88.4246600  81.7720969 101.2760018
  89.3634047  82.6396213 103.0100879  89.2552854  81.6909972 103.5359413
  90.3191391  82.6572198 102.4862920  89.3134047  83.7886213 104.0170879
  88.3125641  84.2192001 103.9851398  89.4904630  83.3547411 105.0012106
  90.3444047  84.8796213 103.7500879  90.5334047  85.2536213 102.5620879
  90.9554047  85.3706213 104.7310879  86.8944047  82.3306213 102.5250879
  86.6144047  81.1756213 102.8380879  86.0454047  83.3526213 102.6780879
  86.3727652  84.2888463 102.4872552  84.6604047  83.1796213 103.1520879
  84.6535811  82.5275942 104.0255370  84.0354047  84.5306213 103.5420879
  83.9988541  85.1423678 102.6406838  83.0210972  84.3410765 103.8933043
  84.8184047  85.2666213 104.6240879  85.3794047  84.6086213 105.5290879
  84.8644047  86.5156213 104.5690879  83.7494047  82.5136213 102.1160879
  82.6874047  82.0016213 102.4610879  84.1584047  82.5426213 100.8510879
  85.0081871  83.0386806 100.6232846  83.3824047  81.9606213  99.7590879
  82.3163953  82.0564547  99.9653377  83.6944047  82.6886213  98.4510879
  84.7133722  82.3771856  98.2212785  83.0192188  82.3187256  97.6794655
  83.6264047  84.2236213  98.4980879  84.3388907  84.5887594  99.2377761
  83.9644047  84.8106213  97.1360879  83.2520202  84.4462781  96.3959115
  83.9119862  85.8982403  97.1854625  84.9717534  84.5085690  96.8495333
  82.2604047  84.7036213  98.9630879  82.0599906  84.3177349  99.9626004
  82.2457698  85.7932995  98.9851873  81.4949572  84.3443664  98.2752471
  83.6184047  80.4506213  99.6190879  82.9104047  79.7876213  98.8660879
  84.6124047  79.9156213 100.3300879  85.3138617  80.5269041 100.7230139
  84.7474047  78.4756213 100.5470879  84.1511270  77.9339952  99.8127902
  86.2164047  78.0166213 100.4250879  86.8203640  78.6090476 101.1123757
  86.3724047  76.5366213 100.7580879  85.7690559  75.9434889 100.0708734
  87.4196573  76.2503006 100.6612293  86.0401589  76.3567331 101.7805132
  86.6774047  78.2446213  99.0870879  87.5908556  77.9594402  99.0104092
  84.2014047  78.2066213 101.9480879  84.7594047  78.6916213 102.9350879
  83.1034047  77.4546213 102.0350879  82.7452281  76.9844885 101.2160738
  82.3704047  77.3076213 103.2980879  83.0703184  77.2424088 104.1311350
  81.4554047  78.5236213 103.5190879  81.0116274  78.4963684 104.5142855
  82.0327001  79.4410334 103.4042615  80.3134047  78.6076213 102.5400879
  80.5054047  79.1516213 101.2760879  81.4929915  79.5231435 101.0026951
  79.4584047  79.2256213 100.3650879  79.6227530  79.6609518  99.3794015
  78.2024047  78.7446213 100.7110879  77.3801589  78.7987867  99.9975910
  77.9954047  78.1946213 101.9670879  77.0116236  77.8144123 102.2422533
  79.0454047  78.1286213 102.8760879  78.8841253  77.6990607 103.8648076
  81.5144047  76.0526213 103.3560879  81.2424047  75.4206213 102.3420879
  81.0804047  75.7306213 104.5670879  81.4883947  76.2013207 105.3621260
  80.0814047  74.6986213 104.8130879  79.6057068  74.4295326 103.8700068
  80.7144047  73.4346213 105.4230879  81.2631658  73.7187661 106.3209873
  79.6504047  72.4036213 105.7830879  79.1014963  72.1186251 104.8855488
  80.1278749  71.5223885 106.2115155  78.9601024  72.8317382 106.5099298
  81.6114047  72.8526213 104.4700879  82.0091891  72.0636352 104.8454130
  79.0224047  75.2896213 105.7390879  79.3544047  75.9876213 106.6920879
  77.7574047  75.0266213 105.4310879  77.5602210  74.4429948 104.6307142
  76.6334047  75.5536213 106.1960879  76.9941101  75.9995886 107.1229665
  75.8944047  76.6266213 105.3920879  75.8493714  76.3145511 104.3486880
  74.8825890  76.7251636 105.7853034  76.5584047  77.8716213 105.4830879
  76.0787627  78.5281369 104.9726659  75.6664047  74.4326213 106.5340879
  75.3934047  73.5846213 105.6870879  75.1294047  74.4326213 107.7680879
  75.4244047  75.3306213 108.9030879  75.2776947  76.3639301 108.5886848
  76.4602820  75.1887196 109.2111809  74.4474047  74.9056213 109.9640879
  73.6208966  75.6156532 109.9930378  74.9516320  74.8961898 110.9304042
  73.9774047  73.5356213 109.5940879  72.9429629  73.4649030 109.9302843
  74.5469781  72.6966339 109.9938204  74.0294047  73.5206213 108.0670879
  74.2411145  72.5421393 107.6359844  72.7384047  74.0676213 107.4730879
  72.6594047  75.2616213 107.1990879  71.7494047  73.2086213 107.2580879
  71.9357672  72.2160651 107.2439204  70.4044047  73.6666213 106.9110879
  70.2451505  74.6592008 107.3324229  70.2004047  73.7406213 105.3870879
  69.2207926  74.1513881 105.1426907  70.9769365  74.3795090 104.9664681
  70.3014047  72.4146213 104.6770879  69.1814047  71.5996213 104.5290879
  68.2276760  71.9284012 104.9418894  69.2684047  70.3826213 103.8660879
  68.3868746  69.7487212 103.7702966  70.4794047  69.9736213 103.3250879
  70.5524343  69.0218670 102.7988461  71.5984047  70.7806213 103.4560879
  72.5516177  70.4629889 103.0334830  71.5054047  71.9946213 104.1260879
  72.3845377  72.6314012 104.2247610  69.3214047  72.8196213 107.5780879
  69.5394047  71.6436213 107.8830879  68.1694047  73.4476213 107.8160879
  68.1043245  74.4244510 107.5677581  66.9984047  72.8036213 108.4080879
  67.1109602  71.7206331 108.3574215  66.8374047  73.2106213 109.8750879
  66.5742228  74.2665123 109.9377674  66.0529018  72.6129920 110.3393016
  68.3094047  72.9976213 110.9090879  67.7559504  73.4449616 112.0326862
  65.7744047  73.2546213 107.6160879  65.5214047  74.4566213 107.5120879
  65.0324047  72.2966213 107.0560879  65.3019298  71.3329926 107.1934755
  63.8464047  72.5796213 106.2250879  63.6702414  73.6542753 106.1783508
  64.0684047  72.0576213 104.8020879  64.1568114  70.9806523 104.9449908
  63.1710805  72.2742536 104.2224504  65.2994047  72.5756213 104.0500879
  66.1718917  72.4866935 104.6973584  65.5284047  71.7726213 102.7770879
  64.6564679  71.8614471 102.1290640  66.4067973  72.1561603 102.2580262
  65.6861370  70.7245194 103.0314564  65.1784047  74.0566213 103.7210879
  65.0763149  74.6272427 104.6441633  66.0707985  74.3850802 103.1883127
  64.3013169  74.2197423 103.0948232  62.5994047  71.9266213 106.8120879
  62.5674047  70.7046213 107.0030879  61.5794047  72.7396213 107.0950879
  61.6929346  73.7364351 106.9785866  60.3044047  72.2426213 107.6110879
  60.4802781  71.3537603 108.2169707  59.6094047  73.2936213 108.4760879
  60.3471908  73.6908049 109.1732365  59.2660045  74.0915212 107.8176565
  58.4264047  72.7336213 109.2540879  57.6741759  72.3762399 108.5508589
  58.7872928  71.8986957 109.8547219  57.7824047  73.7526213 110.1770879
  57.5794047  74.9086213 109.8050879  57.4434047  73.3196213 111.3830879
  57.0110609  73.9527982 112.0405582  57.6189915  72.3584945 111.6390292
  59.3824047  71.8366213 106.4690879  59.1234047  72.6246213 105.5640879
  58.8764047  70.6106213 106.5450879  59.1473679  70.0272043 107.3237424
  57.9704047  70.0516213 105.5420879  58.2453114  70.3202736 104.5221117
  57.9354047  68.5036213 105.6550879  57.7228787  68.2383508 106.6907343
  56.8714047  67.8996213 104.7480879  57.0835309  68.1640929 103.7121544
  56.8762441  66.8147773 104.8538734  55.8918614  68.2871048 105.0281825
  59.3084047  67.9036213 105.3490879  60.0405964  68.2901705 106.0580146
  59.2584131  66.8181428 105.4347433  59.6061964  68.1742990 104.3360951
  56.5594047  70.6226213 105.7310879  55.9854047  70.4836213 106.8100879
  55.9994047  71.2446213 104.6900879  56.5423372  71.4143853 103.8555198
  54.6424047  71.8286213 104.7750879  54.3815810  71.9932798 105.8205341
  54.5724047  73.1726213 104.0340879  53.7335631  73.7153089 104.4699023
  55.5012266  73.6943045 104.2648184  54.3964047  73.0946213 102.5250879
  55.0621267  72.3241986 102.1360328  53.3629234  72.8243453 102.3083638
  54.7224047  74.4306213 101.8620879  53.9554298  75.1509528 102.1466419
  55.6914967  74.7683766 102.2293501  54.7684047  74.3116213 100.3460879
  55.5805341  73.6357339 100.0782768  53.8212659  73.8939731 100.0046247
  54.9904047  75.6386213  99.6960879  55.8682009  76.0256002 100.0120324
  55.0153106  75.5222473  98.6931239  54.2377523  76.2649314  99.9437752
  53.5004047  70.8976213 104.3220879  52.3334047  71.1876213 104.5930879
  53.8234047  69.7946213 103.6450879  54.7882751  69.6114370 103.4093591
  52.8024047  68.8456213 103.1850879  51.9935020  68.7880812 103.9134179
  52.2204047  69.3026213 101.8410879  51.2395908  68.8375270 101.7421405
  52.1049473  70.3852130 101.8936690  53.0774047  68.9416213 100.6340879
  54.1202462  69.1246251 100.8931095  52.9363420  67.8813294 100.4243631
  52.7144047  69.7476213  99.4130879  51.6759871  69.5566846  99.1422908
  52.8456528  70.8094287  99.6215066  53.5664047  69.3836213  98.2850879
  54.0388274  68.4932413  98.3494286  53.7574047  70.1286213  97.1940879
  53.1514047  71.3116213  97.0470879  52.5362767  71.6539210  97.7713451
  53.3116124  71.8573876  96.2124789  54.5704047  69.6886213  96.2350879
  55.0346163  68.7977981  96.3401677  54.7189243  70.2478320  95.4072449
  53.3654047  67.4316213 103.0440879  54.5744047  67.2516213 102.8990879
  52.4724047  66.4416213 103.0510879  51.5074760  66.6430128 103.2712089
  52.8444047  65.0556213 102.7680879  53.6872021  64.7712436 103.3981046
  51.6804047  64.0986213 103.0460879  50.8110299  64.4292108 102.4777595
  51.9735497  63.1026363 102.7141541  51.3014047  64.0286213 104.5170879
  51.8044047  64.7836213 105.3430879  50.3984047  63.1176213 104.8450879
  50.1066080  63.0238656 105.8074622  50.0055119  62.5206231 104.1314148
  53.2614047  64.9416213 101.2980879  52.5044047  65.3256213 100.4000879
  54.4784047  64.4506213 101.0630879  55.0819142  64.2086596 101.8359593
  54.9934047  64.2926213  99.7080879  54.2634093  63.7598186  99.0987217
  55.2674047  65.6686213  99.0600879  54.7500080  66.4255628  99.6495278
  56.3417925  65.8474680  99.1025699  54.7964047  65.7436213  97.6100879
  54.7274047  64.6876213  96.9430879  54.4934047  66.8616213  97.1400879
  56.2694047  63.4596213  99.6920879  56.7994047  63.0986213 100.7440879
  56.7364047  63.1476213  98.4870879  56.1426600  63.2856123  97.6817774
  58.0674047  62.5936213  98.2770879  58.4324297  62.1507422  99.2037562
  58.0354047  61.5106213  97.1970879  57.8132228  61.9888108  96.2431124
  59.0327341  61.0724022  97.1596943  57.0224047  60.4296213  97.4640879
  57.3204047  59.3646213  98.3100879  58.3060035  59.3188555  98.7733373
  56.3864047  58.3716213  98.5670879  56.6285681  57.5397243  99.2284548
  55.1374047  58.4436213  97.9740879  54.2124047  57.4666213  98.2240879
  54.5362349  56.7870892  98.8198814  54.8154047  59.4926213  97.1330879
  53.8312974  59.5476577  96.6676803  55.7544047  60.4776213  96.8840879
  55.5092038  61.3101272  96.2246105  59.0134047  63.7206213  97.8580879
  58.6234047  64.6016213  97.0860879  60.2454047  63.6906213  98.3690879
  60.4781203  62.9800812  99.0481134  61.2594047  64.6986213  98.0420879
  60.8646437  65.4647221  97.3747406  61.8054047  65.3846213  99.3120879
  62.0298442  64.6134530 100.0489907  63.0664047  66.1916213  99.0210879
  62.8426271  66.9633397  98.2845588  63.4195579  66.6589081  99.9403410
  63.8395357  65.5301897  98.6300911  60.7304047  66.2766213  99.9200879
  59.8618648  65.6725259 100.1824032  61.1213590  66.7583381 100.8163040
  60.4377591  67.0381097  99.1971807  62.3874047  64.0576213  97.2360879
  63.0004047  63.0836213  97.6780879  62.6484047  64.6256213  96.0590879
  62.1232901  65.4485058  95.7998294  63.6224047  64.0936213  95.1030879
  64.0094310  63.1335977  95.4446499  62.9374047  63.8916213  93.7630879
  62.5472614  64.8311704  93.3717635  63.6513944  63.4720163  93.0543916
  61.7874047  62.9436213  93.8220879  60.4954047  63.3566213  94.0620879
  59.6934047  62.3086213  94.0620879  58.6219260  62.4288721  94.2220003
  60.4224047  61.2266213  93.8480879  60.0792839  60.2777795  93.8026212
  61.7364047  61.5976213  93.6950879  62.4983550  60.8406392  93.5093163
  64.8644047  64.9516213  94.8830879  65.8534047  64.4626213  94.3340879
  64.8184047  66.2206213  95.2860879  63.9933247  66.5816981  95.7432156
  65.9244047  67.1326213  95.0380879  66.8574117  66.5942060  95.2045395
  65.8864047  67.6016213  93.5980879  64.9619442  68.1504402  93.4184476
  66.7385657  68.2532827  93.4050612  65.9313231  66.7390700  92.9331918
  65.9104047  68.3336213  95.9620879  64.8544047  68.7536213  96.4460879
  67.1024047  68.8696213  96.2050879  67.9312526  68.3634335  95.9278074
  67.2674047  70.1616213  96.8480879  66.3894993  70.3764438  97.4573765
  68.5044047  70.1836213  97.7480879  69.3043944  69.8630421  97.0807464
  68.6585635  71.2266813  98.0244228  68.5134047  69.3166213  99.0070879
  68.4848029  68.2631314  98.7288041  69.7844047  69.5986213  99.7930879
  69.8134955  70.6518929 100.0721424  69.7993665  68.9842334 100.6933126
  70.6526243  69.3621461  99.1779663  67.2964047  69.5646213  99.8860879
  66.3899848  69.3364199  99.3253504  67.3481106  68.9257996 100.7677537
  67.2780727  70.6095536 100.1957319  67.4284047  71.2006213  95.7510879
  68.0264047  70.9216213  94.7110879  66.9034047  72.3956213  96.0000879
  66.4137451  72.5336663  96.8725994  66.9744047  73.5076213  95.0660879
  67.5653134  73.2477392  94.1878013  65.5714047  73.9366213  94.6050879
  64.9722781  74.1718224  95.4847622  65.6404047  75.1586213  93.6960879
  66.2390280  74.9240291  92.8159074  64.6336850  75.4387760  93.3860409
  66.0979057  75.9879773  94.2354978  64.8964047  72.7766213  93.8830879
  64.8117455  71.9265215  94.5600408  63.9019751  73.0806450  93.5563174
  65.4920267  72.4918430  93.0157721  67.6814047  74.6656213  95.7570879
  67.3734047  74.9776213  96.9060879  68.6354047  75.2796213  95.0540879
  68.8971844  74.8987589  94.1560263  69.3454047  76.4606213  95.5390879
  69.0680489  76.6687268  96.5724635  70.8474047  76.2426213  95.4740879
  71.1417187  76.0420933  94.4439094  71.3604662  77.1357606  95.8306973
  71.1192720  75.3933687  96.1009511  68.9564047  77.6736213  94.7060879
  68.7974047  77.5756213  93.4890879  68.7964047  78.8096213  95.3740879
  68.7996278  78.7870804  96.3838309  68.5494047  80.0926213  94.7080879
  69.0931303  80.1272762  93.7640218  67.0524047  80.2746213  94.4190879
  66.9452383  81.1631351  93.7968678  66.7502302  79.3950253  93.8506677
  66.1754047  80.4086213  95.6440879  65.9654047  81.6466213  96.2400879
  66.4476543  82.5235817  95.8082600  65.1604047  81.7796213  97.3630879
  65.0105524  82.7558449  97.8242099  64.5424047  80.6616213  97.8940879
  63.7444047  80.7946213  99.0020879  63.6894210  81.6993669  99.3183342
  64.7294047  79.4206213  97.3180879  64.2470004  78.5389159  97.7399671
  65.5374047  79.2996213  96.1950879  65.6811186  78.3245592  95.7295770
  69.0894047  81.2316213  95.5760879  69.4134047  81.0186213  96.7450879
  69.1754047  82.4336213  95.0140879  68.9034236  82.5636760  94.0501318
  69.7284047  83.5776213  95.7390879  69.7347971  83.3651062  96.8081509
  71.1694047  83.8676213  95.2870879  71.5923899  84.6780330  95.8807339
  71.7829182  82.9742167  95.4034044  71.2844047  84.2836213  93.8480879
  71.1974047  85.6216213  93.4920879  71.0476133  86.3701536  94.2701379
  71.2984047  86.0106213  92.1680879  71.2195776  87.0644365  91.9009543
  71.4994047  85.0616213  91.1840879  71.5878166  85.3667082  90.1413966
  71.5884047  83.7236213  91.5230879  71.7425411  82.9726236  90.7482688
  71.4814047  83.3386213  92.8490879  71.5516755  82.2846400  93.1179473
  68.8864047  84.8286213  95.5890879  68.1474047  84.9826213  94.6140879
  69.0074047  85.7106213  96.5770879  69.5099060  85.4329557  97.4080474
  68.4304047  87.0486213  96.5330879  67.8339324  87.1574248  95.6272834
  67.5294047  87.3026213  97.7460879  68.1309209  87.2106390  98.6504202
  67.1335099  88.3157038  97.6751572  66.3624047  86.3296213  97.8370879
  66.1884047  85.4496213  96.9850879  65.5524047  86.4826213  98.8790879
  64.7601455  85.8667520  98.9936746  65.7326462  87.2140937  99.5518151
  69.5624047  88.0726213  96.5020879  70.6664047  87.8096213  96.9880879
  69.2694047  89.2356213  95.9240879  68.3496535  89.3425686  95.5207032
  70.2064047  90.3546213  95.8210879  71.1146643  90.1868392  96.3998908
  70.5754047  90.5806213  94.3390879  69.6556860  90.5417902  93.7553843
  71.2674047  91.9126213  94.1050879  72.1875099  91.9520130  94.6881449
  71.5039497  92.0187151  93.0463664  70.6079741  92.7242092  94.4126191
  71.4564047  89.4336213  93.8330879  70.9342831  88.5084255  94.0770194
  71.5169766  89.5413509  92.7501175  72.8544047  89.3926213  94.4150879
  72.7946475  89.2844299  95.4980577  73.3985700  88.5465368  93.9954162
  73.3773404  90.3173569  94.1711575  69.5284047  91.5876213  96.4150879
  68.3314047  91.7896213  96.1940879  70.2944047  92.3976213  97.1500879
  71.2635487  92.1510915  97.2918004  69.7794047  93.6056213  97.8090879
  68.8370523  93.9047617  97.3501914  69.5354047  93.3376213  99.3000879
  70.4719909  92.9583056  99.7087750  69.3024760  94.2987956  99.7583325
  68.4144047  92.3486213  99.5970879  67.4933882  92.7379953  99.1632477
  68.6758762  91.4090659  99.1102948  68.2114047  92.1086213 101.0870879
  67.6174047  92.9796213 101.7560879  68.6334047  91.0456213 101.5920879
  70.7414047  94.7906213  97.6380879  71.9594047  94.6376213  97.7850879
  70.1794047  95.9606213  97.3250879  69.1836326  95.9782677  97.1570825
  70.9214047  97.2146213  97.2220879  71.9921791  97.0131751  97.1910893
  70.5254047  97.9556213  95.9410879  69.4566687  98.1692356  95.9246110
  71.0831184  98.8908982  95.8929975  70.8344047  97.2036213  94.6720879
  70.0234047  96.1486213  94.2500879  69.1614326  95.8654838  94.8541882
  70.3034047  95.4636213  93.0780879  69.6674133  94.6345991  92.7677044
  71.3934047  95.8326213  92.2990879  71.6135007  95.2973432  91.3754348
  72.2024047  96.8856213  92.7000879  73.0599973  97.1785796  92.0944390
  71.9174047  97.5676213  93.8770879  72.5461626  98.4012517  94.1898558
  70.5374047  98.0326213  98.4560879  69.6074047  98.8346213  98.4130879
  71.2504047  97.8086213  99.5590879  72.0555651  97.2009574  99.5084832
  70.8624047  98.3486213 100.8780879  69.7907856  98.2264947 101.0356212
  71.6144047  97.6486213 102.0330879  71.3006208  98.0977148 102.9754015
  71.3164047  96.1516213 102.0590879  71.6303637  95.7017219 101.1172174
  71.8593929  95.6867804 102.8820010  70.2463791  95.9959714 102.1966340
  73.0244047  97.8556213 101.8900879  73.4864853  97.4191130 102.6094922
  71.0484047  99.8676213 101.0380879  70.4644047 100.4616213 101.9480879
  71.8564047 100.4846213 100.1730879  72.3861294  99.9398786  99.5076959
  72.0314047 101.9466213 100.1750879  72.2462043 102.2823206 101.1896155
  73.1914047 102.3776213  99.2580879  72.8827356 102.1074571  98.2482196
  73.2445813 103.4630014  99.3430721  74.5654047 101.7766213  99.5480879
  74.5200010 100.7137464  99.3107352  75.2865768 102.2643461  98.8922392
  74.9964047 101.9546213 100.9970879  76.0852473 101.9386514 101.0446888
  74.6315835 102.9166582 101.3569348  74.4744047 100.9016213 101.8650879
  74.0386010 100.1148213 101.4056096  74.5374047 100.9056213 103.1960879
  75.1034047 101.9146213 103.8570879  75.4935782 102.6934534 103.3459273
  75.1396739 101.8959984 104.8662645  74.0204047  99.8856213 103.8740879
  73.5867702  99.1207876 103.3770058  74.0636354  99.8802231 104.8831472
  70.7674047 102.6816213  99.7230879  70.5494047 103.8226213 100.1170879
  69.9494047 102.0306213  98.8940879  70.1924614 101.0956104  98.5995078
  68.7524047 102.6506213  98.3200879  69.0213563 103.5771093  97.8127575
  68.1004047 101.7066213  97.3030879  67.8237592 100.7655860  97.7785026
  67.2137214 102.1677627  96.8680692  69.1734047 101.2696213  95.9110879
  68.2914790 100.4866754  95.2961888  67.7184047 103.0886213  99.3670879
  67.5814047 102.4736213 100.4230879  67.0004047 104.1606213  99.0400879
  67.1800999 104.5954940  98.1463907  66.0154047 104.7806213  99.9280879
  66.4560575 104.9789506 100.9051190  65.5524047 106.1106213  99.3200879
  66.4067906 106.7848232  99.2602903  65.1385009 105.9601379  98.3230230
  64.5024047 106.8196213 100.1170879  64.6104047 107.0366213 101.4760879
  63.5454047 107.6956213 101.9000879  63.4392228 107.9600504 102.9521818
  62.7544047 107.9196213 100.8660879  61.8685845 108.4042736 100.8892071
  63.3314047 107.3836213  99.7380879  62.8278303 107.4691333  98.7751748
  64.8284047 103.8456213 100.1820879  64.4554047 103.6086213 101.3340879
  64.2404047 103.3396213  99.1000879  64.4676464 103.7241935  98.1942376
  63.2684047 102.2436213  99.1660879  62.6915757 102.3311156 100.0868008
  62.2974047 102.2716213  97.9730879  62.8943228 102.5398530  97.1014000
  61.9262013 101.2531272  97.8591677  61.1204047 103.2296213  98.0960879
  60.6754283 103.1197655  99.0850412  61.4798536 104.2510673  97.9714017
  60.0694047 102.9256213  97.0280879  60.5193407 103.1134454  96.0532142
  59.8058903 101.8710497  97.1089485  58.8124047 103.7766213  97.1800879
  58.0256778 103.3292595  96.5726105  58.5160226 103.7577143  98.2288488
  59.0294047 105.1866213  96.7510879  59.3036292 105.2043914  95.7791903
  58.1736286 105.7099040  96.8690808  59.7580714 105.6014731  97.3141527
  64.0134047 100.9116213  99.1570879  65.1764047 100.8366213  98.7420879
  63.3244047  99.8646213  99.6070879  62.4330160 100.0191357 100.0561433
  63.8194047  98.4906213  99.5010879  64.7938633  98.4072059  99.9823068
  62.8484047  97.5266213 100.1910879  62.7824203  97.8538826 101.2287031
  61.8835727  97.6679432  99.7040280  63.2294047  96.0456213 100.1470879
  63.5882584  95.8068736  99.1459264  64.0257925  95.8682150 100.8698573
  62.0334047  95.1616213 100.4820879  62.3133826  94.1146211 100.3658900
  61.7265505  95.3429608 101.5121636  60.8954047  95.4466213  99.5940879
  61.1381037  95.7596016  98.6649809  59.5984047  95.3296213  99.9110879
  58.6764047  95.6406213  99.0010879  58.9616665  95.9597556  98.0862770
  57.6963932  95.5558353  99.2301911  59.1984047  94.9116213 101.1160879
  59.8844664  94.6735476 101.8180426  58.2119344  94.8357651 101.3191169
  63.9634047  98.1456213  98.0160879  63.0034047  98.2566213  97.2550879
  65.1704047  97.7466213  97.6230879  65.8852912  97.6053647  98.3224328
  65.5174047  97.5216213  96.2240879  64.6143954  97.4109277  95.6237378
  66.3384047  98.7056213  95.6670879  67.2696495  98.7750236  96.2292861
  66.6504047  98.5216213  94.1920879  65.7195819  98.4525987  93.6291453
  67.2289420  99.3730178  93.8335942  67.2269179  97.6070078  94.0534686
  65.6004047  99.9226213  95.8410879  66.1105808 100.6584923  95.4949455
  66.3254047  96.2366213  96.1110879  67.3224047  96.0616213  96.8080879
  65.8944047  95.3456213  95.2270879  65.1068235  95.5660426  94.6344417
  66.5264047  94.0416213  95.0790879  67.4665645  94.1713666  94.5430236
  66.7274433  93.6395970  96.0720931  65.6584047  93.0656213  94.3200879
  64.5894047  93.4256213  93.8290879  66.1294047  91.8306213  94.2040879
  67.0865444  91.6255679  94.4529575  65.3294047  90.7696213  93.5910879
  64.2888074  90.8847875  93.8943917  65.4024047  90.8176213  92.0450879
  64.6746177  90.1480703  91.5866920  65.1958323  91.8429211  91.7381870
  66.7484047  90.4556213  91.4640879  67.1184047  89.1226213  91.2870879
  66.4253603  88.3360774  91.5856478  68.3524047  88.7906213  90.7380879
  68.6339154  87.7441597  90.6207395  69.2244047  89.7916213  90.3400879
  70.1936691  89.5381776  89.9106781  68.8594047  91.1186213  90.4900879
  69.5412828  91.9079956  90.1738117  67.6254047  91.4456213  91.0430879
  67.3361452  92.4910318  91.1505384  65.6864047  89.3876213  94.1190879
  66.7774047  89.1666213  94.6390879  64.7354047  88.4716213  93.9700879
  63.8483427  88.7629919  93.5849601  64.8994047  87.0736213  94.3460879
  65.8562847  86.9271901  94.8471247  63.7774047  86.6656213  95.3050879
  63.8635242  87.2657134  96.2109423  62.8213012  86.8707373  94.8235348
  63.8514047  85.2936213  95.6400879  63.1360234  85.0718350  96.2406211
  64.8574047  86.2116213  93.0920879  64.1414047  86.5326213  92.1420879
  65.6244047  85.1236213  93.0970879  66.2977551  85.0047640  93.8404395
  65.5674047  84.1076213  92.0420879  65.0123206  84.4857152  91.1835859
  66.9864047  83.7086213  91.5760879  66.8991682  82.9443921  90.8037902
  67.7324047  84.9056213  91.0200879  67.8204474  85.6701396  91.7920075
  68.7275637  84.5973677  90.6995611  67.1863123  85.3111837  90.1683821
  67.7244047  83.1616213  92.6740879  68.6039500  82.9161820  92.3778447
  64.8164047  82.8506213  92.5060879  65.0304047  81.7746213  91.9600879
  63.9154047  82.9856213  93.4800879  63.7354413  83.8912176  93.8894872
  63.1974047  81.8256213  94.0160879  63.9045242  81.0161820  94.1974420
  62.4894047  82.1636213  95.3360879  62.3789645  81.2469192  95.9153628
  63.1069191  82.8706726  95.8900324  61.2144047  82.7316213  95.1050879
  60.7963746  82.9321463  95.9457069  62.1674047  81.3006213  93.0100879
  61.7224047  82.0496213  92.1310879  61.7724047  80.0196213  93.1430879
  62.3954047  78.9776213  93.9830879  62.1325139  79.1491710  95.0269075
  63.4786302  79.0212447  93.8698684  61.8164047  77.7066213  93.4460879
  61.7515067  76.9613904  94.2388794  62.4404997  77.3238706  92.6385554
  60.4724047  78.0816213  92.9440879  59.7496524  78.1336324  93.7583501
  60.1094211  77.3940752  92.1801357  60.6764047  79.4726213  92.3400879
  61.0263807  79.4306852  91.3086537  59.3734047  80.2886213  92.4060879
  58.6534047  80.3766213  91.4060879  59.0884047  80.8786213  93.5670879
  59.6715012  80.6884389  94.3695395  57.8924047  81.7166213  93.7560879
  57.0552899  81.3051347  93.1921582  57.5114047  81.7586213  95.2340879
  58.3994338  82.0238424  95.8078138  56.7499113  82.5268749  95.3683045
  56.9754047  80.4256213  95.7200879  56.0286377  80.2529503  95.2083089
  57.6859598  79.6476689  95.4408017  56.7534047  80.3916213  97.2140879
  57.7434047  80.1866213  97.9550879  55.5844047  80.5566213  97.6430879
  58.0044047  83.1406213  93.2030879  56.9944047  83.8236213  93.0700879
  59.2224047  83.5856213  92.8970879  60.0196929  82.9971777  93.0924466
  59.4604047  84.9016213  92.3000879  58.7275230  85.6198214  92.6677455
  60.8534047  85.3916213  92.6760879  61.5950370  84.7820711  92.1598231
  60.9591334  86.4313398  92.3663996  61.0524047  85.2936213  94.0710879
  61.9331614  85.6056233  94.2913655  59.3444047  84.8376213  90.7750879
  59.4474047  83.7506213  90.2030879  59.1444047  85.9976213  90.1050879
  58.8334047  87.3206213  90.6870879  59.7403135  87.7464378  91.1163861
  58.0830778  87.2018864  91.4687595  58.3224047  88.1116213  89.5190879
  58.5678913  89.1654432  89.6505972  57.2411888  87.9980178  89.4405531
  59.0044047  87.5396213  88.3270879  60.0003687  87.9657933  88.2065384
  58.4310445  87.6929983  87.4128488  59.1124047  86.0386213  88.6320879
  58.2331047  85.4759901  88.3184387  60.3574047  85.4606213  87.9510879
  61.4094047  85.3236213  88.5800879  60.2334047  85.1526213  86.6620879
  59.3404292  85.2660848  86.2040268  61.3384047  84.5846213  85.8940879
  61.6277079  83.6284070  86.3300433  60.9414047  84.3556213  84.4280879
  60.0940073  83.6703071  84.4470970  60.6303816  85.3051838  83.9925472
  62.0614047  83.7546213  83.5880879  62.3184047  82.3836213  83.6140879
  61.6969335  81.7434921  84.2402729  63.3464047  81.8306213  82.8590879
  63.5245840  80.7554427  82.8776632  64.1424047  82.6526213  82.0730879
  65.1604047  82.0976213  81.3340879  65.2245332  81.1455865  81.4395248
  63.9204047  84.0206213  82.0380879  64.5468486  84.6674110  81.4238146
  62.8884047  84.5666213  82.7950879  62.7107188  85.6419217  82.7790603
  62.6104047  85.4376213  85.9350879  62.5654047  86.6686213  85.9700879
  63.7354047  84.7356213  85.8990879  63.6550189  83.7288575  85.9071013
  65.0614047  85.3186213  85.8920879  65.0725243  86.2743137  85.3680387
  65.5104047  85.5526213  87.3610879  64.9123638  84.9056554  88.0028686
  66.9334047  85.2626213  87.5650879  67.5321387  85.9095692  86.9239362
  67.1954846  85.4421298  88.6077719  67.1317582  84.2203115  87.3153945
  65.2764047  86.9096213  87.7510879  65.5595126  87.0347486  88.6598197
  65.9554047  84.3166213  85.1300879  65.7654047  83.0986213  85.2600879
  66.9294047  84.8056213  84.3630879  67.0610659  85.8032441  84.2764086
  67.7484047  83.9176213  83.5210879  67.1015452  83.2136454  82.9975519
  68.5404047  84.7186213  82.4840879  68.8123273  84.0699387  81.6514006
  67.9441724  85.5528594  82.1144208  69.8124047  85.3006213  83.0050879
  69.8414047  86.3916213  83.8440879  69.0243350  86.8866142  84.1719274
  71.0954047  86.6786213  84.1440879  71.3327868  87.5141659  84.8025816
  71.8774047  85.8136213  83.5270879  72.8863276  85.7916713  83.5682314
  71.0994047  84.9376213  82.8120879  71.5666618  84.1390753  82.2358098
  68.6814047  82.9786213  84.3110879  69.1564047  81.9846213  83.7630879
  68.9654047  83.3216213  85.5670879  68.7648169  84.2661089  85.8634104
  69.6004047  82.4066213  86.5320879  70.5250707  82.0133833  86.1096474
  69.9304047  83.1356213  87.8400879  69.0961592  83.7535913  88.1721222
  70.1783274  82.4127558  88.6173266  71.0924047  84.0306213  87.7110879
  72.3934047  83.6506213  87.6090879  72.5967318  82.5799358  87.6288500
  73.1964047  84.7486213  87.4990879  74.2022839  84.7360749  87.4088144
  72.4154047  85.8706213  87.5240879  72.7714047  87.2086213  87.4400879
  73.8273597  87.4566188  87.3325940  71.7634047  88.1436213  87.4980879
  72.0066918  89.2045866  87.4409563  70.4194047  87.7596213  87.6300879
  69.6198672  88.4990535  87.6756863  70.0734047  86.4256213  87.7060879
  69.0178679  86.1790519  87.8207451  71.0814047  85.4556213  87.6510879
  68.7644047  81.1816213  86.8770879  69.3254047  80.1386213  87.2050879
  67.4384047  81.3286213  86.8430879  67.0669595  82.2541438  86.6832886
  66.4974047  80.2436213  87.1420879  65.4792416  80.6327765  87.1431987
  66.5954047  79.1256213  86.0890879  67.5292537  78.5912161  86.2635483
  65.7553064  78.4497069  86.2486952  66.5664047  79.6386213  84.6650879
  65.6104421  80.1399817  84.5138464  67.3758127  80.3606767  84.5573997
  66.7294047  78.5386213  83.6320879  67.6719517  78.0171141  83.7986246
  65.9038590  77.8319423  83.7168137  66.7294047  79.1536213  82.2400879
  65.7311808  79.5431331  82.0402627  67.4474706  79.9736139  82.2304537
  67.0924047  78.1676213  81.1960879  66.4269033  77.4079267  81.2045604
  67.0803008  78.6157488  80.2910270  68.0175208  77.8068845  81.3808263
  66.7364047  79.7526213  88.5760879  66.8784047  80.5796213  89.4810879
  66.7514047  78.4336213  88.7880879  66.4137008  77.8202047  88.0602311
  67.2044047  77.8366213  90.0420879  67.7359088  78.5833645  90.6319838
  66.0194047  77.3216213  90.8590879  65.4769461  76.6262122  90.2185849
  66.4369092  76.7818018  91.7090202  65.0634047  78.4016213  91.3620879
  64.5528486  78.0243626  92.2481517  65.6640326  79.2703246  91.6317223
  64.0154047  78.8316213  90.3420879  63.4674047  78.0076213  89.6150879
  63.7264047  80.1286213  90.2970879  63.0388582  80.4671454  89.6392257
  64.1957403  80.7693957  90.9209738  68.1654047  76.6976213  89.7290879
  68.2644047  76.2666213  88.5800879  68.8774047  76.2296213  90.7520879
  68.7878330  76.6784294  91.6524476  69.8174047  75.1216213  90.6220879
  69.8881839  74.8266507  89.5751486  71.2164047  75.5216213  91.1150879
  71.1574404  75.7630945  92.1763674  72.2134047  74.3896213  90.9070879
  72.2732611  74.1478865  89.8459182  73.1954117  74.6993880  91.2645877
  71.8862287  73.5101257  91.4616543  71.6604047  76.6706213  90.3820879
  72.5346694  76.9256831  90.6857408  69.2934047  73.9296213  91.4130879
  69.0214047  74.0526213  92.5990879  69.1814047  72.7856213  90.7400879
  69.5801808  72.7545816  89.8126648  68.5324047  71.5816213  91.2560879
  68.0333820  71.7478137  92.2107897  67.4894047  71.0526213  90.2370879
  67.9988205  70.8491743  89.2951728  66.8154047  69.7746213  90.7380879
  66.3053543  69.9774068  91.6798031  66.0907852  69.4318505  89.9994843
  67.5689826  69.0023828  90.8925865  66.4554047  72.1276213  89.9350879
  66.9519107  73.0021780  89.5146901  65.7294503  71.7431738  89.2186453
  65.9432080  72.4085689  90.8553182  69.5864047  70.5026213  91.4870879
  70.2924047  70.1306213  90.5560879  69.6804047  70.0066213  92.7230879
  69.0881977  70.3936452  93.4439226  70.5944047  68.9226213  93.0840879
  71.3014247  68.7521234  92.2722059  71.3774047  69.2756213  94.3470879
  70.7065472  69.4562560  95.1869810  72.0433926  68.4466145  94.5864787
  72.2404047  70.4956213  94.2170879  71.6934047  71.7706213  94.3510879
  70.6247048  71.8739016  94.5390067  72.4914047  72.8996213  94.2480879
  72.0507848  73.8915256  94.3484906  73.8514047  72.7656213  94.0170879
  74.4813694  73.6510703  93.9320910  74.4104047  71.5026213  93.8940879
  75.4809004  71.3943040  93.7197130  73.6064047  70.3766213  93.9930879
  74.0448669  69.3835336  93.8949669  69.7854047  67.6556213  93.3460879
  69.0674047  67.5726213  94.3460879  69.9024047  66.6706213  92.4550879
  70.4369242  66.8128250  91.6100043  69.2084047  65.3926213  92.6310879
  68.2146522  65.5784519  93.0385459  69.0604047  64.6356213  91.3010879
  70.0226427  64.6807490  90.7910283  68.8226111  63.5981454  91.5360304
  67.9884047  65.2066213  90.4040879  66.6554047  65.2306213  90.8140879
  66.4011829  64.8225740  91.7923354  65.6644047  65.7586213  90.0060879
  64.6272508  65.7760543  90.3409157  65.9994047  66.2676213  88.7610879
  65.0184047  66.7876213  87.9600879  64.1466966  66.7469870  88.3601797
  67.3134047  66.2536213  88.3260879  67.5774376  66.6567003  87.3483791
  68.2984047  65.7206213  89.1460879  69.3349301  65.6990982  88.8095585
  69.9094047  64.5046213  93.6520879  71.1374047  64.4526213  93.7150879
  69.1044047  63.8086213  94.4440879  68.1093968  63.9711888  94.3838350
  69.5834047  62.7996213  95.3770879  70.5979742  63.0350432  95.6985293
  68.6784047  62.7656213  96.6050879  67.6980380  62.4391578  96.2580982
  69.0947654  62.0139162  97.2756722  68.5394047  64.0846213  97.3470879
  69.2864270  64.1008503  98.1406843  68.7441564  64.8881369  96.6395984
  66.8994047  64.3316213  98.0690879  66.7384047  62.8766213  99.0940879
  67.5377695  62.8632219  99.8349896  65.7737907  62.8938276  99.6013594
  66.8053139  61.9840849  98.4719921  69.5204047  61.4496213  94.6730879
  68.6964047  61.2626213  93.7760879  70.3794047  60.5156213  95.0800879
  71.1084155  60.7605429  95.7348062  70.3474047  59.1436213  94.5540879
  70.4317261  59.1651689  93.4675683  71.5104047  58.3166213  95.1200879
  72.4289437  58.7535403  94.7283136  71.4851758  58.4357861  96.2032607
  71.4644047  56.8286213  94.7700879  70.7792581  56.3493515  95.4693557
  71.0747598  56.7322103  93.7566872  72.8264047  56.1576213  94.8550879
  73.5964047  56.2576213  93.8720879  73.1264047  55.5256213  95.8970879
  69.0064047  58.4736213  94.8660879  68.3324047  57.9676213  93.9710879
  68.6404047  58.4876213  96.1440879  69.2991393  58.8365567  96.8255659
  67.3604047  57.9706213  96.6200879  66.9082936  57.3259372  95.8663789
  67.5854047  57.1486213  97.8980879  68.0599700  57.8015497  98.6305983
  66.6138279  56.8276577  98.2737484  68.4664047  55.9276213  97.6600879
  68.1794047  55.1636213  96.7120879  69.4404047  55.7236213  98.4220879
  66.4144047  59.1576213  96.8480879  66.7244047  60.2726213  96.4340879
  65.2624047  58.9166213  97.4710879  65.0428979  57.9690367  97.7431164
  64.2764047  59.9646213  97.7470879  64.7274477  60.9450427  97.5940083
  63.0714047  59.8286213  96.8110879  62.3895066  60.6472325  97.0412834
  63.4470832  59.9443472  95.7944399  62.3344047  58.5086213  96.9300879
  62.7304047  57.3966213  96.1880879  63.5802452  57.4935980  95.5124651
  62.0644047  56.1816213  96.2970879  62.3885200  55.3199434  95.7135108
  60.9824047  56.0706213  97.1520879  60.3164047  54.8726213  97.2570879
  60.6860389  54.1874720  96.6953578  60.5684047  57.1586213  97.9030879
  59.7187524  57.0691966  98.5799886  61.2424047  58.3686213  97.7900879
  60.9211864  59.2283805  98.3780785  63.8254047  59.8826213  99.1960879
  63.9934047  58.8476213  99.8430879  63.2634047  60.9796213  99.6950879
  63.2548948  61.8247111  99.1420508  62.6524047  61.0136213 101.0200879
  63.0157180  60.1719127 101.6096889  62.9984047  62.3086213 101.7530879
  62.4577229  63.0567369 101.1733592  62.5680971  62.2434173 102.7524296
  64.4654047  62.7096213 101.8570879  64.8973332  62.7425575 100.8568610
  64.5944047  64.0776213 102.5100879  64.1630798  64.0453464 103.5105958
  65.6474753  64.3507211 102.5776131  64.0652144  64.8183274 101.9105778
  65.2674047  61.6676213 102.6210879  65.2048211  60.7097742 102.1046466
  66.3097157  61.9812251 102.6788953  64.8633315  61.5639439 103.6281007
  61.1424047  60.9226213 100.8900879  60.5764047  61.3956213  99.9090879
  60.5064047  60.3176213 101.8890879  61.0555311  59.8153706 102.5719524
  59.0554047  60.3406213 102.0490879  58.5952422  60.8234785 101.1869983
  58.4794047  58.9176213 102.1820879  58.8105021  58.4929266 103.1297742
  56.9514047  58.9396213 102.1400879  56.6195349  59.3637883 101.1924359
  56.5701083  57.9229928 102.2358936  56.5735454  59.5477936 102.9619451
  58.9714047  58.1056213 101.1120879  58.6136818  57.2184481 101.1930714
  58.7814047  61.1416213 103.3180879  59.1774047  60.7326213 104.4020879
  58.1124047  62.2816213 103.1790879  57.7424084  62.5407101 102.2757192
  57.9594047  63.2256213 104.2890879  58.3555672  62.8165992 105.2185261
  58.6594047  64.5756213 104.0050879  58.4516708  65.2634097 104.8247787
  60.1624047  64.3766213 103.8790879  60.3709591  63.6892618 103.0592446
  60.6408950  65.3353959 103.6793412  60.5537512  63.9624228 104.8082753
  58.1154047  65.2546213 102.7530879  57.0494869  65.4459125 102.8768977
  58.6374185  66.1983425 102.5950009  58.2698306  64.6057346 101.8909976
  56.4974047  63.4656213 104.6250879  55.6274047  63.3106213 103.7690879
  56.2504047  63.8316213 105.8820879  57.0133536  63.8135582 106.5436634
  54.9284047  64.2296213 106.3600879  54.2164874  64.1969334 105.5353429
  54.4414047  63.2906213 107.4630879  55.1997988  63.2875285 108.2459851
  53.5141272  63.7058550 107.8578503  54.1974047  61.8676213 106.9890879
  53.6446231  61.9154991 106.0508763  55.1665100  61.3997669 106.8157404
  53.4104047  61.0446213 108.0000879  53.5696064  59.9896728 107.7768447
  53.7974321  61.2674865 108.9943918  51.9234047  61.3526213 107.9550879
  51.7747083  62.3940874 108.2402866  51.5670586  61.2010373 106.9361969
  51.1634047  60.4716213 108.8820879  51.4931552  60.6122433 109.8263282
  50.1803938  60.6979703 108.8315348  51.3007120  59.5065512 108.6177291
  54.9804047  65.6546213 106.8860879  56.0344047  66.1226213 107.3300879
  53.8334047  66.3306213 106.8390879  53.0210083  65.8686874 106.4560364
  53.6934047  67.7146213 107.2980879  54.2486198  68.3971024 106.6546169
  52.2114047  68.1416213 107.3070879  51.7095231  67.6356582 108.1318402
  52.0694047  69.6566213 107.4760879  52.5706765  70.1632917 106.6513993
  51.0129735  69.9250368 107.4784027  52.5233251  69.9616813 108.4189533
  51.5864047  67.7286213 106.0860879  50.6640880  67.9948694 106.0927339
  54.2554047  67.8996213 108.7070879  53.9774047  67.0966213 109.5940879
  55.0664047  68.9396213 108.8900879  55.2806264  69.5380321 108.1051593
  55.6664047  69.2566213 110.1900879  55.7613804  70.3417503 110.2297585
  54.9548383  68.9267855 110.9470429  57.0234047  68.6296213 110.4790879
  57.6994047  69.0416213 111.4170879  57.4334047  67.6436213 109.6840879
  56.8179357  67.2917797 108.9647099  58.7274047  66.9916213 109.8680879
  58.9348258  66.8767664 110.9319883  58.7274047  65.6076213 109.2180879
  58.5127180  65.7346725 108.1570192  59.7227723  65.1799312 109.3381903
  57.6974047  64.6746213 109.8350879  57.8633948  64.6542595 110.9121828
  56.7187969  65.1071606 109.6269158  57.7514047  63.2616213 109.2890879
  57.4344047  62.3266213 110.0520879  58.0904047  63.0696213 108.1040879
  59.8414047  67.8716213 109.3110879  59.5764047  68.8576213 108.6170879
  61.0824047  67.5066213 109.6190879  61.2407320  66.5970754 110.0286707
  62.2274047  68.3936213 109.4400879  61.9510061  69.2579446 108.8362268
  62.6984047  68.8876213 110.8190879  61.7970056  69.0614095 111.4067753
  63.2669210  68.0689295 111.2602602  63.5524047  70.1536213 110.8110879
  63.9804514  70.2728377 111.8064091  64.3515393  69.9763975 110.0913137
  62.7974047  71.4186213 110.4290879  61.5714047  71.5136213 110.6720879
  63.4494047  72.3396213 109.8940879  63.3634047  67.6876213 108.6940879
  63.8774047  66.6736213 109.1640879  63.7344047  68.2186213 107.5260879
  63.2165959  69.0000204 107.1500710  64.8634047  67.6976213 106.7530879
  65.0331328  66.6515859 107.0082381  64.6594047  67.8286213 105.2270879
  64.6025694  68.8849262 104.9642380  65.8264047  67.1786213 104.4780879
  65.8835963  66.1221249 104.7400904  65.6699157  67.2781008 103.4039763
  66.7574807  67.6723496 104.7563486  63.3274047  67.1956213 104.7900879
  63.4413556  66.1158441 104.8859899  62.5655231  67.5434273 105.4877030
  62.9074047  67.5356213 103.3720879  63.6686284  67.1876861 102.6738190
  61.9586747  67.0484788 103.1469150  62.7927982  68.6152703 103.2755317
  66.1004047  68.4786213 107.1650879  66.1124047  69.7036213 107.0910879
  67.1254047  67.7586213 107.6100879  67.0295362  66.7541082 107.6532384
  68.3844047  68.3516213 108.0420879  68.2767534  69.4341832 108.1096905
  68.7914047  67.8146213 109.4140879  68.7775818  66.7254215 109.3746914
  69.7885671  68.1549492 109.6932726  67.8724047  68.2156213 110.5310879
  67.8724047  69.5206213 111.0100879  68.5385657  70.2546828 110.5567855
  67.0354047  69.8936213 112.0550879  67.0388591  70.9226740 112.4144474
  66.1954047  68.9566213 112.6410879  65.5362950  69.2470975 113.4591942
  66.1964047  67.6486213 112.1830879  65.5428553  66.9086992 112.6451362
  67.0304047  67.2806213 111.1350879  67.0321998  66.2516405 110.7755113
  69.4904047  68.0276213 107.0510879  69.4014047  67.0646213 106.2870879
  70.5464047  68.8286213 107.0880879  70.5424944  69.6502180 107.6755084
  71.7304047  68.5556213 106.2950879  72.1575872  67.6177870 106.6501669
  71.4149985  68.4409907 105.2580353  72.7844047  69.6366213 106.3720879
  72.6044047  70.6446213 107.0550879  73.8974047  69.3986213 105.6850879
  74.0394284  68.4775666 105.2957463  74.9334047  70.4056213 105.4760879
  74.5797405  71.3785058 105.8174332  76.2454047  70.0676213 106.2210879
  76.9707254  70.8577087 106.0267376  76.0094047  69.9526213 107.7250879
  75.2844908  69.1623646 107.9202642  76.9489534  69.7143255 108.2236484
  75.6260383  70.8989544 108.1066430  76.7854047  68.8356213 105.7250879
  77.5992834  68.6321080 106.1917614  75.2304047  70.5066213 103.9870879
  75.1284047  69.5166213 103.2650879  75.6024047  71.7026213 103.5400879
  75.5355876  72.5003506 104.1559310  75.9904047  71.9306213 102.1530879
  76.2320567  70.9850578 101.6676878  74.8994047  72.6676213 101.3340879
  74.0234795  72.0209943 101.2818483  74.5074047  74.0056213 101.9560879
  75.3827779  74.6530027 102.0082396  73.7407473  74.4807080 101.3440180
  74.1184193  73.8397940 102.9607226  75.3664047  72.8776213  99.8910879
  76.0833553  73.6986294  99.8964104  75.8654504  71.9622022  99.5731870
  74.2404047  73.1976213  98.9310879  73.7411467  74.1132337  99.2480976
  74.6449548  73.3335494  97.9281113  73.5232402  72.3768069  98.9248760
  77.3304047  72.6606213 102.1320879  77.4744047  73.7196213 102.7420879
  78.3064047  72.0596213 101.4500879  78.1047962  71.1704657 101.0155125
  79.6464047  72.6156213 101.2980879  79.7736978  73.4438763 101.9951454
  80.3836380  71.8425363 101.5147124  79.8624047  73.1206213  99.8890879
  79.2764047  72.5956213  98.9430879  80.7254047  74.1236213  99.7540879
  81.2545143  74.4273175 100.5590171  80.9354047  74.8186213  98.4830879
  80.7008930  74.1697865  97.6392177  80.0024047  76.0236213  98.4450879
  79.1641398  75.7838981  99.0992622  80.5625797  76.8592740  98.8645979
  79.4814047  76.4026213  97.0770879  80.2129373  77.0224067  96.5586027
  79.2862869  75.5045513  96.4909980  77.9474047  77.3306213  97.2680879
  77.7814047  77.9236213  95.5940879  77.7158899  77.0755571  94.9124766
  76.8778327  78.5274169  95.5098913  78.6489072  78.5307887  95.3354600
  82.3914047  75.2786213  98.3500879  82.9324047  75.8796213  99.2720879
  83.0184047  74.9666213  97.2140879  82.4944169  74.4892209  96.4946263
  84.4164047  75.3276213  96.9350879  84.7200433  76.1439319  97.5904807
  85.3534047  74.1306213  97.1740879  84.9886792  73.3261564  96.5354090
  86.3405954  74.4441624  96.8346079  85.4444047  73.6376213  98.6050879
  86.0827188  74.3292328  99.1549329  84.4398804  73.6568871  99.0277720
  86.0144047  72.2246213  98.7120879  86.9309442  72.1756223  98.1241648
  86.2432254  72.0219476  99.7583498  85.0854047  71.1926213  98.2240879
  85.3231353  70.7841269  97.3314985  83.9764047  70.7656213  98.8490879
  83.2304047  69.8156213  98.2800879  83.5052578  69.4281647  97.3887781
  82.3946636  69.4888125  98.7435881  83.5904047  71.2676213 100.0270879
  84.1408823  71.9895473 100.4696909  82.7501904  70.9225047 100.4687135
  84.5654047  75.7096213  95.4710879  83.7994047  75.2266213  94.6400879
  85.5724047  76.5456213  95.1410879  86.3954047  77.4146213  96.0040879
  86.7707763  76.8324117  96.8456510  85.7821155  78.2355452  96.3756512
  87.4914047  77.8856213  95.0950879  88.3647224  77.2454761  95.2201062
  87.7549545  78.9124553  95.3485732  86.9524047  77.8026213  93.7170879
  87.8044671  77.5873027  93.0723192  86.4275433  78.6817500  93.3432526
  86.0064047  76.6036213  93.7450879  85.1359347  76.7019669  93.0964676
  86.7574047  75.3266213  93.3950879  87.4474047  74.7766213  94.2540879
  86.6114047  74.8566213  92.1570879  85.9691893  75.3115533  91.5240827
  87.3054047  73.6486213  91.6950879  87.1449666  72.8367477  92.4044680
  86.7714047  73.2126213  90.3200879  85.6836121  73.1958169  90.3873482
  87.0768939  73.9327045  89.5609722  87.2544047  71.8306213  89.9020879
  88.1534047  71.7886213  88.9280879  86.8034047  70.8156213  90.4270879
  87.1376853  69.9084321  90.1349167  86.1005874  70.8933976  91.1482671
  88.8184047  73.9136213  91.6540879  89.2484047  75.0126213  91.2990879
  89.6084047  72.9166213  92.0520879  89.1882660  72.0444063  92.3398791
  91.0674047  73.0586213  92.1660879  91.2583175  73.9623912  92.7447514
  91.6614047  71.8686213  92.9110879  91.4862036  70.9572054  92.3394886
  92.7338165  72.0170271  93.0376144  91.1895139  71.7795584  93.8896001
  91.7554047  73.2266213  90.8060879  92.7144047  73.9926213  90.6830879
  91.2754047  72.4946213  89.8020879  90.5602359  71.8077521  89.9940349
  91.8054047  72.5836213  88.4380879  92.8890477  72.6980618  88.4649289
  91.4664047  71.3056213  87.6590879  91.6503470  70.4634491  88.3261790
  90.4051440  71.3495499  87.4143515  92.2734047  71.1266213  86.3830879
  92.0356836  71.9489991  85.7083404  93.3323869  71.1617229  86.6388742
  91.9604047  69.8026213  85.6990879  92.4270910  69.0004971  86.2708394
  90.8792856  69.6638220  85.6951382  92.4814047  69.7746213  84.2660879
  92.1348096  70.6751260  83.7590734  93.5709118  69.7732298  84.2988239
  92.0054047  68.5726213  83.5240879  90.9958761  68.5739452  83.4932672
  92.3710110  68.5914365  82.5827707  92.3268209  67.7380880  83.9934970
  91.3094047  73.8256213  87.6760879  92.0114047  74.3316213  86.7940879
  90.1114047  74.3036213  88.0170879  89.5839736  73.8206939  88.7303178
  89.5024047  75.4706213  87.3730879  90.2792346  76.1412184  87.0057542
  88.6384047  75.0276213  86.1890879  89.2389624  74.3938303  85.5366014
  87.7954225  74.4548579  86.5756407  88.0984047  76.1986213  85.3700879
  88.2474047  77.3716213  85.7340879  87.4664047  75.8786213  84.2460879
  87.0857817  76.6072852  83.6593386  87.3694933  74.9081667  83.9835486
  88.6644047  76.2536213  88.3890879  87.5404047  75.8666213  88.7020879
  89.2044047  77.3746213  88.8680879  90.1174184  77.6607333  88.5445987
  88.5614047  78.1646213  89.9290879  88.3593916  77.5260050  90.7890060
  89.4704047  79.3226213  90.3790879  89.7682293  79.8865608  89.4951354
  88.9086255  79.9713945  91.0510979  90.7284047  78.8456213  91.1000879
  90.7874047  77.7256213  91.6240879  91.7464047  79.7066213  91.1360879
  92.6060904  79.4483760  91.5990671  91.6529378  80.6129156  90.7002035
  87.1764047  78.7166213  89.5730879  86.4084047  79.0496213  90.4730879
  86.8554047  78.8076213  88.2810879  87.5524440  78.6057071  87.5786164
  85.5434047  79.3036213  87.8390879  85.2284119  80.1265302  88.4807261
  85.6084047  79.8076213  86.3920879  85.7211701  78.9352541  85.7483809
  84.6594549  80.2981733  86.1754016  86.7584047  80.7846213  86.1330879
  86.8720687  81.3996209  87.0258122  87.6617125  80.1935210  85.9822979
  86.5314047  81.6846213  84.9210879  87.3906959  81.6011501  84.2556931
  85.6345280  81.3512197  84.3990200  86.3614047  83.0936213  85.2950879
  85.4129423  83.3817134  85.4887920  87.3394047  84.0036213  85.3970879
  88.6154047  83.6966213  85.1560879  88.8631466  82.7547689  84.8884351
  89.3276476  84.4075045  85.2424288  87.0374047  85.2506213  85.7480879
  86.0768162  85.5009967  85.9343187  87.7700745  85.9413495  85.8267530
  84.4214047  78.2636213  88.0080879  83.2494047  78.6326213  88.1010879
  84.7824047  76.9796213  88.0600879  85.7359935  76.7276188  87.8426885
  83.8264047  75.9006213  88.3610879  82.8414271  76.1592544  87.9724657
  84.2804047  74.5896213  87.7110879  85.2902062  74.3833164  88.0658253
  83.6106053  73.7955532  88.0411253  84.2804047  74.6536213  86.1880879
  83.6094047  75.5316213  85.5990879  84.9564047  73.8026213  85.5750879
  83.6374047  75.6986213  89.8640879  84.4734047  76.1236213  90.6560879
  82.5334047  75.0486213  90.2400879  81.9026371  74.7130418  89.5262126
  82.1794047  74.8166213  91.6480879  82.9438068  75.2448217  92.2964961
  80.8374047  75.4706213  91.9770879  80.1719798  75.0365596  91.2308310
  80.5580719  75.1087378  92.9665896  80.7194047  76.9916213  91.9400879
  81.0422409  77.3573888  90.9653614  79.2724047  77.3956213  92.1790879
  78.9489776  77.0305788  93.1538893  79.1888415  78.4820892  92.1525286
  78.6411083  76.9640824  91.4023386  81.6334047  77.6256213  92.9740879
  82.6665184  77.3473402  92.7659166  81.5341280  78.7102446  92.9312193
  81.3564883  77.2749540  93.9682955  82.0804047  73.3296213  91.9980879
  81.4694047  72.5516213  91.2630879  82.6764047  72.9576213  93.1290879
  83.3235796  73.5951687  93.5704463  82.4584047  71.6486213  93.7500879
  81.9920458  70.9740232  93.0320865  83.7854047  71.0386213  94.2030879
  84.2778981  71.7588799  94.8563697  83.5590608  70.1333583  94.7664416
  84.7064047  70.6956213  93.0410879  84.2624047  70.7376213  91.8740879
  85.8894047  70.3816213  93.3010879  81.5194047  71.8046213  94.9440879
  81.6294047  72.7636213  95.7060879  80.5904047  70.8636213  95.0880879
  80.5317748  70.1258009  94.4008594  79.6614047  70.8336213  96.2200879
  79.8920531  71.6526728  96.9013038  78.2174047  70.9816213  95.7510879
  77.9192995  70.1741930  95.0822889  77.5865003  70.9681806  96.6398393
  77.9204047  72.2656213  95.0330879  78.1894047  72.4016213  93.6800879
  78.6476609  71.5730997  93.1400387  77.8814047  73.5766213  93.0140879
  78.1063718  73.6772180  91.9523107  77.2874047  74.6236213  93.6980879
  77.0468105  75.5502383  93.1769400  76.9994047  74.4926213  95.0440879
  76.5279486  75.3127537  95.5855785  77.3104047  73.3196213  95.7020879
  77.0774938  73.2106718  96.7613246  79.7504047  69.5076213  96.9600879
  80.0924047  68.4826213  96.3710879  79.4264047  69.5386213  98.2490879
  79.3843156  70.4284163  98.7251054  79.1334047  68.3296213  99.0140879
  78.9835731  67.4923345  98.3324717  80.2634047  67.9736213  99.9860879
  80.3754735  68.7833226 100.7071459  79.9534047  66.6736213 100.7250879
  79.8416501  65.8633101 100.0046669  80.7691727  66.4407043 101.4094646
  79.0278143  66.7876637 101.2893372  81.4904047  67.8286213  99.2620879
  82.1974070  67.6056404  99.8720286  77.8554047  68.5766213  99.7970879
  77.7684047  69.5556213 100.5290879  76.8664047  67.7036213  99.6280879
  76.9699304  66.9710986  98.9404889  75.6094047  67.7876213 100.3660879
  75.6526069  68.6111193 101.0788878  74.4044047  67.9856213  99.4250879
  74.3622781  67.1500455  98.7264185  73.1024047  68.0506213 100.2190879
  73.1435995  68.8862949 100.9176960  72.2655648  68.1906550  99.5348436
  72.9669640  67.1213978 100.7725305  74.5914047  69.2696213  98.6060879
  74.6467984  70.0910217  99.3204643  75.5457940  69.1741441  98.0882803
  73.4964047  69.5506213  97.5980879  72.5417178  69.6466936  98.1152367
  73.7176385  70.4778642  97.0695282  73.4407120  68.7298142  96.8830536
  75.4384047  66.5126213 101.1910879  75.3724047  65.4166213 100.6330879
  75.3994047  66.6756213 102.5150879  75.6201065  67.5862091 102.8922084
  75.0214047  65.6136213 103.4450879  75.1640912  64.6453488 102.9653085
  75.8704047  65.6586213 104.7180879  75.8126761  66.6716895 105.1161575
  75.4299993  64.9626222 105.4320405  77.3244047  65.2896213 104.4830879
  77.7934047  65.3206213 103.3270879  78.0094047  64.9626213 105.4740879
  73.5744047  65.8496213 103.8250879  73.2414047  66.9396213 104.2710879
  72.7184047  64.8456213 103.6320879  73.0278475  64.0247928 103.1315032
  71.3284047  64.8896213 104.1060879  71.0951683  65.9003129 104.4410542
  70.3424047  64.5006213 103.0010879  70.8549856  63.6986118 102.4699186
  69.4541469  64.1016233 103.4908825  69.9314047  65.5876213 102.0080879
  70.8098969  66.1736238 101.7379889  69.3354047  64.9626213 100.7570879
  68.4565369  64.3767968 101.0263456  69.0474727  65.7489285 100.0592937
  70.0742432  64.3133518 100.2873356  68.9374047  66.5516213 102.6280879
  69.3878736  67.0290791 103.4982668  68.6644503  67.3128461 101.8972432
  68.0447311  66.0065136 102.9348295  71.1664047  63.9346213 105.2740879
  71.7854047  62.8716213 105.3060879  70.3304047  64.3266213 106.2290879
  69.9540103  65.2633894 106.1992218  69.9634047  63.4686213 107.3520879
  70.0962646  62.4215808 107.0797763  70.8524047  63.7766213 108.5650879
  71.8812593  63.8547486 108.2137284  70.5327023  64.7375775 108.9681432
  70.7674047  62.7136213 109.6570879  70.2774047  61.5846213 109.3990879
  71.2064047  63.0176213 110.7950879  68.4874047  63.7056213 107.6640879
  68.0784047  64.8366213 107.9250879  67.6874047  62.6426213 107.5950879
  68.0755718  61.7463366 107.3379898  66.2474047  62.7346213 107.8200879
  66.0185990  63.6272575 108.4022801  65.5064047  62.8196213 106.4820879
  65.7933837  63.7392100 105.9720890  65.7372773  61.9649052 105.8462748
  64.0134047  62.8566213 106.6260879  63.3824047  63.9946213 107.1160879
  63.9840503  64.8635436 107.3827272  62.0044047  64.0326213 107.2670879
  61.5183200  64.9313473 107.6467111  61.2444047  62.9216213 106.9330879
  60.1614650  62.9460573 107.0545144  61.8614047  61.7806213 106.4450879
  61.2646456  60.9092522 106.1754683  63.2394047  61.7486213 106.3000879
  63.7273931  60.8481878 105.9270105  65.7304047  61.5496213 108.6370879
  66.0034047  60.3936213 108.3050879  64.9984047  61.8616213 109.7090879
  64.9519460  62.8316132 109.9866786  64.2484047  60.8786213 110.4930879
  64.3878120  59.8894733 110.0569101  64.7184047  60.8416213 111.9500879
  64.5979033  61.8502479 112.3453739  64.0500795  60.1623181 112.4792274
  66.1554047  60.3906213 112.1440879  66.7465438  60.7896498 111.3198115
  66.5145515  60.8094053 113.0841601  66.2924047  58.8736213 112.1790879
  65.9126870  58.5094397 113.1337005  65.7008251  58.4495619 111.3677269
  67.7534047  58.4526213 112.0180879  68.3325226  58.9795135 112.7764465
  67.8079759  57.3793954 112.2005908  68.3114047  58.7566213 110.6650879
  68.2613264  59.7510987 110.4959533  69.2747092  58.4560138 110.6229024
  67.7751870  58.2681475 109.9622629  62.7854047  61.2916213 110.4580879
  62.4184047  62.3466213 110.9790879  61.9584047  60.4626213 109.8330879
  62.3237743  59.6216232 109.4096181  60.5314047  60.7206213 109.7330879
  60.2776569  61.5645102 110.3746194  60.2865392  60.9642819 108.6992747
  59.7234047  59.5196213 110.1590879  60.2664047  58.4736213 110.5130879
  58.4104047  59.6916213 110.1040879  58.0550318  60.5982412 109.8360399
  57.4534047  58.6506213 110.4540879  57.7163262  58.1985662 111.4104444
  56.0534047  59.2686213 110.5720879  56.1961159  60.2936055 110.9143453
  55.6337755  59.2771214 109.5661361  55.1024047  58.5506213 111.5100879
  54.6490262  57.7174249 110.9731218  55.6573474  58.1705260 112.3677990
  53.9964047  59.4636213 112.0130879  52.8214047  59.2686213 111.6950879
  54.3704047  60.4756213 112.7950879  53.6759343  61.1132687 113.1573282
  55.3466428  60.6004048 113.0220012  57.4734047  57.5366213 109.3990879
  57.4514047  56.3536213 109.7370879  57.5444047  57.9376213 108.1290879
  57.6127271  58.9285857 107.9462741  57.4834047  57.0246213 106.9880879
  57.0778814  56.0601136 107.2936612  56.5694047  57.6216213 105.9130879
  57.1103906  58.5155910 105.6028436  56.5096310  56.9251720 105.0767354
  55.1534047  58.0096213 106.3570879  55.2214764  58.5930199 107.2752998
  54.4534047  58.8316213 105.2850879  54.3845411  58.2486726 104.3666504
  53.4513047  59.0940363 105.6242554  55.0221670  59.7418844 105.0952700
  54.3364047  56.7716213 106.7180879  54.8249124  56.2383861 107.5336368
  53.3364931  57.0736719 107.0296059  54.2636308  56.1175999 105.8491466
  58.8444047  56.7046213 106.3540879  58.9134047  55.8536213 105.4760879
  59.9174047  57.3686213 106.7800879  59.8516110  58.0058795 107.5609032
  61.2054047  57.2396213 106.0960879  61.3802808  56.2029344 105.8083415
  61.1964047  58.1026213 104.8330879  60.5241715  57.6637819 104.0957808
  60.8567753  59.1083762 105.0804924  62.7894047  58.3016213 104.0030879
  62.3382544  59.0755818 103.0200586  62.3924047  57.6226213 106.9690879
  62.2914047  58.4976213 107.8360879  63.5204047  56.9656213 106.7010879
  63.4992339  56.2642456 105.9746423  64.7754047  57.1806213 107.4210879
  64.7854936  58.1685665 107.8814809  64.9114047  56.1276213 108.5210879
  63.9827826  56.1490557 109.0914393  65.0081415  55.1637264 108.0214394
  66.0874047  56.3306213 109.4610879  66.9926158  56.1500300 108.8813633
  66.0703116  57.3686513 109.7932035  66.0694047  55.4056213 110.6790879
  67.1224047  55.2866213 111.3440879  65.0214047  54.7866213 110.9800879
  65.9274047  57.0926213 106.4150879  66.1244047  56.0466213 105.7950879
  66.6574047  58.1956213 106.2300879  66.4447750  59.0260210 106.7642453
  67.7444047  58.2626213 105.2380879  68.1654946  57.2686997 105.0867522
  67.2204047  58.7826213 103.8940879  66.3221379  58.1904383 103.7193445
  66.9461391  59.8304819 104.0160166  68.1744047  58.6376213 102.6890879
  69.1840426  58.4651670 103.0619038  67.7584047  57.4776213 101.7980879
  66.7489738  57.6495948 101.4244931  68.4478821  57.3990073 100.9575276
  67.7797554  56.5516206 102.3726897  68.2504047  59.9126213 101.8640879
  68.6137950  60.7288626 102.4884252  68.9329069  59.7643684 101.0272408
  67.2590705  60.1599208 101.4843533  68.8944047  59.1546213 105.6990879
  68.6764047  60.2216213 106.2720879  70.1164047  58.6986213 105.4270879
  70.2029491  57.7670071 105.0466874  71.3354047  59.4616213 105.6720879
  71.1061468  60.5255175 105.7326254  71.9664047  59.0216213 106.9940879
  71.2098276  59.0914880 107.7756305  72.2885424  57.9852710 106.8925717
  73.0764047  59.8286213 107.3390879  73.4463656  59.5250533 108.1712990
  72.2874047  59.2166213 104.5010879  72.7234047  58.0886213 104.2890879
  72.5814047  60.2616213 103.7290879  72.1833426  61.1636387 103.9482006
  73.4364047  60.1476213 102.5380879  74.0458022  59.2461685 102.6022496
  72.5754047  60.0666213 101.2770879  73.2064161  59.9819249 100.3923561
  71.9068024  59.2073620 101.3294746  71.5184047  61.5086213 101.0030879
  70.9690966  61.0661100  99.8755496  74.4054047  61.3186213 102.4080879
  74.2094047  62.3666213 103.0220879  75.4434047  61.1146213 101.5950879
  75.5502334  60.1998983 101.1803967  76.4534047  62.1336213 101.2990879
  76.0581767  63.1253705 101.5189231  77.7004047  61.9026213 102.1570879
  77.3889633  61.7513087 103.1906294  78.2101726  61.0089023 101.7972225
  78.5824047  63.0096213 102.0870879  79.3537849  62.8391428 102.6325323
  76.8114047  62.0826213  99.8090879  77.2294047  61.0406213  99.3090879
  76.6494047  63.2096213  99.1140879  76.3955502  64.0536119  99.6073799
  76.8354047  63.2826213  97.6650879  77.2751584  62.3577172  97.2919012
  75.4884047  63.5126213  96.9480879  75.1484022  64.5249440  97.1664940
  75.6234047  63.3366213  95.4400879  75.9629482  62.3243210  95.2208663
  74.6565495  63.5056443  94.9660402  76.3473970  64.0538583  95.0534268
  74.5164047  62.5886213  97.4430879  73.6796898  62.7339368  96.9954365
  77.7564047  64.4376213  97.2990879  77.5384047  65.5606213  97.7460879
  78.7734047  64.1556213  96.4880879  78.9876265  63.1908531  96.2796877
  79.6194047  65.1946213  95.9050879  79.5934934  66.0827950  96.5364160
  81.0704047  64.7196213  95.7880879  81.0604090  63.7812487  95.2336005
  81.6271131  65.4682272  95.2243813  81.7384047  64.5026213  97.1420879
  81.2804047  65.0646213  98.1650879  82.7444047  63.7646213  97.1810879
  79.0824047  65.5696213  94.5240879  78.8414047  64.6946213  93.6950879
  78.8804047  66.8696213  94.2930879  79.0140615  67.5268720  95.0482413
  78.4454047  67.3836213  92.9960879  78.2404616  66.5483772  92.3264127
  77.1794047  68.2246213  93.1280879  77.4259261  69.0991286  93.7302203
  76.9272564  68.5404904  92.1157895  76.0054047  67.5126213  93.7370879
  75.8264047  67.4836213  95.1170879  76.5577024  67.9799403  95.7550304
  74.7404047  66.8376213  95.6820879  74.6132443  66.8226231  96.7645421
  73.8084047  66.2156213  94.8660879  72.7324047  65.5696213  95.4260879
  72.7268780  65.6122017  96.3851270  73.9634047  66.2366213  93.4910879
  73.2342056  65.7470067  92.8456062  75.0544047  66.8856213  92.9360879
  75.1802450  66.9119070  91.8536955  79.5244047  68.2356213  92.3440879
  80.3834047  68.8006213  93.0250879  79.4614047  68.3236213  91.0180879
  78.7968219  67.7454423  90.5239846  80.3514047  69.1766213  90.2370879
  80.8552274  69.8819057  90.8980235  81.4114047  68.3416213  89.5130879
  80.9239401  67.4354117  89.1535581  81.7631174  68.9261175  88.6629335
  82.5944047  67.9656213  90.3940879  82.9161939  68.8558989  90.9344196
  82.2650213  67.2085497  91.1057417  83.7514047  67.4236213  89.5800879
  84.0378919  68.1606528  88.8298822  84.5962034  67.2321250  90.2417100
  83.3954047  66.1756213  88.9000879  82.4572391  65.8319938  89.0479556
  84.2144047  65.4736213  88.1130879  85.4644047  65.8846213  87.8900879
  85.7971861  66.7357518  88.3201267  86.0718764  65.3426477  87.2923066
  83.7814047  64.3506213  87.5410879  82.8359133  64.0358034  87.7055131
  84.4007017  63.8194427  86.9457567  79.5524047  70.0056213  89.2380879
  78.7924047  69.4706213  88.4300879  79.7304047  71.3176213  89.3190879
  80.3053293  71.6824118  90.0650698  79.1254047  72.2566213  88.3960879
  78.3440090  71.7695324  87.8127661  78.5034047  73.3956213  89.1850879
  77.9830197  72.9435986  90.0294659  79.3269262  74.0081318  89.5521619
  77.5404047  74.2616213  88.4050879  78.0843418  75.0593314  87.8992303
  77.0122286  73.6579796  87.6670169  76.3454047  74.9876213  89.5410879
  75.7354047  76.2936213  88.5140879  75.2962743  75.8709757  87.6104098
  74.9769853  76.8586190  89.0560088  76.5567469  76.9567305  88.2424547
  80.2424047  72.7426213  87.4860879  81.1674047  73.4106213  87.9390879
  80.1624047  72.3626213  86.2130879  79.3196076  71.9043193  85.8972532
  81.2664047  72.5266213  85.2570879  81.7937919  73.4601470  85.4532811
  82.2634047  71.3596213  85.3940879  82.9282035  71.4112730  84.5318386
  82.8351985  71.5399044  86.3043900  81.6234047  69.9736213  85.4610879
  81.0869512  69.8937482  86.4065713  80.9176624  69.8862803  84.6350120
  82.6564047  68.8556213  85.3670879  83.2088873  68.9651059  84.4338810
  83.3443904  68.9411241  86.2081970  82.0404047  67.5206213  85.3960879
  81.1011623  67.4805335  85.7652978  82.6104047  66.3836213  84.9730879
  81.9314047  65.2396213  85.0560879  80.9955104  65.2378216  85.4358229
  82.3559093  64.3798154  84.7388665  83.8444047  66.3636213  84.4580879
  84.3701438  67.2225540  84.3810616  84.2450058  65.4896761  84.1485118
  80.7454047  72.6176213  83.8240879  79.5344047  72.5936213  83.5830879
  81.5204047  72.7246213  82.8720879  77.8384047  94.5786213  83.0600879
  76.9524047  94.0276213  81.9860879  75.4934047  94.0166213  82.4640879
  75.2334047  93.8976213  83.6760879  77.4184047  92.6196213  81.5900879
  77.5454047  91.6336213  82.7720879  78.0624047  89.9636213  82.3010879
  76.9824047  88.8606213  83.2540879  79.6014047  89.7706213  83.2300879
  80.8154047  90.2426213  82.4480879  81.9104047  90.2906213  83.3520879
  81.1754047  89.2246213  81.3750879  81.0574047  89.7526213  80.0660879
  82.5934047  88.7776213  81.7140879  83.4254047  88.7356213  80.5830879
  83.0514047  89.9086213  82.6130879  74.5544047  94.1196213  81.6600879
  87.7274047  91.5516213  84.1960879  86.8374047  92.2086213  83.3630879
  85.6394047  91.5916213  83.0630879  85.3324047  90.3736213  83.5750879
  86.2274047  89.7096213  84.4160879  87.4414047  90.3156213  84.7320879
  88.3404047  89.7256213  85.5240879  85.6634047  88.5356213  84.7650879
  84.4464047  88.4376213  84.1770879  84.2334047  89.5736213  83.4350879
  80.2834047  90.0606213  79.9570879  83.1664047  89.3056213  80.0230879
  89.0824047  90.1226213  85.7030879  88.1774047  88.9486213  85.8550879
  79.5404047  90.2706213  84.0590879  79.7164047  88.8376213  83.4690879
  78.6854047  94.6426213  82.9280879  77.5004047  94.8306213  83.8090879
  78.1834047  91.9906213  83.4090879  76.6904047  91.5796213  83.2270879
  77.2024047  87.9376213  83.0520879  77.1094047  89.0226213  84.2020879
  76.0574047  89.0306213  83.0190879  76.7944047  92.2536213  80.9440879
  78.2784047  92.6886213  81.1460879  77.0084047  94.5946213  81.2010879
  83.8314047  87.6926213  84.2650879  80.6264047  91.1026213  82.0420879
  80.5624047  88.4726213  81.3720879  82.6244047  87.8866213  82.0970879
  87.0504047  93.0816213  82.9990879  83.3824047  90.6576213  82.0940879
 121.2324047  72.3126213  42.3570879 122.0474047  71.3716213  42.0340879
 122.4234047  70.5476213  43.1900879 121.6494047  71.2156213  44.2510879
 120.9554047  72.2496213  43.7460879 120.8394047  73.0026213  41.7220879
 122.4154047  71.2036213  41.0280879 123.4154047  70.6006213  43.3730879
 122.1294047  69.5886213  43.0710879 121.7054047  70.8416213  45.2630879
 120.2894047  72.9556213  44.2190879 103.7984047  52.2266213  41.4040879
 104.5564047  53.2526213  41.5720879 105.9634047  52.8726213  41.7570879
 105.8534047  51.4066213  41.6620879 104.5764047  51.0436213  41.4540879
 102.7924047  52.2496213  41.2570879 104.2034047  54.2776213  41.5750879
 106.3044047  53.1556213  42.6650879 106.5464047  53.2446213  41.0210879
 106.7434047  50.8016213  41.7590879 104.1264047  50.0696213  41.3350879
  29.8314047  72.3266213  90.0070879  30.6234047  73.0906213  90.6740879
  30.1824047  74.4926213  90.6550879  28.9664047  74.3726213  89.8320879
  28.7744047  73.0956213  89.4600879  29.9384047  71.3236213  89.8840879
  31.5114047  72.7456213  91.1920879  30.8674047  75.0876213  90.2100879
  29.9644047  74.8236213  91.5840879  28.3824047  75.2566213  89.6190879
  27.9984047  72.6396213  88.8630879  37.1174047 102.1816213  55.4730879
  37.9334047 101.2076213  55.2710879  37.5814047 100.0216213  56.0630879
  36.3874047 100.5206213  56.7670879  36.1284047 101.7896213  56.4090879
  37.1654047 103.0976213  55.0330879  38.7804047 101.2526213  54.5960879
  38.3164047  99.7826213  56.7140879  37.3554047  99.2356213  55.4700879
  35.8674047  99.8696213  57.4540879  35.3454047 102.4676213  56.7150879
 108.0634047  53.9246213  33.1060879 109.2824047  53.7566213  32.7300879
 109.6384047  52.3346213  32.6320879 108.3624047  51.7176213  33.0330879
 107.4484047  52.6636213  33.3070879 107.6014047  54.8196213  33.2410879
 109.9694047  54.5666213  32.5090879 110.3784047  52.0956213  33.2760879
 109.8864047  52.0806213  31.6860879 108.2834047  50.6406213  33.0670879
 106.4204047  52.5846213  33.6270879 107.2914047  76.0716213 117.0590879
 108.2994047  75.5006213 117.6190879 109.5484047  76.2376213 117.3860879
 109.0444047  77.3556213 116.5690879 107.7174047  77.2436213 116.3870879
 106.3304047  75.7406213 117.0870879 108.2384047  74.5856213 118.1970879
 110.2144047  75.6796213 116.8700879 109.9494047  76.5696213 118.2520879
 109.7354047  78.1086213 116.2180879 107.0194047  77.8696213 115.8500879
  94.6494047  65.7336213  36.8940879  93.3924047  65.4626213  36.8930879
  92.6434047  66.3176213  37.8250879  93.7404047  67.1396213  38.3640879
  94.9114047  66.7856213  37.8070879  95.3574047  65.2706213  36.3290879
  92.9344047  64.6956213  36.2780879  92.2044047  65.7726213  38.5520879
  91.9644047  66.8856213  37.3390879  93.5204047  67.8976213  39.1020879
  95.9114047  67.1636213  37.9570879 105.1464047  68.2986213  50.2970879
 104.9294047  69.4946213  49.8750879 105.8064047  70.4766213  50.5270879
 106.5764047  69.5896213  51.4170879 106.1774047  68.3156213  51.2690879
 104.6594047  67.4616213  49.9870879 104.1884047  69.7516213  49.1270879
 105.2744047  71.1516213  51.0560879 106.4084047  70.9356213  49.8580879
 107.3364047  70.0136213  52.0580879 106.5114047  67.4076213  51.7500879
  34.5414047  90.9796213  51.2740879  35.7834047  90.6566213  51.1760879
  35.9664047  89.2026213  51.0620879  34.5634047  88.7566213  51.1170879
  33.7394047  89.8116213  51.2410879  34.1794047  91.9246213  51.3620879
  36.6004047  91.3686213  51.1750879  36.4964047  88.8366213  51.8400879
  36.3954047  88.9526213  50.1830879  34.3404047  87.7016213  51.0570879
  32.6634047  89.8666213  51.3100879 116.1634047 114.7896213  47.2490879
 115.1944047 114.0946213  47.7310879 114.6814047 114.6606213  48.9870879
 115.5654047 115.8306213  49.1260879 116.4284047 115.8926213  48.0980879
 116.6704047 114.5876213  46.3910879 114.7974047 113.1986213  47.2680879
 114.8024047 114.0176213  49.7560879 113.7154047 114.9396213  48.8980879
 115.4464047 116.4846213  49.9780879 117.2104047 116.6026213  47.8710879
  93.4014047  52.8046213 105.2200879  92.3094047  53.4826213 105.2790879
  91.1244047  52.6146213 105.3270879  91.7684047  51.2896213 105.2830879
  93.1044047  51.4186213 105.2210879  94.3404047  53.1926213 105.1800879
  92.2644047  54.5656213 105.2920879  90.5304047  52.7586213 104.5230879
  90.6084047  52.7426213 106.1860879  91.1534047  50.4016213 105.3030879
  93.8874047  50.6766213 105.1770879  91.9084047 122.6796213  44.7050879
  91.1494047 121.8796213  44.0430879  91.9014047 120.7516213  43.4750879
  93.2584047 121.0746213  43.9520879  93.2444047 122.2086213  44.6720879
  91.6064047 123.5246213  45.1830879  90.0824047 122.0156213  43.9170879
  91.8594047 120.7516213  42.4660879  91.5824047 119.8696213  43.8500879
  94.0784047 120.4186213  43.6990879  94.0404047 122.7416213  45.1710879
  68.2974047 129.2376213  83.2770879  69.5124047 129.6396213  83.4040879
  69.7014047 130.4536213  84.6120879  68.3314047 130.4366213  85.1560879
  67.5204047 129.7176213  84.3610879  67.9374047 128.6626213  82.5200879
  70.3074047 129.4066213  82.7050879  69.9904047 131.3936213  84.3820879
  70.3534047 130.0216213  85.2510879  68.1204047 130.9626213  86.0750879
  66.4674047 129.4906213  84.4420879  23.4564047  56.8526213  84.7100879
  22.9684047  56.0256213  83.8540879  23.7654047  54.7946213  83.7620879
  24.8194047  55.0896213  84.7480879  24.6234047  56.3016213  85.2960879
  23.0724047  57.7656213  84.9390879  22.0744047  56.2106213  83.2690879
  24.1534047  54.6756213  82.8370879  23.2254047  53.9846213  84.0330879
  25.5944047  54.3596213  84.9290879  25.1854047  56.8406213  86.0440879
  30.3794047  75.4136213  81.1050879  29.7454047  75.2386213  79.9990879
  29.5284047  76.5026213  79.2820879  30.1744047  77.4456213  80.2130879
  30.6684047  76.7906213  81.2770879  30.6394047  74.6836213  81.7620879
  29.4094047  74.2736213  79.6350879  28.5444047  76.7046213  79.1810879
  29.9904047  76.5006213  78.3840879  30.1904047  78.4986213  79.9720879
  31.1984047  77.1486213  82.1460879  45.0484047 118.9486213  53.8030879
  45.5294047 120.1396213  53.8810879  46.1154047 120.4106213  55.2010879
  45.8684047 119.1206213  55.8680879  45.2424047 118.2726213  55.0330879
  44.5964047 118.5436213  52.9870879  45.5074047 120.8606213  53.0720879
  45.6314047 121.1626213  55.6710879  47.1044047 120.6046213  55.1330879
  46.1904047 118.9826213  56.8890879  44.9084047 117.2556213  55.1750879
  93.5414047 110.7756213  74.6170879  92.5334047 110.8196213  73.8190879
  92.2084047 109.4966213  73.2690879  93.2464047 108.6796213  73.9210879
  94.0194047 109.4446213  74.7100879  93.9424047 111.5676213  75.1120879
  91.9854047 111.7236213  73.5790879  92.3084047 109.4816213  72.2640879
  91.2824047 109.2006213  73.5440879  93.2874047 107.6186213  73.7220879
  94.8654047 109.1936213  75.3330879  80.8264047  29.6446213  41.4000879
  81.9664047  30.1006213  41.0180879  82.8864047  29.0246213  40.6220879
  82.0304047  27.8486213  40.8600879  80.8244047  28.2296213  41.3150879
  80.0384047  30.2036213  41.7160879  82.2234047  31.1536213  40.9880879
  83.7054047  29.0046213  41.2130879  83.1444047  29.0986213  39.6490879
  82.4204047  26.8616213  40.6600879  79.9564047  27.6506213  41.5920879
  39.3644047  35.8926213 100.8000879  40.6364047  35.9236213 100.9900879
  41.0754047  34.8946213 101.9430879  39.7814047  34.2646213 102.2630879
  38.7884047  34.8616213 101.5830879  38.8414047  36.5086213 100.1830879
  41.3084047  36.6226213 100.5060879  41.4924047  35.3086213 102.7650879
  41.7064047  34.2356213 101.5100879  39.7524047  33.4416213 102.9610879
  37.7254047  34.6696213 101.5660879  30.4234047  68.1236213  86.0060879
  29.6424047  67.5836213  86.8750879  28.5454047  66.8396213  86.2430879
  28.8604047  67.0656213  84.8210879  29.9654047  67.8206213  84.6990879
  31.2464047  68.6826213  86.2130879  29.7764047  67.6656213  87.9480879
  27.6464047  67.2316213  86.4850879  28.5844047  65.8566213  86.4740879
  28.2224047  66.6356213  84.0630879  30.4844047  68.1816213  83.8240879
 112.3764047  73.3226213 104.0110879 112.0004047  74.5186213 104.3010879
 110.6304047  74.7906213 103.8450879 110.2974047  73.4946213 103.2280879
 111.3324047  72.6436213 103.3350879 113.2824047  72.9156213 104.2300879
 112.6174047  75.2426213 104.8220879 110.6114047  75.5356213 103.1630879
 110.0164047  74.9956213 104.6210879 109.3234047  73.3556213 102.7810879
 111.4474047  71.6226213 103.0040879 106.0454047  85.3216213  86.3500879
 106.8634047  86.3106213  86.2610879 106.2454047  87.5766213  86.6820879
 104.8944047  87.1036213  87.0310879 104.7934047  85.7786213  86.8310879
 106.2544047  84.3556213  86.1130879 107.8884047  86.2256213  85.9180879
 106.2144047  88.2416213  85.9220879 106.7154047  87.9666213  87.4860879
 104.1624047  87.8126213  87.3910879 103.9664047  85.0996213  86.9770879
  74.2624047 121.5236213  37.8970879  74.1704047 120.2536213  37.7160879
  75.4414047 119.6686213  37.2670879  76.2854047 120.8756213  37.2280879
  75.5784047 121.9556213  37.6010879  73.5104047 122.1356213  38.2070879
  73.2654047 119.6786213  37.8750879  75.3524047 119.2546213  36.3500879
  75.7944047 118.9966213  37.9340879  77.3194047 120.7886213  36.9260879
  75.8634047 122.9936213  37.6910879 111.3214047  64.3186213  33.3150879
 112.4584047  64.6396213  32.8060879 112.6674047  66.0946213  32.7960879
 111.4044047  66.5436213  33.4090879 110.6264047  65.4896213  33.7080879
 110.9654047  63.3736213  33.4250879 113.1814047  63.9246213  32.4290879
 112.7624047  66.4466213  31.8540879 113.4624047  66.3566213  33.3620879
 111.2334047  67.6006213  33.5520879 109.6474047  65.4376213  34.1600879
  93.9994047  50.9866213 124.8530879  95.2574047  50.7706213 124.6960879
  95.7514047  49.7146213 125.5910879  94.5064047  49.3686213 126.2990879
  93.4874047  50.1236213 125.8540879  93.4454047  51.6696213 124.3430879
  95.8834047  51.3016213 123.9880879  96.4484047  50.0706213 126.2300879
  96.1074047  48.9266213 125.0700879  94.5244047  48.5966213 127.0540879
  92.4454047  50.1466213 126.1370879  99.5394047  20.7746213  63.5580879
  98.6834047  21.6696213  63.2100879  98.8524047  22.9176213  63.9690879
  99.9904047  22.5486213  64.8290879 100.3824047  21.2886213  64.5750879
  99.6114047  19.8386213  63.1680879  97.9264047  21.5256213  62.4480879
  98.0314047  23.1276213  64.5180879  99.0874047  23.6886213  63.3610879
 100.3774047  23.2706213  65.5330879 101.1714047  20.6906213  65.0060879
  66.0164047 114.0276213  46.3710879  67.3014047 113.9786213  46.3300879
  67.7854047 112.7536213  45.6770879  66.5014047 112.1066213  45.3510879
  65.4744047 112.8676213  45.7640879  65.4634047 114.7796213  46.7740879
  67.9534047 114.7476213  46.7270879  68.3284047 112.1876213  46.3130879
  68.3114047 112.9646213  44.8410879  66.5044047 111.1516213  44.8460879
  64.4074047 112.7156213  45.6960879  97.0094047  81.5826213  62.6940879
  96.4354047  80.4326213  62.6370879  97.4084047  79.3346213  62.5660879
  98.6684047  80.0986213  62.5930879  98.4164047  81.4166213  62.6690879
  96.5354047  82.4806213  62.7500879  95.3614047  80.2866213  62.6420879
  97.3144047  78.8156213  61.7050879  97.3344047  78.7236213  63.3660879
  99.6094047  79.5696213  62.5530879  99.0834047  82.2656213  62.7080879
  41.3444047  29.8216213  91.9180879  42.5804047  29.4726213  91.8420879
  42.7954047  28.0976213  92.3130879  41.4164047  27.7276213  92.6790879
  40.5774047  28.7506213  92.4400879  40.9644047  30.7246213  91.6470879
  43.3724047  30.1146213  91.4730879  43.4044047  28.0756213  93.1180879
  43.1494047  27.5056213  91.5750879  41.2194047  26.7426213  93.0740879
  39.5104047  28.8406213  92.5830879 133.2934047  59.4156213  87.3830879
 133.4104047  60.3816213  86.5420879 133.7934047  61.6396213  87.1980879
 133.8704047  61.1916213  88.5990879 133.5754047  59.8836213  88.6910879
 133.0394047  58.4576213  87.1560879 133.2484047  60.2836213  85.4750879
 133.0824047  62.3476213  87.0790879 134.6894047  61.9696213  86.8690879
 134.1384047  61.9016213  89.3680879 133.5324047  59.2246213  89.5450879
  90.1484047  48.6566213 109.4730879  89.8054047  47.4246213 109.3300879
  90.9714047  46.5386213 109.2090879  92.0614047  47.5256213 109.3130879
  91.5614047  48.7626213 109.4680879  89.5114047  49.4426213 109.5760879
  88.7794047  47.0776213 109.3030879  90.9864047  46.0706213 108.3150879
  91.0084047  45.8726213 109.9670879  93.0864047  47.1886213 109.2600879
  92.0534047  49.7186213 109.5760879 111.2814047  47.4806213  60.6660879
 110.0114047  47.6546213  60.5490879 109.6464047  49.0776213  60.5760879
 110.9784047  49.6876213  60.7340879 111.9264047  48.7366213  60.7850879
 111.7594047  46.5836213  60.6730879 109.2934047  46.8496213  60.4420879
 109.0514047  49.2896213  61.3640879 109.2134047  49.3636213  59.7090879
 111.0654047  50.7626213  60.7900879 112.9994047  48.8096213  60.8930879
  30.4664047  78.8436213  58.7120879  30.0944047  78.6216213  59.9230879
  29.6774047  79.8536213  60.6060879  29.8904047  80.8356213  59.5280879
  30.3534047  80.2266213  58.4230879  30.7944047  78.1426213  58.0530879
  30.0864047  77.6426213  60.3880879  30.2664047  80.0506213  61.4020879
  28.7054047  79.8136213  60.8780879  29.6704047  81.8776213  59.7100879
  30.6184047  80.6216213  57.4540879  56.5414047  87.2536213 120.7380879
  55.9334047  86.1286213 120.8780879  56.8664047  85.0286213 121.1600879
  58.1444047  85.7616213 121.1500879  57.9364047  87.0656213 120.9010879
  56.0994047  88.1466213 120.5390879  54.8594047  86.0026213 120.8010879
  56.8404047  84.3296213 120.4320879  56.6884047  84.6156213 122.0640879
  59.0644047  85.2236213 121.3310879  58.6284047  87.8916213 120.8210879
  36.3484047  83.5696213  35.3610879  36.7064047  82.5626213  36.0760879
  37.9474047  82.8256213  36.8170879  38.2294047  84.2026213  36.3740879
  37.2814047  84.6246213  35.5210879  35.5244047  83.6146213  34.7670879
  36.1594047  81.6276213  36.1290879  38.6844047  82.1936213  36.5370879
  37.7964047  82.7856213  37.8150879  39.1064047  84.7096213  36.7500879
  37.1614047  85.5646213  35.0020879  52.4124047  97.0826213  20.6220879
  51.1594047  96.7936213  20.6600879  50.9254047  95.3446213  20.5820879
  52.3134047  94.8606213  20.4890879  53.1744047  95.8926213  20.5150879
  52.8074047  98.0186213  20.6630879  50.3664047  97.5286213  20.7420879
  50.3974047  95.1016213  19.7560879  50.4714047  94.9986213  21.4150879
  52.5004047  93.7986213  20.4160879  54.2524047  95.9176213  20.4690879
 108.2934047  71.9326213  29.3160879 107.7584047  72.6306213  28.3760879
 106.3244047  72.8556213  28.6050879 106.1474047  72.1376213  29.8790879
 107.3114047  71.6026213  30.2830879 109.2704047  71.6556213  29.3680879
 108.2984047  73.0096213  27.5160879 105.7654047  72.4436213  27.8720879
 106.1174047  73.8396213  28.7070879 105.1704047  72.1096213  30.3390879
 107.5584047  71.0176213  31.1570879  38.2444047  62.2776213  50.1550879
  37.7444047  61.0936213  50.0870879  38.7724047  60.0536213  50.2300879
  39.9734047  60.8916213  50.3940879  39.6454047  62.1946213  50.3490879
  37.7224047  63.1476213  50.0830879  36.6914047  60.8846213  49.9430879
  38.8364047  59.4826213  49.3990879  38.6094047  59.4836213  51.0470879
  40.9344047  60.4186213  50.5270879  40.2554047  63.0816213  50.4320879
 119.8184047  48.0416213  91.2000879 118.8724047  47.6536213  90.4190879
 119.3754047  47.2646213  89.0950879 120.8164047  47.5126213  89.2790879
 121.0594047  47.9666213  90.5200879 119.7054047  48.3546213  92.1610879
 117.8264047  47.6166213  90.7020879 118.9934047  47.8546213  88.3690879
 119.1924047  46.2906213  88.9020879 121.4954047  47.3186213  88.4610879
 121.9834047  48.2496213  91.0030879 101.0794047  89.8786213  98.7950879
 101.0544047  91.0606213  98.2880879 102.1024047  91.9236213  98.8510879
 102.7364047  90.9836213  99.7930879 102.1244047  89.7886213  99.7480879
 100.4494047  89.1166213  98.5560879 100.3474047  91.3856213  97.5340879
 101.7064047  92.7156213  99.3360879 102.7544047  92.2246213  98.1400879
 103.5744047  91.3166213 100.3890879 102.3144047  88.8736213 100.2890879
 123.2634047  81.0466213  80.9580879 124.3544047  80.3676213  81.0210879
 124.1144047  78.9246213  80.8770879 122.6494047  78.9186213  80.7190879
 122.1654047  80.1706213  80.7690879 123.1884047  82.0576213  81.0320879
 125.3364047  80.8036213  81.1610879 124.3944047  78.4206213  81.7060879
 124.5724047  78.5546213  80.0570879 122.1354047  77.9766213  80.5870879
 121.1554047  80.5446213  80.6900879  56.8014047  27.1046213  74.0760879
  57.9744047  27.3236213  74.5560879  58.4124047  28.7076213  74.3280879
  57.2394047  29.2396213  73.6130879  56.3024047  28.2856213  73.4740879
  56.2984047  26.2216213  74.1180879  58.5724047  26.5796213  75.0690879
  59.2394047  28.7416213  73.7490879  58.5624047  29.1956213  75.1990879
  57.2384047  30.2706213  73.2900879  55.3274047  28.3116213  73.0110879
  65.6594047  43.5796213  80.1460879  66.3364047  44.2646213  80.9980879
  66.1804047  43.7516213  82.3670879  65.2664047  42.6226213  82.1200879
  64.9714047  42.5346213  80.8120879  65.6174047  43.7516213  79.1450879
  66.9524047  45.1196213  80.7420879  65.7564047  44.4406213  82.9720879
  67.0614047  43.4336213  82.7440879  64.9424047  42.0136213  82.9510879
  64.3424047  41.8426213  80.2720879  35.0034047  35.1086213  94.6980879
  34.6024047  33.8876213  94.7660879  35.7024047  32.9346213  94.5640879
  36.8244047  33.8686213  94.3650879  36.3974047  35.1396213  94.4470879
  34.4184047  35.9326213  94.8070879  33.5754047  33.5936213  94.9510879
  35.5504047  32.3656213  93.7440879  35.8454047  32.3596213  95.3820879
  37.8144047  33.4746213  94.1850879  36.9314047  36.0746213  94.3540879
  50.0224047  61.6646213  64.1990879  49.6074047  62.8526213  63.9340879
  50.5444047  63.8826213  64.4050879  51.5894047  63.0316213  65.0000879
  51.2684047  61.7326213  64.8700879  49.5394047  60.8006213  63.9670879
  48.6774047  63.0736213  63.4230879  50.1184047  64.4776213  65.1010879
  50.9094047  64.4276213  63.6380879  52.4554047  63.4936213  65.4520879
  51.7884047  60.8386213  65.1820879 114.0114047  82.5926213 110.5700879
 113.3404047  81.5156213 110.7830879 112.0194047  81.7946213 111.3640879
 112.0734047  83.2656213 111.4410879 113.2484047  83.7176213 110.9710879
 114.9464047  82.6406213 110.1750879 113.7014047  80.5176213 110.5610879
 111.9264047  81.3846213 112.2820879 111.2754047  81.4876213 110.7540879
 111.2264047  83.8056213 111.8370879 113.6344047  84.7216213 110.8740879
 101.2434047  73.6896213  79.9550879 102.3644047  74.1616213  79.5360879
 102.6204047  75.5136213  80.0530879 101.4044047  75.7196213  80.8590879
 100.6074047  74.6396213  80.7920879 100.8624047  72.7746213  79.7280879
 103.0444047  73.6286213  78.8810879 102.6804047  76.1886213  79.3040879
 103.4494047  75.5376213  80.6280879 101.2744047  76.6506213  81.3920879
  99.6504047  74.4356213  81.2480879  49.8314047 126.7246213  92.2200879
  49.5034047 125.4816213  92.2750879  48.9394047 125.1186213  93.5820879
  49.0134047 126.4196213  94.2700879  49.5384047 127.3516213  93.4560879
  50.2394047 127.1956213  91.4160879  49.6264047 124.7816213  91.4560879
  49.5084047 124.4256213  94.0490879  47.9844047 124.8036213  93.4970879
  48.6634047 126.5006213  95.2890879  49.7404047 128.4006213  93.6160879
  47.4334047  86.3936213  82.2230879  48.5054047  86.7976213  82.8080879
  48.2254047  87.8226213  83.8240879  46.7604047  87.9216213  83.6990879
  46.3114047  87.0766213  82.7550879  47.3864047  85.6906213  81.4900879
  49.4994047  86.4296213  82.5820879  48.6724047  88.6986213  83.5960879
  48.4934047  87.5096213  84.7470879  46.2214047  88.6126213  84.3300879
  45.3124047  86.8806213  82.3970879  56.7484047  69.8646213 123.4810879
  57.5244047  69.4246213 122.5540879  58.5244047  68.4826213 123.0750879
  58.1584047  68.4756213 124.5030879  57.1134047  69.2906213 124.7240879
  55.9844047  70.5246213 123.3530879  57.4514047  69.7106213 121.5110879
  59.4634047  68.8306213 122.9410879  58.4164047  67.5656213 122.6650879
  58.7204047  67.8596213 125.1900879  56.5824047  69.5326213 125.6330879
  68.2844047 129.6426213 105.4890879  67.5104047 129.6926213 106.5160879
  68.2374047 129.4346213 107.7670879  69.5974047 129.2236213 107.2400879
  69.6084047 129.3506213 105.9020879  68.0004047 129.7896213 104.5240879
  66.4474047 129.9006213 106.4690879  67.8924047 128.6056213 108.2290879
  68.2044047 130.2326213 108.3840879  70.4034047 129.0056213 107.9260879
  70.4134047 129.2646213 105.1880879  61.0614047  63.8136213 121.3790879
  62.2424047  64.2096213 121.7020879  63.2284047  63.1236213 121.6230879
  62.3624047  62.0146213 121.1840879  61.0944047  62.4366213 121.0450879
  60.2254047  64.3916213 121.3610879  62.4854047  65.2236213 121.9980879
  63.6384047  62.9316213 122.5260879  63.9424047  63.3226213 120.9370879
  62.7934047  61.0376213 121.0250879  60.2004047  61.9096213 120.7440879
  29.9044047 101.6266213  98.5090879  28.8284047 102.3106213  98.6850879
  28.3874047 102.9706213  97.4490879  29.4404047 102.5216213  96.5220879
  30.3224047 101.7336213  97.1600879  30.3894047 101.0886213  99.2220879
  28.3054047 102.3906213  99.6320879  28.3904047 103.9756213  97.5470879
  27.4784047 102.6396213  97.1580879  29.4094047 102.8426213  95.4910879
  31.2104047 101.2306213  96.8050879  62.3874047  73.1606213 130.0280879
  63.2094047  72.2386213 130.3850879  62.5314047  70.9566213 130.6220879
  61.1394047  71.3396213 130.3260879  61.0714047  72.6356213 129.9790879
  62.6314047  74.1236213 129.8120879  64.2784047  72.3846213 130.4970879
  62.6324047  70.6596213 131.5820879  62.8574047  70.2436213 129.9860879
  60.3584047  70.5976213 130.4080879  60.2304047  73.2516213 129.6990879
  53.8914047  68.8686213 127.9840879  54.7104047  67.9796213 128.4240879
  56.1024047  68.4516213 128.3960879  55.9094047  69.8046213 127.8450879
  54.6064047  70.0336213 127.6100879  52.8834047  68.7636213 127.9130879
  54.4144047  66.9986213 128.7750879  56.6704047  67.8846213 127.7830879
  56.4984047  68.4876213 129.3250879  56.7684047  70.4406213 127.6930879
  54.0994047  70.9016213 127.2140879 110.8204047  31.8006213  50.3580879
 111.5784047  31.0656213  51.0910879 112.8144047  31.7606213  51.4770879
 112.6064047  33.0556213  50.8060879 111.4304047  33.0636213  50.1540879
 109.9174047  31.5286213  49.9760879 111.3374047  30.0526213  51.3930879
 113.6304047  31.2886213  51.1140879 112.8774047  31.8726213  52.4780879
 113.3604047  33.8246213  50.8940879 110.9534047  33.8306213  49.5630879
 103.8974047  81.6396213  91.6660879 104.3304047  81.0706213  90.5960879
 105.1814047  81.9676213  89.8010879 105.1454047  83.1766213  90.6420879
 104.3884047  82.9676213  91.7330879 103.2954047  81.2126213  92.3640879
 104.0984047  80.0506213  90.3120879 104.7814047  82.1436213  88.8910879
 106.1214047  81.6066213  89.7190879 105.6914047  84.0546213  90.3300879
 104.1394047  83.6176213  92.5580879  79.8184047  65.6206213 127.7480879
  80.4304047  66.5456213 128.4010879  81.6194047  67.0296213 127.6860879
  81.5614047  66.1846213 126.4800879  80.4984047  65.3636213 126.5320879
  78.9744047  65.1406213 128.0490879  80.1094047  66.9256213 129.3640879
  82.4624047  66.8556213 128.2140879  81.5354047  68.0086213 127.4510879
  82.3214047  66.2946213 125.7200879  80.1444047  64.6186213 125.8360879
 110.2954047  59.2476213  62.8640879 109.8514047  58.0566213  62.6660879
 110.8584047  57.0346213  62.9820879 111.9794047  57.8926213  63.4050879
 111.6314047  59.1886213  63.3300879 109.7744047  60.1076213  62.7130879
 108.8534047  57.8296213  62.3090879 111.1014047  56.4916213  62.1660879
 110.5514047  56.4356213  63.7360879 112.9074047  57.4356213  63.7140879
 112.1884047  60.0856213  63.5570879 122.2884047  82.1136213  37.6740879
 123.2274047  81.5356213  37.0100879 124.2384047  82.4936213  36.5390879
 123.6794047  83.7476213  37.0740879 122.5354047  83.5076213  37.7370879
 121.4864047  81.6506213  38.0930879 123.2714047  80.4696213  36.8190879
 124.2834047  82.5136213  35.5310879 125.1454047  82.2976213  36.9380879
 124.2024047  84.6766213  36.8980879 121.8614047  84.1746213  38.2530879
 105.9434047  36.0226213  48.8130879 106.6884047  35.0156213  49.1110879
 108.0634047  35.1836213  48.6200879 107.9514047  36.5026213  47.9730879
 106.7014047  36.9816213  48.0960879 104.9604047  36.1246213  49.0500879
 106.3454047  34.1466213  49.6600879 108.3034047  34.4676213  47.9490879
 108.7264047  35.2036213  49.3810879 108.8194047  36.9336213  47.4960879
 106.2594047  37.9046213  47.7520879 129.2264047  57.1366213  55.3390879
 128.2274047  57.8666213  55.6910879 127.9274047  57.7346213  57.1240879
 128.9684047  56.7706213  57.5220879 129.7224047  56.4296213  56.4630879
 129.6104047  57.0686213  54.4000879 127.6704047  58.5056213  55.0150879
 127.0034047  57.3566213  57.2730879 128.0404047  58.6146213  57.6070879
 129.0274047  56.4506213  58.5520879 130.5644047  55.7586213  56.3780879
  89.4264047 122.9776213  84.8080879  88.1994047 122.6946213  84.5410879
  87.2644047 123.4316213  85.4020879  88.2154047 124.2006213  86.2240879
  89.4794047 123.9236213  85.8620879  90.2404047 122.5886213  84.3400879
  87.8884047 121.9956213  83.7720879  86.7144047 122.8036213  85.9710879
  86.6694047 124.0436213  84.8610879  87.8374047 124.8686213  86.9840879
  90.4224047 124.2936213  86.2370879  73.1664047  67.9716213  21.3150879
  72.1004047  67.3136213  21.6060879  70.9164047  68.1816213  21.6680879
  71.5294047  69.4836213  21.3520879  72.8504047  69.3426213  21.1470879
  74.0994047  67.5796213  21.2180879  72.0734047  66.2436213  21.7830879
  70.5094047  68.1836213  22.5930879  70.2314047  67.9206213  20.9730879
  70.9074047  70.3656213  21.3150879  73.6104047  70.0686213  20.8980879
  34.1684047  80.0056213  36.1650879  35.1934047  79.2326213  36.0790879
  35.2214047  78.2336213  37.1560879  33.9914047  78.5976213  37.8830879
  33.3854047  79.6386213  37.2880879  33.9434047  80.7676213  35.5300879
  35.9484047  79.3056213  35.3050879  36.0374047  78.3446213  37.7400879
  35.1654047  77.2946213  36.7890879  33.7104047  78.0346213  38.7610879
  32.4774047  80.1666213  37.5370879  82.9294047  19.8416213  59.8320879
  83.3924047  18.6696213  60.0890879  84.8394047  18.6936213  60.3500879
  85.1094047  20.1336213  60.1860879  83.9784047  20.7926213  59.8830879
  81.9594047  20.0636213  59.6230879  82.7914047  17.7676213  60.1140879
  85.3454047  18.1476213  59.6680879  85.0504047  18.3866213  61.2880879
  86.1174047  20.5006213  60.3160879  83.7964047  21.8406213  59.6960879
  86.6494047  40.2176213  28.1900879  86.8364047  41.1846213  29.0170879
  87.2394047  40.7036213  30.3450879  87.2434047  39.2496213  30.1070879
  86.8954047  38.9806213  28.8370879  86.3674047  40.3136213  27.2180879
  86.7144047  42.2326213  28.7670879  86.5614047  40.9566213  31.0500879
  88.1604047  41.0356213  30.5940879  87.5074047  38.5816213  30.9140879
  86.7924047  38.0426213  28.3130879 113.3114047  80.5246213 123.5000879
 112.0554047  80.5546213 123.2240879 111.5614047  81.9276213 123.0520879
 112.8034047  82.6836213 123.2900879 113.8214047  81.8466213 123.5510879
 113.8654047  79.6876213 123.6590879 111.4324047  79.6726213 123.1270879
 110.8584047  82.1536213 123.7410879 111.2134047  82.0796213 122.1170879
 112.7834047  83.7626213 123.2360879 114.8604047  82.0396213 123.7690879
 130.9804047  53.4346213  92.4860879 129.8664047  52.9436213  92.0690879
 128.7684047  53.9156213  92.1580879 129.4884047  55.0726213  92.7180879
 130.7854047  54.7746213  92.9040879 131.8714047  52.9456213  92.5160879
 129.7484047  51.9336213  91.6940879 128.0444047  53.5966213  92.7860879
 128.3884047  54.1266213  91.2460879 128.9484047  55.9886213  92.9120879
 131.6014047  55.3676213  93.2900879 105.4864047  92.6396213  65.0510879
 104.2254047  92.3926213  65.1150879 103.4164047  93.5776213  64.7960879
 104.4834047  94.5606213  64.5350879 105.6914047  93.9936213  64.6890879
 106.2324047  91.9716213  65.2310879 103.8054047  91.4276213  65.3730879
 102.8464047  93.8566213  65.5820879 102.8494047  93.4256213  63.9740879
 104.2154047  95.5716213  64.2630879 106.6854047  94.4026213  64.5810879
  59.2404047  52.3796213 127.6260879  58.4394047  53.1106213 128.3180879
  57.0424047  52.9556213 127.8870879  57.2114047  51.9776213 126.7980879
  58.5074047  51.6496213 126.6580879  60.2484047  52.3246213 127.7470879
  58.7524047  53.7636213 129.1240879  56.6654047  53.8266213 127.5420879
  56.4674047  52.5816213 128.6290879  56.3434047  51.6386213 126.2520879
  58.9974047  50.9736213 125.9730879  84.4094047  86.6086213 127.6240879
  83.8484047  85.5366213 127.1890879  83.1914047  84.7826213 128.2660879
  83.4954047  85.6516213 129.4170879  84.2114047  86.7186213 129.0230879
  84.9204047  87.2826213 127.0590879  83.8544047  85.2216213 126.1520879
  83.6034047  83.8676213 128.3800879  82.1954047  84.7136213 128.1140879
  83.1424047  85.3726213 130.3990879  84.6064047  87.5536213 129.5830879
  82.7664047  45.6536213 105.8750879  82.9194047  44.7046213 105.0200879
  84.3224047  44.5526213 104.6100879  84.9464047  45.6186213 105.4130879
  84.0194047  46.2546213 106.1500879  81.8864047  45.9376213 106.2970879
  82.1114047  44.0876213 104.6440879  84.4374047  44.7236213 103.6220879
  84.6834047  43.6436213 104.8640879  86.0124047  45.7796213 105.3420879
  84.1084047  47.0756213 106.8460879  83.8614047  26.3306213  44.3860879
  83.8674047  25.0626213  44.1670879  84.2214047  24.7456213  42.7770879
  84.4174047  26.1046213  42.2410879  84.2034047  27.0226213  43.1980879
  83.6464047  26.7786213  45.2730879  83.6394047  24.3136213  44.9170879
  83.4654047  24.2716213  42.3030879  85.0744047  24.2066213  42.7270879
  84.6964047  26.2286213  41.2040879  84.2544047  28.1006213  43.1700879
  21.4144047 106.5566213  89.0750879  20.8874047 107.7296213  89.0390879
  21.9044047 108.7906213  89.0510879  23.1314047 107.9766213  89.1040879
  22.8264047 106.6676213  89.1160879  20.9054047 105.6766213  89.0740879
  19.8204047 107.9176213  89.0020879  21.8174047 109.3736213  89.8720879
  21.8694047 109.3456213  88.2080879  24.0924047 108.4686213  89.1240879
  23.4584047 105.7926213  89.1500879  31.7694047 103.6396213  35.2770879
  32.6174047 104.2386213  36.0370879  34.0024047 104.0126213  35.6000879
  33.7704047 103.1546213  34.4260879  32.4544047 102.9456213  34.2490879
  30.7584047 103.6556213  35.3880879  32.3474047 104.8396213  36.8970879
  34.5374047 103.5286213  36.3070879  34.4524047 104.8786213  35.3380879
  34.6154047 102.7986213  33.8550879  31.9204047 102.3766213  33.5030879
  91.4864047 118.0256213  47.9000879  91.6534047 119.0016213  47.0780879
  91.4764047 120.3066213  47.7300879  91.1694047 119.8736213  49.1050879
  91.1804047 118.5326213  49.1880879  91.5604047 117.0376213  47.6720879
  91.8974047 118.8796213  46.0290879  90.7034047 120.8176213  47.3270879
  92.3254047 120.8526213  47.6990879  90.9804047 120.6186213  49.8640879
  91.0034047 117.8726213  50.0240879  78.1524047  16.4606213  90.6610879
  78.8554047  16.4496213  91.7380879  78.0744047  16.8686213  92.9100879
  76.7684047  17.1246213  92.2770879  76.8314047  16.8796213  90.9570879
  78.4834047  16.2086213  89.7330879  79.9004047  16.1646213  91.7810879
  78.4514047  17.7096213  93.3220879  78.0104047  16.1276213  93.5940879
  75.9414047  17.4586213  92.8860879  76.0794047  16.9566213  90.1850879
  87.8614047  38.2526213  99.8920879  88.3114047  39.2486213 100.5700879
  87.3314047  40.3386213 100.6640879  86.2184047  39.7576213  99.8920879
  86.5454047  38.5326213  99.4470879  88.3644047  37.3896213  99.6980879
  89.2964047  39.2826213 101.0220879  87.6764047  41.1826213 100.2290879
  87.0614047  40.5106213 101.6220879  85.3094047  40.3266213  99.7660879
  85.9874047  37.8206213  98.8570879  41.8304047 117.0226213  45.8530879
  41.1034047 117.2656213  44.8200879  41.9134047 117.6076213  43.6430879
  43.2664047 117.5096213  44.2200879  43.2004047 117.1656213  45.5170879
  41.4864047 116.7656213  46.7750879  40.0194047 117.2226213  44.8140879
  41.7194047 118.5446213  43.3230879  41.7844047 116.9366213  42.8990879
  44.1234047 117.7086213  43.5940879  43.9774047 117.0036213  46.2490879
  62.7924047  34.6456213 120.6370879  62.6474047  35.8986213 120.8890879
  61.3484047  36.4066213 120.4260879  60.7764047  35.1766213 119.8510879
  61.6354047  34.1526213 119.9840879  63.6084047  34.0846213 120.8670879
  63.3914047  36.5106213 121.3850879  61.4624047  37.1206213 119.7210879
  60.7894047  36.7456213 121.1960879  59.7904047  35.2076213 119.4100879
  61.5574047  33.1176213 119.6850879  32.7754047  61.5506213  45.9990879
  33.3324047  61.2046213  47.1050879  33.9214047  59.8596213  47.0280879
  33.5814047  59.5056213  45.6390879  32.9104047  60.5086213  45.0490879
  32.3074047  62.4356213  45.8210879  33.3674047  61.8276213  47.9920879
  33.4834047  59.2286213  47.6840879  34.9214047  59.8866213  47.1660879
  33.8824047  58.5436213  45.2500879  32.5084047  60.6016213  44.0510879
  26.6514047 102.1516213 102.4650879  27.7264047 102.8156213 102.7040879
  27.4894047 104.2666213 102.7030879  26.0454047 104.2956213 102.4100879
  25.5684047 103.0466213 102.2740879  26.5764047 101.1386213 102.4180879
  28.6944047 102.3636213 102.8870879  28.0184047 104.7246213 101.9750879
  27.6884047 104.6736213 103.6050879  25.5394047 105.2466213 102.3380879
  24.5724047 102.6866213 102.0610879 129.7194047  66.1396213  86.2670879
 129.5914047  67.1086213  87.1030879 128.3254047  67.0306213  87.8460879
 127.7514047  65.8086213  87.2570879 128.5824047  65.2976213  86.3330879
 130.5124047  65.9896213  85.6480879 130.3274047  67.8906213  87.2470879
 127.7414047  67.8336213  87.6630879 128.4864047  66.9196213  88.8370879
 126.7874047  65.4596213  87.5980879 128.4934047  64.4216213  85.7070879
  38.1944047  52.5426213  64.7580879  37.3004047  53.4416213  64.5410879
  35.9384047  52.9036213  64.6620879  36.2394047  51.5006213  64.9950879
  37.5674047  51.3046213  65.0480879  39.2004047  52.6856213  64.7300879
  37.5214047  54.4746213  64.2980879  35.4364047  52.9726213  63.7880879
  35.4284047  53.3556213  65.4070879  35.4254047  50.8086213  65.1550879
  38.1454047  50.4176213  65.2610879  83.7324047  63.6776213 133.3720879
  83.9294047  64.8746213 133.8020879  85.1534047  64.9746213 134.6100879
  85.6184047  63.5776213 134.5530879  84.7744047  62.8296213 133.8230879
  82.9514047  63.3756213 132.7950879  83.2734047  65.7126213 133.5950879
  84.9464047  65.2526213 135.5580879  85.8234047  65.6006213 134.1870879
  86.5294047  63.3026213 135.0650879  84.7944047  61.7806213 133.5690879
  74.3224047  98.9476213 121.0020879  73.0894047  98.7566213 121.3180879
  72.9484047  97.8356213 122.4540879  74.3654047  97.5356213 122.7260879
  75.1584047  98.1966213 121.8650879  74.6574047  99.5436213 120.2500879
  72.2514047  99.2186213 120.8090879  72.4424047  97.0016213 122.1920879
  72.5124047  98.2896213 123.2440879  74.6194047  96.8636213 123.5330879
  76.2334047  98.2196213 121.7660879  53.1034047  47.1916213 116.2300879
  53.9354047  48.1106213 116.5750879  53.4094047  48.9526213 117.6580879
  52.0934047  48.3226213 117.8640879  51.9304047  47.2906213 117.0190879
  53.2544047  46.4956213 115.5050879  54.9114047  48.2496213 116.1230879
  53.3124047  49.9136213 117.3630879  53.9814047  48.8856213 118.4880879
  51.4304047  48.7166213 118.6200879  51.1044047  46.6076213 116.8850879
  78.2474047 107.7836213 126.4160879  79.4294047 107.4426213 126.0370879
  79.4054047 106.2776213 125.1410879  77.9564047 106.0196213 125.0850879
  77.2904047 106.9126213 125.8380879  78.0234047 108.5586213 127.0340879
  80.3374047 107.9526213 126.3390879  79.9014047 105.4946213 125.5420879
  79.7714047 106.5076213 124.2280879  77.5874047 105.1986213 124.4880879
  76.2344047 107.0296213 126.0320879  32.4934047 118.7166213  64.1980879
  31.8684047 119.8406213  64.1480879  30.4474047 119.6656213  63.8170879
  30.3874047 118.1996213  63.6850879  31.5964047 117.6576213  63.9120879
  33.4804047 118.5956213  64.4090879  32.3304047 120.8036213  64.3300879
  30.2134047 120.1206213  62.9460879  29.8514047 119.9906213  64.5660879
  29.4474047 117.7286213  63.4370879  31.9254047 116.6296213  63.9030879
  46.1704047  74.0706213  29.9760879  45.8144047  74.3746213  31.1750879
  46.6124047  75.4816213  31.7220879  47.5044047  75.7496213  30.5810879
  47.2314047  74.9136213  29.5640879  45.7584047  73.3396213  29.4020879
  45.0214047  73.8776213  31.7200879  47.1364047  75.1906213  32.5350879
  46.0354047  76.2836213  31.9320879  48.2414047  76.5356213  30.6590879
  47.6764047  74.8206213  28.5850879 117.0124047 102.8366213  77.6610879
 115.9844047 103.3986213  77.1300879 116.3624047 104.3976213  76.1210879
 117.8314047 104.2916213  76.1850879 118.1964047 103.3706213  77.0930879
 116.9914047 102.1176213  78.3790879 114.9594047 103.1656213  77.3920879
 116.0524047 105.3226213  76.3840879 116.0174047 104.1466213  75.2060879
 118.4354047 104.9156213  75.5430879 119.1724047 103.0296213  77.4040879
  98.0134047 112.6296213 111.3500879  98.4114047 113.8526213 111.3870879
  97.3064047 114.7976213 111.1680879  96.1864047 113.8556213 110.9960879
  96.6184047 112.5876213 111.1060879  98.6024047 111.8106213 111.4760879
  99.4374047 114.1556213 111.5600879  97.4524047 115.3476213 110.3340879
  97.1644047 115.3916213 111.9720879  95.1944047 114.2406213 110.8120879
  96.0884047 111.6496213 111.0380879  89.9744047  73.8076213 128.9290879
  89.1624047  73.5766213 129.8990879  88.4154047  74.7796213 130.2920879
  88.9724047  75.7556213 129.3390879  89.8854047  75.1696213 128.5460879
  90.5904047  73.1256213 128.4950879  89.0394047  72.6096213 130.3740879
  88.6174047  75.0436213 131.2450879  87.4224047  74.6586213 130.1530879
  88.6214047  76.7766213 129.3620879  90.4884047  75.5686213 127.7440879
  95.9334047 120.0126213  78.0550879  96.3564047 119.6196213  76.9050879
  97.1404047 120.6576213  76.2220879  97.0784047 121.7346213  77.2260879
  96.3674047 121.3406213  78.2950879  95.3734047 119.4636213  78.7020879
  96.1594047 118.6396213  76.4860879  96.7034047 120.9396213  75.3560879
  98.0924047 120.3576213  76.0660879  97.5754047 122.6736213  77.0250879
  96.1174047 121.8566213  79.2100879 102.7134047  79.7706213 126.2720879
 101.4864047  79.5266213 126.5730879 101.1204047  80.0836213 127.8820879
 102.4004047  80.7006213 128.2720879 103.3244047  80.5086213 127.3160879
 103.1834047  79.4826213 125.4170879 100.8014047  78.9776213 125.9380879
 100.8524047  79.3566213 128.5300879 100.3904047  80.7776213 127.7970879
 102.4734047  81.2136213 129.2200879 104.3584047  80.8146213 127.2570879
  63.0304047 113.0556213  69.9400879  62.3824047 113.2866213  68.8530879
  62.1884047 114.7246213  68.6210879  62.8644047 115.2746213  69.8100879
  63.3534047 114.2826213  70.5730879  63.2794047 112.1386213  70.3000879
  62.0204047 112.5136213  68.1840879  61.2084047 114.9676213  68.6140879
  62.6414047 115.0256213  67.7710879  62.9034047 116.3446213  69.9480879
  63.8994047 114.3076213  71.5040879  97.3404047 121.6116213 102.5230879
  97.0474047 121.7766213 101.2810879  98.2044047 122.2306213 100.4980879
  99.2284047 122.2916213 101.5550879  98.7054047 121.9256213 102.7370879
  96.6984047 121.3036213 103.2490879  96.0644047 121.6026213 100.8590879
  98.0414047 123.1416213 100.0930879  98.4534047 121.5586213  99.7860879
 100.2324047 122.6016213 101.3020879  99.1524047 121.8506213 103.7180879
  58.7934047 128.8146213  90.6230879  58.5524047 129.1806213  91.8330879
  57.4754047 130.1786213  91.9020879  57.1464047 130.3086213  90.4710879
  57.9284047 129.5006213  89.7350879  59.4934047 128.1356213  90.3370879
  59.0784047 128.8006213  92.7010879  57.8074047 131.0526213  92.2820879
  56.6854047 129.8326213  92.4290879  56.3654047 130.9896213  90.1680879
  57.9704047 129.3336213  88.6690879  19.1884047  53.0396213  88.8390879
  20.1264047  52.2946213  88.3710879  19.9874047  52.0776213  86.9240879
  18.7654047  52.8566213  86.6590879  18.3094047  53.4156213  87.7930879
  19.0834047  53.3226213  89.8100879  20.9284047  51.8756213  88.9690879
  19.8504047  51.0996213  86.7110879  20.7764047  52.4506213  86.4170879
  18.3764047  52.9046213  85.6520879  17.4514047  54.0436213  87.9780879
  64.4244047 127.2236213  84.4890879  63.5314047 126.8466213  83.6430879
  62.3244047 126.3366213  84.3080879  62.7134047 126.5006213  85.7200879
  63.9484047 127.0236213  85.8090879  65.3364047 127.6096213  84.2580879
  63.6514047 126.8976213  82.5670879  62.1624047 125.3656213  84.0840879
  61.5144047 126.8986213  84.0840879  62.0214047 126.2086213  86.4960879
  64.5504047 127.2776213  86.6680879 108.6934047  78.2596213 104.4110879
 109.1664047  79.0606213 105.3010879 110.3054047  79.8376213 104.7920879
 110.3884047  79.3116213 103.4180879 109.4354047  78.3876213 103.2110879
 107.9084047  77.6276213 104.5390879 108.7734047  79.1546213 106.3060879
 111.1484047  79.6386213 105.3120879 110.1054047  80.8276213 104.7940879
 111.1504047  79.6906213 102.7520879 109.1974047  77.7986213 102.3370879
  34.8764047  67.0366213  57.8750879  33.6034047  66.8506213  57.8720879
  32.8814047  67.9946213  57.2970879  34.0134047  68.8796213  56.9690879
  35.1764047  68.3026213  57.3140879  35.5714047  66.3816213  58.2240879
  33.1164047  65.9586213  58.2480879  32.2684047  68.4216213  57.9750879
  32.3724047  67.7286213  56.4660879  33.8194047  69.8406213  56.5140879
  36.1954047  68.6506213  57.2250879  69.1724047  28.2096213  67.4080879
  68.6814047  27.0476213  67.6580879  67.4404047  27.1296213  68.4420879
  67.3224047  28.5906213  68.5910879  68.3464047  29.2096213  67.9790879
  70.0224047  28.3956213  66.8830879  69.1254047  26.1146213  67.3300879
  67.5414047  26.6776213  69.3390879  66.6564047  26.7496213  67.9320879
  66.4854047  29.0006213  69.1380879  68.5844047  30.2586213  67.8820879
  89.1734047  82.7306213 120.4380879  88.9364047  82.4756213 119.1990879
  90.0354047  81.7286213 118.5700879  90.9584047  81.6106213 119.7130879
  90.4374047  82.2026213 120.8010879  88.5564047  83.2336213 121.0690879
  88.0334047  82.7716213 118.6780879  90.4534047  82.2556213 117.8160879
  89.7294047  80.8206213 118.2510879  91.8984047  81.0956213 119.5820879
  90.8254047  82.3106213 121.8030879  77.6814047 116.9796213  53.2450879
  77.8214047 118.2566213  53.1790879  79.2304047 118.6626213  53.2740879
  79.8734047 117.3436213  53.4100879  78.9504047 116.3666213  53.3910879
  76.7994047 116.4756213  53.2010879  76.9994047 118.9556213  53.0650879
  79.3944047 119.2346213  54.0890879  79.5364047 119.1336213  52.4340879
  80.9484047 117.2856213  53.5050879  79.0514047 115.2946213  53.4650879
  67.5334047 123.5786213 114.0540879  68.0024047 123.5556213 112.8560879
  67.0024047 123.9806213 111.8660879  65.8564047 124.2516213 112.7510879
  66.1844047 124.0116213 114.0320879  68.0444047 123.3266213 114.8960879
  69.0144047 123.2606213 112.6030879  66.7934047 123.2386213 111.2140879
  67.2964047 124.8156213 111.3810879  64.9264047 124.5946213 112.3220879
  65.6074047 124.0996213 114.9400879  51.1104047 101.6546213 100.7690879
  51.1624047 102.0956213  99.5620879  50.3524047 101.2826213  98.6430879
  49.8214047 100.2786213  99.5820879  50.2754047 100.5106213 100.8250879
  51.5894047 102.0576213 101.5700879  51.7344047 102.9636213  99.2540879
  50.9244047 100.8516213  97.9310879  49.6084047 101.8266213  98.2300879
  49.1644047  99.5046213  99.2120879  50.0984047  99.9886213 101.7530879
  32.4884047  35.1236213  75.8490879  31.2614047  35.3236213  75.5180879
  30.5654047  34.0696213  75.1990879  31.6554047  33.1026213  75.4170879
  32.7774047  33.7376213  75.7990879  33.1574047  35.8426213  76.1100879
  30.7914047  36.2996213  75.4790879  30.2514047  34.0556213  74.2390879
  29.7964047  33.9026213  75.8330879  31.4684047  32.0496213  75.2630879
  33.7584047  33.3586213  76.0430879  42.3944047  65.8766213  87.9060879
  43.0294047  66.9946213  87.8650879  42.1154047  68.1456213  87.8490879
  40.8174047  67.4496213  87.8890879  40.9984047  66.1186213  87.9230879
  42.8194047  64.9526213  87.9250879  44.1094047  67.0826213  87.8450879
  42.2164047  68.6836213  87.0000879  42.2434047  68.7296213  88.6630879
  39.9064047  68.0306213  87.8890879  40.2874047  65.3066213  87.9570879
 118.1384047  42.9026213  54.1750879 119.2004047  43.4946213  53.7530879
 118.9074047  44.8266213  53.2060879 117.4484047  44.8756213  53.4030879
 117.0134047  43.7396213  53.9730879 118.1014047  41.9766213  54.5920879
 120.1954047  43.0656213  53.7950879 119.1464047  44.8826213  52.2260879
 119.3734047  45.5516213  53.7330879 116.9024047  45.7556213  53.0950879
 116.0204047  43.4256213  54.2620879  92.6234047 123.2476213  71.0280879
  91.6604047 122.4046213  70.8970879  90.5004047 122.9946213  70.2150879
  91.0014047 124.3606213  69.9800879  92.2484047 124.4926213  70.4620879
  93.5204047 123.0606213  71.4670879  91.6964047 121.3796213  71.2470879
  89.6864047 123.0016213  70.8120879  90.3054047 122.5216213  69.3440879
  90.3684047 125.0766213  69.4780879  92.9204047 125.3376213  70.4690879
  94.0454047  83.7926213  38.5480879  93.6264047  83.9866213  37.3470879
  93.2404047  82.7306213  36.6890879  93.5264047  81.7696213  37.7690879
  93.9974047  82.4096213  38.8530879  94.3634047  84.5136213  39.1890879
  93.5644047  84.9586213  36.8720879  93.8124047  82.5486213  35.8770879
  92.2594047  82.7276213  36.4470879  93.3434047  80.7186213  37.6040879
  94.3074047  82.0356213  39.8180879  36.1544047  33.4016213  86.0100879
  36.6644047  32.4596213  85.2960879  37.5024047  32.9836213  84.2090879
  37.3654047  34.4316213  84.4480879  36.5724047  34.6596213  85.5090879
  35.5444047  33.2736213  86.8130879  36.4984047  31.4026213  85.4740879
  37.1344047  32.7266213  83.3040879  38.4624047  32.6856213  84.3070879
  37.8784047  35.1256213  83.7990879  36.2534047  35.5816213  85.9700879
  27.3474047  42.4606213  88.7790879  28.5734047  42.6226213  88.4240879
  28.7944047  42.2466213  87.0210879  27.4324047  41.8316213  86.6430879
  26.5944047  41.9646213  87.6860879  26.9654047  42.6566213  89.7000879
  29.3534047  42.9926213  89.0790879  29.4454047  41.4776213  86.9440879
  29.1034047  43.0356213  86.4720879  27.2444047  41.4866213  85.6370879
  25.5384047  41.7606213  87.7770879 107.2674047  77.6646213 125.5470879
 106.3094047  78.5176213 125.6530879 106.8054047  79.8996213 125.7000879
 108.2554047  79.6616213 125.5980879 108.5104047  78.3446213 125.5090879
 107.1614047  76.6556213 125.4960879 105.2604047  78.2516213 125.7010879
 106.5684047  80.3456213 126.5740879 106.4674047  80.4396213 124.9160879
 108.9324047  80.5036213 125.6040879 109.4424047  77.8076213 125.4210879
  36.2424047  74.5856213 118.4530879  35.6884047  75.1446213 119.4710879
  34.2514047  74.8436213 119.5500879  34.0964047  73.9926213 118.3570879
  35.2744047  73.8506213 117.7250879  37.2244047  74.6546213 118.2000879
  36.2144047  75.7636213 120.1880879  33.6954047  75.6836213 119.4740879
  34.0274047  74.3366213 120.3940879  33.1234047  73.5886213 118.1180879
  35.5374047  73.3046213 116.8310879  99.8574047  85.0106213  88.3130879
 100.9324047  84.3246213  88.1450879 100.6914047  82.8816213  88.2790879
  99.2454047  82.8826213  88.5620879  98.7714047  84.1396213  88.5770879
  99.7854047  86.0236213  88.2650879 101.9034047  84.7556213  87.9280879
 101.2144047  82.4906213  89.0500879 100.8964047  82.3916213  87.4190879
  98.7364047  81.9426213  88.7180879  97.7754047  84.5196213  88.7490879
  65.5054047  33.2586213  78.9670879  65.7114047  34.0586213  79.9530879
  64.9394047  35.3026213  79.8230879  64.2454047  35.0486213  78.5480879
  64.5884047  33.8446213  78.0590879  65.9314047  32.3436213  78.8460879
  66.3724047  33.8446213  80.7840879  65.5474047  36.1066213  79.7540879
  64.2824047  35.4106213  80.5820879  63.5744047  35.7966213  78.1530879
  64.2824047  33.3316213  77.1600879  43.8194047  95.7136213 106.1530879
  43.0684047  96.6296213 105.6530879  43.8044047  97.5006213 104.7270879
  45.1434047  96.8906213 104.8010879  45.1354047  95.8426213 105.6420879
  43.5254047  94.9996213 106.8150879  42.0154047  96.7476213 105.8830879
  43.8194047  98.4566213 105.0540879  43.4284047  97.4456213 103.7910879
  45.9494047  97.3086213 104.2160879  45.9224047  95.1656213 105.9400879
  93.9934047  46.0456213  98.6640879  92.7744047  45.7866213  98.9850879
  92.4064047  46.3856213 100.2760879  93.6754047  47.0456213 100.6300879
  94.5964047  46.8366213  99.6730879  94.4624047  45.7356213  97.8170879
  92.0954047  45.1986213  98.3780879  92.1604047  45.6786213 100.9530879
  91.6604047  47.0596213 100.1700879  93.7444047  47.5966213 101.5560879
  95.6224047  47.1626213  99.5940879  41.7874047  34.5456213  44.1950879
  42.8644047  34.8456213  44.8330879  42.7854047  34.4746213  46.2520879
  41.4304047  33.8966213  46.2960879  40.8594047  33.9456213  45.0810879
  41.6184047  34.7096213  43.2060879  43.7304047  35.3156213  44.3800879
  42.8554047  35.2856213  46.8490879  43.4844047  33.7866213  46.4930879
  41.0484047  33.5136213  47.2320879  39.8874047  33.6186213  44.7410879
  92.1424047 109.1706213  61.3640879  90.8714047 109.2846213  61.5270879
  90.4974047 110.6126213  62.0330879  91.8274047 111.2396213  62.1280879
  92.7814047 110.3806213  61.7310879  92.6264047 108.3436213  61.0240879
  90.1574047 108.4966213  61.3160879  90.0574047 110.5496213  62.9400879
  89.9064047 111.1036213  61.3780879  91.9074047 112.2576213  62.4800879
  93.8544047 110.4926213  61.6670879  79.5614047  25.0746213  82.4920879
  80.4324047  25.9206213  82.9160879  80.0254047  27.3086213  82.6530879
  78.7324047  27.0796213  81.9840879  78.4744047  25.7636213  81.8990879
  79.6314047  24.0626213  82.5660879  81.3574047  25.6476213  83.4110879
  80.6784047  27.7726213  82.0380879  79.9074047  27.8276213  83.5110879
  78.1534047  27.9276213  81.6500879  77.6344047  25.2316213  81.4780879
  55.7864047  90.2626213  30.5500879  57.0574047  90.3866213  30.3920879
  57.7794047  89.1596213  30.7570879  56.6504047  88.3016213  31.1600879
  55.4884047  88.9636213  31.0310879  55.0914047  90.9806213  30.3600879
  57.5424047  91.2866213  30.0330879  58.4094047  89.3196213  31.5290879
  58.2694047  88.7706213  29.9640879  56.8454047  87.2936213  31.4950879
  54.4714047  88.6576213  31.2300879  86.6814047 115.3836213  60.7640879
  87.6924047 114.7166213  60.3300879  87.5864047 113.2856213  60.6460879
  86.2964047 113.2706213  61.3580879  85.7784047 114.5096213  61.4180879
  86.5414047 116.3846213  60.6600879  88.5254047 115.1546213  59.7920879
  88.3394047 112.9856213  61.2480879  87.5474047 112.7246213  59.8080879
  85.9124047 112.3346213  61.7380879  84.8604047 114.8736213  61.8560879
 122.7934047  93.5486213  39.4250879 123.5794047  92.5336213  39.3380879
 123.3434047  91.7586213  38.1120879 122.2514047  92.5446213  37.5110879
 121.9414047  93.5916213  38.2940879 122.7784047  94.2246213  40.1850879
 124.3294047  92.2776213  40.0780879 123.0424047  90.8176213  38.3240879
 124.1594047  91.7516213  37.5170879 121.8314047  92.2306213  36.5670879
 121.2034047  94.3716213  38.1750879 120.6624047  93.0446213  95.6410879
 120.1854047  93.7946213  94.7110879 118.7324047  93.9736213  94.8390879
 118.4744047  93.1656213  96.0440879 119.6174047  92.6276213  96.5020879
 121.6394047  92.7856213  95.7520879 120.7814047  94.2436213  93.9240879
 118.2434047  93.6016213  94.0380879 118.4924047  94.9436213  94.9900879
 117.4654047  93.0856213  96.4210879 119.8104047  91.9896213  97.3520879
  21.5434047  78.1046213  65.7600879  22.3974047  78.5366213  64.9010879
  22.2704047  77.8516213  63.6070879  21.1604047  76.9306213  63.9050879
  20.7444047  77.0916213  65.1730879  21.4464047  78.4316213  66.7180879
  23.1254047  79.3136213  65.1020879  23.1124047  77.3456213  63.3750879
  22.0224047  78.4976213  62.8710879  20.8064047  76.2606213  63.1350879
  19.9634047  76.5976213  65.7320879 129.3074047  67.4086213  52.7250879
 129.2124047  67.4426213  54.0070879 128.2074047  66.4946213  54.5090879
 127.7434047  65.9076213  53.2400879 128.3994047  66.4546213  52.2020879
 129.9364047  67.9756213  52.1610879 129.8014047  68.0906213  54.6460879
 127.4564047  66.9726213  54.9870879 128.6264047  65.7946213  55.1050879
 126.9764047  65.1466213  53.2580879 128.3244047  66.2726213  51.1400879
  76.0484047  72.7806213 122.1470879  75.2974047  73.8246213 122.1240879
  75.9204047  74.9346213 121.3890879  77.1934047  74.3046213 120.9940879
  77.2524047  73.0406213 121.4460879  75.8234047  71.8966213 122.5970879
  74.3204047  73.8826213 122.5890879  76.0774047  75.7306213 121.9890879
  75.3734047  75.1936213 120.5800879  77.9084047  74.8746213 120.4190879
  78.0204047  72.2886213 121.3500879  83.0404047  39.8636213 106.3760879
  83.4934047  41.0666213 106.3210879  84.9624047  41.1026213 106.3240879
  85.2594047  39.6606213 106.3930879  84.1214047  38.9476213 106.4220879
  82.0594047  39.5986213 106.3850879  82.8694047  41.9516213 106.2770879
  85.3174047  41.5876213 107.1350879  85.3234047  41.5096213 105.4730879
  86.2884047  39.3326213 106.4120879  83.9524047  37.8816213 106.4720879
  58.2504047  86.7366213  23.7370879  57.5714047  85.6446213  23.7680879
  56.1334047  85.8846213  23.5870879  56.1284047  87.3516213  23.4450879
  57.3794047  87.8356213  23.5350879  59.2594047  86.8116213  23.8400879
  58.0044047  84.6606213  23.9100879  55.6064047  85.5946213  24.3980879
  55.7864047  85.4356213  22.7510879  55.1914047  87.8656213  23.2920879
  57.7544047  88.8466213  23.4780879  44.9214047 128.4276213  68.7450879
  46.1444047 128.3196213  68.3610879  46.7964047 127.1296213  68.9250879
  45.6854047 126.5746213  69.7180879  44.5924047 127.3476213  69.6010879
  44.2794047 129.1696213  68.4800879  46.6394047 129.0206213  67.6990879
  47.5764047 127.3816213  69.5150879  47.0844047 126.4876213  68.2000879
  45.8384047 125.6636213  70.2790879  43.6074047 127.2526213  70.0340879
 123.6374047  58.7056213  61.8170879 123.9964047  57.5606213  61.3540879
 122.8434047  56.6896213  61.0850879 121.7424047  57.5796213  61.4930879
 122.2244047  58.7586213  61.9200879 124.2624047  59.4656213  62.0740879
 125.0254047  57.2686213  61.1800879 122.8704047  55.8566213  61.6550879
 122.7794047  56.4546213  60.1050879 120.7234047  57.2286213  61.4170879
 121.7204047  59.6396213  62.2890879  80.1614047 121.5856213  80.6020879
  81.2704047 120.9496213  80.7410879  81.0584047 119.5096213  80.9460879
  79.5864047 119.4526213  80.8970879  79.0754047 120.6796213  80.6930879
  80.0654047 122.5866213  80.4490879  82.2484047 121.4156213  80.7100879
  81.4054047 119.2116213  81.8460879  81.4704047 118.9666213  80.2020879
  79.0894047 118.5016213  81.0180879  78.0534047 121.0156213  80.6020879
  58.8894047 117.7066213  89.6620879  57.9604047 118.5966213  89.6690879
  57.8354047 119.2516213  90.9790879  58.8914047 118.5456213  91.7260879
  59.5004047 117.6436213  90.9390879  59.1534047 117.1306213  88.8670879
  57.3424047 118.8396213  88.8120879  56.9264047 119.0856213  91.3870879
  58.0284047 120.2406213  90.9170879  59.0674047 118.8006213  92.7610879
  60.3084047 116.9556213  91.1420879  28.8754047  49.4456213  64.6730879
  29.2434047  48.4426213  63.9560879  28.2914047  47.3266213  64.0390879
  27.2934047  47.9016213  64.9590879  27.6514047  49.1456213  65.3200879
  29.3774047  50.3246213  64.7670879  30.1484047  48.4196213  63.3590879
  28.7214047  46.5036213  64.4350879  27.8834047  47.1226213  63.1380879
  26.4304047  47.3156213  65.2360879  27.1704047  49.8606213  65.9720879
 114.6004047  34.6386213  86.5850879 115.5174047  35.4016213  87.0680879
 114.9654047  36.4296213  87.9610879 113.5314047  36.0956213  87.8890879
 113.3344047  35.0416213  87.0790879 114.7494047  33.8616213  85.9470879
 116.5734047  35.3006213  86.8450879 115.1414047  37.3586213  87.6060879
 115.3174047  36.3286213  88.9020879 112.8224047  36.6836213  88.4530879
 112.4294047  34.5266213  86.7920879  71.9314047  96.9776213 114.6870879
  71.2964047  95.8806213 114.4660879  70.6694047  95.8656213 113.1370879
  71.0784047  97.1916213 112.6400879  71.8184047  97.8306213 113.5610879
  72.4394047  97.2086213 115.5370879  71.2304047  95.0616213 115.1720879
  69.6644047  95.7956213 113.2050879  71.0454047  95.1266213 112.5600879
  70.7704047  97.5046213 111.6530879  72.2834047  98.8056213 113.5460879
 101.6624047  24.4416213  86.6950879 101.5844047  25.5086213  85.9800879
 100.5534047  25.4006213  84.9380879 100.0534047  24.0406213  85.2060879
 100.7134047  23.4916213  86.2400879 102.3014047  24.2916213  87.4700879
 102.2044047  26.3856213  86.1260879 100.9554047  25.4666213  84.0140879
  99.8264047  26.0896213  85.0660879  99.2594047  23.6386213  84.5930879
 100.6174047  22.5246213  86.7100879  26.8384047  88.5926213  44.1830879
  25.6634047  88.3066213  43.7450879  24.9104047  89.5086213  43.3610879
  25.9044047  90.5506213  43.6740879  27.0314047  89.9966213  44.1540879
  27.5324047  87.9216213  44.5030879  25.2714047  87.2986213  43.6650879
  24.0794047  89.6166213  43.9240879  24.6834047  89.5036213  42.3770879
  25.6574047  91.5876213  43.5000879  27.9574047  90.4436213  44.4830879
 121.4354047  88.8136213  88.7160879 120.9304047  89.9936213  88.6370879
 119.5554047  89.9706213  88.1180879 119.3764047  88.5216213  87.9160879
 120.4894047  87.8576213  88.2720879 122.3704047  88.5886213  89.0470879
 121.4524047  90.9016213  88.9180879 119.4824047  90.4736213  87.2460879
 118.8984047  90.3286213  88.7980879 118.4374047  88.1536213  87.5290879
 120.7194047  86.8026213  88.2600879  67.4434047  31.8956213 118.9530879
  66.2084047  32.1816213 118.7310879  65.9904047  33.6306213 118.6190879
  67.3654047  34.1196213 118.8240879  68.2054047  33.0886213 119.0180879
  67.8254047  30.9606213 119.0660879  65.4194047  31.4446213 118.6370879
  65.3714047  33.9666213 119.3420879  65.6454047  33.8816213 117.7030879
  67.5584047  35.1816213 118.8000879  69.2704047  33.0666213 119.1980879
  88.3184047  79.0196213  23.8780879  87.1244047  78.9926213  24.3560879
  86.7984047  77.6866213  24.9460879  88.0614047  76.9676213  24.7050879
  88.9434047  77.7636213  24.0780879  88.7584047  79.8166213  23.4240879
  86.4374047  79.8306213  24.3290879  86.0284047  77.2466213  24.4630879
  86.6054047  77.7676213  25.9340879  88.1564047  75.9416213  25.0320879
  89.9544047  77.5796213  23.7470879 109.3404047  86.5066213  90.3160879
 108.1724047  85.9886213  90.4650879 107.1694047  86.9916213  90.8480879
 108.0114047  88.2006213  90.8890879 109.2824047  87.8986213  90.5740879
 110.1844047  86.0036213  90.0540879 107.9494047  84.9366213  90.3240879
 106.7754047  86.7906213  91.7560879 106.4454047  87.0736213  90.1490879
 107.5634047  89.1486213  91.1480879 110.1624047  88.5206213  90.5030879
 107.7504047 103.9236213  30.4930879 109.0344047 103.8876213  30.5560879
 109.6164047 105.2296213  30.7040879 108.3904047 106.0466213  30.7120879
 107.3044047 105.2646213  30.5880879 107.1384047 103.1176213  30.3910879
 109.6224047 102.9786213  30.5070879 110.2064047 105.4636213  29.9180879
 110.1214047 105.3186213  31.5740879 108.4694047 107.1196213  30.8100879
 106.2534047 105.5116213  30.5550879  79.3734047  58.3746213  34.5000879
  80.1494047  57.5326213  33.9140879  80.1244047  56.2146213  34.5630879
  79.1674047  56.4776213  35.6520879  78.7354047  57.7486213  35.6010879
  79.2304047  59.3426213  34.2250879  80.7514047  57.7636213  33.0420879
  81.0334047  55.9676213  34.9280879  79.7804047  55.5016213  33.9370879
  78.9174047  55.6836213  36.3400879  78.0394047  58.2876213  36.2270879
  51.6544047 126.5286213  79.2190879  51.8954047 126.9636213  80.4050879
  50.8474047 126.5716213  81.3590879  49.9504047 125.8166213  80.4660879
  50.4384047 125.8006213  79.2140879  52.2404047 126.6776213  78.4010879
  52.7664047 127.5496213  80.6740879  50.3824047 127.3796213  81.7470879
  51.2174047 125.9816213  82.0900879  49.0504047 125.3766213  80.8700879
  50.0564047 125.3496213  78.3100879  43.9234047  97.2976213  93.3990879
  43.4374047  98.4066213  92.9630879  43.6874047  99.5186213  93.8910879
  44.4204047  98.8126213  94.9550879  44.5514047  97.5096213  94.6510879
  43.8704047  96.3996213  92.9250879  42.9074047  98.5126213  92.0240879
  42.8234047  99.9086213  94.2390879  44.2604047 100.2336213  93.4640879
  44.7624047  99.3646213  95.8190879  45.0234047  96.6996213  95.1870879
  55.6964047  97.4676213 129.3060879  56.3604047  96.9756213 128.3200879
  55.8794047  97.4806213 127.0260879  54.7944047  98.3686213 127.4790879
  54.7004047  98.3496213 128.8190879  55.8534047  97.2616213 130.2890879
  57.1784047  96.2726213 128.4260879  55.5224047  96.7326213 126.4490879
  56.5984047  97.9986213 126.5420879  54.2174047  98.9136213 126.7460879
  54.0324047  98.8686213 129.4900879  34.8204047  60.1496213  88.6490879
  34.6614047  60.8326213  87.5710879  33.2414047  61.0556213  87.2630879
  32.6154047  60.3526213  88.3970879  33.5554047  59.8266213  89.2010879
  35.7124047  59.8776213  89.0540879  35.4754047  61.2036213  86.9580879
  32.9844047  60.6316213  86.3840879  33.0124047  62.0386213  87.2710879
  31.5384047  60.3256213  88.4730879  33.4694047  59.2546213  90.1130879
  56.7564047 108.2386213 110.4290879  57.5474047 107.2366213 110.5960879
  58.9504047 107.5956213 110.3490879  58.7994047 109.0196213 110.0030879
  57.5064047 109.3816213 110.0550879  55.7474047 108.2236213 110.5460879
  57.2204047 106.2446213 110.8860879  59.3334047 107.0706213 109.5760879
  59.5124047 107.4786213 111.1800879  59.6774047 109.6006213 109.7570879
  57.0274047 110.3306213 109.8670879 114.8024047 113.5986213  52.5950879
 114.7294047 112.5056213  53.2700879 115.9494047 111.6976213  53.1440879
 116.7424047 112.5586213  52.2490879 116.0554047 113.6706213  51.9370879
 114.0784047 114.3096213  52.5350879 113.8714047 112.2136213  53.8640879
 115.7564047 110.8036213  52.7140879 116.4064047 111.5776213  54.0360879
 117.7304047 112.2426213  51.9490879 116.3164047 114.5146213  51.3150879
 103.5464047  49.6216213  88.1830879 104.0504047  48.5236213  87.7430879
 103.1674047  47.3746213  87.9870879 102.0454047  48.0466213  88.6650879
 102.2834047  49.3656213  88.7720879 103.9784047  50.5406213  88.1240879
 105.0124047  48.4496213  87.2480879 103.6064047  46.6956213  88.5930879
 102.8694047  46.9476213  87.1220879 101.1964047  47.4626213  88.9890879
 101.6924047  50.1596213  89.2030879  44.7514047 101.4536213  81.1110879
  44.4354047 102.1106213  82.1710879  44.6244047 103.5576213  81.9980879
  45.1184047 103.5936213  80.6100879  45.1854047 102.3506213  80.1040879
  44.7004047 100.4436213  81.0020879  44.0724047 101.6556213  83.0850879
  45.3154047 103.9186213  82.6410879  43.7514047 104.0576213  82.0890879
  45.3604047 104.5446213  80.1590879  45.4964047 101.9966213  79.1320879
  17.2144047  89.4556213  75.6020879  17.5834047  88.9786213  76.7380879
  19.0064047  89.2286213  77.0040879  19.3794047  89.9536213  75.7760879
  18.3154047  90.0786213  74.9640879  16.2774047  89.4016213  75.2120879
  16.9254047  88.4536213  77.4220879  19.5224047  88.3646213  77.0900879
  19.1324047  89.8076213  77.8230879  20.3964047  90.2926213  75.6500879
  18.2144047  90.5436213  73.9950879  55.9244047 118.7876213 116.7170879
  55.5734047 117.5646213 116.5300879  54.8214047 117.0266213 117.6720879
  54.8134047 118.2036213 118.5590879  55.4634047 119.2286213 117.9830879
  56.4504047 119.3616213 116.0640879  55.8034047 116.9946213 115.6380879
  55.3054047 116.2506213 118.1000879  53.8834047 116.7636213 117.4040879
  54.3204047 118.1396213 119.5180879  55.6554047 120.2326213 118.3330879
  50.1034047  95.2756213 111.3230879  51.3334047  94.9236213 111.1870879
  52.2044047  96.0676213 110.8840879  51.2104047  97.1566213 110.8730879
  49.9834047  96.6746213 111.1330879  49.3284047  94.6536213 111.5350879
  51.6904047  93.9046213 111.2860879  52.6444047  95.9656213 109.9810879
  52.8934047  96.2096213 111.6080879  51.5354047  98.1666213 110.6730879
  49.0274047  97.1706213 111.2050879  39.2354047 107.8086213  37.1950879
  40.0394047 107.5656213  38.1700879  39.8944047 106.1926213  38.6740879
  38.8324047 105.6966213  37.7810879  38.4574047 106.6576213  36.9190879
  39.1604047 108.6896213  36.6930879  40.7434047 108.2846213  38.5730879
  39.5944047 106.1846213  39.6380879  40.7474047 105.6646213  38.5560879
  38.4794047 104.6816213  37.8910879  37.7174047 106.6546213  36.1320879
 120.7884047  60.0836213  41.6110879 121.9284047  60.5386213  41.9960879
 122.4304047  61.5916213  41.1020879 121.3344047  61.6446213  40.1190879
 120.3784047  60.7536213  40.4320879 120.2534047  59.3536213  42.0750879
 122.4594047  60.1906213  42.8750879 123.3004047  61.3206213  40.6660879
 122.5294047  62.4716213  41.5880879 121.3944047  62.3446213  39.2970879
 119.4434047  60.5166213  39.9470879  54.8244047  49.2326213  29.6960879
  53.7694047  49.7916213  30.1750879  53.5964047  49.5056213  31.6060879
  54.7794047  48.6606213  31.8490879  55.4894047  48.5106213  30.7180879
  55.1434047  49.2936213  28.7330879  53.0864047  50.4026213  29.5960879
  52.7414047  48.9956213  31.7790879  53.6314047  50.3506213  32.1580879
  54.9544047  48.2686213  32.8400879  56.4014047  47.9676213  30.5200879
  34.2634047  93.1086213  37.2950879  34.5964047  92.1806213  38.1200879
  33.4694047  91.7656213  38.9670879  32.4144047  92.6556213  38.4530879
  32.8964047  93.4376213  37.4710879  34.8784047  93.5476213  36.6140879
  35.5904047  91.7506213  38.1860879  33.6564047  91.9466213  39.9430879
  33.2344047  90.7946213  38.8180879  31.4234047  92.6026213  38.8790879
  32.4194047  94.1976213  36.8710879 104.7174047  44.3956213  61.0980879
 104.5474047  43.7876213  59.9770879 103.1324047  43.7396213  59.5840879
 102.5214047  44.4516213  60.7210879 103.4644047  44.8296213  61.6000879
 105.6084047  44.5476213  61.5620879 105.3514047  43.3596213  59.3880879
 102.7984047  42.7886213  59.5260879 102.9744047  44.2316213  58.7170879
 101.4514047  44.5936213  60.7420879 103.3894047  45.3646213  62.5350879
  92.4024047  65.6606213  24.4750879  91.3254047  65.1476213  24.9580879
  90.1524047  65.4436213  24.1240879  90.7834047  66.2376213  23.0560879
  92.1044047  66.3546213  23.2760879  93.3304047  65.5846213  24.8820879
  91.2844047  64.5656213  25.8710879  89.4694047  65.9896213  24.6300879
  89.7384047  64.5986213  23.7560879  90.1734047  66.6236213  22.2520879
  92.8754047  66.8586213  22.7120879  37.0244047  68.5356213  44.2960879
  37.4354047  68.3176213  45.4960879  38.5474047  69.2036213  45.8660879
  38.6894047  69.9796213  44.6210879  37.7874047  69.5756213  43.7100879
  36.2674047  68.0426213  43.8290879  37.0134047  67.5706213  46.1580879
  39.3864047  68.6786213  46.0670879  38.3004047  69.8006213  46.6430879
  39.4484047  70.7466213  44.5590879  37.5994047  69.9116213  42.7010879
  41.1844047  37.4416213  46.8300879  42.0174047  38.3626213  47.1680879
  41.9894047  38.6256213  48.6140879  40.9604047  37.6596213  49.0360879
  40.4984047  36.9726213  47.9780879  41.0334047  37.0956213  45.8860879
  42.6654047  38.8836213  46.4730879  41.7024047  39.5736213  48.8100879
  42.8814047  38.4216213  49.0430879  40.6914047  37.5956213  50.0810879
  39.7524047  36.1946213  47.9080879  87.0924047  64.4416213 110.8090879
  85.8164047  64.6036213 110.7970879  85.4424047  66.0236213 110.7360879
  86.7774047  66.6456213 110.7160879  87.7354047  65.7036213 110.7580879
  87.5774047  63.5486213 110.8480879  85.0984047  63.7916213 110.8280879
  84.9214047  66.3026213 111.5550879  84.9274047  66.2326213 109.8920879
  86.8594047  67.7216213 110.6700879  88.8114047  65.7866213 110.7590879
  69.4494047 119.5176213 110.3810879  70.6374047 120.0106213 110.3540879
  70.6224047 121.4786213 110.2820879  69.1694047 121.7256213 110.2710879
  68.4954047 120.5646213 110.3310879  69.2184047 118.5286213 110.4320879
  71.5444047 119.4186213 110.3830879  71.0544047 121.8096213 109.4310879
  71.0584047 121.8926213 111.0930879  68.8054047 122.7416213 110.2220879
  67.4354047 120.3596213 110.3440879  97.9064047  90.0826213 123.1530879
  97.6804047  91.3246213 123.4030879  96.2444047  91.6066213 123.5380879
  95.6904047  90.2606213 123.3110879  96.6794047  89.3776213 123.0880879
  98.8214047  89.6606213 123.0220879  98.4544047  92.0766213 123.5040879
  95.9284047  92.2556213 122.8310879  96.0204047  91.9436213 124.4640879
  94.6204047  90.1156213 123.3440879  96.6504047  88.3166213 122.8870879
  75.2194047 109.5256213 113.1640879  74.3374047 110.4096213 113.4750879
  73.5204047 109.9916213 114.6220879  74.1204047 108.6756213 114.9060879
  75.1164047 108.4176213 114.0410879  75.8934047 109.6006213 112.4060879
  74.2104047 111.3526213 112.9560879  72.5474047 109.9016213 114.3680879
  73.6324047 110.6206213 115.4040879  73.7344047 108.0826213 115.7220879
  75.7714047 107.5636213 113.9480879  66.6784047  27.2206213  83.4930879
  67.3584047  28.2766213  83.2120879  66.9074047  28.9056213  81.9630879
  65.8214047  27.9846213  81.5830879  65.7004047  27.0016213  82.4920879
  66.8144047  26.6266213  84.3070879  68.1684047  28.6606213  83.8220879
  67.6414047  28.9106213  81.2680879  66.5564047  29.8376213  82.1250879
  65.2634047  28.1696213  80.6780879  65.0224047  26.1626213  82.5430879
 117.3094047  85.3686213  73.3220879 116.1114047  85.8246213  73.2150879
 115.1074047  84.7526213  73.2650879 115.9854047  83.5796213  73.4230879
 117.2744047  83.9586213  73.4550879 118.1594047  85.9256213  73.3150879
 115.8664047  86.8746213  73.1030879 114.5804047  84.7016213  72.4050879
 114.4924047  84.8586213  74.0590879 115.5454047  82.5956213  73.4930879
 118.1804047  83.3806213  73.5580879  22.7264047  91.4326213  88.7330879
  23.3674047  90.8926213  89.7080879  22.7074047  91.1276213  91.0000879
  21.5464047  91.9206213  90.5590879  21.5714047  92.0906213  89.2260879
  22.9964047  91.3996213  87.7530879  24.2864047  90.3286213  89.5950879
  23.2974047  91.6586213  91.6230879  22.4164047  90.2606213  91.4280879
  20.8324047  92.2666213  91.2930879  20.8944047  92.6086213  88.5640879
  77.5364047  89.0426213 123.1490879  78.7304047  89.5166213 123.0730879
  78.7404047  90.9866213 123.0660879  77.2944047  91.2586213 123.1530879
  76.6024047  90.1076213 123.2010879  77.2884047  88.0576213 123.1690879
  79.6254047  88.9076213 123.0220879  79.1294047  91.3476213 122.2070879
  79.2314047  91.3556213 123.8680879  76.9494047  92.2816213 123.1700879
  75.5404047  89.9206213 123.2680879  73.7334047  58.6616213 121.6660879
  74.6184047  59.2776213 122.3680879  74.3124047  59.2306213 123.8050879
  73.0604047  58.4546213 123.7800879  72.7344047  58.1276213 122.5180879
  73.7404047  58.5656213 120.6540879  75.4884047  59.7736213 121.9540879
  74.1614047  60.1556213 124.1800879  75.0334047  58.7446213 124.3190879
  72.5564047  58.2336213 124.7100879  71.8984047  57.5716213 122.1220879
  72.8214047 112.4966213  39.0010879  73.3934047 111.3976213  39.3480879
  72.4574047 110.2636213  39.3430879  71.2224047 110.9466213  38.9200879
  71.4524047 112.2556213  38.7230879  73.2724047 113.4046213  38.9330879
  74.4414047 111.3126213  39.6120879  72.3574047 109.8656213  40.2660879
  72.7344047 109.5606213  38.6740879  70.3114047 110.3746213  38.8130879
  70.7934047 113.0526213  38.4140879  78.2034047 100.4126213  36.2410879
  77.9814047  99.1786213  35.9510879  76.5474047  98.8576213  35.9720879
  75.9904047 100.1716213  36.3380879  76.9754047 101.0726213  36.4920879
  79.1174047 100.8566213  36.2870879  78.7574047  98.4586213  35.7160879
  76.3364047  98.1626213  36.6740879  76.2224047  98.5626213  35.0620879
  74.9204047 100.2826213  36.4410879  76.9434047 102.1196213  36.7540879
  31.0644047 113.3486213  55.2760879  30.2714047 114.1756213  54.6900879
  28.8674047 113.9446213  55.0560879  29.0204047 112.8066213  55.9790879
  30.3164047 112.4696213  56.0980879  32.0754047 113.3216213  55.1740879
  30.5964047 114.9526213  54.0070879  28.3144047 113.6896213  54.2500879
  28.4724047 114.7466213  55.5260879  28.1434047 112.3786213  56.4420879
  30.7974047 111.6966213  56.6780879  35.8564047  50.8496213 112.3520879
  36.1364047  50.3436213 113.5010879  35.0084047  50.4456213 114.4370879
  34.0174047  51.1186213 113.5810879  34.5294047  51.3486213 112.3600879
  36.4824047  50.8896213 111.5520879  37.0904047  49.8946213 113.7530879
  35.2454047  51.0126213 115.2380879  34.6844047  49.5326213 114.7250879
  33.0404047  51.3486213 113.9820879  34.0994047  51.8146213 111.4860879
  74.0864047  42.5326213  90.7150879  75.2794047  42.0606213  90.6180879
  75.3134047  40.7986213  89.8670879  73.8824047  40.6426213  89.5530879
  73.1764047  41.6686213  90.0570879  73.8244047  43.3926213  91.1890879
  76.1584047  42.5356213  91.0390879  75.6464047  40.0376213  90.4420879
  75.8664047  40.8846213  89.0260879  73.5564047  39.7826213  88.9860879
  72.1194047  41.8856213  90.0230879  41.8384047  72.8176213  69.7450879
  42.7284047  73.7266213  69.9350879  44.0554047  73.3046213  69.4650879
  43.7384047  71.9546213  68.9650879  42.4334047  71.6856213  69.1360879
  40.8544047  72.8906213  69.9910879  42.5284047  74.6926213  70.3860879
  44.7194047  73.2656213  70.2250879  44.3914047  73.9006213  68.7230879
  44.5254047  71.3516213  68.5370879  41.8524047  70.8086213  68.8920879
  91.5854047 129.8356213  94.8740879  91.3204047 128.6236213  95.2130879
  91.5324047 128.3946213  96.6490879  91.9784047 129.7356213  97.0650879
  92.0034047 130.5696213  96.0110879  91.5104047 130.2196213  93.9350879
  90.9784047 127.8586213  94.5250879  92.2524047 127.7036213  96.8090879
  90.6734047 128.1346213  97.1120879  92.2254047 129.9136213  98.1010879
  92.2744047 131.6126213  95.9390879  41.9894047 119.9076213  97.9860879
  41.3944047 120.6836213  97.1510879  42.0834047 121.9736213  97.0080879
  43.2054047 121.7746213  97.9430879  43.1364047 120.5576213  98.5080879
  41.6934047 118.9696213  98.2410879  40.4904047 120.4206213  96.6120879
  41.4944047 122.7396213  97.3020879  42.4144047 122.1126213  96.0640879
  43.9274047 122.5666213  98.0780879  43.7774047 120.0736213  99.2300879
  77.5074047 121.5556213  70.5260879  76.6634047 121.3486213  71.4750879
  76.4564047 119.9156213  71.7260879  77.3614047 119.3396213  70.7150879
  77.9704047 120.3156213  70.0200879  77.8034047 122.4646213  70.1830879
  76.1644047 122.1356213  72.0290879  75.4984047 119.6466213  71.5540879
  76.7414047 119.6596213  72.6600879  77.4474047 118.2656213  70.6330879
  78.6884047 120.2696213  69.2150879 101.1994047  44.6726213  71.4870879
 100.1224047  45.2596213  71.8760879 100.2794047  45.8726213  73.2030879
 101.6774047  45.5116213  73.4950879 102.2034047  44.8086213  72.4770879
 101.3224047  44.1826213  70.6040879  99.2074047  45.3006213  71.2970879
  99.6474047  45.4606213  73.8750879 100.1604047  46.8746213  73.1620879
 102.1204047  45.8236213  74.4290879 103.1874047  44.3836213  72.3430879
 106.7804047  61.0236213 122.6260879 107.4624047  61.4706213 121.6310879
 107.9684047  60.3866213 120.7780879 107.4334047  59.2166213 121.4970879
 106.7374047  59.6076213 122.5780879 106.3354047  61.5896213 123.3440879
 107.6424047  62.5226213 121.4390879 108.9784047  60.3736213 120.7610879
 107.5914047  60.4456213 119.8430879 107.6324047  58.2256213 121.1170879
 106.2114047  59.0356213 123.3280879 107.8934047  82.4096213 114.9830879
 107.2714047  81.3336213 114.6530879 105.8244047  81.4386213 114.8910879
 105.7474047  82.8076213 115.4300879 106.9694047  83.3636213 115.4770879
 108.8954047  82.5646213 114.9050879 107.7524047  80.4516213 114.2460879
 105.5134047  80.7596213 115.5710879 105.3024047  81.3536213 114.0310879
 104.7864047  83.2096213 115.7170879 107.2924047  84.3396213 115.8090879
  93.5294047 114.7736213 104.3170879  92.3734047 115.1406213 104.7470879
  91.5734047 115.7836213 103.6950879  92.5174047 115.7096213 102.5660879
  93.6604047 115.1136213 102.9470879  94.2474047 114.3096213 104.8670879
  92.0264047 114.9936213 105.7630879  91.3594047 116.7426213 103.9300879
  90.7304047 115.2616213 103.5020879  92.2264047 116.1096213 101.6060879
  94.5614047 114.8896213 102.3960879  84.5294047  76.1556213  22.3260879
  83.8604047  77.0026213  21.6260879  84.1394047  76.8726213  20.1890879
  85.1144047  75.7676213  20.2110879  85.3314047  75.3576213  21.4720879
  84.4944047  76.0616213  23.3370879  83.1704047  77.7276213  22.0420879
  84.5514047  77.7156213  19.8160879  83.3094047  76.6176213  19.6730879
  85.5344047  75.4136213  19.2800879  85.9724047  74.5826213  21.8650879
  84.7124047  44.7586213 100.2700879  83.9824047  43.7646213  99.9020879
  82.7324047  44.2046213  99.2670879  82.8984047  45.6666213  99.3480879
  84.0654047  45.9746213  99.9380879  85.6174047  44.6926213 100.7280879
  84.2534047  42.7246213 100.0420879  81.9254047  43.8986213  99.7920879
  82.6774047  43.8946213  98.3070879  82.1244047  46.3086213  98.9530879
  84.5154047  46.9306213 100.1630879 113.8794047  58.3726213 106.9900879
 114.2844047  57.4716213 106.1660879 113.8844047  57.7696213 104.7840879
 113.1614047  59.0366213 104.9880879 113.1674047  59.3766213 106.2880879
 114.0404047  58.3746213 107.9940879 114.8544047  56.5946213 106.4530879
 113.2734047  57.0556213 104.4150879 114.6894047  57.9006213 104.1870879
 112.7244047  59.5396213 104.1380879 112.7434047  60.2276213 106.8010879
  18.2024047  57.1536213  56.6700879  17.4254047  57.8766213  57.3980879
  16.0684047  57.3186213  57.4770879  16.2294047  56.1186213  56.6370879
  17.4874047  56.0356213  56.1720879  19.1814047  57.3456213  56.4750879
  17.7314047  58.7896213  57.8960879  15.3864047  57.9506213  57.0830879
  15.8264047  57.0716213  58.4260879  15.3844047  55.4616213  56.4850879
  17.9624047  55.3036213  55.5370879  92.2784047  29.8966213 107.7010879
  93.1254047  28.9586213 107.4610879  92.4624047  27.6726213 107.1990879
  91.0514047  28.0726213 107.3400879  90.9604047  29.3806213 107.6340879
  92.5094047  30.8656213 107.9070879  94.2004047  29.0946213 107.4520879
  92.7164047  26.9806213 107.8890879  92.6574047  27.3406213 106.2660879
  90.2754047  27.3326213 107.2040879  90.1004047  30.0116213 107.8050879
  62.8924047 110.4866213  51.5730879  62.2064047 109.3986213  51.5370879
  61.1614047 109.4386213  50.5040879  61.3914047 110.7856213  49.9530879
  62.4104047 111.3866213  50.5900879  63.6634047 110.6816213  52.2050879
  62.3774047 108.5486213  52.1880879  60.2404047 109.3626213  50.9100879
  61.3074047 108.7266213  49.8030879  60.7674047 111.1406213  49.1460879
  62.8534047 112.3626213  50.4570879  26.0244047  47.4646213 105.0750879
  25.7424047  48.2886213 104.1270879  26.8834047  49.1496213 103.7870879
  27.8854047  48.6456213 104.7440879  27.3654047  47.6576213 105.4910879
  25.3904047  46.7766213 105.4720879  24.7784047  48.3426213 103.6340879
  26.6734047  50.1226213 103.9570879  27.1834047  49.0046213 102.8340879
  28.8724047  49.0836213 104.7550879  27.7994047  47.0616213 106.2800879
  57.5414047  18.2136213  64.1440879  57.3554047  18.5306213  62.9110879
  56.1414047  17.9116213  62.3610879  55.6674047  17.1686213  63.5420879
  56.4994047  17.3566213  64.5800879  58.3134047  18.5246213  64.7270879
  58.0124047  19.1776213  62.3420879  56.3604047  17.2856213  61.5990879
  55.4694047  18.6086213  62.0730879  54.7614047  16.5846213  63.4710879
  56.4714047  16.9756213  65.5900879  41.3444047 106.6736213  51.9330879
  42.1934047 107.4536213  51.3620879  41.8634047 107.6846213  49.9490879
  40.6424047 106.8696213  49.8280879  40.3514047 106.2836213  51.0010879
  41.3724047 106.3766213  52.9050879  43.0504047 107.8916213  51.8600879
  42.5934047 107.3426213  49.3400879  41.6724047 108.6596213  49.7700879
  40.1304047 106.8216213  48.8780879  39.5424047 105.6256213  51.2840879
  24.7104047  81.4146213  95.7090879  25.3104047  81.7366213  94.6170879
  24.4994047  82.6396213  93.7890879  23.3024047  82.7696213  94.6380879
  23.4424047  82.0446213  95.7610879  25.0804047  80.8026213  96.4320879
  26.2974047  81.3856213  94.3380879  24.2734047  82.2196213  92.8990879
  24.9554047  83.5326213  93.6620879  22.4824047  83.3896213  94.3060879
  22.7784047  81.9026213  96.6010879  27.9814047 105.2216213  58.2210879
  29.0134047 105.7886213  57.7030879  30.2514047 105.0506213  57.9930879
  29.7104047 103.9366213  58.7920879  28.3774047 104.0516213  58.9160879
  27.0234047 105.5536213  58.1500879  28.9794047 106.7006213  57.1190879
  30.8944047 105.6096213  58.5350879  30.6874047 104.7156213  57.1470879
  30.3844047 103.1846213  59.1760879  27.6554047 103.4296213  59.4250879
  76.1944047 124.7906213  99.8500879  74.9174047 124.6486213  99.9260879
  74.5224047 123.2336213  99.9630879  75.8464047 122.5896213  99.8910879
  76.8164047 123.5176213  99.8260879  76.6914047 125.6766213  99.8130879
  74.2134047 125.4716213  99.9610879  73.9544047 122.9886213  99.1650879
  74.0514047 123.0046213 100.8260879  75.9124047 121.5116213  99.8970879
  77.8904047 123.4186213  99.7640879  93.9384047 136.4836213  72.3430879
  94.9834047 135.7506213  72.5000879  94.8724047 134.4726213  71.7820879
  93.5374047 134.6266213  71.1780879  93.0034047 135.8126213  71.5160879
  93.7944047 137.4056213  72.7450879  95.8464047 136.0366213  73.0900879
  94.8974047 133.6896213  72.4200879  95.5874047 134.3846213  71.0740879
  93.1404047 133.8326213  70.5630879  92.0544047 136.2606213  71.2620879
  51.6194047 111.0036213  81.2830879  50.5184047 110.6636213  81.8540879
  49.4564047 111.6566213  81.6390879  50.1824047 112.6436213  80.8210879
  51.4504047 112.2456213  80.6200879  52.4854047 110.4716213  81.2970879
  50.3854047 109.7526213  82.4270879  49.1484047 112.0606213  82.5120879
  48.6794047 111.2596213  81.1310879  49.6674047 113.5306213  80.4810879
  52.2604047 112.7076213  80.0770879  46.6134047 114.7756213 103.6750879
  46.3094047 115.9736213 104.0300879  44.8594047 116.2116213 103.9810879
  44.3934047 114.8926213 103.5210879  45.4344047 114.0606213 103.3470879
  47.5524047 114.3886213 103.6330879  47.0324047 116.7226213 104.3310879
  44.6274047 116.9346213 103.3150879  44.4914047 116.4316213 104.8960879
  43.3354047 114.7256213 103.3780879  45.4724047 113.0306213 103.0230879
  90.4054047  99.3206213 116.3680879  91.5664047  99.7416213 116.0090879
  91.7334047 101.1796213 116.2630879  90.4184047 101.4966213 116.8470879
  89.6504047 100.3946213 116.9020879  90.0694047  98.3646213 116.2870879
  92.3334047  99.1146213 115.5700879  91.8854047 101.6896213 115.4050879
  92.4784047 101.3526213 116.9230879  90.2064047 102.5106213 117.1550879
  88.6434047 100.2496213 117.2630879  46.3234047  27.5456213  53.3720879
  45.4284047  27.3466213  54.2750879  44.2294047  26.6966213  53.7290879
  44.6244047  26.5646213  52.3150879  45.8554047  27.0676213  52.1230879
  47.2304047  27.9796213  53.5210879  45.5424047  27.6226213  55.3180879
  43.4144047  27.2856213  53.8270879  44.0744047  25.7926213  54.1510879
  43.9394047  26.1086213  51.6150879  46.4604047  27.1406213  51.2310879
  83.0544047  58.1396213 118.7110879  83.4284047  56.9086213 118.7120879
  84.8924047  56.7776213 118.7280879  85.2814047  58.1986213 118.7350879
  84.1914047  58.9846213 118.7250879  82.0924047  58.4676213 118.7010879
  82.7484047  56.0646213 118.7040879  85.2294047  56.3106213 117.8990879
  85.2114047  56.3076213 119.5630879  86.3304047  58.4606213 118.7470879
  84.0924047  60.0606213 118.7260879  68.4674047  60.9836213  35.3460879
  69.6314047  60.5926213  35.7300879  70.7104047  61.2926213  35.0180879
  69.9164047  62.1716213  34.1400879  68.6024047  61.9776213  34.3460879
  67.5794047  60.6396213  35.7000879  69.8014047  59.8376213  36.4890879
  71.2724047  60.6506213  34.4790879  71.2824047  61.8306213  35.6520879
  70.4254047  62.8416213  33.4620879  67.7384047  62.4386213  33.8900879
  76.0234047  47.6306213  39.3970879  75.0274047  48.2336213  38.8470879
  75.2884047  49.6676213  38.6590879  76.6484047  49.7626213  39.2180879
  77.0644047  48.5586213  39.6460879  76.0674047  46.6406213  39.6220879
  74.1054047  47.7446213  38.5560879  74.6364047  50.2316213  39.1840879
  75.2764047  49.9186213  37.6800879  77.1494047  50.7196213  39.2310879
  77.9934047  48.2516213  40.1050879 134.3594047  67.7666213  81.0730879
 133.1104047  67.9256213  81.3350879 132.7464047  69.3456213  81.4410879
 134.0554047  69.9716213  81.1850879 134.9914047  69.0316213  80.9700879
 134.8334047  66.8746213  80.9550879 132.4054047  67.1116213  81.4620879
 132.4084047  69.5706213  82.3660879 132.0714047  69.6066213  80.7360879
 134.1374047  71.0486213  81.1910879 136.0454047  69.1166213  80.7540879
  39.9384047  61.6496213  86.7520879  38.7424047  61.1866213  86.6460879
  38.7314047  59.7806213  86.2200879  40.1794047  59.5306213  86.1040879
  40.8734047  60.6376213  86.4190879  40.1874047  62.5946213  87.0310879
  37.8464047  61.7626213  86.8460879  38.2684047  59.6686213  85.3300879
  38.3134047  59.1866213  86.9220879  40.5244047  58.5536213  85.7990879
  41.9364047  60.8236213  86.4460879 119.1374047  58.4766213  88.4210879
 120.1514047  59.2576213  88.2860879 119.7724047  60.5606213  87.7220879
 118.3214047  60.3636213  87.5600879 117.9644047  59.1356213  87.9750879
 119.1624047  57.5296213  88.7900879 121.1664047  58.9906213  88.5560879
 120.2214047  60.7216213  86.8320879 119.9694047  61.3126213  88.3670879
 117.7204047  61.1636213  87.1540879 117.0014047  58.6496213  88.0050879
  32.9234047  99.5766213 104.1700879  32.5654047 100.8046213 104.3090879
  33.7104047 101.7236213 104.2400879  34.8064047 100.7606213 104.0330879
  34.3274047  99.5056213 103.9930879  32.3014047  98.7726213 104.1830879
  31.5414047 101.1286213 104.4580879  33.8284047 102.2296213 105.1060879
  33.6274047 102.3576213 103.4590879  35.8184047 101.1236213 103.9370879
  34.8294047  98.5586213 103.8580879  95.9604047  70.9296213  30.5710879
  95.3834047  70.4506213  31.6170879  94.6614047  71.4856213  32.3700879
  94.9474047  72.6646213  31.5340879  95.7104047  72.3216213  30.4830879
  96.5134047  70.3996213  29.9030879  95.4204047  69.4076213  31.9100879
  95.0404047  71.5956213  33.2990879  93.6704047  71.2926213  32.4040879
  94.5464047  73.6266213  31.8210879  96.1084047  72.9136213  29.6720879
 109.8934047  91.7866213  76.0790879 109.2164047  92.7996213  75.6650879
 110.0834047  93.8616213  75.1360879 111.4064047  93.2436213  75.3350879
 111.2774047  92.0266213  75.8880879 109.5054047  90.9386213  76.4820879
 108.1354047  92.8656213  75.6990879 109.9924047  94.7126213  75.6730879
 109.9024047  94.0326213  74.1570879 112.2924047  93.7856213  75.0380879
 112.0184047  91.2946213  76.1720879  77.2454047  40.9506213  35.7760879
  76.6654047  41.1786213  34.6510879  76.9964047  42.5086213  34.1200879
  77.8914047  42.9986213  35.1820879  78.0274047  42.0726213  36.1460879
  77.1624047  40.0996213  36.3250879  76.0104047  40.4756213  34.1490879
  76.1724047  43.0876213  34.0390879  77.4794047  42.4416213  33.2350879
  78.3254047  43.9846213  35.0950879  78.5974047  42.0826213  37.0640879
 119.9594047  84.4246213 101.8660879 119.5714047  85.6376213 101.6830879
 120.1954047  86.5636213 102.6380879 121.0254047  85.6236213 103.4120879
 120.8764047  84.3726213 102.9450879 119.6614047  83.6176213 101.3240879
 118.8694047  85.9436213 100.9170879 119.5034047  87.0086213 103.2250879
 120.7644047  87.2526213 102.1670879 121.6344047  85.9986213 104.2220879
 121.3214047  83.4406213 103.2600879  52.0924047  63.0656213  36.3020879
  51.0844047  62.2666213  36.3210879  49.8304047  62.9546213  35.9850879
  50.3314047  64.3236213  35.7690879  51.6614047  64.3716213  35.9590879
  53.0564047  62.8116213  36.5020879  51.1484047  61.2106213  36.5550879
  49.1754047  62.9226213  36.7530879  49.4174047  62.5786213  35.1430879
  49.6364047  65.1046213  35.4970879  52.3584047  65.1936213  35.8880879
 121.2044047  67.8536213 109.6460879 121.9644047  66.8696213 109.9780879
 123.3284047  67.0256213 109.4530879 123.1904047  68.3116213 108.7450879
 121.9384047  68.7836213 108.8700879 120.2254047  67.9576213 109.8980879
 121.6424047  66.0246213 110.5750879 123.5634047  66.2806213 108.8130879
 124.0064047  67.0896213 110.1990879 124.0454047  68.7266213 108.2310879
 121.4804047  69.6846213 108.4900879  42.2534047  93.6406213  56.5930879
  40.9814047  93.8076213  56.5050879  40.2364047  92.6366213  56.9880879
  41.3544047  91.7566213  57.3730879  42.5314047  92.3606213  57.1360879
  42.9624047  94.3156213  56.3190879  40.5094047  94.7056213  56.1220879
  39.6834047  92.2226213  56.2520879  39.6624047  92.8686213  57.7860879
  41.1414047  90.7796213  57.7820879  43.5454047  92.0236213  57.2920879
  58.1094047 119.7416213  44.6280879  58.4644047 118.9036213  43.7180879
  57.6544047 119.0376213  42.5000879  56.7554047 120.1326213  42.9020879
  57.0354047 120.5356213  44.1540879  58.5294047 119.8306213  45.5500879
  59.2664047 118.1836213  43.8330879  57.1374047 118.1926213  42.3070879
  58.2214047 119.3026213  41.7070879  56.0084047 120.4876213  42.2070879
  56.5904047 121.3026213  44.7680879  50.9784047  17.5956213  65.7930879
  51.6694047  17.8576213  66.8460879  51.3334047  19.1706213  67.4130879
  50.2994047  19.6106213  66.4600879  50.1024047  18.6746213  65.5160879
  51.0414047  16.7466213  65.2370879  52.4124047  17.1906213  67.2690879
  52.1294047  19.7916213  67.4010879  50.9574047  19.0836213  68.3470879
  49.8284047  20.5726213  66.5980879  49.4324047  18.6516213  64.6700879
  40.2464047 120.4676213  76.4720879  39.0134047 120.1906213  76.2310879
  38.1014047 120.9146213  77.1270879  39.0744047 121.6676213  77.9380879
  40.3284047 121.3946213  77.5400879  41.0484047 120.0856213  75.9780879
  38.6814047 119.5066213  75.4580879  37.5644047 120.2776213  77.6990879
  37.4944047 121.5366213  76.6120879  38.7174047 122.3226213  78.7190879
  41.2804047 121.7566213  77.8990879  97.9334047  83.3796213 128.8750879
  97.3874047  83.1106213 127.7420879  97.1374047  84.3226213 126.9490879
  97.6564047  85.3496213 127.8700879  98.1204047  84.7796213 128.9950879
  98.1954047  82.7006213 129.5840879  97.1394047  82.1096213 127.4070879
  96.1514047  84.4526213 126.7760879  97.6574047  84.3106213 126.0830879
  97.6204047  86.3886213 127.5780879  98.5664047  85.2136213 129.8770879
  24.5114047  94.4286213  70.1980879  24.8374047  95.6606213  70.0170879
  23.9934047  96.3096213  69.0040879  23.1114047  95.1866213  68.6400879
  23.4284047  94.0906213  69.3500879  24.9564047  93.7866213  70.8490879
  25.6374047  96.1636213  70.5480879  24.5394047  96.6176213  68.2130879
  23.4664047  97.0756213  69.3990879  22.3464047  95.3366213  67.8910879
  23.0034047  93.0976213  69.3490879 104.4684047  95.5536213  35.7330879
 104.4844047  94.2856213  35.9520879 105.8284047  93.7156213  35.7890879
 106.5854047  94.9276213  35.4270879 105.7724047  95.9976213  35.4000879
 103.6514047  96.1556213  35.7880879 103.6114047  93.7036213  36.2260879
 105.8514047  93.0346213  35.0430879 106.1674047  93.3166213  36.6530879
 107.6444047  94.8506213  35.2330879 105.9734047  97.0346213  35.1780879
  52.1464047  54.4146213  82.8770879  51.1304047  54.9786213  83.4280879
  50.4294047  55.8776213  82.5010879  51.2614047  55.7116213  81.2960879
  52.2644047  54.8486213  81.5340879  52.7764047  53.7556213  83.3280879
  50.8224047  54.8126213  84.4540879  50.4484047  56.8326213  82.8290879
  49.4814047  55.5716213  82.3360879  51.0074047  56.2556213  80.3980879
  53.0574047  54.4906213  80.8950879  73.5114047  24.5286213  93.6390879
  74.5654047  23.8156213  93.4540879  74.3454047  22.4046213  93.8040879
  72.9364047  22.4586213  94.2330879  72.4614047  23.7116213  94.1290879
  73.4304047  25.5266213  93.4640879  75.5064047  24.2036213  93.0820879
  74.9474047  22.1156213  94.5620879  74.4614047  21.8036213  93.0010879
  72.4504047  21.5536213  94.5650879  71.4874047  24.1206213  94.3510879
 112.2184047  89.1506213  67.1130879 112.0124047  88.2666213  66.2010879
 110.5994047  88.2046213  65.8030879 110.0344047  89.2436213  66.6820879
 110.9974047  89.7896213  67.4440879 113.1164047  89.3676213  67.5380879
 112.7874047  87.6396213  65.7740879 110.2004047  87.2986213  66.0040879
 110.4804047  88.4446213  64.8290879 108.9764047  89.4566213  66.6370879
 110.9544047  90.5666213  68.1920879  37.5424047 111.5306213  84.8720879
  38.7264047 112.0096213  85.0280879  38.7314047 113.4796213  85.0130879
  37.2954047 113.7446213  84.8140879  36.6114047 112.5906213  84.7340879
  37.2994047 110.5436213  84.8500879  39.6164047 111.4056213  85.1560879
  39.2794047 113.8376213  84.2430879  39.0544047 113.8556213  85.8920879
  36.9494047 114.7656213  84.7560879  35.5584047 112.3986213  84.5930879
  33.4814047  51.8996213  75.7860879  34.0864047  51.6346213  74.6820879
  35.5074047  52.0056213  74.7300879  35.5924047  52.5426213  76.0990879
  34.3944047  52.4726213  76.7060879  32.4984047  51.7276213  75.9810879
  33.6084047  51.1886213  73.8170879  35.7264047  52.7146213  74.0450879
  36.1034047  51.1976213  74.6160879  36.5384047  52.9146213  76.4640879
  34.0834047  52.7676213  77.6970879  62.3934047  82.2116213  22.9990879
  62.4724047  83.1146213  22.0860879  62.2164047  84.4606213  22.6190879
  61.9714047  84.1386213  24.0360879  62.0794047  82.8146213  24.2420879
  62.5324047  81.2146213  22.8610879  62.7024047  82.9116213  21.0460879
  61.4014047  84.8756213  22.1920879  63.0234047  85.0586213  22.5140879
  61.7454047  84.9366213  24.7280879  61.9684047  82.2256213  25.1400879
 119.5464047  64.7176213 102.0740879 119.8374047  63.4646213 102.0890879
 121.2894047  63.2376213 102.1290879 121.7724047  64.6296213 102.1330879
 120.7364047  65.4856213 102.1010879 118.6084047  65.1096213 102.0470879
 119.1034047  62.6676213 102.0750879 121.6064047  62.7426213 101.3080879
 121.5634047  62.7526213 102.9720879 122.8344047  64.8206213 102.1600879
 120.7094047  66.5656213 102.0940879  84.8324047  32.0836213  62.5720879
  84.2664047  31.2746213  63.3980879  85.1904047  30.8216213  64.4460879
  86.4124047  31.5416213  64.0470879  86.1854047  32.2776213  62.9460879
  84.3864047  32.5216213  61.7710879  83.2304047  30.9636213  63.3320879
  85.3274047  29.8216213  64.4090879  84.8794047  31.1096213  65.3630879
  87.3124047  31.4216213  64.6330879  86.8374047  32.9256213  62.3790879
  38.6914047  88.7266213  75.1430879  39.4374047  87.7176213  75.4270879
  38.7734047  86.7836213  76.3480879  37.4844047  87.4726213  76.5340879
  37.4514047  88.6106213  75.8200879  38.9424047  89.4956213  74.5280879
  40.4374047  87.5696213  75.0350879  39.2764047  86.7076213  77.2200879
  38.6464047  85.8766213  75.9230879  36.7374047  87.0316213  77.1790879
  36.6814047  89.3596213  75.7140879 108.8604047  83.1346213  62.1130879
 109.2754047  82.3936213  63.0790879 110.3844047  83.0166213  63.8140879
 110.5204047  84.2766213  63.0630879 109.6184047  84.3306213  62.0690879
 108.1044047  82.9076213  61.4720879 108.8584047  81.4236213  63.3250879
 111.2254047  82.4606213  63.7510879 110.1374047  83.1896213  64.7780879
 111.2764047  84.9906213  63.3600879 109.4274047  85.0916213  61.3260879
  83.2104047  71.6366213  32.5200879  84.1904047  71.0356213  33.0980879
  83.8654047  70.6576213  34.4810879  82.4874047  71.1706213  34.5750879
  82.1174047  71.7416213  33.4160879  83.2084047  71.9866213  31.5650879
  85.1434047  70.8306213  32.6250879  84.4734047  71.1206213  35.1410879
  83.8924047  69.6556213  34.6050879  81.9394047  71.0496213  35.4980879
  81.1934047  72.2156213  33.1220879  32.5914047 113.4646213  96.2710879
  31.8004047 114.2046213  95.5770879  31.1374047 113.4486213  94.5050879
  31.7184047 112.1136213  94.7300879  32.5684047 112.1396213  95.7700879
  33.1514047 113.7726213  97.0620879  31.6374047 115.2606213  95.7590879
  31.3874047 113.8066213  93.5940879  30.1354047 113.4376213  94.6270879
  31.4284047 111.2956213  94.0860879  33.1674047 111.3596213  96.2170879
  81.2574047 123.9586213  67.3410879  82.3304047 124.3766213  66.7680879
  82.2344047 124.3116213  65.3030879  80.8744047 123.7636213  65.1540879
  80.3144047 123.5636213  66.3600879  81.0984047 123.9146213  68.3440879
  83.2044047 124.7376213  67.2990879  82.9254047 123.6836213  64.9170879
  82.3074047 125.2286213  64.8870879  80.4804047 123.5876213  64.1640879
  79.3434047 123.1796213  66.6350879  22.6624047  71.8766213  63.9920879
  21.7334047  70.9956213  64.1180879  20.3974047  71.6056213  64.1490879
  20.7554047  73.0286213  64.0150879  22.0884047  73.1706213  63.9230879
  23.6604047  71.6856213  63.9480879  21.9104047  69.9286213  64.1920879
  19.9314047  71.4276213  65.0280879  19.8324047  71.2956213  63.3720879
  19.9724047  73.7726213  64.0020879  22.7024047  74.0526213  63.8160879
 128.4664047 107.0316213  66.0720879 128.4474047 107.4276213  67.2960879
 128.7654047 106.3386213  68.2310879 128.9714047 105.2306213  67.2830879
 128.7924047 105.6536213  66.0200879 128.2784047 107.6116213  65.2580879
 128.2254047 108.4416213  67.6060879 127.9914047 106.1496213  68.8520879
 129.6074047 106.5346213  68.7530879 129.2284047 104.2516213  67.6600879
 128.8604047 105.1276213  65.0790879  44.7704047 107.0806213  85.1670879
  45.1254047 107.8656213  84.2120879  46.2874047 107.3466213  83.4760879
  46.5254047 106.0926213  84.2130879  45.6264047 105.9516213  85.2020879
  43.9944047 107.2356213  85.8060879  44.6294047 108.7996213  83.9740879
  47.0784047 107.9696213  83.5500879  46.0594047 107.1646213  82.5090879
  47.3394047 105.4496213  83.9130879  45.4954047 105.1696213  85.9350879
  27.0564047  44.2236213  93.9800879  27.5114047  43.0556213  93.6930879
  28.9244047  43.0986213  93.2910879  29.1864047  44.5436213  93.4080879
  28.0794047  45.1896213  93.8140879  26.1084047  44.4346213  94.2820879
  26.9264047  42.1446213  93.7420879  29.0464047  42.7806213  92.3410879
  29.5044047  42.5696213  93.9270879  30.1694047  44.9236213  93.1750879
  27.9004047  46.2376213  94.0050879 105.9974047  52.2766213  37.6050879
 105.2264047  53.2366213  37.2340879 105.5324047  54.4916213  37.9350879
 106.6464047  54.0476213  38.7920879 106.9074047  52.7446213  38.5850879
 105.9684047  51.3226213  37.2550879 104.4424047  53.1376213  36.4910879
 104.7484047  54.8046213  38.4890879 105.8304047  55.2106213  37.2920879
 107.1174047  54.7556213  39.4570879 107.6424047  52.0906213  39.0280879
  44.6684047  77.9396213  33.9990879  43.9504047  78.9956213  33.8470879
  42.5394047  78.6706213  33.5960879  42.5984047  77.1986213  33.6360879
  43.8544047  76.7856213  33.8740879  45.6684047  77.9226213  34.1820879
  44.3354047  80.0076213  33.8970879  42.2404047  78.9996213  32.6890879
  41.9424047  79.0326213  34.3260879  41.6934047  76.6286213  33.4830879
  44.2684047  75.7926213  33.9690879 105.6464047  82.3636213 104.1300879
 106.7854047  82.2426213 103.5450879 107.7884047  83.1656213 104.0960879
 106.9814047  83.8456213 105.1250879 105.7274047  83.3626213 105.1320879
 104.8084047  81.8286213 103.9160879 106.9874047  81.5436213 102.7420879
 108.1124047  83.8176213 103.3960879 108.5624047  82.6656213 104.5100879
 107.4374047  84.6116213 105.7340879 104.8724047  83.6176213 105.7420879
  27.3294047  86.2166213  73.3750879  28.1104047  85.4286213  72.7240879
  27.4804047  84.1286213  72.4520879  26.1674047  84.3366213  73.0870879
  26.0944047  85.5676213  73.6240879  27.5524047  87.1626213  73.6710879
  29.1144047  85.6886213  72.4100879  27.9854047  83.3756213  72.8950879
  27.3844047  83.9656213  71.4600879  25.4364047  83.5416213  73.0650879
  25.2974047  86.0606213  74.1600879 108.4954047  63.1916213 117.4320879
 107.6014047  64.0966213 117.2380879 106.2394047  63.5566213 117.3450879
 106.5394047  62.1446213 117.6410879 107.8684047  61.9476213 117.6900879
 109.5014047  63.3356213 117.4070879 107.8234047  65.1356213 117.0220879
 105.7374047  63.6476213 116.4730879 105.7294047  63.9896213 118.1020879
 105.7254047  61.4496213 117.7840879 108.4464047  61.0556213 117.8800879
 124.1754047  73.7296213  93.3020879 124.7944047  72.6066213  93.2040879
 126.2394047  72.7886213  93.0100879 126.3204047  74.2596213  93.0160879
 125.1004047  74.7966213  93.1890879 123.1744047  73.8466213  93.4400879
 124.3104047  71.6376213  93.2590879 126.5424047  72.4096213  92.1240879
 126.7674047  72.3896213  93.7730879 127.2814047  74.7366213  92.8910879
 124.7814047  75.8266213  93.2450879  37.6884047  56.2216213  31.7130879
  38.6474047  57.0776213  31.6690879  38.7744047  57.6946213  30.3410879
  37.6824047  57.0086213  29.6280879  37.0544047  56.1476213  30.4470879
  37.4164047  55.6746213  32.5260879  39.2874047  57.3196213  32.5090879
  39.6704047  57.4866213  29.9230879  38.6164047  58.6916213  30.3810879
  37.4984047  57.2436213  28.5900879  36.2204047  55.4846213  30.2740879
 114.5524047  61.9956213  67.3460879 115.3384047  61.1246213  66.8170879
 114.6834047  59.8196213  66.6520879 113.3504047  60.1246213  67.2010879
 113.2894047  61.4056213  67.6030879 114.7894047  62.9626213  67.5520879
 116.3624047  61.3256213  66.5240879 115.1464047  59.1046213  67.1950879
 114.6264047  59.5556213  65.6790879 112.5984047  59.3486213  67.2280879
 112.4844047  61.9716213  68.0480879  85.9454047  26.1896213  80.3970879
  85.3304047  25.6186213  79.4220879  85.6704047  24.1936213  79.3150879
  86.6164047  24.0656213  80.4380879  86.7664047  25.2456213  81.0630879
  85.8634047  27.1686213  80.6590879  84.6404047  26.1256213  78.7570879
  86.1194047  23.9876213  78.4340879  84.8584047  23.6086213  79.4520879
  87.0684047  23.1056213  80.6420879  87.3694047  25.5256213  81.9140879
 101.5314047  41.2686213  72.7550879 102.1014047  40.8376213  71.6850879
 103.4364047  40.2846213  71.9570879 103.5124047  40.4896213  73.4140879
 102.3864047  41.0676213  73.8670879 100.6074047  41.6896213  72.8070879
 101.6544047  40.8746213  70.6980879 104.1554047  40.8056213  71.4760879
 103.4834047  39.3036213  71.7230879 104.4004047  40.1796213  73.9460879
 102.0924047  41.3626213  74.8630879  91.7084047  54.1596213 113.7020879
  92.2574047  55.3046213 113.9090879  92.2284047  55.6806213 115.3300879
  91.5444047  54.5056213 115.8970879  91.2464047  53.6226213 114.9290879
  91.6154047  53.7006213 112.8000879  92.6924047  55.9216213 113.1310879
  91.6914047  56.5226213 115.4770879  93.1614047  55.7766213 115.7050879
  91.3584047  54.4636213 116.9610879  90.7524047  52.6626213 114.9720879
  71.5954047  65.7736213 127.7310879  71.7244047  67.0276213 127.9890879
  73.1214047  67.3906213 128.2670879  73.7694047  66.0766213 128.1150879
  72.8594047  65.1386213 127.7990879  70.7234047  65.2996213 127.5100879
  70.9044047  67.7356213 128.0000879  73.2294047  67.7446213 129.2070879
  73.4724047  68.0526213 127.5890879  74.8364047  65.9926213 128.2580879
  72.9674047  64.0796213 127.6140879  37.5274047  59.2486213 118.3550879
  38.4694047  59.5936213 117.5500879  38.9384047  58.4636213 116.7360879
  38.0644047  57.3926213 117.2450879  37.2414047  57.8696213 118.1940879
  37.0514047  59.8626213 119.0110879  38.8714047  60.5976213 117.4770879
  39.9114047  58.2586213 116.9170879  38.7814047  58.6276213 115.7520879
  38.1574047  56.3956213 116.8390879  36.4774047  57.3816213 118.7810879
  84.1454047 111.5496213  57.0660879  84.8614047 112.5826213  56.7940879
  84.7844047 112.9476213  55.3730879  83.8694047 111.9016213  54.8830879
  83.5024047 111.0896213  55.8900879  84.0464047 111.1196213  57.9820879
  85.4534047 113.1236213  57.5240879  85.6874047 112.8806213  54.9260879
  84.3874047 113.8676213  55.2500879  83.5954047 111.8846213  53.8390879
  82.8514047 110.2286213  55.9050879  60.1314047  94.3026213 119.6160879
  61.1704047  95.0606213 119.5840879  60.8114047  96.4826213 119.4790879
  59.3414047  96.3806213 119.4560879  58.9594047  95.0946213 119.5380879
  60.1384047  93.2886213 119.6860879  62.1914047  94.6986213 119.6300879
  61.1624047  96.8876213 118.6230879  61.1304047  97.0036213 120.2830879
  58.7504047  97.2806213 119.3830879  57.9764047  94.6466213 119.5500879
 114.3764047  61.7996213  97.6300879 114.3034047  63.0446213  97.3130879
 113.9894047  63.8906213  98.4720879 113.8964047  62.8666213  99.5270879
 114.1274047  61.6446213  99.0170879 114.5824047  61.0356213  96.9920879
 114.4554047  63.4276213  96.3100879 113.1084047  64.3706213  98.3500879
 114.7344047  64.5466213  98.6630879 113.6704047  63.1676213 100.5390879
 114.1424047  60.6716213  99.4850879  94.0204047  43.9556213  27.3560879
  93.9064047  42.8026213  26.7990879  94.9694047  41.8786213  27.2200879
  95.7224047  42.7496213  28.1400879  95.1524047  43.9646213  28.2090879
  93.3994047  44.7486213  27.2150879  93.1194047  42.5376213  26.1010879
  95.5404047  41.5936213  26.4370879  94.5904047  41.0766213  27.7020879
  96.5984047  42.3596213  28.6380879  95.4244047  44.8436213  28.7730879
  44.4064047  28.6786213  98.2950879  45.6174047  28.6296213  98.7270879
  45.8334047  27.4936213  99.6330879  44.4854047  26.8986213  99.6320879
  43.6604047  27.6056213  98.8410879  44.0314047  29.3766213  97.6580879
  46.3904047  29.3386213  98.4550879  46.0944047  27.8046213 100.5580879
  46.5174047  26.8496213  99.2620879  44.2974047  26.0136213 100.2230879
  42.6164047  27.4676213  98.6020879  87.7704047 121.5286213  33.8100879
  88.1294047 121.6156213  35.0430879  87.2114047 122.4536213  35.8260879
  86.2454047 122.8316213  34.7790879  86.5874047 122.2796213  33.6030879
  88.2534047 121.0026213  33.0870879  89.0044047 121.1296213  35.4590879
  87.6814047 123.2656213  36.1990879  86.7654047 121.9246213  36.5610879
  85.4114047 123.4696213  35.0340879  86.1204047 122.3366213  32.6310879
  67.0124047  93.8776213 129.8100879  66.4824047  94.9086213 130.3680879
  65.0394047  94.7356213 130.5870879  64.8514047  93.3836213 130.0350879
  66.0184047  92.8936213 129.5830879  67.9934047  93.7736213 129.5640879
  67.0314047  95.8016213 130.6460879  64.5044047  95.4196213 130.0710879
  64.8104047  94.7656213 131.5710879  63.8654047  92.9406213 130.0440879
  66.2594047  91.9476213 129.1220879  90.2034047  37.5596213  44.0670879
  91.0484047  38.5256213  43.9810879  90.3844047  39.8216213  43.7810879
  88.9744047  39.3946213  43.7700879  88.8854047  38.0646213  43.9400879
  90.4344047  36.5796213  44.2060879  92.1234047  38.4036213  44.0480879
  90.6474047  40.2376213  42.8990879  90.5694047  40.4526213  44.5470879
  88.1984047  40.1346213  43.6370879  88.0264047  37.4116213  43.9850879
  40.7084047  52.7816213  44.4390879  41.6654047  52.9046213  45.2900879
  41.1714047  52.9386213  46.6740879  39.7224047  52.8096213  46.4370879
  39.4674047  52.7176213  45.1210879  40.8134047  52.7356213  43.4290879
  42.7134047  52.9736213  45.0230879  41.3914047  53.8156213  47.1220879
  41.5254047  52.1596213  47.2110879  39.0474047  52.7996213  47.2810879
  38.5364047  52.6136213  44.5850879 102.4994047  65.1866213  49.8220879
 101.7564047  64.1596213  50.0410879 101.6264047  63.3106213  48.8480879
 102.4534047  64.0706213  47.8940879 102.9584047  65.1686213  48.4820879
 102.7284047  65.9086213  50.5010879 101.2824047  63.9406213  50.9910879
 100.6674047  63.2566213  48.5380879 102.0074047  62.3886213  49.0090879
 102.5704047  63.7026213  46.8850879 103.5994047  65.9486213  48.0970879
  44.1994047 113.4786213  87.6940879  43.4444047 114.4036213  87.2170879
  42.9154047 115.2816213  88.2700879  43.5284047 114.6626213  89.4580879
  44.2794047 113.6066213  89.1030879  44.6724047 112.7596213  87.1530879
  43.2224047 114.5266213  86.1630879  41.9074047 115.2386213  88.3140879
  43.2314047 116.2336213  88.1490879  43.3334047 115.0836213  90.4340879
  44.8674047 112.9226213  89.6970879 131.2354047  64.6866213  57.1490879
 131.7004047  63.4896213  57.2120879 133.1684047  63.4646213  57.1510879
 133.4504047  64.9066213  57.0380879 132.3054047  65.6096213  57.0390879
 130.2524047  64.9446213  57.1740879 131.0864047  62.6006213  57.3010879
 133.4944047  62.9636213  56.3360879 133.5664047  63.0786213  57.9950879
 134.4754047  65.2416213  56.9710879 132.1264047  66.6726213  56.9740879
 114.0454047  78.6816213  84.4860879 113.3244047  77.9556213  85.2660879
 111.9234047  78.3966213  85.2880879 111.9914047  79.5336213  84.3540879
 113.2434047  79.6866213  83.8910879 115.0404047  78.5616213  84.3140879
 113.7024047  77.1166213  85.8390879 111.6474047  78.6986213  86.2120879
 111.3044047  77.6766213  84.9440879 111.0944047  80.0976213  84.1410879
 113.6614047  80.4046213  83.2000879  74.5624047 101.4366213  21.0600879
  73.5624047 100.7606213  20.6160879  72.3494047 101.5826213  20.5000879
  72.8654047 102.8786213  20.9740879  74.1654047 102.7766213  21.2980879
  75.4994047 101.0766213  21.2200879  73.6054047  99.7086213  20.3560879
  71.6144047 101.2396213  21.1020879  72.0344047 101.6416213  19.5420879
  72.2014047 103.7296213  21.0130879  74.8624047 103.5106213  21.6750879
  23.0304047 104.7246213  92.5820879  22.4424047 104.1576213  91.5890879
  23.3664047 103.3326213  90.7990879  24.6154047 103.5466213  91.5510879
  24.4014047 104.3646213  92.5940879  22.5894047 105.3386213  93.2620879
  21.3884047 104.2716213  91.3580879  23.4474047 103.6736213  89.8520879
  23.0944047 102.3596213  90.8100879  25.5224047 103.0606213  91.2200879
  25.0734047 104.7376213  93.3530879 106.7404047 120.2526213  49.1760879
 107.1594047 119.5166213  50.1440879 106.5314047 118.1876213  50.1370879
 105.6584047 118.3166213  48.9570879 105.7934047 119.5336213  48.4040879
 107.0364047 121.2056213  48.9830879 107.8904047 119.8336213  50.8790879
 105.9914047 118.0316213  50.9760879 107.2164047 117.4566213  50.0080879
 105.0374047 117.4826213  48.6650879 105.3194047 119.9766213  47.5410879
  97.3234047  54.2016213  46.9070879  98.0774047  53.4096213  46.2280879
  98.6884047  52.3736213  47.0720879  98.1254047  52.7386213  48.3840879
  97.3264047  53.8126213  48.2700879  96.8014047  54.9896213  46.5330879
  98.2434047  53.4936213  45.1600879  99.6954047  52.4466213  47.0730879
  98.3934047  51.4486213  46.7910879  98.3854047  52.1516213  49.2530879
  96.7534047  54.3526213  49.0090879  41.5594047  65.4176213  46.3580879
  41.8694047  66.6636213  46.2820879  42.4774047  67.1576213  47.5260879
  42.4504047  65.9266213  48.3360879  41.9094047  64.9156213  47.6360879
  41.1284047  64.8666213  45.6200879  41.7044047  67.2806213  45.4060879
  41.9164047  67.8836213  47.9460879  43.4244047  67.4736213  47.3730879
  42.8404047  65.9476213  49.3430879  41.7304047  63.8846213  47.9030879
  82.9254047  85.3406213 119.4030879  82.9294047  84.0586213 119.5010879
  81.7384047  83.4546213 118.8860879  81.0464047  84.6666213 118.4130879
  81.7564047  85.7646213 118.7230879  83.6454047  85.9656213 119.7560879
  83.7164047  83.4856213 119.9790879  81.1824047  82.9596213 119.5680879
  81.9874047  82.8506213 118.1160879  80.1024047  84.5686213 117.8960879
  81.5614047  86.8106213 118.5380879 117.0984047  70.8986213  82.3070879
 116.4234047  70.0666213  81.5950879 117.2454047  68.9366213  81.1400879
 118.5414047  69.2966213  81.7440879 118.4374047  70.4496213  82.4260879
 116.7374047  71.7506213  82.7280879 115.3724047  70.1816213  81.3560879
 117.3074047  68.9086213  80.1320879 116.9024047  68.0606213  81.5050879
 119.3924047  68.6476213  81.5950879 119.1704047  71.0086213  82.9880879
 105.9054047  39.2416213  99.2140879 104.8324047  39.0186213  98.5420879
 103.7554047  38.4806213  99.3850879 104.4404047  38.4406213 100.6890879
 105.7004047  38.8916213 100.5720879 106.7744047  39.6136213  98.8390879
 104.7284047  39.2046213  97.4790879 103.4824047  37.5546213  99.0880879
 102.9594047  39.1016213  99.4080879 103.9064047  38.0816213 101.5570879
 106.4844047  39.0046213 101.3060879  58.2654047 127.9166213  45.0090879
  57.3254047 128.1636213  44.1660879  57.1454047 129.6066213  43.9490879
  58.1834047 130.1376213  44.8490879  58.8324047 129.1336213  45.4630879
  58.5654047 126.9936213  45.3100879  56.7334047 127.4016213  43.6710879
  56.2254047 129.9096213  44.2340879  57.3284047 129.8606213  42.9890879
  58.3204047 131.2066213  44.9270879  59.6414047 129.1446213  46.1790879
  90.2524047  96.1806213 114.1010879  90.1794047  94.9606213 113.7000879
  90.6524047  94.8066213 112.3170879  91.0114047  96.2016213 112.0060879
  90.7714047  96.9946213 113.0640879  89.9814047  96.5206213 115.0200879
  89.8154047  94.1396213 114.3070879  89.9154047  94.4756213 111.7110879
  91.4594047  94.2016213 112.2680879  91.4074047  96.4416213 111.0300879
  90.9114047  98.0566213 113.2000879  47.0994047  64.1056213  55.9960879
  46.0904047  64.3626213  56.7510879  46.4364047  64.2876213  58.1770879
  47.8624047  63.9306213  58.0820879  48.2364047  63.8276213  56.7960879
  47.0944047  64.0996213  54.9790879  45.1004047  64.6076213  56.3830879
  45.9084047  63.5646213  58.6460879  46.3114047  65.1796213  58.6340879
  48.4354047  63.7946213  58.9880879  49.1904047  63.5866213  56.3520879
 101.7064047  68.8096213  40.7150879 100.6604047  68.9396213  39.9770879
 100.0614047  70.2756213  40.1020879 100.9864047  70.8876213  41.0720879
 101.9464047  70.0146213  41.4210879 102.2814047  67.9736213  40.7880879
 100.2654047  68.1586213  39.3370879  99.1234047  70.2246213  40.4740879
 100.0744047  70.7696213  39.2210879 100.8224047  71.9066213  41.3890879
 102.7824047  70.1126213  42.0980879  91.6444047  77.6586213 118.0450879
  91.5254047  77.8306213 119.3140879  92.6354047  77.2206213 120.0590879
  93.4204047  76.6576213 118.9460879  92.8254047  76.9246213 117.7710879
  90.9974047  77.9946213 117.3370879  90.7064047  78.3636213 119.7830879
  92.3074047  76.4936213 120.6780879  93.1654047  77.9146213 120.5660879
  94.3344047  76.1236213 119.1600879  93.1094047  76.6736213 116.7590879
  89.9834047  16.4536213  77.6020879  90.5594047  15.3076213  77.7060879
  92.0204047  15.4326213  77.8130879  92.1624047  16.8986213  77.7460879
  90.9584047  17.4816213  77.6230879  88.9824047  16.6096213  77.5170879
  90.0344047  14.3596213  77.7160879  92.4854047  14.9856213  77.0360879
  92.3574047  15.0716213  78.6930879  93.1484047  17.3366213  77.8000879
  90.6794047  18.5226213  77.5470879  63.9384047  48.1146213  92.5790879
  65.1214047  47.9716213  93.0630879  65.2104047  46.8196213  93.9710879
  63.8224047  46.3286213  93.9070879  63.0894047  47.0986213  93.0850879
  63.6454047  48.8406213  91.9310879  65.9584047  48.6206213  92.8310879
  65.4524047  47.1066213  94.9080879  65.8594047  46.1266213  93.6260879
  63.5414047  45.4586213  94.4820879  62.0494047  47.0416213  92.7990879
  54.6904047 101.9406213  35.9980879  55.5894047 101.7496213  35.0980879
  55.2134047 100.6816213  34.1600879  53.9024047 100.2976213  34.7140879
  53.6104047 101.0466213  35.7910879  54.7364047 102.6256213  36.7470879
  56.5164047 102.3076213  35.0340879  55.8654047  99.9116213  34.1980879
  55.1234047 101.0336213  33.2180879  53.3374047  99.5096213  34.2380879
  52.7494047 101.0456213  36.4430879 111.9144047  52.5966213 113.1140879
 111.4304047  53.3346213 112.1780879 111.7064047  52.7846213 110.8440879
 112.4554047  51.5696213 111.2120879 112.5684047  51.4736213 112.5470879
 111.8444047  52.7796213 114.1110879 110.8814047  54.2536213 112.3490879
 112.2764047  53.4136213 110.2970879 110.8524047  52.5536213 110.3560879
 112.8174047  50.9146213 110.4320879 113.0434047  50.7286213 113.1670879
  75.2144047 133.2856213 101.9680879  75.6764047 132.4336213 102.8130879
  74.6664047 132.0376213 103.8040879  73.5214047 132.8456213 103.3480879
  73.8604047 133.5716213 102.2690879  75.7334047 133.6976213 101.1960879
  76.6904047 132.0486213 102.8000879  74.9464047 132.2956213 104.7390879
  74.4624047 131.0496213 103.7480879  72.5844047 132.7846213 103.8820879
  73.2864047 134.2676213 101.6750879 129.0904047  50.7846213  71.4520879
 130.2334047  51.3266213  71.6810879 131.2174047  51.0006213  70.6390879
 130.3944047  50.1516213  69.7590879 129.1484047  50.0356213  70.2500879
 128.2624047  50.8726213  72.0360879 130.4504047  51.9516213  72.5400879
 131.9974047  50.4836213  71.0180879 131.5324047  51.8296213  70.1570879
 130.8334047  49.7336213  68.8660879 128.2874047  49.5006213  69.8780879
  57.9574047 124.7546213  70.6090879  58.8504047 125.0946213  71.4710879
  58.8084047 126.5326213  71.7690879  57.6994047 126.9496213  70.8930879
  57.2104047 125.8936213  70.2200879  57.8014047 123.8146213  70.2550879
  59.5514047 124.4046213  71.9270879  59.6714047 126.9876213  71.5080879
  58.5904047 126.7016213  72.7410879  57.4014047 127.9876213  70.8740879
  56.4084047 125.8216213  69.5000879 103.4964047  98.0166213  30.6530879
 103.8724047  96.8176213  30.9280879 105.3254047  96.7286213  31.1340879
 105.7064047  98.1356213  30.9170879 104.6214047  98.8776213  30.6360879
 102.5404047  98.3126213  30.4730879 103.2004047  95.9696213  31.0020879
 105.7574047  96.1236213  30.4510879 105.5474047  96.4306213  32.0730879
 106.7444047  98.4206213  30.9980879 104.5194047  99.9316213  30.4230879
  64.6144047  51.0006213  31.1430879  64.4264047  49.7376213  30.9900879
  62.9974047  49.3946213  30.9550879  62.4024047  50.7316213  31.1220879
  63.3654047  51.6636213  31.2300879  65.5184047  51.4646213  31.1940879
  65.2234047  49.0086213  30.8960879  62.7464047  48.7846213  31.7200879
  62.7374047  48.9866213  30.0680879  61.3274047  50.8346213  31.1400879
  63.3044047  52.7336213  31.3610879  95.7594047 120.3876213  66.3060879
  96.7704047 120.8046213  65.6280879  96.8774047 122.2706213  65.6440879
  95.7094047 122.6086213  66.4760879  95.0644047 121.4926213  66.8570879
  95.4904047 119.4156213  66.4340879  97.4644047 120.1556213  65.1070879
  96.7884047 122.6556213  64.7150879  97.7374047 122.5726213  66.0800879
  95.4944047 123.6456213  66.6890879  94.1814047 121.3566213  67.4630879
  75.2644047  95.9136213 130.4030879  74.8364047  95.3746213 129.3160879
  74.1024047  94.1276213 129.5720879  74.1994047  94.0626213 131.0410879
  74.8834047  95.1186213 131.5130879  75.7944047  96.7786213 130.4690879
  74.9954047  95.7886213 128.3270879  74.5594047  93.3366213 129.1400879
  73.1404047  94.1976213 129.2720879  73.7454047  93.2346213 131.5650879
  75.1474047  95.3996213 132.5220879  58.2214047 129.1576213  51.0840879
  57.2794047 130.0346213  51.0730879  57.8034047 131.4066213  51.1000879
  59.2514047 131.1336213  51.1300879  59.4794047 129.8096213  51.1200879
  58.0944047 128.1496213  51.0690879  56.2224047 129.7936213  51.0450879
  57.5074047 131.8976213  51.9320879  57.5444047 131.9176213  50.2680879
  59.9454047 131.9606213  51.1550879  60.4024047 129.2486213  51.1340879
  90.1854047  98.5396213  42.0470879  91.4364047  98.2676213  41.9250879
  91.9214047  98.5046213  40.5580879  90.6784047  98.9706213  39.9170879
  89.6694047  98.9866213  40.8050879  89.6394047  98.4516213  42.9000879
  92.0644047  97.9076213  42.7320879  92.2534047  97.6516213  40.1320879
  92.6334047  99.2196213  40.5380879  90.6914047  99.2396213  38.8710879
  88.6324047  99.2666213  40.6950879 106.9894047  30.1816213  93.4910879
 106.8964047  28.9796213  93.9420879 106.2234047  28.9316213  95.2470879
 105.9474047  30.3646213  95.4520879 106.4034047  31.0846213  94.4120879
 107.4154047  30.4536213  92.6090879 107.2684047  28.1036213  93.4230879
 106.8354047  28.5706213  95.9640879 105.3674047  28.3976213  95.2010879
 105.4414047  30.6826213  96.3520879 106.3774047  32.1466213  94.2200879
  42.6084047  66.4666213  78.5200879  41.3994047  66.6756213  78.1350879
  41.1694047  68.0836213  77.7830879  42.5064047  68.6416213  78.0490879
  43.3394047  67.6796213  78.4800879  42.9924047  65.5716213  78.8110879
  40.6364047  65.9066213  78.0740879  40.4724047  68.5036213  78.3810879
  40.9174047  68.1836213  76.8100879  42.6824047  69.6946213  77.8840879
  44.3804047  67.7186213  78.7670879  81.1804047  76.0126213 136.3380879
  80.6084047  77.1236213 136.0320879  79.1744047  76.9496213 135.7620879
  79.0434047  75.4976213 135.9770879  80.2284047  74.9636213 136.3150879
  82.1644047  75.8936213 136.5640879  81.1194047  78.0786213 135.9800879
  78.9464047  77.1996213 134.8110879  78.6104047  77.4696213 136.4190879
  78.0764047  75.0296213 135.8540879  80.5084047  73.9456213 136.5450879
  88.7084047  24.4206213  71.3870879  89.7544047  24.0386213  70.7440879
  90.7624047  23.4446213  71.6340879  90.0704047  23.5676213  72.9300879
  88.8664047  24.1406213  72.7670879  87.8854047  24.8566213  70.9780879
  89.8824047  24.1396213  69.6720879  91.6204047  23.9776213  71.6260879
  90.9354047  22.4776213  71.4020879  90.5584047  23.2096213  73.8250879
  88.0954047  24.3856213  73.4820879 115.2444047  97.9006213  74.9870879
 115.3474047  98.1256213  76.2490879 114.2704047  97.4816213  77.0130879
 113.5234047  96.8366213  75.9190879 114.1084047  97.0906213  74.7370879
 115.8764047  98.2446213  74.2680879 116.1344047  98.7196213  76.7000879
 113.7004047  98.1636213  77.4920879 114.6354047  96.7976213  77.6600879
 112.6404047  96.2586213  76.1500879 113.8444047  96.7866213  73.7350879
  39.1474047  74.7296213  38.1730879  38.4474047  75.5546213  37.4770879
  37.2804047  74.9046213  36.8640879  37.4594047  73.5276213  37.3550879
  38.5594047  73.4416213  38.1230879  39.9954047  74.9566213  38.6860879
  38.6844047  76.6056213  37.3550879  37.3264047  74.9416213  35.8560879
  36.4164047  75.3046213  37.2010879  36.7424047  72.7686213  37.0760879
  38.9964047  72.6036213  38.6450879  69.3254047  30.4016213 109.6810879
  69.6834047  29.1666213 109.6340879  68.5344047  28.2566213 109.7420879
  67.4374047  29.2326213 109.8620879  67.9184047  30.4866213 109.8240879
  69.9484047  31.2026213 109.6240879  70.7084047  28.8326213 109.5260879
  68.6004047  27.6776213 110.5670879  68.4324047  27.6916213 108.9110879
  66.4214047  28.8776213 109.9610879  67.4154047  31.4406213 109.8830879
  47.8684047  42.4926213  42.0290879  47.3804047  43.5326213  42.6080879
  48.4254047  44.3586213  43.2300879  49.6214047  43.5696213  42.8850879
  49.2774047  42.4786213  42.1800879  47.3344047  41.7826213  41.5350879
  46.3244047  43.7766213  42.6360879  48.3014047  44.4166213  44.2300879
  48.4624047  45.2796213  42.8160879  50.5934047  43.9156213  43.2060879
  49.8794047  41.6846213  41.7640879  71.2364047 100.7886213  30.1590879
  70.0594047 100.3136213  29.9490879  69.7604047 100.1976213  28.5140879
  71.0174047 100.7106213  27.9430879  71.8734047 101.0526213  28.9210879
  71.6554047 100.9546213  31.0700879  69.3674047 100.0286213  30.7330879
  68.9764047 100.7796213  28.2540879  69.6014047  99.2366213  28.2470879
  71.1294047 100.7606213  26.8700879  72.8734047 101.4576213  28.8790879
  33.8114047  76.2226213  76.7910879  32.9004047  75.6136213  77.4650879
  33.4704047  74.6506213  78.4170879  34.9074047  74.8356213  78.1480879
  35.0904047  75.7616213  77.1910879  33.6494047  76.9296213  76.0790879
  31.8364047  75.7866213  77.3470879  33.1774047  73.7076213  78.2070879
  33.2424047  74.8956213  79.3700879  35.6284047  74.2536213  78.7030879
  35.9924047  76.1506213  76.7440879 119.1564047  42.5016213  65.8750879
 118.9124047  43.7646213  65.8570879 117.4874047  44.0536213  66.0660879
 116.9604047  42.6846213  66.2080879 117.9524047  41.7856213  66.0940879
 120.0684047  42.0706213  65.7530879 119.6664047  44.5286213  65.7070879
 117.0844047  44.5186213  65.2640879 117.3394047  44.5916213  66.9070879
 115.9034047  42.5396213  66.3790879 117.9404047  40.7066213  66.1440879
  44.8764047  52.1966213  36.0400879  44.9004047  50.9096213  36.0250879
  43.5484047  50.3336213  36.0400879  42.7394047  51.5646213  36.0680879
  43.5344047  52.6486213  36.0660879  45.6904047  52.8056213  36.0330879
  45.8084047  50.3176213  36.0030879  43.3954047  49.7776213  36.8690879
  43.3684047  49.7956213  35.2050879  41.6624047  51.4896213  36.0840879
  43.2964047  53.7026213  36.0820879  32.5674047  51.7766213  47.1150879
  32.6814047  51.6976213  45.8360879  34.0534047  51.3646213  45.4260879
  34.7044047  51.2696213  46.7440879  33.8184047  51.5136213  47.7240879
  31.7134047  51.9936213  47.6220879  31.8664047  51.8556213  45.1400879
  34.4604047  52.1026213  44.8690879  34.0874047  50.4816213  44.9360879
  35.7564047  51.0296213  46.7980879  33.9364047  51.5306213  48.7980879
  89.8914047  70.7726213  26.7820879  89.8954047  69.8986213  25.8380879
  90.9654047  68.9066213  26.0100879  91.5794047  69.3976213  27.2570879
  90.9364047  70.4926213  27.6970879  89.2414047  71.5496213  26.8690879
  89.1924047  69.8906213  25.0120879  91.6224047  68.9366213  25.2430879
  90.5904047  67.9766213  26.1290879  92.4254047  68.8716213  27.6730879
  91.1044047  71.1126213  28.5650879  56.5264047 119.3226213  81.7510879
  55.3044047 119.6996213  81.6100879  55.2054047 121.1166213  81.2330879
  56.6334047 121.4756213  81.1880879  57.3954047 120.4116213  81.4930879
  56.8334047 118.3876213  82.0070879  54.4464047 119.0516213  81.7510879
  54.7164047 121.6506213  81.9360879  54.7714047 121.2276213  80.3280879
  56.9174047 122.4856213  80.9310879  58.4674047 120.3026213  81.5580879
 108.2024047 108.6936213  33.0630879 106.9344047 108.9086213  33.0900879
 106.1734047 107.6756213  33.3370879 107.2754047 106.7046213  33.4450879
 108.4604047 107.3176213  33.2830879 108.9204047 109.3976213  32.9090879
 106.4774047 109.8816213  32.9500879 105.5674047 107.4556213  32.5600879
 105.6494047 107.7326213  34.1990879 107.0484047 105.6646213  33.6330879
 109.4674047 106.9296213  33.2980879  22.7204047  82.9286213  50.9730879
  22.1204047  81.8036213  51.1460879  22.8134047  80.9556213  52.1260879
  23.9434047  81.8336213  52.4800879  23.8734047  82.9876213  51.7950879
  22.4214047  83.6706213  50.3450879  21.2114047  81.5126213  50.6340879
  23.1374047  80.0966213  51.7060879  22.2304047  80.7676213  52.9290879
  24.6694047  81.4956213  53.2050879  24.5184047  83.8546213  51.7980879
  79.6364047  20.2046213  88.9810879  79.9514047  18.9606213  88.8960879
  81.3444047  18.7166213  89.2940879  81.7654047  20.0886213  89.6270879
  80.7514047  20.9496213  89.4390879  78.7284047  20.6046213  88.7580879
  79.2714047  18.1806213  88.5700879  81.8864047  18.3436213  88.5280879
  81.3964047  18.1116213  90.1010879  82.7754047  20.2636213  89.9680879
  80.6944047  22.0186213  89.5790879  87.5274047 116.9426213 109.6770879
  88.2384047 117.4266213 108.7200879  88.2214047 116.5636213 107.5310879
  87.3494047 115.4766213 108.0090879  86.9494047 115.7146213 109.2690879
  87.3934047 117.3676213 110.5910879  88.7844047 118.3606213 108.7790879
  89.1464047 116.2206213 107.3120879  87.8154047 117.0366213 106.7370879
  87.1254047 114.6496213 107.3500879  86.3144047 115.1446213 109.9310879
  85.3434047 122.1286213  39.9890879  86.3564047 122.8806213  40.2380879
  85.9594047 124.2716213  40.4990879  84.4984047 124.1596213  40.3460879
  84.1534047 122.8956213  40.0480879  85.3784047 121.1336213  39.7820879
  87.3834047 122.5336213  40.2560879  86.3514047 124.9006213  39.8130879
  86.2084047 124.5566213  41.4350879  83.8834047 125.0376213  40.4790879
  83.1864047 122.4476213  39.8680879  44.2684047 114.4816213  58.5640879
  44.7404047 113.9816213  59.6510879  43.8974047 114.2956213  60.8140879
  42.8374047 115.0846213  60.1620879  43.0694047 115.1836213  58.8420879
  44.6824047 114.3916213  57.6400879  45.6514047 113.3966213  59.7080879
  44.3994047 114.8486213  61.4930879  43.5234047 113.4576213  61.2350879
  42.0304047 115.4806213  60.7600879  42.5134047 115.6786213  58.0600879
 118.5064047 110.8936213  98.6360879 119.5984047 110.2536213  98.8680879
 120.6494047 111.1316213  99.4010879 119.9294047 112.4166213  99.4250879
 118.6734047 112.2606213  98.9740879 117.6494047 110.4916213  98.2670879
 119.7304047 109.1916213  98.6950879 121.4454047 111.1706213  98.7810879
 120.9284047 110.8506213 100.3300879 120.4384047 113.3016213  99.7780879
 117.8694047 112.9716213  98.8520879  50.4064047  39.3586213  56.6360879
  50.9764047  38.2206213  56.4510879  50.0894047  37.2626213  55.7770879
  48.8834047  38.0936213  55.6140879  49.0854047  39.3206213  56.1230879
  50.8284047  40.1696213  57.0810879  51.9924047  37.9916213  56.7530879
  49.9034047  36.4596213  56.3600879  50.4624047  36.9806213  54.8820879
  48.0114047  37.6716213  55.1350879  48.4354047  40.1806213  56.1800879
  80.3614047 113.6156213  51.3990879  80.1944047 113.0836213  50.2400879
  80.6934047 111.7016213  50.1910879  81.1854047 111.5526213  51.5720879
  80.9834047 112.6846213  52.2670879  80.0924047 114.5596213  51.6630879
  79.7384047 113.5896213  49.3960879  81.4444047 111.6056213  49.5230879
  79.9494047 111.0476213  49.9950879  81.6304047 110.6166213  51.8760879
  81.2124047 112.9376213  53.2920879  84.6434047  33.7526213  87.2710879
  85.6134047  32.9266213  87.0910879  86.1624047  32.4376213  88.3640879
  85.3014047  33.1606213  89.3160879  84.4154047  33.9276213  88.6590879
  84.1134047  34.2156213  86.5370879  85.9834047  32.6226213  86.1190879
  87.1314047  32.7026213  88.4720879  86.0494047  31.4376213  88.4540879
  85.4494047  33.0176213  90.3770879  83.6394047  34.5846213  89.0220879
  24.4824047  48.7256213  63.4430879  24.5364047  47.7966213  62.5560879
  24.2314047  46.4746213  63.1220879  23.9914047  46.8426213  64.5290879
  24.1414047  48.1666213  64.7000879  24.6554047  49.7136213  63.2800879
  24.7764047  47.9636213  61.5120879  25.0184047  45.8476213  63.0380879
  23.4044047  46.0756213  62.7020879  23.7334047  46.0716213  65.2410879
  24.0454047  48.7836213  65.5820879  69.9324047 132.2506213  99.6170879
  70.7794047 132.3496213  98.6530879  70.5534047 133.5546213  97.8430879
  69.3944047 134.1296213  98.5470879  69.0424047 133.3536213  99.5860879
  69.8984047 131.5016213 100.3030879  71.5674047 131.6306213  98.4590879
  70.3214047 133.3186213  96.8890879  71.3484047 134.1766213  97.8780879
  68.9654047 135.0556213  98.1910879  68.2524047 133.4586213 100.3150879
  35.4144047 105.8356213  52.6260879  35.6714047 107.0246213  53.0450879
  36.9814047 107.1036213  53.7070879  37.4234047 105.7046213  53.5800879
  36.4934047 104.9736213  52.9430879  34.5684047 105.5466213  52.1410879
  35.0044047 107.8706213  52.9250879  36.8884047 107.3716213  54.6760879
  37.6044047 107.7306213  53.2170879  38.3854047 105.4146213  53.9790879
  36.4734047 103.9266213  52.6760879  16.8884047  95.4586213  66.1360879
  15.7274047  95.1046213  65.7110879  15.7404047  93.7536213  65.1320879
  17.1604047  93.4056213  65.3150879  17.8204047  94.4166213  65.9060879
  17.1154047  96.3486213  66.5730879  14.8404047  95.7256213  65.7710879
  15.4914047  93.7706213  64.1540879  15.1404047  93.1266213  65.6480879
  17.5154047  92.4406213  64.9830879  18.8564047  94.5156213  66.1920879
 119.0764047  47.9566213 103.0660879 119.1304047  46.6746213 102.9700879
 117.8284047  46.0466213 103.2300879 117.0104047  47.2426213 103.4980879
 117.7574047  48.3546213 103.3970879 119.8544047  48.5956213 102.9270879
 120.0294047  46.1196213 102.7250879 117.8664047  45.4416213 104.0380879
 117.4904047  45.5466213 102.4200879 115.9624047  47.1256213 103.7330879
 117.5004047  49.3956213 103.5240879  76.0984047  82.4426213  16.0820879
  75.6514047  83.6186213  16.3530879  74.1904047  83.6986213  16.2130879
  73.8914047  82.3156213  15.8020879  75.0214047  81.5916213  15.7300879
  77.0734047  82.1566213  16.1130879  76.2744047  84.4536213  16.6510879
  73.9254047  84.3586213  15.4960879  73.7474047  83.9226213  17.0920879
  72.8674047  82.0306213  15.6100879  75.1854047  80.5576213  15.4660879
  39.2434047 119.3166213  71.0520879  39.9094047 120.2886213  71.5680879
  39.1334047 121.5366213  71.5910879  37.8774047 121.0746213  70.9750879
  37.9574047 119.7696213  70.6660879  39.5784047 118.3636213  70.9340879
  40.9224047 120.2016213  71.9440879  39.5734047 122.2526213  71.0310879
  38.9814047 121.8596213  72.5360879  37.0654047 121.7746213  70.8400879
  37.2404047 119.1036213  70.2090879  91.6834047  70.0116213  15.1180879
  91.8374047  69.5326213  13.9340879  92.4944047  68.2176213  13.9530879
  92.6854047  68.0416213  15.4030879  92.2034047  69.1026213  16.0730879
  91.2534047  70.9046213  15.3460879  91.5224047  70.0346213  13.0270879
  93.3794047  68.2416213  13.4680879  91.8934047  67.4996213  13.5730879
  93.1594047  67.1426213  15.7690879  92.1704047  69.3186213  17.1300879
  24.1204047 104.9366213  49.4790879  24.6274047 104.6886213  48.3230879
  25.8374047 103.8606213  48.4190879  25.9194047 103.6856213  49.8800879
  24.9044047 104.3236213  50.4870879  23.2834047 105.4886213  49.6540879
  24.2134047 105.0436213  47.3860879  26.6464047 104.3486213  48.0640879
  25.7164047 102.9736213  47.9510879  26.7274047 103.1036213  50.2990879
  24.6454047 104.4126213  51.5320879  46.3794047  44.8876213  83.2190879
  45.4004047  44.0906213  82.9700879  45.8184047  42.6816213  82.9920879
  47.2484047  42.8376213  83.3070879  47.5614047  44.1376213  83.4380879
  46.3244047  45.9016213  83.2560879  44.3864047  44.4146213  82.7670879
  45.6874047  42.2446213  82.0910879  45.3374047  42.1656213  83.7160879
  47.8694047  41.9576213  83.3990879  48.5004047  44.6216213  83.6630879
  53.1444047  41.6846213 118.8900879  52.6874047  41.1056213 119.9440879
  51.2234047  40.9766213 119.9110879  50.9344047  41.6076213 118.6120879
  52.0724047  42.0176213 118.0250879  54.1234047  41.8796213 118.6970879
  53.3054047  40.7516213 120.7610879  50.7924047  41.4866213 120.6690879
  50.9384047  40.0086213 119.9190879  49.9114047  41.6776213 118.2730879
  52.2444047  42.5126213 117.0810879  37.8884047  94.9026213  53.5100879
  37.9554047  93.7346213  54.0460879  36.6374047  93.0916213  54.1320879
  35.7944047  94.1396213  53.5300879  36.5444047  95.1956213  53.1700879
  38.6734047  95.5286213  53.3490879  38.8744047  93.2766213  54.3940879
  36.3754047  92.9166213  55.0910879  36.6074047  92.2406213  53.5880879
  34.7314047  93.9756213  53.4390879  36.2724047  96.1316213  52.7060879
 106.3354047 102.0056213  27.0480879 105.7834047 100.8456213  26.9890879
 106.7394047  99.7656213  27.2710879 107.9624047 100.5546213  27.5040879
 107.7084047 101.8666213  27.3700879 105.8674047 102.8946213  26.8890879
 104.7364047 100.6786213  26.7610879 106.8464047  99.1516213  26.4760879
 106.4764047  99.2466213  28.0960879 108.8834047 100.0436213  27.7450879
 108.3524047 102.7276213  27.4670879  43.3024047 127.7596213  66.5760879
  44.1674047 126.9086213  66.1470879  44.2624047 125.7326213  67.0220879
  43.2674047 126.0886213  68.0490879  42.7124047 127.2806213  67.7710879
  43.0694047 128.6446213  66.1320879  44.7574047 127.0396213  65.2470879
  45.1854047 125.6456213  67.4230879  43.9994047 124.8876213  66.5350879
  43.0864047 125.4086213  68.8690879  41.9574047 127.8496213  68.2930879
  72.3524047  88.1256213  23.7740879  72.8024047  89.3306213  23.7560879
  71.8234047  90.2756213  23.2010879  70.7114047  89.3556213  22.9020879
  71.0384047  88.0976213  23.2450879  72.8544047  87.3096213  24.1150879
  73.7854047  89.6196213  24.1080879  72.1704047  90.7136213  22.3600879
  71.5514047  90.9686213  23.8830879  69.8034047  89.7466213  22.4680879
  70.4804047  87.1756213  23.1730879  86.2184047  56.3256213  28.1930879
  85.9914047  56.4196213  29.4560879  84.6784047  55.8696213  29.8210879
  84.1974047  55.4386213  28.4970879  85.1124047  55.7126213  27.5520879
  87.0594047  56.6396213  27.7160879  86.6834047  56.8516213  30.1690879
  84.0784047  56.5796213  30.2150879  84.7704047  55.0846213  30.4510879
  83.2254047  54.9746213  28.4130879  85.1054047  55.5406213  26.4860879
  85.0944047  29.4846213  36.9980879  86.2454047  28.9156213  37.0820879
  86.1294047  27.4626213  37.2650879  84.6634047  27.3146213  37.2700879
  84.0704047  28.5106213  37.1120879  84.9314047  30.4796213  36.8700879
  87.1904047  29.4426213  37.0230879  86.5284047  27.1696213  38.1450879
  86.5444047  26.9586213  36.4940879  84.2304047  26.3326213  37.3900879
  83.0264047  28.7846213  37.0670879  66.2124047  91.2746213 124.0390879
  67.1964047  91.7226213 123.3420879  67.3214047  93.1826213 123.4400879
  66.1964047  93.4816213 124.3440879  65.5564047  92.3506213 124.6870879
  65.9374047  90.2986213 124.1210879  67.8574047  91.0996213 122.7510879
  67.1944047  93.6246213 122.5410879  68.2034047  93.4506213 123.8530879
  66.0044047  94.5056213 124.6290879  64.7004047  92.1856213 125.3240879
  25.1794047  72.8316213  66.7150879  24.1674047  72.5816213  67.4700879
  23.9334047  71.1376213  67.6160879  25.0274047  70.6096213  66.7830879
  25.7494047  71.6156213  66.2620879  25.5254047  73.7566213  66.4750879
  23.5574047  73.3416213  67.9440879  23.0314047  70.8716213  67.2470879
  24.0304047  70.8436213  68.5780879  25.1424047  69.5406213  66.6750879
  26.6134047  71.6076213  65.6140879 127.8074047  85.3906213  65.9770879
 129.0544047  85.0716213  65.9670879 129.2534047  83.6206213  66.0830879
 127.8524047  83.1696213  66.1630879 127.0174047  84.2206213  66.0980879
 127.4354047  86.3336213  65.9080879 129.8654047  85.7866213  65.8830879
 129.7614047  83.3846213  66.9240879 129.7124047  83.2446213  65.2660879
 127.6404047  82.1146213  66.2580879 125.9384047  84.2716213  66.1250879
  72.3564047  48.6786213  32.2670879  72.7124047  47.6086213  31.6470879
  71.6584047  47.1146213  30.7510879  70.6164047  48.1296213  30.9870879
  71.0424047  49.0406213  31.8790879  72.9224047  49.1946213  32.9350879
  73.6754047  47.1266213  31.7680879  71.3424047  46.1956213  31.0260879
  71.9614047  47.1186213  29.7870879  69.6764047  48.0546213  30.4610879
  70.5564047  49.9136213  32.2870879  83.3334047 127.6636213  62.2820879
  83.6974047 126.4316213  62.3550879  84.0384047 125.8786213  61.0370879
  83.7904047 127.0566213  60.1870879  83.3774047 128.0956213  60.9330879
  83.0534047 128.2476213  63.0650879  83.7504047 125.8656213  63.2780879
  83.4264047 125.1146213  60.7900879  85.0064047 125.5946213  60.9950879
  83.9524047 126.9836213  59.1220879  83.1074047 129.1036213  60.6560879
  93.0004047 132.9126213  89.7080879  92.0714047 132.7896213  88.8270879
  92.4964047 131.9596213  87.6910879  93.8704047 131.6306213  88.1070879
  94.1504047 132.1966213  89.2930879  92.9304047 133.4396213  90.5750879
  91.0894047 133.2416213  88.9080879  92.4914047 132.4856213  86.8290879
  91.9294047 131.1276213  87.6100879  94.4824047 131.0096213  87.4680879
  95.0464047 132.1736213  89.8960879 109.7204047  60.5076213  82.7220879
 109.5024047  61.1496213  81.6290879 109.8064047  62.5806213  81.7610879
 110.2464047  62.6266213  83.1660879 110.1894047  61.4016213  83.7160879
 109.5804047  59.5106213  82.8640879 109.1394047  60.6916213  80.7160879
 108.9834047  63.1466213  81.6160879 110.5504047  62.8586213  81.1360879
 110.5514047  63.5706213  83.5950879 110.4324047  61.0596213  84.7110879
  56.6814047  98.0866213 108.4700879  57.2884047  97.0886213 109.0080879
  58.7494047  97.2476213 108.9710879  58.8534047  98.5526213 108.2960879
  57.6314047  99.0326213 108.0090879  55.6744047  98.1926213 108.3840879
  56.7864047  96.2296213 109.4390879  59.1854047  96.5186213 108.4260879
  59.1394047  97.2846213 109.9020879  59.8304047  98.9746213 108.1080879
  57.3244047  99.9476213 107.5250879 121.0914047 110.3016213  89.6760879
 122.0764047 109.4876213  89.8230879 123.3734047 110.1726213  89.7440879
 122.9244047 111.5586213  89.5190879 121.5824047 111.6166213  89.4820879
 120.1064047 110.0516213  89.6940879 121.9664047 108.4216213  89.9870879
 123.9214047 109.8356213  88.9650879 123.8874047 110.0906213  90.6100879
 123.6604047 112.3426213  89.4130879 120.9134047 112.4516213  89.3390879
  50.3714047 100.0956213 115.0780879  51.0664047  99.1516213 115.6050879
  51.7834047  99.6006213 116.8070879  51.3514047 101.0086213 116.8580879
  50.5224047 101.2826213 115.8370879  49.7954047 100.0146213 114.2430879
  51.1194047  98.1416213 115.2140879  52.7834047  99.5286213 116.6870879
  51.4804047  99.0946213 117.6280879  51.7124047 101.6436213 117.6540879
  50.0174047 102.1956213 115.5590879  38.6884047  66.8996213 125.3730879
  37.9564047  67.8786213 124.9720879  36.6794047  67.4166213 124.4100879
  36.8334047  65.9606213 124.5720879  38.0174047  65.6736213 125.1390879
  39.6094047  66.9816213 125.7960879  38.2424047  68.9216213 125.0400879
  36.5944047  67.6696213 123.4350879  35.8954047  67.7636213 124.9430879
  36.0394047  65.3046213 124.2450879  38.4654047  64.7276213 125.4060879
  91.1324047  98.7566213  53.4880879  91.4594047  99.1866213  52.3200879
  92.6764047  98.5366213  51.8150879  92.9814047  97.6386213  52.9430879
  92.0654047  97.7796213  53.9160879  90.3284047  99.0626213  54.0300879
  90.9054047  99.9386213  51.7700879  93.4184047  99.2056213  51.6700879
  92.4914047  98.0136213  50.9710879  93.8484047  96.9966213  52.8880879
  91.9694047  97.2926213  54.8750879  89.0694047 125.5296213  89.6940879
  90.3514047 125.4316213  89.6580879  90.9674047 126.5286213  88.8980879
  89.7634047 127.2806213  88.5020879  88.6584047 126.6816213  88.9780879
  88.4374047 124.8856213  90.1620879  90.9154047 124.6366213  90.1320879
  91.4644047 126.1826213  88.0900879  91.5724047 127.0876213  89.4830879
  89.8704047 128.1776213  87.9110879  87.6144047 126.9446213  88.8880879
  44.1574047 109.8006213 108.3680879  44.7124047 108.7156213 107.9570879
  43.8894047 108.0196213 106.9590879  42.7384047 108.9366213 106.8830879
  42.9114047 109.9776213 107.7150879  44.5434047 110.4426213 109.0550879
  45.6744047 108.3546213 108.3030879  43.6074047 107.1066213 107.2860879
  44.3644047 107.9536213 106.0700879  41.9224047 108.7066213 106.2140879
  42.2854047 110.8326213 107.9210879  76.8104047  54.2056213 117.1070879
  76.7864047  52.9246213 116.9890879  78.1384047  52.3546213 116.9100879
  78.9474047  53.5826213 117.0070879  78.1524047  54.6596213 117.1230879
  75.9964047  54.8106213 117.1790879  75.8794047  52.3326213 116.9530879
  78.2894047  51.8866213 116.0280879  78.3224047  51.7326213 117.6840879
  80.0244047  53.5096213 116.9790879  78.3894047  55.7096213 117.2150879
  91.3164047  35.7566213  46.9900879  90.0484047  35.9326213  46.8700879
  89.3144047  34.6596213  46.8520879  90.4344047  33.7106213  46.9870879
  91.6014047  34.3706213  47.0670879  92.0174047  36.4926213  47.0260879
  89.5724047  36.9036213  46.7920879  88.8274047  34.5276213  45.9770879
  88.6784047  34.5886213  47.6340879  90.2294047  32.6506213  47.0080879
  92.6144047  34.0106213  47.1720879  76.0784047  27.1386213  98.9520879
  76.6544047  28.2656213  99.1860879  78.1164047  28.1696213  99.0790879
  78.2604047  26.7436213  98.7340879  77.0554047  26.1536213  98.6630879
  75.0764047  26.9696213  98.9690879  76.1264047  29.1806213  99.4320879
  78.5644047  28.3786213  99.9590879  78.4724047  28.7616213  98.3420879
  79.2484047  26.3336213  98.5800879  76.7764047  25.1356213  98.4380879
  81.0854047  60.8336213 117.1180879  80.7964047  61.3066213 118.2790879
  79.9944047  62.5356213 118.1890879  79.8844047  62.6686213 116.7260879
  80.5294047  61.6616213 116.1120879  81.6294047  59.9936213 116.9380879
  81.1044047  60.8556213 119.2160879  80.4814047  63.3226213 118.5920879
  79.0874047  62.4156213 118.6150879  79.3354047  63.5016213 116.3100879
  80.6584047  61.4366213 115.0640879  39.6734047  94.0966213  29.7770879
  40.2824047  94.8576213  28.9370879  39.9024047  96.2686213  29.0970879
  38.9434047  96.1566213  30.2100879  38.8214047  94.8756213  30.5970879
  39.7814047  93.0886213  29.8500879  40.9924047  94.5046213  28.1970879
  39.4564047  96.6266213  28.2640879  40.6974047  96.8366213  29.3540879
  38.4634047  97.0486213  30.5860879  38.2184047  94.4236213  31.3710879
 118.0514047  90.7236213  84.9480879 118.9514047  91.6426213  84.9140879
 120.3094047  91.0826213  84.9000879 119.9994047  89.6426213  84.9350879
 118.6694047  89.4496213  84.9620879 117.0464047  90.8776213  84.9630879
 118.7374047  92.7056213  84.8950879 120.8314047  91.3636213  85.7180879
 120.8024047  91.3306213  84.0540879 120.8084047  88.9266213  84.9340879
 118.0854047  88.5416213  84.9910879  54.1454047  43.6766213  70.1500879
  54.5384047  43.8596213  68.9390879  53.8814047  45.0156213  68.3150879
  53.0244047  45.4606213  69.4270879  53.1914047  44.6646213  70.4970879
  54.4644047  42.9396213  70.7730879  55.2694047  43.2366213  68.4340879
  53.3294047  44.7386213  67.5160879  54.5514047  45.7286213  68.0610879
  52.3874047  46.3236213  69.2920879  52.7364047  44.6876213  71.4760879
  40.5444047 121.7746213  54.3090879  41.3354047 120.8466213  53.9020879
  41.6814047 121.0006213  52.4810879  40.9164047 122.2186213  52.1580879
  40.2554047 122.6606213  53.2410879  40.1754047 121.8696213  55.2520879
  41.7074047 120.0436213  54.5280879  41.3604047 120.2126213  51.9370879
  42.6724047 121.1476213  52.3570879  40.9554047 122.6166213  51.1540879
  39.6064047 123.5126213  53.3770879  68.1704047  82.9996213  26.6890879
  66.9044047  83.2246213  26.7210879  66.6004047  84.6626213  26.6980879
  67.9634047  85.2176213  26.6460879  68.8734047  84.2296213  26.6400879
  68.6114047  82.0836213  26.6960879  66.1484047  82.4496213  26.7600879
  66.1204047  84.9506213  27.5380879  66.0704047  84.9136213  25.8750879
  68.0974047  86.2896213  26.6170879  69.9524047  84.2586213  26.6080879
  27.2664047  42.4346213  79.7560879  26.3194047  43.2716213  79.9980879
  25.0624047  42.5956213  80.3480879  25.4874047  41.1876213  80.2550879
  26.7834047  41.1106213  79.9070879  28.2194047  42.6746213  79.4960879
  26.4324047  44.3486213  79.9520879  24.3354047  42.8026213  79.6790879
  24.7684047  42.8276213  81.2860879  24.7724047  40.4046213  80.4600879
  27.4254047  40.2566213  79.7470879  98.1874047  68.2846213  96.5190879
  97.9074047  68.4576213  95.2750879  96.6474047  69.1916213  95.0910879
  96.2604047  69.4046213  96.4960879  97.1754047  68.8676213  97.3220879
  99.0074047  67.8066213  96.8820879  98.5254047  68.1056213  94.4570879
  95.9624047  68.6306213  94.6040879  96.7984047  70.0696213  94.6150879
  95.3464047  69.9346213  96.7190879  97.2224047  68.8316213  98.4000879
 121.1344047 106.9156213 104.8640879 121.0024047 105.6676213 105.1480879
 122.1814047 104.8856213 104.7500879 123.0204047 105.9506213 104.1740879
 122.3914047 107.1356213 104.2490879 120.4474047 107.6426213 105.0480879
 120.1284047 105.2406213 105.6260879 121.9444047 104.1906213 104.0560879
 122.6284047 104.4596213 105.5500879 123.9924047 105.7006213 103.7740879
 122.6974047 108.1216213 103.9310879  73.5924047  32.4486213  70.3950879
  73.4204047  31.1756213  70.3260879  72.6114047  30.7906213  69.1620879
  72.3524047  32.1176213  68.5740879  72.9354047  33.0786213  69.3090879
  74.1184047  32.9386213  71.1140879  73.8244047  30.4666213  71.0400879
  71.7514047  30.3416213  69.4430879  73.1334047  30.2046213  68.5260879
  71.7624047  32.1896213  67.6720879  72.9594047  34.1516213  69.1840879
  69.8024047 113.1386213  30.5230879  68.5184047 113.1406213  30.4350879
  68.0304047 114.1856213  29.5240879  69.3094047 114.7866213  29.1070879
  70.3394047 114.1606213  29.7010879  70.3574047 112.5046213  31.0920879
  67.8704047 112.4536213  30.9660879  67.4534047 114.8566213  30.0100879
  67.5384047 113.7886213  28.7370879  69.3034047 115.6146213  28.4120879
  71.4044047 114.3266213  29.6340879 133.0294047  72.0696213  77.2840879
 133.8614047  71.1026213  77.4550879 134.9204047  71.1006213  76.4370879
 134.5204047  72.2726213  75.6400879 133.4094047  72.8306213  76.1500879
 132.2204047  72.2666213  77.8660879 133.7934047  70.3756213  78.2560879
 134.8964047  70.2566213  75.8820879 135.8314047  71.2336213  76.8520879
 135.1124047  72.5576213  74.7820879 132.8384047  73.6916213  75.8340879
  53.7994047  99.3316213  66.0820879  54.6404047  99.1896213  65.1190879
  54.5554047 100.2886213  64.1470879  53.4824047 101.0946213  64.7570879
  53.0504047 100.5196213  65.8920879  53.6814047  98.6946213  66.8660879
  55.3334047  98.3606213  65.0320879  54.2854047  99.9516213  63.2340879
  55.4214047 100.8076213  64.1000879  53.1664047 102.0066213  64.2720879
  52.2874047 100.8216213  66.5940879  17.3614047  80.0976213  80.6170879
  16.2594047  80.1946213  81.2740879  15.2254047  79.2906213  80.7510879
  15.9694047  78.6506213  79.6520879  17.2214047  79.1356213  79.5870879
  18.2104047  80.6256213  80.8020879  16.1064047  80.8626213  82.1140879
  14.4294047  79.8036213  80.4030879  14.9444047  78.6126213  81.4450879
  15.4774047  77.9056213  79.0440879  18.0374047  78.9036213  78.9190879
  78.9634047 117.6926213 112.1600879  79.6454047 117.6286213 111.0710879
  80.5554047 116.4746213 111.0570879  80.2514047 115.8866213 112.3740879
  79.3154047 116.6126213 113.0080879  78.2744047 118.4046213 112.3880879
  79.5614047 118.3386213 110.2560879  81.5204047 116.7666213 111.0020879
  80.3274047 115.8346213 110.3100879  80.7694047 114.9916213 112.6860879
  78.8534047 116.4856213 113.9760879 110.9964047  94.9126213 115.8530879
 112.2094047  95.3346213 115.7720879 113.1654047  94.2316213 115.6040879
 112.2434047  93.0826213 115.6060879 110.9734047  93.4996213 115.7520879
 110.1714047  95.4956213 115.9710879 112.4964047  96.3786213 115.8210879
 113.8114047  94.1826213 116.3790879 113.6594047  94.3026213 114.7260879
 112.6414047  92.0846213 115.4960879 110.0464047  92.9476213 115.7970879
  28.4194047  61.4216213  44.0510879  29.3334047  60.5276213  44.1940879
  28.8834047  59.4096213  45.0360879  27.5134047  59.8526213  45.3490879
  27.2564047  61.0346213  44.7630879  28.5064047  62.2786213  43.5120879
  30.3184047  60.5866213  43.7470879  29.4424047  59.3316213  45.8730879
  28.8784047  58.5396213  44.5220879  26.8864047  59.2326213  45.9730879
  26.3704047  61.6516213  44.7710879 111.9094047 123.4596213  84.9700879
 110.7814047 122.8386213  84.9650879 109.6424047 123.7666213  85.0070879
 110.3554047 125.0556213  85.0370879 111.6844047 124.8576213  85.0150879
 112.8274047 123.0236213  84.9460879 110.6804047 121.7606213  84.9330879
 109.0904047 123.6336213  85.8420879 109.0704047 123.6846213  84.1780879
 109.7874047 125.9736213  85.0710879 112.5054047 125.5586213  85.0260879
  52.3874047 122.2886213  56.3770879  52.0164047 121.4136213  57.2440879
  53.0794047 121.1136213  58.2130879  54.1444047 122.0046213  57.7170879
  53.7214047 122.6876213  56.6400879  51.8174047 122.6486213  55.6150879
  51.0364047 120.9506213  57.2620879  53.3614047 120.1456213  58.1620879
  52.8034047 121.3616213  59.1520879  55.0964047 122.0266213  58.2280879
  54.2214047 123.4186213  56.0230879  75.0334047  61.5026213  26.6780879
  74.6844047  60.5106213  25.9360879  74.0554047  60.9536213  24.6840879
  74.1174047  62.4156213  24.8640879  74.6944047  62.7206213  26.0380879
  75.4854047  61.4346213  27.5860879  74.8354047  59.4696213  26.1990879
  73.1004047  60.6336213  24.6190879  74.5914047  60.6616213  23.8790879
  73.7224047  63.0606213  24.0920879  74.9054047  63.6746213  26.4980879
 129.3374047  88.1386213 102.5500879 128.9064047  87.2826213 101.6930879
 128.0344047  86.2746213 102.3120879 128.0554047  86.7336213 103.7120879
 128.8244047  87.8296213 103.8340879 129.9524047  88.9226213 102.3490879
 129.1534047  87.2986213 100.6370879 128.4244047  85.3466213 102.2260879
 127.0994047  86.3096213 101.9290879 127.4924047  86.1896213 104.4560879
 129.0684047  88.4316213 104.6970879  58.1944047  82.5876213  28.8970879
  57.7234047  81.4046213  28.7100879  58.7754047  80.3796213  28.7610879
  59.9544047  81.2256213  29.0180879  59.5954047  82.5186213  29.0960879
  57.6524047  83.4476213  28.9040879  56.6764047  81.1856213  28.5350879
  58.8594047  79.8936213  27.8800879  58.6194047  79.7296213  29.5190879
  60.9254047  80.7646213  29.1140879  60.1824047  83.4076213  29.2710879
  50.1754047  34.0286213  97.5590879  48.9234047  34.1176213  97.2780879
  48.1814047  32.9146213  97.6790879  49.2754047  32.1106213  98.2510879
  50.4394047  32.7786213  98.1740879  50.8774047  34.7396213  97.3740879
  48.4644047  34.9776213  96.8030879  47.7684047  32.4536213  96.8800879
  47.4814047  33.1266213  98.3750879  49.0594047  31.1306213  98.6510879
  51.4354047  32.5066213  98.4880879  58.9434047 130.5316213  76.3750879
  58.8414047 130.8896213  77.6070879  57.8244047 131.9336213  77.7940879
  57.3614047 132.1006213  76.4050879  58.0284047 131.2696213  75.5850879
  59.5794047 129.8256213  76.0130879  59.4324047 130.4726213  78.4140879
  58.2324047 132.7866213  78.1480879  57.0754047 131.6156213  78.3930879
  56.5864047 132.8206213  76.1880879  57.9564047 131.1176213  74.5180879
  83.1534047  57.6706213  25.5760879  81.9344047  58.0356213  25.7670879
  81.0494047  57.5876213  24.6830879  82.0204047  56.8856213  23.8250879
  83.2504047  56.9436213  24.3640879  83.9354047  57.8676213  26.1940879
  81.5954047  58.6056213  26.6250879  80.6334047  58.3706213  24.1990879
  80.3384047  56.9556213  25.0240879  81.6804047  56.4226213  22.9100879
  84.1944047  56.5466213  24.0200879 102.5994047  76.6786213  93.0840879
 102.9154047  77.5466213  92.1890879 101.7674047  78.3756213  91.7950879
 100.7204047  77.7986213  92.6570879 101.2244047  76.8046213  93.4070879
 103.2304047  76.0016213  93.5040879 103.9094047  77.6566213  91.7710879
 101.5434047  78.2546213  90.8180879 101.9244047  79.3486213  92.0120879
  99.7174047  78.1976213  92.6100879 100.7594047  76.1646213  94.1420879
 103.5544047  74.7746213  98.3890879 102.5614047  75.0486213  97.6180879
 102.9904047  75.7326213  96.3900879 104.4444047  75.7946213  96.6190879
 104.7594047  75.2276213  97.7960879 103.4964047  74.3046213  99.2880879
 101.5294047  74.8056213  97.8440879 102.5904047  76.6586213  96.3260879
 102.7714047  75.1876213  95.5690879 105.0774047  76.2546213  95.8750879
 105.7124047  75.0926213  98.2850879  51.2064047  95.3126213  79.1220879
  52.0664047  96.1306213  79.6170879  51.9924047  96.1856213  81.0840879
  50.9034047  95.2236213  81.3270879  50.4534047  94.7196213  80.1660879
  51.0774047  95.1126213  78.1330879  52.7654047  96.7116213  79.0270879
  51.7414047  97.1096213  81.4050879  52.8554047  95.8776213  81.5090879
  50.5904047  95.0246213  82.3420879  49.6764047  93.9986213  79.9590879
  52.9574047 115.1916213  98.1060879  51.6954047 115.2646213  98.3460879
  51.2034047 116.6486213  98.2870879  52.4534047 117.3576213  97.9610879
  53.4724047 116.4876213  97.8580879  53.5114047 114.3386213  98.0930879
  51.0664047 114.4096213  98.5660879  50.8354047 116.9466213  99.1790879
  50.5154047 116.7636213  97.5560879  52.4364047 118.4306213  97.8420879
  54.5174047 116.6446213  97.6340879 125.6604047  45.6656213  60.0760879
 124.8954047  44.7446213  59.6060879 123.5354047  45.2366213  59.3460879
 123.6804047  46.6406213  59.7690879 124.9334047  46.8766213  60.1940879
 126.6384047  45.5536213  60.3280879 125.2124047  43.7246213  59.4210879
 122.8534047  44.7526213  59.9130879 123.3004047  45.1726213  58.3660879
 122.8304047  47.3036213  59.7020879 125.3964047  47.7756213  60.5710879
  74.8814047  94.4876213  16.7120879  74.9954047  95.7596213  16.5590879
  76.0564047  96.3236213  17.4050879  76.5294047  95.1026213  18.0800879
  75.8304047  94.0336213  17.6620879  74.2164047  93.8886213  16.2300879
  74.3834047  96.3496213  15.8860879  75.6834047  96.9876213  18.0690879
  76.7884047  96.7416213  16.8490879  77.3364047  95.1726213  18.7950879
  75.8994047  92.9906213  17.9330879 121.9284047  43.9156213  97.5230879
 121.0594047  43.9746213  96.5760879 121.6784047  43.8336213  95.2510879
 123.0924047  43.6826213  95.6370879 123.2214047  43.7316213  96.9740879
 121.7284047  43.9876213  98.5170879 119.9954047  44.1096213  96.7330879
 121.5394047  44.6626213  94.6900879 121.3404047  43.0126213  94.7710879
 123.8404047  43.5536213  94.8680879 124.0944047  43.6566213  97.6050879
  73.7864047  48.2466213 127.7470879  74.6074047  48.5336213 126.7990879
  74.7394047  49.9836213 126.6040879  73.8164047  50.4726213 127.6440879
  73.2664047  49.4406213 128.3060879  73.5404047  47.3096213 128.0560879
  75.1414047  47.7956213 126.2110879  74.4314047  50.2616213 125.6830879
  75.6844047  50.2946213 126.7780879  73.6784047  51.5356213 127.7710879
  72.5564047  49.4166213 129.1190879 106.1604047  46.4536213  35.8700879
 105.7504047  47.0476213  36.9350879 105.4164047  46.0946213  38.0030879
 105.7224047  44.8236213  37.3240879 106.1584047  45.0516213  36.0730879
 106.4464047  46.9106213  35.0080879 105.6614047  48.1226213  37.0370879
 104.4404047  46.1506213  38.2530879 106.0054047  46.2276213  38.8130879
 105.5794047  43.8926213  37.8540879 106.4704047  44.3696213  35.2960879
  30.7024047  46.0376213  59.9790879  31.7194047  45.4616213  60.5180879
  32.6994047  46.4336213  61.0230879  32.0294047  47.6946213  60.6590879
  30.8594047  47.4446213  60.0480879  29.9034047  45.5666213  59.5650879
  31.8414047  44.3876213  60.5940879  33.5864047  46.3406213  60.5500879
  32.8134047  46.3556213  62.0240879  32.5044047  48.6346213  60.8990879
  30.1104047  48.1136213  59.6490879  50.7034047  30.2306213  53.0920879
  49.5854047  30.8246213  53.3170879  49.7714047  32.2496213  53.6260879
  51.2384047  32.3486213  53.5310879  51.7704047  31.1546213  53.2170879
  50.8174047  29.2476213  52.8590879  48.6174047  30.3376213  53.2830879
  49.4494047  32.4696213  54.5580879  49.3194047  32.8376213  52.9400879
  51.7174047  33.3006213  53.7090879  52.7964047  30.8536213  53.0660879
 116.1784047  76.3556213 109.3610879 115.1534047  75.5856213 109.2490879
 113.8934047  76.3416213 109.2610879 114.4124047  77.7136213 109.4050879
 115.7544047  77.7036213 109.4610879 117.1494047  76.0536213 109.3760879
 115.2084047  74.5066213 109.1560879 113.3174047  76.0846213 110.0500879
 113.3884047  76.2306213 108.3930879 113.7174047  78.5396213 109.4470879
 116.4654047  78.5106213 109.5630879  47.0614047  23.9546213  71.7870879
  48.0404047  24.7146213  71.4450879  47.8944047  26.0756213  71.9800879
  46.6194047  25.9366213  72.7050879  46.1434047  24.6856213  72.5820879
  46.9514047  22.9766213  71.5330879  48.8774047  24.3936213  70.8350879
  47.8204047  26.7566213  71.2390879  48.6494047  26.3076213  72.6100879
  46.2134047  26.7886213  73.2300879  45.2474047  24.2256213  72.9730879
 100.2594047 126.6486213  62.7110879  99.6604047 126.7806213  63.8430879
  98.6824047 127.8766213  63.8250879  98.8474047 128.3506213  62.4390879
  99.7754047 127.6196213  61.7990879 100.9724047 125.9576213  62.4930879
  99.8514047 126.1566213  64.7090879  98.9264047 128.5976213  64.4890879
  97.7454047 127.5376213  63.9870879  98.2504047 129.1806213  62.0900879
 100.1514047 127.6786213  60.7890879 112.4964047 117.8786213  64.5150879
 111.9004047 118.4826213  63.5480879 110.6214047 117.8456213  63.2060879
 110.6074047 116.7436213  64.1840879 111.7144047 116.7776213  64.9450879
 113.3914047 118.1426213  64.9180879 112.2914047 119.3586213  63.0430879
 110.6264047 117.4946213  62.2600879 109.8454047 118.4756213  63.3530879
 109.7704047 116.0606213  64.2000879 112.0404047 116.1386213  65.7520879
 123.2704047  42.6506213  88.0180879 123.5174047  43.0216213  86.8110879
 124.5144047  44.0996213  86.7600879 124.7884047  44.2716213  88.1970879
 124.0514047  43.4136213  88.9220879 122.6174047  41.9216213  88.2940879
 123.0494047  42.5906213  85.9330879 124.1264047  44.9406213  86.3580879
 125.3444047  43.8116213  86.2610879 125.5054047  45.0156213  88.5140879
 123.9904047  43.2556213  89.9880879  43.7564047  63.7316213  38.8440879
  43.9844047  62.4856213  39.0690879  45.4114047  62.2206213  39.3030879
  45.9564047  63.5826213  39.1630879  44.9724047  64.4566213  38.8950879
  42.8454047  64.1436213  38.6580879  43.2184047  61.7186213  39.0860879
  45.7904047  61.6016213  38.6000879  45.5714047  61.8556213  40.2310879
  47.0184047  63.7416213  39.2820879  44.9974047  65.5246213  38.7330879
 108.2544047  59.2976213  55.0950879 109.2224047  59.0656213  54.2800879
 109.6214047  57.6506213  54.2880879 108.6744047  57.1176213  55.2840879
 107.8794047  58.0966213  55.7470879 107.8164047  60.2016213  55.2540879
 109.6904047  59.8196213  53.6580879 110.5764047  57.5396213  54.5960879
 109.4814047  57.2236213  53.3840879 108.7034047  56.0666213  55.5320879
 107.0804047  58.0776213  56.4740879 111.5604047  44.1576213 108.1210879
 111.1494047  45.3376213 108.4240879 109.9214047  45.6966213 107.7010879
 109.7124047  44.4676213 106.9150879 110.6824047  43.5746213 107.1740879
 112.3864047  43.7006213 108.4980879 111.6464047  45.9946213 109.1300879
 110.0674047  46.4946213 107.1000879 109.1534047  45.8596213 108.3370879
 108.8614047  44.4016213 106.2530879 110.8514047  42.5796213 106.7880879
  21.7644047  45.3776213  60.7070879  22.8904047  44.7576213  60.6330879
  22.7114047  43.3086213  60.4670879  21.2404047  43.2256213  60.4620879
  20.7004047  44.4476213  60.6030879  21.6454047  46.3806213  60.8220879
  23.8574047  45.2436213  60.6850879  23.1034047  42.7976213  61.2450879
  23.0984047  42.9876213  59.5910879  20.7654047  42.2616213  60.3520879
  19.6694047  44.7676213  60.6420879  55.3654047 122.4276213  68.8610879
  56.3254047 121.5716213  68.8350879  56.7004047 121.2066213  67.4620879
  55.7504047 122.0366213  66.7020879  54.9744047 122.7476213  67.5380879
  54.9434047 122.8216213  69.6980879  56.8034047 121.1646213  69.7190879
  56.5484047 120.2236213  67.2880879  57.6554047 121.4656213  67.2600879
  55.7634047 122.0016213  65.6220879  54.1794047 123.4516213  67.3410879
  21.3074047  84.9396213  47.7490879  20.5644047  85.5696213  48.5890879
  19.1544047  85.1666213  48.4880879  19.2444047  84.1696213  47.4070879
  20.5144047  84.0466213  46.9850879  22.3114047  85.0556213  47.6410879
  20.9304047  86.3096213  49.2920879  18.5684047  85.9446213  48.2200879
  18.8284047  84.7476213  49.3470879  18.3484047  83.6636213  47.0780879
  20.9504047  83.4216213  46.2210879  93.2624047  15.9306213  83.6040879
  93.8494047  16.2916213  82.5170879  93.2644047  17.5186213  81.9580879
  92.2134047  17.7866213  82.9560879  92.2264047  16.8456213  83.9150879
  93.4984047  15.1146213  84.1630879  94.6774047  15.7586213  82.0650879
  92.8674047  17.3536213  81.0440879  93.9404047  18.2686213  81.9280879
  91.5774047  18.6506213  82.8350879  91.6104047  16.7196213  84.7930879
  45.1974047  90.5536213 112.2330879  44.9134047  91.4046213 113.1550879
  44.1654047  92.5556213 112.6300879  44.0804047  92.1846213 111.2060879
  44.6904047  91.0076213 110.9900879  45.7074047  89.6836213 112.3650879
  45.1894047  91.2906213 114.1970879  44.6794047  93.4156213 112.7530879
  43.2474047  92.6206213 113.0470879  43.5724047  92.8446213 110.5180879
  44.8234047  90.4336213 110.0860879  44.7454047 101.3486213  63.4540879
  44.4174047 100.9986213  62.2600879  45.2424047  99.8866213  61.7660879
  46.1174047  99.6716213  62.9320879  45.8124047 100.5366213  63.9140879
  44.3114047 102.0916213  63.9950879  43.6274047 101.4646213  61.6830879
  45.7774047 100.1586213  60.9530879  44.6824047  99.0696213  61.5730879
  46.8674047  98.8946213  62.8940879  46.2354047 100.6706213  64.8980879
  49.9814047 112.8026213  89.2360879  49.8004047 113.6876213  90.1510879
  48.4914047 113.5476213  90.8030879  47.9544047 112.3906213  90.0650879
  48.8414047 111.9646213  89.1490879  50.8114047 112.7086213  88.6570879
  50.5264047 114.4486213  90.4150879  47.9194047 114.3676213  90.6610879
  48.5884047 113.3406213  91.7860879  46.9714047 112.0166213  90.3090879
  48.7934047 111.1536213  88.4380879  49.5404047  52.3906213 118.5750879
  50.2034047  53.4106213 118.1550879  50.9294047  53.1196213 116.9110879
  50.5434047  51.7126213 116.7040879  49.7274047  51.3006213 117.6890879
  48.9664047  52.3606213 119.4140879  50.2254047  54.3716213 118.6550879
  51.9274047  53.2106213 117.0370879  50.6074047  53.7026213 116.1510879
  50.9214047  51.1816213 115.8430879  49.2534047  50.3466213 117.8650879
  46.5414047  85.3046213  27.0450879  46.7434047  86.5566213  26.8270879
  47.6624047  87.1456213  27.8110879  47.9454047  85.9646213  28.6450879
  47.2804047  84.8926213  28.1820879  45.9444047  84.6946213  26.4930879
  46.2934047  87.1136213  26.0140879  47.2104047  87.8716213  28.3480879
  48.5024047  87.4916213  27.3700879  48.6134047  86.0596213  29.4880879
  47.2474047  83.8716213  28.5340879 100.4974047 118.3026213 111.8960879
 100.0204047 117.1126213 111.7890879 100.4454047 116.4576213 110.5440879
 101.2694047 117.5276213 109.9540879 101.2904047 118.6026213 110.7600879
 100.3374047 118.9396213 112.6720879  99.3814047 116.6436213 112.5280879
  99.6544047 116.2396213 109.9550879 100.9954047 115.6316213 110.7310879
 101.7474047 117.3616213 109.0000879 101.7844047 119.5576213 110.6560879
  45.7164047 109.7776213  39.7180879  46.4914047 108.8656213  40.1900879
  47.8534047 109.3666213  40.4230879  47.6964047 110.7636213  39.9830879
  46.4364047 110.9886213  39.5730879  44.7344047 109.6586213  39.4820879
  46.1804047 107.8466213  40.3940879  48.5274047 108.8766213  39.8520879
  48.1024047 109.3156213  41.4000879  48.5454047 111.4306213  40.0270879
  45.9644047 111.8816213  39.1900879  82.9494047 131.2496213  57.4600879
  84.1164047 130.7376213  57.2840879  85.1114047 131.3076213  58.2040879
  84.2664047 132.2586213  58.9470879  83.0004047 132.2116213  58.4990879
  82.1104047 131.0076213  56.9390879  84.3434047 129.9756213  56.5480879
  85.8454047 131.7856213  57.7010879  85.4934047 130.6016213  58.8160879
  84.7084047 132.8616213  59.7270879  82.1204047 132.7586213  58.8020879
  79.6054047 132.6906213  98.5000879  80.6234047 133.0186213  97.7840879
  81.3644047 131.8426213  97.3090879  80.5564047 130.7646213  97.9060879
  79.5274047 131.2796213  98.6000879  78.9504047 133.3366213  98.9320879
  80.9034047 134.0406213  97.5550879  82.3084047 131.8326213  97.6680879
  81.3614047 131.7876213  96.3000879  80.8424047 129.7366213  97.7410879
  78.7394047 130.7986213  99.1620879  86.5854047  36.9196213 119.4520879
  85.7804047  36.1536213 120.1000879  85.6624047  34.8266213 119.4800879
  86.5734047  34.9916213 118.3340879  87.1074047  36.2246213 118.3320879
  86.8204047  37.8776213 119.6960879  85.2494047  36.4486213 120.9980879
  84.7174047  34.6466213 119.1730879  85.9844047  34.0996213 120.1020879
  86.7194047  34.1676213 117.6510879  87.8064047  36.6936213 117.6550879
  80.5334047 109.6086213 114.6650879  80.0324047 109.4886213 115.8440879
  80.2584047 108.1486213 116.4040879  80.9974047 107.5216213 115.2940879
  81.1514047 108.3926213 114.2820879  80.4984047 110.4446213 114.0880879
  79.5064047 110.2786213 116.3670879  79.3864047 107.6706213 116.5790879
  80.8224047 108.1896213 117.2420879  81.3254047 106.4966213 115.3880879
  81.6334047 108.2846213 113.3210879  39.8144047 118.8066213  66.7100879
  38.5484047 118.7886213  66.9350879  37.8444047 119.8586213  66.2150879
  38.9784047 120.4986213  65.5250879  40.1274047 119.8686213  65.8260879
  40.4964047 118.1616213  67.1000879  38.0534047 118.0696213  67.5790879
  37.3964047 120.4996213  66.8540879  37.1794047 119.4836213  65.5540879
  38.7974047 121.3516213  64.8880879  41.1424047 120.0566213  65.5090879
  96.8274047  64.4776213  84.5840879  98.1014047  64.3026213  84.5720879
  98.8294047  65.5666213  84.3940879  97.7004047  66.5086213  84.3040879
  96.5324047  65.8536213  84.4190879  96.1284047  63.7476213  84.6960879
  98.5854047  63.3386213  84.6820879  99.3704047  65.5626213  83.5410879
  99.4144047  65.7706213  85.1910879  97.8994047  67.5616213  84.1670879
  95.5134047  66.2116213  84.4010879  59.5904047  43.5266213 106.1420879
  59.4794047  44.7726213 105.8400879  58.0794047  45.2176213 105.8410879
  57.4054047  43.9596213 106.2080879  58.3064047  42.9776213 106.3810879
  60.4604047  43.0056213 106.2030879  60.3174047  45.4206213 105.6120879
  57.7924047  45.5316213 104.9250879  57.9204047  45.9336213 106.5350879
  56.3284047  43.9426213 106.2980879  58.1804047  41.9386213 106.6510879
  66.9564047  26.6626213  76.7050879  68.1504047  27.0666213  76.9610879
  69.1104047  26.6296213  75.9380879  68.2134047  25.8866213  75.0370879
  66.9524047  25.9156213  75.5010879  66.1324047  26.8456213  77.2720879
  68.4204047  27.6596213  77.8270879  69.8174047  26.0246213  76.3320879
  69.5314047  27.4186213  75.4670879  68.6204047  25.4206213  74.1510879
  66.0424047  25.4856213  75.1090879 103.9564047  81.3736213 121.6540879
 102.9424047  82.1656213 121.6530879 103.1984047  83.3896213 122.4260879
 104.5784047  83.1316213 122.8740879 105.0084047  81.9446213 122.4130879
 104.0064047  80.4726213 121.1860879 102.0084047  81.9596213 121.1420879
 102.5674047  83.4676213 123.2100879 103.1514047  84.2116213 121.8410879
 105.0814047  83.8656213 123.4870879 105.9514047  81.4346213 122.5380879
  37.3944047  41.3786213  96.7430879  37.0454047  42.5396213  97.1760879
  36.7334047  42.5196213  98.6120879  36.9764047  41.0986213  98.9140879
  37.3634047  40.4426213  97.8060879  37.6544047  41.1556213  95.7860879
  36.9884047  43.4286213  96.5590879  35.7704047  42.7706213  98.7830879
  37.3594047  43.1166213  99.1340879  36.8324047  40.7396213  99.9230879
  37.6244047  39.4066213  97.6510879  19.8184047  90.3076213  49.1210879
  18.6314047  90.7976213  49.0430879  18.6014047  92.0476213  48.2700879
  20.0274047  92.1736213  47.9200879  20.7274047  91.1446213  48.4260879
  20.0774047  89.4516213  49.6040879  17.7544047  90.3456213  49.4910879
  18.2944047  92.8246213  48.8390879  18.0284047  91.9566213  47.4440879
  20.3544047  93.0186213  47.3310879  21.7804047  90.9086213  48.3720879
  34.0014047  51.1276213  97.0570879  32.9484047  50.4636213  97.3800879
  33.2154047  49.0226213  97.4870879  34.6514047  48.9976213  97.1550879
  35.0974047  50.2406213  96.9060879  34.0534047  52.1346213  96.9270879
  31.9764047  50.9106213  97.5550879  32.6764047  48.4976213  96.8140879
  33.0514047  48.6856213  98.4250879  35.1754047  48.0536213  97.1440879
  36.0784047  50.6016213  96.6350879 110.4974047 107.4806213  50.5820879
 110.1534047 108.6266213  51.0540879 111.2604047 109.2846213  51.7630879
 112.3164047 108.2706213  51.5990879 111.8524047 107.2186213  50.9030879
 109.8964047 106.8506213  50.0570879 109.1664047 109.0606213  50.9440879
 111.0394047 109.4276213  52.7380879 111.5164047 110.1556213  51.3190879
 113.2944047 108.4516213  52.0200879 112.3354047 106.3026213  50.5960879
  47.9304047 101.2406213  22.6790879  47.9004047 101.2306213  23.9650879
  49.2084047 101.5606213  24.5480879  49.9984047 101.7636213  23.3210879
  49.2334047 101.5726213  22.2330879  47.1444047 101.0436213  22.0650879
  47.0184047 101.0066213  24.5530879  49.5724047 100.7936213  25.0950879
  49.1634047 102.4066213  25.0990879  51.0434047 102.0286213  23.4020879
  49.4694047 101.6346213  21.1810879  95.4324047  69.2386213 111.6880879
  95.2014047  68.4036213 112.6400879  96.4094047  68.1146213 113.4240879
  97.3884047  68.9626213 112.7200879  96.7984047  69.6156213 111.7040879
  94.7474047  69.5826213 111.0210879  94.2314047  67.9646213 112.8430879
  96.6624047  67.1386213 113.3650879  96.3024047  68.4026213 114.3860879
  98.4134047  68.9806213 113.0590879  97.1974047  70.3126213 110.9820879
 135.1924047  86.7456213  68.9890879 134.0764047  86.1056213  69.0100879
 134.2754047  84.6496213  69.0030879 135.7474047  84.5876213  68.9730879
 136.2694047  85.8256213  68.9660879 135.2974047  87.7566213  68.9900879
 133.1014047  86.5806213  69.0310879 133.8754047  84.2276213  68.1770879
 133.9084047  84.2236213  69.8410879 136.2354047  83.6236213  68.9610879
 137.2954047  86.1616213  68.9460879  29.6274047  93.1286213  97.5730879
  30.7824047  92.6256213  97.3100879  30.7564047  91.7916213  96.1000879
  29.3374047  91.9216213  95.7230879  28.6894047  92.7096213  96.5970879
  29.4094047  93.7356213  98.3590879  31.6714047  92.7956213  97.9060879
  30.9934047  90.8326213  96.3090879  31.3614047  92.1646213  95.3820879
  28.9754047  91.4096213  94.8430879  27.6574047  93.0236213  96.6390879
  33.1604047  56.7466213  64.1220879  33.4114047  58.0076213  64.1250879
  32.1934047  58.8116213  64.2990879  31.1854047  57.7406213  64.3950879
  31.7694047  56.5356213  64.2900879  33.8474047  56.0046213  64.0170879
  34.4024047  58.4326213  64.0150879  32.0244047  59.4016213  63.4970879
  32.2294047  59.3566213  65.1480879  30.1464047  58.0036213  64.5310879
  31.3504047  55.5396213  64.3150879  61.8434047  82.8256213  14.9670879
  62.6274047  82.8846213  13.9490879  63.8934047  83.5596213  14.2670879
  63.6704047  83.8776213  15.6890879  62.4624047  83.4396213  16.0840879
  60.9184047  82.4036213  14.9810879  62.3874047  82.4836213  12.9710879
  64.0114047  84.3986213  13.7190879  64.6824047  82.9386213  14.1510879
  64.4404047  84.3946213  16.2420879  61.9674047  83.4956213  17.0420879
  18.1234047  89.1946213  71.7230879  19.3634047  89.1986213  71.3800879
  19.7334047  90.4286213  70.6650879  18.4384047  91.1326213  70.6690879
  17.5054047  90.3956213  71.2950879  17.6494047  88.4496213  72.2260879
  20.0574047  88.3926213  71.5910879  20.0374047  90.2286213  69.7230879
  20.4354047  90.9506213  71.1680879  18.3644047  92.1046213  70.2050879
  16.4604047  90.5886213  71.4860879  98.0634047  59.5876213 103.3510879
  97.2424047  60.4086213 103.9050879  97.7194047  61.7976213 103.8340879
  98.9934047  61.5996213 103.1200879  99.1804047  60.2976213 102.8430879
  97.9404047  58.5816213 103.2810879  96.3084047  60.1156213 104.3690879
  97.8734047  62.1816213 104.7550879  97.0874047  62.3776213 103.3010879
  99.6144047  62.4556213 102.9000879  99.9874047  59.7886213 102.3380879
 100.0714047  41.8366213  37.9650879 101.2984047  41.4496213  37.9730879
 101.4314047  40.0496213  38.4010879 100.0164047  39.7136213  38.6390879
  99.2314047  40.7726213  38.3780879  99.7424047  42.7626213  37.7030879
 102.1374047  42.0776213  37.6970879 101.9724047  39.9746213  39.2500879
 101.8254047  39.4766213  37.6690879  99.7584047  38.7206213  38.9750879
  98.1604047  40.8936213  38.4390879 114.8384047  83.4716213  89.5070879
 115.5654047  83.7786213  88.4920879 116.9274047  83.2396213  88.6060879
 116.8294047  82.5546213  89.9080879 115.5964047  82.7006213  90.4220879
 113.8654047  83.7356213  89.6430879 115.2194047  84.3656213  87.6480879
 117.6154047  83.9786213  88.6340879 117.1294047  82.5856213  87.8630879
 117.6924047  82.0366213  90.2990879 115.1664047  82.3396213  91.3450879
 110.8814047  50.3586213  79.9070879 109.8354047  50.1696213  80.6320879
 110.1514047  49.4666213  81.8830879 111.6054047  49.2906213  81.7240879
 112.0184047  49.8206213  80.5600879 110.9014047  50.8236213  79.0030879
 108.8364047  50.4896213  80.3560879 109.6794047  48.5746213  81.9340879
 109.9374047  50.0346213  82.6900879 112.1664047  48.7896213  82.5000879
 113.0004047  49.8766213  80.1150879 107.4634047  34.2506213  84.1530879
 106.8274047  33.8256213  85.1880879 107.5654047  32.7686213  85.8930879
 108.7644047  32.6746213  85.0410879 108.6894047  33.5506213  84.0250879
 107.1454047  34.9766213  83.5170879 105.8614047  34.2016213  85.5060879
 107.0504047  31.9006213  85.8970879 107.8064047  33.0506213  86.8330879
 109.5374047  31.9626213  85.2930879 109.3734047  33.7586213  83.2160879
  42.5554047  46.4486213  32.3810879  41.4274047  45.8546213  32.5530879
  41.5634047  44.3916213  32.5130879  43.0134047  44.2696213  32.2780879
  43.5804047  45.4856213  32.2040879  42.7014047  47.4546213  32.3710879
  40.4864047  46.3676213  32.7120879  41.0354047  43.9936213  31.7490879
  41.2984047  43.9716213  33.3920879  43.4554047  43.2876213  32.1950879
  44.6074047  45.7806213  32.0440879  51.2184047  75.8136213 129.1850879
  50.6204047  76.9506213 129.1230879  51.5394047  78.0706213 129.3720879
  52.7964047  77.3336213 129.5920879  52.5914047  76.0106213 129.4780879
  50.7834047  74.9056213 129.0470879  49.5644047  77.0736213 128.9120879
  51.2714047  78.5896213 130.1960879  51.6064047  78.6776213 128.5680879
  53.7014047  77.8836213 129.8070879  53.2714047  75.1766213 129.5730879
  39.6104047  53.9146213  85.7250879  40.6694047  54.6436213  85.7860879
  41.8814047  53.8386213  85.9910879  41.2934047  52.4876213  86.0370879
  39.9604047  52.5496213  85.8780879  38.6624047  54.2546213  85.5880879
  40.6714047  55.7236213  85.6950879  42.3334047  54.0696213  86.8640879
  42.5224047  53.9326213  85.2160879  41.9394047  51.6346213  86.1810879
  39.2114047  51.7716213  85.8570879  42.7984047  64.2376213 110.6360879
  41.5294047  64.0576213 110.5210879  41.2044047  63.0706213 109.4810879
  42.5594047  62.7206213 109.0210879  43.4834047  63.4126213 109.7090879
  43.2514047  64.8706213 111.2890879  40.7844047  64.5706213 111.1190879
  40.6614047  63.4856213 108.7380879  40.7314047  62.2676213 109.8700879
  42.6784047  61.9916213 108.2320879  44.5614047  63.4146213 109.6440879
  38.0504047 105.5596213  31.6140879  37.8124047 105.4326213  32.8720879
  38.0524047 104.0616213  33.3420879  38.4784047 103.4246213  32.0840879
  38.4724047 104.3176213  31.0800879  37.9534047 106.4166213  31.0750879
  37.4764047 106.2396213  33.5140879  37.2054047 103.6406213  33.6960879
  38.7874047 104.0316213  34.0340879  38.7394047 102.3756213  32.0830879
  38.7224047 104.2116213  30.0340879  46.7304047  97.5536213  35.7560879
  45.6414047  98.1826213  35.4840879  45.6764047  99.5726213  35.9570879
  47.0194047  99.6106213  36.5620879  47.6254047  98.4176213  36.4350879
  46.9304047  96.5836213  35.5240879  44.7974047  97.7426213  34.9660879
  44.9594047  99.7446213  36.6480879  45.6014047 100.2256213  35.1900879
  47.3684047 100.5256213  37.0170879  48.6004047  98.0806213  36.7530879
  95.1214047 120.8586213  73.0570879  96.3474047 120.7336213  72.6900879
  96.9044047 119.4266213  73.0650879  95.7354047 118.8246213  73.7300879
  94.6964047 119.6776213  73.7160879  94.5354047 121.6756213  72.9040879
  96.9074047 121.4986213  72.1640879  97.6784047 119.5266213  73.7070879
  97.1774047 118.8946213  72.2510879  95.8124047 117.8266213  74.1360879
  93.6934047 119.5806213  74.1030879  76.8684047  77.8196213 124.2750879
  76.7564047  76.8226213 125.0800879  76.3654047  77.2466213 126.4310879
  76.2774047  78.7036213 126.2330879  76.5744047  79.0236213 124.9620879
  77.1274047  77.7646213 123.2930879  76.9284047  75.7896213 124.7980879
  77.0764047  77.0126213 127.1100879  75.4714047  76.8586213 126.6950879
  76.0004047  79.3356213 127.0650879  76.6114047  79.9806213 124.4610879
 100.8734047  32.4236213  48.6620879 100.5504047  33.3686213  49.4730879
 101.6584047  34.3096213  49.6920879 102.6904047  33.7016213  48.8330879
 102.2144047  32.5966213  48.2360879 100.2674047  31.6636213  48.3650879
  99.5774047  33.4646213  49.9410879 101.9474047  34.3186213  50.6600879
 101.4214047  35.2386213  49.3770879 103.6634047  34.1666213  48.7660879
 102.6784047  31.9056213  47.5480879 116.4614047  69.5766213  46.3810879
 115.7444047  69.8906213  47.4020879 114.7134047  68.8816213  47.6830879
 114.9904047  67.9176213  46.6040879 116.0184047  68.3396213  45.8490879
 117.2304047  70.1236213  46.0050879 115.8814047  70.7916213  47.9890879
 113.7854047  69.2696213  47.5980879 114.8474047  68.4616213  48.5920879
 114.3864047  67.0246213  46.5240879 116.4924047  67.8986213  44.9850879
 126.1904047  46.8756213  81.8330879 125.2884047  46.7106213  80.9310879
 124.8884047  47.9816213  80.3130879 125.7524047  48.9166213  81.0540879
 126.5114047  48.2516213  81.9420879 126.6154047  46.1386213  82.3900879
 124.8714047  45.7486213  80.6550879 123.9114047  48.1796213  80.4770879
 125.0984047  47.9936213  79.3250879 125.7024047  49.9726213  80.8320879
 127.2504047  48.6026213  82.6470879  86.9494047 131.1706213  55.0460879
  87.7374047 132.1606213  55.2770879  87.2654047 133.3996213  54.6420879
  86.0354047 132.9096213  53.9940879  85.8644047 131.6006213  54.2420879
  87.0754047 130.2196213  55.3840879  88.6424047 132.0946213  55.8700879
  87.9284047 133.7386213  53.9600879  87.0594047 134.1106213  55.3290879
  85.4284047 133.5976213  53.4240879  85.0874047 130.9166213  53.9340879
  35.5634047  61.6986213 104.1340879  34.5274047  61.7796213 103.3750879
  34.8914047  61.9086213 101.9580879  36.3614047  61.8866213 102.0620879
  36.7384047  61.7616213 103.3460879  35.5514047  61.6036213 105.1460879
  33.5044047  61.7536213 103.7350879  34.5664047  62.7836213 101.5720879
  34.5514047  61.1266213 101.4170879  36.9564047  61.9646213 101.1640879
  37.7194047  61.7106213 103.7950879  78.3704047  88.5026213  15.1920879
  79.3624047  87.6946213  15.3310879  78.9754047  86.2996213  15.0790879
  77.5464047  86.4766213  14.7650879  77.2084047  87.7756213  14.8350879
  78.4044047  89.5116213  15.3160879  80.3664047  88.0026213  15.6010879
  79.1004047  85.7286213  15.9020879  79.4774047  85.9146213  14.2920879
  76.9464047  85.6116213  14.5230879  76.2634047  88.2716213  14.6700879
 103.9324047  58.9996213  69.2240879 104.3464047  59.4816213  68.1060879
 105.6174047  60.2036213  68.2540879 105.8474047  60.0346213  69.6990879
 104.8504047  59.3246213  70.2540879 103.0794047  58.4646213  69.3610879
 103.8224047  59.3706213  67.1630879 105.5174047  61.1786213  68.0110879
 106.3524047  59.7706213  67.7130879 106.7324047  60.4626213  70.1480879
 104.6854047  59.0106213  71.2740879  22.5454047  52.3816213  80.5400879
  22.7664047  53.5396213  80.0240879  21.6634047  54.4766213  80.2800879
  20.7574047  53.6086213  81.0540879  21.2904047  52.3836213  81.1980879
  23.1694047  51.5806213  80.4890879  23.6594047  53.7986213  79.4670879
  21.2314047  54.7796213  79.4190879  21.9704047  55.2666213  80.8290879
  19.8184047  54.0076213  81.4090879  20.9174047  51.5016213  81.6980879
  49.8004047  96.9016213  61.5760879  49.0424047  95.8656213  61.4890879
  49.6524047  94.6826213  62.1110879  50.9264047  95.2586213  62.5750879
  50.9974047  96.5616213  62.2540879  49.5834047  97.8276213  61.2170879
  48.0674047  95.8616213  61.0150879  49.8084047  93.9496213  61.4340879
  49.0994047  94.3466213  62.8860879  51.6344047  94.6286213  63.0940879
  51.7704047  97.2946213  62.4310879 109.2104047 110.4816213  64.7550879
 108.0744047 109.8886213  64.6480879 108.2214047 108.4306213  64.5430879
 109.6884047 108.3096213  64.6110879 110.2534047 109.5226213  64.7360879
 109.3514047 111.4846213  64.8400879 107.1184047 110.4006213  64.6370879
 107.8674047 108.0876213  63.6620879 107.7794047 107.9586213  65.3190879
 110.1414047 107.3306213  64.5600879 111.2894047 109.8176213  64.8150879
 102.4104047  78.6436213 117.7540879 101.5034047  78.3876213 118.6300879
 100.2014047  78.9596213 118.2580879 100.5544047  79.6016213 116.9790879
 101.8534047  79.4056213 116.6980879 103.3814047  78.3476213 117.8020879
 101.6734047  77.8166213 119.5350879  99.8924047  79.6416213 118.9360879
  99.5064047  78.2396213 118.1260879  99.7924047  80.1306213 116.4250879
 102.4534047  79.7256213 115.8580879 130.5304047  77.9796213  54.8730879
 129.2674047  77.7756213  54.7390879 128.9604047  76.9916213  53.5340879
 130.3194047  76.7886213  53.0020879 131.2294047  77.3736213  53.7990879
 130.9714047  78.4956213  55.6300879 128.5144047  78.1366213  55.4310879
 128.3904047  77.5186213  52.8880879 128.5234047  76.1116213  53.7680879
 130.4514047  76.2286213  52.0880879 132.3044047  77.4306213  53.7260879
  98.3134047  79.0326213  59.1170879  97.1744047  78.4696213  58.9150879
  96.0574047  79.4096213  59.0850879  96.7984047  80.6366213  59.4310879
  98.1204047  80.3976213  59.4440879  99.2204047  78.5766213  59.0540879
  97.0484047  77.4266213  58.6480879  95.4494047  79.1256213  59.8400879
  95.5384047  79.5256213  58.2270879  96.2514047  81.5476213  59.6260879
  98.9564047  81.0496213  59.6520879  61.7984047  98.2086213 131.5510879
  61.1284047  98.8716213 130.6760879  61.9034047  99.9886213 130.1180879
  63.1664047  99.8266213 130.8610879  63.0884047  98.7776213 131.6970879
  61.4644047  97.3976213 132.0650879  60.1114047  98.6376213 130.3810879
  61.4704047 100.8766213 130.3240879  62.0474047  99.8776213 129.1240879
  63.9794047 100.5146213 130.6780879  63.8094047  98.3656213 132.3870879
 106.6664047  85.3276213  35.0970879 106.4274047  84.9736213  36.3100879
 107.2354047  83.8146213  36.7150879 107.9914047  83.5756213  35.4730879
 107.6464047  84.4726213  34.5330879 106.2264047  86.1016213  34.6060879
 105.7164047  85.4696213  36.9610879 106.6534047  83.0226213  36.9460879
 107.8534047  84.0446213  37.4800879 108.7024047  82.7636213  35.4340879
 107.9884047  84.6026213  33.5170879  66.7504047  88.9136213 128.3700879
  67.3364047  87.8976213 127.8410879  66.4044047  86.7876213 127.6000879
  65.1544047  87.3806213 128.1060879  65.3744047  88.6286213 128.5540879
  67.1954047  89.7916213 128.6220879  68.3924047  87.8616213 127.5980879
  66.6624047  85.9686213 128.1330879  66.3344047  86.5706213 126.6160879
  64.2424047  86.8026213 128.0730879  64.7024047  89.3556213 128.9870879
  94.0854047  46.9306213 114.7070879  92.8254047  46.6756213 114.7510879
  92.1374047  47.0846213 113.5190879  93.2724047  47.6316213 112.7550879
  94.4084047  47.5326213 113.4660879  94.7574047  46.7346213 115.4450879
  92.3264047  46.2126213 115.5950879  91.4444047  47.7956213 113.7030879
  91.7254047  46.2926213 113.0460879  93.1014047  48.0306213 111.7650879
  95.4204047  47.8256213 113.2290879 109.7454047  44.5886213  78.2620879
 110.6414047  45.3136213  78.8330879 111.9914047  44.7556213  78.6640879
 111.6794047  43.5536213  77.8720879 110.3574047  43.4706213  77.6440879
 108.7474047  44.7806213  78.2480879 110.4314047  46.2276213  79.3760879
 112.4024047  44.5116213  79.5530879 112.5884047  45.3876213  78.1500879
 112.4824047  42.8976213  77.5680879 109.7754047  42.7356213  77.1070879
 120.4224047  54.2736213  93.5950879 120.7764047  55.5096213  93.5450879
 119.7264047  56.4046213  94.0490879 118.6894047  55.4196213  94.4010879
 119.1134047  54.1736213  94.1300879 120.9864047  53.4816213  93.3010879
 121.7354047  55.8536213  93.1750879 119.4024047  57.0346213  93.3290879
 120.0374047  56.9156213  94.8630879 117.7524047  55.7626213  94.8160879
 118.6294047  53.2166213  94.2560879 117.8514047  56.2136213 109.3270879
 117.9334047  55.3236213 108.4010879 117.2434047  54.0796213 108.7700879
 116.7464047  54.4436213 110.1090879 117.1104047  55.6986213 110.4200879
 118.2514047  57.1466213 109.2910879 118.4484047  55.4706213 107.4590879
 117.8864047  53.3026213 108.8180879 116.4814047  53.8796213 108.1380879
 116.1754047  53.7216213 110.6750879 116.9274047  56.2916213 111.3040879
 114.7554047  83.2066213 103.0890879 115.7524047  83.5806213 103.8110879
 115.3884047  83.7066213 105.2300879 113.9664047  83.3256213 105.1700879
 113.6114047  83.0346213 103.9070879 114.7744047  83.0536213 102.0840879
 116.7454047  83.7786213 103.4240879 115.4984047  84.6566213 105.5540879
 115.9154047  83.0656213 105.8040879 113.3824047  83.3156213 106.0790879
 112.6644047  82.7216213 103.4910879 112.3574047  63.1696213  26.1210879
 113.1874047  63.9926213  26.6570879 112.8184047  64.3236213  28.0410879
 111.5954047  63.5146213  28.1860879 111.3394047  62.8426213  27.0510879
 112.4134047  62.8016213  25.1740879 114.0584047  64.3956213  26.1530879
 112.6184047  65.3086213  28.1420879 113.5314047  64.0306213  28.6930879
 111.0574047  63.5326213  29.1220879 110.5414047  62.1626213  26.7940879
  53.5274047  65.7186213  43.6640879  53.9194047  66.9166213  43.9200879
  52.7904047  67.8426213  44.0830879  51.6624047  66.9206213  43.8640879
  52.1114047  65.6776213  43.6200879  54.1324047  64.9146213  43.5140879
  54.9584047  67.2116213  44.0080879  52.8084047  68.5706213  43.3830879
  52.7664047  68.2356213  45.0130879  50.6514047  67.2996213  43.9170879
  51.5814047  64.7596213  43.4180879  51.3974047 107.7356213  86.9120879
  51.8174047 106.5316213  86.7420879  52.5034047 106.3646213  85.4540879
  52.3884047 107.7316213  84.9160879  51.7374047 108.5236213  85.7850879
  50.8974047 108.0806213  87.7270879  51.6834047 105.7326213  87.4620879
  52.0234047 105.6986213  84.8650879  53.4704047 106.1016213  85.5820879
  52.8074047 107.9556213  83.9460879  51.4734047 109.5696213  85.7300879
  24.4104047  70.1086213 105.1780879  24.3034047  68.9656213 104.5970879
  22.9164047  68.6746213 104.2060879  22.2464047  69.8956213 104.6880879
  23.1374047  70.7276213 105.2550879  25.2714047  70.5166213 105.5320879
  25.1344047  68.2946213 104.4150879  22.5654047  67.8546213 104.6800879
  22.8284047  68.5796213 103.2050879  21.1804047  70.0036213 104.5500879
  23.0104047  71.6986213 105.7100879  86.2204047  64.8316213 130.4200879
  87.1144047  65.1826213 129.5640879  87.2634047  66.6426213 129.4890879
  86.2624047  67.0586213 130.4870879  85.6594047  65.9846213 131.0250879
  85.9494047  63.8766213 130.6390879  87.6914047  64.4856213 128.9660879
  87.0304047  66.9896213 128.5700879  88.1924047  66.9316213 129.7600879
  86.1164047  68.1116213 130.6820879  84.8874047  65.9066213 131.7760879
  36.7584047  69.3346213  94.9080879  37.7964047  70.0796213  95.0560879
  38.0854047  70.3476213  96.4720879  36.9884047  69.5986213  97.1090879
  36.2194047  69.0096213  96.1780879  36.3734047  69.0216213  94.0210879
  38.3924047  70.4646213  94.2360879  38.0224047  71.3346213  96.6790879
  38.9864047  69.9786213  96.7410879  36.9094047  69.5906213  98.1860879
  35.3404047  68.3896213  96.2730879  71.9844047 113.4336213  53.3010879
  70.7024047 113.5376213  53.3380879  70.0464047 112.2276213  53.4430879
  71.2254047 111.3446213  53.4590879  72.3554047 112.0686213  53.3750879
  72.6404047 114.2066213  53.2310879  70.1654047 114.4786213  53.2970879
  69.4624047 112.0426213  52.6400879  69.5174047 112.1476213  54.3000879
  71.0854047 110.2756213  53.5310879  73.3914047 111.7656213  53.3600879
 115.9064047  48.8566213  64.6780879 116.4434047  49.4786213  65.6680879
 117.8734047  49.7336213  65.4490879 118.0474047  49.1236213  64.1190879
 116.8834047  48.6136213  63.6800879 114.9314047  48.5766213  64.6100879
 115.9064047  49.7816213  66.5600879 118.4414047  49.2666213  66.1420879
 118.0724047  50.7236213  65.4260879 119.0214047  49.1406213  63.6520879
 116.6344047  48.1006213  62.7630879  43.7514047  58.7466213  73.6790879
  42.9784047  58.1146213  74.4900879  41.6794047  57.7996213  73.8810879
  41.8684047  58.3886213  72.5430879  43.0894047  58.9396213  72.4410879
  44.6954047  59.0646213  73.8840879  43.2504047  57.8416213  75.5040879
  40.9224047  58.2506213  74.3750879  41.5304047  56.8026213  73.8240879
  41.0684047  58.3276213  71.8200879  43.5694047  59.4526213  71.6210879
 104.0114047  77.3316213 103.0210879 103.7214047  76.1106213 103.3060879
 104.3694047  75.1626213 102.3890879 105.0954047  76.0996213 101.5130879
 104.8754047  77.3686213 101.8980879 103.6784047  78.1526213 103.5190879
 103.0764047  75.8126213 104.1240879 103.6874047  74.6296213 101.8680879
 105.0064047  74.5526213 102.8800879 105.6944047  75.7106213 100.7030879
 105.2374047  78.3036213 101.4980879  37.4204047  63.6256213  67.2100879
  37.6084047  64.8816213  67.4170879  36.3534047  65.6436213  67.3530879
  35.4014047  64.5566213  67.0630879  36.0434047  63.3786213  66.9830879
  38.1424047  62.9096213  67.2080879  38.5754047  65.3286213  67.6170879
  36.3724047  66.3216213  66.6050879  36.1454047  66.0856213  68.2370879
  34.3524047  64.7876213  66.9520879  35.6754047  62.3816213  66.7890879
  56.8584047 123.1836213 101.5310879  57.6364047 122.1606213 101.5820879
  59.0514047 122.5386213 101.4660879  58.9224047 124.0006213 101.3360879
  57.6284047 124.3626213 101.3770879  55.8434047 123.1616213 101.5920879
  57.2934047 121.1386213 101.6990879  59.4744047 122.1346213 100.6430879
  59.5694047 122.2896213 102.2970879  59.8124047 124.6036213 101.2290879
  57.1624047 125.3346213 101.3130879  74.1574047 116.7656213 112.1640879
  73.9144047 115.5876213 112.6200879  73.3294047 114.7096213 111.5970879
  73.2884047 115.6356213 110.4510879  73.7784047 116.8376213 110.8000879
  74.5614047 117.5346213 112.6910879  74.1154047 115.2746213 113.6390879
  72.4014047 114.4086213 111.8570879  73.9264047 113.9176213 111.4050879
  72.8974047 115.2896213 109.5050879  73.9014047 117.7456213 110.2300879
 122.7824047  66.9516213  70.8030879 123.5244047  65.9876213  71.2210879
 124.8594047  66.0156213  70.6080879 124.7274047  67.2016213  69.7440879
 123.5024047  67.7396213  69.8710879 121.8234047  67.1306213  71.0900879
 123.2074047  65.2426213  71.9420879 125.0304047  65.1836213  70.0610879
 125.5814047  66.1466213  71.3020879 125.5644047  67.5096213  69.1350879
 123.0544047  68.6026213  69.4000879  67.2854047 122.3006213  74.1430879
  67.8244047 121.5536213  73.2450879  66.8354047 120.6956213  72.5760879
  65.6104047 121.1096213  73.2830879  65.8914047 122.0516213  74.1980879
  67.7754047 122.9716213  74.7290879  68.8814047 121.5536213  73.0050879
  67.0334047 119.7176213  72.7290879  66.7764047 120.9026213  71.5890879
  64.6684047 120.6516213  73.0190879  65.2534047 122.5806213  74.8910879
  92.0784047  73.8916213 103.0580879  92.8504047  72.9316213 103.4300879
  93.8074047  73.3616213 104.4590879  93.4234047  74.7776213 104.5990879
  92.4074047  75.0726213 103.7710879  91.3424047  73.8256213 102.3610879
  92.8024047  71.9236213 103.0360879  94.7604047  73.2726213 104.1350879
  93.6714047  72.8576213 105.3230879  93.9534047  75.4026213 105.3030879
  91.8734047  75.9956213 103.6040879  81.4194047  66.6556213  32.1750879
  80.3754047  65.9606213  31.8880879  79.7704047  66.3766213  30.6150879
  80.6894047  67.4616213  30.2300879  81.6524047  67.6116213  31.1550879
  81.9984047  66.5436213  33.0030879  79.9854047  65.1616213  32.5080879
  78.8314047  66.7246213  30.7500879  79.7844047  65.6276213  29.9380879
  80.5204047  67.9966213  29.3070879  82.4854047  68.2966213  31.2070879
  78.1714047  61.7906213  14.3260879  79.1334047  62.4056213  14.9190879
  78.6734047  63.1246213  16.1150879  77.2374047  62.7936213  16.0830879
  76.9604047  62.0086213  15.0280879  78.2564047  61.2306213  13.4820879
  80.1634047  62.3956213  14.5810879  78.8204047  64.1196213  16.0250879
  79.1124047  62.7686213  16.9520879  76.5884047  63.1806213  16.8540879
  76.0294047  61.5766213  14.6910879  38.9974047  57.3306213  43.3700879
  38.2094047  57.9776213  42.5850879  37.8214047  59.2796213  43.1440879
  38.5544047  59.2446213  44.4220879  39.2394047  58.0946213  44.5390879
  39.3924047  56.4116213  43.1900879  37.8714047  57.6096213  41.6230879
  36.8244047  59.3326213  43.2960879  38.1394047  60.0406213  42.5610879
  38.4804047  60.0846213  45.0970879  39.8794047  57.7276213  45.3280879
  91.6804047  64.4636213 124.3410879  92.1484047  63.4146213 124.9210879
  93.6154047  63.4436213 125.0100879  93.8914047  64.7346213 124.3550879
  92.7454047  65.3206213 123.9700879  90.6974047  64.6586213 124.1710879
  91.5374047  62.6046213 125.3020879  94.0294047  62.6776213 124.4980879
  93.9264047  63.4456213 125.9700879  94.9144047  65.0676213 124.2540879
  92.5634047  66.2596213 123.4680879 104.7474047  46.1156213  80.7470879
 105.9464047  45.7026213  80.9660879 106.8884047  46.8176213  81.1420879
 105.9754047  47.9616213  80.9750879 104.7224047  47.5326213  80.7450879
 103.9344047  45.5236213  80.5960879 106.2324047  44.6586213  81.0170879
 107.6014047  46.8126213  80.4270879 107.3014047  46.8096213  82.0630879
 106.3654047  48.9656213  81.0500879 103.8054047  48.0776213  80.5780879
 100.8424047  77.7986213 123.9720879 101.1714047  78.9696213 123.5520879
 100.0994047  79.9516213 123.7650879  99.0804047  79.0946213 124.3960879
  99.5324047  77.8346213 124.5110879 101.4254047  76.9666213 123.9290879
 102.1254047  79.2086213 123.0970879  99.7674047  80.3296213 122.8890879
 100.3934047  80.6906213 124.3880879  98.1334047  79.5256213 124.6880879
  99.0684047  76.9486213 124.9180879  24.6644047  49.0966213  51.3100879
  24.9234047  50.3416213  51.5060879  25.8034047  50.5456213  52.6650879
  25.9944047  49.1506213  53.0970879  25.3204047  48.3126213  52.2910879
  24.0794047  48.7216213  50.5680879  24.5414047  51.1486213  50.8900879
  25.3464047  51.0906213  53.3820879  26.6794047  50.9686213  52.3930879
  26.6144047  48.9426213  53.9570879  25.2304047  47.2366213  52.3030879
  76.5824047  55.3676213  22.2920879  77.8604047  55.4486213  22.1760879
  78.2784047  56.7166213  21.5610879  76.9644047  57.3486213  21.3470879
  75.9794047  56.5436213  21.7820879  76.0704047  54.5836213  22.6890879
  78.5524047  54.6766213  22.4930879  78.7554047  56.5606213  20.6840879
  78.8484047  57.2616213  22.1910879  76.9154047  58.3286213  20.8950879
  74.9074047  56.6746213  21.7880879  91.6784047 107.1886213  29.0110879
  92.3574047 106.7086213  28.0300879  91.4914047 106.1346213  26.9900879
  90.1664047 106.3876213  27.5830879  90.2944047 107.0066213  28.7690879
  92.0654047 107.6336213  29.8390879  93.4394047 106.7236213  27.9720879
  91.6584047 105.1456213  26.8760879  91.5984047 106.6226213  26.1110879
  89.2804047 106.0756213  27.0500879  89.5504047 107.3436213  29.4770879
 112.1474047  90.7406213  63.2850879 113.0274047  91.6646213  63.1230879
 112.5464047  92.9716213  63.5940879 111.1994047  92.6016213  64.0620879
 110.9804047  91.2886213  63.8740879 112.2604047  89.7626213  63.0330879
 114.0084047  91.5036213  62.6910879 112.4994047  93.6406213  62.8390879
 113.1144047  93.3216213  64.3530879 110.5584047  93.3616213  64.4840879
 110.1204047  90.6746213  64.0940879  85.9934047  62.4066213 126.5710879
  86.9234047  61.9616213 125.8010879  88.1514047  61.6466213 126.5440879
  87.7294047  62.0066213 127.9100879  86.4614047  62.4496213 127.9080879
  85.0614047  62.6866213 126.2770879  86.8174047  61.8316213 124.7300879
  88.9244047  62.2196213 126.2370879  88.3804047  60.6656213 126.4790879
  88.4264047  61.8886213 128.7270879  85.8304047  62.7956213 128.7130879
 105.9654047  98.5446213  56.6530879 106.2444047  97.6496213  57.5340879
 107.6934047  97.4766213  57.7050879 108.1914047  98.4646213  56.7310879
 107.1644047  99.0826213  56.1230879 105.0314047  98.8306213  56.3720879
 105.5014047  97.0876213  58.0880879 107.9844047  96.5416213  57.4570879
 107.9844047  97.7086213  58.6430879 109.2564047  98.5936213  56.6050879
 107.1484047  99.8526213  55.3660879  20.1364047  97.7796213  68.4930879
  20.0104047  96.8786213  69.4020879  18.8934047  97.1676213  70.3120879
  18.4024047  98.4296213  69.7320879  19.1414047  98.7746213  68.6640879
  20.8384047  97.7866213  67.7570879  20.6494047  96.0076213  69.4900879
  19.2154047  97.3016213  71.2600879  18.1874047  96.4456213  70.2700879
  17.5544047  98.9246213  70.1830879  19.0754047  99.6236213  68.0000879
  79.2394047  94.8816213  28.5460879  78.6594047  94.2956213  27.5580879
  78.9474047  92.8556213  27.5250879  79.8204047  92.7366213  28.7060879
  79.9804047  93.9336213  29.2940879  79.1814047  95.8726213  28.7660879
  78.0294047  94.8016213  26.8340879  79.4384047  92.5976213  26.6810879
  78.1064047  92.3076213  27.6350879  80.2214047  91.7686213  28.9730879
  80.5434047  94.2246213  30.1690879  46.6574047  42.2476213  29.7620879
  46.6734047  41.8256213  28.5470879  47.6904047  42.5116213  27.7380879
  48.2584047  43.4216213  28.7490879  47.6414047  43.2536213  29.9310879
  46.0384047  41.9166213  30.4980879  46.0164047  41.0546213  28.1610879
  47.2704047  43.0266213  26.9780879  48.3874047  41.8656213  27.3960879
  49.0594047  44.0896213  28.4690879  47.7904047  43.7386213  30.8840879
  18.8464047 100.8226213  85.5090879  18.6244047 101.8336213  84.7450879
  19.4654047 102.9856213  85.0980879  20.2194047 102.4206213  86.2310879
  19.8444047 101.1506213  86.4590879  18.3814047  99.9196213  85.4490879
  17.9044047 101.8386213  83.9350879  18.9054047 103.7746213  85.3880879
  20.0814047 103.2386213  84.3390879  20.9514047 103.0336213  86.7370879
  20.1774047 100.4346213  87.1960879  44.8554047  87.9686213  22.9290879
  44.2914047  86.8236213  23.0970879  43.0124047  86.9396213  23.8100879
  42.9594047  88.3966213  24.0190879  44.0474047  88.9866213  23.4950879
  45.7434047  88.1306213  22.4630879  44.7074047  85.8836213  22.7530879
  43.0354047  86.4446213  24.6900879  42.2414047  86.6236213  23.2390879
  42.1124047  88.8276213  24.5340879  44.3444047  90.0236213  23.4600879
  69.1204047 135.6016213  68.4370879  69.3784047 134.3516213  68.2790879
  70.7704047 134.0296213  68.6220879  71.2594047 135.3636213  69.0110879
  70.2784047 136.2746213  68.8970879  68.2244047 136.0496213  68.2610879
  68.6574047 133.6186213  67.9340879  71.2744047 133.6746213  67.8210879
  70.8194047 133.3816213  69.3950879  72.2854047 135.4786213  69.3300879
  70.2714047 137.3366213  69.0930879  28.1524047  95.7026213  38.9240879
  29.3544047  95.8826213  39.3470879  29.9484047  97.1136213  38.8080879
  28.8314047  97.6046213  37.9830879  27.7844047  96.7656213  38.0620879
  27.5494047  94.9206213  39.1650879  29.8704047  95.2096213  40.0220879
  30.7604047  96.9136213  38.2420879  30.1744047  97.7676213  39.5450879
  28.9464047  98.5266213  37.4310879  26.8094047  96.8016213  37.5990879
  22.2954047  82.7796213  79.7940879  22.2684047  82.0506213  80.8540879
  23.3304047  81.0346213  80.8510879  23.9754047  81.3346213  79.5600879
  23.3564047  82.3616213  78.9530879  21.6584047  83.5426213  79.5820879
  21.5504047  82.1686213  81.6570879  22.9464047  80.1006213  80.8590879
  23.9714047  81.1686213  81.6200879  24.8244047  80.7466213  79.2440879
  23.5504047  82.8486213  78.0090879 104.6934047  51.2616213 102.0980879
 105.9284047  50.9476213 102.2710879 106.1944047  49.5436213 101.9290879
 104.8444047  49.1146213 101.5220879 103.9754047  50.1346213 101.6260879
 104.2824047  52.1756213 102.2700879 106.6884047  51.6356213 102.6260879
 106.5164047  49.0236213 102.7320879 106.8484047  49.4686213 101.1630879
 104.6884047  48.0956213 101.1990879 102.9174047  50.1886213 101.4170879
 112.7644047  31.4506213  91.8960879 113.6974047  32.2636213  92.2470879
 115.0344047  31.6996213  92.0170879 114.6724047  30.3856213  91.4580879
 113.3364047  30.2556213  91.3930879 111.7654047  31.6276213  91.9640879
 113.5224047  33.2496213  92.6630879 115.5454047  31.6006213  92.8830879
 115.5574047  32.2496213  91.3500879 115.4544047  29.6986213  91.1720879
 112.7194047  29.4406213  91.0430879 100.2214047 108.7756213  99.0390879
 100.9954047 108.0196213  98.3440879 100.6404047 108.0316213  96.9180879
  99.4944047 108.9566213  96.9410879  99.2614047 109.3856213  98.1930879
 100.2794047 108.9226213 100.0430879 101.8144047 107.4416213  98.7560879
 100.3634047 107.1136213  96.6000879 101.3944047 108.3966213  96.3530879
  98.9844047 109.1906213  96.0170879  98.5154047 110.0606213  98.5840879
 108.5864047  92.6956213  87.5160879 109.5924047  93.4736213  87.3220879
 110.8714047  92.7856213  87.5470879 110.3864047  91.4436213  87.9130879
 109.0434047  91.4076213  87.8900879 107.6084047  92.9546213  87.4180879
 109.5114047  94.5136213  87.0260879 111.3874047  93.2076213  88.3060879
 111.4274047  92.7566213  86.7040879 111.1014047  90.6686213  88.1490879
 108.3514047  90.6046213  88.0980879  78.2894047 101.1536213  23.2790879
  78.0404047 100.4666213  24.3370879  77.5254047 101.3046213  25.4290879
  77.5324047 102.6236213  24.7730879  77.9834047 102.5176213  23.5110879
  78.6514047 100.7846213  22.4030879  78.1894047  99.3956213  24.4190879
  78.1444047 101.2896213  26.2270879  76.5894047 101.0316213  25.6930879
  77.1984047 103.4906213  25.3240879  78.1224047 103.2636213  22.7430879
  97.5264047 104.6946213  58.5390879  96.4234047 104.3306213  59.0930879
  95.8414047 103.1506213  58.4400879  96.8464047 102.9116213  57.3880879
  97.8284047 103.8256213  57.4600879  98.1024047 105.4826213  58.8220879
  95.9744047 104.8326213  59.9420879  94.9374047 103.3586213  58.0410879
  95.7844047 102.3676213  59.0760879  96.7114047 102.0836213  56.7070879
  98.7174047 103.9596213  56.8620879 109.5804047  36.4576213  65.3510879
 109.3294047  35.9466213  64.1980879 110.4644047  36.0886213  63.2740879
 111.4234047  36.7926213  64.1440879 110.8894047  37.0006213  65.3590879
 108.9444047  36.4746213  66.1440879 108.3944047  35.4666213  63.9340879
 110.2174047  36.6506213  62.4720879 110.8214047  35.1886213  62.9880879
 112.3954047  37.0566213  63.7540879 111.2944047  37.4786213  66.2390879
  95.0524047 110.2926213 123.4510879  96.2414047 110.6276213 123.0930879
  96.3374047 110.8546213 121.6440879  94.9464047 110.5766213 121.2430879
  94.2054047 110.2486213 122.3150879  94.7544047 110.0876213 124.4010879
  97.0774047 110.7336213 123.7750879  96.9784047 110.2056213 121.2110879
  96.5934047 111.8096213 121.4360879  94.6694047 110.6566213 120.2020879
  93.1614047 109.9856213 122.4020879  50.3504047  34.3246213  72.0970879
  50.4124047  34.4896213  70.8230879  49.2494047  33.9136213  70.1350879
  48.5024047  33.3786213  71.2870879  49.1614047  33.6296213  72.4310879
  51.0414047  34.6416213  72.7720879  51.2254047  34.9956213  70.3130879
  49.5244047  33.1746213  69.5040879  48.7174047  34.6226213  69.6520879
  47.5624047  32.8736213  71.1200879  48.9194047  33.3896213  73.4560879
 110.2784047  75.8086213 111.9630879 109.4424047  75.6746213 110.9950879
 108.0984047  76.1456213 111.3590879 108.3404047  76.5806213 112.7460879
 109.6244047  76.3766213 113.0840879 111.2614047  75.5506213 111.9380879
 109.6944047  75.2636213 110.0240879 107.4234047  75.3956213 111.3230879
 107.8094047  76.9196213 110.7780879 107.5244047  76.9936213 113.3200879
 110.1554047  76.5716213 114.0050879 105.6284047  47.9286213  59.3450879
 105.0134047  48.9256213  58.8120879 105.0924047  50.1326213  59.6470879
 105.8854047  49.6166213  60.7770879 106.1924047  48.3226213  60.5840879
 105.7054047  46.9966213  58.9470879 104.4964047  48.8846213  57.8600879
 104.1764047  50.4306213  59.9500879 105.5764047  50.8796213  59.1700879
 106.1314047  50.2776213  61.5950879 106.7534047  47.6286213  61.1920879
 102.4764047 105.9356213  77.0840879 101.2174047 106.0196213  76.8380879
 100.8154047 107.3876213  76.4830879 102.1154047 108.0746213  76.5770879
 103.0794047 107.2086213  76.9310879 102.9754047 105.0896213  77.3490879
 100.5294047 105.1826213  76.8860879 100.1544047 107.7616213  77.1480879
 100.4454047 107.4306213  75.5440879 102.1704047 109.1326213  76.3680879
 104.1374047 107.3526213  77.0930879  19.0604047  99.3006213  52.3800879
  19.1074047  98.2706213  51.6100879  19.6974047  98.5886213  50.3010879
  19.9784047 100.0236213  50.4830879  19.5994047 100.4256213  51.7080879
  18.6934047  99.3166213  53.3280879  18.7564047  97.2846213  51.8890879
  19.0354047  98.4376213  49.5530879  20.5464047  98.0656213  50.1430879
  20.4324047 100.5796213  49.6750879  19.6524047 101.3926213  52.1850879
 124.2874047  68.7246213  90.7740879 123.1274047  68.2516213  90.4790879
 122.1564047  69.3146213  90.1880879 123.0054047  70.5036213  90.3800879
 124.2524047  70.1406213  90.7220879 125.1104047  68.1756213  91.0090879
 122.8914047  67.1936213  90.4460879 121.3904047  69.3036213  90.8450879
 121.8184047  69.2556213  89.2380879 122.5794047  71.4866213  90.2360879
 125.1294047  70.7316213  90.9390879 124.2704047  81.7676213  58.4590879
 124.6404047  82.7986213  57.7840879 126.0844047  82.7866213  57.5080879
 126.4664047  81.5266213  58.1700879 125.3904047  80.9406213  58.7220879
 123.3214047  81.5656213  58.7620879 123.9704047  83.5846213  57.4550879
 126.5464047  83.5776213  57.9330879 126.2694047  82.7506213  56.5160879
 127.4994047  81.2126213  58.1510879 125.2914047  80.0206213  59.2790879
  33.7944047  82.8966213  68.6670879  35.0744047  82.8906213  68.7980879
  35.6374047  84.2476213  68.7680879  34.4074047  85.0376213  68.5910879
  33.3344047  84.2306213  68.5340879  33.1934047  82.0766213  68.6600879
  35.6704047  81.9926213  68.9180879  36.2654047  84.3676213  67.9860879
  36.0964047  84.4756213  69.6380879  34.4744047  86.1146213  68.5280879
  32.2844047  84.4536213  68.4130879  64.7044047  23.5756213  77.0430879
  64.0134047  22.4906213  77.0290879  62.5774047  22.7546213  76.8560879
  62.5904047  24.2256213  76.7750879  63.8464047  24.6916213  76.8850879
  65.7134047  23.6346213  77.1490879  64.4344047  21.4976213  77.1310879
  62.0464047  22.4376213  77.6550879  62.2274047  22.3436213  76.0030879
  61.6584047  24.7566213  76.6420879  64.2324047  25.6996213  76.8700879
  21.7714047  57.9846213  90.3210879  20.7274047  57.3176213  89.9740879
  20.7084047  55.9746213  90.5710879  21.9664047  56.0106213  91.3360879
  22.5784047  57.1966213  91.1800879  21.9944047  58.9326213  90.0310879
  19.9514047  57.6976213  89.3200879  20.7324047  55.2566213  89.8610879
  19.9124047  55.8536213  91.1800879  22.2604047  55.1446213  91.9110879
  23.5054047  57.5756213  91.5840879  55.0164047  24.8136213 105.0930879
  56.0894047  25.3196213 104.5950879  56.2934047  26.7096213 105.0240879
  55.1074047  26.8966213 105.8780879  54.3684047  25.7746213 105.9080879
  54.6764047  23.8686213 104.9350879  56.7654047  24.7866213 103.9360879
  56.2814047  27.3436213 104.2380879  57.1464047  26.8096213 105.5560879
  54.9514047  27.8476213 106.3660879  53.4464047  25.5466213 106.4210879
  72.5874047  30.6216213 101.8080879  72.3684047  30.9176213 100.5760879
  71.0464047  31.5286213 100.3830879  70.5494047  31.5196213 101.7700879
  71.4654047  30.9856213 102.5940879  73.4334047  30.1916213 102.1750879
  73.0744047  30.7406213  99.7720879  70.4634047  30.9626213  99.7820879
  71.1234047  32.4706213 100.0270879  69.5664047  31.9166213 101.9820879
  71.4494047  30.8196213 103.6610879  72.5044047 131.9806213  92.2340879
  71.5364047 132.7976213  92.0080879  71.9604047 134.1996213  92.1220879
  73.3824047 134.0156213  92.4630879  73.6854047 132.7086213  92.5250879
  72.4434047 130.9666213  92.2110879  70.5254047 132.4916213  91.7610879
  71.4654047 134.6746213  92.8620879  71.8554047 134.6886213  91.2450879
  74.0044047 134.8846213  92.6200879  74.6154047 132.2056213  92.7440879
 101.2894047  74.2096213  21.7390879 102.0744047  75.2186213  21.5920879
 101.3354047  76.4866213  21.5180879  99.9534047  75.9916213  21.6540879
  99.9444047  74.6536213  21.7830879 101.5784047  73.2386213  21.8140879
 103.1544047  75.1466213  21.5300879 101.4744047  76.9426213  20.6280879
 101.5804047  77.1006213  22.2810879  99.1354047  76.6966213  21.6390879
  99.1264047  73.9586213  21.9020879  18.8904047  80.8716213  92.5620879
  19.7664047  80.0286213  92.1430879  19.1634047  78.7326213  91.7990879
  17.7504047  79.0106213  92.1110879  17.6074047  80.2706213  92.5570879
  19.0784047  81.8266213  92.8550879  20.8254047  80.2436213  92.0520879
  19.5274047  77.9916213  92.3800879  19.2864047  78.5176213  90.8200879
  17.0134047  78.2356213  91.9620879  16.7304047  80.8146213  92.8750879
  32.5614047  40.8886213  69.5350879  31.8184047  39.9026213  69.8980879
  32.5634047  38.6366213  69.9360879  33.8964047  39.1046213  69.5150879
  33.8784047  40.4286213  69.2850879  32.2604047  41.8546213  69.4400879
  30.7684047  39.9916213  70.1490879  32.1874047  37.9686213  69.2790879
  32.5894047  38.2506213  70.8690879  34.7064047  38.3936213  69.4370879
  34.6584047  41.1036213  68.9670879 120.2184047  62.1276213  79.7530879
 120.4874047  61.0796213  79.0570879 121.9344047  60.8866213  78.8910879
 122.4424047  62.0486213  79.6400879 121.4224047  62.7666213  80.1400879
 119.2874047  62.4566213  79.9950879 119.7384047  60.4146213  78.6420879
 122.2024047  60.9326213  77.9180879 122.2414047  60.0196213  79.3090879
 123.5084047  62.2066213  79.7140879 121.4134047  63.6696213  80.7330879
  83.7664047  51.5426213 118.6820879  83.4474047  52.7436213 119.0160879
  82.1504047  52.7966213 119.7050879  81.7904047  51.3676213 119.6960879
  82.7494047  50.6456213 119.0930879  84.6174047  51.2676213 118.1980879
  84.0594047  53.6146213 118.8160879  81.4804047  53.3456213 119.1860879
  82.2474047  53.1436213 120.6490879  80.8574047  51.0546213 120.1430879
  82.8264047  49.5846213 118.9060879  82.1104047 134.5056213  81.2960879
  82.8654047 134.5646213  80.2570879  82.3624047 135.5246213  79.2640879
  81.1534047 136.0056213  79.9560879  81.0204047 135.3986213  81.1470879
  82.2624047 133.9116213  82.1080879  83.7674047 133.9786213  80.1240879
  82.1284047 135.0676213  78.3950879  83.0204047 136.2756213  79.1120879
  80.5314047 136.7486213  79.4780879  80.2674047 135.4996213  81.9140879
  40.7564047  84.7936213  52.2800879  41.3114047  83.9896213  53.1160879
  41.9994047  82.8806213  52.4410879  41.7194047  83.2176213  51.0340879
  40.9894047  84.3436213  50.9570879  40.2274047  85.6286213  52.5200879
  41.2804047  84.1126213  54.1930879  41.5944047  81.9896213  52.6900879
  42.9914047  82.8916213  52.6290879  42.0994047  82.5776213  50.2510879
  40.6044047  84.8816213  50.1040879 119.9904047  80.4766213 115.8050879
 119.5634047  79.8636213 116.8520879 120.5234047  79.9386213 117.9630879
 121.5954047  80.7276213 117.3300879 121.2664047  81.0356213 116.0640879
 119.4954047  80.5556213 114.9200879 118.6104047  79.3516213 116.9130879
 120.8524047  79.0216213 118.2280879 120.1314047  80.4256213 118.7560879
 122.4814047  80.9686213 117.8990879 121.7994047  81.5936213 115.3080879
  87.0274047 118.4276213 119.1400879  86.7474047 118.5196213 120.3920879
  85.9734047 117.3646213 120.8700879  85.8684047 116.5866213 119.6230879
  86.4924047 117.2236213 118.6170879  87.5534047 119.1076213 118.5980879
  87.0444047 119.3486213 121.0240879  85.0624047 117.6456213 121.2040879
  86.4764047 116.8526213 121.5790879  85.3384047 115.6456213 119.6300879
  86.6184047 116.9566213 117.5790879  72.1184047  89.6826213  29.5450879
  72.4014047  90.6766213  30.3110879  72.1174047  91.9676213  29.6680879
  71.6094047  91.5036213  28.3640879  71.6154047  90.1606213  28.3090879
  72.2324047  88.7006213  29.7800879  72.8014047  90.5786213  31.3140879
  72.9574047  92.5166213  29.5580879  71.4114047  92.4836213  30.1730879
  71.3004047  92.2306213  27.6280879  71.3174047  89.4826213  27.5230879
  52.6574047 104.0026213 112.6200879  53.4574047 103.3796213 111.8270879
  53.1664047 101.9406213 111.7710879  52.0274047 101.8666213 112.7030879
  51.7404047 103.0856213 113.1910879  52.6714047 105.0006213 112.8140879
  54.2514047 103.8566213 111.2650879  53.9474047 101.3946213 112.1050879
  52.8984047 101.6546213 110.8400879  51.5604047 100.9116213 112.8930879
  50.9814047 103.4096213 113.8880879  38.4294047  33.1256213  63.3810879
  38.9004047  33.4866213  62.2400879  37.8424047  33.6446213  61.2320879
  36.6594047  33.2946213  62.0380879  37.0214047  32.9936213  63.2970879
  38.9744047  32.9576213  64.2220879  39.9524047  33.6576213  62.0410879
  37.9654047  32.9986213  60.4650879  37.7894047  34.5966213  60.8980879
  35.6824047  33.3126213  61.5780879  36.4324047  32.6966213  64.1520879
  73.0484047  57.8066213  33.0810879  73.6734047  58.0816213  34.1710879
  74.9854047  57.4226213  34.2360879  74.9824047  56.7066213  32.9480879
  73.8384047  56.9426213  32.2830879  72.1284047  58.1496213  32.8210879
  73.2834047  58.7256213  34.9520879  75.0364047  56.7786213  35.0120879
  75.7364047  58.0976213  34.2770879  75.8354047  56.1026213  32.6760879
  73.4924047  56.5906213  31.3220879  97.0414047  33.4676213 105.0960879
  97.7004047  32.8776213 106.0300879  97.1704047  31.5366213 106.3140879
  96.0624047  31.4816213 105.3440879  96.0014047  32.6226213 104.6360879
  97.2294047  34.3996213 104.7340879  98.5474047  33.3126213 106.5470879
  96.8294047  31.4696213 107.2630879  97.8574047  30.8206213 106.1260879
  95.4474047  30.5956213 105.2930879  95.3294047  32.9346213 103.8500879
  47.5464047 109.7506213  99.0940879  48.1544047 110.7196213  98.5060879
  49.6104047 110.6526213  98.6980879  49.7104047 109.4366213  99.5240879
  48.4904047 108.9186213  99.7470879  46.5414047 109.5946213  99.0960879
  47.6574047 111.4946213  97.9350879  49.9534047 111.4616213  99.1960879
  50.0934047 110.5386213  97.8180879  50.6824047 109.0966213  99.8500879
  48.1804047 108.0446213 100.3010879  50.5094047  45.6106213 111.6590879
  51.6134047  46.1986213 111.3590879  52.5834047  45.2736213 110.7560879
  51.8004047  44.0256213 110.7750879  50.5854047  44.2406213 111.3070879
  49.6974047  46.0526213 112.0840879  51.8094047  47.2516213 111.5270879
  53.4154047  45.1916213 111.3240879  52.8154047  45.5466213 109.8120879
  52.2414047  43.1186213 110.3860879  49.7574047  43.5686213 111.4780879
 124.8694047  52.6716213  60.8290879 126.1414047  52.7876213  60.6740879
 126.8504047  51.5386213  60.9820879 125.7134047  50.6756213  61.3480879
 124.5584047  51.3556213  61.2530879 124.1824047  53.4046213  60.6730879
 126.6354047  53.6986213  60.3540879 127.4844047  51.6566213  61.7590879
 127.3354047  51.1806213  60.1710879 125.8984047  49.6516213  61.6380879
 123.5394047  51.0506213  61.4400879 123.2264047 108.1946213  70.7110879
 123.3054047 109.2406213  69.9670879 124.3164047 109.0896213  68.9100879
 124.8024047 107.7306213  69.2060879 124.1524047 107.2196213  70.2650879
 122.5984047 108.0746213  71.5010879 122.7004047 110.1306213  70.0990879
 125.0544047 109.7716213  69.0070879 123.8984047 109.1376213  67.9920879
 125.5794047 107.3016213  68.5900879 124.2434047 106.2636213  70.7590879
  40.4054047 100.8296213  42.9850879  40.3314047 100.4696213  41.7520879
  41.4434047  99.5896213  41.3680879  42.1754047  99.5186213  42.6450879
  41.5534047 100.2516213  43.5840879  39.7474047 101.4356213  43.4680879
  39.5434047 100.7776213  41.0740879  42.0104047 100.0066213  40.6440879
  41.1114047  98.6776213  41.0860879  43.0774047  98.9276213  42.7050879
  41.7964047 100.4306213  44.6200879  70.5194047  91.9136213 135.3390879
  69.4754047  91.4406213 135.9230879  68.4474047  92.4696213 136.1340879
  69.1244047  93.6396213 135.5460879  70.3384047  93.2956213 135.0830879
  71.3524047  91.3856213 135.0920879  69.3614047  90.4056213 136.2250879
  68.2644047  92.6106213 137.1170879  67.5974047  92.2496213 135.6350879
  68.6204047  94.5946213 135.5400879  71.1034047  93.8816213 134.5960879
  22.1554047  67.7846213  43.1960879  21.0754047  67.1426213  42.9200879
  21.2384047  65.6926213  43.0920879  22.6454047  65.6366213  43.5250879
  23.1684047  66.8726213  43.5820879  22.2754047  68.7936213  43.1480879
  20.1524047  67.6116213  42.6000879  21.1054047  65.2006213  42.2200879
  20.6214047  65.3336213  43.8060879  23.0944047  64.6786213  43.7430879
  24.1564047  67.2126213  43.8550879  72.0424047  17.5986213  65.5570879
  71.4104047  16.5336213  65.2090879  72.1154047  15.7956213  64.1520879
  73.2904047  16.6656213  63.9650879  73.2324047  17.7186213  64.7970879
  71.7434047  18.2606213  66.2690879  70.4694047  16.2136213  65.6420879
  71.5624047  15.7426213  63.3090879  72.3884047  14.8746213  64.4640879
  74.0354047  16.3966213  63.2310879  73.9084047  18.5496213  64.9380879
  74.0524047  68.5216213  15.9510879  73.4504047  68.0286213  16.9750879
  73.1514047  69.0536213  17.9850879  73.7124047  70.2446213  17.3220879
  74.2364047  69.9156213  16.1290879  74.3544047  68.0006213  15.1320879
  73.1914047  66.9816213  17.0840879  73.6274047  68.8626213  18.8550879
  72.1574047  69.1496213  18.1300879  73.6544047  71.2026213  17.8180879
  74.7244047  70.5186213  15.3790879 108.3044047  68.4996213  87.6010879
 108.5264047  67.2806213  87.9450879 107.3164047  66.6236213  88.4590879
 106.3484047  67.7286213  88.3400879 106.9444047  68.8226213  87.8340879
 108.9924047  69.1436213  87.2200879 109.4904047  66.7896213  87.8640879
 107.4324047  66.3416213  89.4220879 107.0494047  65.8396213  87.8820879
 105.3244047  67.5706213  88.6450879 106.5534047  69.8036213  87.6110879
 118.0124047  96.3076213  46.2100879 118.2954047  96.8326213  47.3500879
 117.2694047  96.5396213  48.3600879 116.3334047  95.7336213  47.5570879
 116.7844047  95.6066213  46.2980879 118.5774047  96.3786213  45.3670879
 119.1844047  97.4206213  47.5460879 116.8304047  97.3856213  48.6940879
 117.6494047  96.0036213  49.1270879 115.4374047  95.3466213  48.0200879
 116.3684047  95.0916213  45.4440879  62.2974047 106.2226213 116.6200879
  62.5524047 104.9786213 116.8240879  61.3324047 104.1596213 116.8300879
  60.3174047 105.1996213 116.5850879  60.9004047 106.4046213 116.4640879
  62.9844047 106.9706213 116.5750879  63.5484047 104.5776213 116.9740879
  61.1914047 103.7146213 117.7250879  61.3434047 103.4766213 116.0850879
  59.2764047 104.9196213 116.5290879  60.4774047 107.3816213 116.2840879
  89.8184047  82.3946213  29.0930879  90.5474047  81.5036213  28.5190879
  91.6944047  82.0976213  27.8190879  91.4704047  83.5236213  28.1120879
  90.3654047  83.6816213  28.8610879  88.9764047  82.2156213  29.6340879
  90.3434047  80.4396213  28.5470879  91.6534047  81.9176213  26.8260879
  92.5704047  81.7776213  28.2080879  92.1624047  84.2586213  27.7280879
  89.8994047  84.5706213  29.2600879  93.9464047  89.6676213  29.5600879
  92.6974047  89.3846213  29.6830879  92.4424047  87.9446213  29.5380879
  93.8134047  87.4586213  29.3040879  94.6844047  88.4816213  29.3220879
  94.3534047  90.5976213  29.6240879  91.9214047  90.1176213  29.8710879
  91.8474047  87.7546213  28.7440879  92.0534047  87.5516213  30.3830879
  93.9814047  86.4016213  29.1540879  95.7554047  88.5036213  29.1890879
 123.1004047  87.7006213  96.2800879 121.9054047  88.1696213  96.2010879
 121.8704047  89.6246213  96.4080879 123.3034047  89.8926213  96.6230879
 124.0114047  88.7526213  96.5440879 123.3634047  86.7246213  96.1700879
 121.0254047  87.5686213  96.0050879 121.3264047  89.8676213  97.2230879
 121.5274047  90.1056213  95.5880879 123.6304047  90.9056213  96.8100879
 125.0704047  88.5676213  96.6470879  48.3204047  91.3406213  91.2940879
  47.6834047  90.2236213  91.3140879  48.5624047  89.0826213  91.0240879
  49.8454047  89.7826213  90.8320879  49.6864047  91.1066213  90.9950879
  47.9174047  92.2576213  91.4670879  46.6234047  90.1296213  91.5210879
  48.2784047  88.6036213  90.1810879  48.6074047  88.4436213  91.8050879
  50.7304047  89.2096213  90.5960879  50.3944047  91.9196213  90.9310879
  52.8804047  49.2556213 122.3960879  53.9804047  48.6526213 122.1130879
  54.9944047  49.5756213 121.5840879  54.2414047  50.8416213 121.6230879
  53.0024047  50.6366213 122.1030879  52.0434047  48.8186213 122.7750879
  54.1454047  47.5896213 122.2470879  55.2544047  49.3336213 120.6380879
  55.8064047  49.6146213 122.1830879  54.7174047  51.7516213 121.2880879
  52.1854047  51.3216213 122.2710879  32.2234047  55.8386213  91.6430879
  31.4334047  55.3516213  90.7520879  30.0874047  55.9376213  90.8300879
  30.2714047  56.8666213  91.9600879  31.5304047  56.7966213  92.4250879
  33.1984047  55.5826213  91.7760879  31.7214047  54.5996213  90.0270879
  29.3934047  55.2366213  91.0440879  29.8514047  56.4336213  89.9830879
  29.4404047  57.4746213  92.2850879  32.0184047  57.3236213  93.2310879
  89.9604047  18.9316213  80.2220879  90.0554047  20.1016213  79.6950879
  88.7524047  20.7756213  79.6120879  87.8844047  19.7426213  80.2040879
  88.6094047  18.6666213  80.5570879  90.7304047  18.2876213  80.3790879
  90.9844047  20.5426213  79.3520879  88.4954047  20.9626213  78.6530879
  88.7394047  21.6226213  80.1610879  86.8244047  19.9296213  80.2950879
  88.3154047  17.7336213  81.0140879 121.1034047  69.1996213  86.4690879
 122.2084047  69.7246213  86.0720879 121.9914047  71.0006213  85.3740879
 120.5234047  71.0966213  85.4550879 120.0174047  70.0326213  86.1010879
 121.0104047  68.3206213  86.9730879 123.1854047  69.2836213  86.2310879
 122.3024047  70.9526213  84.4150879 122.4364047  71.7656213  85.8600879
 120.0254047  71.9516213  85.0210879 118.9994047  69.7686213  86.3440879
  42.8154047  95.3246213  59.8420879  43.3094047  94.2866213  59.2640879
  44.6914047  94.5096213  58.8180879  44.8884047  95.9006213  59.2620879
  43.7784047  96.3636213  59.8610879  41.8784047  95.3996213  60.2290879
  42.7734047  93.3546213  59.1230879  44.7714047  94.4316213  57.8140879
  45.3344047  93.8836213  59.2810879  45.8364047  96.3846213  59.0790879
  43.5604047  97.3246213  60.3040879 109.4204047  90.3396213  59.8250879
 109.2744047  89.3456213  60.6280879 107.8724047  89.1586213  61.0250879
 107.2394047  90.2596213  60.2780879 108.1614047  90.9426213  59.5780879
 110.2994047  90.6536213  59.4210879 110.0874047  88.7166213  60.9730879
 107.7524047  89.2766213  62.0200879 107.5204047  88.2616213  60.7220879
 106.1724047  90.4066213  60.3540879 108.0664047  91.7986213  58.9260879
  62.1234047  94.6156213  28.0330879  61.1004047  93.8986213  28.3420879
  60.9354047  92.7546213  27.4340879  62.0834047  92.9676213  26.5340879
  62.7704047  94.0626213  26.9000879  62.4304047  95.4526213  28.5210879
  60.4374047  94.1086213  29.1730879  60.0624047  92.8076213  26.9300879
  61.0154047  91.8776213  27.9270879  62.2554047  92.2746213  25.7230879
  63.6544047  94.5186213  26.4800879  97.5034047  59.9356213  76.1940879
  97.7194047  58.6786213  76.3660879  99.1324047  58.3956213  76.6520879
  99.6864047  59.7606213  76.6080879  98.7174047  60.6526213  76.3390879
  96.6044047  60.3606213  75.9870879  96.9514047  57.9156213  76.3090879
  99.5424047  57.8116213  75.9380879  99.2484047  57.9836213  77.5670879
 100.7424047  59.9096213  76.7830879  98.7524047  61.7266213  76.2320879
  57.7164047  29.1196213  45.3780879  57.1554047  30.1946213  44.9480879
  57.8854047  31.4006213  45.3630879  58.9884047  30.7896213  46.1260879
  58.8754047  29.4506213  46.1240879  57.3884047  28.1716213  45.2130879
  56.2514047  30.2126213  44.3500879  57.3164047  31.9906213  45.9530879
  58.2324047  31.9146213  44.5660879  59.7324047  31.4266213  46.5810879
  59.4914047  28.6866213  46.5730879 118.9014047  74.7996213  66.3680879
 117.8514047  75.5396213  66.4400879 118.1494047  76.9476213  66.1440879
 119.5974047  76.8606213  65.8870879 120.0224047  75.5926213  66.0220879
 118.9334047  73.7966213  66.5320879 116.8624047  75.1716213  66.6870879
 117.9544047  77.5396213  66.9390879 117.6504047  77.2656213  65.3260879
 120.1444047  77.7566213  65.6320879 121.0054047  75.1596213  65.9110879
  46.9154047  73.3866213  25.6770879  45.7994047  73.3486213  26.3150879
  45.1844047  74.6776213  26.4300879  46.1864047  75.4926213  25.7210879
  47.1954047  74.7196213  25.2840879  47.5134047  72.5896213  25.4770879
  45.3604047  72.4436213  26.7220879  45.0994047  74.9616213  27.3960879
  44.2884047  74.7116213  25.9640879  46.0294047  76.5566213  25.6220879
  48.0914047  74.9666213  24.7340879  40.8384047  39.9596213  77.6740879
  42.0134047  40.0666213  77.1610879  42.1824047  39.1996213  75.9860879
  40.8514047  38.5686213  75.9330879  40.0754047  39.0256213  76.9300879
  40.4984047  40.4636213  78.4890879  42.7894047  40.7186213  77.5450879
  42.9064047  38.5116213  76.1370879  42.3644047  39.7396213  75.1520879
  40.6374047  37.8506213  75.1550879  39.0554047  38.7926213  77.1990879
  46.9474047 105.3286213  43.5170879  46.9164047 106.0946213  42.4840879
  47.5774047 105.4816213  41.3240879  47.9964047 104.1966213  41.9100879
  47.6184047 104.1226213  43.1970879  46.5524047 105.5446213  44.4290879
  46.4574047 107.0766213  42.4670879  48.3754047 106.0246213  41.0250879
  46.9294047 105.3426213  40.5620879  48.5284047 103.4836213  41.2970879
  47.7514047 103.3416213  43.9310879  58.4714047  45.7086213  31.4210879
  59.3364047  46.5666213  31.0060879  60.7114047  46.1616213  31.3310879
  60.4534047  44.8866213  32.0220879  59.1334047  44.6356213  32.0660879
  57.4634047  45.7806213  31.3080879  59.0854047  47.4796213  30.4790879
  61.1554047  46.8276213  31.9460879  61.2614047  46.0196213  30.4950879
  61.2854047  44.3126213  32.4020879  58.5834047  43.8066213  32.4870879
  83.7514047 121.4586213  58.9530879  82.6394047 121.1546213  58.3810879
  81.4784047 121.6436213  59.1390879  82.1604047 122.2936213  60.2720879
  83.4934047 122.1766213  60.1470879  84.6784047 121.2246213  58.6090879
  82.5624047 120.6046213  57.4500879  80.8964047 120.8806213  59.4520879
  80.9424047 122.3106213  58.6030879  81.5714047 122.7706213  61.0410879
  84.2984047 122.5246213  60.7780879  95.4344047 111.4976213  58.3930879
  96.2264047 110.4936213  58.2450879  97.6384047 110.8866213  58.3480879
  97.4904047 112.3336213  58.5870879  96.1914047 112.6756213  58.6110879
  94.4184047 111.4616213  58.3610879  95.8954047 109.4776213  58.0670879
  98.1344047 110.7076213  57.4870879  98.0914047 110.4326213  59.1280879
  98.3744047 112.9416213  58.7120879  95.7124047 113.6316213  58.7590879
  48.9264047  67.1446213  73.0530879  50.0694047  67.4856213  73.5350879
  50.7974047  66.3376213  74.0920879  49.8284047  65.2596213  73.8280879
  48.7364047  65.7496213  73.2170879  48.2544047  67.7706213  72.6170879
  50.4534047  68.4996213  73.5320879  50.9584047  66.4486213  75.0830879
  51.6654047  66.1776213  73.6010879  50.0664047  64.2486213  74.1260879
  47.8344047  65.2616213  72.8770879 106.1694047  25.2756213  63.9400879
 105.8674047  24.9726213  62.7270879 104.6384047  24.1716213  62.6480879
 104.2954047  24.0766213  64.0780879 105.2034047  24.7306213  64.8230879
 106.9744047  25.8226213  64.2330879 106.4484047  25.2716213  61.8620879
 104.8174047  23.2586213  62.2550879 103.9164047  24.6526213  62.1300879
 103.4114047  23.5326213  64.3760879 105.2754047  24.8716213  65.8910879
 101.2984047  45.7986213  53.9750879 102.1904047  46.6976213  54.2030879
 101.7084047  47.7276213  55.1330879 100.3464047  47.2306213  55.3930879
 100.1214047  46.0966213  54.7060879 101.4094047  44.9926213  53.3660879
 103.1814047  46.6976213  53.7630879 101.6884047  48.6376213  54.6960879
 102.2594047  47.7466213  55.9800879  99.7014047  47.7796213  56.0620879
  99.2504047  45.4616213  54.6520879 106.0124047  42.9286213  70.2750879
 106.1584047  41.7446213  69.7930879 106.9624047  40.8866213  70.6740879
 107.2484047  41.8306213  71.7680879 106.6834047  43.0246213  71.5190879
 105.4954047  43.6876213  69.8390879 105.7394047  41.4146213  68.8490879
 107.8124047  40.5856213  70.2190879 106.4294047  40.0946213  71.0040879
 107.8414047  41.5026213  72.6090879 106.6814047  43.9416213  72.0890879
 104.8764047  46.1086213  48.5950879 103.7294047  45.6436213  48.9450879
 102.6644047  46.0486213  48.0150879 103.4464047  46.8466213  47.0550879
 104.7424047  46.8716213  47.4080879 105.7534047  45.9576213  49.0860879
 103.5624047  45.0256213  49.8200879 101.9674047  46.6126213  48.4780879
 102.2424047  45.2476213  47.5680879 102.9434047  47.3046213  46.2150879
 105.5934047  47.3506213  46.9480879  38.4494047  96.7026213  74.6900879
  37.5024047  97.5726213  74.7180879  36.1784047  96.9486213  74.5840879
  36.5664047  95.5316213  74.4710879  37.9024047  95.4046213  74.5360879
  39.4434047  96.9046213  74.7660879  37.6574047  98.6396213  74.8290879
  35.7054047  97.2656213  73.7500879  35.6104047  97.1086213  75.4040879
  35.7984047  94.7806213  74.3560879  38.5344047  94.5306213  74.4890879
  62.2184047 117.3336213  49.2690879  63.0904047 118.1386213  48.7720879
  62.7684047 118.5146213  47.3890879  61.5214047 117.7526213  47.1940879
  61.2134047 117.0656213  48.3070879  62.2374047 116.9436213  50.2080879
  63.9614047 118.5006213  49.3070879  63.4864047 118.2106213  46.7470879
  62.6064047 119.5086213  47.3050879  61.0074047 117.8116213  46.2460879
  60.3844047 116.4096213  48.5290879  63.4794047  90.2786213  18.3230879
  64.7354047  90.5276213  18.2030879  64.9824047  91.7676213  17.4530879
  63.5964047  92.1786213  17.1660879  62.7274047  91.2946213  17.6840879
  63.0764047  89.4776213  18.8020879  65.5234047  89.9006213  18.6060879
  65.4934047  91.5866213  16.6010879  65.4574047  92.4536213  18.0210879
  63.4194047  93.0866213  16.6080879  61.6474047  91.2716213  17.6710879
 114.7914047 101.1226213  91.3470879 113.6734047 101.3096213  91.9550879
 113.5694047 100.5006213  93.1780879 114.8684047  99.8046213  93.1420879
 115.5734047 100.1816213  92.0620879 115.0804047 101.5746213  90.4830879
 112.8974047 101.9846213  91.6120879 112.8034047  99.8456213  93.1210879
 113.4884047 101.0816213  93.9990879 115.1174047  99.1086213  93.9300879
 116.5524047  99.8856213  91.7150879  60.0874047  51.5326213 120.4750879
  59.6124047  50.5726213 119.7630879  58.2034047  50.7946213 119.4090879
  57.9684047  52.0896213 120.0720879  59.0844047  52.5096213 120.6920879
  61.0374047  51.5926213 120.8330879  60.1804047  49.7016213 119.4570879
  57.6094047  50.0746213 119.7940879  58.0814047  50.8676213 118.4090879
  56.9934047  52.5506213 120.0020879  59.2824047  53.4006213 121.2690879
  74.1034047 113.1796213  29.5370879  74.0484047 113.8126213  30.6560879
  73.9524047 115.2656213  30.4630879  73.9644047 115.3356213  28.9920879
  74.0524047 114.1036213  28.4640879  74.1724047 112.1716213  29.4280879
  74.0694047 113.3336213  31.6290879  74.7504047 115.7426213  30.8580879
  73.0904047 115.6316213  30.8400879  73.9044047 116.2996213  28.5070879
  74.0854047 113.7726213  27.4360879  39.7364047  67.5566213  41.3430879
  39.8664047  66.2926213  41.5500879  41.2774047  65.8906213  41.6330879
  41.9334047  67.1936213  41.4290879  41.0154047  68.1606213  41.2610879
  38.8564047  68.0556213  41.2510879  39.0354047  65.6036213  41.6520879
  41.5184047  65.2406213  40.8980879  41.4984047  65.5076213  42.5410879
  43.0124047  67.2496213  41.4340879  41.1264047  69.2216213  41.0900879
  30.1954047  68.4806213  97.0970879  31.1274047  68.7856213  96.2650879
  32.4654047  68.5986213  96.8430879  32.1034047  68.1216213  98.1900879
  30.7674047  68.0576213  98.3230879  29.1964047  68.5316213  96.9150879
  30.9514047  69.1366213  95.2550879  32.9714047  69.4716213  96.8890879
  32.9914047  67.9016213  96.3370879  32.8864047  67.8836213  98.8950879
  30.1514047  67.7566213  99.1570879 117.2024047  69.4456213  76.9610879
 115.9164047  69.4096213  76.9380879 115.3254047  70.7506213  77.0430879
 116.5474047  71.5696213  77.1310879 117.6404047  70.7886213  77.0810879
 117.8204047  68.6416213  76.9020879 115.3344047  68.4996213  76.8510879
 114.7634047  70.8416213  77.8770879 114.7894047  70.9826213  76.2190879
 116.4604047  72.6426213  77.2200879 118.6904047  71.0356213  77.1180879
  94.0734047  49.4996213  88.1910879  94.8234047  50.5446213  88.1550879
  95.2234047  50.9816213  89.4990879  94.5434047  49.9636213  90.3190879
  93.8734047  49.1016213  89.5360879  93.6794047  49.0226213  87.3840879
  95.1264047  51.0456213  87.2430879  94.8764047  51.9076213  89.7040879
  96.2254047  50.9366213  89.6180879  94.6384047  50.0006213  91.3940879
  93.2704047  48.2406213  89.7840879 108.0984047  96.6866213 109.3390879
 109.2134047  96.1076213 109.6160879 110.3534047  96.7686213 108.9670879
 109.6564047  97.8536213 108.2550879 108.3334047  97.7916213 108.4840879
 107.1824047  96.4036213 109.6770879 109.3054047  95.2356213 110.2540879
 110.8194047  96.1476213 108.3210879 111.0034047  97.1356213 109.6480879
 110.2294047  98.5486213 107.6580879 107.5234047  98.4136213 108.1330879
  87.0364047 105.1066213  36.3460879  87.8304047 104.1016213  36.2290879
  89.1924047 104.5136213  35.8620879  89.0124047 105.9746213  35.7920879
  87.7424047 106.3066213  36.0790879  86.0514047 105.0606213  36.5930879
  87.5344047 103.0696213  36.3830879  89.4624047 104.1356213  34.9650879
  89.8594047 104.2606213  36.5770879  89.8564047 106.5996213  35.5360879
  87.2544047 107.2686213  36.1240879  53.8274047 109.3536213  39.0910879
  54.0474047 108.3496213  39.8650879  54.2234047 107.1006213  39.1100879
  54.0554047 107.6006213  37.7340879  53.8244047 108.9246213  37.7410879
  53.6764047 110.3126213  39.3920879  54.0994047 108.4126213  40.9460879
  53.5084047 106.4266213  39.3430879  55.1454047 106.7126213  39.2490879
  54.1294047 106.9096213  36.9080879  53.6564047 109.6186213  36.9310879
 114.7234047  91.1806213  96.2530879 114.6054047  90.7246213  97.4500879
 113.3124047  91.0796213  98.0510879 112.7094047  91.8406213  96.9420879
 113.5504047  91.8896213  95.8950879 115.5304047  91.0566213  95.6470879
 115.3674047  90.1446213  97.9590879 113.4334047  91.6596213  98.8690879
 112.7684047  90.2576213  98.2680879 111.7204047  92.2576213  97.0630879
 113.4484047  92.3536213  94.9250879  47.1414047  97.5186213  68.1550879
  45.9784047  97.0366213  68.4170879  45.3464047  96.4456213  67.2290879
  46.3964047  96.6906213  66.2250879  47.4434047  97.3206213  66.7840879
  47.7604047  97.9736213  68.8210879  45.5154047  97.0606213  69.3970879
  44.4914047  96.9266213  66.9890879  45.1814047  95.4566213  67.3530879
  46.2404047  96.3646213  65.2070879  48.3784047  97.6546213  66.3600879
 115.1444047  35.8186213  57.4110879 114.0184047  36.2226213  57.8850879
 113.1944047  35.1076213  58.3720879 114.0884047  33.9736213  58.0770879
 115.2284047  34.4076213  57.5140879 115.8724047  36.4126213  57.0210879
 113.7104047  37.2606213  57.9230879 112.3304047  35.0356213  57.8550879
 113.0174047  35.1856213  59.3630879 113.7694047  32.9706213  58.3230879
 116.0994047  33.8696213  57.1710879  97.0454047  59.9706213  43.0620879
  97.8234047  60.3716213  44.0040879  97.8994047  61.8376213  44.0700879
  96.9974047  62.1956213  42.9610879  96.5034047  61.0886213  42.3810879
  96.8414047  59.0016213  42.8320879  98.3614047  59.7096213  44.6740879
  98.8384047  62.1656213  43.8970879  97.5514047  62.1856213  44.9520879
  96.8264047  63.2386213  42.7340879  95.8224047  60.9666213  41.5520879
  50.4414047 121.9286213  80.9760879  50.6764047 123.0836213  81.4920879
  50.3984047 123.1086213  82.9350879  49.9514047 121.7196213  83.1400879
  49.9834047 121.0406213  81.9810879  50.5624047 121.6796213  79.9980879
  51.0374047 123.9396213  80.9330879  49.6634047 123.7656213  83.1570879
  51.2334047 123.3076213  83.4680879  49.6624047 121.3976213  84.1300879
  49.7304047 120.0156213  81.7520879  90.2734047  20.2076213  63.0390879
  89.6574047  20.7226213  62.0340879  90.5894047  21.2236213  61.0140879
  91.8764047  20.8876213  61.6490879  91.6734047  20.2916213  62.8350879
  89.8344047  19.7986213  63.8590879  88.5784047  20.7806213  61.9450879
  90.4934047  22.2216213  60.8880879  90.4744047  20.7356213  60.1380879
  92.7964047  21.1326213  61.1390879  92.3714047  19.9126213  63.5670879
  75.3624047  89.4836213  31.8210879  75.8064047  89.0726213  30.6850879
  74.9944047  87.9756213  30.1410879  73.9874047  87.8416213  31.2080879
  74.2164047  88.7346213  32.1860879  75.7634047  90.2326213  32.3800879
  76.6754047  89.4856213  30.1850879  75.5374047  87.1296213  30.0430879
  74.5664047  88.2336213  29.2640879  73.2124047  87.0946213  31.1130879
  73.6914047  88.9246213  33.1100879  58.5124047  36.9186213  96.1030879
  57.3614047  36.3466213  96.1610879  57.4764047  34.8826213  96.2240879
  58.9424047  34.7336213  96.1880879  59.5344047  35.9376213  96.1180879
  58.6754047  37.9206213  96.0540879  56.4164047  36.8776213  96.1650879
  57.0454047  34.4446213  95.4220879  57.0924047  34.5186213  97.0840879
  59.3744047  33.7446213  96.2210879  60.5784047  36.2126213  96.0770879
 101.8464047  40.6106213  32.5160879 101.3534047  40.7676213  31.3380879
  99.9134047  41.0566213  31.3780879  99.6814047  41.0316213  32.8330879
 100.8264047  40.7696213  33.4860879 102.8194047  40.4046213  32.7300879
 101.9294047  40.6976213  30.4220879  99.3804047  40.3366213  30.9100879
  99.7084047  41.9656213  30.9900879  98.6874047  41.2136213  33.2130879
 101.0344047  40.6756213  34.5420879  79.1634047  83.0066213 123.6580879
  78.9914047  81.7586213 123.9190879  79.9184047  81.2786213 124.9530879
  80.6644047  82.5186213 125.2320879  80.2084047  83.5226213 124.4650879
  78.6364047  83.5496213 122.9800879  78.2504047  81.1316213 123.4360879
  80.5284047  80.5576213 124.5940879  79.4234047  80.9566213 125.7720879
  81.4494047  82.5076213 125.9730879  80.5104047  84.5576213 124.3980879
  68.1464047  89.5036213  29.4110879  67.8414047  88.7016213  28.4530879
  66.7404047  89.2216213  27.6290879  66.4764047  90.4956213  28.3200879
  67.3104047  90.6466213  29.3630879  68.8754047  89.3516213  30.1030879
  68.3354047  87.7546213  28.2700879  65.9354047  88.6126213  27.6650879
  67.0344047  89.3756213  26.6750879  65.6954047  91.1456213  27.9510879
  67.4064047  91.4446213  30.0840879 123.0604047 108.7416213  84.8040879
 122.7174047 107.5856213  85.2540879 121.4304047 107.1396213  84.7030879
 121.1034047 108.2876213  83.8390879 122.0704047 109.2186213  83.9080879
 123.9094047 109.2446213  85.0460879 123.3064047 107.0066213  85.9560879
 120.7394047 107.0226213  85.4310879 121.5334047 106.2926213  84.1630879
 120.1864047 108.2766213  83.2690879 122.1704047 110.1756213  83.4190879
  24.0264047  54.9376213  93.6050879  24.7624047  54.3986213  92.6980879
  25.5984047  55.3896213  92.0060879  25.1854047  56.6166213  92.7100879
  24.2634047  56.3346213  93.6450879  23.3724047  54.4466213  94.2080879
  24.7684047  53.3396213  92.4680879  25.3724047  55.4386213  91.0230879
  26.5814047  55.2026213  92.1420879  25.6304047  57.5616213  92.4310879
  23.7424047  56.9736213  94.3430879  89.4984047 120.5326213 100.6690879
  89.9354047 121.7186213 100.9060879  88.8444047 122.6986213 101.0060879
  87.6834047 121.8206213 100.7750879  88.0844047 120.5526213 100.5800879
  90.0714047 119.6996213 100.5610879  90.9834047 121.9716213 101.0200879
  88.9174047 123.4046213 100.2880879  88.8084047 123.1176213 101.9240879
  86.6894047 122.2446213 100.7850879  87.5204047 119.6526213 100.3850879
 108.4694047  79.9096213  92.9960879 108.6844047  81.1536213  92.7450879
 107.4744047  81.9686213  92.9240879 106.5154047  80.9266213  93.3330879
 107.1154047  79.7246213  93.3710879 109.1594047  79.1646213  92.9390879
 109.6424047  81.5566213  92.4370879 107.1924047  82.4046213  92.0570879
 107.5984047  82.6576213  93.6520879 105.4944047  81.2036213  93.5490879
 106.7304047  78.7476213  93.6240879 119.2024047  90.5016213  91.4500879
 119.5894047  89.2866213  91.6260879 118.5624047  88.3176213  91.2210879
 117.4984047  89.2346213  90.7750879 117.8904047  90.5116213  90.9150879
 119.7464047  91.3346213  91.6600879 120.5584047  89.0076213  92.0240879
 118.2574047  87.7566213  92.0030879 118.8854047  87.7336213  90.4620879
 116.5704047  88.8266213  90.4020879 117.3814047  91.4386213  90.6940879
  33.7654047  68.7966213  38.9580879  33.3144047  69.8286213  38.3370879
  34.1354047  71.0226213  38.5840879  35.1574047  70.4566213  39.4820879
  34.9264047  69.1486213  39.6900879  33.3604047  67.8646213  38.9340879
  32.4334047  69.8226213  37.7050879  33.6024047  71.7456213  39.0460879
  34.5484047  71.3686213  37.7300879  35.9404047  71.0956213  39.8610879
  35.4604047  68.4206213  40.2830879  57.8694047  62.6736213  36.4920879
  58.6624047  61.6706213  36.3470879  59.7194047  61.9426213  35.3630879
  59.3654047  63.3176213  34.9710879  58.2774047  63.7326213  35.6440879
  57.0694047  62.7116213  37.1180879  58.5664047  60.7346213  36.8860879
  59.6614047  61.3116213  34.5760879  60.6354047  61.9076213  35.7870879
  59.9674047  63.8306213  34.2350879  57.7414047  64.6686213  35.6150879
  71.8134047 124.4796213  80.6000879  72.2314047 124.3676213  79.3890879
  73.1564047 123.2366213  79.2270879  73.1834047 122.7216213  80.6080879
  72.3894047 123.4616213  81.4010879  71.1684047 125.1866213  80.9430879
  71.9364047 125.0256213  78.5790879  74.0714047 123.5486213  78.9360879
  72.7884047 122.5476213  78.5870879  73.7924047 121.8606213  80.8390879
  72.1664047 123.3816213  82.4540879  89.0674047  50.2016213  86.6250879
  88.4724047  50.8806213  87.5410879  88.9314047  50.5096213  88.8870879
  89.9194047  49.4706213  88.5490879  89.9874047  49.3026213  87.2170879
  88.9094047  50.2896213  85.6240879  87.7214047  51.6386213  87.3490879
  88.1774047  50.1306213  89.4420879  89.3684047  51.2906213  89.3560879
  90.4604047  48.9756213  89.3430879  90.5914047  48.6386213  86.6160879
  53.5434047 124.5756213 108.3610879  52.7354047 124.1456213 107.4570879
  51.8334047 123.1066213 107.9730879  52.2964047 123.0286213 109.3700879
  53.3004047 123.8966213 109.5810879  54.2534047 125.2916213 108.2310879
  52.7174047 124.5056213 106.4350879  51.9704047 122.2286213 107.4930879
  50.8674047 123.3986213 107.9240879  51.8214047 122.3336213 110.0470879
  53.8754047 124.1126213 110.4690879  40.1224047  43.8706213  91.2540879
  41.0574047  43.3256213  91.9490879  41.8224047  42.3436213  91.1700879
  41.1264047  42.4386213  89.8740879  40.1324047  43.3396213  89.9400879
  39.4694047  44.5766213  91.5850879  41.2604047  43.5616213  92.9880879
  41.7394047  41.4166213  91.5620879  42.7924047  42.6136213  91.0850879
  41.4564047  41.8216213  89.0500879  39.4224047  43.6676213  89.1960879
  54.0004047 104.9776213 107.2840879  54.5454047 105.2696213 106.1560879
  55.8454047 104.6046213 105.9840879  55.9324047 103.8666213 107.2560879
  54.8424047 104.0956213 108.0080879  53.1034047 105.3206213 107.6160879
  54.1024047 105.9256213 105.4160879  56.5944047 105.2766213 105.8990879
  55.8354047 103.9736213 105.1950879  56.7994047 103.2546213 107.4540879
  54.5644047 103.7296213 108.9850879  55.6794047  24.1846213  84.4040879
  54.8214047  23.3656213  84.9020879  53.4414047  23.8426213  84.7340879
  53.6884047  25.1146213  84.0310879  55.0064047  25.2996213  83.8450879
  56.6884047  24.0606213  84.4050879  55.0804047  22.4326213  85.3890879
  52.9944047  23.9996213  85.6260879  52.8994047  23.2096213  84.1640879
  52.8504047  25.7356213  83.7500879  55.5504047  26.1056213  83.3740879
  20.8644047  96.4166213  92.4600879  20.1294047  97.1476213  91.6980879
  20.9234047  97.8746213  90.6980879  22.2764047  97.4066213  91.0470879
  22.2244047  96.5516213  92.0830879  20.5324047  95.8286213  93.2190879
  19.0504047  97.2196213  91.7790879  20.8404047  98.8736213  90.8170879
  20.6734047  97.6006213  89.7580879  23.1234047  97.7666213  90.4810879
  23.0064047  96.0176213  92.6010879 117.0624047  68.0966213  37.4230879
 117.5034047  66.9756213  36.9720879 116.5594047  66.3496213  36.0360879
 115.4784047  67.3506213  36.0450879 115.7894047  68.3706213  36.8640879
 117.5454047  68.7036213  38.0810879 118.4574047  66.5416213  37.2460879
 116.2344047  65.4586213  36.3820879 116.9624047  66.2546213  35.1140879
 114.6004047  67.1876213  35.4370879 115.2454047  69.2686213  37.1160879
  74.6274047  76.7176213  20.4600879  74.4844047  77.9936213  20.5440879
  75.7634047  78.6766213  20.7820879  76.6754047  77.5196213  20.8160879
  75.9924047  76.3776213  20.6250879  73.8814047  76.0466213  20.2980879
  73.5344047  78.5086213  20.4510879  75.7614047  79.1666213  21.6650879
  75.9944047  79.3016213  20.0230879  77.7304047  77.6826213  20.9790879
  76.3244047  75.3506213  20.5880879 133.9564047  85.8136213  75.5300879
 133.5824047  85.1656213  76.5770879 134.7204047  84.5696213  77.2920879
 135.8314047  85.0136213  76.4310879 135.3664047  85.7426213  75.4020879
 133.3434047  86.3056213  74.8860879 132.5514047  85.0686213  76.8980879
 134.6544047  83.5626213  77.3130879 134.8074047  84.9466213  78.2250879
 136.8424047  84.7346213  76.6870879 135.8814047  86.2246213  74.5850879
  34.9824047 108.9836213  57.1940879  33.8294047 109.5306213  57.3570879
  33.8634047 110.9766213  57.0950879  35.2854047 111.1456213  56.7480879
  35.9274047 109.9666213  56.8100879  35.1944047 107.9976213  57.3190879
  32.9354047 108.9926213  57.6500879  33.6244047 111.5056213  57.9210879
  33.2654047 111.2256213  56.3210879  35.6544047 112.1286213  56.4920879
  36.9604047 109.7106213  56.6230879  93.0304047  59.6456213 108.9980879
  92.2164047  60.4656213 109.5640879  92.7234047  60.9376213 110.8600879
  94.0054047  60.2116213 110.9200879  94.1694047  59.4596213 109.8190879
  92.8874047  59.1946213 108.0980879  91.2684047  60.7756213 109.1390879
  92.1134047  60.6626213 111.6160879  92.8694047  61.9366213 110.8580879
  94.6474047  60.3426213 111.7780879  94.9754047  58.8046213 109.5210879
  29.2454047  98.1446213 107.7000879  29.8014047  99.1566213 108.2680879
  28.8164047 100.0436213 108.9010879  27.5704047  99.3266213 108.5740879
  27.8404047  98.2146213 107.8700879  29.7294047  97.4026213 107.2030879
  30.8704047  99.3356213 108.2820879  28.8284047 100.9636213 108.4840879
  28.9554047 100.0976213 109.9000879  26.6254047  99.7296213 108.9070879
  27.1864047  97.4556213 107.4650879 115.4594047  93.0016213  49.2430879
 114.2254047  92.6686213  49.0950879 114.0834047  91.3396213  48.4860879
 115.5014047  90.9776213  48.3130879 116.2954047  91.9636213  48.7640879
 115.7954047  93.8746213  49.6430879 113.3864047  93.2916213  49.3850879
 113.6084047  91.3916213  47.5960879 113.6144047  90.6966213  49.1080879
 115.7534047  90.0236213  47.8750879 117.3714047  92.0466213  48.7980879
 101.8794047  55.5936213 125.8780879 102.4544047  55.0096213 124.8860879
 101.6284047  53.9286213 124.3300879 100.4544047  54.0146213 125.2150879
 100.6164047  54.9966213 126.1170879 102.2624047  56.3676213 126.4140879
 103.4304047  55.2806213 124.5020879 102.0874047  53.0336213 124.4180879
 101.3774047  54.1126213 123.3690879  99.6304047  53.3306213 125.0690879
  99.9724047  55.3446213 126.9120879  31.8664047  42.3036213  95.7760879
  32.1014047  43.5456213  95.5360879  32.8594047  44.1826213  96.6220879
  33.0104047  43.0406213  97.5410879  32.4224047  41.9456213  97.0290879
  31.3594047  41.6666213  95.1670879  31.7814047  44.0646213  94.6400879
  32.3314047  44.9286213  97.0500879  33.7574047  44.5136213  96.2990879
  33.5414047  43.1766213  98.4710879  32.3344047  40.9416213  97.4170879
  46.5384047  65.7276213  70.2600879  46.7134047  66.9976213  70.1500879
  45.6344047  67.7596213  70.7940879  44.7984047  66.6556213  71.2980879
  45.3434047  65.4696213  70.9770879  47.1574047  65.0086213  69.8930879
  47.5554047  67.4556213  69.6440879  45.1304047  68.3226213  70.1230879
  45.9854047  68.3286213  71.5510879  43.8924047  66.8826213  71.8410879
  45.0154047  64.4606213  71.1780879  71.7764047 108.7066213  28.3640879
  72.8714047 108.8256213  27.6980879  72.7824047 109.8786213  26.6770879
  71.4014047 110.3416213  26.8970879  70.8254047 109.6436213  27.8910879
  71.6094047 108.0456213  29.1180879  73.7564047 108.2226213  27.8670879
  72.8974047 109.5006213  25.7480879  73.4484047 110.6176213  26.8510879
  71.0074047 111.1396213  26.2860879  69.8364047 109.7066213  28.3210879
  33.6494047  39.5106213  95.8050879  34.4264047  39.0896213  96.7410879
  34.1224047  37.7046213  97.1270879  33.0024047  37.4176213  96.2130879
  32.7384047  38.4876213  95.4440879  33.6764047  40.4346213  95.3820879
  35.2134047  39.6826213  97.1930879  33.8304047  37.6476213  98.0920879
  34.9054047  37.0926213  96.9490879  32.5324047  36.4456213  96.2410879
  31.9984047  38.6406213  94.6720879  49.1894047  83.8646213 131.7490879
  48.1234047  84.4966213 132.0930879  47.0194047  84.2686213 131.1500879
  47.6794047  83.3686213 130.1870879  48.9524047  83.1416213 130.5530879
  50.0734047  83.8746213 132.2500879  48.0434047  85.1236213 132.9740879
  46.7294047  85.1286213 130.7070879  46.2384047  83.8126213 131.6000879
  47.1204047  83.0006213 129.3390879  49.7254047  82.5426213 130.0960879
  38.2454047  28.2506213  97.0570879  39.4364047  28.4186213  97.5160879
  40.4404047  27.7076213  96.7130879  39.5734047  27.0936213  95.6920879
  38.2884047  27.4226213  95.9080879  37.3964047  28.6476213  97.4510879
  39.6744047  29.0126213  98.3910879  40.9174047  27.0046213  97.2590879
  41.0994047  28.3486213  96.2950879  40.0164047  26.4816213  94.9200879
  37.3894047  27.1596213  95.3710879  33.1214047  69.4296213  31.6850879
  32.4124047  69.3076213  32.7520879  31.0464047  69.8176213  32.5660879
  31.1214047  70.2616213  31.1630879  32.3454047  70.0256213  30.6610879
  34.0914047  69.1446213  31.5820879  32.7744047  68.8786213  33.6790879
  30.8564047  70.5926213  33.1850879  30.3604047  69.0856213  32.6820879
  30.2504047  70.7016213  30.7000879  32.7584047  70.2166213  29.6810879
  54.6794047  55.8706213 124.3910879  55.7124047  55.8476213 125.1580879
  56.7034047  56.8646213 124.7780879  56.0194047  57.4776213 123.6260879
  54.8334047  56.8836213 123.4120879  53.8704047  55.2596213 124.4660879
  55.8394047  55.1626213 125.9880879  57.5774047  56.4406213 124.5010879
  56.8454047  57.5356213 125.5190879  56.4984047  58.2896213 123.0980879
  54.0724047  57.0666213 122.6680879  85.3644047 124.6456213 104.8720879
  85.1934047 125.3186213 105.9550879  84.2054047 126.3936213 105.7870879
  83.8444047 126.1966213 104.3720879  84.5324047 125.1676213 103.8500879
  85.9964047 123.8586213 104.7550879  85.7134047 125.1176213 106.8850879
  84.6214047 127.3016213 105.9350879  83.4074047 126.2586213 106.3900879
  83.1134047 126.8486213 103.9170879  84.5264047 124.7406213 102.8580879
  57.3914047  70.1696213  15.5480879  58.5614047  69.6356213  15.5300879
  58.7634047  68.7926213  14.3440879  57.4574047  68.9546213  13.6820879
  56.6644047  69.7656213  14.4010879  57.0324047  70.7886213  16.2700879
  59.3134047  69.7876213  16.2960879  58.9264047  67.8286213  14.6000879
  59.5134047  69.1436213  13.7650879  57.2704047  68.4446213  12.7480879
  55.6544047  70.1066213  14.2280879  79.8274047  97.8546213 125.5330879
  79.7064047  99.1216213 125.3440879  81.0104047  99.7986213 125.2990879
  81.9094047  98.6486213 125.5030879  81.1994047  97.5156213 125.6370879
  79.0624047  97.1886213 125.5970879  78.7574047  99.6336213 125.2310879
  81.1024047 100.4706213 126.0470879  81.1694047 100.2326213 124.4010879
  82.9774047  98.8086213 125.5230879  81.5154047  96.4956213 125.7970879
 103.6504047  81.2706213  41.6490879 103.8154047  82.3626213  42.3090879
 102.7414047  83.3316213  42.0490879 101.9214047  82.5626213  41.0960879
 102.4674047  81.3556213  40.8730879 104.2664047  80.4626213  41.6730879
 104.6464047  82.5496213  42.9790879 103.1014047  84.1736213  41.6250879
 102.2244047  83.5426213  42.8900879 101.0214047  83.0066213  40.6950879
 102.1484047  80.5386213  40.2440879  37.2094047  29.4936213  68.7130879
  36.1894047  30.2256213  68.4290879  34.9744047  29.4236213  68.2270879
  35.5134047  28.0716213  68.4550879  36.8254047  28.1296213  68.7400879
  38.1504047  29.8316213  68.8930879  36.2184047  31.3066213  68.3480879
  34.6204047  29.5216213  67.2870879  34.2644047  29.6536213  68.9070879
  34.8534047  27.2196213  68.3800879  37.5394047  27.3496213  68.9600879
  65.8174047  42.2116213  84.9600879  64.7134047  41.6316213  85.2770879
  64.7154047  40.2076213  84.9140879  66.0584047  40.0916213  84.3180879
  66.6924047  41.2756213  84.3540879  66.0404047  43.1916213  85.1160879
  63.8794047  42.1306213  85.7560879  63.9954047  40.0006213  84.2360879
  64.6244047  39.6196213  85.7300879  66.3864047  39.1356213  83.9370879
  67.6754047  41.5636213  84.0130879 133.0614047  81.9836213  73.6470879
 132.0714047  81.2866213  74.0820879 131.9724047  79.9866213  73.4030879
 133.1174047  80.0856213  72.4810879 133.7464047  81.2626213  72.6370879
 133.3224047  82.9116213  73.9700879 131.3904047  81.6136213  74.8590879
 131.1024047  79.9016213  72.8970879 132.0894047  79.2216213  74.0520879
 133.3324047  79.2626213  71.8140879 134.6124047  81.6756213  72.1410879
  43.7134047  86.7156213  62.0830879  44.9164047  86.2636213  62.1380879
  45.9134047  87.3266213  61.9460879  45.0254047  88.4886213  61.7680879
  43.7374047  88.1136213  61.8520879  42.8664047  86.1636213  62.1900879
  45.1704047  85.2236213  62.3070879  46.4704047  87.1626213  61.1200879
  46.4984047  87.4346213  62.7620879  45.4574047  89.4646213  61.5990879
  42.8254047  88.6856213  61.7730879  47.8544047  26.3226213  88.2400879
  47.8214047  25.0786213  87.9150879  46.4704047  24.5136213  88.0360879
  45.7304047  25.6996213  88.5010879  46.5574047  26.7536213  88.6150879
  48.6784047  26.9176213  88.2320879  48.6854047  24.5106213  87.5890879
  46.4414047  23.7726213  88.7210879  46.1234047  24.1926213  87.1430879
  44.6704047  25.6206213  88.6930879  46.3704047  27.7716213  88.9240879
 104.7054047  28.6486213  64.7820879 103.4314047  28.4736213  64.7500879
 102.6994047  29.7456213  64.8130879 103.8254047  30.6926213  64.8890879
 104.9954047  30.0326213  64.8700879 105.4074047  27.9136213  64.7500879
 102.9504047  27.5046213  64.6830879 102.1214047  29.7976213  65.6390879
 102.1504047  29.8966213  63.9780879 103.6224047  31.7526213  64.9480879
 106.0134047  30.3926213  64.9090879 116.9844047  43.3326213  99.1890879
 116.4014047  44.0386213 100.0930879 115.7664047  45.2386213  99.5300879
 116.1094047  45.0736213  98.1070879 116.8234047  43.9496213  97.9230879
 117.4854047  42.4626213  99.3470879 116.3774047  43.7816213 101.1460879
 116.1734047  46.0816213  99.9080879 114.7664047  45.2266213  99.6690879
 115.7794047  45.8146213  97.3930879 117.2414047  43.5126213  97.0280879
  51.9654047 125.5376213  45.4620879  52.1654047 126.7756213  45.7490879
  53.5704047 127.1636213  45.5630879  54.1374047 125.8826213  45.1090879
  53.1824047 124.9386213  45.0540879  51.0734047 125.0516213  45.5160879
  51.3914047 127.4556213  46.0870879  53.9884047 127.4606213  46.4340879
  53.6644047 127.8776213  44.8550879  55.1914047 125.8236213  44.8760879
  53.2294047 123.8986213  44.7690879  95.4254047  27.0446213  64.4810879
  96.4074047  26.2366213  64.6770879  95.9994047  25.0486213  65.4400879
  94.5704047  25.3456213  65.6420879  94.2494047  26.5196213  65.0730879
  95.4734047  27.9266213  63.9790879  97.4174047  26.4086213  64.3230879
  96.4894047  24.9916213  66.3220879  96.1254047  24.2036213  64.9020879
  93.9564047  24.6436213  66.1880879  93.3094047  27.0486213  65.0200879
  94.9604047  92.7576213  54.8990879  93.9674047  91.9826213  54.6350879
  92.7614047  92.3556213  55.3880879  93.2724047  93.5116213  56.1440879
  94.5644047  93.7346213  55.8460879  95.8904047  92.6886213  54.4970879
  94.0104047  91.1526213  53.9390879  92.4704047  91.6126213  56.0070879
  92.0104047  92.6256213  54.7700879  92.6124047  94.0366213  56.8190879
  95.2544047  94.4846213  56.2020879 100.4534047  94.7166213 103.5250879
 101.5684047  94.0966213 103.3630879 101.6124047  93.3666213 102.0880879
 100.2814047  93.6996213 101.5500879  99.6144047  94.4926213 102.4050879
 100.2004047  95.2836213 104.3300879 102.3824047  94.1086213 104.0780879
 101.7094047  92.3726213 102.2360879 102.3474047  93.7166213 101.4880879
  99.9864047  93.3056213 100.5880879  98.6274047  94.9276213 102.3460879
  60.1274047  45.1606213 100.9830879  60.3194047  46.4316213 100.9620879
  59.1164047  47.1776213 101.3540879  58.1874047  46.0626213 101.6060879
  58.7964047  44.8846213 101.3850879  60.8174047  44.4506213 100.7500879
  61.2574047  46.9016213 100.6880879  58.7854047  47.7656213 100.6020879
  59.2744047  47.7186213 102.1930879  57.1774047  46.2766213 101.9240879
  58.4314047  43.8716213 101.4670879 109.3854047  24.6306213  77.3460879
 109.4674047  25.8686213  77.6860879 110.5064047  26.5796213  76.9290879
 111.0064047  25.4846213  76.0790879 110.3374047  24.3476213  76.3360879
 108.7384047  23.9496213  77.7360879 108.8454047  26.3366213  78.4410879
 111.2324047  26.9296213  77.5380879 110.1124047  27.3246213  76.3720879
 111.8054047  25.6806213  75.3780879 110.4314047  23.3586213  75.9120879
  58.4004047  27.2096213  98.1000879  58.1674047  28.1936213  97.3040879
  59.0034047  28.1366213  96.0970879  59.7704047  26.9076213  96.3690879
  59.4044047  26.3766213  97.5470879  57.9404047  27.0456213  98.9910879
  57.4394047  28.9746213  97.4970879  59.6114047  28.9396213  96.0330879
  58.4414047  28.0406213  95.2630879  60.5024047  26.5706213  95.6490879
  59.7454047  25.4906213  98.0620879 134.7554047  62.4326213  75.7150879
 133.9494047  61.4336213  75.6270879 134.6634047  60.1496213  75.6130879
 136.0554047  60.6226213  75.7100879 136.0924047  61.9646213  75.7690879
 134.4864047  63.4126213  75.7410879 132.8704047  61.5236213  75.5720879
 134.5064047  59.6506213  74.7490879 134.4144047  59.5806213  76.4090879
 136.8604047  59.9016213  75.7240879 136.9244047  62.6486213  75.8440879
 101.1754047  80.4476213 105.5850879 100.4404047  79.3936213 105.5130879
  99.0074047  79.7226213 105.5040879  99.0754047  81.1916213 105.5870879
 100.3544047  81.6016213 105.6330879 102.1914047  80.4616213 105.6050879
 100.8264047  78.3826213 105.4640879  98.5354047  79.3326213 106.3070879
  98.5664047  79.4236213 104.6450879  98.1584047  81.7636213 105.6000879
 100.7804047  82.5916213 105.6960879  73.3744047 103.9016213  50.4790879
  73.0764047 102.8876213  51.2110879  73.7234047 102.9506213  52.5290879
  74.4604047 104.2196213  52.3980879  74.2444047 104.7656213  51.1900879
  73.0424047 104.0696213  49.5330879  72.4234047 102.0806213  50.8980879
  74.3544047 102.1736213  52.6670879  73.0414047 102.9976213  53.2730879
  75.0614047 104.5696213  53.2250879  74.6134047 105.6796213  50.7480879
  46.2414047  92.1386213  94.0520879  46.9244047  93.2266213  93.9840879
  46.1244047  94.4036213  94.3480879  44.8314047  93.7606213  94.6410879
  44.9174047  92.4316213  94.4630879  46.5874047  91.2056213  93.8460879
  47.9684047  93.2736213  93.6930879  46.0454047  95.0486213  93.5740879
  46.4974047  94.8646213  95.1660879  43.9954047  94.3706213  94.9500879
  44.1804047  91.6516213  94.5830879  72.0384047  91.2076213 128.6500879
  70.7864047  91.4836213 128.7510879  70.0704047  91.2646213 127.4860879
  71.1804047  90.8036213 126.6330879  72.3284047  90.7756213 127.3320879
  72.7254047  91.2836213 129.3950879  70.3104047  91.8346213 129.6590879
  69.6724047  92.1246213 127.1350879  69.3614047  90.5516213 127.5820879
  70.9844047  90.5486213 125.6020879  73.3294047  90.4946213 127.0390879
 110.8624047  72.3796213  24.9880879 110.5254047  71.2066213  24.5790879
 109.1234047  71.1576213  24.1410879 108.7234047  72.5546213  24.3870879
 109.7554047  73.2586213  24.8830879 111.7794047  72.6456213  25.3360879
 111.1934047  70.3536213  24.5570879 108.5834047  70.5186213  24.7070879
 109.0514047  70.9236213  23.1620879 107.7134047  72.8636213  24.1610879
 109.8314047  74.2946213  25.1770879 102.4954047  89.1366213  47.5350879
 103.3324047  89.9066213  48.1360879 104.5994047  90.0246213  47.4020879
 104.3144047  89.1546213  46.2470879 103.0754047  88.6416213  46.3400879
 101.5594047  88.9096213  47.8580879 103.1294047  90.4126213  49.0730879
 105.3734047  89.6696213  47.9440879 104.7694047  90.9766213  47.1100879
 105.0704047  89.0196213  45.4870879 102.5334047  87.9746213  45.6870879
  37.5684047 106.0826213 109.7010879  37.3014047 105.4296213 110.7770879
  36.9844047 106.3236213 111.8990879  37.1274047 107.6336213 111.2390879
  37.4694047 107.4736213 109.9490879  37.8144047 105.6726213 108.8040879
  37.3064047 104.3486213 110.8510879  37.6494047 106.2196213 112.6520879
  36.0404047 106.1816213 112.2290879  36.9554047 108.5346213 111.8090879
  37.6574047 108.1986213 109.1710879  95.5464047  82.2576213  29.5790879
  96.3574047  81.2876213  29.3420879  97.7584047  81.7316213  29.3320879
  97.5804047  83.1666213  29.6130879  96.2764047  83.4596213  29.7570879
  94.5334047  82.1846213  29.6340879  96.0494047  80.2626213  29.1710879
  98.1834047  81.5866213  28.4270879  98.2934047  81.2796213  30.0590879
  98.4494047  83.8056213  29.6760879  95.7784047  84.3936213  29.9660879
  55.1444047  63.3416213  32.0630879  53.9724047  63.1626213  32.5610879
  54.0124047  63.0066213  34.0220879  55.4614047  63.1346213  34.2590879
  56.1104047  63.3316213  33.0990879  55.3574047  63.4726213  31.0780879
  53.0594047  63.1296213  31.9770879  53.6744047  62.0976213  34.3050879
  53.4994047  63.7426213  34.4860879  55.8404047  63.0646213  35.2680879
  57.1614047  63.4666213  32.8890879  89.9304047  39.3496213  28.2040879
  89.5444047  39.0416213  27.0160879  90.5724047  38.2936213  26.2790879
  91.6354047  38.2376213  27.2980879  91.2424047  38.8606213  28.4220879
  89.3854047  39.8646213  28.8910879  88.5754047  39.2996213  26.6040879
  90.8784047  38.7986213  25.4600879  90.2514047  37.3676213  26.0340879
  92.5644047  37.7366213  27.0670879  91.7514047  39.0156213  29.3620879
  92.9844047  26.6656213 100.5600879  93.7134047  27.6486213 100.9570879
  94.4564047  27.3236213 102.1830879  93.9974047  25.9416213 102.4070879
  93.1344047  25.5706213 101.4460879  92.3874047  26.6636213  99.7370879
  93.7764047  28.6046213 100.4500879  94.1874047  27.9266213 102.9470879
  95.4534047  27.3576213 102.0290879  94.3694047  25.3926213 103.2600879
  92.6044047  24.6426213 101.2890879  67.0914047  32.1316213  42.1230879
  68.3174047  32.4866213  41.9660879  69.2264047  31.3316213  41.9370879
  68.2594047  30.2336213  42.1130879  67.0104047  30.7206213  42.2200879
  66.2934047  32.7596213  42.1720879  68.6464047  33.5146213  41.8650879
  69.8854047  31.3636213  42.7020879  69.7044047  31.2606213  41.0510879
  68.6144047  29.2146213  42.1370879  66.0634047  30.2196213  42.3550879
  34.3654047  78.7456213 106.4280879  33.2354047  78.1886213 106.1660879
  33.3144047  76.7226213 106.2420879  34.7334047  76.5556213 106.6030879
  35.3354047  77.7526213 106.7090879  34.5454047  79.7466213 106.4350879
  32.3304047  78.7306213 105.9200879  33.1124047  76.2966213 105.3500879
  32.7084047  76.3576213 106.9630879  35.1304047  75.5606213 106.7410879
  36.3534047  78.0146213 106.9540879  84.9694047  27.5766213  94.2190879
  85.0744047  27.8956213  92.9770879  86.1554047  28.8646213  92.7470879
  86.6504047  29.0356213  94.1240879  85.9444047  28.2726213  94.9760879
  84.2944047  26.9246213  94.6100879  84.4434047  27.4986213  92.1910879
  85.7974047  29.7326213  92.3760879  86.8704047  28.4816213  92.1450879
  87.4754047  29.7086213  94.3090879  86.0244047  28.1436213  96.0450879
  27.4424047 111.2956213  98.3950879  28.7254047 111.3826213  98.4510879
  29.3644047 110.0606213  98.5100879  28.1744047 109.1916213  98.4750879
  27.0554047 109.9326213  98.4070879  26.7964047 112.0776213  98.3470879
  29.2734047 112.3176213  98.4550879  29.8814047 109.9386213  99.3690879
  29.9574047 109.9016213  97.7070879  28.3014047 108.1196213  98.5050879
  26.0154047 109.6426213  98.3660879  60.5994047  26.0006213  89.9670879
  60.7234047  27.2816213  89.9490879  62.1334047  27.6986213  89.9500879
  62.7954047  26.3826213  89.9740879  61.8814047  25.3966213  89.9830879
  59.7214047  25.4896213  89.9700879  59.8904047  27.9746213  89.9340879
  62.3574047  28.2356213  90.7760879  62.3664047  28.2106213  89.1120879
  63.8744047  26.3336213  89.9800879  61.9974047  24.3236213  89.9990879
 116.5524047  88.0566213  76.8610879 117.4724047  87.3826213  77.4560879
 117.0184047  86.0336213  77.8200879 115.6374047  86.0746213  77.3080879
 115.3804047  87.2686213  76.7480879 116.6414047  89.0106213  76.5190879
 118.4664047  87.7606213  77.6640879 117.0334047  85.8976213  78.8210879
 117.5624047  85.3226213  77.3510879 115.0054047  85.2056213  77.4200879
 114.4874047  87.6526213  76.2760879 102.3374047 126.1576213  55.8930879
 101.9394047 125.0036213  56.3000879 102.9224047 123.9496213  56.0120879
 103.9714047 124.7446213  55.3500879 103.6134047 126.0376213  55.2890879
 101.8234047 127.0296213  55.9860879 100.9934047 124.8256213  56.7980879
 102.5424047 123.2536213  55.3860879 103.2664047 123.5236213  56.8600879
 104.8674047 124.2516213  55.0010879 104.1244047 126.8966213  54.8810879
  98.3554047  79.3266213  45.8990879  99.4144047  78.6826213  46.2410879
  99.1074047  77.3206213  46.6990879  97.6414047  77.3186213  46.5500879
  97.2164047  78.5036213  46.0780879  98.3274047  80.2816213  45.5520879
 100.4174047  79.0906213  46.1960879  99.3764047  77.1876213  47.6640879
  99.5364047  76.6256213  46.1050879  97.0834047  76.4316213  46.8110879
  96.2224047  78.8596213  45.8480879 110.0504047  60.7076213  72.8790879
 110.2824047  61.3646213  71.7980879 110.9584047  62.6426213  72.0640879
 111.0654047  62.5816213  73.5320879 110.5284047  61.4396213  73.9950879
 109.5944047  59.8006213  72.9370879 110.0144047  61.0206213  70.8050879
 110.3924047  63.4266213  71.7710879 111.8704047  62.6746213  71.6310879
 111.5314047  63.3986213  74.0630879 110.4294047  61.0586213  75.0000879
  34.4334047  45.9956213 110.9290879  33.3624047  46.6636213 110.6800879
  32.1554047  45.8316213 110.7910879  32.7624047  44.5396213 111.1560879
  34.0994047  44.6526213 111.2330879  35.3804047  46.3646213 110.9130879
  33.3464047  47.7166213 110.4210879  31.6694047  45.7706213 109.9090879
  31.5424047  46.1666213 111.5200879  32.1244047  43.6826213 111.3170879
  34.8604047  43.9246213 111.4720879 117.9344047 105.1736213  44.0220879
 117.4894047 105.2476213  45.2270879 118.3634047 106.0566213  46.0880879
 119.4094047 106.4326213  45.1200879 119.1424047 105.9066213  43.9120879
 117.4954047 104.6686213  43.2570879 116.5784047 104.7726213  45.5710879
 118.7464047 105.5076213  46.8440879 117.8824047 106.8716213  46.4410879
 120.2334047 107.0516213  45.4440879 119.6784047 105.9706213  42.9770879
  55.3724047  83.3626213  16.3700879  55.5524047  84.0126213  17.4650879
  56.5984047  85.0366213  17.3330879  56.9834047  84.8366213  15.9240879
  56.2544047  83.8506213  15.3740879  54.7024047  82.6106213  16.2290879
  54.9994047  83.8316213  18.3800879  57.3734047  84.8536213  17.9530879
  56.2274047  85.9646213  17.4820879  57.7574047  85.4546213  15.4950879
  56.2614047  83.4356213  14.3770879  46.6484047 130.8546213  75.5320879
  47.3514047 131.1476213  74.4960879  47.7774047 129.9486213  73.7620879
  47.1694047 128.8996213  74.5990879  46.5094047 129.4476213  75.6340879
  46.2474047 131.5216213  76.1860879  47.6014047 132.1586213  74.1950879
  48.7834047 129.8646213  73.7450879  47.3984047 129.9346213  72.8260879
  47.2984047 127.8626213  74.3250879  45.9514047 128.9946213  76.4390879
 130.8074047  84.6646213  55.3070879 129.6924047  85.3076213  55.3120879
 129.7924047  86.5766213  56.0460879 131.2044047  86.5276213  56.4630879
 131.7864047  85.4006213  56.0210879 130.9724047  83.7666213  54.8610879
 128.7854047  84.9576213  54.8330879 129.1754047  86.5896213  56.8450879
 129.6164047  87.3666213  55.4410879 131.6134047  87.3436213  57.0420879
 132.7954047  85.0316213  56.1330879  39.2604047  74.1166213 123.5770879
  39.4484047  74.8086213 124.6450879  40.6874047  74.4266213 125.3370879
  41.1734047  73.3646213 124.4390879  40.3244047  73.1956213 123.4110879
  38.4724047  74.2076213 122.9420879  38.7764047  75.5826213 124.9960879
  40.4974047  74.0656213 126.2610879  41.3394047  75.1976213 125.3790879
  42.0984047  72.8576213 124.6700879  40.3554047  72.5176213 122.5700879
  87.4794047 100.0676213  37.5790879  88.3844047 100.3346213  36.7050879
  88.0384047  99.8106213  35.3760879  86.7384047  99.1836213  35.6720879
  86.4244047  99.3436213  36.9690879  87.5054047 100.3306213  38.5600879
  89.2954047 100.8806213  36.9180879  88.7114047  99.1256213  35.0630879
  87.9404047 100.5556213  34.7000879  86.1954047  98.6906213  34.8790879
  85.5624047  99.0226213  37.5350879  73.0184047  13.2756213  79.5110879
  72.1704047  13.5376213  80.4420879  71.7764047  14.9526213  80.4470879
  72.5804047  15.4526213  79.3180879  73.3034047  14.4556213  78.7800879
  73.4284047  12.3656213  79.3200879  71.7874047  12.8026213  81.1420879
  72.0384047  15.4046213  81.3110879  70.7874047  15.0616213  80.2680879
  72.5204047  16.4956213  79.0460879  73.9964047  14.4496213  77.9510879
 104.5134047  25.4546213  95.1040879 103.3564047  24.9286213  95.3050879
 103.1244047  23.7596213  94.4450879 104.3974047  23.7246213  93.7030879
 105.2014047  24.7256213  94.1020879 104.8874047  26.2676213  95.5840879
 102.6344047  25.3006213  96.0240879 102.3434047  23.9096213  93.8230879
 102.9964047  22.9206213  94.9910879 104.5574047  22.9546213  92.9620879
 106.1944047  25.0056213  93.7850879 104.5294047 107.0216213  83.0010879
 104.5084047 108.0836213  83.7280879 105.0984047 109.2366213  83.0340879
 105.4654047 108.6106213  81.7510879 105.1244047 107.3116213  81.7480879
 104.1754047 106.1086213  83.2740879 104.1034047 108.1276213  84.7320879
 105.9154047 109.5796213  83.5200879 104.4214047 109.9736213  82.9010879
 105.9394047 109.2096213  80.9870879 105.2374047 106.5496213  80.9900879
 101.2644047  35.7206213  79.9580879 102.3134047  36.1326213  80.5780879
 102.8964047  35.0876213  81.4310879 101.9564047  33.9836213  81.1710879
 101.0054047  34.3706213  80.3040879 100.6994047  36.2696213  79.3160879
 102.7234047  37.1316213  80.4830879 102.8824047  35.3576213  82.4040879
 103.8324047  34.8496213  81.1350879 102.1064047  33.0336213  81.6630879
 100.1634047  33.8356213  79.8890879  53.9194047  86.8536213 112.7540879
  54.6054047  86.8776213 111.6660879  54.1154047  85.8996213 110.6840879
  52.9994047  85.3056213 111.4410879  52.8974047  85.8776213 112.6530879
  54.0764047  87.4416213 113.5680879  55.4454047  87.5396213 111.4890879
  54.8204047  85.2086213 110.4710879  53.7874047  86.3526213 109.8440879
  52.4084047  84.5246213 110.9860879  52.2074047  85.6996213 113.4650879
  95.7144047  69.3926213  35.2600879  95.1654047  70.5366213  35.4710879
  93.7004047  70.4706213  35.3710879  93.5234047  69.0426213  35.0560879
  94.7144047  68.4236213  34.9950879  96.7124047  69.2006213  35.2780879
  95.7134047  71.4436213  35.6970879  93.3564047  71.0556213  34.6220879
  93.2594047  70.7096213  36.2480879  92.5254047  68.6516213  34.9140879
  94.9694047  67.3936213  34.7910879  36.5534047  57.0416213  73.4840879
  36.9254047  55.8376213  73.2250879  37.9194047  55.7886213  72.1440879
  38.0394047  57.2246213  71.8330879  37.2314047  57.9456213  72.6290879
  35.8764047  57.3146213  74.1910879  36.5544047  54.9606213  73.7420879
  37.5734047  55.2706213  71.3490879  38.7984047  55.4096213  72.4670879
  38.7164047  57.5416213  71.0530879  37.0584047  59.0106213  72.6860879
  69.1284047 106.4716213  60.0570879  68.9444047 105.3296213  60.6190879
  67.5234047 104.9556213  60.6540879  66.9274047 106.1296213  59.9920879
  67.8824047 107.0096213  59.6470879  70.0264047 106.9296213  59.9210879
  69.7404047 104.7116213  61.0190879  67.1914047 104.8636213  61.6030879
  67.3514047 104.1116213  60.1270879  65.8574047 106.1716213  59.8540879
  67.8194047 107.9666213  59.1520879  36.2704047  77.0246213  41.0100879
  35.2574047  77.6016213  41.5550879  35.1974047  79.0336213  41.2300879
  36.3954047  79.1586213  40.3810879  37.0134047  77.9716213  40.2620879
  36.5114047  76.0406213  41.0970879  34.5304047  77.0946213  42.1800879
  35.2774047  79.6026213  42.0610879  34.3594047  79.2596213  40.7160879
  36.6484047  80.1216213  39.9620879  37.9064047  77.6876213  39.7240879
  45.0864047  54.0736213  39.7450879  45.3064047  54.5086213  38.5540879
  46.2674047  55.6206213  38.5430879  46.5534047  55.7336213  39.9840879
  45.8534047  54.8186213  40.6750879  44.4604047  53.3116213  39.9920879
  44.8414047  54.1056213  37.6620879  45.8464047  56.4666213  38.1860879
  47.0994047  55.3836213  38.0210879  47.2494047  56.4856213  40.3270879
  45.8114047  54.6086213  41.7330879 116.3024047  75.8556213  85.5410879
 115.6544047  74.7456213  85.6030879 115.9404047  74.0096213  86.8420879
 116.8954047  74.9326213  87.4810879 117.0964047  76.0116213  86.7050879
 116.2594047  76.5266213  84.7790879 114.9754047  74.3926213  84.8360879
 116.3704047  73.1166213  86.6480879 115.1094047  73.8956213  87.4040879
 117.3134047  74.6776213  88.4440879 117.7194047  76.8816213  86.8480879
  95.1924047  59.0106213 121.5020879  96.4564047  59.2136213 121.3760879
  97.2354047  57.9866213 121.5950879  96.1474047  57.0326213 121.8750879
  94.9554047  57.6496213 121.8160879  94.4654047  59.7126213 121.3950879
  96.8994047  60.1726213 121.1360879  97.8534047  58.0786213 122.3880879
  97.7484047  57.7226213 120.7660879  96.3894047  56.0006213 122.0860879
  93.9544047  57.2726213 121.9640879  86.4274047  53.2156213 115.4000879
  87.0864047  52.4186213 116.1640879  87.8754047  51.4446213 115.3960879
  87.5284047  51.8526213 114.0230879  86.6784047  52.8936213 114.0430879
  85.8164047  53.9666213 115.7100879  87.0664047  52.4566213 117.2470879
  87.5754047  50.4986213 115.5830879  88.8644047  51.5516213 115.5700879
  87.9574047  51.3186213 113.1880879  86.2174047  53.4476213 113.2390879
  92.9324047 126.1626213  76.7510879  92.2424047 126.5576213  75.7400879
  90.8594047 126.8896213  76.1120879  90.9004047 126.5996213  77.5560879
  92.1244047 126.1746213  77.9150879  93.9094047 125.8826213  76.7310879
  92.6304047 126.6386213  74.7310879  90.1974047 126.2916213  75.6380879
  90.6544047 127.8636213  75.9400879  90.0104047 126.7456213  78.1510879
  92.5174047 125.8766213  78.8760879  91.4534047 120.8586213  75.4940879
  91.6294047 121.7836213  74.6170879  91.6924047 123.1176213  75.2300879
  91.5134047 122.7626213  76.6490879  91.3754047 121.4336213  76.7870879
  91.3804047 119.8626213  75.3000879  91.7224047 121.6046213  73.5520879
  90.9414047 123.7086213  74.9040879  92.5894047 123.5536213  75.0720879
  91.5114047 123.5456213  77.3940879  91.2294047 120.8226213  77.6650879
 103.3984047  81.8246213  37.4820879 104.0494047  80.7726213  37.1290879
 103.2354047  79.5546213  37.2520879 101.9754047  80.1316213  37.7530879
 102.0874047  81.4646213  37.8820879 103.7594047  82.7756213  37.4790879
 105.0754047  80.7796213  36.7810879 103.6344047  78.9116213  37.9200879
 103.1034047  79.1086213  36.3560879 101.1384047  79.4786213  37.9540879
 101.3774047  82.2066213  38.2160879 127.5864047  93.9966213  84.2320879
 128.2634047  92.9616213  83.8750879 129.6464047  93.3056213  83.5180879
 129.6224047  94.7606213  83.7450879 128.4064047  95.1506213  84.1650879
 126.6114047  93.9976213  84.5210879 127.8644047  91.9546213  83.8420879
 129.8414047  93.0896213  82.5510879 130.3094047  92.8506213  84.1310879
 130.5174047  95.3396213  83.5690879 128.0244047  96.1266213  84.4250879
  64.4464047  73.5866213 127.4320879  64.5964047  73.1536213 126.2300879
  65.9634047  72.6746213 125.9840879  66.5704047  72.9256213 127.3040879
  65.6664047  73.4596213 128.1420879  63.5874047  73.9636213 127.8250879
  63.8104047  73.1406213 125.4840879  66.4194047  73.2166213 125.2640879
  65.9744047  71.6906213 125.7580879  67.6084047  72.6736213 127.4650879
  65.7514047  73.7686213 129.1730879  55.8924047  42.4566213 100.4090879
  56.5444047  43.1706213  99.5600879  57.6164047  42.4076213  98.9060879
  57.4434047  41.0996213  99.5620879  56.4274047  41.1446213 100.4400879
  55.1114047  42.7746213 100.9760879  56.3304047  44.2116213  99.3480879
  58.5244047  42.8006213  99.1090879  57.4664047  42.3396213  97.9100879
  58.0994047  40.2836213  99.2960879  56.0194047  40.3866213 101.0920879
  66.4004047  31.5296213  90.9210879  65.5164047  30.5946213  90.8950879
  64.2384047  31.0586213  90.3380879  64.5754047  32.4636213  90.0480879
  65.8474047  32.7236213  90.3950879  67.3534047  31.4366213  91.2630879
  65.6904047  29.5816213  91.2420879  63.4954047  30.9936213  91.0190879
  64.0004047  30.5576213  89.4940879  63.8244047  33.1086213  89.6150879
  66.4294047  33.6306213  90.3290879  91.9074047  96.3886213 124.6430879
  92.1844047  95.5446213 123.7130879  91.2494047  95.6436213 122.5830879
  90.3724047  96.7266213 123.0630879  90.7724047  97.1536213 124.2730879
  92.4174047  96.5006213 125.5150879  93.0094047  94.8426213 123.7530879
  90.7334047  94.7846213 122.4560879  91.7264047  95.9076213 121.7330879
  89.5504047  97.0546213 122.4440879  90.3764047  97.9206213 124.9200879
  49.3274047  58.3206213  35.6690879  48.5404047  57.3066213  35.5840879
  47.1294047  57.7106213  35.4980879  47.2724047  59.1756213  35.5520879
  48.5684047  59.5176213  35.6510879  50.3404047  58.2816213  35.7380879
  48.8734047  56.2756213  35.5760879  46.5994047  57.3656213  36.2860879
  46.7144047  57.4146213  34.6260879  46.3894047  59.7956213  35.5080879
  49.0434047  60.4856213  35.7130879  91.1594047 104.0186213  21.9990879
  91.6914047 105.0366213  22.5790879  92.9674047 105.4196213  21.9590879
  93.0574047 104.4026213  20.8960879  91.9884047 103.5886213  20.9330879
  90.2784047 103.5816213  22.2570879  91.2534047 105.5536213  23.4250879
  93.7334047 105.3346213  22.6110879  92.9244047 106.3506213  21.5710879
  93.9104047 104.4046213  20.2330879  91.7194047 102.7436213  20.3170879
  58.8434047  23.9796213  77.3040879  57.6284047  24.3926213  77.2120879
  56.7834047  23.4556213  76.4580879  57.7734047  22.4136213  76.1340879
  58.9774047  22.7356213  76.6380879  59.6004047  24.4626213  77.7800879
  57.2664047  25.3206213  77.6400879  56.4164047  23.8846213  75.6200879
  56.0384047  23.0876213  77.0310879  57.4644047  21.5496213  75.5640879
  59.9234047  22.2176213  76.5990879  31.8164047 103.2296213  45.5340879
  31.2774047 103.2446213  46.7020879  30.2564047 104.2946213  46.8240879
  30.3244047 104.8826213  45.4750879  31.2444047 104.2466213  44.7300879
  32.5434047 102.5896213  45.2240879  31.5404047 102.5636213  47.5040879
  30.5074047 104.9716213  47.5310879  29.3444047 103.9026213  47.0070879
  29.6754047 105.7106213  45.2250879  31.5614047 104.4006213  43.7100879
  59.5864047 101.6476213 110.9810879  59.2944047 101.6206213 109.7280879
  59.6104047 102.8916213 109.0620879  60.1464047 103.6576213 110.2010879
  60.1264047 102.9136213 111.3190879  59.4554047 100.8826213 111.6380879
  58.8674047 100.7636213 109.2200879  58.7794047 103.3266213 108.6870879
  60.3084047 102.7676213 108.3430879  60.4824047 104.6726213 110.0440879
  60.4364047 103.1406213 112.3280879 125.2074047  89.2196213 103.9240879
 124.4294047  88.2786213 104.3280879 123.8934047  87.4896213 103.2100879
 124.5284047  88.1796213 102.0740879 125.2974047  89.1916213 102.5100879
 125.6904047  89.8876213 104.5190879 124.1964047  88.0856213 105.3690879
 122.8864047  87.5566213 103.1620879 124.1884047  86.5256213 103.2640879
 124.3344047  87.8336213 101.0690879 125.9044047  89.9046213 101.9710879
  59.6834047  14.5066213  69.5990879  59.7614047  15.5646213  70.3270879
  61.1334047  16.0876213  70.3930879  61.8304047  15.1026213  69.5470879
  60.9654047  14.1826213  69.0890879  58.8364047  13.9766213  69.4110879
  58.9174047  16.0206213  70.8320879  61.4874047  16.0736213  71.3390879
  61.1934047  17.0166213  69.9990879  62.8934047  15.2036213  69.3840879
  61.1154047  13.3236213  68.4510879  35.7714047  41.0306213  39.2170879
  36.1534047  41.7156213  38.1970879  37.3234047  42.5506213  38.5010879
  37.5334047  42.2006213  39.9170879  36.6144047  41.3076213  40.3210879
  34.9854047  40.3856213  39.2390879  35.6724047  41.6816213  37.2260879
  37.1124047  43.5326213  38.3940879  38.1194047  42.2896213  37.9370879
  38.3474047  42.6596213  40.4600879  36.4624047  40.8316213  41.2780879
 102.1044047  99.8816213  55.3650879 102.0064047 101.0286213  54.7900879
 100.8264047 101.1076213  53.9180879 100.2654047  99.7596213  54.1130879
 101.0264047  99.0536213  54.9660879 102.8384047  99.6016213  56.0110879
 102.7084047 101.8426213  54.9300879 101.0904047 101.2576213  52.9540879
 100.1834047 101.8206213  54.2310879  99.3594047  99.4826213  53.5930879
 100.9244047  98.0446213  55.3390879  85.8404047  97.1976213  49.8250879
  86.5224047  96.4406213  49.0410879  85.9854047  96.4386213  47.6730879
  84.8454047  97.3566213  47.8380879  84.7744047  97.7936213  49.1070879
  86.0274047  97.3526213  50.8120879  87.3924047  95.8716213  49.3470879
  85.6764047  95.5166213  47.4010879  86.6574047  96.8036213  47.0120879
  84.2174047  97.5786213  46.9870879  84.0804047  98.4676213  49.5870879
  82.0934047  35.6286213  41.9220879  82.2654047  36.6076213  41.1050879
  81.0514047  36.8966213  40.3280879  80.1424047  35.8726213  40.8730879
  80.7684047  35.1376213  41.8080879  82.7934047  35.2566213  42.5580879
  83.1934047  37.1576213  41.0000879  81.2054047  36.7596213  39.3400879
  80.7074047  37.8276213  40.5150879  79.1304047  35.8116213  40.5000879
  80.4214047  34.3116213  42.4110879  66.9124047  82.7966213  19.6500879
  67.7804047  81.8516213  19.5600879  67.1564047  80.5226213  19.6160879
  65.7404047  80.9046213  19.7590879  65.6144047  82.2426213  19.7760879
  67.1144047  83.7926213  19.6330879  68.8474047  82.0126213  19.4530879
  67.4764047  79.9996213  20.4180879  67.3114047  80.0056213  18.7620879
  64.9884047  80.1316213  19.8300879  64.7404047  82.8706213  19.8650879
 110.5304047 125.8636213  79.5530879 111.3814047 126.0336213  78.6030879
 111.9224047 124.7576213  78.1140879 111.2004047 123.8156213  78.9870879
 110.3874047 124.4806213  79.8260879 110.0304047 126.6016213  80.0410879
 111.6664047 127.0006213  78.2070879 112.9194047 124.7006213  78.2600879
 111.6904047 124.6066213  77.1420879 111.3774047 122.7546213  78.8810879
 109.7164047 124.1246213  80.5930879  77.8174047  22.0206213 100.1860879
  77.4234047  21.1346213  99.3410879  77.9954047  19.8106213  99.6230879
  78.8044047  20.1246213 100.8140879  78.6884047  21.4246213 101.1320879
  77.5504047  23.0016213 100.1870879  76.7484047  21.3366213  98.5160879
  78.5744047  19.4906213  98.8610879  77.2744047  19.1366213  99.8380879
  79.3734047  19.3376213 101.2880879  79.1314047  22.0016213 101.9300879
 104.9434047  53.1606213  81.5220879 104.3524047  52.0836213  81.1400879
 102.9374047  52.3166213  80.8190879 102.8394047  53.7596213  81.0990879
 104.0254047  54.2396213  81.5090879 105.9204047  53.2376213  81.7930879
 104.8364047  51.1166213  81.0630879 102.3294047  51.7846213  81.4270879
 102.7414047  52.1176213  79.8490879 101.8944047  54.2636213  80.9570879
 104.3264047  55.2366213  81.7970879 102.9614047  77.9906213  83.7130879
 103.1834047  78.1136213  82.4510879 102.6714047  79.3846213  81.9230879
 102.1044047  79.9696213  83.1510879 102.2834047  79.1396213  84.1920879
 103.2274047  77.1966213  84.2880879 103.6894047  77.3696213  81.8470879
 101.9554047  79.2326213  81.2270879 103.4164047  79.9586213  81.5540879
 101.6324047  80.9406213  83.1060879 102.0034047  79.2346213  85.2310879
  70.0854047  37.9026213  43.2070879  71.2084047  37.4266213  42.7990879
  72.1014047  38.4786213  42.2940879  71.2494047  39.6646213  42.4980879
  70.0704047  39.3086213  43.0350879  69.3174047  37.3616213  43.5960879
  71.4704047  36.3746213  42.8240879  72.3114047  38.3446213  41.3150879
  72.9484047  38.5386213  42.8410879  71.6234047  40.6386213  42.2190879
  69.2124047  39.9006213  43.3180879  16.7924047  55.2976213  80.5910879
  17.3674047  55.4506213  79.4500879  18.4934047  56.3926213  79.5230879
  18.4444047  56.7496213  80.9510879  17.4404047  56.0986213  81.5640879
  15.9944047  54.6966213  80.7780879  17.0614047  54.9466213  78.5410879
  18.3364047  57.2006213  78.9380879  19.3664047  55.9416213  79.2880879
  19.1654047  57.4496213  81.3470879  17.1094047  56.1136213  82.5910879
 105.7334047  33.3396213  41.9740879 104.5234047  33.7736213  41.9170879
 103.5454047  32.6776213  41.9010879 104.4514047  31.5166213  41.9610879
 105.7314047  31.9226213  42.0040879 106.5704047  33.9156213  41.9950879
 104.2534047  34.8226213  41.8850879 103.0064047  32.6766213  41.0470879
 102.9404047  32.7116213  42.7100879 104.0344047  30.5206213  41.9660879
 106.6524047  31.3606213  42.0520879  14.3594047  61.8186213  85.5180879
  14.9504047  62.9466213  85.3380879  16.4134047  62.8196213  85.4070879
  16.5384047  61.3746213  85.6670879  15.3244047  60.8016213  85.7290879
  13.3544047  61.6666213  85.5130879  14.4354047  63.8826213  85.1550879
  16.7944047  63.3616213  86.1680879  16.8474047  63.0726213  84.5300879
  17.5214047  60.9396213  85.7740879  15.0314047  59.7766213  85.9000879
  31.0464047  36.4536213  54.8150879  30.7334047  35.2686213  55.2060879
  30.1914047  35.2636213  56.5720879  30.2584047  36.7026213  56.8850879
  30.7614047  37.3866213  55.8430879  31.4374047  36.6956213  53.9090879
  30.8544047  34.3756213  54.6030879  30.7734047  34.7266213  57.1980879
  29.2384047  34.9296213  56.5890879  29.9214047  37.0506213  57.8500879
  30.9524047  38.4416213  55.7130879 106.9674047  61.6156213  38.6770879
 107.1704047  62.2076213  37.5530879 105.9814047  62.1756213  36.6910879
 105.0474047  61.4376213  37.5600879 105.6424047  61.1166213  38.7220879
 107.6474047  61.5156213  39.4260879 108.1064047  62.6766213  37.2710879
 106.1604047  61.6706213  35.8350879 105.6414047  63.1066213  36.4970879
 104.0454047  61.2376213  37.2100879 105.2704047  60.5846213  39.5850879
  96.2314047  26.9036213  55.3300879  96.4854047  27.2036213  54.1050879
  96.0934047  28.5826213  53.7830879  95.5594047  29.0146213  55.0860879
  95.6474047  28.0176213  55.9830879  96.4174047  26.0086213  55.7730879
  96.9354047  26.5226213  53.3920879  95.3794047  28.6056213  53.0690879
  96.8924047  29.1386213  53.5120879  95.1744047  30.0176213  55.1940879
  95.3594047  27.9726213  57.0230879  94.2914047  87.9256213  39.2050879
  93.3514047  88.7676213  39.4590879  93.5824047  89.4866213  40.7200879
  94.8574047  88.8776213  41.1390879  95.2594047  87.9646213  40.2390879
  94.3414047  87.3206213  38.3900879  92.4904047  88.9306213  38.8210879
  92.8504047  89.2986213  41.3900879  93.6844047  90.4796213  40.5650879
  95.3184047  89.1976213  42.0620879  96.1334047  87.3306213  40.2140879
  25.3574047 106.9976213  85.0440879  24.9594047 106.2426213  86.0060879
  26.0774047 105.7746213  86.8370879  27.2064047 106.4226213  86.1470879
  26.7664047 107.1376213  85.0970879  24.7604047 107.4346213  84.3460879
  23.9234047 105.9796213  86.1860879  26.1614047 104.7686213  86.8090879
  25.9924047 106.1036213  87.7880879  28.2094047 106.2766213  86.5200879
  27.2994047 107.7356213  84.3730879  41.9514047 107.0396213  79.1200879
  42.7184047 107.5666213  80.0090879  43.3544047 108.8006213  79.5260879
  42.7904047 108.8716213  78.1670879  41.9684047 107.8316213  77.9440879
  41.4114047 106.1866213  79.2320879  42.8774047 107.1536213  80.9980879
  44.3594047 108.7106213  79.5000879  43.0774047 109.5996213  80.0790879
  43.0664047 109.6926213  77.5210879  41.3884047 107.5596213  77.0750879
 122.9054047 111.1576213  93.3370879 123.4914047 111.3686213  94.4620879
 122.8404047 110.6486213  95.5660879 121.7504047 109.9786213  94.8340879
 121.8034047 110.2876213  93.5270879 123.1814047 111.5506213  92.4410879
 124.3644047 111.9996213  94.5860879 122.4764047 111.2886213  96.2580879
 123.4654047 109.9776213  95.9880879 121.0614047 109.3466213  95.3750879
 121.1764047 109.9846213  92.7020879  88.5124047  81.0126213  20.0230879
  89.6914047  80.5946213  20.3230879  90.6234047  81.7036213  20.5700879
  89.7274047  82.8526213  20.3460879  88.4924047  82.4296213  20.0270879
  87.7094047  80.4256213  19.8130879  89.9684047  79.5486213  20.3880879
  91.3844047  81.6996213  19.9060879  90.9704047  81.6896213  21.5180879
  90.1164047  83.8546213  20.4530879  87.5914047  82.9796213  19.8000879
 100.3554047  36.8116213 115.2590879 101.1824047  37.7006213 114.8350879
 100.5074047  38.9596213 114.4890879  99.1124047  38.6046213 114.8060879
  99.0414047  37.3406213 115.2570879 100.5974047  35.8686213 115.5550879
 102.2514047  37.5446213 114.7420879 100.6154047  39.1786213 113.5090879
 100.8314047  39.7216213 115.0670879  98.3334047  39.3376213 114.6580879
  98.1964047  36.7496213 115.5800879  70.2414047 108.8656213  22.2750879
  69.7304047 108.3316213  21.2210879  70.4664047 107.1316213  20.8000879
  71.5114047 107.0876213  21.8380879  71.3654047 108.1116213  22.6950879
  69.8994047 109.7006213  22.7430879  68.8604047 108.7186213  20.7030879
  70.8684047 107.2496213  19.8810879  69.8804047 106.3086213  20.8360879
  72.2454047 106.2946213  21.8160879  71.9374047 108.3946213  23.5660879
 105.4064047  86.0076213 124.8260879 106.3334047  85.9186213 123.9390879
 105.8554047  86.3026213 122.6030879 104.4524047  86.6316213 122.9120879
 104.2054047  86.4536213 124.2210879 105.5084047  85.7926213 125.8150879
 107.3484047  85.5986213 124.1470879 105.9154047  85.5306213 121.9550879
 106.3524047  87.1096213 122.2520879 103.8004047  86.9626213 122.1170879
 103.3034047  86.5946213 124.7970879  87.1884047  96.1006213  40.5780879
  88.3374047  95.5276213  40.5080879  88.3424047  94.2196213  41.1780879
  86.9474047  94.1626213  41.6500879  86.2834047  95.2736213  41.2900879
  86.9524047  97.0086213  40.1860879  89.2024047  95.9546213  40.0140879
  88.9914047  94.2046213  41.9520879  88.5394047  93.4726213  40.5270879
  86.6104047  93.2966213  42.2010879  85.2604047  95.5746213  41.4590879
 108.4704047  95.2346213 105.0340879 109.4724047  94.4326213 104.9490879
 109.0814047  93.0356213 105.1820879 107.6374047  93.2036213 105.4210879
 107.2944047  94.4996213 105.3300879 108.5034047  96.2426213 104.9100879
 110.4874047  94.7456213 104.7300879 109.5444047  92.6546213 105.9950879
 109.2534047  92.4636213 104.3680879 107.0314047  92.3346213 105.6310879
 106.3394047  94.9906213 105.4430879  50.7754047  47.0326213 123.6850879
  51.6164047  46.2416213 123.1170879  51.2174047  45.9086213 121.7420879
  49.9644047  46.6786213 121.6400879  49.7204047  47.3336213 122.7880879
  50.8474047  47.3946213 124.6320879  52.5144047  45.8626213 123.5920879
  51.0464047  44.9196213 121.6380879  51.9004047  46.2306213 121.0720879
  49.4004047  46.6506213 120.7190879  48.9084047  47.9846213 123.0740879
  41.9954047  60.9616213  95.6230879  42.3174047  61.5546213  94.5280879
  41.4184047  61.1956213  93.4220879  40.5094047  60.2656213  94.1150879
  40.8614047  60.1396213  95.4060879  42.4744047  61.0596213  96.5150879
  43.1504047  62.2406213  94.4280879  41.9184047  60.7306213  92.6780879
  40.9204047  62.0026213  93.0740879  39.7024047  59.8056213  93.5640879
  40.4304047  59.5536213  96.2050879  33.9644047  48.3676213 105.9600879
  35.2024047  48.0216213 105.9100879  35.3644047  46.5626213 105.8510879
  33.9534047  46.1406213 105.8790879  33.1444047  47.2126213 105.9420879
  33.6154047  49.3216213 106.0050879  36.0314047  48.7206213 105.9090879
  35.8654047  46.2156213 106.6560879  35.8154047  46.2756213 104.9940879
  33.7144047  45.0876213 105.8470879  32.0674047  47.2866213 105.9770879
  99.8444047  54.0236213  83.8390879  99.9954047  52.7616213  83.6380879
  99.2434047  52.2976213  82.4640879  98.6254047  53.5636213  82.0320879
  98.9884047  54.5666213  82.8490879 100.2704047  54.5596213  84.5910879
 100.6044047  52.1136213  84.2580879  98.5414047  51.6176213  82.7210879
  99.8594047  51.9296213  81.7530879  97.9854047  53.5696213  81.1620879
  98.7344047  55.6156213  82.8400879  45.8194047 103.9496213  51.7990879
  45.7494047 103.2646213  50.7120879  44.4574047 102.5766213  50.5770879
  43.7984047 103.0126213  51.8210879  44.6104047 103.8186213  52.5260879
  46.6154047 104.5056213  52.1000879  46.5464047 103.1996213  49.9800879
  44.5754047 101.5736213  50.5580879  43.9524047 102.8966213  49.7630879
  42.7954047 102.6706213  52.0360879  44.4654047 104.3186213  53.4720879
  62.6564047  84.0116213 137.6960879  63.2074047  84.6046213 136.6960879
  64.2594047  83.7826213 136.0800879  64.1954047  82.5886213 136.9410879
  63.2494047  82.7386213 137.8830879  61.9074047  84.3896213 138.2700879
  62.9324047  85.5926213 136.3450879  65.1614047  84.2316213 136.1440879
  64.0354047  83.5556213 135.1220879  64.8644047  81.7626213 136.7500879
  62.9264047  82.0796213 138.6750879 100.8554047  25.9116213  97.3040879
 100.5394047  24.6656213  97.2820879 101.2454047  23.8996213  98.3190879
 102.0374047  24.9736213  98.9440879 101.7964047  26.1486213  98.3370879
 100.4914047  26.6276213  96.6810879  99.8354047  24.2266213  96.5840879
 101.8424047  23.1936213  97.9130879 100.5994047  23.4906213  98.9790879
 102.6894047  24.7366213  99.7720879 102.1904047  27.1366213  98.5230879
 120.4794047 101.9786213  40.7600879 120.4284047 103.2506213  40.5770879
 119.0514047 103.7256213  40.3880879 118.3174047 102.4526213  40.5010879
 119.1694047 101.4376213  40.7200879 121.3234047 101.4336213  40.9130879
 121.2974047 103.8996213  40.5640879 118.9264047 104.1396213  39.4750879
 118.7804047 104.3706213  41.1160879 117.2414047 102.4526213  40.4050879
 118.9944047 100.3806213  40.8530879 125.2844047  51.2046213  50.4490879
 125.2864047  50.0656213  49.8510879 125.3224047  48.9456213  50.8020879
 125.3424047  49.6846213  52.0770879 125.3184047  51.0096213  51.8520879
 125.2614047  52.1136213  49.9940879 125.2624047  49.9416213  48.7750879
 126.1594047  48.3926213  50.6880879 124.4964047  48.3696213  50.7260879
 125.3704047  49.1356213  53.0060879 125.3224047  51.8446213  52.5360879
  31.2354047  40.6256213  51.8620879  30.7774047  39.4406213  51.6550879
  29.3844047  39.3026213  52.1020879  29.1374047  40.6626213  52.6130879
  30.2334047  41.4266213  52.4640879  32.1714047  40.9486213  51.6330879
  31.3474047  38.6376213  51.2040879  29.3004047  38.6156213  52.8370879
  28.7694047  39.0846213  51.3310879  28.1694047  40.9046213  53.0280879
  30.4184047  42.4596213  52.7200879  48.3284047  39.0076213  65.7230879
  48.1184047  39.9966213  66.5190879  48.4674047  39.6686213  67.9080879
  48.9234047  38.2776213  67.7430879  48.8364047  37.9046213  66.4540879
  48.1604047  39.0056213  64.7210879  47.7314047  40.9596213  66.2060879
  47.6594047  39.7186213  68.5120879  49.2124047  40.2596213  68.2510879
  49.2624047  37.7256213  68.6070879  49.0794047  36.9716213  65.9680879
  53.3544047  52.1566213  65.4580879  52.1754047  52.0306213  65.9570879
  52.0734047  50.8606213  66.8400879  53.4484047  50.3386213  66.7430879
  54.1874047  51.1116213  65.9290879  53.6554047  52.8916213  64.8230879
  51.3514047  52.7056213  65.7530879  51.4034047  50.1916213  66.4890879
  51.8504047  51.1316213  67.7870879  53.7164047  49.4496213  67.2950879
  55.2214047  51.0366213  65.6260879  41.6384047  85.1346213  87.6590879
  42.7884047  85.0556213  87.0880879  43.6394047  84.0276213  87.7050879
  42.7324047  83.5326213  88.7550879  41.5624047  84.1916213  88.7140879
  40.8904047  85.7726213  87.4010879  43.0974047  85.6706213  86.2510879
  44.4744047  84.4326213  88.1040879  43.8714047  83.2976213  87.0460879
  43.0654047  82.7426213  89.4120879  40.6744047  84.0976213  89.3210879
  36.6754047 120.2066213  80.0510879  37.4104047 119.3866213  80.7160879
  36.7634047 118.0766213  80.8800879  35.4974047 118.3186213  80.1670879
  35.4614047 119.5726213  79.6860879  36.9184047 121.1656213  79.8160879
  38.3904047 119.6286213  81.1090879  36.6004047 117.8666213  81.8550879
  37.2994047 117.3436213  80.4380879  34.7684047 117.5246213  80.1000879
  34.7034047 120.0936213  79.1190879  54.3574047  88.2476213  74.1520879
  54.7624047  87.0536213  74.4070879  55.0094047  86.2816213  73.1810879
  54.6574047  87.2886213  72.1630879  54.2774047  88.4356213  72.7500879
  54.1264047  88.9566213  74.8430879  54.9084047  86.6596213  75.4060879
  54.4014047  85.4776213  73.1240879  55.9784047  86.0086213  73.1050879
  54.7324047  87.0306213  71.1170879  53.9554047  89.3756213  72.3270879
  19.0214047  55.5116213  62.1110879  18.0404047  54.9186213  61.5270879
  16.9324047  55.8406213  61.2380879  17.4864047  57.0926213  61.7820879
  18.7124047  56.8826213  62.2900879  19.8904047  55.0736213  62.4030879
  18.0284047  53.8646213  61.2750879  16.0914047  55.5696213  61.7270879
  16.7644047  55.9146213  60.2450879  16.8994047  57.9986213  61.7260879
  19.4084047  57.5586213  62.7630879  76.0314047  34.7756213  40.3020879
  75.8604047  35.4776213  41.3660879  74.7184047  36.3956213  41.2430879
  74.2684047  36.0706213  39.8780879  75.0484047  35.1176213  39.3400879
  76.7564047  34.0776213  40.1610879  76.4814047  35.4046213  42.2510879
  75.0124047  37.3596213  41.3110879  74.0024047  36.1866213  41.9230879
  73.4154047  36.5886213  39.4650879  75.0184047  34.6386213  38.3720879
 102.0644047  63.6966213  39.7350879 103.2154047  63.3386213  39.2870879
 104.0404047  64.4926213  38.9030879 103.1164047  65.5936213  39.2270879
 101.9614047  65.1106213  39.7140879 101.3314047  63.0706213  40.0590879
 103.5424047  62.3086213  39.2010879 104.2594047  64.4766213  37.9180879
 104.8814047  64.5456213  39.4600879 103.4284047  66.6136213  39.0560879
 101.0684047  65.6146213  40.0520879  87.1134047  90.0256213  22.6550879
  87.7554047  89.0816213  22.0610879  87.1104047  87.7746213  22.2490879
  85.9594047  88.1676213  23.0810879  85.9754047  89.4916213  23.3090879
  87.3734047  91.0086213  22.6600879  88.6634047  89.2296213  21.4870879
  87.7154047  87.1336213  22.7420879  86.8094047  87.3816213  21.3690879
  85.2594047  87.4126213  23.4060879  85.3014047  90.1236213  23.8680879
  54.9664047 125.4856213  87.5260879  56.2514047 125.5416213  87.5160879
  56.8614047 124.2106213  87.6390879  55.6514047 123.3746213  87.7240879
  54.5474047 124.1386213  87.6560879  54.3374047 126.2806213  87.4530879
  56.8214047 126.4596213  87.4260879  57.4164047 124.1366213  88.4790879
  57.4094047 123.9786213  86.8230879  55.7534047 122.3036213  87.8240879
  53.5004047 123.8756213  87.6850879  55.9094047 118.1896213  47.1260879
  54.8084047 118.7786213  46.8150879  53.9204047 117.9076213  46.0320879
  54.7464047 116.6896213  45.9580879  55.9094047 116.8716213  46.6050879
  56.6694047 118.5966213  47.6640879  54.5604047 119.7956213  47.0960879
  53.7484047 118.2886213  45.1130879  53.0524047 117.7326213  46.5190879
  54.3684047 115.8256213  45.4300879  56.7474047 116.2076213  46.7570879
  25.0234047  68.0096213 100.5460879  24.3664047  66.9146213 100.3920879
  25.2464047  65.7376213 100.3960879  26.5544047  66.3906213 100.5850879
  26.4054047  67.7236213 100.6720879  24.6234047  68.9436213 100.5760879
  23.2894047  66.8606213 100.2740879  25.2074047  65.2466213  99.5150879
  25.0324047  65.1196213 101.1650879  27.4464047  65.7836213 100.6330879
  27.1324047  68.5106213 100.8100879  37.8274047  63.4366213  44.0970879
  37.7914047  64.7216213  44.1300879  36.4144047  65.2336213  44.1780879
  35.6634047  63.9656213  44.1640879  36.5074047  62.9206213  44.1160879
  38.6684047  62.8666213  44.0610879  38.6704047  65.3566213  44.1260879
  36.2014047  65.7936213  43.3650879  36.2424047  65.7506213  45.0280879
  34.5844047  63.9896213  44.1920879  36.3184047  61.8576213  44.0940879
  44.2224047  72.4286213 107.3370879  44.6504047  73.6256213 107.5290879
  43.6514047  74.6356213 107.1530879  42.5534047  73.7616213 106.7030879
  42.9044047  72.4696213 106.8180879  44.7404047  71.5746213 107.5260879
  45.6324047  73.8666213 107.9220879  43.9844047  75.2216213 106.4010879
  43.3724047  75.1926213 107.9490879  41.6344047  74.2066213 106.3490879
  42.3624047  71.5646213 106.5870879 106.6794047  92.7606213 112.4080879
 107.3974047  93.8206213 112.5330879 106.5814047  95.0426213 112.5380879
 105.2364047  94.4586213 112.3870879 105.3114047  93.1196213 112.3130879
 107.0284047  91.8066213 112.3800879 108.4774047  93.8176213 112.6260879
 106.8094047  95.6406213 111.7570879 106.6674047  95.5406213 113.4120879
 104.3764047  95.1126213 112.3540879 104.5404047  92.3706213 112.2020879
  25.6954047  96.4556213  80.6210879  26.9334047  96.1096213  80.5690879
  27.6644047  96.8336213  79.5210879  26.5814047  97.6726213  78.9790879
  25.4324047  97.4396213  79.6350879  25.0014047  96.0876213  81.2670879
  27.3874047  95.3716213  81.2210879  28.0244047  96.2026213  78.8190879
  28.4054047  97.3996213  79.9120879  26.7944047  98.3496213  78.1640879
  24.4474047  97.8646213  79.5140879  36.5884047  79.9936213  87.9040879
  37.6774047  80.1066213  88.5800879  38.0294047  78.8566213  89.2680879
  36.9094047  77.9996213  88.8440879  36.0724047  78.6816213  88.0440879
  36.1544047  80.7276213  87.3500879  38.2684047  81.0136213  88.6370879
  38.0374047  78.9786213  90.2710879  38.9134047  78.4926213  88.9420879
  36.8654047  76.9766213  89.1890879  35.1594047  78.3806213  87.5520879
  41.7364047  54.3896213 107.2910879  42.0294047  55.6346213 107.1530879
  41.6164047  56.1556213 105.8420879  41.0234047  54.9426213 105.2530879
  41.1004047  53.9156213 106.1170879  41.9264047  53.8226213 108.1130879
  42.5214047  56.2336213 107.9110879  42.4114047  56.4716213 105.3050879
  40.9304047  56.8906213 105.9370879  40.6094047  54.9856213 104.2560879
  40.7734047  52.8896213 106.0300879  83.5564047  62.3936213  27.2510879
  83.9144047  62.4726213  28.4840879  84.8064047  61.3706213  28.8700879
  84.8854047  60.6386213  27.5940879  84.1474047  61.2526213  26.6540879
  82.9444047  63.0466213  26.7670879  83.5994047  63.2576213  29.1610879
  84.3934047  60.7996213  29.5940879  85.7134047  61.7116213  29.1530879
  85.4854047  59.7426213  27.5340879  83.9714047  61.0056213  25.6170879
 101.7284047 101.6936213  72.0290879 102.1784047 100.5296213  71.7170879
 101.0994047  99.6056213  71.3420879  99.9304047 100.4876213  71.5060879
 100.3174047 101.7096213  71.9090879 102.2914047 102.4896213  72.3190879
 103.2274047 100.2586213  71.7260879 101.0544047  98.8176213  71.9720879
 101.1934047  99.2976213  70.3850879  98.9424047 100.1006213  71.3020879
  99.7444047 102.5986213  72.1270879  36.4654047  92.3626213 105.2970879
  36.0854047  91.1656213 105.0160879  35.0904047  91.1436213 103.9340879
  34.9794047  92.5846213 103.6520879  35.7924047  93.2866213 104.4590879
  37.1454047  92.6176213 106.0080879  36.4524047  90.2766213 105.5150879
  34.2104047  90.7636213 104.2520879  35.4334047  90.6376213 103.1290879
  34.3044047  92.9216213 102.8780879  35.9724047  94.3486213 104.5360879
  91.1654047  34.5136213  40.8090879  91.3404047  35.5516213  40.0680879
  92.6294047  36.2056213  40.3320879  93.1604047  35.3226213  41.3850879
  92.2894047  34.3346213  41.6530879  90.3504047  33.9066213  40.7980879
  90.6244047  35.9036213  39.3340879  92.5004047  37.1476213  40.6750879
  93.2214047  36.1976213  39.5140879  94.1294047  35.5336213  41.8140879
  92.3404047  33.5156213  42.3540879  25.1954047  55.3286213  58.8890879
  26.2784047  55.7456213  59.4450879  26.1604047  55.7996213  60.9090879
  24.7764047  55.3256213  61.0780879  24.2244047  55.0526213  59.8830879
  25.0484047  55.2106213  57.8900879  27.1744047  56.0236213  58.9010879
  26.2674047  56.7436213  61.2510879  26.8184047  55.1766213  61.3550879
  24.3624047  55.2446213  62.0720879  23.2404047  54.6896213  59.6230879
  78.2164047 130.9526213  74.9260879  78.3774047 129.9376213  75.6990879
  79.3874047 130.1896213  76.7360879  79.7754047 131.5696213  76.3940879
  79.0774047 132.0026213  75.3300879  77.5714047 131.0056213  74.1420879
  77.8344047 129.0046213  75.6020879  80.1704047 129.5586213  76.6490879
  78.9864047 130.1416213  77.6620879  80.5274047 132.0706213  76.9860879
  79.0954047 132.9476213  74.8070879 102.2184047  70.4406213  87.6290879
 102.9194047  69.3716213  87.4800879 102.2274047  68.1826213  87.9980879
 100.9764047  68.7966213  88.4790879 100.9874047  70.1216213  88.2550879
 102.4954047  71.3766213  87.3450879 103.9024047  69.3456213  87.0260879
 102.7414047  67.7586213  88.7560879 102.0474047  67.5126213  87.2640879
 100.2214047  68.1716213  88.9330879 100.2524047  70.8836213  88.4700879
 111.7744047  52.9026213  45.5500879 111.5194047  51.6736213  45.2660879
 111.4194047  51.4536213  43.8160879 111.6714047  52.8206213  43.3260879
 111.8774047  53.6586213  44.3560879 111.8864047  53.2836213  46.4860879
 111.3944047  50.8906213  46.0040879 110.4974047  51.1356213  43.5550879
 112.1294047  50.8126213  43.4910879 111.6674047  53.0106213  42.2630879
 112.0884047  54.7176213  44.3780879  67.4614047 111.1936213 119.8400879
  67.4094047 112.3396213 119.2570879  66.8794047 113.3846213 120.1430879
  66.6354047 112.5946213 121.3630879  66.9834047 111.3116213 121.1680879
  67.7944047 110.3296213 119.4210879  67.7204047 112.5176213 118.2340879
  66.0204047 113.7726213 119.7810879  67.5624047 114.1106213 120.3080879
  66.2304047 113.0826213 122.2370879  66.9444047 110.4586213 121.8290879
  53.4584047  50.5346213  93.1810879  54.6224047  50.6476213  92.6440879
  55.4134047  49.4166213  92.7800879  54.4554047  48.5696213  93.5120879
  53.3134047  49.2396213  93.7380879  52.7444047  51.2566213  93.2070879
  54.9804047  51.5426213  92.1490879  56.2504047  49.5756213  93.3230879
  55.6384047  49.0216213  91.8780879  54.7374047  47.5606213  93.7780879
  52.4034047  48.9416213  94.2380879  37.1484047  96.9896213  94.5010879
  36.6224047  95.8156213  94.5210879  37.6404047  94.7556213  94.5150879
  38.8674047  95.5716213  94.4860879  38.5614047  96.8796213  94.4780879
  36.6384047  97.8686213  94.5010879  35.5554047  95.6266213  94.5420879
  37.5654047  94.1786213  93.6900879  37.5934047  94.1946213  95.3540879
  39.8284047  95.0796213  94.4750879  39.1924047  97.7556213  94.4590879
  41.9854047  76.4906213 122.0460879  42.5484047  75.3426213 121.9030879
  43.9864047  75.4636213 121.6270879  44.1324047  76.9306213 121.6410879
  42.9494047  77.5176213 121.8890879  41.0014047  76.6496213 122.2420879
  42.0264047  74.3956213 121.9770879  44.2214047  75.0826213 120.7220879
  44.5384047  75.0336213 122.3550879  45.1054047  77.3666213 121.4660879
  42.6794047  78.5596213 121.9730879  96.5144047  76.8846213  27.0160879
  96.2764047  78.1466213  26.9470879  97.5134047  78.9376213  26.8760879
  98.5164047  77.8586213  26.9200879  97.9134047  76.6606213  27.0010879
  95.8134047  76.1506213  27.0720879  95.2824047  78.5806213  26.9400879
  97.6024047  79.5526213  27.6720879  97.5704047  79.4556213  26.0110879
  99.5654047  78.1106213  26.8840879  98.3234047  75.6626213  27.0520879
  30.4714047  99.6566213  43.9620879  29.2724047  99.1906213  43.9500879
  28.6304047  99.2856213  45.2690879  29.7184047  99.9066213  46.0450879
  30.7914047 100.1186213  45.2630879  31.1014047  99.6936213  43.1660879
  28.7874047  98.7766213  43.0730879  28.3984047  98.3726213  45.6320879
  27.8154047  99.8816213  45.2400879  29.5664047 100.1206213  47.0930879
  31.7564047 100.5486213  45.4850879  75.9314047 105.1136213 118.2790879
  76.7374047 104.3616213 118.9430879  77.8834047 105.1146213 119.4710879
  77.5654047 106.4626213 118.9680879  76.4164047 106.4456213 118.2720879
  75.0734047 104.8106213 117.8260879  76.5914047 103.2986213 119.0970879
  78.7544047 104.7766213 119.0860879  77.9034047 105.0956213 120.4800879
  78.2344047 107.2816213 119.1900879  75.8824047 107.2356213 117.7660879
  86.7864047 125.5166213  94.4070879  85.9884047 125.5256213  93.3980879
  86.6594047 125.9716213  92.1690879  88.0164047 126.2196213  92.6860879
  88.0744047 125.9466213  94.0010879  86.5414047 125.2446213  95.3550879
  84.9444047 125.2376213  93.4440879  86.2444047 126.8196213  91.8100879
  86.6624047 125.2456213  91.4660879  88.7834047 126.5696213  92.0120879
  88.8924047 126.0106213  94.7030879  34.0334047 114.3606213  74.8030879
  33.6934047 115.3426213  74.0440879  33.6454047 114.9526213  72.6280879
  34.0324047 113.5346213  72.7330879  34.2554047 113.2026213  74.0160879
  34.1314047 114.3976213  75.8140879  33.4674047 116.3396213  74.4030879
  34.3154047 115.4746213  72.0800879  32.7144047 115.0516213  72.2500879
  34.0944047 112.9356213  71.8360879  34.5504047 112.2666213  74.4650879
  47.6894047 104.1366213  69.5480879  48.4974047 105.0556213  69.1500879
  49.1234047 104.7186213  67.8630879  48.5024047 103.4076213  67.6050879
  47.6634047 103.0806213  68.6030879  47.1474047 104.1546213  70.4070879
  48.6954047 105.9706213  69.6950879  50.1254047 104.6376213  67.9520879
  48.8764047 105.3876213  67.1470879  48.7584047 102.8696213  66.7040879
  47.0444047 102.2086213  68.7510879  32.1204047 117.6556213  54.4280879
  32.1844047 118.8816213  54.8100879  32.4264047 119.7966213  53.6860879
  32.4894047 118.8336213  52.5730879  32.3074047 117.5806213  53.0260879
  31.9604047 116.8526213  55.0320879  32.0724047 119.2066213  55.8380879
  33.3024047 120.2886213  53.7940879  31.6614047 120.4446213  53.5660879
  32.6624047 119.1946213  51.5700879  32.2894047 116.6346213  52.5050879
 118.9544047 100.7296213 111.5900879 120.1784047 101.1076213 111.4680879
 121.0864047  99.9726213 111.2540879 120.1224047  98.8576213 111.2790879
 118.8754047  99.3196213 111.4770879 118.1574047 101.3416213 111.7440879
 120.5054047 102.1396213 111.5160879 121.7574047  99.8916213 112.0040879
 121.5494047 100.0346213 110.3590879 120.4784047  97.8466213 111.1450879
 117.9314047  98.8016213 111.5510879  55.4464047  92.8586213  21.3740879
  55.6314047  92.9246213  22.6450879  56.5274047  94.0296213  23.0150879
  56.8214047  94.5856213  21.6820879  56.1784047  93.8876213  20.7300879
  54.8664047  92.1766213  20.8930879  55.1794047  92.2496213  23.3630879
  57.3664047  93.6886213  23.4620879  56.0564047  94.7066213  23.5980879
  57.4764047  95.4396213  21.5980879  56.1574047  94.0046213  19.6570879
  22.4564047  67.3686213  89.4810879  21.4754047  67.1986213  88.6660879
  21.8634047  67.4626213  87.2730879  23.2804047  67.8206213  87.4600879
  23.6124047  67.7596213  88.7610879  22.4194047  67.2426213  90.4890879
  20.4784047  66.8966213  88.9670879  21.3394047  68.2336213  86.8850879
  21.7674047  66.6356213  86.7010879  23.8794047  68.0786213  86.5990879
  24.5484047  67.9526213  89.2640879  16.2734047  58.8786213  68.1840879
  15.0734047  59.0006213  67.7380879  14.4194047  60.2156213  68.2440879
  15.5004047  60.7666213  69.0790879  16.5824047  59.9706213  69.0330879
  16.9124047  58.1176213  67.9680879  14.5974047  58.2946213  67.0670879
  13.6064047  59.9916213  68.8000879  14.1804047  60.8456213  67.4920879
  15.3384047  61.6926213  69.6120879  17.5464047  60.0556213  69.5110879
  44.5054047  59.0626213  87.5530879  45.7424047  58.7696213  87.3570879
  46.6304047  59.9026213  87.6500879  45.6384047  60.9136213  88.0570879
  44.3964047  60.4046213  87.9960879  43.7164047  58.4356213  87.4160879
  46.0924047  57.8016213  87.0160879  47.1354047  60.1966213  86.8260879
  47.2654047  59.6876213  88.4050879  45.9754047  61.8986213  88.3480879
  43.4374047  60.8476213  88.2180879  54.4634047 107.1646213 116.4970879
  54.6634047 106.3456213 115.5250879  54.8264047 107.0436213 114.2420879
  54.6764047 108.4416213 114.6830879  54.4644047 108.4946213 116.0090879
  54.3254047 106.9076213 117.4710879  54.7084047 105.2686213 115.6350879
  54.0994047 106.7876213 113.5890879  55.7414047 106.8806213 113.8470879
  54.7454047 109.2366213 113.9550879  54.3124047 109.3356213 116.6700879
  71.6264047  25.8046213  82.9530879  72.0254047  24.5806213  82.9500879
  70.9004047  23.6356213  82.9750879  69.7674047  24.5766213  82.9920879
  70.2104047  25.8456213  82.9790879  72.2274047  26.6246213  82.9380879
  73.0664047  24.2786213  82.9320879  70.9154047  23.0666213  83.8090879
  70.8844047  23.0596213  82.1450879  68.7584047  24.1906213  83.0120879
  69.6754047  26.7836213  82.9850879 117.4294047  75.0326213  73.6440879
 117.6794047  73.7706213  73.6020879 116.4654047  72.9756213  73.3710879
 115.4604047  74.0496213  73.2910879 116.0424047  75.2506213  73.4520879
 118.1134047  75.7686213  73.7920879 118.6674047  73.3416213  73.7200879
 116.2774047  72.3576213  74.1470879 116.5214047  72.4606213  72.5040879
 114.4244047  73.7936213  73.1210879 115.6244047  76.2466213  73.4530879
 103.1614047  81.9046213  56.9220879 102.3574047  80.8996213  56.9310879
 101.2404047  81.0966213  57.8660879 101.5744047  82.4306213  58.3950879
 102.7034047  82.8916213  57.8300879 103.9994047  81.9886213  56.3530879
 102.4834047  80.0126213  56.3220879 101.2474047  80.4016213  58.5980879
 100.3534047  81.1056213  57.3840879 100.9284047  82.8846213  59.1320879
 103.2404047  83.8176213  57.9710879  41.0724047  40.1016213  96.5740879
  40.7894047  41.3036213  96.2130879  41.2794047  41.6016213  94.8600879
  41.9074047  40.3136213  94.5190879  41.7764047  39.4436213  95.5350879
  40.8314047  39.6776213  97.4660879  40.2514047  42.0146213  96.8290879
  41.9604047  42.3486213  94.8720879  40.5194047  41.8166213  94.2310879
  42.3794047  40.1936213  93.5550879  42.1064047  38.4206213  95.6400879
  56.2744047  33.9496213  71.9950879  57.1304047  34.6326213  72.6710879
  58.3844047  34.8306213  71.9310879  58.0674047  34.1136213  70.6830879
  56.8254047  33.6026213  70.7370879  55.3414047  33.6916213  72.3070879
  56.9514047  35.0186213  73.6680879  59.1644047  34.4036213  72.4090879
  58.5584047  35.8096213  71.7560879  58.8064047  34.0676213  69.8960879
  56.2634047  33.0266213  70.0160879  89.8984047  21.4216213  95.9530879
  89.9784047  22.4946213  96.6580879  88.6754047  22.8916213  97.2090879
  87.8254047  21.8156213  96.6700879  88.5574047  20.9616213  95.9360879
  90.6714047  20.9646213  95.4770879  90.8974047  23.0446213  96.8290879
  88.3874047  23.7946213  96.8600879  88.6834047  22.8796213  98.2190879
  86.7694047  21.8116213  96.8970879  88.2774047  20.0686213  95.3960879
  46.6684047  52.6066213  61.4980879  47.2604047  53.7096213  61.2050879
  48.3134047  53.5196213  60.1980879  48.2014047  52.0676213  59.9730879
  47.2304047  51.5466213  60.7430879  45.9104047  52.4986213  62.1670879
  47.0154047  54.6696213  61.6460879  49.2224047  53.7626213  60.5650879
  48.1144047  54.0366213  59.3540879  48.8594047  51.5896213  59.2620879
  46.8714047  50.5336213  60.8420879 124.8514047  56.8816213  71.0180879
 124.4604047  55.7006213  70.6900879 124.0984047  55.6156213  69.2680879
 124.3654047  57.0026213  68.8470879 124.8074047  57.7316213  69.8860879
 125.1504047  57.1716213  71.9460879 124.4034047  54.8636213  71.3770879
 123.1244047  55.3786213  69.1500879 124.6914047  54.9636213  68.7750879
 124.1954047  57.2846213  67.8190879 125.0984047  58.7696213  69.9510879
  51.6084047 115.3826213  94.2640879  50.8064047 116.1436213  94.9220879
  51.1724047 117.5616213  94.8040879  52.3584047 117.4546213  93.9370879
  52.6004047 116.1696213  93.6280879  51.5484047 114.3696213  94.2010879
  49.9594047 115.7856213  95.4950879  51.4104047 117.9556213  95.7020879
  50.4394047 118.0956213  94.3580879  52.8854047 118.3526213  93.6480879
  53.3734047 115.7186213  93.0230879  34.0734047 106.4076213  95.9260879
  34.4674047 107.4686213  96.5380879  34.3034047 107.3566213  97.9940879
  33.7284047 106.0036213  98.0900879  33.6004047 105.4596213  96.8680879
  34.0934047 106.2606213  94.9200879  34.8744047 108.3426213  96.0430879
  33.6624047 108.0516213  98.3470879  35.1924047 107.4106213  98.4710879
  33.4824047 105.6006213  99.0620879  33.2224047 104.4976213  96.5550879
  77.4764047  87.7076213 117.7850879  76.2144047  87.5086213 117.6330879
  75.5554047  87.1616213 118.9000879  76.7094047  87.2026213 119.8150879
  77.8294047  87.5256213 119.1450879  78.1314047  87.9586213 117.0480879
  75.6944047  87.5866213 116.6850879  75.1514047  86.2366213 118.8640879
  74.8614047  87.8496213 119.1550879  76.5614047  86.9876213 120.8630879
  78.8474047  87.6476213 119.4830879  95.0304047  91.7506213  46.4520879
  93.9004047  91.6576213  47.0600879  93.8294047  90.4626213  47.9110879
  95.1614047  89.8846213  47.6630879  95.8544047  90.6526213  46.8040879
  95.3014047  92.4936213  45.8130879  93.0934047  92.3746213  46.9600879
  93.0974047  89.8366213  47.6070879  93.7134047  90.7086213  48.8840879
  95.4404047  88.9656213  48.1570879  96.8494047  90.5436213  46.3990879
 124.0804047  54.7306213  55.6370879 124.7254047  55.8266213  55.8320879
 123.8234047  56.9746213  55.9990879 122.5184047  56.3046213  55.8580879
 122.6874047  54.9876213  55.6460879 124.4964047  53.8136213  55.4960879
 125.8064047  55.8986213  55.8700879 123.9624047  57.6606213  55.2720879
 123.9234047  57.3916213  56.9130879 121.6134047  56.8886213  55.9330879
 121.9684047  54.1956213  55.5000879  61.7604047  43.3996213  96.8430879
  62.4844047  43.9316213  97.7620879  62.0794047  45.3146213  98.0520879
  60.9644047  45.4646213  97.1000879  60.7904047  44.3316213  96.3980879
  61.8584047  42.4536213  96.4820879  63.2984047  43.4246213  98.2680879
  62.8234047  45.9666213  97.8490879  61.7624047  45.4136213  99.0050879
  60.4294047  46.4016213  97.0560879  60.0794047  44.0786213  95.6250879
 101.5554047  25.7486213  62.6880879 100.8924047  26.8496213  62.6190879
 100.1524047  26.9686213  61.3550879 100.5324047  25.6996213  60.7090879
 101.3544047  24.9956213  61.5050879 102.1364047  25.4536213  63.4680879
 100.8774047  27.6016213  63.4000879 100.4694047  27.7616213  60.8170879
  99.1554047  27.0146213  61.5140879 100.1424047  25.4686213  59.7290879
 101.8264047  24.0346213  61.3640879 106.5804047 120.8236213  53.7460879
 105.3204047 121.0436213  53.8840879 104.7674047 120.3586213  55.0610879
 105.9804047 119.6956213  55.5710879 107.0354047 119.9786213  54.7890879
 107.1704047 121.1936213  53.0060879 104.7324047 121.6606213  53.2140879
 104.0644047 119.6826213  54.7970879 104.4004047 121.0176213  55.7320879
 105.9154047 119.0886213  56.4620879 108.0694047 119.6736213  54.8550879
  45.6974047  30.8986213  66.0570879  44.5854047  30.2666213  65.9150879
  43.4274047  31.1706213  65.9710879  44.1124047  32.4596213  66.1760879
  45.4434047  32.2826213  66.2230879  46.6234047  30.4786213  66.0510879
  44.5064047  29.1956213  65.7700879  42.8254047  30.9496213  66.7500879
  42.9124047  31.1646213  65.1020879  43.5254047  33.3626213  66.2620879
  46.2484047  32.9896213  66.3590879 127.6964047  89.2236213  87.2080879
 127.2554047  89.6156213  88.3510879 127.8124047  90.9196213  88.7390879
 128.6714047  91.1936213  87.5730879 128.5914047  90.1896213  86.6840879
 127.4474047  88.3556213  86.7420879 126.5544047  89.0556213  88.9590879
 128.3584047  90.8486213  89.5860879 127.0884047  91.6166213  88.8330879
 129.2434047  92.1096213  87.5410879 129.0734047  90.0496213  85.7280879
  95.9154047  57.1416213  95.5080879  96.9654047  57.1456213  96.2500879
  97.2834047  55.8046213  96.7620879  96.1894047  55.0266213  96.1540879
  95.3954047  55.8266213  95.4210879  95.5104047  57.9526213  95.0470879
  97.5514047  58.0296213  96.4740879  97.2374047  55.7746213  97.7700879
  98.1844047  55.4876213  96.4320879  96.1294047  53.9646213  96.3390879
  94.5104047  55.6086213  94.8420879  44.3314047 103.6126213  75.4280879
  43.7294047 103.0586213  76.4210879  42.4274047 103.6826213  76.6930879
  42.4084047 104.7166213  75.6430879  43.5324047 104.6616213  74.9090879
  45.2424047 103.3456213  75.0620879  44.1314047 102.2296213  76.9920879
  42.4024047 104.0976213  77.6130879  41.6704047 103.0246213  76.5720879
  41.5554047 105.3746213  75.5630879  43.8604047 105.2536213  74.0680879
  66.5484047  90.0756213  24.6060879  66.7924047  88.8136213  24.5620879
  65.5594047  88.0136213  24.5610879  64.5514047  89.0876213  24.6150879
  65.1484047  90.2906213  24.6400879  67.2464047  90.8156213  24.6150879
  67.7884047  88.3856213  24.5290879  65.5054047  87.4206213  25.3770879
  65.4724047  87.4716213  23.7140879  63.5024047  88.8276213  24.6270879
  64.7334047  91.2876213  24.6790879  76.5914047  92.5386213 116.9900879
  75.8884047  93.5966213 117.1940879  74.4514047  93.3456213 117.0160879
  74.4764047  91.9156213 116.6640879  75.7394047  91.4566213 116.6540879
  77.6034047  92.4756213 117.0570879  76.3024047  94.5606213 117.4660879
  74.0714047  93.9006213 116.2620879  73.9404047  93.5036213 117.8730879
  73.5464047  91.4036213 116.4630879  76.1354047  90.4736213 116.4440879
 115.6204047  73.1226213  43.2730879 115.6724047  73.9896213  42.3250879
 115.6644047  75.3676213  42.8370879 115.5974047  75.1066213  44.2860879
 115.5734047  73.7846213  44.5250879 115.6154047  72.1126213  43.1540879
 115.7164047  73.7396213  41.2710879 114.8514047  75.8736213  42.5190879
 116.5144047  75.8566213  42.5920879 115.5764047  75.9406213  44.9730879
 115.5264047  73.2326213  45.4520879  61.1684047  23.6686213  72.0900879
  60.8104047  22.4346213  72.1390879  59.3984047  22.2846213  72.5200879
  59.0194047  23.6996213  72.6810879  60.0694047  24.4986213  72.4240879
  62.0954047  24.0096213  71.8490879  61.4684047  21.5996213  71.9250879
  59.3034047  21.7796213  73.3890879  58.8634047  21.8436213  71.7860879
  58.0084047  23.9466213  72.9670879  60.1624047  25.5746213  72.4410879
  42.9324047  37.1926213 107.6830879  41.9484047  37.1606213 108.5110879
  41.0874047  38.3456213 108.3880879  41.7874047  39.0676213 107.3110879
  42.8684047  38.3776213 106.9080879  43.6534047  36.4806213 107.5890879
  41.7704047  36.3576213 109.2160879  41.0774047  38.8836213 109.2420879
  40.1504047  38.0926213 108.1090879  41.3974047  40.0146213 106.9680879
  43.6064047  38.5946213 106.1510879  27.3884047  72.5936213  70.8550879
  27.7494047  73.2186213  69.7900879  29.2104047  73.2426213  69.6350879
  29.6144047  72.4976213  70.8400879  28.5334047  72.1236213  71.5450879
  26.4304047  72.4526213  71.1650879  27.0604047  73.6736213  69.0880879
  29.5664047  74.1876213  69.6530879  29.4994047  72.7636213  68.7940879
  30.6644047  72.3316213  71.0320879  28.4454047  71.5706213  72.4690879
  87.6814047  84.3156213 115.8480879  86.5064047  84.1716213 116.3510879
  86.2224047  82.7716213 116.6940879  87.4864047  82.1386213 116.2800879
  88.3324047  83.0586213 115.7870879  88.0914047  85.1936213 115.5390879
  85.8054047  84.9836213 116.5060879  85.4424047  82.4126213 116.1620879
  86.0644047  82.6596213 117.6860879  87.6104047  81.0726213 116.4030879
  89.3344047  82.9626213 115.3940879 106.6594047  40.9216213  46.6790879
 105.9324047  41.8716213  47.1520879 106.7424047  42.9276213  47.7760879
 108.0944047  42.3806213  47.5620879 108.0274047  41.2036213  46.9170879
 106.3164047  40.0906213  46.2050879 104.8504047  41.8966213  47.0980879
 106.5364047  43.0166213  48.7610879 106.6264047  43.8116213  47.3010879
 108.9514047  42.9346213  47.9160879 108.8054047  40.5266213  46.5960879
 128.4414047 104.0346213  84.9480879 129.5954047 103.5066213  84.7350879
 130.6904047 104.4526213  84.9910879 129.9194047 105.6416213  85.3960879
 128.6014047 105.3796213  85.3660879 127.5454047 103.5686213  84.8360879
 129.7464047 102.4846213  84.4070879 131.2254047 104.6316213  84.1540879
 131.2874047 104.1316213  85.7400879 130.4444047 106.5466213  85.6620879
 127.7494047 106.0016213  85.5960879 128.5504047  94.5726213  54.1890879
 129.2494047  94.3736213  55.2500879 129.9254047  95.5976213  55.7030879
 129.4644047  96.5466213  54.6730879 128.6574047  95.9296213  53.7930879
 127.9984047  93.8716213  53.7010879 129.3334047  93.4176213  55.7550879
 130.9294047  95.4936213  55.6800879 129.6104047  95.8746213  56.6220879
 129.7914047  97.5746213  54.7170879 128.1424047  96.3026213  52.9210879
  36.2004047  55.4986213  59.3350879  35.7574047  54.6906213  60.2330879
  36.7814047  53.7256213  60.6580879  37.9094047  54.1496213  59.8100879
  37.5514047  55.1916213  59.0400879  35.6694047  56.2466213  58.8960879
  34.7504047  54.7166213  60.6340879  36.5024047  52.7776213  60.4490879
  37.0014047  53.8296213  61.6390879  38.8504047  53.6246213  59.8810879
  38.1094047  55.7566213  58.3080879 114.4584047  65.2286213  69.0830879
 115.7304047  65.1206213  69.2400879 116.4414047  66.3406213  68.8330879
 115.3054047  67.1756213  68.4060879 114.1484047  66.5096213  68.5600879
 113.7694047  64.5126213  69.2980879 116.2234047  64.2366213  69.6270879
 117.0714047  66.1596213  68.0640879 116.9314047  66.7586213  69.6110879
 115.4914047  68.1736213  68.0380879 113.1294047  66.8016213  68.3550879
  20.5804047  47.4136213  87.1660879  20.6294047  46.6496213  88.2000879
  19.4414047  46.7986213  89.0520879  18.6974047  47.8156213  88.2870879
  19.3794047  48.1656213  87.1830879  21.2904047  47.4776213  86.4410879
  21.4464047  45.9726213  88.4190879  19.6874047  47.1396213  89.9700879
  18.9214047  45.9356213  89.1140879  17.7424047  48.1606213  88.6560879
  19.1464047  48.8706213  86.3990879 110.8594047  84.7456213 109.2080879
 110.6934047  86.0116213 109.3600879 109.2734047  86.3706213 109.4860879
 108.6564047  85.0376213 109.3730879 109.6004047  84.0946213 109.2110879
 111.7524047  84.2716213 109.1020879 111.5024047  86.7336213 109.3940879
 108.9784047  86.9746213 108.7330879 109.0774047  86.7896213 110.3840879
 107.5814047  84.9456213 109.4270879 109.5214047  83.0236213 109.0960879
 131.6114047  56.5596213  68.0800879 131.4214047  55.4516213  67.4550879
 129.9954047  55.1116213  67.3560879 129.4024047  56.2616213  68.0600879
 130.3644047  57.1026213  68.4780879 132.5134047  56.9896213  68.2660879
 132.2174047  54.8386213  67.0460879 129.7894047  54.2456213  67.8330879
 129.6914047  55.0746213  66.3940879 128.3294047  56.3206213  68.1670879
 130.3044047  58.0346213  69.0200879 100.0494047  69.0796213  23.9400879
  99.4194047  67.9626213  23.8300879 100.3344047  66.8326213  23.6170879
 101.6284047  67.5376213  23.6280879 101.4434047  68.8546213  23.8190879
  99.6234047  69.9896213  24.0920879  98.3414047  67.8636213  23.8870879
 100.1684047  66.3876213  22.7260879 100.2754047  66.1636213  24.3720879
 102.5394047  66.9736213  23.4930879 102.1514047  69.6676213  23.8840879
  65.2894047 104.4136213  27.9140879  66.4654047 104.8116213  28.2530879
  67.4454047 103.7166213  28.2310879  66.5814047 102.6006213  27.8070879
  65.3194047 103.0266213  27.6250879  64.4584047 104.9966213  27.8590879
  66.7084047 105.8326213  28.5230879  67.8324047 103.5506213  29.1490879
  68.1764047 103.8906213  27.5570879  67.0094047 101.6156213  27.6890879
  64.4294047 102.4966213  27.3200879  90.7614047 114.0706213  71.0920879
  91.8084047 114.6906213  71.5080879  92.3044047 115.6586213  70.5190879
  91.3174047 115.4616213  69.4430879  90.4184047 114.5266213  69.7950879
  90.2484047 113.3596213  71.6070879  92.2734047 114.5236213  72.4730879
  93.2354047 115.4226213  70.2080879  92.2714047 116.6016213  70.8780879
  91.3994047 116.0436213  68.5370879  89.5644047 114.1286213  69.2660879
  40.6164047  62.3136213  34.3820879  40.2364047  62.4956213  35.5980879
  41.2174047  61.9806213  36.5640879  42.2434047  61.4616213  35.6440879
  41.8764047  61.6656213  34.3670879  40.1004047  62.5896213  33.5510879
  39.3054047  62.9726213  35.8810879  40.8244047  61.2406213  37.1280879
  41.5864047  62.7196213  37.1450879  43.1324047  60.9996213  36.0490879
  42.3714047  61.4206213  33.4390879  61.5974047  22.4556213  86.5470879
  60.7424047  22.0106213  85.6950879  61.3654047  21.6966213  84.4020879
  62.7644047  22.0576213  84.6900879  62.8844047  22.5006213  85.9530879
  61.3934047  22.7356213  87.5020879  59.6864047  21.8796213  85.9030879
  60.9854047  22.2696213  83.6610879  61.2794047  20.7146213  84.1790879
  63.5114047  21.9406213  83.9190879  63.7454047  22.8476213  86.5050879
  51.6094047  52.4066213  69.7670879  50.8914047  51.3696213  70.0230879
  51.7104047  50.1626213  70.1970879  53.0554047  50.7256213  69.9860879
  52.9784047  52.0436213  69.7350879  51.2584047  53.3476213  69.6110879
  49.8104047  51.3816213  70.1030879  51.4924047  49.4656213  69.4990879
  51.6154047  49.7826213  71.1280879  53.9164047  50.0756213  70.0480879
  53.7494047  52.7736213  69.5350879 130.8864047  55.5076213  75.0100879
 130.8854047  55.6676213  76.2860879 132.2474047  55.7236213  76.8350879
 133.0344047  55.5616213  75.6000879 132.2204047  55.4366213  74.5380879
 130.0614047  55.4416213  74.4190879 129.9884047  55.7516213  76.8900879
 132.4164047  54.9636213  77.4790879 132.4324047  56.6156213  77.2730879
 134.1134047  55.5596213  75.6570879 132.4394047  55.3046213  73.4890879
  30.5224047  81.2616213  36.2750879  31.2074047  81.4286213  35.1990879
  31.6614047  82.8176213  35.0450879  31.0894047  83.4166213  36.2630879
  30.4244047  82.4896213  36.9740879  30.1094047  80.3866213  36.5860879
  31.4284047  80.6406213  34.4880879  31.2744047  83.2406213  34.2130879
  32.6694047  82.8786213  35.0460879  31.2454047  84.4676213  36.4600879
  29.8864047  82.5636213  37.9080879  86.0344047  70.8186213 116.6400879
  85.1414047  71.1276213 117.5140879  85.2814047  72.5156213 117.9770879
  86.4484047  72.9396213 117.1840879  86.8774047  71.9326213 116.4040879
  86.1294047  69.9166213 116.1820879  84.3744047  70.4486213 117.8670879
  85.4794047  72.5546213 118.9670879  84.4644047  73.0646213 117.7500879
  86.8234047  73.9466213 117.2920879  87.6954047  71.8796213 115.7000879
 131.0264047  60.8736213  54.0810879 129.7764047  60.5706213  54.0730879
 128.9274047  61.7316213  54.3750879 129.9574047  62.7686213  54.5600879
 131.1834047  62.2486213  54.3830879 131.7944047  60.2316213  53.8990879
 129.3904047  59.5786213  53.8670879 128.3964047  61.5886213  55.2220879
 128.3184047  61.9546213  53.6000879 129.6554047  63.7776213  54.8010879
 132.1614047  62.7036213  54.4390879  69.8234047  64.9926213  18.6740879
  69.6804047  64.4476213  17.5170879  68.6984047  63.3556213  17.5400879
  68.3044047  63.3866213  18.9600879  68.9734047  64.3536213  19.6110879
  70.4464047  65.7656213  18.8940879  70.2184047  64.7556213  16.6280879
  69.1244047  62.4726213  17.2990879  67.9114047  63.5536213  16.9380879
  67.5684047  62.6836213  19.3210879  68.9434047  64.6646213  20.6450879
  45.7334047  98.0196213  30.0380879  46.0734047  96.9036213  29.4950879
  45.3524047  95.7636213  30.0790879  44.5234047  96.4626213  31.0770879
  44.7584047  97.7846213  31.0400879  46.1004047  98.9356213  29.7940879
  46.8044047  96.8116213  28.7000879  45.9874047  95.1146213  30.5210879
  44.7814047  95.2976213  29.3890879  43.8514047  95.8906213  31.7000879
  44.3394047  98.5956213  31.6170879  77.2194047  41.0246213 101.7680879
  76.5874047  42.1416213 101.8500879  77.4804047  43.2946213 101.6700879
  78.7644047  42.6016213 101.4670879  78.5944047  41.2706213 101.5270879
  76.8064047  40.1006213 101.8600879  75.5214047  42.2276213 102.0290879
  77.5044047  43.8746213 102.4960879  77.2234047  43.8366213 100.8560879
  79.6594047  43.1836213 101.3000879  79.3004047  40.4596213 101.4250879
  65.8614047  44.8996213 104.2510879  66.1714047  44.1646213 105.2600879
  66.0664047  42.7316213 104.9510879  65.6274047  42.7986213 103.5460879
  65.5124047  44.0776213 103.1500879  65.8624047  45.9156213 104.2340879
  66.4764047  44.5516213 106.2260879  65.3724047  42.2806213 105.5300879
  66.9614047  42.2706213 105.0340879  65.4524047  41.8816213 103.0030879
  65.2194047  44.5026213 102.2020879  62.6594047 134.3876213  79.9470879
  63.4344047 135.4046213  80.0940879  64.5734047 135.3686213  79.1670879
  64.2894047 134.1106213  78.4530879  63.1624047 133.5486213  78.9220879
  61.8124047 134.2046213  80.4780879  63.2694047 136.1976213  80.8150879
  65.4504047 135.3166213  79.6640879  64.5614047 136.1576213  78.5370879
  64.9624047 133.7806213  77.6750879  62.6554047 132.6376213  78.6420879
  45.4594047  23.6336213  67.4180879  44.9484047  23.5396213  68.5950879
  43.5184047  23.2056213  68.5500879  43.3134047  23.1276213  67.0930879
  44.4624047  23.3806213  66.4430879  46.4294047  23.8546213  67.2080879
  45.5044047  23.6876213  69.5150879  42.9564047  23.9376213  68.9590879
  43.3324047  22.3176213  68.9940879  42.3324047  22.8906213  66.7080879
  44.6884047  23.4106213  65.3880879  45.0224047 120.8666213  42.5640879
  44.6074047 122.0766213  42.7010879  45.4694047 123.0376213  42.0000879
  46.4734047 122.1216213  41.4300879  46.1964047 120.8516213  41.7700879
  44.5844047 120.0396213  42.9600879  43.7244047 122.3576213  43.2640879
  45.8934047 123.6896213  42.6450879  44.9644047 123.5256213  41.2740879
  47.2794047 122.5246213  40.8350879  46.7054047 119.9276213  41.5360879
  93.0434047 113.3716213  51.0200879  93.8134047 114.3956213  51.1410879
  95.0934047 114.0496213  51.7740879  94.8964047 112.6056213  51.9930879
  93.6884047 112.2236213  51.5440879  92.1124047 113.3736213  50.6110879
  93.5534047 115.3956213  50.8140879  95.2154047 114.5386213  52.6490879
  95.8714047 114.2226213  51.1520879  95.6814047 112.0286213  52.4580879
  93.2074047 111.2566213  51.5380879  71.5544047  62.8196213 120.0380879
  71.2164047  61.8786213 120.8490879  71.7844047  62.0786213 122.1900879
  72.5214047  63.3356213 121.9780879  72.3764047  63.7576213 120.7100879
  71.2784047  62.8896213 119.0620879  70.5884047  61.0376213 120.5790879
  72.4094047  61.3256213 122.4410879  71.0584047  62.1916213 122.8840879
  73.0704047  63.7726213 122.8000879  72.7674047  64.6276213 120.2030879
  56.6524047 113.5696213  62.7500879  57.3924047 113.2146213  61.7590879
  57.9264047 114.3716213  61.0280879  57.3334047 115.4716213  61.8090879
  56.5894047 114.9836213  62.8160879  56.1794047 112.9406213  63.3930879
  57.6014047 112.1846213  61.4930879  57.6004047 114.3856213  60.0720879
  58.9354047 114.3986213  61.0660879  57.5374047 116.4926213  61.5240879
  56.0154047 115.4856213  63.5810879  40.1464047  32.6476213  95.6570879
  40.1554047  33.9166213  95.8700879  41.4694047  34.3886213  96.3270879
  42.2164047  33.1186213  96.3330879  41.4254047  32.1066213  95.9360879
  39.3484047  32.1056213  95.3360879  39.2974047  34.5646213  95.7290879
  41.4154047  34.7846213  97.2550879  41.8714047  35.0466213  95.6760879
  43.2544047  33.1166213  96.6320879  41.6284047  31.0526213  95.8200879
 110.5524047  94.2686213  40.2180879 111.1164047  93.1466213  40.4950879
 112.2254047  92.8456213  39.5790879 112.1794047  94.0366213  38.7120879
 111.1924047  94.8616213  39.1010879 109.7674047  94.6786213  40.7170879
 110.8134047  92.4966213  41.3080879 112.0484047  92.0026213  39.0510879
 113.1044047  92.7856213  40.0720879 112.8904047  94.1306213  37.9050879
 110.8674047  95.8136213  38.7070879  42.8394047  44.8256213  76.0340879
  42.5134047  45.5396213  75.0150879  43.1204047  45.0386213  73.7730879
  43.8674047  43.8816213  74.2960879  43.6914047  43.7696213  75.6240879
  42.5384047  44.9836213  76.9910879  41.8674047  46.4086213  75.0610879
  43.7424047  45.7216213  73.3660879  42.4154047  44.7506213  73.1090879
  44.4444047  43.2726213  73.6150879  44.0794047  43.0526213  76.3320879
 104.4154047  95.2426213  70.3630879 105.4714047  95.9486213  70.5720879
 105.1664047  97.3836213  70.6590879 103.7074047  97.3536213  70.4540879
 103.2824047  96.0906213  70.2830879 104.3864047  94.2316213  70.2690879
 106.4684047  95.5366213  70.6740879 105.6274047  97.9026213  69.9260879
 105.4004047  97.7556213  71.5680879 103.1534047  98.2806213  70.4610879
 102.2934047  95.6916213  70.1100879  94.5904047  97.3406213  22.9640879
  94.6724047  98.5776213  22.6220879  94.9434047  99.4506213  23.7730879
  94.9984047  98.4506213  24.8530879  94.7894047  97.2166213  24.3620879
  94.4094047  96.5616213  22.3370879  94.5584047  98.9386213  21.6060879
  94.1914047 100.1086213  23.9210879  95.8274047  99.9296213  23.6730879
  95.1884047  98.7746213  25.8660879  94.7584047  96.2546213  24.8510879
  23.9974047  68.7496213 113.1480879  25.2094047  68.3826213 113.3750879
  25.3034047  66.9446213 113.6630879  23.8854047  66.5616213 113.5530879
  23.1324047  67.6326213 113.2490879  23.6954047  69.6946213 112.9270879
  26.0624047  69.0506213 113.3570879  25.6554047  66.7776213 114.5950879
  25.8664047  66.4666213 112.9730879  23.6014047  65.5316213 113.7130879
  22.0684047  67.7296213 113.0920879  85.7544047 107.7896213  49.7670879
  85.0324047 106.7316213  49.8870879  85.8454047 105.5076213  49.8890879
  87.1924047 106.0876213  49.7430879  87.1214047 107.4286213  49.6740879
  85.4074047 108.7456213  49.7430879  83.9524047 106.7376213  49.9780879
  85.6174047 104.9126213  49.1050879  85.7554047 105.0066213  50.7610879
  88.0504047 105.4326213  49.7090879  87.8944047 108.1746213  49.5670879
  77.9994047 110.3806213 123.8860879  78.5454047 110.9216213 124.9180879
  79.2234047 112.1826213 124.5840879  78.9504047 112.2516213 123.1380879
  78.2304047 111.1876213 122.7440879  77.4774047 109.5086213 123.8790879
  78.5124047 110.5016213 125.9160879  80.2154047 112.1266213 124.7670879
  78.8094047 112.9636213 125.0730879  79.3244047 113.0906213 122.5690879
  77.8514047 110.9076213 121.7720879 124.5844047  55.5986213  49.8070879
 125.5364047  55.1916213  49.0440879 126.1844047  56.3026213  48.3320879
 125.3994047  57.4376213  48.8490879 124.4654047  57.0076213  49.7130879
 123.9994047  55.0086213  50.3920879 125.8314047  54.1546213  48.9360879
 126.0794047  56.2106213  47.3320879 127.1584047  56.3856213  48.5870879
 125.6304047  58.4376213  48.5110879 123.7204047  57.5476213  50.2790879
 115.8394047  99.7666213  34.7530879 116.4174047 100.9136213  34.6770879
 115.4944047 102.0166213  34.9770879 114.2584047 101.2586213  35.2410879
 114.4784047  99.9406213  35.1060879 116.2824047  98.8666213  34.5880879
 117.4624047 101.0536213  34.4240879 115.3834047 102.6306213  34.1820879
 115.7884047 102.5326213  35.7930879 113.3554047 101.7926213  35.5010879
 113.8154047  99.0956213  35.2220879  44.3984047  50.6016213  59.8850879
  43.5034047  50.9926213  60.7220879  42.8304047  52.2196213  60.2750879
  43.5294047  52.4516213  58.9990879  44.4464047  51.4926213  58.7850879
  44.9874047  49.7786213  59.9870879  43.2704047  50.4816213  61.6490879
  42.9844047  52.9816213  60.9200879  41.8424047  52.0656213  60.1280879
  43.2614047  53.3076213  58.3960879  45.1354047  51.3406213  57.9670879
  26.1234047  93.9506213 100.9820879  26.5514047  93.0086213 100.2180879
  26.7114047  91.7406213 100.9440879  26.2834047  92.1556213 102.2920879
  25.9414047  93.4546213 102.2970879  25.9394047  94.9096213 100.6970879
  26.7694047  93.1306213  99.1630879  27.6734047  91.4356213 100.9440879
  26.1044047  91.0236213 100.5720879  26.2824047  91.4306213 103.0930879
  25.5854047  94.0916213 103.0940879  84.3504047 134.4236213  65.6530879
  85.3864047 135.1856213  65.6650879  86.6374047 134.4146213  65.7000879
  86.0984047 133.0436213  65.7070879  84.7554047 133.0666213  65.6790879
  83.3834047 134.7366213  65.6290879  85.3474047 136.2696213  65.6500879
  87.1634047 134.6046213  66.5410879  87.1974047 134.5836213  64.8770879
  86.7814047 132.2066213  65.7310879  84.0324047 132.2636213  65.6740879
  16.8234047  52.8906213  66.6790879  17.7914047  53.4356213  67.3290879
  17.7664047  54.9016213  67.2250879  16.5764047  55.0846213  66.3760879
  16.0344047  53.8946213  66.0650879  16.6424047  51.8926213  66.6110879
  18.5374047  52.8836213  67.8880879  18.5974047  55.2526213  66.7710879
  17.6394047  55.3326213  68.1300879  16.2704047  56.0836213  66.1020879
  15.1684047  53.6436213  65.4700879  49.1674047 115.4696213  81.9560879
  49.3774047 116.7166213  81.7210879  50.6144047 117.1956213  82.3540879
  51.0714047 115.9566213  83.0070879  50.2124047 114.9526213  82.7620879
  48.3764047 114.9266213  81.6190879  48.7234047 117.3436213  81.1250879
  50.4234047 117.9176213  83.0340879  51.2814047 117.5146213  81.6660879
  51.9884047 115.9666213  83.5780879  50.2224047 113.9186213  83.0730879
 129.9564047  63.2506213  79.2420879 130.6684047  64.3216213  79.2880879
 132.0174047  64.0626213  79.8120879 131.9284047  62.6126213  80.0580879
 130.7134047  62.1516213  79.7180879 128.9954047  63.1906213  78.9150879
 130.3204047  65.2996213  78.9780879 132.1824047  64.5696213  80.6700879
 132.7264047  64.2746213  79.1250879 132.7854047  62.0906213  80.4590879
 130.2944047  61.1576213  79.7600879 109.8244047  99.3776213  90.3470879
 110.0304047 100.5056213  89.7630879 109.5914047 101.6406213  90.5860879
 109.0874047 100.9246213  91.7720879 109.2324047  99.5976213  91.6160879
 110.0494047  98.4616213  89.9670879 110.4754047 100.6106213  88.7800879
 108.8534047 102.1606213  90.1330879 110.3654047 102.2446213  90.8240879
 108.6794047 101.4896213  92.5970879 108.9794047  98.7756213  92.2680879
 108.5254047  57.1846213  80.6110879 108.3134047  56.0946213  81.2600879
 109.0604047  54.9626213  80.6940879 109.7484047  55.6356213  79.5780879
 109.4244047  56.9386213  79.5440879 108.1164047  58.0906213  80.8230879
 107.6624047  56.0156213  82.1230879 108.4384047  54.2416213  80.3580879
 109.7214047  54.5876213  81.3590879 110.4034047  55.0626213  78.9380879
 109.7334047  57.7296213  78.8750879  63.5824047 111.0476213 124.2110879
  64.7144047 110.4656213 124.3990879  65.5194047 111.1456213 125.4230879
  64.6084047 112.2456213 125.7840879  63.4754047 112.1736213 125.0640879
  62.8654047 110.7526213 123.5530879  65.0394047 109.5776213 123.8680879
  66.3834047 111.4986213 125.0370879  65.6964047 110.5426213 126.2130879
  64.9104047 112.9566213 126.5390879  62.5964047 112.8006213 125.0610879
 116.2904047  69.1636213 100.9150879 115.4284047  70.1116213 101.0290879
 114.1784047  69.6486213 101.6480879 114.5054047  68.2276213 101.8660879
 115.7484047  67.9606213 101.4310879 117.2224047  69.2526213 100.5180879
 115.5994047  71.1326213 100.7080879 113.3954047  69.7496213 101.0170879
 114.0024047  70.1216213 102.5220879 113.7714047  67.5806213 102.3220879
 116.3164047  67.0416213 101.4290879 114.8404047 100.2296213  38.4300879
 115.5584047 101.2356213  38.0740879 116.9374047 100.8416213  37.7520879
 116.8594047  99.3916213  37.9990879 115.6224047  99.0476213  38.3950879
 113.8604047 100.2636213  38.6960879 115.1934047 102.2546213  38.0170879
 117.6004047 101.2836213  38.3730879 117.1604047 101.0376213  36.7860879
 117.7384047  98.7816213  37.8490879 115.2034047  98.0886213  38.6600879
  28.3984047  44.1956213 102.6510879  27.3334047  43.5166213 102.8970879
  27.1654047  43.2566213 104.3330879  28.3624047  43.9326213 104.8640879
  29.0754047  44.4786213 103.8640879  28.7154047  44.4906213 101.7310879
  26.6394047  43.1746213 102.1370879  27.1854047  42.2676213 104.5340879
  26.3194047  43.6796213 104.6880879  28.5444047  43.9286213 105.9280879
  29.9964047  45.0426213 103.8750879  68.2334047  19.4886213  54.4590879
  68.0174047  20.2386213  55.4820879  66.6044047  20.2256213  55.8850879
  66.0514047  19.3076213  54.8740879  67.0214047  18.8836213  54.0450879
  69.1334047  19.3436213  54.0090879  68.7834047  20.8126213  55.9900879
  66.1914047  21.1446213  55.8080879  66.4894047  19.8546213  56.8170879
  64.9964047  19.0756213  54.8900879  66.9874047  18.2136213  53.1990879
  51.5604047  40.6766213  66.7150879  52.1834047  40.5596213  65.5950879
  51.9644047  41.7186213  64.7190879  51.0794047  42.5296213  65.5740879
  50.8524047  41.9046213  66.7420879  51.5674047  39.9986213  67.4720879
  52.7994047  39.7086213  65.3270879  51.4994047  41.4506213  63.8630879
  52.8284047  42.2026213  64.5240879  50.7214047  43.4816213  65.2110879
  50.2624047  42.1946213  67.5980879  82.3514047  23.0286213  47.1420879
  82.6954047  21.8066213  47.3550879  83.0114047  21.5626213  48.7690879
  82.7764047  22.9056213  49.3260879  82.3884047  23.7546213  48.3590879
  82.0894047  23.4236213  46.2430879  82.7464047  21.0456213  46.5850879
  83.9744047  21.2806213  48.8870879  82.3844047  20.8826213  49.1750879
  82.9254047  23.0736213  50.3830879  82.1324047  24.8026213  48.3960879
 103.0014047  66.2456213  84.6400879 104.2734047  66.0676213  84.5630879
 104.8684047  66.8226213  83.4520879 103.6664047  67.4756213  82.9050879
 102.5794047  67.1266213  83.6140879 102.3834047  65.8246213  85.3290879
 104.8424047  65.4366213  85.2360879 105.2914047  66.2066213  82.7730879
 105.5354047  67.5046213  83.7860879 103.7614047  68.1266213  82.0480879
 101.5414047  67.4066213  83.5050879 117.6044047  97.1746213  63.0860879
 117.4634047  98.1876213  63.8670879 116.4904047  97.9276213  64.9370879
 116.0994047  96.5466213  64.6040879 116.7624047  96.1196213  63.5170879
 118.2234047  97.1276213  62.2810879 117.9984047  99.1236213  63.7530879
 115.7014047  98.5556213  64.8770879 116.9224047  97.9766213  65.8480879
 115.3704047  96.0406213  65.2200879 116.7324047  95.1756213  62.9930879
  87.7794047  44.2896213  97.4680879  86.7354047  43.7716213  98.0130879
  85.5064047  44.1126213  97.2830879  86.0664047  44.9406213  96.2000879
  87.4014047  45.0336213  96.3220879  88.7354047  44.1876213  97.7990879
  86.7564047  43.1546213  98.9040879  84.8724047  44.6466213  97.8600879
  85.0544047  43.2876213  96.9170879  85.4024047  45.3636213  95.4610879
  88.1344047  45.5496213  95.7200879  95.1624047  80.6306213 135.1910879
  93.9044047  80.6596213 134.9230879  93.4704047  81.9836213 134.4570879
  94.7494047  82.7136213 134.5140879  95.7324047  81.9056213 134.9460879
  95.6804047  79.8226213 135.5260879  93.2404047  79.8096213 135.0260879
  92.7904047  82.3896213 135.0830879  93.1144047  81.9446213 133.5130879
  94.7784047  83.7536213 134.2250879  96.7834047  82.0916213 135.1100879
 104.2784047  97.5456213 106.8140879 104.9714047  97.3366213 105.7510879
 104.1224047  97.1736213 104.5630879 102.7894047  97.3326213 105.1700879
 102.8984047  97.5506213 106.4910879 104.6524047  97.6866213 107.7490879
 106.0544047  97.2876213 105.7290879 104.2324047  96.2556213 104.1560879
 104.3024047  97.8956213 103.8790879 101.9114047  97.2646213 104.5440879
 102.1444047  97.7106213 107.2480879  78.4634047 102.6396213 122.4010879
  77.3144047 102.0616213 122.4060879  76.2114047 103.0306213 122.4640879
  76.9724047 104.2926213 122.4920879  78.2924047 104.0456213 122.4540879
  79.3644047 102.1696213 122.3640879  77.1714047 100.9876213 122.3700879
  75.6634047 102.9156213 123.3050879  75.6274047 102.9746213 121.6420879
  76.4394047 105.2306213 122.5370879  79.1394047 104.7146213 122.4590879
  75.3164047 111.9296213  58.7180879  74.8364047 111.9076213  57.5240879
  75.5334047 110.9386213  56.6680879  76.5204047 110.4056213  57.6240879
  76.3784047 110.9976213  58.8230879  74.9914047 112.5206213  59.4780879
  74.0144047 112.5286213  57.1870879  75.9884047 111.3946213  55.8900879
  74.9074047 110.2136213  56.3460879  77.2144047 109.6446213  57.3000879
  76.9174047 110.8616213  59.7490879  90.8244047 108.6976213  57.5970879
  90.7254047 109.9636213  57.8000879  89.3264047 110.4136213  57.8050879
  88.6394047 109.1326213  57.5590879  89.5324047 108.1366213  57.4400879
  91.6914047 108.1696213  57.5530879  91.5714047 110.6246213  57.9520879
  89.1484047 111.0716213  57.0600879  89.0664047 110.8016213  58.7010879
  87.5604047 109.1136213  57.5030879  89.3974047 107.0796213  57.2600879
  91.0564047 104.4086213  44.2950879  91.3014047 103.1796213  44.0060879
  92.7184047 102.8396213  44.2020879  93.2364047 104.1386213  44.6660879
  92.2494047 105.0486213  44.7160879  90.1484047 104.8636213  44.2360879
  90.5554047 102.4746213  43.6590879  93.1534047 102.5616213  43.3340879
  92.8314047 102.1266213  44.9080879  94.2854047 104.2336213  44.9080879
  92.2574047 106.0886213  45.0060879  37.6484047  91.1376213  86.9070879
  38.0994047  92.2176213  86.3730879  39.2374047  91.9576213  85.4800879
  39.3464047  90.4936213  85.6150879  38.4064047  90.0286213  86.4550879
  36.8684047  91.0766213  87.5560879  37.6914047  93.2046213  86.5570879
  40.0744047  92.4176213  85.8080879  39.0274047  92.2226213  84.5290879
  40.1134047  89.9676213  85.0660879  38.1874047  89.0246213  86.7880879
  68.1074047  43.9046213  90.0450879  69.2404047  44.0076213  89.4440879
  69.2074047  45.0186213  88.3770879  67.8114047  45.4756213  88.4930879
  67.1804047  44.8126213  89.4770879  67.8984047  43.2726213  90.8130879
  70.1174047  43.4206213  89.6910879  69.3824047  44.6046213  87.4730879
  69.8554047  45.7706213  88.5620879  67.4504047  46.2456213  87.8270879
  66.1664047  44.8836213  89.8420879  71.4944047 108.4856213 118.5580879
  72.7774047 108.3926213 118.5630879  73.2304047 107.0476213 118.9460879
  71.9324047 106.3856213 119.1610879  70.9234047 107.2426213 118.9280879
  70.9604047 109.3186213 118.3240879  73.4484047 109.2066213 118.3140879
  73.7744047 107.0706213 119.7960879  73.7474047 106.6066213 118.1980879
  71.9104047 105.3486213 119.4620879  69.8534047 107.1106213 118.9850879
  87.5154047  23.8196213 104.7900879  87.4374047  22.6166213 104.3400879
  88.6164047  22.2486213 103.5450879  89.3914047  23.4986213 103.6320879
  88.7314047  24.4106213 104.3670879  86.8164047  24.2856213 105.3630879
  86.6024047  21.9496213 104.5240879  88.3654047  22.0406213 102.5890879
  89.1174047  21.4776213 103.9630879  90.3494047  23.5636213 103.1360879
  88.9904047  25.4226213 104.6410879 105.9034047  94.9376213  39.5260879
 107.1324047  95.1716213  39.8240879 107.2604047  96.1656213  40.8980879
 105.8384047  96.4566213  41.1560879 105.0554047  95.7266213  40.3430879
 105.5774047  94.2876213  38.8160879 107.9784047  94.6926213  39.3420879
 107.7494047  96.9906213  40.5800879 107.7074047  95.7726213  41.7140879
 105.5754047  97.1746213  41.9180879 103.9804047  95.6776213  40.2500879
  38.3014047  37.1726213  89.5970879  39.5614047  36.9176213  89.6320879
  40.3734047  38.1296213  89.4480879  39.3084047  39.1376213  89.2990879
  38.0984047  38.5596213  89.3900879  37.5544047  36.4906213  89.7020879
  39.9804047  35.9286213  89.7810879  40.9394047  38.0696213  88.6140879
  40.9444047  38.3176213  90.2600879  39.5774047  40.1716213  89.1430879
  37.1064047  38.9796213  89.3290879  95.4424047  79.0446213  33.8950879
  95.9554047  80.1996213  33.6520879  97.4124047  80.1286213  33.4750879
  97.6294047  78.6836213  33.6690879  96.4634047  78.0626213  33.9140879
  94.4554047  78.8546213  34.0500879  95.3844047  81.1186213  33.5830879
  97.8954047  80.6686213  34.1790879  97.6864047  80.4176213  32.5470879
  98.6314047  78.2856213  33.6010879  96.2394047  77.0226213  34.1020879
  85.6864047  30.7556213  76.5820879  84.6674047  31.4966213  76.8410879
  84.4004047  32.4616213  75.7650879  85.4864047  32.1176213  74.8300879
  86.2314047  31.1146213  75.3250879  86.0544047  30.0216213  77.1810879
  84.0714047  31.4206213  77.7440879  84.4884047  33.4126213  76.0940879
  83.4944047  32.3056213  75.3470879  85.5764047  32.6626213  73.9020879
  87.0964047  30.6096213  74.9220879  53.1624047  25.2206213  56.8310879
  53.8014047  24.1336213  56.5750879  55.1634047  24.1536213  57.1260879
  55.1724047  25.4866213  57.7540879  53.9904047  26.0986213  57.5720879
  52.2074047  25.4276213  56.5490879  53.3874047  23.2996213  56.0200879
  55.8574047  24.0896213  56.3940879  55.2944047  23.4246213  57.8120879
  56.0614047  25.8236213  58.2660879  53.6394047  27.0696213  57.8880879
  53.8924047  61.2946213  16.9760879  53.3914047  62.4786213  17.0140879
  54.4244047  63.5176213  16.8930879  55.6284047  62.6766213  16.7790879
  55.2994047  61.3746213  16.8280879  53.3674047  60.4256213  17.0400879
  52.3334047  62.6906213  17.1210879  54.4604047  64.0976213  17.7200879
  54.2884047  64.0776213  16.0640879  56.5944047  63.1476213  16.6720879
  55.9104047  60.4856213  16.7750879  23.6734047  66.6196213  39.7820879
  24.1404047  67.0706213  38.6710879  23.5794047  66.3646213  37.5110879
  22.6884047  65.4086213  38.1920879  22.7554047  65.5716213  39.5240879
  23.9194047  66.9556213  40.7100879  24.8614047  67.8766213  38.5950879
  24.2984047  65.8856213  36.9880879  23.0564047  66.9916213  36.9160879
  22.1054047  64.7156213  37.6020879  22.2504047  65.0566213  40.3280879
 113.1844047 126.0626213  75.8890879 112.1914047 126.6526213  75.3210879
 111.7654047 125.9586213  74.0980879 112.7264047 124.8416213  74.0820879
 113.5514047 124.9166213  75.1400879 113.6424047 126.3626213  76.7450879
 111.7214047 127.5536213  75.6980879 111.8754047 126.5466213  73.2840879
 110.8164047 125.6236213  74.1760879 112.6824047 124.1176213  73.2810879
 114.3674047 124.2806213  75.4500879  89.1334047  37.0136213  50.3380879
  89.9694047  37.9806213  50.4860879  91.3574047  37.5036213  50.5530879
  91.1434047  36.0526213  50.4130879  89.8324047  35.7816213  50.2870879
  88.1244047  37.1066213  50.2670879  89.6864047  39.0246213  50.5520879
  91.7804047  37.7266213  51.4430879  91.9094047  37.8676213  49.7890879
  91.9954047  35.3886213  50.4220879  89.3114047  34.8436213  50.1670879
  79.5114047  22.6606213  76.4890879  78.8644047  22.4956213  77.5890879
  79.7384047  22.0426213  78.6800879  81.0294047  21.9826213  77.9720879
  80.8794047  22.3486213  76.6880879  79.1124047  22.9686213  75.6060879
  77.8004047  22.6696213  77.7020879  79.4644047  21.1316213  79.0180879
  79.7654047  22.7146213  79.4340879  81.9144047  21.6736213  78.5110879
  81.5954047  22.4236213  75.8840879  87.6134047  74.4356213 135.6010879
  86.8074047  73.7436213 134.8740879  87.1754047  72.3216213 134.8430879
  88.3694047  72.3416213 135.7070879  88.6114047  73.5896213 136.1440879
  87.5524047  75.4366213 135.7670879  85.9544047  74.1576213 134.3470879
  87.4074047  72.0226213 133.9070879  86.4484047  71.7436213 135.2370879
  88.8994047  71.4206213 135.8980879  89.3884047  73.9776213 136.7860879
  53.9604047  41.9866213  90.7390879  52.6844047  41.8266213  90.7770879
  52.3034047  40.4106213  90.6820879  53.6354047  39.7876213  90.5810879
  54.5964047  40.7266213  90.6160879  54.4494047  42.8766213  90.7900879
  51.9704047  42.6376213  90.8690879  51.7534047  40.2326213  89.8540879
  51.8184047  40.1026213  91.5120879  53.7124047  38.7136213  90.4940879
  55.6724047  40.6426213  90.5680879  97.8114047  46.8176213 106.3060879
  99.0114047  47.2386213 106.5010879  99.9884047  46.5216213 105.6690879
  99.0924047  45.5956213 104.9530879  97.8184047  45.7826213 105.3380879
  96.9764047  47.1676213 106.7690879  99.2744047  48.0286213 107.1940879
 100.6554047  46.0186213 106.2370879 100.4564047  47.1466213 105.0290879
  99.5104047  44.9036213 104.2370879  96.9064047  45.2936213 105.0310879
  41.5854047  83.1176213 117.9260879  41.7834047  83.9316213 118.9020879
  41.8954047  85.3236213 118.4440879  41.7214047  85.1356213 116.9930879
  41.5394047  83.8356213 116.7060879  41.4764047  82.1096213 118.0070879
  41.8574047  83.6316213 119.9410879  42.8054047  85.7086213 118.6550879
  41.1614047  85.8996213 118.8290879  41.7514047  85.9966213 116.3410879
  41.3804047  83.3326213 115.7630879 105.7014047  90.0966213  95.4370879
 106.4334047  90.7996213  96.2280879 106.3244047  92.2376213  95.9460879
 105.3714047  92.2126213  94.8230879 105.0154047  90.9496213  94.5370879
 105.6184047  89.0836213  95.4480879 107.0574047  90.3836213  97.0100879
 107.2124047  92.6256213  95.6640879 105.9454047  92.7396213  96.7370879
 105.0684047  93.1436213  94.3660879 104.3454047  90.5536213  93.7880879
  36.6654047 119.4466213  53.1670879  37.9264047 119.1986213  53.1330879
  38.4994047 119.0696213  54.4800879  37.2954047 119.2976213  55.2990879
  36.2274047 119.5166213  54.5130879  36.0624047 119.5746213  52.3570879
  38.5034047 119.0946213  52.2210879  39.1974047 119.7786213  54.6530879
  38.8764047 118.1456213  54.6340879  37.3744047 119.2686213  56.3760879
  35.1954047 119.7166213  54.7590879 105.2574047  33.6916213  90.5110879
 104.6824047  32.5496213  90.6450879 103.2484047  32.6866213  90.9370879
 103.1214047  34.1546213  90.9430879 104.3094047  34.7296213  90.6900879
 106.2424047  33.8406213  90.3060879 105.1894047  31.5966213  90.5530879
 103.0174047  32.2956213  91.8390879 102.6824047  32.2736213  90.2090879
 102.1564047  34.6016213  91.1340879 104.5924047  35.7686213  90.6180879
  23.7714047  76.0316213  43.5480879  24.6044047  76.7816213  44.1790879
  25.5164047  76.0016213  45.0270879  25.0294047  74.6386213  44.7490879
  24.0064047  74.6736213  43.8780879  23.0514047  76.3526213  42.9060879
  24.6344047  77.8626213  44.0980879  25.4044047  76.2376213  46.0020879
  26.4774047  76.1136213  44.7350879  25.5054047  73.7976213  45.2320879
  23.4104047  73.8806213  43.4520879 104.3024047  93.4546213  33.1630879
 103.0524047  93.3956213  33.4630879 102.6194047  92.0216213  33.7540879
 103.8894047  91.3006213  33.5570879 104.8664047  92.1556213  33.2110879
 104.8174047  94.2986213  32.9270879 102.3934047  94.2556213  33.4980879
 101.9174047  91.7106213  33.0990879 102.2924047  91.9326213  34.7050879
 103.9174047  90.2296213  33.6990879 105.9104047  91.9876213  32.9910879
  73.4264047 114.0456213 120.7880879  73.5334047 114.9896213 121.6560879
  72.3674047 115.0516213 122.5480879  71.5644047 113.9416213 122.0070879
  72.2004047 113.3616213 120.9750879  74.1114047 113.8166213 120.0730879
  74.3824047 115.6606213 121.7260879  71.8814047 115.9326213 122.4570879
  72.6284047 114.8806213 123.5090879  70.6084047 113.7116213 122.4560879
  71.9184047 112.5306213 120.3450879  40.2264047 109.9746213  54.7980879
  39.1154047 110.5276213  54.4620879  38.8954047 110.4866213  53.0090879
  40.1214047 109.7906213  52.5800879  40.8914047 109.4966213  53.6410879
  40.5844047 109.8876213  55.7450879  38.4184047 110.9726213  55.1640879
  38.8474047 111.4156213  52.6180879  38.0704047 109.9526213  52.7760879
  40.2774047 109.5936213  51.5290879  41.8464047 108.9966213  53.7070879
  46.3744047 121.8276213 102.9330879  45.9614047 120.7436213 102.3760879
  46.8954047 119.6276213 102.5810879  47.9374047 120.3016213 103.3750879
  47.6164047 121.5916213 103.5740879  45.8924047 122.7216213 102.9220879
  45.0334047 120.6586213 101.8220879  47.2654047 119.2916213 101.7030879
  46.4654047 118.8776213 103.1030879  48.8004047 119.7396213 103.7020879
  48.1344047 122.3786213 104.1020879  70.6694047  42.3406213  28.1450879
  71.7454047  42.1586213  28.8280879  71.8714047  40.7716213  29.2980879
  70.6364047  40.1936213  28.7400879  69.9434047  41.1266213  28.0660879
  70.3764047  43.2166213  27.7220879  72.4744047  42.9336213  29.0340879
  71.8734047  40.7246213  30.3070879  72.6914047  40.3256213  28.9130879
  70.4184047  39.1486213  28.9100879  69.0054047  41.0656213  27.5330879
  31.2394047 111.8196213  52.3110879  29.9614047 111.9556213  52.2450879
  29.2644047 110.6656213  52.3560879  30.4164047 109.7576213  52.5010879
  31.5674047 110.4506213  52.4730879  31.9194047 112.5736213  52.2570879
  29.4544047 112.9056213  52.1220879  28.7384047 110.4586213  51.5200879
  28.6714047 110.6376213  53.1730879  30.2424047 108.6976213  52.6090879
  32.5934047 110.1246213  52.5490879  23.1004047  73.5606213 108.4820879
  24.2104047  73.2226213 107.9270879  25.2364047  74.2656213 108.0650879
  24.4774047  75.2796213 108.8190879  23.2264047  74.8506213 109.0560879
  22.2544047  72.9966213 108.5120879  24.3744047  72.2796213 107.4180879
  25.5244047  74.6196213 107.1640879  26.0304047  73.9346213 108.5940879
  24.9614047  76.2066213 109.0930879  22.4024047  75.3186213 109.5730879
 117.6714047  71.9366213  97.1300879 116.4114047  71.9656213  96.8730879
 115.7864047  70.6456213  97.0360879 116.9574047  69.8496213  97.4420879
 118.0564047  70.6216213  97.4930879 118.3054047  72.7306213  97.0830879
 115.8704047  72.8556213  96.5720879 115.4004047  70.3106213  96.1650879
 115.0834047  70.6576213  97.7610879 116.8354047  68.7956213  97.6480879
 119.0784047  70.3856213  97.7480879  88.1944047 132.8986213  88.7010879
  87.6994047 132.6176213  89.8550879  87.2224047 131.2286213  89.9260879
  87.5474047 130.7706213  88.5640879  88.1184047 131.7626213  87.8590879
  88.5834047 133.7966213  88.4250879  87.6394047 133.3176213  90.6800879
  86.2274047 131.1896213  90.0960879  87.7284047 130.6996213  90.6210879
  87.3174047 129.7546213  88.2780879  88.4824047 131.7906213  86.8420879
  35.8994047  97.7156213  69.8830879  35.4384047  96.7966213  70.6570879
  34.0994047  97.1256213  71.1650879  33.8874047  98.4326213  70.5180879
  34.9524047  98.7636213  69.7690879  36.8034047  97.7016213  69.4180879
  35.9704047  95.8856213  70.9060879  34.0984047  97.2116213  72.1720879
  33.4124047  96.4506213  70.8600879  32.9634047  98.9656213  70.6920879
  35.1484047  99.6346213  69.1610879  74.2364047 125.5956213  96.3050879
  75.1114047 126.2416213  95.6180879  75.4924047 125.5226213  94.3940879
  74.6484047 124.3216213  94.5240879  73.9174047 124.3796213  95.6500879
  73.8284047 125.9006213  97.1850879  75.5214047 127.2036213  95.9040879
  76.4734047 125.2826213  94.3990879  75.2524047 126.0506213  93.5670879
  74.6904047 123.5606213  93.7580879  73.1994047 123.6886213  96.0660879
  32.9224047  93.4986213  32.7010879  32.2914047  94.6126213  32.5760879
  30.8554047  94.4666213  32.8500879  30.7934047  93.0266213  33.1590879
  32.0144047  92.4736213  33.0680879  33.9194047  93.3626213  32.5600879
  32.7594047  95.5516213  32.3030879  30.3004047  94.6896213  32.0370879
  30.5724047  95.0236213  33.6440879  29.8424047  92.5806213  33.4130879
  32.3464047  91.4576213  33.2220879  79.9754047  37.3126213 123.3460879
  79.9584047  36.1606213 123.9190879  81.2874047  35.5336213 123.9340879
  82.0744047  36.5716213 123.2460879  81.2904047  37.6086213 122.9080879
  79.1744047  37.9256213 123.2210879  79.0714047  35.7036213 124.3420879
  81.2914047  34.6676213 123.4150879  81.6164047  35.3906213 124.8780879
  83.1314047  36.4166213 123.0880879  81.5184047  38.5346213 122.4000879
 123.2584047  77.4856213  56.5140879 124.3604047  78.0736213  56.2030879
 125.1774047  77.2646213  55.2890879 124.3104047  76.0826213  55.1390879
 123.1884047  76.2286213  55.8640879 122.5404047  77.8566213  57.1300879
 124.6534047  79.0506213  56.5700879 126.0624047  77.0176213  55.7070879
 125.3134047  77.7326213  54.4040879 124.6314047  75.2676213  54.5060879
 122.3384047  75.5746213  55.9940879 103.7934047  77.9426213  51.5190879
 104.7404047  78.5686213  50.9140879 105.4304047  79.5146213  51.8020879
 104.6774047  79.2996213  53.0500879 103.7204047  78.3736213  52.8670879
 103.1844047  77.2426213  51.1040879 105.0024047  78.4186213  49.8730879
 105.3324047  80.4646213  51.4750879 106.4044047  79.2706213  51.9160879
 104.9434047  79.8626213  53.9330879 102.9874047  77.9666213  53.5480879
  93.3754047 102.5536213  56.0690879  92.4484047 102.4076213  56.9500879
  91.7664047 101.1126213  56.8210879  92.4984047 100.5436213  55.6760879
  93.4394047 101.4016213  55.2470879  93.9764047 103.3676213  55.9690879
  92.1984047 103.1486213  57.7000879  90.7874047 101.2316213  56.6060879
  91.8874047 100.5476213  57.6500879  92.2334047  99.5606213  55.3140879
  94.1554047 101.3246213  54.4420879  96.0114047  57.9216213 128.1210879
  97.0484047  58.1596213 128.8450879  98.0234047  59.0096213 128.1480879
  97.3264047  59.2106213 126.8660879  96.1474047  58.5656213 126.8660879
  95.2114047  57.3586213 128.3960879  97.1894047  57.7806213 129.8510879
  98.9014047  58.5296213 128.0160879  98.1594047  59.8866213 128.6320879
  97.7914047  59.8136213 126.1000879  95.3804047  58.4906213 126.1090879
 109.1744047  42.3006213  87.9730879 109.5394047  43.5256213  88.1180879
 108.3884047  44.4346213  88.2150879 107.2814047  43.4686213  88.0950879
 107.7604047  42.2216213  87.9540879 109.7984047  41.5016213  87.8850879
 110.5714047  43.8536213  88.1640879 108.3784047  45.0986213  87.4540879
 108.3664047  44.9066213  89.1080879 106.2624047  43.8256213  88.1290879
 107.2514047  41.2756213  87.8400879  31.7574047  46.0916213 101.8870879
  32.2674047  45.3656213 102.8180879  32.0814047  43.9306213 102.5630879
  31.3524047  43.9856213 101.2830879  31.1704047  45.2606213 100.9010879
  31.7674047  47.1076213 101.8540879  32.7774047  45.7606213 103.6900879
  31.5224047  43.4976213 103.2840879  32.9674047  43.4566213 102.4590879
  31.0534047  43.0636213 100.8050879  30.6854047  45.6776213 100.0300879
  68.6064047 132.6296213  75.9050879  68.1544047 133.7246213  76.4060879
  68.5694047 133.9026213  77.8050879  69.3574047 132.6736213  78.0020879
  69.3704047 131.9386213  76.8780879  68.4474047 132.3006213  74.9560879
  67.5404047 134.4356213  75.8640879  67.7714047 133.9296213  78.4240879
  69.1414047 134.7276213  77.9170879  69.8194047 132.4906213  78.9610879
  69.8394047 130.9916213  76.6550879  93.7974047  24.7246213  72.8890879
  93.9614047  24.0836213  71.7860879  93.9234047  22.6276213  71.9850879
  93.7034047  22.5686213  73.4410879  93.6314047  23.8076213  73.9560879
  93.7874047  25.7366213  72.9920879  94.1094047  24.5556213  70.8220879
  94.8014047  22.1986213  71.7310879  93.1554047  22.2066213  71.4810879
  93.6244047  21.6056213  73.9250879  93.4794047  24.1456213  74.9700879
 104.1994047  77.3336213  56.8820879 103.7534047  76.1546213  57.1390879
 104.8204047  75.1446213  57.1130879 105.9784047  75.9956213  56.7850879
 105.5964047  77.2776213  56.6540879 103.6434047  78.1846213  56.8470879
 102.7144047  75.9286213  57.3520879 104.6584047  74.4556213  56.3930879
 104.9344047  74.7046213  58.0150879 106.9554047  75.5456213  56.6890879
 106.1644047  78.1656213  56.4210879  82.7804047  60.2156213  20.2130879
  83.2414047  59.7986213  19.0870879  82.4954047  60.3496213  17.9480879
  81.5024047  61.1746213  18.6600879  81.6834047  61.0846213  19.9880879
  83.1394047  59.9656213  21.1310879  84.0824047  59.1216213  18.9860879
  82.0474047  59.6196213  17.4130879  83.0874047  60.9176213  17.3590879
  80.7744047  61.7346213  18.0910879  81.1534047  61.5446213  20.8090879
 106.9354047  64.3676213  58.6210879 108.1964047  64.1226213  58.6930879
 108.5544047  63.4406213  59.9440879 107.2284047  63.3456213  60.5790879
 106.2894047  63.8936213  59.7900879 106.4634047  64.8296213  57.8490879
 108.9134047  64.3856213  57.9240879 109.1864047  63.9986213  60.5000879
 108.9424047  62.5246213  59.7670879 107.1384047  62.8776213  61.5490879
 105.2234047  64.0026213  59.9260879  44.3794047  54.8216213 103.1830879
  45.4104047  55.5866213 103.2670879  46.3024047  55.4366213 102.1080879
  45.5634047  54.4206213 101.3390879  44.4374047  54.0706213 101.9830879
  43.6304047  54.7586213 103.8680879  45.6024047  56.2636213 104.0910879
  47.2114047  55.0956213 102.3860879  46.3824047  56.3006213 101.5910879
  45.9644047  54.0756213 100.3970879  43.6614047  53.3656213 101.7230879
  48.4144047  71.8566213  70.1300879  48.1814047  70.6226213  69.8480879
  49.2714047  70.0216213  69.0660879  50.1824047  71.1746213  68.9570879
  49.6644047  72.2436213  69.5870879  47.8014047  72.4696213  70.6600879
  47.2894047  70.0856213  70.1510879  48.9504047  69.7226213  68.1570879
  49.7054047  69.2586213  69.5650879  51.1134047  71.0646213  68.4220879
  50.0464047  73.2456213  69.7120879  36.7954047 108.1516213  87.5990879
  35.8144047 108.9826213  87.5480879  35.1244047 109.1006213  88.8400879
  35.9184047 108.1576213  89.6470879  36.8954047 107.6106213  88.9050879
  37.4124047 107.9126213  86.8270879  35.5284047 109.5336213  86.6590879
  34.1624047 108.8026213  88.7710879  35.1864047 110.0396213  89.2070879
  35.6624047 108.0046213  90.6860879  37.6584047 106.8886213  89.1570879
  56.4224047  40.3466213  26.5750879  56.2484047  41.5836213  26.8850879
  54.8954047  42.0496213  26.5490879  54.3274047  40.8146213  25.9790879
  55.2364047  39.8256213  26.0020879  57.2774047  39.8146213  26.7160879
  57.0054047  42.2106213  27.3410879  54.9214047  42.7906213  25.8640879
  54.3894047  42.3376213  27.3750879  53.3084047  40.8176213  25.6210879
  55.1754047  38.7986213  25.6720879  66.6934047 107.3836213  47.7970879
  66.6264047 108.2956213  48.7020879  67.7224047 109.2676213  48.5860879
  68.4364047 108.7196213  47.4200879  67.8194047 107.6146213  46.9680879
  66.0434047 106.6106213  47.6830879  65.8544047 108.3456213  49.4610879
  68.3074047 109.2616213  49.4090879  67.3724047 110.1966213  48.3980879
  69.3244047 109.2196213  47.0600879  68.0544047 106.9576213  46.1430879
  90.3344047  23.5216213  66.7800879  90.3484047  24.7826213  66.5220879
  89.2264047  25.4866213  67.1580879  88.5624047  24.3616213  67.8380879
  89.2254047  23.2156213  67.6070879  91.0114047  22.8406213  66.4480879
  91.0974047  25.2706213  65.9090879  88.6184047  25.9086213  66.4700879
  89.5524047  26.1746213  67.8220879  87.6694047  24.5456213  68.4190879
  89.0334047  22.2056213  67.9390879 105.3814047 108.9576213  58.0750879
 105.3394047 109.8176213  57.1190879 104.1354047 110.6576213  57.1850879
 103.4904047 110.0956213  58.3850879 104.2354047 109.1006213  58.8960879
 106.1194047 108.2766213  58.2290879 106.1014047 109.9156213  56.3540879
 103.5554047 110.5336213  56.3680879 104.3714047 111.6306213  57.3170879
 102.5494047 110.5066213  58.7210879 104.0794047 108.4696213  59.7590879
 101.0184047  68.9006213 115.8250879 100.0834047  69.6306213 116.3210879
  98.7844047  68.9436213 116.3110879  99.1714047  67.6596213 115.7010879
 100.4864047  67.6506213 115.4220879 101.9944047  69.1686213 115.7310879
 100.2304047  70.6346213 116.7040879  98.1134047  69.4336213 115.7370879
  98.4294047  68.8116213 117.2480879  98.4204047  66.8996213 115.5460879
 101.1114047  66.8896213 114.9780879 104.4204047  22.6166213  75.2830879
 103.6604047  21.8356213  75.9660879 102.7274047  22.5826213  76.8210879
 103.1144047  23.9646213  76.4850879 104.1094047  23.9666213  75.5810879
 105.1394047  22.3216213  74.6270879 103.6984047  20.7526213  75.9190879
 102.8864047  22.3866213  77.7990879 101.7674047  22.3996213  76.5670879
 102.6014047  24.7876213  76.9590879 104.6374047  24.7826213  75.1100879
 119.1604047 112.6316213  55.9130879 119.7244047 111.6046213  55.3820879
 121.1064047 111.4326213  55.8510879 121.2174047 112.5816213  56.7660879
 120.0674047 113.2756213  56.7910879 118.2084047 112.9436213  55.7370879
 119.2414047 110.9426213  54.6730879 121.7654047 111.5066213  55.0890879
 121.2224047 110.5586213  56.3440879 122.1454047 112.7496213  57.2940879
 119.7854047 114.1626213  57.3390879  72.2634047 139.1696213  76.2030879
  71.0844047 138.8816213  75.7750879  70.9614047 139.0796213  74.3250879
  72.3234047 139.5446213  74.0070879  73.0754047 139.5906213  75.1200879
  72.5774047 139.1076213  77.1680879  70.2754047 138.5326213  76.4070879
  70.2744047 139.7866213  74.1070879  70.7514047 138.2126213  73.8510879
  72.5744047 139.7856213  72.9850879  74.1054047 139.8786213  75.2680879
 108.2284047  69.4796213 126.5510879 108.4394047  70.7486213 126.5390879
 109.8124047  71.0756213 126.1280879 110.3474047  69.7206213 125.9050879
 109.4054047  68.7956213 126.1570879 107.3544047  69.0256213 126.8020879
 107.6954047  71.4926213 126.8000879 110.3134047  71.5506213 126.8640879
 109.8224047  71.6176213 125.2760879 111.3724047  69.6036213 125.5830879
 109.4374047  67.7176213 126.1010879  29.2974047  91.2676213  69.1600879
  29.4654047  90.1206213  69.7170879  30.8024047  89.9876213  70.3120879
  31.3694047  91.3056213  69.9770879  30.4734047  92.0456213  69.3020879
  28.4524047  91.5806213  68.6870879  28.7124047  89.3406213  69.7470879
  31.3274047  89.2426213  69.8760879  30.7494047  89.8556213  71.3120879
  32.3784047  91.5416213  70.2830879  30.5374047  93.0456213  68.9010879
  79.1054047  87.7826213  28.9120879  79.3694047  89.0406213  28.8880879
  80.8164047  89.2996213  28.8960879  81.3294047  87.9186213  28.9310879
  80.3124047  87.0406213  28.9390879  78.1754047  87.3706213  28.9110879
  78.6184047  89.8216213  28.8630879  81.0934047  89.8136213  29.7210879
  81.1104047  89.7786213  28.0570879  82.3964047  87.7506213  28.9450879
  80.3074047  85.9606213  28.9620879  44.3204047  63.4926213  24.0440879
  44.3984047  63.8106213  25.2880879  43.6974047  65.0686213  25.5800879
  43.1984047  65.4076213  24.2360879  43.5724047  64.4726213  23.3460879
  44.7294047  62.6656213  23.6150879  44.9184047  63.2226213  26.0360879
  44.3334047  65.7736213  25.9220879  42.9354047  64.9236213  26.2270879
  42.6204047  66.3096213  24.0980879  43.3904047  64.3906213  22.2850879
  33.8654047  95.1856213  46.6910879  32.9004047  96.0306213  46.5970879
  32.8674047  96.9586213  47.7350879  34.0214047  96.4666213  48.5080879
  34.5964047  95.4256213  47.8810879  34.0814047  94.4526213  46.0200879
  32.1934047  96.0586213  45.7750879  32.0104047  96.8666213  48.2610879
  33.0074047  97.9136213  47.4370879  34.2814047  96.9506213  49.4380879
  35.4514047  94.8216213  48.1480879  99.0574047  69.6646213  76.0740879
 100.1474047  69.3806213  76.6970879 100.1694047  67.9866213  77.1600879
  98.8574047  67.5266213  76.6720879  98.2174047  68.5236213  76.0370879
  98.8234047  70.5656213  75.6670879 100.9554047  70.0836213  76.8610879
 100.2234047  67.9346213  78.1680879 100.9224047  67.4676213  76.7310879
  98.5524047  66.5066213  76.8550879  97.2504047  68.5526213  75.5570879
 105.0384047 107.9366213  92.4340879 104.9554047 108.4856213  93.5940879
 105.6464047 109.7826213  93.6410879 106.1464047 109.8626213  92.2570879
 105.7804047 108.7716213  91.5620879 104.6354047 107.0416213  92.1710879
 104.4374047 108.0486213  94.4400879 106.4074047 109.7696213  94.3040879
 105.0044047 110.5356213  93.8420879 106.7174047 110.7256213  91.9500879
 105.9644047 108.4906213  90.5360879  85.0574047  57.4206213 109.6190879
  86.1874047  57.9916213 109.8480879  86.8234047  57.4826213 111.0720879
  85.8164047  56.4956213 111.4990879  84.7864047  56.4706213 110.6360879
  84.4434047  57.6126213 108.8320879  86.6224047  58.7566213 109.2160879
  86.9334047  58.2126213 111.7600879  87.7074047  57.0386213 110.8700879
  85.9854047  55.9226213 112.4000879  83.8814047  55.8806213 110.6270879
  86.0354047 115.7946213  32.9100879  86.2574047 114.7266213  32.2270879
  85.0214047 113.9796213  31.9560879  84.0384047 114.8466213  32.6290879
  84.6504047 115.9076213  33.1830879  86.7394047 116.4626213  33.2120879
  87.2384047 114.4106213  31.8900879  85.0464047 113.0616213  32.3750879
  84.8364047 113.9196213  30.9650879  82.9934047 114.5726213  32.6160879
  84.2544047 116.7396213  33.7480879 128.2774047  67.5396213  68.3790879
 127.8244047  67.5176213  69.5830879 127.8774047  68.8426213  70.2160879
 128.4594047  69.6346213  69.1180879 128.6874047  68.8556213  68.0470879
 128.3364047  66.7426213  67.7520879 127.4464047  66.6286213  70.0760879
 128.4814047  68.8396213  71.0250879 126.9534047  69.1736213  70.4570879
 128.6344047  70.6906213  69.2630879 129.0994047  69.0876213  67.0760879
  55.5234047  25.8696213  52.2760879  54.4364047  26.3666213  51.8000879
  53.2424047  25.7686213  52.4150879  53.8764047  24.8206213  53.3480879
  55.2144047  24.8926213  53.2550879  56.4664047  26.1316213  52.0010879
  54.4004047  27.1346213  51.0360879  52.6784047  25.2866213  51.7300879
  52.6974047  26.4606213  52.9090879  53.2534047  24.2006213  53.9760879
  55.9924047  24.3556213  53.7770879  51.0644047  35.0836213  60.2830879
  50.7194047  36.3156213  60.4230879  51.8734047  37.1816213  60.7030879
  52.9574047  36.1826213  60.6960879  52.4654047  34.9576213  60.4470879
  50.4344047  34.3096213  60.0850879  49.7004047  36.6766213  60.3430879
  51.7904047  37.6236213  61.6070879  52.0044047  37.8686213  59.9750879
  53.9734047  36.5036213  60.8760879  52.9574047  33.9986213  60.3680879
 131.2424047  95.5896213  78.2630879 132.3604047  95.8606213  78.8400879
 133.4424047  94.9746213  78.3880879 132.7074047  94.1326213  77.4270879
 131.4174047  94.5076213  77.3650879 130.3614047  96.0726213  78.4200879
 132.4934047  96.6496213  79.5720879 133.8084047  94.4226213  79.1500879
 134.1784047  95.4936213  77.9310879 133.2324047  93.3506213  76.8990879
 130.5954047  94.1246213  76.7800879  25.3104047  52.4736213 103.4340879
  26.5404047  52.8526213 103.4540879  26.6644047  54.3176213 103.4670879
  25.2424047  54.7016213 103.4510879  24.4614047  53.6076213 103.4320879
  24.9864047  51.5106213 103.4220879  27.3864047  52.1756213 103.4600879
  27.1434047  54.6536213 102.6440879  27.1214047  54.6406213 104.3080879
  24.9764047  55.7486213 103.4560879  23.3864047  53.5046213 103.4170879
 107.8644047  54.6986213  98.6500879 109.0404047  54.9156213  98.1750879
 110.0624047  54.0926213  98.8380879 109.2224047  53.3556213  99.7980879
 107.9354047  53.7216213  99.6750879 107.0084047  55.1526213  98.3450879
 109.2574047  55.6196213  97.3800879 110.7444047  54.6656213  99.3140879
 110.5104047  53.4646213  98.1860879 109.6824047  52.6396213 100.4630879
 107.0514047  53.3976213 100.2030879  74.1784047  45.4906213  25.4780879
  75.3474047  44.9796213  25.6430879  75.3084047  43.5106213  25.6620879
  73.8654047  43.2846213  25.4730879  73.2164047  44.4566213  25.3660879
  73.9654047  46.4836213  25.4320879  76.2564047  45.5606213  25.7540879
  75.6224047  43.1466213  26.5500879  75.8434047  43.1176213  24.9010879
  73.4884047  42.2726213  25.4390879  72.1684047  44.6766213  25.2220879
 110.7354047  62.0646213  50.8030879 111.7984047  62.7886213  50.8360879
 113.0184047  61.9736213  50.9180879 112.4294047  60.6226213  50.9250879
 111.0894047  60.6936213  50.8570879 109.7824047  62.4126213  50.7460879
 111.7994047  63.8726213  50.8070879 113.5264047  62.1556213  51.7720879
 113.6084047  62.1106213  50.1100879 113.0804047  59.7616213  50.9800879
 110.3384047  59.9176213  50.8400879  97.2554047  87.2816213  35.8750879
  98.2504047  87.3466213  35.0620879  99.5394047  87.2556213  35.7610879
  99.0734047  87.1236213  37.1530879  97.7314047  87.1396213  37.2020879
  96.2734047  87.3226213  35.6160879  98.1534047  87.4556213  33.9880879
 100.0864047  88.0956213  35.6370879 100.0594047  86.4396213  35.4710879
  99.8004047  87.0316213  37.9480879  97.0514047  87.0666213  38.0380879
  43.3334047  71.4526213 127.3290879  44.0504047  72.0546213 126.4470879
  44.3704047  73.4326213 126.8440879  43.6834047  73.4956213 128.1460879
  43.0804047  72.3256213 128.4160879  42.9944047  70.4956213 127.2670879
  44.3814047  71.6026213 125.5190879  43.9844047  74.1016213 126.1940879
  45.3664047  73.5636213 126.9490879  43.7254047  74.4086213 128.7230879
  42.4934047  72.0096213 129.2660879 106.9024047  67.3526213  33.2470879
 108.1804047  67.4866213  33.1860879 108.6984047  68.3246213  34.2770879
 107.4434047  68.6456213  34.9790879 106.3994047  68.0676213  34.3630879
 106.3294047  66.8176213  32.5990879 108.8044047  67.0356213  32.4240879
 109.1424047  69.1586213  33.9210879 109.3294047  67.8066213  34.8720879
 107.4754047  69.2696213  35.8610879 105.3434047  68.0826213  34.5910879
  96.7204047 107.2216213 103.0660879  96.4794047 107.3646213 101.8100879
  97.5574047 108.0876213 101.1210879  98.4714047 108.3316213 102.2500879
  97.9664047 107.8166213 103.3840879  96.1164047 106.7546213 103.7370879
  95.5884047 106.9956213 101.3150879  97.2244047 108.9556213 100.7260879
  97.9934047 107.5126213 100.4140879  99.3974047 108.8616213 102.0760879
  98.3534047 107.8056213 104.3920879  55.3474047  32.5116213  52.0280879
  55.3534047  31.3436213  51.4900879  54.2364047  31.1626213  50.5530879
  53.5834047  32.4786213  50.6670879  54.2484047  33.2586213  51.5360879
  56.0234047  32.8576213  52.7050879  56.0944047  30.5796213  51.6990879
  53.6194047  30.4216213  50.8540879  54.5664047  30.9986213  49.6120879
  52.6974047  32.6816213  50.0840879  54.0634047  34.2706213  51.8660879
  99.9334047  71.0826213  29.0090879  99.9594047  69.9376213  28.4230879
 101.3094047  69.5846213  27.9630879 102.0574047  70.7726213  28.4100879
 101.2354047  71.6416213  29.0220879  99.1104047  71.5276213  29.4060879
  99.0904047  69.3046213  28.2830879 101.3434047  69.4886213  26.9580879
 101.6474047  68.7476213  28.4180879 103.1194047  70.8326213  28.2200879
 101.4284047  72.6046213  29.4710879  30.3044047  74.2556213  64.3050879
  29.0604047  74.2726213  63.9810879  28.5234047  75.6396213  63.9250879
  29.7274047  76.4076213  64.2870879  30.7644047  75.5816213  64.5060879
  30.8814047  73.4246213  64.4040879  28.4724047  73.3856213  63.7730879
  27.7864047  75.7736213  64.6030879  28.2064047  75.8726213  62.9950879
  29.6714047  77.4856213  64.3380879  31.7874047  75.7856213  64.7860879
  43.0584047 107.0926213  33.5640879  43.0744047 105.8066213  33.5810879
  41.9264047 105.2516213  34.3130879  41.2464047 106.4946213  34.7150879
  41.9224047 107.5666213  34.2670879  43.7494047 107.6886213  33.1170879
  43.8404047 105.1996213  33.1120879  42.2254047 104.7216213  35.1190879
  41.3404047 104.6916213  33.7100879  40.3334047 106.4366213  35.2890879
  41.7254047 108.6226213  34.3680879  88.0634047  95.8436213  52.4770879
  87.1894047  94.9666213  52.8260879  87.7254047  93.5996213  52.7630879
  89.0974047  93.8766213  52.3020879  89.2794047  95.1986213  52.1400879
  87.9164047  96.8486213  52.4460879  86.1764047  95.2036213  53.1310879
  87.2214047  93.0376213  52.0920879  87.7264047  93.1616213  53.6730879
  89.7804047  93.0546213  52.1490879  90.1444047  95.7606213  51.8190879
  51.6664047 100.4136213  69.1290879  51.9524047 100.1126213  70.3460879
  51.5984047  98.7226213  70.6670879  51.0454047  98.2876213  69.3730879
  51.0934047  99.2916213  68.4810879  51.8234047 101.3166213  68.6880879
  52.4024047 100.7986213  71.0550879  50.9004047  98.6796213  71.3960879
  52.4144047  98.1826213  70.9170879  50.6804047  97.2766213  69.2660879
  50.7814047  99.3376213  67.4480879  46.1194047  33.3766213  93.5120879
  46.6584047  32.2576213  93.1760879  46.0054047  31.1146213  93.8280879
  44.9744047  31.8146213  94.6140879  45.0544047  33.1416213  94.4170879
  46.4064047  34.2956213  93.1850879  47.4944047  32.1646213  92.4920879
  46.6474047  30.6176213  94.4290879  45.5884047  30.4916213  93.1510879
  44.2974047  31.2416213  95.2300879  44.4704047  33.9556213  94.8200879
  31.7104047  63.1416213  61.9890879  30.9024047  62.3906213  61.3260879
  31.4924047  61.0786213  61.0250879  32.8144047  61.2346213  61.6560879
  32.9264047  62.4506213  62.2180879  31.5164047  64.0876213  62.3060879
  29.9044047  62.6856213  61.0240879  31.5784047  60.9336213  60.0290879
  30.9674047  60.3306213  61.4550879  33.5214047  60.4186213  61.6140879
  33.7394047  62.9096213  62.7600879  78.3404047  71.1966213  30.4500879
  77.3484047  72.0156213  30.4810879  77.7874047  73.4146213  30.3820879
  79.2454047  73.2256213  30.2890879  79.5534047  71.9186213  30.3290879
  78.2744047  70.1836213  30.5030879  76.3114047  71.7146213  30.5680879
  77.5394047  73.9376213  31.2100879  77.4214047  73.8586213  29.5520879
  79.8864047  74.0906213  30.2010879  80.5064047  71.4126213  30.2860879
 110.4254047  68.8626213  95.1970879 109.7544047  69.8596213  94.7400879
 110.3914047  71.1456213  95.0590879 111.5754047  70.6736213  95.7980879
 111.5814047  69.3316213  95.8700879 110.1754047  67.8826213  95.0960879
 108.8274047  69.7686213  94.1850879 109.7984047  71.7156213  95.6440879
 110.6584047  71.6426213  94.2210879 112.2794047  71.3956213  96.1860879
 112.2814047  68.6486213  96.3280879  13.0924047  80.7066213  87.7160879
  13.3934047  79.9716213  88.7290879  14.8454047  79.8806213  88.9310879
  15.3184047  80.7196213  87.8160879  14.2764047  81.1976213  87.1130879
  12.1514047  80.9106213  87.3890879  12.6644047  79.4776213  89.3620879
  15.1714047  78.9296213  88.8360879  15.1194047  80.2686213  89.8220879
  16.3794047  80.8656213  87.6760879  14.2414047  81.8366213  86.2440879
  91.7824047  40.7976213 111.6320879  91.0224047  41.3476213 110.7520879
  90.0044047  40.4176213 110.2450879  90.3414047  39.2116213 111.0210879
  91.3864047  39.4506213 111.8310879  92.5524047  41.2496213 112.1180879
  91.1174047  42.3756213 110.4220879  90.1134047  40.2566213 109.2540879
  89.0714047  40.7406213 110.4570879  89.7604047  38.3116213 110.8800879
  91.9004047  38.8116213 112.5330879  50.5764047 110.2796213  49.0720879
  51.5934047 109.5126213  48.8900879  51.2174047 108.2376213  48.2650879
  49.7634047 108.4326213  48.1260879  49.4034047 109.6366213  48.6040879
  50.5984047 111.2076213  49.4870879  52.6094047 109.7736213  49.1630879
  51.4244047 107.4556213  48.8700879  51.6584047 108.1236213  47.3640879
  49.1634047 107.6496213  47.6850879  48.4374047 110.1146213  48.6660879
  48.2954047  45.0816213  91.0140879  47.9474047  46.2876213  91.2960879
  48.8274047  46.8936213  92.3060879  49.7574047  45.7766213  92.5460879
  49.4324047  44.7216213  91.7800879  47.8334047  44.4716213  90.3450879
  47.1064047  46.8006213  90.8440879  48.3164047  47.1306213  93.1440879
  49.3104047  47.6996213  91.9370879  50.5574047  45.8986213  93.2610879
  49.8834047  43.7436213  91.6900879  15.6494047  73.9006213  92.1640879
  16.6134047  74.0736213  91.3300879  17.7134047  74.8536213  91.9140879
  17.1754047  75.0936213  93.2650879  15.9634047  74.5276213  93.3950879
  14.7884047  73.3926213  91.9790879  16.6184047  73.6906213  90.3160879
  17.8544047  75.7206213  91.4170879  18.5674047  74.3156213  91.9510879
  17.7614047  75.6596213  93.9740879  15.2814047  74.4976213  94.2310879
  99.3864047 124.2956213  45.6770879  98.8524047 123.1476213  45.9050879
  97.9134047 123.1906213  47.0340879  98.0214047 124.6116213  47.4100879
  98.8894047 125.2456213  46.6030879 100.0634047 124.5016213  44.9470879
  99.0664047 122.2516213  45.3330879  98.2154047 122.5896213  47.7870879
  96.9744047 122.9596213  46.7420879  97.4354047 124.9866213  48.2370879
  99.2144047 126.2756213  46.5820879  54.2954047 110.6176213  66.2910879
  54.0044047 110.5216213  65.0410879  53.8524047 109.1236213  64.6160879
  54.1184047 108.4326213  65.8900879  54.3764047 109.3236213  66.8630879
  54.4464047 111.4836213  66.8010879  53.8844047 111.3696213  64.3760879
  54.5364047 108.8746213  63.9160879  52.9154047 108.9376213  64.2880879
  54.0834047 107.3536213  65.9250879  54.6104047 109.1846213  67.9080879
  40.6414047  54.6696213  39.7740879  39.4604047  54.2446213  39.4900879
  38.5284047  55.3486213  39.2190879  39.4264047  56.5016213  39.4090879
  40.6624047  56.0856213  39.7330879  41.4444047  54.0866213  39.9950879
  39.1814047  53.1976213  39.4520879  37.7704047  55.3626213  39.8860879
  38.1774047  55.3106213  38.2730879  39.0384047  57.5016213  39.2780879
  41.5654047  56.6406213  39.9430879  71.9954047 125.4446213  92.6780879
  71.5884047 124.2436213  92.8950879  70.2784047 123.9866213  92.2790879
  70.0184047 125.2986213  91.6600879  71.0354047 126.1426213  91.9040879
  72.8714047 125.8426213  93.0070879  72.1414047 123.5056213  93.4630879
  69.5814047 123.7656213  92.9750879  70.3364047 123.2586213  91.5810879
  69.1024047 125.4506213  91.1080879  71.1894047 127.1706213  91.6120879
  29.4494047  75.2156213  32.9910879  28.9544047  76.4026213  33.0180879
  27.4854047  76.3876213  33.0110879  27.2384047  74.9356213  32.9730879
  28.4014047  74.2616213  32.9620879  30.4394047  74.9846213  32.9900879
  29.5474047  77.3096213  33.0450879  27.1164047  76.8426213  32.1880879
  27.1074047  76.8006213  33.8520879  26.2214047  74.5716213  32.9590879
  28.6064047  73.2016213  32.9360879  43.5304047 105.7656213  28.7080879
  44.7324047 105.8586213  28.2590879  45.1094047 107.2506213  27.9760879
  43.8644047 107.9406213  28.3590879  42.9484047 107.0546213  28.7860879
  43.0594047 104.9036213  28.9700879  45.3934047 105.0126213  28.1060879
  45.3154047 107.3846213  26.9970879  45.8834047 107.5476213  28.5530879
  43.8064047 109.0156213  28.2690879  41.9384047 107.1946213  29.1410879
  60.6894047  27.6326213  55.1980879  61.2694047  26.9626213  56.1310879
  60.9764047  25.5256213  56.0420879  60.1014047  25.5106213  54.8560879
  59.9434047  26.7546213  54.3730879  60.7494047  28.6386213  55.0640879
  61.9014047  27.4026213  56.8950879  60.4864047  25.1986213  56.8620879
  61.8164047  24.9876213  55.8840879  59.6984047  24.5706213  54.5090879
  59.3804047  27.1206213  53.5280879  90.7074047  62.0706213  22.4290879
  91.5814047  61.1836213  22.1050879  91.2184047  59.8476213  22.5970879
  89.9464047  60.1556213  23.2760879  89.6614047  61.4646213  23.1670879
  90.7504047  63.0596213  22.1950879  92.4794047  61.3926213  21.5350879
  91.9044047  59.4966213  23.2490879  91.0784047  59.1996213  21.8350879
  89.4004047  59.3606213  23.7620879  88.8254047  62.0406213  23.5340879
  47.8934047  96.7116213  78.7040879  47.8274047  97.1466213  77.4950879
  46.6334047  97.9736213  77.2720879  46.0254047  97.9216213  78.6130879
  46.7764047  97.1776213  79.4420879  48.6294047  96.1226213  79.0840879
  48.5634047  96.9306213  76.7290879  46.0254047  97.5626213  76.5790879
  46.8834047  98.9196213  77.0200879  45.0994047  98.4486213  78.7940879
  46.6444047  96.9226213  80.4830879  50.7444047  91.2816213  75.1630879
  49.6664047  90.9906213  75.8020879  48.5964047  91.9666213  75.5520879
  49.2904047  92.8846213  74.6310879  50.5494047  92.4676213  74.4130879
  51.6094047  90.7486213  75.1850879  49.5544047  90.1266213  76.4480879
  48.3234047  92.4386213  76.4020879  47.7994047  91.5346213  75.1060879
  48.7634047  93.7436213  74.2440879  51.3384047  92.8836213  73.8040879
  56.9904047 108.7226213  81.3710879  58.0574047 108.0046213  81.3960879
  58.0084047 106.9836213  82.4520879  56.6834047 107.2676213  83.0300879
  56.0984047 108.2906213  82.3840879  56.8034047 109.4866213  80.7260879
  58.8954047 108.1336213  80.7210879  58.7414047 107.1226213  83.1330879
  58.0464047 106.0516213  82.0660879  56.3284047 106.6726213  83.8590879
  55.1404047 108.7666213  82.5300879  59.7104047 114.1756213  71.0310879
  60.7724047 114.0466213  71.7450879  60.8084047 115.0066213  72.8570879
  59.5384047 115.7186213  72.6300879  58.9054047 115.2176213  71.5550879
  59.4734047 113.6196213  70.2140879  61.5504047 113.3166213  71.5540879
  61.5974047 115.6326213  72.7770879  60.8104047 114.5366213  73.7510879
  59.2524047 116.5166213  73.2990879  57.9654047 115.4866213  71.0970879
  86.0774047  61.3016213 117.0550879  85.5054047  62.4466213 117.1830879
  85.3784047  63.1456213 115.8970879  86.0014047  62.1576213 114.9990879
  86.4064047  61.0806213 115.6940879  86.2704047  60.6466213 117.8080879
  85.1554047  62.8506213 118.1260879  85.8934047  64.0146213 115.8980879
  84.4094047  63.3006213 115.6550879  86.0704047  62.3726213 113.9430879
  86.8954047  60.1736213 115.3740879  38.6564047  52.8296213  68.1970879
  37.8134047  51.8916213  67.9410879  36.4524047  52.2416213  68.3740879
  36.6934047  53.5826213  68.9340879  37.9904047  53.9126213  68.8220879
  39.6504047  52.8076213  67.9860879  38.0714047  50.9536213  67.4630879
  36.1164047  51.6046213  69.0820879  35.8154047  52.2806213  67.5910879
  35.8654047  54.1376213  69.3510879  38.5234047  54.8046213  69.1180879
  43.4814047  45.9776213  53.0570879  43.1304047  44.7396213  53.0750879
  44.1864047  43.8756213  53.6230879  45.2224047  44.8826213  53.9150879
  44.7924047  46.1106213  53.5780879  42.9134047  46.7506213  52.7220879
  42.1704047  44.3726213  52.7300879  44.5084047  43.2086213  52.9360879
  43.8814047  43.4096213  54.4650879  46.1624047  44.5646213  54.3430879
  45.2744047  47.0746213  53.6490879  29.4454047 105.7076213  71.4700879
  29.3734047 104.9146213  72.4800879  30.5834047 104.0926213  72.6230879
  31.3684047 104.5806213  71.4750879  30.6874047 105.5286213  70.8100879
  28.7284047 106.3666213  71.1800879  28.5234047 104.8576213  73.1510879
  30.3724047 103.1086213  72.5290879  31.0554047 104.2786213  73.4960879
  32.3474047 104.1646213  71.2890879  30.9454047 106.1036213  69.9320879
 108.7294047  50.4876213 112.4150879 107.7194047  50.8716213 113.1120879
 108.0404047  50.9666213 114.5430879 109.4544047  50.5526213 114.5210879
 109.8434047  50.2766213 113.2650879 108.7394047  50.3526213 111.4080879
 106.7444047  51.1006213 112.6970879 107.4814047  50.3266213 115.0890879
 107.9414047  51.9126213 114.8810879 110.0084047  50.5146213 115.4480879
 110.7954047  49.9486213 112.8730879  61.6784047 114.7216213  57.9200879
  62.3014047 114.6296213  56.7980879  63.3694047 115.6326213  56.6780879
  63.2274047 116.3226213  57.9720879  62.2314047 115.7756213  58.6890879
  60.9064047 114.1316213  58.2210879  62.0704047 113.9006213  56.0310879
  63.1974047 116.2626213  55.9070879  64.2764047 115.1976213  56.5930879
  63.8874047 117.1436213  58.2090879  61.8474047 116.0176213  59.6690879
  38.1674047  75.3796213  61.8400879  37.5494047  74.4596213  61.1860879
  36.0944047  74.6696213  61.1820879  36.0074047  75.9086213  61.9750879
  37.2324047  76.3126213  62.3530879  39.1734047  75.4386213  61.9750879
  38.0394047  73.6276213  60.6940879  35.6114047  73.9096213  61.6380879
  35.7454047  74.8096213  60.2450879  35.0384047  76.3476213  62.1650879
  37.5494047  77.1646213  62.9350879  72.8094047  38.7196213  25.7450879
  73.9454047  38.4326213  26.2760879  73.8064047  37.5076213  27.4090879
  72.3444047  37.3226213  27.4170879  71.7744047  38.0396213  26.4340879
  72.6644047  39.3376213  24.9510879  74.8954047  38.8246213  25.9310879
  74.1264047  37.9286213  28.2690879  74.2844047  36.6356213  27.2330879
  71.8974047  36.6746213  28.1570879  70.7404047  38.1466213  26.1420879
  88.3414047  45.6316213  26.5540879  88.7084047  44.7936213  27.4580879
  90.1434047  44.4896213  27.3780879  90.5264047  45.3336213  26.2330879
  89.4574047  45.9976213  25.7610879  87.3984047  45.9856213  26.4190879
  88.0404047  44.3606213  28.1940879  90.3024047  43.5116213  27.1810879
  90.6274047  44.7726213  28.2190879  91.5544047  45.3416213  25.9020879
  89.3614047  46.6956213  24.9430879 128.5934047  63.1026213  50.9880879
 128.0624047  61.9796213  50.6540879 128.8664047  61.2666213  49.6520879
 129.9754047  62.2206213  49.4790879 129.8004047  63.2926213  50.2710879
 128.2134047  63.7616213  51.6630879 127.1324047  61.5996213  51.0620879
 128.3544047  61.1416213  48.7900879 129.1974047  60.3806213  50.0070879
 130.7694047  61.9886213  48.7850879 130.4024047  64.1786213  50.4080879
 128.4284047  72.7116213  57.5000879 128.0624047  72.3696213  56.3140879
 128.0534047  73.5116213  55.3900879 128.4914047  74.5866213  56.2980879
 128.7074047  74.1006213  57.5310879 128.5084047  72.0896213  58.2990879
 127.7944047  71.3596213  56.0270879 127.1254047  73.6896213  55.0340879
 128.7104047  73.3806213  54.6340879 128.5924047  75.5926213  55.9160879
 129.0314047  74.5886213  58.4390879  51.0154047  49.8696213  63.1770879
  50.0164047  49.1006213  63.4350879  48.7704047  49.8586213  63.6170879
  49.2664047  51.2306213  63.4100879  50.5854047  51.2196213  63.1520879
  51.9724047  49.5666213  63.0140879  50.0824047  48.0216213  63.5090879
  48.4014047  49.7406213  64.5490879  48.0824047  49.6086213  62.9210879
  48.5754047  52.0586213  63.4770879  51.2744047  52.0266213  62.9520879
  29.9634047 101.6766213  90.2630879  30.0494047 100.9036213  91.2880879
  28.9564047  99.9216213  91.3310879  28.2214047 100.2956213  90.1100879
  28.8254047 101.3256213  89.4940879  30.6084047 102.4266213  90.0290879
  30.8334047 100.9656213  92.0340879  28.3834047 100.0446213  92.1540879
  29.3074047  98.9766213  91.2720879  27.3304047  99.7466213  89.8400879
  28.5744047 101.8566213  88.5880879  44.7254047  50.7226213 110.1640879
  43.8404047  51.6576213 110.1620879  42.5704047  51.2116213 109.5720879
  42.9134047  49.8196213 109.2340879  44.1814047  49.5486213 109.5880879
  45.6734047  50.8036213 110.5230879  44.0074047  52.6556213 110.5500879
  42.3434047  51.7436213 108.7450879  41.8184047  51.2506213 110.2450879
  42.1694047  49.1896213 108.7670879  44.7654047  48.6446213 109.4960879
 107.2474047 116.6866213 108.0410879 106.4154047 115.7326213 108.2670879
 106.8794047 114.8396213 109.3380879 108.1594047 115.4846213 109.6810879
 108.3604047 116.5676213 108.9110879 107.1344047 117.4216213 107.3470879
 105.4814047 115.5986213 107.7330879 107.0244047 113.8996213 108.9970879
 106.2454047 114.8456213 110.1240879 108.7734047 115.0616213 110.4620879
 109.1754047 117.2756213 108.8810879  68.5864047  48.2596213  94.9140879
  69.4254047  47.2896213  95.0110879  70.8154047  47.7666213  95.0540879
  70.5964047  49.2206213  94.9600879  69.2834047  49.4936213  94.8790879
  67.5744047  48.1676213  94.8690879  69.1454047  46.2436213  95.0570879
  71.3454047  47.4246213  94.2650879  71.2634047  47.5196213  95.9250879
  71.4484047  49.8846213  94.9650879  68.7584047  50.4336213  94.8000879
  83.8134047 120.8166213  36.3650879  83.0904047 119.8666213  35.8840879
  81.6584047 120.0876213  36.1270879  81.7104047 121.3686213  36.8530879
  82.9814047 121.7826213  36.9840879  84.8264047 120.8756213  36.3150879
  83.4874047 119.0056213  35.3590879  81.2664047 119.3566213  36.7030879
  81.1464047 120.1786213  35.2600879  80.7894047 121.8246213  37.1880879
  83.3954047 122.6636213  37.4520879 123.6274047  75.7976213  71.7110879
 122.5694047  76.5306213  71.6940879 122.8894047  77.9546213  71.5200879
 124.3594047  77.8846213  71.4420879 124.7764047  76.6126213  71.5550879
 123.6474047  74.7866213  71.8190879 121.5604047  76.1476213  71.7940879
 122.5914047  78.4986213  72.3170879 122.4944047  78.3196213  70.6660879
 124.9254047  78.7956213  71.3090879 125.7684047  76.1876213  71.5420879
 103.1044047  83.2416213  69.2060879 103.4164047  84.1866213  70.0210879
 103.9124047  85.3786213  69.3190879 103.8204047  84.9166213  67.9230879
 103.3444047  83.6606213  67.8740879 102.7404047  82.3296213  69.4670879
 103.3244047  84.1176213  71.0990879 104.8684047  85.5846213  69.5730879
 103.3154047  86.1776213  69.4800879 104.1214047  85.5796213  67.1250879
 103.1454047  83.0096213  67.0360879 108.2904047  86.6316213 112.9840879
 107.2804047  87.4266213 112.9290879 106.0084047  86.6966213 112.8350879
 106.5024047  85.3086213 112.8470879 107.8424047  85.2876213 112.9350879
 109.2644047  86.9126213 113.0520879 107.3544047  88.5086213 112.9510879
 105.5264047  86.9066213 111.9730879 105.4174047  86.8816213 113.6330879
 105.7934047  84.4946213 112.7890879 108.5384047  84.4626213 112.9690879
  26.9154047  60.1226213  63.9070879  27.6354047  60.5946213  62.9520879
  27.1794047  61.9246213  62.5240879  26.0394047  62.1166213  63.4380879
  25.8984047  61.0506213  64.2440879  27.0464047  59.2216213  64.3600879
  28.4804047  60.0776213  62.5120879  26.8774047  61.9176213  61.5600879
  27.8914047  62.6256213  62.6750879  25.4644047  63.0296213  63.3830879
  25.1844047  60.8416213  65.0260879  15.0714047  81.5346213  96.8900879
  13.9854047  80.8466213  96.8440879  14.2494047  79.4006213  96.8510879
  15.7214047  79.4036213  96.9090879  16.1884047  80.6636213  96.9320879
  15.1314047  82.5496213  96.8950879  12.9914047  81.2776213  96.8060879
  13.9184047  78.9626213  96.0030879  13.8514047  78.9566213  97.6660879
  16.2514047  78.4626213  96.9290879  17.1974047  81.0456213  96.9740879
  16.7694047  76.4406213  57.6620879  16.5874047  77.6976213  57.4570879
  17.5114047  78.5226213  58.2480879  18.2644047  77.4706213  58.9530879
  17.8174047  76.2546213  58.5970879  16.2474047  75.6856213  57.2240879
  15.8434047  78.1036213  56.7820879  17.0124047  79.1126213  58.8980879
  18.1164047  79.0706213  57.6540879  19.0494047  77.7516213  59.6390879
  18.1274047  75.2666213  58.9050879  74.7134047 136.6416213  66.6660879
  74.1384047 137.1076213  65.6140879  75.0114047 137.0416213  64.4340879
  76.2154047 136.4386213  65.0330879  76.0234047 136.2096213  66.3430879
  74.3004047 136.5876213  67.5940879  73.1284047 137.5026213  65.5950879
  75.2074047 137.9626213  64.0700879  74.6204047 136.4456213  63.7190879
  77.0774047 136.2476213  64.4100879  76.6754047 135.7836213  67.0920879
  28.1554047  78.1216213 113.7610879  27.0274047  78.7356213 113.8430879
  26.1594047  78.1546213 114.8770879  27.0294047  77.0736213 115.3730879
  28.1974047  77.0686213 114.7080879  28.9104047  78.3496213 113.1190879
  26.7474047  79.5806213 113.2260879  25.3084047  77.7846213 114.4780879
  25.9554047  78.8236213 115.6060879  26.6754047  76.4316213 116.1670879
  29.0624047  76.4296213 114.8000879 113.9394047 120.4506213  58.7180879
 113.9364047 120.7906213  57.4780879 113.0154047 119.9656213  56.6830879
 112.4874047 119.0766213  57.7330879 113.0394047 119.3746213  58.9220879
 114.4974047 120.8816213  59.4510879 114.5394047 121.5896213  57.0630879
 113.5084047 119.4416213  55.9750879 112.2804047 120.5246213  56.2730879
 111.7594047 118.3236213  57.4720879 112.8944047 118.9406213  59.9000879
 104.3554047  44.5756213  99.9290879 105.1054047  44.9936213 100.8870879
 106.4964047  45.1836213 100.4540879 106.3884047  44.7836213  99.0400879
 105.1244047  44.4306213  98.7480879 103.3604047  44.3756213  99.9970879
 104.7554047  45.1866213 101.8950879 107.1254047  44.5756213 100.9590879
 106.7814047  46.1496213 100.5410879 107.2674047  44.8106213  98.4140879
 104.6794047  44.0876213  97.8260879  41.6844047  70.4596213 112.4650879
  41.6744047  71.0836213 111.3400879  40.8664047  70.3866213 110.3300879
  40.4134047  69.2246213 111.1150879  40.9014047  69.2826213 112.3660879
  42.1754047  70.7556213 113.3050879  42.1974047  72.0156213 111.1550879
  41.4294047  70.0986213 109.5430879  40.0854047  70.9506213 110.0280879
  39.7764047  68.4866213 110.6480879  40.7804047  68.6146213 113.2060879
  71.3368270  97.2594350  47.8754050  73.2156060  54.0529390  99.2762160
  76.6636740  64.2496350 110.6352980  68.0933750 102.6970170  55.8387610
  58.1279060  71.0884230  83.3894970  74.3440520  90.4592770  39.1318890
  98.0051880 109.9626870  86.6007260  74.0184490  81.2056660  67.0834170
  82.1781580  73.1287400  41.0826170  77.2873420  51.0306150  91.6779060
  56.2292150  81.8368240  32.9354070  62.1041560  51.9729680 111.2604000
 143.4253730 141.3874930 139.9694680 143.3447780 140.4729540 139.6986390
 143.0118150 141.8842000 139.2634390 141.5571770 143.1653950 141.8503950
 140.7813870 142.6854390 142.1402520 142.2084700 142.4859600 141.6760110
 135.5737600 143.4773760 142.7279710 134.7422480 143.2222470 143.1276220
 136.1818580 143.5484530 143.4637630 145.5779200 147.5714140 140.6303080
 145.1160730 146.8001380 140.9590250 146.3904750 147.5980210 141.1355530
 135.5538860 147.5113850 142.9237730 135.8566900 146.6211590 142.7447950
 136.2982450 148.0684070 142.6959980 133.9829550 138.4375650 136.5122100
 133.0946250 138.7791620 136.4101980 134.2670740 138.2375970 135.6202930
 131.9462560 141.0381300 142.3961800 132.5178670 140.2703500 142.3965440
 131.9464100 141.3370060 141.4868410 141.8042510 149.8572150 140.2507070
 141.1853950 150.3129650 139.6801510 142.6594290 150.0123610 139.8496770
 140.9980760 145.8411140 141.8574110 140.9289040 144.9001080 141.6963240
 141.7600620 145.9312550 142.4296680 133.1887430 136.4465660 144.1830730
 133.0090270 135.5491410 144.4633490 132.7867510 136.9937530 144.8577680
 142.0285930 138.6481520 142.0843040 142.4050750 137.7753400 141.9716710
 141.9305440 138.9840220 141.1933480 136.1590940 137.0207150 137.5460480
 136.2657690 137.9210880 137.8529240 135.2483300 136.9725120 137.2555130
 145.8110050 136.1431960 139.0171380 146.6319670 135.6528530 139.0596860
 145.8444130 136.7329620 139.7703220 133.8074100 138.9426160 142.7913070
 134.4884210 139.2064530 143.4100470 133.4922150 138.1027030 143.1251080
 137.9998670 139.9893520 141.8785660 138.5076890 140.4874490 142.5190680
 138.5311910 139.2128720 141.7025020 136.2834770 134.6292080 146.1449080
 136.2853210 135.1464470 145.3394980 135.4539080 134.1522260 146.1219010
 142.6705860 144.7411390 137.6438980 142.0523130 145.2060840 137.0801700
 143.1829110 145.4338870 138.0608490 137.5337620 144.2687260 144.3222580
 137.2007000 144.8956180 144.9643650 137.7104300 144.7949140 143.5424250
 146.0471530 138.0832340 141.7898920 145.3427100 138.3717230 142.3702030
 146.4083690 138.8932450 141.4298480 135.9650100 136.3402040 144.1519530
 136.3066910 137.1844090 143.8573400 135.0265910 136.4885780 144.2684870
 136.7456720 146.2368060 146.1371760 137.3630720 146.9119140 145.8556210
 135.8849840 146.6456040 146.0459260 132.0389060 145.4267920 135.0178610
 131.6617040 145.9155020 134.2863510 132.2962130 146.0993200 135.6485140
 147.6634310 147.7007470 144.0526400 146.9797830 148.3706580 144.0443070
 148.2028600 147.8988120 143.2871260 139.6477990 133.8284310 140.4764120
 139.9552970 133.2731200 139.7599620 138.7178690 133.9628770 140.2937110
 145.1993050 149.5451600 142.7671580 145.2120210 149.1413890 141.8993840
 144.6468270 150.3198890 142.6633010 146.4938470 146.2667820 137.8561750
 146.3834800 145.3242150 137.9811170 146.4906720 146.6283460 138.7424510
 144.5978490 144.4481440 144.0954190 145.0147280 144.2341550 143.2607650
 145.3218310 144.7054230 144.6662810 142.0358750 141.8933140 137.2124240
 141.1088030 141.8270520 137.4412710 142.1883570 142.8313270 137.0979480
 142.0227830 138.1650140 134.2091400 141.0831500 138.3264100 134.2943860
 142.3411090 138.8835820 133.6627390 146.0656040 143.4553440 137.7159490
 145.4468460 143.1172990 137.0685790 146.0480490 142.8113200 138.4238680
 145.5082600 139.6337980 145.1325300 145.0953780 140.4591690 145.3865290
 144.7758550 139.0483020 144.9401660 137.6415390 142.4197880 139.9943970
 137.2372390 141.7075130 139.4989870 137.7278510 142.0751120 140.8832010
 138.1097090 146.1065440 142.1583180 137.8125380 145.5010910 141.4790960
 139.0596910 146.1442750 142.0472540 136.3544010 139.1941090 143.7743010
 136.9058600 139.3036430 142.9996260 136.8687520 139.5678690 144.4898240
 146.1982700 149.6797310 145.8206280 145.7213260 150.4869500 145.6278890
 145.5144490 149.0275640 145.9732490 137.2015520 145.8447130 148.8090980
 136.3044050 146.0687100 149.0564380 137.2268390 145.9682070 147.8602380
 144.2420740 142.6940250 134.7232240 144.6814020 141.8562680 134.5770060
 144.9549160 143.3269650 134.8096380 136.0286740 142.7160450 147.3848350
 135.8894510 143.5883250 147.7535750 135.1468100 142.3733260 147.2396290
 142.3516120 147.6336320 138.6913480 142.7912030 148.3760650 138.2768870
 142.2903010 147.8762890 139.6152440 137.8267090 148.6582150 149.5933500
 137.7982520 149.0625100 148.7261930 137.6632060 147.7292510 149.4305100
 147.8237880 133.9483060 133.0373280 147.5110540 134.0409890 133.9372350
 148.5850350 134.5264090 132.9870710 134.3420020 141.3142860 137.4950620
 134.2217620 142.0404950 136.8831890 134.0320910 140.5445770 137.0178530
 131.9805390 144.4858000 143.3019260 132.0585810 144.6206770 142.3574980
 132.5947070 143.7773890 143.4947380 133.2253020 146.1858190 139.7125440
 132.8181100 146.3272780 138.8579040 134.1166030 145.9018350 139.5096650
 143.0431900 150.3350100 146.6192490 143.5576570 150.2458110 147.4214920
 142.2000980 150.6809800 146.9120400 145.0186300 150.6205440 136.0476490
 144.8587440 150.3308380 136.9458320 144.8533010 149.8445570 135.5121720
 137.4974680 150.4003970 137.8248110 137.3217160 149.4839510 137.6115910
 136.6430420 150.7591260 138.0645910 144.7212430 148.1293000 134.6074490
 144.0277590 148.1270290 133.9476770 145.4635290 147.7052320 134.1768660
 144.2862360 149.7555710 138.6822980 144.7419310 148.9745090 138.9961600
 144.6254880 150.4662530 139.2264160 132.0364910 145.5272170 145.8413720
 132.1995950 145.0577530 145.0233090 132.5017360 145.0195730 146.5062560
 136.8083680 134.6577930 140.8774290 136.3651830 135.4387470 140.5458810
 137.3668670 134.9807820 141.5845230 141.0953490 137.5246450 146.4809610
 140.6332860 137.7329470 147.2929550 140.6931600 136.7105800 146.1780280
 146.0958000 138.7455400 147.6106270 145.2451590 138.4461150 147.9315340
 145.9359790 138.9897410 146.6990090 143.1907710 140.2457150 149.7105060
 143.5161120 139.4120900 149.3707290 143.9788040 140.7685670 149.8583390
 139.9242500 134.2788630 135.7580120 139.2996680 134.2748500 136.4833430
 139.8372620 133.4119590 135.3616090 138.8459580 135.2025260 142.7363890
 139.1431910 136.1088090 142.6555910 139.3945140 134.7144040 142.1223460
 136.5997900 139.7811500 138.6055540 136.3738820 139.5648670 139.5102160
 135.8190430 140.2139960 138.2601510 143.8295660 139.7874870 137.2046190
 143.2304550 140.5110670 137.0209810 144.3775270 139.7251650 136.4222640
 139.0397110 140.6797080 149.2715810 138.9440710 139.7391810 149.1216210
 139.8829090 140.9012150 148.8763880 142.4360530 138.4238410 139.2349470
 142.8290100 138.7410610 138.4218160 142.7977380 137.5450290 139.3493990
 134.1707650 137.0910750 147.4249590 133.7771040 137.9385960 147.6322370
 133.4826050 136.4537120 147.6158230 131.4724700 135.0139210 141.4579670
 131.1837750 135.5842070 142.1704650 132.2170460 134.5343660 141.8210900
 131.6594930 138.9559330 132.6682390 131.5769600 139.8990090 132.8097380
 131.3077990 138.8134240 131.7894740 143.0215670 141.0144160 143.3300250
 142.2896790 141.5230970 143.6790350 142.6240010 140.1974140 143.0289030
 139.4593060 137.6898360 141.7352740 139.4629120 137.2488310 140.8857280
 140.3544180 138.0115690 141.8424560 135.3095440 137.5724850 140.6946950
 134.9695490 138.0500080 141.4514000 134.5472760 137.1189970 140.3348050
 139.5213210 138.6910440 134.7259500 139.6426030 138.6496920 135.6745320
 139.1361720 139.5534590 134.5706230 143.4841580 136.4677840 142.7423190
 143.5014320 136.9186490 143.5865040 143.2357160 135.5683480 142.9556630
 138.5334710 141.0011580 134.1242800 137.9651610 140.5529830 133.4978710
 139.2423710 141.3604360 133.5907950 146.9112330 133.8810020 148.5809570
 147.2358100 133.1499680 149.1067550 146.9468840 133.5623660 147.6790560
 133.6103890 144.9023600 148.0009530 133.2258680 144.2617270 148.5992490
 133.9216080 145.6059720 148.5704260 139.7601030 141.7500140 143.4818150
 140.1271160 141.2758710 144.2279490 139.5706090 142.6241710 143.8226490
 132.6241520 136.4943830 139.6111620 132.3388440 136.1299500 140.4490240
 132.5620380 135.7624290 138.9974760 137.5500400 140.7908780 145.8002360
 137.2457470 141.6700760 146.0252720 138.5046860 140.8508570 145.8359800
 136.0782190 144.9969770 136.3969210 135.3044450 144.4567390 136.2367930
 136.8076820 144.4776380 136.0586970 146.8370170 143.9935130 142.1895600
 147.5569290 144.4890420 141.7991710 146.6351990 143.3153020 141.5449470
 142.2980110 135.3873090 136.3324990 141.4844720 134.8886260 136.2570300
 142.1042060 136.2271340 135.9161340 142.2188970 144.0644190 148.0764600
 142.1526280 143.1439860 147.8222190 141.5894110 144.1619630 148.7909240
 145.0128500 139.7592740 134.6287150 145.9008120 140.0709970 134.4538490
 144.9833590 138.8864990 134.2367730 136.1219590 144.6650150 140.0348020
 136.6398260 143.8618410 139.9804910 135.6703610 144.6029290 140.8764850
 141.0089090 145.9316430 135.3075320 141.3504790 146.6758660 134.8118640
 140.1801800 146.2447550 135.6700150 133.6064130 141.6311520 146.9473720
 133.2479070 142.2965370 147.5347060 133.3118690 140.7995070 147.3186340
 136.8077250 142.0895760 149.8313270 136.5077390 142.2352940 148.9341090
 137.5788490 141.5301050 149.7386660 142.1505700 146.8864760 147.8268400
 142.1650240 145.9545720 147.6087310 141.4430800 146.9724520 148.4658170
 147.2842770 141.0704580 134.0967010 147.2006490 141.5018800 133.2463450
 148.0036960 141.5302930 134.5293830 148.3130020 147.9246840 136.8249140
 147.6706180 147.2702460 137.0992860 147.9260680 148.3301930 136.0489810
 143.8916500 145.2532270 140.6720830 144.2440320 144.6560400 140.0122200
 143.0078830 144.9276500 140.8429080 139.9779780 146.0129960 138.0791240
 140.6650910 146.5599170 138.4598830 139.1912200 146.5570690 138.1140850
 132.1172180 141.6302780 133.5708320 132.9867030 141.9127580 133.8544240
 131.6262500 142.4438650 133.4557130 139.2806990 143.0175990 137.6916600
 139.7369770 143.8281240 137.9176790 138.9295200 142.6999130 138.5235090
 141.5839600 148.5282330 144.9208900 142.2281820 148.7341710 145.5982320
 141.9469040 147.7670730 144.4679750 135.1818770 133.3613640 138.1639120
 135.0533400 133.3531540 139.1124040 134.3580790 133.6996730 137.8130130
 142.8571680 146.5314680 143.6386350 143.4993910 145.8307840 143.7518520
 143.3821030 147.3113120 143.4583240 146.7027400 146.8163300 133.3625490
 146.4764980 146.0993740 133.9550130 146.3123600 146.5675740 132.5247240
 144.6309300 147.3309580 146.8422410 144.9665540 147.9176270 147.5200330
 143.7109640 147.2002290 147.0720200 132.4843430 150.8430160 134.1369950
 132.8441070 151.4419500 133.4827220 132.3435770 151.3890050 134.9104980
 132.1812700 135.1204760 147.6245820 131.4671220 135.3201680 148.2298430
 132.6007740 134.3444330 147.9960620 146.2843650 144.7335240 135.0239650
 145.9965350 145.1947930 135.8117530 147.0795820 144.2733010 135.2923870
 132.4685290 149.1085020 148.6112350 132.5776410 148.1679760 148.4707740
 131.8165850 149.3739770 147.9626080 138.5012050 148.2261360 134.9543620
 138.4922150 148.9591050 134.3388130 137.5810410 147.9792940 135.0470580
 134.1018690 143.4476250 135.6990380 133.4946640 144.1875150 135.7085680
 134.5768040 143.5375610 134.8728580 143.6751480 137.6127070 145.3747270
 144.0432300 136.7922280 145.7026840 142.8149680 137.6728960 145.7902920
 147.0413510 136.5684010 136.1834830 146.4126670 136.6729680 135.4693060
 146.5465430 136.7880790 136.9728710 141.4871650 148.2889600 133.6168810
 141.5883630 148.0853590 132.6870790 140.5873390 148.0347880 133.8216590
 139.0097540 138.8469960 137.5992710 138.3013690 139.3156300 138.0406320
 139.2942020 138.1891970 138.2337900 140.6353470 140.2666660 145.5985240
 141.1338720 140.7412480 146.2637090 140.7776420 139.3430180 145.8055270
 143.0412970 135.5720620 139.0388500 142.9180750 135.5906750 138.0898010
 143.9897530 135.6199560 139.1586900 140.1289760 150.8075920 138.3116480
 140.3831260 150.7697310 137.3895850 139.1802240 150.6809250 138.3044730
 137.2132560 137.1555040 134.9743420 138.0623090 137.5925190 134.9083610
 136.8463830 137.4675300 135.8015480 147.8420330 136.4834620 146.4413630
 147.3393930 137.2240020 146.7807440 148.6576990 136.8718620 146.1250420
 146.1342340 141.7267800 139.8874990 145.1932480 141.7418030 140.0622680
 146.4486410 140.9403760 140.3335290 136.1123980 143.4087400 133.4478950
 136.8787250 143.2968760 134.0104380 136.1898670 142.7125370 132.7955720
 134.8070740 140.8412470 134.1311840 134.8874330 139.8939980 134.2429240
 135.6990490 141.1719350 134.2372500 132.4930930 147.0581430 137.1087890
 131.5670710 147.3002570 137.0993300 132.9587360 147.8855690 136.9872640
 138.7187760 150.1638170 133.0571950 139.5116370 150.4527000 132.6053740
 138.1992110 149.7330340 132.3784430 144.8808730 150.0114090 148.9816780
 145.8330480 149.9272110 148.9317020 144.7336950 150.6755800 149.6550570
 147.7717930 149.3908300 134.4808690 147.4859440 148.9773440 133.6662870
 147.5737480 150.3196010 134.3609210 132.3341540 142.6627390 149.3668010
 132.8380560 142.0834670 149.9384240 131.5948960 142.9467620 149.9044380
 139.2365160 145.3841580 132.9214300 139.1315800 144.7693930 133.6475680
 139.0689380 144.8607470 132.1377310 139.3879480 144.0698380 148.9003530
 138.6225150 144.6383380 148.8158200 139.5695440 143.7774590 148.0071760
 142.4767890 144.4461610 133.5256290 141.9277990 144.8930910 134.1699030
 143.0987150 143.9410860 134.0493960 146.5302830 145.8003710 149.4578550
 147.2712300 146.1379470 148.9546010 145.7675510 145.9695770 148.9048320
 138.1443010 143.4052530 135.4221590 138.5659430 143.2392400 136.2652980
 138.2693850 142.5952760 134.9276730 136.3070430 139.3849080 148.2292570
 135.7766890 138.8940030 147.6015910 136.9758500 139.8133280 147.6950500
 140.6570650 142.4290140 132.6698690 141.1776310 141.7139160 132.3039840
 141.3039050 143.0676010 132.9699200 145.2048490 143.8518540 147.9933760
 145.6189510 144.0063620 148.8424180 144.2699490 143.9773760 148.1559540
 145.6770660 141.1914700 149.9972910 146.2591430 140.4367020 149.9093390
 145.8532430 141.7222140 149.2204390 136.7942730 136.3511450 148.3089860
 136.6999600 135.7332200 147.5840730 136.2140120 137.0777740 148.0819770
 139.5604170 134.9084690 145.3417250 139.1121470 134.9308950 144.4962800
 138.9269370 134.5103710 145.9387550 139.9663720 143.8039020 145.9629690
 140.3851830 144.6471750 145.7905930 139.0472350 143.9411060 145.7336470
 142.3027620 141.5355200 147.3467530 142.4223830 140.9396340 148.0862370
 143.1621620 141.5724890 146.9268830 144.6415520 142.0892390 145.9230040
 144.1150740 142.6135010 145.3195180 144.9846860 142.7219780 146.5539770
 137.0401910 139.4785760 132.3679750 136.8390970 138.6153120 132.7293090
 136.8693960 139.3919120 131.4301350 137.8171140 150.1092030 147.0787420
 137.2792230 150.8338090 146.7596120 138.0705100 149.6322370 146.2884760
 139.0696390 138.0776550 148.6043350 139.6596080 137.7692400 149.2921170
 138.2516630 137.6056300 148.7603250 143.8889820 137.6942360 148.8376370
 143.2005340 137.0323900 148.7726360 144.6095840 137.2480630 149.2824830
 144.5190220 134.2893990 134.8966630 144.7992510 133.4461890 135.2526050
 143.7455950 134.5217100 135.4105380 135.8384710 136.5786380 132.3557630
 136.1410610 136.5853810 131.4476780 136.5779300 136.2284240 132.8525290
 139.0569640 135.5221000 133.3413830 138.7091640 134.8444990 132.7616280
 139.2582410 135.0610510 134.1557220 141.2218680 150.5101750 134.9600430
 142.1169470 150.8486720 134.9819190 141.2536310 149.7881160 134.3324710
 134.8614840 145.8828800 133.1887430 135.2989710 146.4258470 133.8445010
 135.3462570 145.0575750 133.1983770 132.0760640 148.6717830 140.6407690
 132.4063650 147.8038890 140.4086330 132.5051640 148.8776350 141.4712650
 136.6722560 147.0026840 138.3009660 136.3718100 146.8791810 139.2013570
 136.5660050 146.1435430 137.8925390 132.5650850 149.5388420 143.3789320
 132.1281840 149.7189220 144.2113470 133.1328530 150.2963040 143.2371040
 148.2013030 149.0405420 147.6666630 147.6015020 149.0997980 146.9230550
 148.3306930 148.1010400 147.7963480 132.3975280 142.0508650 139.7378200
 131.7424120 141.7820290 139.0937900 133.2353230 141.9413130 139.2880180
 146.8864670 145.7657400 145.7642790 146.0724510 146.1954560 146.0268580
 147.2938870 146.3775810 145.1511840 145.3465720 136.8449940 133.9596690
 145.7650600 136.6580920 133.1193350 145.0401780 135.9928990 134.2699620
 133.4351210 142.4361220 144.2781540 133.8024250 142.3488620 145.1577560
 132.8662030 141.6727770 144.1788400 148.2355070 140.9045600 147.2912010
 148.0041160 140.6758350 146.3909960 148.4959620 141.8245150 147.2456900
 132.9867210 139.3470310 148.1839960 132.0923260 139.3137070 148.5233670
 133.5264760 139.5457100 148.9491210 131.6113360 139.2607580 135.6803530
 130.7077440 139.5237780 135.5055190 132.0953980 139.5318750 134.9003490
 148.2996130 140.0671440 144.4799280 147.3498840 140.0334980 144.5944270
 148.4809140 140.9771550 144.2449050 134.1540570 138.3173120 133.5897910
 134.8632270 137.8956340 133.1045190 133.4380510 138.3848350 132.9581260
 133.8014730 134.3712450 132.6300560 134.5242860 134.9121390 132.9481780
 134.0739250 134.0975870 131.7542100 147.6106380 139.2404920 136.8972140
 148.1065500 139.0075790 137.6821020 147.4122450 138.4016760 136.4809780
 133.4906920 133.6218640 142.5323180 134.1383110 133.0716020 142.0918340
 133.9108760 133.8761790 143.3538990 147.3859260 133.8160000 145.8892820
 148.0231480 134.4294140 146.2552010 147.5334150 133.8520660 144.9442050
 146.9440720 150.5176000 139.2911060 147.5399790 150.1960570 138.6145480
 147.2018870 150.0447820 140.0824330 133.2438920 133.7774310 145.2748500
 132.8953740 134.2338130 146.0406680 132.9126620 132.8831440 145.3570930
 138.5509320 148.5053500 145.0411410 138.3100680 148.7728060 144.1541930
 139.4911960 148.6759230 145.0962270 140.7563740 134.9686190 148.7967920
 140.6952630 135.5608020 149.5463330 141.6964120 134.8612150 148.6518180
 143.3938300 134.6256250 148.4360210 144.0078710 134.9435540 147.7741290
 143.9387860 134.1404840 149.0556070 133.9159560 133.3050510 148.5499270
 134.4642550 133.1238560 147.7865380 133.9814870 132.5144620 149.0855580
 134.6891320 149.8956160 146.5599470 134.0951640 149.7640860 147.2989510
 134.6815160 149.0594300 146.0941570 144.1346340 133.1888390 144.7629500
 143.2606180 133.5223500 144.5602430 144.0257090 132.7161570 145.5881370
 145.0418320 135.3959260 146.1471220 144.7131680 134.5811020 145.7672950
 145.9900620 135.3529070 146.0236910 134.3203550 147.2614540 145.5107510
 133.5937610 146.6419830 145.4433460 134.3812700 147.6555150 144.6405590
 137.9248650 149.4759540 142.2956920 138.4413670 148.8646900 141.7705180
 138.5746030 149.9788320 142.7867930 140.6644150 150.3668030 143.1225900
 140.9521960 150.1122330 142.2458910 141.1767370 149.8145390 143.7131470
 141.8821160 134.1058230 143.7022410 141.0992950 134.5803730 143.9819170
 141.5884090 133.2013060 143.5935590 146.4342230 134.8081330 141.7471500
 146.8750320 134.7526430 140.8993100 146.1649820 135.7239340 141.8181680
 132.6033550 150.5788930 138.7204270 132.4355590 149.9459610 139.4186160
 131.7368060 150.7848330 138.3698460 133.2261570 134.4105710 136.2236130
 133.9840930 134.5234590 135.6500160 132.7638740 135.2474910 136.1779560
 139.7675380 136.5244980 139.2138440 138.9549890 136.1501870 138.8734320
 140.2717020 135.7690060 139.5159630 144.2700360 133.1887430 140.4521510
 144.8729730 133.7607640 140.9270030 143.5293350 133.7526870 140.2295410
 147.4134960 133.5908990 135.7261790 147.6085590 134.4892440 135.9929220
 146.6264830 133.3596070 136.2194740 134.2096250 149.2722160 136.1654410
 133.6843870 149.6530190 135.4616370 134.1340830 149.8972930 136.8864120
 135.5986720 134.9369760 134.7638100 136.1279480 134.1499560 134.6346050
 136.2315040 135.6160950 134.9973630 137.7924560 134.6744900 137.8183490
 137.1627300 133.9732210 137.9853620 137.2529700 135.4349030 137.6016650
 136.8089220 151.2204540 135.0403660 137.5408040 150.9363820 134.4927550
 137.0682890 150.9817820 135.9303040 135.9704010 147.3369270 135.0449990
 135.3412890 147.8054370 135.5935820 136.0851840 146.4918490 135.4796180
 143.4253730 141.3874930 121.1951190 143.3447780 140.4729540 120.9242900
 143.0118150 141.8842000 120.4890900 141.5571770 143.1653950 123.0760460
 140.7813870 142.6854390 123.3659030 142.2084700 142.4859600 122.9016620
 135.5737600 143.4773760 123.9536220 134.7422480 143.2222470 124.3532730
 136.1818580 143.5484530 124.6894140 145.5779200 147.5714140 121.8559590
 145.1160730 146.8001380 122.1846760 146.3904750 147.5980210 122.3612040
 135.5538860 147.5113850 124.1494240 135.8566900 146.6211590 123.9704460
 136.2982450 148.0684070 123.9216490 133.9829550 138.4375650 117.7378610
 133.0946250 138.7791620 117.6358490 134.2670740 138.2375970 116.8459440
 131.9462560 141.0381300 123.6218310 132.5178670 140.2703500 123.6221950
 131.9464100 141.3370060 122.7124920 141.8042510 149.8572150 121.4763580
 141.1853950 150.3129650 120.9058020 142.6594290 150.0123610 121.0753280
 140.9980760 145.8411140 123.0830620 140.9289040 144.9001080 122.9219750
 141.7600620 145.9312550 123.6553190 133.1887430 136.4465660 125.4087240
 133.0090270 135.5491410 125.6890000 132.7867510 136.9937530 126.0834190
 142.0285930 138.6481520 123.3099550 142.4050750 137.7753400 123.1973220
 141.9305440 138.9840220 122.4189990 136.1590940 137.0207150 118.7716990
 136.2657690 137.9210880 119.0785750 135.2483300 136.9725120 118.4811640
 145.8110050 136.1431960 120.2427890 146.6319670 135.6528530 120.2853370
 145.8444130 136.7329620 120.9959730 133.8074100 138.9426160 124.0169580
 134.4884210 139.2064530 124.6356980 133.4922150 138.1027030 124.3507590
 137.9998670 139.9893520 123.1042170 138.5076890 140.4874490 123.7447190
 138.5311910 139.2128720 122.9281530 136.2834770 134.6292080 127.3705590
 136.2853210 135.1464470 126.5651490 135.4539080 134.1522260 127.3475520
 142.6705860 144.7411390 118.8695490 142.0523130 145.2060840 118.3058210
 143.1829110 145.4338870 119.2865000 137.5337620 144.2687260 125.5479090
 137.2007000 144.8956180 126.1900160 137.7104300 144.7949140 124.7680760
 146.0471530 138.0832340 123.0155430 145.3427100 138.3717230 123.5958540
 146.4083690 138.8932450 122.6554990 135.9650100 136.3402040 125.3776040
 136.3066910 137.1844090 125.0829910 135.0265910 136.4885780 125.4941380
 136.7456720 146.2368060 127.3628270 137.3630720 146.9119140 127.0812720
 135.8849840 146.6456040 127.2715770 132.0389060 145.4267920 116.2435120
 131.6617040 145.9155020 115.5120020 132.2962130 146.0993200 116.8741650
 147.6634310 147.7007470 125.2782910 146.9797830 148.3706580 125.2699580
 148.2028600 147.8988120 124.5127770 139.6477990 133.8284310 121.7020630
 139.9552970 133.2731200 120.9856130 138.7178690 133.9628770 121.5193620
 145.1993050 149.5451600 123.9928090 145.2120210 149.1413890 123.1250350
 144.6468270 150.3198890 123.8889520 146.4938470 146.2667820 119.0818260
 146.3834800 145.3242150 119.2067680 146.4906720 146.6283460 119.9681020
 144.5978490 144.4481440 125.3210700 145.0147280 144.2341550 124.4864160
 145.3218310 144.7054230 125.8919320 142.0358750 141.8933140 118.4380750
 141.1088030 141.8270520 118.6669220 142.1883570 142.8313270 118.3235990
 142.0227830 138.1650140 115.4347910 141.0831500 138.3264100 115.5200370
 142.3411090 138.8835820 114.8883900 146.0656040 143.4553440 118.9416000
 145.4468460 143.1172990 118.2942300 146.0480490 142.8113200 119.6495190
 145.5082600 139.6337980 126.3581810 145.0953780 140.4591690 126.6121800
 144.7758550 139.0483020 126.1658170 137.6415390 142.4197880 121.2200480
 137.2372390 141.7075130 120.7246380 137.7278510 142.0751120 122.1088520
 138.1097090 146.1065440 123.3839690 137.8125380 145.5010910 122.7047470
 139.0596910 146.1442750 123.2729050 136.3544010 139.1941090 124.9999520
 136.9058600 139.3036430 124.2252770 136.8687520 139.5678690 125.7154750
 146.1982700 149.6797310 127.0462790 145.7213260 150.4869500 126.8535400
 145.5144490 149.0275640 127.1989000 137.2015520 145.8447130 130.0347490
 136.3044050 146.0687100 130.2820890 137.2268390 145.9682070 129.0858890
 144.2420740 142.6940250 115.9488750 144.6814020 141.8562680 115.8026570
 144.9549160 143.3269650 116.0352890 136.0286740 142.7160450 128.6104860
 135.8894510 143.5883250 128.9792260 135.1468100 142.3733260 128.4652800
 142.3516120 147.6336320 119.9169990 142.7912030 148.3760650 119.5025380
 142.2903010 147.8762890 120.8408950 137.8267090 148.6582150 130.8190010
 137.7982520 149.0625100 129.9518440 137.6632060 147.7292510 130.6561610
 147.8237880 133.9483060 114.2629790 147.5110540 134.0409890 115.1628860
 148.5850350 134.5264090 114.2127220 134.3420020 141.3142860 118.7207130
 134.2217620 142.0404950 118.1088400 134.0320910 140.5445770 118.2435040
 131.9805390 144.4858000 124.5275770 132.0585810 144.6206770 123.5831490
 132.5947070 143.7773890 124.7203890 133.2253020 146.1858190 120.9381950
 132.8181100 146.3272780 120.0835550 134.1166030 145.9018350 120.7353160
 143.0431900 150.3350100 127.8449000 143.5576570 150.2458110 128.6471430
 142.2000980 150.6809800 128.1376910 145.0186300 150.6205440 117.2733000
 144.8587440 150.3308380 118.1714830 144.8533010 149.8445570 116.7378230
 137.4974680 150.4003970 119.0504620 137.3217160 149.4839510 118.8372420
 136.6430420 150.7591260 119.2902420 144.7212430 148.1293000 115.8331000
 144.0277590 148.1270290 115.1733280 145.4635290 147.7052320 115.4025170
 144.2862360 149.7555710 119.9079490 144.7419310 148.9745090 120.2218110
 144.6254880 150.4662530 120.4520670 132.0364910 145.5272170 127.0670230
 132.1995950 145.0577530 126.2489600 132.5017360 145.0195730 127.7319070
 136.8083680 134.6577930 122.1030800 136.3651830 135.4387470 121.7715320
 137.3668670 134.9807820 122.8101740 141.0953490 137.5246450 127.7066120
 140.6332860 137.7329470 128.5186060 140.6931600 136.7105800 127.4036790
 146.0958000 138.7455400 128.8362780 145.2451590 138.4461150 129.1571850
 145.9359790 138.9897410 127.9246600 143.1907710 140.2457150 130.9361570
 143.5161120 139.4120900 130.5963800 143.9788040 140.7685670 131.0839900
 139.9242500 134.2788630 116.9836630 139.2996680 134.2748500 117.7089940
 139.8372620 133.4119590 116.5872600 138.8459580 135.2025260 123.9620400
 139.1431910 136.1088090 123.8812420 139.3945140 134.7144040 123.3479970
 136.5997900 139.7811500 119.8312050 136.3738820 139.5648670 120.7358670
 135.8190430 140.2139960 119.4858020 143.8295660 139.7874870 118.4302700
 143.2304550 140.5110670 118.2466320 144.3775270 139.7251650 117.6479150
 139.0397110 140.6797080 130.4972320 138.9440710 139.7391810 130.3472720
 139.8829090 140.9012150 130.1020390 142.4360530 138.4238410 120.4605980
 142.8290100 138.7410610 119.6474670 142.7977380 137.5450290 120.5750500
 134.1707650 137.0910750 128.6506100 133.7771040 137.9385960 128.8578880
 133.4826050 136.4537120 128.8414740 140.7452700 137.1745720 131.7202840
 140.0551020 136.9817920 132.3548930 141.4885000 137.4580360 132.2527140
 131.4724700 135.0139210 122.6836180 131.1837750 135.5842070 123.3961160
 132.2170460 134.5343660 123.0467410 131.6594930 138.9559330 113.8938900
 131.5769600 139.8990090 114.0353890 131.3077990 138.8134240 113.0151250
 143.0215670 141.0144160 124.5556760 142.2896790 141.5230970 124.9046860
 142.6240010 140.1974140 124.2545540 139.4593060 137.6898360 122.9609250
 139.4629120 137.2488310 122.1113790 140.3544180 138.0115690 123.0681070
 135.3095440 137.5724850 121.9203460 134.9695490 138.0500080 122.6770510
 134.5472760 137.1189970 121.5604560 139.5213210 138.6910440 115.9516010
 139.6426030 138.6496920 116.9001830 139.1361720 139.5534590 115.7962740
 143.4841580 136.4677840 123.9679700 143.5014320 136.9186490 124.8121550
 143.2357160 135.5683480 124.1813140 138.5334710 141.0011580 115.3499310
 137.9651610 140.5529830 114.7235220 139.2423710 141.3604360 114.8164460
 146.9112330 133.8810020 129.8066080 147.2358100 133.1499680 130.3324060
 146.9468840 133.5623660 128.9047070 133.6103890 144.9023600 129.2266040
 133.2258680 144.2617270 129.8249000 133.9216080 145.6059720 129.7960770
 139.7601030 141.7500140 124.7074660 140.1271160 141.2758710 125.4536000
 139.5706090 142.6241710 125.0483000 132.6241520 136.4943830 120.8368130
 132.3388440 136.1299500 121.6746750 132.5620380 135.7624290 120.2231270
 137.5500400 140.7908780 127.0258870 137.2457470 141.6700760 127.2509230
 138.5046860 140.8508570 127.0616310 136.0782190 144.9969770 117.6225720
 135.3044450 144.4567390 117.4624440 136.8076820 144.4776380 117.2843480
 146.8370170 143.9935130 123.4152110 147.5569290 144.4890420 123.0248220
 146.6351990 143.3153020 122.7705980 142.2980110 135.3873090 117.5581500
 141.4844720 134.8886260 117.4826810 142.1042060 136.2271340 117.1417850
 142.2188970 144.0644190 129.3021110 142.1526280 143.1439860 129.0478700
 141.5894110 144.1619630 130.0165750 145.0128500 139.7592740 115.8543660
 145.9008120 140.0709970 115.6795000 144.9833590 138.8864990 115.4624240
 136.1219590 144.6650150 121.2604530 136.6398260 143.8618410 121.2061420
 135.6703610 144.6029290 122.1021360 141.0089090 145.9316430 116.5331830
 141.3504790 146.6758660 116.0375150 140.1801800 146.2447550 116.8956660
 133.6064130 141.6311520 128.1730230 133.2479070 142.2965370 128.7603570
 133.3118690 140.7995070 128.5442850 136.8077250 142.0895760 131.0569780
 136.5077390 142.2352940 130.1597600 137.5788490 141.5301050 130.9643170
 142.1505700 146.8864760 129.0524910 142.1650240 145.9545720 128.8343820
 141.4430800 146.9724520 129.6914680 147.2842770 141.0704580 115.3223520
 147.2006490 141.5018800 114.4719960 148.0036960 141.5302930 115.7550340
 148.3130020 147.9246840 118.0505650 147.6706180 147.2702460 118.3249370
 147.9260680 148.3301930 117.2746320 143.8916500 145.2532270 121.8977340
 144.2440320 144.6560400 121.2378710 143.0078830 144.9276500 122.0685590
 139.9779780 146.0129960 119.3047750 140.6650910 146.5599170 119.6855340
 139.1912200 146.5570690 119.3397360 132.1172180 141.6302780 114.7964830
 132.9867030 141.9127580 115.0800750 131.6262500 142.4438650 114.6813640
 139.2806990 143.0175990 118.9173110 139.7369770 143.8281240 119.1433300
 138.9295200 142.6999130 119.7491600 141.5839600 148.5282330 126.1465410
 142.2281820 148.7341710 126.8238830 141.9469040 147.7670730 125.6936260
 135.1818770 133.3613640 119.3895630 135.0533400 133.3531540 120.3380550
 134.3580790 133.6996730 119.0386640 142.8571680 146.5314680 124.8642860
 143.4993910 145.8307840 124.9775030 143.3821030 147.3113120 124.6839750
 146.7027400 146.8163300 114.5882000 146.4764980 146.0993740 115.1806640
 146.3123600 146.5675740 113.7503750 144.6309300 147.3309580 128.0678920
 144.9665540 147.9176270 128.7456840 143.7109640 147.2002290 128.2976710
 132.4843430 150.8430160 115.3626460 132.8441070 151.4419500 114.7083730
 132.3435770 151.3890050 116.1361490 132.1812700 135.1204760 128.8502330
 131.4671220 135.3201680 129.4554940 132.6007740 134.3444330 129.2217130
 146.2843650 144.7335240 116.2496160 145.9965350 145.1947930 117.0374040
 147.0795820 144.2733010 116.5180380 132.4685290 149.1085020 129.8368860
 132.5776410 148.1679760 129.6964250 131.8165850 149.3739770 129.1882590
 140.4597880 147.3800910 131.2366980 140.1394750 146.6610150 131.7812670
 139.7856240 148.0555980 131.3103040 138.5012050 148.2261360 116.1800130
 138.4922150 148.9591050 115.5644640 137.5810410 147.9792940 116.2727090
 134.1018690 143.4476250 116.9246890 133.4946640 144.1875150 116.9342190
 134.5768040 143.5375610 116.0985090 143.6751480 137.6127070 126.6003780
 144.0432300 136.7922280 126.9283350 142.8149680 137.6728960 127.0159430
 147.0413510 136.5684010 117.4091340 146.4126670 136.6729680 116.6949570
 146.5465430 136.7880790 118.1985220 141.4871650 148.2889600 114.8425320
 141.5883630 148.0853590 113.9127300 140.5873390 148.0347880 115.0473100
 139.0097540 138.8469960 118.8249220 138.3013690 139.3156300 119.2662830
 139.2942020 138.1891970 119.4594410 140.6353470 140.2666660 126.8241750
 141.1338720 140.7412480 127.4893600 140.7776420 139.3430180 127.0311780
 143.0412970 135.5720620 120.2645010 142.9180750 135.5906750 119.3154520
 143.9897530 135.6199560 120.3843410 140.1289760 150.8075920 119.5372990
 140.3831260 150.7697310 118.6152360 139.1802240 150.6809250 119.5301240
 137.2132560 137.1555040 116.1999930 138.0623090 137.5925190 116.1340120
 136.8463830 137.4675300 117.0271990 147.8420330 136.4834620 127.6670140
 147.3393930 137.2240020 128.0063950 148.6576990 136.8718620 127.3506930
 146.1342340 141.7267800 121.1131500 145.1932480 141.7418030 121.2879190
 146.4486410 140.9403760 121.5591800 136.1123980 143.4087400 114.6735460
 136.8787250 143.2968760 115.2360890 136.1898670 142.7125370 114.0212230
 134.8070740 140.8412470 115.3568350 134.8874330 139.8939980 115.4685750
 135.6990490 141.1719350 115.4629010 132.4930930 147.0581430 118.3344400
 131.5670710 147.3002570 118.3249810 132.9587360 147.8855690 118.2129150
 134.6143730 150.1753930 131.6488470 135.4156460 150.4965980 132.0623870
 134.0995550 149.8149510 132.3708380 138.7187760 150.1638170 114.2828460
 139.5116370 150.4527000 113.8310250 138.1992110 149.7330340 113.6040940
 143.4508360 146.2833800 131.5963880 142.8446520 146.3065400 130.8559630
 143.1462470 145.5516840 132.1331130 144.8808730 150.0114090 130.2073290
 145.8330480 149.9272110 130.1573530 144.7336950 150.6755800 130.8807080
 147.7717930 149.3908300 115.7065200 147.4859440 148.9773440 114.8919380
 147.5737480 150.3196010 115.5865720 132.3341540 142.6627390 130.5924520
 132.8380560 142.0834670 131.1640750 131.5948960 142.9467620 131.1300890
 139.2365160 145.3841580 114.1470810 139.1315800 144.7693930 114.8732190
 139.0689380 144.8607470 113.3633820 139.3879480 144.0698380 130.1260040
 138.6225150 144.6383380 130.0414710 139.5695440 143.7774590 129.2328270
 142.4767890 144.4461610 114.7512800 141.9277990 144.8930910 115.3955540
 143.0987150 143.9410860 115.2750470 146.5302830 145.8003710 130.6835060
 147.2712300 146.1379470 130.1802520 145.7675510 145.9695770 130.1304830
 134.3664620 140.8056980 131.4874590 134.4069960 140.5070850 132.3959820
 135.2210120 141.2064590 131.3282110 138.1443010 143.4052530 116.6478100
 138.5659430 143.2392400 117.4909490 138.2693850 142.5952760 116.1533240
 136.3070430 139.3849080 129.4549080 135.7766890 138.8940030 128.8272420
 136.9758500 139.8133280 128.9207010 140.6570650 142.4290140 113.8955200
 141.1776310 141.7139160 113.5296350 141.3039050 143.0676010 114.1955710
 145.2048490 143.8518540 129.2190270 145.6189510 144.0063620 130.0680690
 144.2699490 143.9773760 129.3816050 145.6770660 141.1914700 131.2229420
 146.2591430 140.4367020 131.1349900 145.8532430 141.7222140 130.4460900
 136.7942730 136.3511450 129.5346370 136.6999600 135.7332200 128.8097240
 136.2140120 137.0777740 129.3076280 139.5604170 134.9084690 126.5673760
 139.1121470 134.9308950 125.7219310 138.9269370 134.5103710 127.1644060
 139.9663720 143.8039020 127.1886200 140.3851830 144.6471750 127.0162440
 139.0472350 143.9411060 126.9592980 142.3027620 141.5355200 128.5724040
 142.4223830 140.9396340 129.3118880 143.1621620 141.5724890 128.1525340
 144.6415520 142.0892390 127.1486550 144.1150740 142.6135010 126.5451690
 144.9846860 142.7219780 127.7796280 137.0401910 139.4785760 113.5936260
 136.8390970 138.6153120 113.9549600 136.8693960 139.3919120 112.6557860
 137.8171140 150.1092030 128.3043930 137.2792230 150.8338090 127.9852630
 138.0705100 149.6322370 127.5141270 139.0696390 138.0776550 129.8299860
 139.6596080 137.7692400 130.5177680 138.2516630 137.6056300 129.9859760
 143.8889820 137.6942360 130.0632880 143.2005340 137.0323900 129.9982870
 144.6095840 137.2480630 130.5081340 144.5190220 134.2893990 116.1223140
 144.7992510 133.4461890 116.4782560 143.7455950 134.5217100 116.6361890
 135.8384710 136.5786380 113.5814140 136.1410610 136.5853810 112.6733290
 136.5779300 136.2284240 114.0781800 139.0569640 135.5221000 114.5670340
 138.7091640 134.8444990 113.9872790 139.2582410 135.0610510 115.3813730
 141.2218680 150.5101750 116.1856940 142.1169470 150.8486720 116.2075700
 141.2536310 149.7881160 115.5581220 134.8614840 145.8828800 114.4143940
 135.2989710 146.4258470 115.0701520 135.3462570 145.0575750 114.4240280
 132.0760640 148.6717830 121.8664200 132.4063650 147.8038890 121.6342840
 132.5051640 148.8776350 122.6969160 136.6722560 147.0026840 119.5266170
 136.3718100 146.8791810 120.4270080 136.5660050 146.1435430 119.1181900
 132.5650850 149.5388420 124.6045830 132.1281840 149.7189220 125.4369980
 133.1328530 150.2963040 124.4627550 148.2013030 149.0405420 128.8923140
 147.6015020 149.0997980 128.1487060 148.3306930 148.1010400 129.0219990
 132.3975280 142.0508650 120.9634710 131.7424120 141.7820290 120.3194410
 133.2353230 141.9413130 120.5136690 146.8864670 145.7657400 126.9899300
 146.0724510 146.1954560 127.2525090 147.2938870 146.3775810 126.3768350
 145.3465720 136.8449940 115.1853200 145.7650600 136.6580920 114.3449860
 145.0401780 135.9928990 115.4956130 133.4351210 142.4361220 125.5038050
 133.8024250 142.3488620 126.3834070 132.8662030 141.6727770 125.4044910
 148.2355070 140.9045600 128.5168520 148.0041160 140.6758350 127.6166470
 148.4959620 141.8245150 128.4713410 132.9867210 139.3470310 129.4096470
 132.0923260 139.3137070 129.7490180 133.5264760 139.5457100 130.1747720
 146.6743140 136.1302030 131.2948220 147.5513320 136.1385430 131.6782220
 146.6863980 135.3932870 130.6840570 131.6113360 139.2607580 116.9060040
 130.7077440 139.5237780 116.7311700 132.0953980 139.5318750 116.1260000
 148.2996130 140.0671440 125.7055790 147.3498840 140.0334980 125.8200780
 148.4809140 140.9771550 125.4705560 134.1540570 138.3173120 114.8154420
 134.8632270 137.8956340 114.3301700 133.4380510 138.3848350 114.1837770
 133.8014730 134.3712450 113.8557070 134.5242860 134.9121390 114.1738290
 134.0739250 134.0975870 112.9798610 147.6106380 139.2404920 118.1228650
 148.1065500 139.0075790 118.9077530 147.4122450 138.4016760 117.7066290
 133.4906920 133.6218640 123.7579690 134.1383110 133.0716020 123.3174850
 133.9108760 133.8761790 124.5795500 147.3859260 133.8160000 127.1149330
 148.0231480 134.4294140 127.4808520 147.5334150 133.8520660 126.1698560
 146.9440720 150.5176000 120.5167570 147.5399790 150.1960570 119.8401990
 147.2018870 150.0447820 121.3080840 133.2438920 133.7774310 126.5005010
 132.8953740 134.2338130 127.2663190 132.9126620 132.8831440 126.5827440
 134.8503290 146.9493910 130.6658200 134.8072920 146.5786820 131.5472660
 134.9814300 147.8871480 130.8060020 138.5509320 148.5053500 126.2667920
 138.3100680 148.7728060 125.3798440 139.4911960 148.6759230 126.3218780
 140.7563740 134.9686190 130.0224430 140.6952630 135.5608020 130.7719840
 141.6964120 134.8612150 129.8774690 143.3938300 134.6256250 129.6616720
 144.0078710 134.9435540 128.9997800 143.9387860 134.1404840 130.2812580
 133.9159560 133.3050510 129.7755780 134.4642550 133.1238560 129.0121890
 133.9814870 132.5144620 130.3112090 134.6891320 149.8956160 127.7855980
 134.0951640 149.7640860 128.5246020 134.6815160 149.0594300 127.3198080
 144.1346340 133.1888390 125.9886010 143.2606180 133.5223500 125.7858940
 144.0257090 132.7161570 126.8137880 145.0418320 135.3959260 127.3727730
 144.7131680 134.5811020 126.9929460 145.9900620 135.3529070 127.2493420
 134.3203550 147.2614540 126.7364020 133.5937610 146.6419830 126.6689970
 134.3812700 147.6555150 125.8662100 137.9248650 149.4759540 123.5213430
 138.4413670 148.8646900 122.9961690 138.5746030 149.9788320 124.0124440
 140.6644150 150.3668030 124.3482410 140.9521960 150.1122330 123.4715420
 141.1767370 149.8145390 124.9387980 141.8821160 134.1058230 124.9278920
 141.0992950 134.5803730 125.2075680 141.5884090 133.2013060 124.8192100
 146.4342230 134.8081330 122.9728010 146.8750320 134.7526430 122.1249610
 146.1649820 135.7239340 123.0438190 132.6033550 150.5788930 119.9460780
 132.4355590 149.9459610 120.6442670 131.7368060 150.7848330 119.5954970
 133.2261570 134.4105710 117.4492640 133.9840930 134.5234590 116.8756670
 132.7638740 135.2474910 117.4036070 139.7675380 136.5244980 120.4394950
 138.9549890 136.1501870 120.0990830 140.2717020 135.7690060 120.7416140
 144.2700360 133.1887430 121.6778020 144.8729730 133.7607640 122.1526540
 143.5293350 133.7526870 121.4551920 147.4134960 133.5908990 116.9518300
 147.6085590 134.4892440 117.2185730 146.6264830 133.3596070 117.4451250
 134.2096250 149.2722160 117.3910920 133.6843870 149.6530190 116.6872880
 134.1340830 149.8972930 118.1120630 135.5986720 134.9369760 115.9894610
 136.1279480 134.1499560 115.8602560 136.2315040 135.6160950 116.2230140
 137.7924560 134.6744900 119.0440000 137.1627300 133.9732210 119.2110130
 137.2529700 135.4349030 118.8273160 137.9180120 133.9528880 131.4792490
 137.6364390 134.4562480 130.7153310 138.2999820 133.1550630 131.1134620
 136.8089220 151.2204540 116.2660170 137.5408040 150.9363820 115.7184060
 137.0682890 150.9817820 117.1559550 135.9704010 147.3369270 116.2706500
 135.3412890 147.8054370 116.8192330 136.0851840 146.4918490 116.7052690
 144.5195580 133.3682460 132.0572960 144.4061030 133.6877070 132.9524480
 145.3365320 133.7694970 131.7610240 147.2994070 150.5153990 131.5391650
 148.0919390 150.0203220 131.3317610 147.5927220 151.1944130 132.1467260
 143.4253730 141.3874930 102.4207700 143.3447780 140.4729540 102.1499410
 143.0118150 141.8842000 101.7147410 141.5571770 143.1653950 104.3016970
 140.7813870 142.6854390 104.5915540 142.2084700 142.4859600 104.1273130
 135.5737600 143.4773760 105.1792730 134.7422480 143.2222470 105.5789240
 136.1818580 143.5484530 105.9150650 145.5779200 147.5714140 103.0816100
 145.1160730 146.8001380 103.4103270 146.3904750 147.5980210 103.5868550
 135.5538860 147.5113850 105.3750750 135.8566900 146.6211590 105.1960970
 136.2982450 148.0684070 105.1473000 133.9829550 138.4375650  98.9635120
 133.0946250 138.7791620  98.8615000 134.2670740 138.2375970  98.0715950
 131.9462560 141.0381300 104.8474820 132.5178670 140.2703500 104.8478460
 131.9464100 141.3370060 103.9381430 141.8042510 149.8572150 102.7020090
 141.1853950 150.3129650 102.1314530 142.6594290 150.0123610 102.3009790
 140.9980760 145.8411140 104.3087130 140.9289040 144.9001080 104.1476260
 141.7600620 145.9312550 104.8809700 133.1887430 136.4465660 106.6343750
 133.0090270 135.5491410 106.9146510 132.7867510 136.9937530 107.3090700
 142.0285930 138.6481520 104.5356060 142.4050750 137.7753400 104.4229730
 141.9305440 138.9840220 103.6446500 136.1590940 137.0207150  99.9973500
 136.2657690 137.9210880 100.3042260 135.2483300 136.9725120  99.7068150
 145.8110050 136.1431960 101.4684400 146.6319670 135.6528530 101.5109880
 145.8444130 136.7329620 102.2216240 133.8074100 138.9426160 105.2426090
 134.4884210 139.2064530 105.8613490 133.4922150 138.1027030 105.5764100
 137.9998670 139.9893520 104.3298680 138.5076890 140.4874490 104.9703700
 138.5311910 139.2128720 104.1538040 136.2834770 134.6292080 108.5962100
 136.2853210 135.1464470 107.7908000 135.4539080 134.1522260 108.5732030
 142.6705860 144.7411390 100.0952000 142.0523130 145.2060840  99.5314720
 143.1829110 145.4338870 100.5121510 137.5337620 144.2687260 106.7735600
 137.2007000 144.8956180 107.4156670 137.7104300 144.7949140 105.9937270
 146.0471530 138.0832340 104.2411940 145.3427100 138.3717230 104.8215050
 146.4083690 138.8932450 103.8811500 135.9650100 136.3402040 106.6032550
 136.3066910 137.1844090 106.3086420 135.0265910 136.4885780 106.7197890
 136.7456720 146.2368060 108.5884780 137.3630720 146.9119140 108.3069230
 135.8849840 146.6456040 108.4972280 132.0389060 145.4267920  97.4691630
 131.6617040 145.9155020  96.7376530 132.2962130 146.0993200  98.0998160
 147.6634310 147.7007470 106.5039420 146.9797830 148.3706580 106.4956090
 148.2028600 147.8988120 105.7384280 139.6477990 133.8284310 102.9277140
 139.9552970 133.2731200 102.2112640 138.7178690 133.9628770 102.7450130
 145.1993050 149.5451600 105.2184600 145.2120210 149.1413890 104.3506860
 144.6468270 150.3198890 105.1146030 146.4938470 146.2667820 100.3074770
 146.3834800 145.3242150 100.4324190 146.4906720 146.6283460 101.1937530
 144.5978490 144.4481440 106.5467210 145.0147280 144.2341550 105.7120670
 145.3218310 144.7054230 107.1175830 142.0358750 141.8933140  99.6637260
 141.1088030 141.8270520  99.8925730 142.1883570 142.8313270  99.5492500
 142.0227830 138.1650140  96.6604420 141.0831500 138.3264100  96.7456880
 142.3411090 138.8835820  96.1140410 146.0656040 143.4553440 100.1672510
 145.4468460 143.1172990  99.5198810 146.0480490 142.8113200 100.8751700
 145.5082600 139.6337980 107.5838320 145.0953780 140.4591690 107.8378310
 144.7758550 139.0483020 107.3914680 137.6415390 142.4197880 102.4456990
 137.2372390 141.7075130 101.9502890 137.7278510 142.0751120 103.3345030
 138.1097090 146.1065440 104.6096200 137.8125380 145.5010910 103.9303980
 139.0596910 146.1442750 104.4985560 136.3544010 139.1941090 106.2256030
 136.9058600 139.3036430 105.4509280 136.8687520 139.5678690 106.9411260
 146.1982700 149.6797310 108.2719300 145.7213260 150.4869500 108.0791910
 145.5144490 149.0275640 108.4245510 137.2015520 145.8447130 111.2604000
 136.3044050 146.0687100 111.5077400 137.2268390 145.9682070 110.3115400
 144.2420740 142.6940250  97.1745260 144.6814020 141.8562680  97.0283080
 144.9549160 143.3269650  97.2609400 136.0286740 142.7160450 109.8361370
 135.8894510 143.5883250 110.2048770 135.1468100 142.3733260 109.6909310
 142.3516120 147.6336320 101.1426500 142.7912030 148.3760650 100.7281890
 142.2903010 147.8762890 102.0665460 137.8267090 148.6582150 112.0446520
 137.7982520 149.0625100 111.1774950 137.6632060 147.7292510 111.8818120
 147.8237880 133.9483060  95.4886300 147.5110540 134.0409890  96.3885370
 148.5850350 134.5264090  95.4383730 134.3420020 141.3142860  99.9463640
 134.2217620 142.0404950  99.3344910 134.0320910 140.5445770  99.4691550
 131.9805390 144.4858000 105.7532280 132.0585810 144.6206770 104.8088000
 132.5947070 143.7773890 105.9460400 133.2253020 146.1858190 102.1638460
 132.8181100 146.3272780 101.3092060 134.1166030 145.9018350 101.9609670
 143.0431900 150.3350100 109.0705510 143.5576570 150.2458110 109.8727940
 142.2000980 150.6809800 109.3633420 145.0186300 150.6205440  98.4989510
 144.8587440 150.3308380  99.3971340 144.8533010 149.8445570  97.9634740
 137.4974680 150.4003970 100.2761130 137.3217160 149.4839510 100.0628930
 136.6430420 150.7591260 100.5158930 144.7212430 148.1293000  97.0587510
 144.0277590 148.1270290  96.3989790 145.4635290 147.7052320  96.6281680
 144.2862360 149.7555710 101.1336000 144.7419310 148.9745090 101.4474620
 144.6254880 150.4662530 101.6777180 132.0364910 145.5272170 108.2926740
 132.1995950 145.0577530 107.4746110 132.5017360 145.0195730 108.9575580
 136.8083680 134.6577930 103.3287310 136.3651830 135.4387470 102.9971830
 137.3668670 134.9807820 104.0358250 141.0953490 137.5246450 108.9322630
 140.6332860 137.7329470 109.7442570 140.6931600 136.7105800 108.6293300
 146.0958000 138.7455400 110.0619290 145.2451590 138.4461150 110.3828360
 145.9359790 138.9897410 109.1503110 143.1907710 140.2457150 112.1618080
 143.5161120 139.4120900 111.8220310 143.9788040 140.7685670 112.3096410
 139.9242500 134.2788630  98.2093140 139.2996680 134.2748500  98.9346450
 139.8372620 133.4119590  97.8129110 138.8459580 135.2025260 105.1876910
 139.1431910 136.1088090 105.1068930 139.3945140 134.7144040 104.5736480
 136.5997900 139.7811500 101.0568560 136.3738820 139.5648670 101.9615180
 135.8190430 140.2139960 100.7114530 143.8295660 139.7874870  99.6559210
 143.2304550 140.5110670  99.4722830 144.3775270 139.7251650  98.8735660
 139.0397110 140.6797080 111.7228830 138.9440710 139.7391810 111.5729230
 139.8829090 140.9012150 111.3276900 142.4360530 138.4238410 101.6862490
 142.8290100 138.7410610 100.8731180 142.7977380 137.5450290 101.8007010
 134.1707650 137.0910750 109.8762610 133.7771040 137.9385960 110.0835390
 133.4826050 136.4537120 110.0671250 140.7452700 137.1745720 112.9459350
 140.0551020 136.9817920 113.5805440 141.4885000 137.4580360 113.4783650
 131.4724700 135.0139210 103.9092690 131.1837750 135.5842070 104.6217670
 132.2170460 134.5343660 104.2723920 131.6594930 138.9559330  95.1195410
 131.5769600 139.8990090  95.2610400 131.3077990 138.8134240  94.2407760
 143.0215670 141.0144160 105.7813270 142.2896790 141.5230970 106.1303370
 142.6240010 140.1974140 105.4802050 139.4593060 137.6898360 104.1865760
 139.4629120 137.2488310 103.3370300 140.3544180 138.0115690 104.2937580
 135.3095440 137.5724850 103.1459970 134.9695490 138.0500080 103.9027020
 134.5472760 137.1189970 102.7861070 139.5213210 138.6910440  97.1772520
 139.6426030 138.6496920  98.1258340 139.1361720 139.5534590  97.0219250
 143.4841580 136.4677840 105.1936210 143.5014320 136.9186490 106.0378060
 143.2357160 135.5683480 105.4069650 138.5334710 141.0011580  96.5755820
 137.9651610 140.5529830  95.9491730 139.2423710 141.3604360  96.0420970
 146.9112330 133.8810020 111.0322590 147.2358100 133.1499680 111.5580570
 146.9468840 133.5623660 110.1303580 133.6103890 144.9023600 110.4522550
 133.2258680 144.2617270 111.0505510 133.9216080 145.6059720 111.0217280
 139.7601030 141.7500140 105.9331170 140.1271160 141.2758710 106.6792510
 139.5706090 142.6241710 106.2739510 132.6241520 136.4943830 102.0624640
 132.3388440 136.1299500 102.9003260 132.5620380 135.7624290 101.4487780
 137.5500400 140.7908780 108.2515380 137.2457470 141.6700760 108.4765740
 138.5046860 140.8508570 108.2872820 136.0782190 144.9969770  98.8482230
 135.3044450 144.4567390  98.6880950 136.8076820 144.4776380  98.5099990
 146.8370170 143.9935130 104.6408620 147.5569290 144.4890420 104.2504730
 146.6351990 143.3153020 103.9962490 142.2980110 135.3873090  98.7838010
 141.4844720 134.8886260  98.7083320 142.1042060 136.2271340  98.3674360
 142.2188970 144.0644190 110.5277620 142.1526280 143.1439860 110.2735210
 141.5894110 144.1619630 111.2422260 145.0128500 139.7592740  97.0800170
 145.9008120 140.0709970  96.9051510 144.9833590 138.8864990  96.6880750
 136.1219590 144.6650150 102.4861040 136.6398260 143.8618410 102.4317930
 135.6703610 144.6029290 103.3277870 141.0089090 145.9316430  97.7588340
 141.3504790 146.6758660  97.2631660 140.1801800 146.2447550  98.1213170
 133.6064130 141.6311520 109.3986740 133.2479070 142.2965370 109.9860080
 133.3118690 140.7995070 109.7699360 136.8077250 142.0895760 112.2826290
 136.5077390 142.2352940 111.3854110 137.5788490 141.5301050 112.1899680
 142.1505700 146.8864760 110.2781420 142.1650240 145.9545720 110.0600330
 141.4430800 146.9724520 110.9171190 147.2842770 141.0704580  96.5480030
 147.2006490 141.5018800  95.6976470 148.0036960 141.5302930  96.9806850
 148.3130020 147.9246840  99.2762160 147.6706180 147.2702460  99.5505880
 147.9260680 148.3301930  98.5002830 143.8916500 145.2532270 103.1233850
 144.2440320 144.6560400 102.4635220 143.0078830 144.9276500 103.2942100
 139.9779780 146.0129960 100.5304260 140.6650910 146.5599170 100.9111850
 139.1912200 146.5570690 100.5653870 132.1172180 141.6302780  96.0221340
 132.9867030 141.9127580  96.3057260 131.6262500 142.4438650  95.9070150
 139.2806990 143.0175990 100.1429620 139.7369770 143.8281240 100.3689810
 138.9295200 142.6999130 100.9748110 141.5839600 148.5282330 107.3721920
 142.2281820 148.7341710 108.0495340 141.9469040 147.7670730 106.9192770
 135.1818770 133.3613640 100.6152140 135.0533400 133.3531540 101.5637060
 134.3580790 133.6996730 100.2643150 142.8571680 146.5314680 106.0899370
 143.4993910 145.8307840 106.2031540 143.3821030 147.3113120 105.9096260
 146.7027400 146.8163300  95.8138510 146.4764980 146.0993740  96.4063150
 146.3123600 146.5675740  94.9760260 144.6309300 147.3309580 109.2935430
 144.9665540 147.9176270 109.9713350 143.7109640 147.2002290 109.5233220
 132.4843430 150.8430160  96.5882970 132.8441070 151.4419500  95.9340240
 132.3435770 151.3890050  97.3618000 132.1812700 135.1204760 110.0758840
 131.4671220 135.3201680 110.6811450 132.6007740 134.3444330 110.4473640
 146.2843650 144.7335240  97.4752670 145.9965350 145.1947930  98.2630550
 147.0795820 144.2733010  97.7436890 132.4685290 149.1085020 111.0625370
 132.5776410 148.1679760 110.9220760 131.8165850 149.3739770 110.4139100
 140.4597880 147.3800910 112.4623490 140.1394750 146.6610150 113.0069180
 139.7856240 148.0555980 112.5359550 138.5012050 148.2261360  97.4056640
 138.4922150 148.9591050  96.7901150 137.5810410 147.9792940  97.4983600
 134.1018690 143.4476250  98.1503400 133.4946640 144.1875150  98.1598700
 134.5768040 143.5375610  97.3241600 143.6751480 137.6127070 107.8260290
 144.0432300 136.7922280 108.1539860 142.8149680 137.6728960 108.2415940
 147.0413510 136.5684010  98.6347850 146.4126670 136.6729680  97.9206080
 146.5465430 136.7880790  99.4241730 141.4871650 148.2889600  96.0681830
 141.5883630 148.0853590  95.1383810 140.5873390 148.0347880  96.2729610
 139.0097540 138.8469960 100.0505730 138.3013690 139.3156300 100.4919340
 139.2942020 138.1891970 100.6850920 140.6353470 140.2666660 108.0498260
 141.1338720 140.7412480 108.7150110 140.7776420 139.3430180 108.2568290
 143.0412970 135.5720620 101.4901520 142.9180750 135.5906750 100.5411030
 143.9897530 135.6199560 101.6099920 140.1289760 150.8075920 100.7629500
 140.3831260 150.7697310  99.8408870 139.1802240 150.6809250 100.7557750
 137.2132560 137.1555040  97.4256440 138.0623090 137.5925190  97.3596630
 136.8463830 137.4675300  98.2528500 147.8420330 136.4834620 108.8926650
 147.3393930 137.2240020 109.2320460 148.6576990 136.8718620 108.5763440
 146.1342340 141.7267800 102.3388010 145.1932480 141.7418030 102.5135700
 146.4486410 140.9403760 102.7848310 136.1123980 143.4087400  95.8991970
 136.8787250 143.2968760  96.4617400 136.1898670 142.7125370  95.2468740
 134.8070740 140.8412470  96.5824860 134.8874330 139.8939980  96.6942260
 135.6990490 141.1719350  96.6885520 132.4930930 147.0581430  99.5600910
 131.5670710 147.3002570  99.5506320 132.9587360 147.8855690  99.4385660
 134.6143730 150.1753930 112.8744980 135.4156460 150.4965980 113.2880380
 134.0995550 149.8149510 113.5964890 138.7187760 150.1638170  95.5084970
 139.5116370 150.4527000  95.0566760 138.1992110 149.7330340  94.8297450
 143.4508360 146.2833800 112.8220390 142.8446520 146.3065400 112.0816140
 143.1462470 145.5516840 113.3587640 144.8808730 150.0114090 111.4329800
 145.8330480 149.9272110 111.3830040 144.7336950 150.6755800 112.1063590
 147.7717930 149.3908300  96.9321710 147.4859440 148.9773440  96.1175890
 147.5737480 150.3196010  96.8122230 132.3341540 142.6627390 111.8181030
 132.8380560 142.0834670 112.3897260 131.5948960 142.9467620 112.3557400
 139.2365160 145.3841580  95.3727320 139.1315800 144.7693930  96.0988700
 139.0689380 144.8607470  94.5890330 139.3879480 144.0698380 111.3516550
 138.6225150 144.6383380 111.2671220 139.5695440 143.7774590 110.4584780
 142.4767890 144.4461610  95.9769310 141.9277990 144.8930910  96.6212050
 143.0987150 143.9410860  96.5006980 146.5302830 145.8003710 111.9091570
 147.2712300 146.1379470 111.4059030 145.7675510 145.9695770 111.3561340
 134.3664620 140.8056980 112.7131100 134.4069960 140.5070850 113.6216330
 135.2210120 141.2064590 112.5538620 138.1443010 143.4052530  97.8734610
 138.5659430 143.2392400  98.7166000 138.2693850 142.5952760  97.3789750
 136.3070430 139.3849080 110.6805590 135.7766890 138.8940030 110.0528930
 136.9758500 139.8133280 110.1463520 140.6570650 142.4290140  95.1211710
 141.1776310 141.7139160  94.7552860 141.3039050 143.0676010  95.4212220
 145.2048490 143.8518540 110.4446780 145.6189510 144.0063620 111.2937200
 144.2699490 143.9773760 110.6072560 145.6770660 141.1914700 112.4485930
 146.2591430 140.4367020 112.3606410 145.8532430 141.7222140 111.6717410
 136.7942730 136.3511450 110.7602880 136.6999600 135.7332200 110.0353750
 136.2140120 137.0777740 110.5332790 139.5604170 134.9084690 107.7930270
 139.1121470 134.9308950 106.9475820 138.9269370 134.5103710 108.3900570
 139.9663720 143.8039020 108.4142710 140.3851830 144.6471750 108.2418950
 139.0472350 143.9411060 108.1849490 142.3027620 141.5355200 109.7980550
 142.4223830 140.9396340 110.5375390 143.1621620 141.5724890 109.3781850
 144.6415520 142.0892390 108.3743060 144.1150740 142.6135010 107.7708200
 144.9846860 142.7219780 109.0052790 137.0401910 139.4785760  94.8192770
 136.8390970 138.6153120  95.1806110 136.8693960 139.3919120  93.8814370
 137.8171140 150.1092030 109.5300440 137.2792230 150.8338090 109.2109140
 138.0705100 149.6322370 108.7397780 139.0696390 138.0776550 111.0556370
 139.6596080 137.7692400 111.7434190 138.2516630 137.6056300 111.2116270
 143.8889820 137.6942360 111.2889390 143.2005340 137.0323900 111.2239380
 144.6095840 137.2480630 111.7337850 144.5190220 134.2893990  97.3479650
 144.7992510 133.4461890  97.7039070 143.7455950 134.5217100  97.8618400
 135.8384710 136.5786380  94.8070650 136.1410610 136.5853810  93.8989800
 136.5779300 136.2284240  95.3038310 139.0569640 135.5221000  95.7926850
 138.7091640 134.8444990  95.2129300 139.2582410 135.0610510  96.6070240
 141.2218680 150.5101750  97.4113450 142.1169470 150.8486720  97.4332210
 141.2536310 149.7881160  96.7837730 134.8614840 145.8828800  95.6400450
 135.2989710 146.4258470  96.2958030 135.3462570 145.0575750  95.6496790
 132.0760640 148.6717830 103.0920710 132.4063650 147.8038890 102.8599350
 132.5051640 148.8776350 103.9225670 136.6722560 147.0026840 100.7522680
 136.3718100 146.8791810 101.6526590 136.5660050 146.1435430 100.3438410
 132.5650850 149.5388420 105.8302340 132.1281840 149.7189220 106.6626490
 133.1328530 150.2963040 105.6884060 148.2013030 149.0405420 110.1179650
 147.6015020 149.0997980 109.3743570 148.3306930 148.1010400 110.2476500
 132.3975280 142.0508650 102.1891220 131.7424120 141.7820290 101.5450920
 133.2353230 141.9413130 101.7393200 146.8864670 145.7657400 108.2155810
 146.0724510 146.1954560 108.4781600 147.2938870 146.3775810 107.6024860
 145.3465720 136.8449940  96.4109710 145.7650600 136.6580920  95.5706370
 145.0401780 135.9928990  96.7212640 133.4351210 142.4361220 106.7294560
 133.8024250 142.3488620 107.6090580 132.8662030 141.6727770 106.6301420
 148.2355070 140.9045600 109.7425030 148.0041160 140.6758350 108.8422980
 148.4959620 141.8245150 109.6969920 132.9867210 139.3470310 110.6352980
 132.0923260 139.3137070 110.9746690 133.5264760 139.5457100 111.4004230
 146.6743140 136.1302030 112.5204730 147.5513320 136.1385430 112.9038730
 146.6863980 135.3932870 111.9097080 131.6113360 139.2607580  98.1316550
 130.7077440 139.5237780  97.9568210 132.0953980 139.5318750  97.3516510
 148.2996130 140.0671440 106.9312300 147.3498840 140.0334980 107.0457290
 148.4809140 140.9771550 106.6962070 134.1540570 138.3173120  96.0410930
 134.8632270 137.8956340  95.5558210 133.4380510 138.3848350  95.4094280
 133.8014730 134.3712450  95.0813580 134.5242860 134.9121390  95.3994800
 134.0739250 134.0975870  94.2055120 147.6106380 139.2404920  99.3485160
 148.1065500 139.0075790 100.1334040 147.4122450 138.4016760  98.9322800
 133.4906920 133.6218640 104.9836200 134.1383110 133.0716020 104.5431360
 133.9108760 133.8761790 105.8052010 147.3859260 133.8160000 108.3405840
 148.0231480 134.4294140 108.7065030 147.5334150 133.8520660 107.3955070
 146.9440720 150.5176000 101.7424080 147.5399790 150.1960570 101.0658500
 147.2018870 150.0447820 102.5337350 133.2438920 133.7774310 107.7261520
 132.8953740 134.2338130 108.4919700 132.9126620 132.8831440 107.8083950
 134.8503290 146.9493910 111.8914710 134.8072920 146.5786820 112.7729170
 134.9814300 147.8871480 112.0316530 138.5509320 148.5053500 107.4924430
 138.3100680 148.7728060 106.6054950 139.4911960 148.6759230 107.5475290
 140.7563740 134.9686190 111.2480940 140.6952630 135.5608020 111.9976350
 141.6964120 134.8612150 111.1031200 143.3938300 134.6256250 110.8873230
 144.0078710 134.9435540 110.2254310 143.9387860 134.1404840 111.5069090
 133.9159560 133.3050510 111.0012290 134.4642550 133.1238560 110.2378400
 133.9814870 132.5144620 111.5368600 134.6891320 149.8956160 109.0112490
 134.0951640 149.7640860 109.7502530 134.6815160 149.0594300 108.5454590
 144.1346340 133.1888390 107.2142520 143.2606180 133.5223500 107.0115450
 144.0257090 132.7161570 108.0394390 145.0418320 135.3959260 108.5984240
 144.7131680 134.5811020 108.2185970 145.9900620 135.3529070 108.4749930
 134.3203550 147.2614540 107.9620530 133.5937610 146.6419830 107.8946480
 134.3812700 147.6555150 107.0918610 137.9248650 149.4759540 104.7469940
 138.4413670 148.8646900 104.2218200 138.5746030 149.9788320 105.2380950
 140.6644150 150.3668030 105.5738920 140.9521960 150.1122330 104.6971930
 141.1767370 149.8145390 106.1644490 141.8821160 134.1058230 106.1535430
 141.0992950 134.5803730 106.4332190 141.5884090 133.2013060 106.0448610
 146.4342230 134.8081330 104.1984520 146.8750320 134.7526430 103.3506120
 146.1649820 135.7239340 104.2694700 132.6033550 150.5788930 101.1717290
 132.4355590 149.9459610 101.8699180 131.7368060 150.7848330 100.8211480
 133.2261570 134.4105710  98.6749150 133.9840930 134.5234590  98.1013180
 132.7638740 135.2474910  98.6292580 139.7675380 136.5244980 101.6651460
 138.9549890 136.1501870 101.3247340 140.2717020 135.7690060 101.9672650
 144.2700360 133.1887430 102.9034530 144.8729730 133.7607640 103.3783050
 143.5293350 133.7526870 102.6808430 147.4134960 133.5908990  98.1774810
 147.6085590 134.4892440  98.4442240 146.6264830 133.3596070  98.6707760
 134.2096250 149.2722160  98.6167430 133.6843870 149.6530190  97.9129390
 134.1340830 149.8972930  99.3377140 135.5986720 134.9369760  97.2151120
 136.1279480 134.1499560  97.0859070 136.2315040 135.6160950  97.4486650
 137.7924560 134.6744900 100.2696510 137.1627300 133.9732210 100.4366640
 137.2529700 135.4349030 100.0529670 137.9180120 133.9528880 112.7049000
 137.6364390 134.4562480 111.9409820 138.2999820 133.1550630 112.3391130
 136.8089220 151.2204540  97.4916680 137.5408040 150.9363820  96.9440570
 137.0682890 150.9817820  98.3816060 135.9704010 147.3369270  97.4963010
 135.3412890 147.8054370  98.0448840 136.0851840 146.4918490  97.9309200
 144.5195580 133.3682460 113.2829470 144.4061030 133.6877070 114.1780990
 145.3365320 133.7694970 112.9866750 147.2994070 150.5153990 112.7648160
 148.0919390 150.0203220 112.5574120 147.5927220 151.1944130 113.3723770
 143.4253730 141.3874930  83.6464210 143.3447780 140.4729540  83.3755920
 143.0118150 141.8842000  82.9403920 141.5571770 143.1653950  85.5273480
 140.7813870 142.6854390  85.8172050 142.2084700 142.4859600  85.3529640
 135.5737600 143.4773760  86.4049240 134.7422480 143.2222470  86.8045750
 136.1818580 143.5484530  87.1407160 145.5779200 147.5714140  84.3072610
 145.1160730 146.8001380  84.6359780 146.3904750 147.5980210  84.8125060
 135.5538860 147.5113850  86.6007260 135.8566900 146.6211590  86.4217480
 136.2982450 148.0684070  86.3729510 133.9829550 138.4375650  80.1891630
 133.0946250 138.7791620  80.0871510 134.2670740 138.2375970  79.2972460
 131.9462560 141.0381300  86.0731330 132.5178670 140.2703500  86.0734970
 131.9464100 141.3370060  85.1637940 141.8042510 149.8572150  83.9276600
 141.1853950 150.3129650  83.3571040 142.6594290 150.0123610  83.5266300
 140.9980760 145.8411140  85.5343640 140.9289040 144.9001080  85.3732770
 141.7600620 145.9312550  86.1066210 133.1887430 136.4465660  87.8600260
 133.0090270 135.5491410  88.1403020 132.7867510 136.9937530  88.5347210
 142.0285930 138.6481520  85.7612570 142.4050750 137.7753400  85.6486240
 141.9305440 138.9840220  84.8703010 136.1590940 137.0207150  81.2230010
 136.2657690 137.9210880  81.5298770 135.2483300 136.9725120  80.9324660
 145.8110050 136.1431960  82.6940910 146.6319670 135.6528530  82.7366390
 145.8444130 136.7329620  83.4472750 133.8074100 138.9426160  86.4682600
 134.4884210 139.2064530  87.0870000 133.4922150 138.1027030  86.8020610
 137.9998670 139.9893520  85.5555190 138.5076890 140.4874490  86.1960210
 138.5311910 139.2128720  85.3794550 136.2834770 134.6292080  89.8218610
 136.2853210 135.1464470  89.0164510 135.4539080 134.1522260  89.7988540
 142.6705860 144.7411390  81.3208510 142.0523130 145.2060840  80.7571230
 143.1829110 145.4338870  81.7378020 137.5337620 144.2687260  87.9992110
 137.2007000 144.8956180  88.6413180 137.7104300 144.7949140  87.2193780
 146.0471530 138.0832340  85.4668450 145.3427100 138.3717230  86.0471560
 146.4083690 138.8932450  85.1068010 135.9650100 136.3402040  87.8289060
 136.3066910 137.1844090  87.5342930 135.0265910 136.4885780  87.9454400
 136.7456720 146.2368060  89.8141290 137.3630720 146.9119140  89.5325740
 135.8849840 146.6456040  89.7228790 132.0389060 145.4267920  78.6948140
 131.6617040 145.9155020  77.9633040 132.2962130 146.0993200  79.3254670
 147.6634310 147.7007470  87.7295930 146.9797830 148.3706580  87.7212600
 148.2028600 147.8988120  86.9640790 139.6477990 133.8284310  84.1533650
 139.9552970 133.2731200  83.4369150 138.7178690 133.9628770  83.9706640
 145.1993050 149.5451600  86.4441110 145.2120210 149.1413890  85.5763370
 144.6468270 150.3198890  86.3402540 146.4938470 146.2667820  81.5331280
 146.3834800 145.3242150  81.6580700 146.4906720 146.6283460  82.4194040
 144.5978490 144.4481440  87.7723720 145.0147280 144.2341550  86.9377180
 145.3218310 144.7054230  88.3432340 142.0358750 141.8933140  80.8893770
 141.1088030 141.8270520  81.1182240 142.1883570 142.8313270  80.7749010
 142.0227830 138.1650140  77.8860930 141.0831500 138.3264100  77.9713390
 142.3411090 138.8835820  77.3396920 146.0656040 143.4553440  81.3929020
 145.4468460 143.1172990  80.7455320 146.0480490 142.8113200  82.1008210
 145.5082600 139.6337980  88.8094830 145.0953780 140.4591690  89.0634820
 144.7758550 139.0483020  88.6171190 137.6415390 142.4197880  83.6713500
 137.2372390 141.7075130  83.1759400 137.7278510 142.0751120  84.5601540
 138.1097090 146.1065440  85.8352710 137.8125380 145.5010910  85.1560490
 139.0596910 146.1442750  85.7242070 136.3544010 139.1941090  87.4512540
 136.9058600 139.3036430  86.6765790 136.8687520 139.5678690  88.1667770
 146.1982700 149.6797310  89.4975810 145.7213260 150.4869500  89.3048420
 145.5144490 149.0275640  89.6502020 137.2015520 145.8447130  92.4860510
 136.3044050 146.0687100  92.7333910 137.2268390 145.9682070  91.5371910
 144.2420740 142.6940250  78.4001770 144.6814020 141.8562680  78.2539590
 144.9549160 143.3269650  78.4865910 136.0286740 142.7160450  91.0617880
 135.8894510 143.5883250  91.4305280 135.1468100 142.3733260  90.9165820
 142.3516120 147.6336320  82.3683010 142.7912030 148.3760650  81.9538400
 142.2903010 147.8762890  83.2921970 137.8267090 148.6582150  93.2703030
 137.7982520 149.0625100  92.4031460 137.6632060 147.7292510  93.1074630
 147.8237880 133.9483060  76.7142810 147.5110540 134.0409890  77.6141880
 148.5850350 134.5264090  76.6640240 134.3420020 141.3142860  81.1720150
 134.2217620 142.0404950  80.5601420 134.0320910 140.5445770  80.6948060
 131.9805390 144.4858000  86.9788790 132.0585810 144.6206770  86.0344510
 132.5947070 143.7773890  87.1716910 133.2253020 146.1858190  83.3894970
 132.8181100 146.3272780  82.5348570 134.1166030 145.9018350  83.1866180
 143.0431900 150.3350100  90.2962020 143.5576570 150.2458110  91.0984450
 142.2000980 150.6809800  90.5889930 145.0186300 150.6205440  79.7246020
 144.8587440 150.3308380  80.6227850 144.8533010 149.8445570  79.1891250
 137.4974680 150.4003970  81.5017640 137.3217160 149.4839510  81.2885440
 136.6430420 150.7591260  81.7415440 144.7212430 148.1293000  78.2844020
 144.0277590 148.1270290  77.6246300 145.4635290 147.7052320  77.8538190
 144.2862360 149.7555710  82.3592510 144.7419310 148.9745090  82.6731130
 144.6254880 150.4662530  82.9033690 132.0364910 145.5272170  89.5183250
 132.1995950 145.0577530  88.7002620 132.5017360 145.0195730  90.1832090
 136.8083680 134.6577930  84.5543820 136.3651830 135.4387470  84.2228340
 137.3668670 134.9807820  85.2614760 141.0953490 137.5246450  90.1579140
 140.6332860 137.7329470  90.9699080 140.6931600 136.7105800  89.8549810
 146.0958000 138.7455400  91.2875800 145.2451590 138.4461150  91.6084870
 145.9359790 138.9897410  90.3759620 143.1907710 140.2457150  93.3874590
 143.5161120 139.4120900  93.0476820 143.9788040 140.7685670  93.5352920
 139.9242500 134.2788630  79.4349650 139.2996680 134.2748500  80.1602960
 139.8372620 133.4119590  79.0385620 138.8459580 135.2025260  86.4133420
 139.1431910 136.1088090  86.3325440 139.3945140 134.7144040  85.7992990
 136.5997900 139.7811500  82.2825070 136.3738820 139.5648670  83.1871690
 135.8190430 140.2139960  81.9371040 143.8295660 139.7874870  80.8815720
 143.2304550 140.5110670  80.6979340 144.3775270 139.7251650  80.0992170
 139.0397110 140.6797080  92.9485340 138.9440710 139.7391810  92.7985740
 139.8829090 140.9012150  92.5533410 142.4360530 138.4238410  82.9119000
 142.8290100 138.7410610  82.0987690 142.7977380 137.5450290  83.0263520
 134.1707650 137.0910750  91.1019120 133.7771040 137.9385960  91.3091900
 133.4826050 136.4537120  91.2927760 140.7452700 137.1745720  94.1715860
 140.0551020 136.9817920  94.8061950 141.4885000 137.4580360  94.7040160
 131.4724700 135.0139210  85.1349200 131.1837750 135.5842070  85.8474180
 132.2170460 134.5343660  85.4980430 131.6594930 138.9559330  76.3451920
 131.5769600 139.8990090  76.4866910 131.3077990 138.8134240  75.4664270
 143.0215670 141.0144160  87.0069780 142.2896790 141.5230970  87.3559880
 142.6240010 140.1974140  86.7058560 139.4593060 137.6898360  85.4122270
 139.4629120 137.2488310  84.5626810 140.3544180 138.0115690  85.5194090
 135.3095440 137.5724850  84.3716480 134.9695490 138.0500080  85.1283530
 134.5472760 137.1189970  84.0117580 139.5213210 138.6910440  78.4029030
 139.6426030 138.6496920  79.3514850 139.1361720 139.5534590  78.2475760
 143.4841580 136.4677840  86.4192720 143.5014320 136.9186490  87.2634570
 143.2357160 135.5683480  86.6326160 138.5334710 141.0011580  77.8012330
 137.9651610 140.5529830  77.1748240 139.2423710 141.3604360  77.2677480
 146.9112330 133.8810020  92.2579100 147.2358100 133.1499680  92.7837080
 146.9468840 133.5623660  91.3560090 133.6103890 144.9023600  91.6779060
 133.2258680 144.2617270  92.2762020 133.9216080 145.6059720  92.2473790
 139.7601030 141.7500140  87.1587680 140.1271160 141.2758710  87.9049020
 139.5706090 142.6241710  87.4996020 132.6241520 136.4943830  83.2881150
 132.3388440 136.1299500  84.1259770 132.5620380 135.7624290  82.6744290
 137.5500400 140.7908780  89.4771890 137.2457470 141.6700760  89.7022250
 138.5046860 140.8508570  89.5129330 136.0782190 144.9969770  80.0738740
 135.3044450 144.4567390  79.9137460 136.8076820 144.4776380  79.7356500
 146.8370170 143.9935130  85.8665130 147.5569290 144.4890420  85.4761240
 146.6351990 143.3153020  85.2219000 142.2980110 135.3873090  80.0094520
 141.4844720 134.8886260  79.9339830 142.1042060 136.2271340  79.5930870
 142.2188970 144.0644190  91.7534130 142.1526280 143.1439860  91.4991720
 141.5894110 144.1619630  92.4678770 145.0128500 139.7592740  78.3056680
 145.9008120 140.0709970  78.1308020 144.9833590 138.8864990  77.9137260
 136.1219590 144.6650150  83.7117550 136.6398260 143.8618410  83.6574440
 135.6703610 144.6029290  84.5534380 141.0089090 145.9316430  78.9844850
 141.3504790 146.6758660  78.4888170 140.1801800 146.2447550  79.3469680
 133.6064130 141.6311520  90.6243250 133.2479070 142.2965370  91.2116590
 133.3118690 140.7995070  90.9955870 136.8077250 142.0895760  93.5082800
 136.5077390 142.2352940  92.6110620 137.5788490 141.5301050  93.4156190
 142.1505700 146.8864760  91.5037930 142.1650240 145.9545720  91.2856840
 141.4430800 146.9724520  92.1427700 147.2842770 141.0704580  77.7736540
 147.2006490 141.5018800  76.9232980 148.0036960 141.5302930  78.2063360
 148.3130020 147.9246840  80.5018670 147.6706180 147.2702460  80.7762390
 147.9260680 148.3301930  79.7259340 143.8916500 145.2532270  84.3490360
 144.2440320 144.6560400  83.6891730 143.0078830 144.9276500  84.5198610
 139.9779780 146.0129960  81.7560770 140.6650910 146.5599170  82.1368360
 139.1912200 146.5570690  81.7910380 132.1172180 141.6302780  77.2477850
 132.9867030 141.9127580  77.5313770 131.6262500 142.4438650  77.1326660
 139.2806990 143.0175990  81.3686130 139.7369770 143.8281240  81.5946320
 138.9295200 142.6999130  82.2004620 141.5839600 148.5282330  88.5978430
 142.2281820 148.7341710  89.2751850 141.9469040 147.7670730  88.1449280
 135.1818770 133.3613640  81.8408650 135.0533400 133.3531540  82.7893570
 134.3580790 133.6996730  81.4899660 142.8571680 146.5314680  87.3155880
 143.4993910 145.8307840  87.4288050 143.3821030 147.3113120  87.1352770
 146.7027400 146.8163300  77.0395020 146.4764980 146.0993740  77.6319660
 146.3123600 146.5675740  76.2016770 144.6309300 147.3309580  90.5191940
 144.9665540 147.9176270  91.1969860 143.7109640 147.2002290  90.7489730
 132.4843430 150.8430160  77.8139480 132.8441070 151.4419500  77.1596750
 132.3435770 151.3890050  78.5874510 132.1812700 135.1204760  91.3015350
 131.4671220 135.3201680  91.9067960 132.6007740 134.3444330  91.6730150
 146.2843650 144.7335240  78.7009180 145.9965350 145.1947930  79.4887060
 147.0795820 144.2733010  78.9693400 132.4685290 149.1085020  92.2881880
 132.5776410 148.1679760  92.1477270 131.8165850 149.3739770  91.6395610
 140.4597880 147.3800910  93.6880000 140.1394750 146.6610150  94.2325690
 139.7856240 148.0555980  93.7616060 138.5012050 148.2261360  78.6313150
 138.4922150 148.9591050  78.0157660 137.5810410 147.9792940  78.7240110
 134.1018690 143.4476250  79.3759910 133.4946640 144.1875150  79.3855210
 134.5768040 143.5375610  78.5498110 143.6751480 137.6127070  89.0516800
 144.0432300 136.7922280  89.3796370 142.8149680 137.6728960  89.4672450
 147.0413510 136.5684010  79.8604360 146.4126670 136.6729680  79.1462590
 146.5465430 136.7880790  80.6498240 141.4871650 148.2889600  77.2938340
 141.5883630 148.0853590  76.3640320 140.5873390 148.0347880  77.4986120
 139.0097540 138.8469960  81.2762240 138.3013690 139.3156300  81.7175850
 139.2942020 138.1891970  81.9107430 140.6353470 140.2666660  89.2754770
 141.1338720 140.7412480  89.9406620 140.7776420 139.3430180  89.4824800
 143.0412970 135.5720620  82.7158030 142.9180750 135.5906750  81.7667540
 143.9897530 135.6199560  82.8356430 140.1289760 150.8075920  81.9886010
 140.3831260 150.7697310  81.0665380 139.1802240 150.6809250  81.9814260
 137.2132560 137.1555040  78.6512950 138.0623090 137.5925190  78.5853140
 136.8463830 137.4675300  79.4785010 147.8420330 136.4834620  90.1183160
 147.3393930 137.2240020  90.4576970 148.6576990 136.8718620  89.8019950
 146.1342340 141.7267800  83.5644520 145.1932480 141.7418030  83.7392210
 146.4486410 140.9403760  84.0104820 136.1123980 143.4087400  77.1248480
 136.8787250 143.2968760  77.6873910 136.1898670 142.7125370  76.4725250
 134.8070740 140.8412470  77.8081370 134.8874330 139.8939980  77.9198770
 135.6990490 141.1719350  77.9142030 132.4930930 147.0581430  80.7857420
 131.5670710 147.3002570  80.7762830 132.9587360 147.8855690  80.6642170
 134.6143730 150.1753930  94.1001490 135.4156460 150.4965980  94.5136890
 134.0995550 149.8149510  94.8221400 138.7187760 150.1638170  76.7341480
 139.5116370 150.4527000  76.2823270 138.1992110 149.7330340  76.0553960
 143.4508360 146.2833800  94.0476900 142.8446520 146.3065400  93.3072650
 143.1462470 145.5516840  94.5844150 144.8808730 150.0114090  92.6586310
 145.8330480 149.9272110  92.6086550 144.7336950 150.6755800  93.3320100
 147.7717930 149.3908300  78.1578220 147.4859440 148.9773440  77.3432400
 147.5737480 150.3196010  78.0378740 132.3341540 142.6627390  93.0437540
 132.8380560 142.0834670  93.6153770 131.5948960 142.9467620  93.5813910
 139.2365160 145.3841580  76.5983830 139.1315800 144.7693930  77.3245210
 139.0689380 144.8607470  75.8146840 139.3879480 144.0698380  92.5773060
 138.6225150 144.6383380  92.4927730 139.5695440 143.7774590  91.6841290
 142.4767890 144.4461610  77.2025820 141.9277990 144.8930910  77.8468560
 143.0987150 143.9410860  77.7263490 146.5302830 145.8003710  93.1348080
 147.2712300 146.1379470  92.6315540 145.7675510 145.9695770  92.5817850
 134.3664620 140.8056980  93.9387610 134.4069960 140.5070850  94.8472840
 135.2210120 141.2064590  93.7795130 138.1443010 143.4052530  79.0991120
 138.5659430 143.2392400  79.9422510 138.2693850 142.5952760  78.6046260
 136.3070430 139.3849080  91.9062100 135.7766890 138.8940030  91.2785440
 136.9758500 139.8133280  91.3720030 140.6570650 142.4290140  76.3468220
 141.1776310 141.7139160  75.9809370 141.3039050 143.0676010  76.6468730
 145.2048490 143.8518540  91.6703290 145.6189510 144.0063620  92.5193710
 144.2699490 143.9773760  91.8329070 145.6770660 141.1914700  93.6742440
 146.2591430 140.4367020  93.5862920 145.8532430 141.7222140  92.8973920
 136.7942730 136.3511450  91.9859390 136.6999600 135.7332200  91.2610260
 136.2140120 137.0777740  91.7589300 139.5604170 134.9084690  89.0186780
 139.1121470 134.9308950  88.1732330 138.9269370 134.5103710  89.6157080
 139.9663720 143.8039020  89.6399220 140.3851830 144.6471750  89.4675460
 139.0472350 143.9411060  89.4106000 142.3027620 141.5355200  91.0237060
 142.4223830 140.9396340  91.7631900 143.1621620 141.5724890  90.6038360
 144.6415520 142.0892390  89.5999570 144.1150740 142.6135010  88.9964710
 144.9846860 142.7219780  90.2309300 137.0401910 139.4785760  76.0449280
 136.8390970 138.6153120  76.4062620 136.8693960 139.3919120  75.1070880
 137.8171140 150.1092030  90.7556950 137.2792230 150.8338090  90.4365650
 138.0705100 149.6322370  89.9654290 139.0696390 138.0776550  92.2812880
 139.6596080 137.7692400  92.9690700 138.2516630 137.6056300  92.4372780
 143.8889820 137.6942360  92.5145900 143.2005340 137.0323900  92.4495890
 144.6095840 137.2480630  92.9594360 144.5190220 134.2893990  78.5736160
 144.7992510 133.4461890  78.9295580 143.7455950 134.5217100  79.0874910
 135.8384710 136.5786380  76.0327160 136.1410610 136.5853810  75.1246310
 136.5779300 136.2284240  76.5294820 139.0569640 135.5221000  77.0183360
 138.7091640 134.8444990  76.4385810 139.2582410 135.0610510  77.8326750
 141.2218680 150.5101750  78.6369960 142.1169470 150.8486720  78.6588720
 141.2536310 149.7881160  78.0094240 134.8614840 145.8828800  76.8656960
 135.2989710 146.4258470  77.5214540 135.3462570 145.0575750  76.8753300
 132.0760640 148.6717830  84.3177220 132.4063650 147.8038890  84.0855860
 132.5051640 148.8776350  85.1482180 136.6722560 147.0026840  81.9779190
 136.3718100 146.8791810  82.8783100 136.5660050 146.1435430  81.5694920
 132.5650850 149.5388420  87.0558850 132.1281840 149.7189220  87.8883000
 133.1328530 150.2963040  86.9140570 148.2013030 149.0405420  91.3436160
 147.6015020 149.0997980  90.6000080 148.3306930 148.1010400  91.4733010
 132.3975280 142.0508650  83.4147730 131.7424120 141.7820290  82.7707430
 133.2353230 141.9413130  82.9649710 146.8864670 145.7657400  89.4412320
 146.0724510 146.1954560  89.7038110 147.2938870 146.3775810  88.8281370
 145.3465720 136.8449940  77.6366220 145.7650600 136.6580920  76.7962880
 145.0401780 135.9928990  77.9469150 133.4351210 142.4361220  87.9551070
 133.8024250 142.3488620  88.8347090 132.8662030 141.6727770  87.8557930
 148.2355070 140.9045600  90.9681540 148.0041160 140.6758350  90.0679490
 148.4959620 141.8245150  90.9226430 132.9867210 139.3470310  91.8609490
 132.0923260 139.3137070  92.2003200 133.5264760 139.5457100  92.6260740
 146.6743140 136.1302030  93.7461240 147.5513320 136.1385430  94.1295240
 146.6863980 135.3932870  93.1353590 131.6113360 139.2607580  79.3573060
 130.7077440 139.5237780  79.1824720 132.0953980 139.5318750  78.5773020
 148.2996130 140.0671440  88.1568810 147.3498840 140.0334980  88.2713800
 148.4809140 140.9771550  87.9218580 134.1540570 138.3173120  77.2667440
 134.8632270 137.8956340  76.7814720 133.4380510 138.3848350  76.6350790
 133.8014730 134.3712450  76.3070090 134.5242860 134.9121390  76.6251310
 134.0739250 134.0975870  75.4311630 147.6106380 139.2404920  80.5741670
 148.1065500 139.0075790  81.3590550 147.4122450 138.4016760  80.1579310
 133.4906920 133.6218640  86.2092710 134.1383110 133.0716020  85.7687870
 133.9108760 133.8761790  87.0308520 147.3859260 133.8160000  89.5662350
 148.0231480 134.4294140  89.9321540 147.5334150 133.8520660  88.6211580
 146.9440720 150.5176000  82.9680590 147.5399790 150.1960570  82.2915010
 147.2018870 150.0447820  83.7593860 133.2438920 133.7774310  88.9518030
 132.8953740 134.2338130  89.7176210 132.9126620 132.8831440  89.0340460
 134.8503290 146.9493910  93.1171220 134.8072920 146.5786820  93.9985680
 134.9814300 147.8871480  93.2573040 138.5509320 148.5053500  88.7180940
 138.3100680 148.7728060  87.8311460 139.4911960 148.6759230  88.7731800
 140.7563740 134.9686190  92.4737450 140.6952630 135.5608020  93.2232860
 141.6964120 134.8612150  92.3287710 143.3938300 134.6256250  92.1129740
 144.0078710 134.9435540  91.4510820 143.9387860 134.1404840  92.7325600
 133.9159560 133.3050510  92.2268800 134.4642550 133.1238560  91.4634910
 133.9814870 132.5144620  92.7625110 134.6891320 149.8956160  90.2369000
 134.0951640 149.7640860  90.9759040 134.6815160 149.0594300  89.7711100
 144.1346340 133.1888390  88.4399030 143.2606180 133.5223500  88.2371960
 144.0257090 132.7161570  89.2650900 145.0418320 135.3959260  89.8240750
 144.7131680 134.5811020  89.4442480 145.9900620 135.3529070  89.7006440
 134.3203550 147.2614540  89.1877040 133.5937610 146.6419830  89.1202990
 134.3812700 147.6555150  88.3175120 137.9248650 149.4759540  85.9726450
 138.4413670 148.8646900  85.4474710 138.5746030 149.9788320  86.4637460
 140.6644150 150.3668030  86.7995430 140.9521960 150.1122330  85.9228440
 141.1767370 149.8145390  87.3901000 141.8821160 134.1058230  87.3791940
 141.0992950 134.5803730  87.6588700 141.5884090 133.2013060  87.2705120
 146.4342230 134.8081330  85.4241030 146.8750320 134.7526430  84.5762630
 146.1649820 135.7239340  85.4951210 132.6033550 150.5788930  82.3973800
 132.4355590 149.9459610  83.0955690 131.7368060 150.7848330  82.0467990
 133.2261570 134.4105710  79.9005660 133.9840930 134.5234590  79.3269690
 132.7638740 135.2474910  79.8549090 139.7675380 136.5244980  82.8907970
 138.9549890 136.1501870  82.5503850 140.2717020 135.7690060  83.1929160
 144.2700360 133.1887430  84.1291040 144.8729730 133.7607640  84.6039560
 143.5293350 133.7526870  83.9064940 147.4134960 133.5908990  79.4031320
 147.6085590 134.4892440  79.6698750 146.6264830 133.3596070  79.8964270
 134.2096250 149.2722160  79.8423940 133.6843870 149.6530190  79.1385900
 134.1340830 149.8972930  80.5633650 135.5986720 134.9369760  78.4407630
 136.1279480 134.1499560  78.3115580 136.2315040 135.6160950  78.6743160
 137.7924560 134.6744900  81.4953020 137.1627300 133.9732210  81.6623150
 137.2529700 135.4349030  81.2786180 137.9180120 133.9528880  93.9305510
 137.6364390 134.4562480  93.1666330 138.2999820 133.1550630  93.5647640
 136.8089220 151.2204540  78.7173190 137.5408040 150.9363820  78.1697080
 137.0682890 150.9817820  79.6072570 135.9704010 147.3369270  78.7219520
 135.3412890 147.8054370  79.2705350 136.0851840 146.4918490  79.1565710
 144.5195580 133.3682460  94.5085980 144.4061030 133.6877070  95.4037500
 145.3365320 133.7694970  94.2123260 147.2994070 150.5153990  93.9904670
 148.0919390 150.0203220  93.7830630 147.5927220 151.1944130  94.5980280
 143.4253730 141.3874930  64.8720720 143.3447780 140.4729540  64.6012430
 143.0118150 141.8842000  64.1660430 141.5571770 143.1653950  66.7529990
 140.7813870 142.6854390  67.0428560 142.2084700 142.4859600  66.5786150
 135.5737600 143.4773760  67.6305750 134.7422480 143.2222470  68.0302260
 136.1818580 143.5484530  68.3663670 145.5779200 147.5714140  65.5329120
 145.1160730 146.8001380  65.8616290 146.3904750 147.5980210  66.0381570
 135.5538860 147.5113850  67.8263770 135.8566900 146.6211590  67.6473990
 136.2982450 148.0684070  67.5986020 133.9829550 138.4375650  61.4148140
 133.0946250 138.7791620  61.3128020 134.2670740 138.2375970  60.5228970
 131.9462560 141.0381300  67.2987840 132.5178670 140.2703500  67.2991480
 131.9464100 141.3370060  66.3894450 141.8042510 149.8572150  65.1533110
 141.1853950 150.3129650  64.5827550 142.6594290 150.0123610  64.7522810
 140.9980760 145.8411140  66.7600150 140.9289040 144.9001080  66.5989280
 141.7600620 145.9312550  67.3322720 133.1887430 136.4465660  69.0856770
 133.0090270 135.5491410  69.3659530 132.7867510 136.9937530  69.7603720
 142.0285930 138.6481520  66.9869080 142.4050750 137.7753400  66.8742750
 141.9305440 138.9840220  66.0959520 136.1590940 137.0207150  62.4486520
 136.2657690 137.9210880  62.7555280 135.2483300 136.9725120  62.1581170
 145.8110050 136.1431960  63.9197420 146.6319670 135.6528530  63.9622900
 145.8444130 136.7329620  64.6729260 133.8074100 138.9426160  67.6939110
 134.4884210 139.2064530  68.3126510 133.4922150 138.1027030  68.0277120
 137.9998670 139.9893520  66.7811700 138.5076890 140.4874490  67.4216720
 138.5311910 139.2128720  66.6051060 136.2834770 134.6292080  71.0475120
 136.2853210 135.1464470  70.2421020 135.4539080 134.1522260  71.0245050
 142.6705860 144.7411390  62.5465020 142.0523130 145.2060840  61.9827740
 143.1829110 145.4338870  62.9634530 137.5337620 144.2687260  69.2248620
 137.2007000 144.8956180  69.8669690 137.7104300 144.7949140  68.4450290
 146.0471530 138.0832340  66.6924960 145.3427100 138.3717230  67.2728070
 146.4083690 138.8932450  66.3324520 135.9650100 136.3402040  69.0545570
 136.3066910 137.1844090  68.7599440 135.0265910 136.4885780  69.1710910
 136.7456720 146.2368060  71.0397800 137.3630720 146.9119140  70.7582250
 135.8849840 146.6456040  70.9485300 132.0389060 145.4267920  59.9204650
 131.6617040 145.9155020  59.1889550 132.2962130 146.0993200  60.5511180
 147.6634310 147.7007470  68.9552440 146.9797830 148.3706580  68.9469110
 148.2028600 147.8988120  68.1897300 139.6477990 133.8284310  65.3790160
 139.9552970 133.2731200  64.6625660 138.7178690 133.9628770  65.1963150
 145.1993050 149.5451600  67.6697620 145.2120210 149.1413890  66.8019880
 144.6468270 150.3198890  67.5659050 146.4938470 146.2667820  62.7587790
 146.3834800 145.3242150  62.8837210 146.4906720 146.6283460  63.6450550
 144.5978490 144.4481440  68.9980230 145.0147280 144.2341550  68.1633690
 145.3218310 144.7054230  69.5688850 142.0358750 141.8933140  62.1150280
 141.1088030 141.8270520  62.3438750 142.1883570 142.8313270  62.0005520
 142.0227830 138.1650140  59.1117440 141.0831500 138.3264100  59.1969900
 142.3411090 138.8835820  58.5653430 146.0656040 143.4553440  62.6185530
 145.4468460 143.1172990  61.9711830 146.0480490 142.8113200  63.3264720
 145.5082600 139.6337980  70.0351340 145.0953780 140.4591690  70.2891330
 144.7758550 139.0483020  69.8427700 137.6415390 142.4197880  64.8970010
 137.2372390 141.7075130  64.4015910 137.7278510 142.0751120  65.7858050
 138.1097090 146.1065440  67.0609220 137.8125380 145.5010910  66.3817000
 139.0596910 146.1442750  66.9498580 136.3544010 139.1941090  68.6769050
 136.9058600 139.3036430  67.9022300 136.8687520 139.5678690  69.3924280
 146.1982700 149.6797310  70.7232320 145.7213260 150.4869500  70.5304930
 145.5144490 149.0275640  70.8758530 137.2015520 145.8447130  73.7117020
 136.3044050 146.0687100  73.9590420 137.2268390 145.9682070  72.7628420
 144.2420740 142.6940250  59.6258280 144.6814020 141.8562680  59.4796100
 144.9549160 143.3269650  59.7122420 136.0286740 142.7160450  72.2874390
 135.8894510 143.5883250  72.6561790 135.1468100 142.3733260  72.1422330
 142.3516120 147.6336320  63.5939520 142.7912030 148.3760650  63.1794910
 142.2903010 147.8762890  64.5178480 137.8267090 148.6582150  74.4959540
 137.7982520 149.0625100  73.6287970 137.6632060 147.7292510  74.3331140
 147.8237880 133.9483060  57.9399320 147.5110540 134.0409890  58.8398390
 148.5850350 134.5264090  57.8896750 134.3420020 141.3142860  62.3976660
 134.2217620 142.0404950  61.7857930 134.0320910 140.5445770  61.9204570
 131.9805390 144.4858000  68.2045300 132.0585810 144.6206770  67.2601020
 132.5947070 143.7773890  68.3973420 133.2253020 146.1858190  64.6151480
 132.8181100 146.3272780  63.7605080 134.1166030 145.9018350  64.4122690
 143.0431900 150.3350100  71.5218530 143.5576570 150.2458110  72.3240960
 142.2000980 150.6809800  71.8146440 145.0186300 150.6205440  60.9502530
 144.8587440 150.3308380  61.8484360 144.8533010 149.8445570  60.4147760
 137.4974680 150.4003970  62.7274150 137.3217160 149.4839510  62.5141950
 136.6430420 150.7591260  62.9671950 144.7212430 148.1293000  59.5100530
 144.0277590 148.1270290  58.8502810 145.4635290 147.7052320  59.0794700
 144.2862360 149.7555710  63.5849020 144.7419310 148.9745090  63.8987640
 144.6254880 150.4662530  64.1290200 132.0364910 145.5272170  70.7439760
 132.1995950 145.0577530  69.9259130 132.5017360 145.0195730  71.4088600
 136.8083680 134.6577930  65.7800330 136.3651830 135.4387470  65.4484850
 137.3668670 134.9807820  66.4871270 141.0953490 137.5246450  71.3835650
 140.6332860 137.7329470  72.1955590 140.6931600 136.7105800  71.0806320
 146.0958000 138.7455400  72.5132310 145.2451590 138.4461150  72.8341380
 145.9359790 138.9897410  71.6016130 143.1907710 140.2457150  74.6131100
 143.5161120 139.4120900  74.2733330 143.9788040 140.7685670  74.7609430
 139.9242500 134.2788630  60.6606160 139.2996680 134.2748500  61.3859470
 139.8372620 133.4119590  60.2642130 138.8459580 135.2025260  67.6389930
 139.1431910 136.1088090  67.5581950 139.3945140 134.7144040  67.0249500
 136.5997900 139.7811500  63.5081580 136.3738820 139.5648670  64.4128200
 135.8190430 140.2139960  63.1627550 143.8295660 139.7874870  62.1072230
 143.2304550 140.5110670  61.9235850 144.3775270 139.7251650  61.3248680
 139.0397110 140.6797080  74.1741850 138.9440710 139.7391810  74.0242250
 139.8829090 140.9012150  73.7789920 142.4360530 138.4238410  64.1375510
 142.8290100 138.7410610  63.3244200 142.7977380 137.5450290  64.2520030
 134.1707650 137.0910750  72.3275630 133.7771040 137.9385960  72.5348410
 133.4826050 136.4537120  72.5184270 140.7452700 137.1745720  75.3972370
 140.0551020 136.9817920  76.0318460 141.4885000 137.4580360  75.9296670
 131.4724700 135.0139210  66.3605710 131.1837750 135.5842070  67.0730690
 132.2170460 134.5343660  66.7236940 131.6594930 138.9559330  57.5708430
 131.5769600 139.8990090  57.7123420 131.3077990 138.8134240  56.6920780
 143.0215670 141.0144160  68.2326290 142.2896790 141.5230970  68.5816390
 142.6240010 140.1974140  67.9315070 139.4593060 137.6898360  66.6378780
 139.4629120 137.2488310  65.7883320 140.3544180 138.0115690  66.7450600
 135.3095440 137.5724850  65.5972990 134.9695490 138.0500080  66.3540040
 134.5472760 137.1189970  65.2374090 139.5213210 138.6910440  59.6285540
 139.6426030 138.6496920  60.5771360 139.1361720 139.5534590  59.4732270
 143.4841580 136.4677840  67.6449230 143.5014320 136.9186490  68.4891080
 143.2357160 135.5683480  67.8582670 138.5334710 141.0011580  59.0268840
 137.9651610 140.5529830  58.4004750 139.2423710 141.3604360  58.4933990
 146.9112330 133.8810020  73.4835610 147.2358100 133.1499680  74.0093590
 146.9468840 133.5623660  72.5816600 133.6103890 144.9023600  72.9035570
 133.2258680 144.2617270  73.5018530 133.9216080 145.6059720  73.4730300
 139.7601030 141.7500140  68.3844190 140.1271160 141.2758710  69.1305530
 139.5706090 142.6241710  68.7252530 132.6241520 136.4943830  64.5137660
 132.3388440 136.1299500  65.3516280 132.5620380 135.7624290  63.9000800
 137.5500400 140.7908780  70.7028400 137.2457470 141.6700760  70.9278760
 138.5046860 140.8508570  70.7385840 136.0782190 144.9969770  61.2995250
 135.3044450 144.4567390  61.1393970 136.8076820 144.4776380  60.9613010
 146.8370170 143.9935130  67.0921640 147.5569290 144.4890420  66.7017750
 146.6351990 143.3153020  66.4475510 142.2980110 135.3873090  61.2351030
 141.4844720 134.8886260  61.1596340 142.1042060 136.2271340  60.8187380
 142.2188970 144.0644190  72.9790640 142.1526280 143.1439860  72.7248230
 141.5894110 144.1619630  73.6935280 145.0128500 139.7592740  59.5313190
 145.9008120 140.0709970  59.3564530 144.9833590 138.8864990  59.1393770
 136.1219590 144.6650150  64.9374060 136.6398260 143.8618410  64.8830950
 135.6703610 144.6029290  65.7790890 141.0089090 145.9316430  60.2101360
 141.3504790 146.6758660  59.7144680 140.1801800 146.2447550  60.5726190
 133.6064130 141.6311520  71.8499760 133.2479070 142.2965370  72.4373100
 133.3118690 140.7995070  72.2212380 136.8077250 142.0895760  74.7339310
 136.5077390 142.2352940  73.8367130 137.5788490 141.5301050  74.6412700
 142.1505700 146.8864760  72.7294440 142.1650240 145.9545720  72.5113350
 141.4430800 146.9724520  73.3684210 147.2842770 141.0704580  58.9993050
 147.2006490 141.5018800  58.1489490 148.0036960 141.5302930  59.4319870
 148.3130020 147.9246840  61.7275180 147.6706180 147.2702460  62.0018900
 147.9260680 148.3301930  60.9515850 143.8916500 145.2532270  65.5746870
 144.2440320 144.6560400  64.9148240 143.0078830 144.9276500  65.7455120
 139.9779780 146.0129960  62.9817280 140.6650910 146.5599170  63.3624870
 139.1912200 146.5570690  63.0166890 132.1172180 141.6302780  58.4734360
 132.9867030 141.9127580  58.7570280 131.6262500 142.4438650  58.3583170
 139.2806990 143.0175990  62.5942640 139.7369770 143.8281240  62.8202830
 138.9295200 142.6999130  63.4261130 141.5839600 148.5282330  69.8234940
 142.2281820 148.7341710  70.5008360 141.9469040 147.7670730  69.3705790
 135.1818770 133.3613640  63.0665160 135.0533400 133.3531540  64.0150080
 134.3580790 133.6996730  62.7156170 142.8571680 146.5314680  68.5412390
 143.4993910 145.8307840  68.6544560 143.3821030 147.3113120  68.3609280
 146.7027400 146.8163300  58.2651530 146.4764980 146.0993740  58.8576170
 146.3123600 146.5675740  57.4273280 144.6309300 147.3309580  71.7448450
 144.9665540 147.9176270  72.4226370 143.7109640 147.2002290  71.9746240
 132.4843430 150.8430160  59.0395990 132.8441070 151.4419500  58.3853260
 132.3435770 151.3890050  59.8131020 132.1812700 135.1204760  72.5271860
 131.4671220 135.3201680  73.1324470 132.6007740 134.3444330  72.8986660
 146.2843650 144.7335240  59.9265690 145.9965350 145.1947930  60.7143570
 147.0795820 144.2733010  60.1949910 132.4685290 149.1085020  73.5138390
 132.5776410 148.1679760  73.3733780 131.8165850 149.3739770  72.8652120
 140.4597880 147.3800910  74.9136510 140.1394750 146.6610150  75.4582200
 139.7856240 148.0555980  74.9872570 138.5012050 148.2261360  59.8569660
 138.4922150 148.9591050  59.2414170 137.5810410 147.9792940  59.9496620
 134.1018690 143.4476250  60.6016420 133.4946640 144.1875150  60.6111720
 134.5768040 143.5375610  59.7754620 143.6751480 137.6127070  70.2773310
 144.0432300 136.7922280  70.6052880 142.8149680 137.6728960  70.6928960
 147.0413510 136.5684010  61.0860870 146.4126670 136.6729680  60.3719100
 146.5465430 136.7880790  61.8754750 141.4871650 148.2889600  58.5194850
 141.5883630 148.0853590  57.5896830 140.5873390 148.0347880  58.7242630
 139.0097540 138.8469960  62.5018750 138.3013690 139.3156300  62.9432360
 139.2942020 138.1891970  63.1363940 140.6353470 140.2666660  70.5011280
 141.1338720 140.7412480  71.1663130 140.7776420 139.3430180  70.7081310
 143.0412970 135.5720620  63.9414540 142.9180750 135.5906750  62.9924050
 143.9897530 135.6199560  64.0612940 140.1289760 150.8075920  63.2142520
 140.3831260 150.7697310  62.2921890 139.1802240 150.6809250  63.2070770
 137.2132560 137.1555040  59.8769460 138.0623090 137.5925190  59.8109650
 136.8463830 137.4675300  60.7041520 147.8420330 136.4834620  71.3439670
 147.3393930 137.2240020  71.6833480 148.6576990 136.8718620  71.0276460
 146.1342340 141.7267800  64.7901030 145.1932480 141.7418030  64.9648720
 146.4486410 140.9403760  65.2361330 136.1123980 143.4087400  58.3504990
 136.8787250 143.2968760  58.9130420 136.1898670 142.7125370  57.6981760
 134.8070740 140.8412470  59.0337880 134.8874330 139.8939980  59.1455280
 135.6990490 141.1719350  59.1398540 132.4930930 147.0581430  62.0113930
 131.5670710 147.3002570  62.0019340 132.9587360 147.8855690  61.8898680
 134.6143730 150.1753930  75.3258000 135.4156460 150.4965980  75.7393400
 134.0995550 149.8149510  76.0477910 138.7187760 150.1638170  57.9597990
 139.5116370 150.4527000  57.5079780 138.1992110 149.7330340  57.2810470
 143.4508360 146.2833800  75.2733410 142.8446520 146.3065400  74.5329160
 143.1462470 145.5516840  75.8100660 144.8808730 150.0114090  73.8842820
 145.8330480 149.9272110  73.8343060 144.7336950 150.6755800  74.5576610
 147.7717930 149.3908300  59.3834730 147.4859440 148.9773440  58.5688910
 147.5737480 150.3196010  59.2635250 132.3341540 142.6627390  74.2694050
 132.8380560 142.0834670  74.8410280 131.5948960 142.9467620  74.8070420
 139.2365160 145.3841580  57.8240340 139.1315800 144.7693930  58.5501720
 139.0689380 144.8607470  57.0403350 139.3879480 144.0698380  73.8029570
 138.6225150 144.6383380  73.7184240 139.5695440 143.7774590  72.9097800
 142.4767890 144.4461610  58.4282330 141.9277990 144.8930910  59.0725070
 143.0987150 143.9410860  58.9520000 146.5302830 145.8003710  74.3604590
 147.2712300 146.1379470  73.8572050 145.7675510 145.9695770  73.8074360
 134.3664620 140.8056980  75.1644120 134.4069960 140.5070850  76.0729350
 135.2210120 141.2064590  75.0051640 138.1443010 143.4052530  60.3247630
 138.5659430 143.2392400  61.1679020 138.2693850 142.5952760  59.8302770
 136.3070430 139.3849080  73.1318610 135.7766890 138.8940030  72.5041950
 136.9758500 139.8133280  72.5976540 140.6570650 142.4290140  57.5724730
 141.1776310 141.7139160  57.2065880 141.3039050 143.0676010  57.8725240
 145.2048490 143.8518540  72.8959800 145.6189510 144.0063620  73.7450220
 144.2699490 143.9773760  73.0585580 145.6770660 141.1914700  74.8998950
 146.2591430 140.4367020  74.8119430 145.8532430 141.7222140  74.1230430
 136.7942730 136.3511450  73.2115900 136.6999600 135.7332200  72.4866770
 136.2140120 137.0777740  72.9845810 139.5604170 134.9084690  70.2443290
 139.1121470 134.9308950  69.3988840 138.9269370 134.5103710  70.8413590
 139.9663720 143.8039020  70.8655730 140.3851830 144.6471750  70.6931970
 139.0472350 143.9411060  70.6362510 142.3027620 141.5355200  72.2493570
 142.4223830 140.9396340  72.9888410 143.1621620 141.5724890  71.8294870
 144.6415520 142.0892390  70.8256080 144.1150740 142.6135010  70.2221220
 144.9846860 142.7219780  71.4565810 137.0401910 139.4785760  57.2705790
 136.8390970 138.6153120  57.6319130 136.8693960 139.3919120  56.3327390
 137.8171140 150.1092030  71.9813460 137.2792230 150.8338090  71.6622160
 138.0705100 149.6322370  71.1910800 139.0696390 138.0776550  73.5069390
 139.6596080 137.7692400  74.1947210 138.2516630 137.6056300  73.6629290
 143.8889820 137.6942360  73.7402410 143.2005340 137.0323900  73.6752400
 144.6095840 137.2480630  74.1850870 144.5190220 134.2893990  59.7992670
 144.7992510 133.4461890  60.1552090 143.7455950 134.5217100  60.3131420
 135.8384710 136.5786380  57.2583670 136.1410610 136.5853810  56.3502820
 136.5779300 136.2284240  57.7551330 139.0569640 135.5221000  58.2439870
 138.7091640 134.8444990  57.6642320 139.2582410 135.0610510  59.0583260
 141.2218680 150.5101750  59.8626470 142.1169470 150.8486720  59.8845230
 141.2536310 149.7881160  59.2350750 134.8614840 145.8828800  58.0913470
 135.2989710 146.4258470  58.7471050 135.3462570 145.0575750  58.1009810
 132.0760640 148.6717830  65.5433730 132.4063650 147.8038890  65.3112370
 132.5051640 148.8776350  66.3738690 136.6722560 147.0026840  63.2035700
 136.3718100 146.8791810  64.1039610 136.5660050 146.1435430  62.7951430
 132.5650850 149.5388420  68.2815360 132.1281840 149.7189220  69.1139510
 133.1328530 150.2963040  68.1397080 148.2013030 149.0405420  72.5692670
 147.6015020 149.0997980  71.8256590 148.3306930 148.1010400  72.6989520
 132.3975280 142.0508650  64.6404240 131.7424120 141.7820290  63.9963940
 133.2353230 141.9413130  64.1906220 146.8864670 145.7657400  70.6668830
 146.0724510 146.1954560  70.9294620 147.2938870 146.3775810  70.0537880
 145.3465720 136.8449940  58.8622730 145.7650600 136.6580920  58.0219390
 145.0401780 135.9928990  59.1725660 133.4351210 142.4361220  69.1807580
 133.8024250 142.3488620  70.0603600 132.8662030 141.6727770  69.0814440
 148.2355070 140.9045600  72.1938050 148.0041160 140.6758350  71.2936000
 148.4959620 141.8245150  72.1482940 132.9867210 139.3470310  73.0866000
 132.0923260 139.3137070  73.4259710 133.5264760 139.5457100  73.8517250
 146.6743140 136.1302030  74.9717750 147.5513320 136.1385430  75.3551750
 146.6863980 135.3932870  74.3610100 131.6113360 139.2607580  60.5829570
 130.7077440 139.5237780  60.4081230 132.0953980 139.5318750  59.8029530
 148.2996130 140.0671440  69.3825320 147.3498840 140.0334980  69.4970310
 148.4809140 140.9771550  69.1475090 134.1540570 138.3173120  58.4923950
 134.8632270 137.8956340  58.0071230 133.4380510 138.3848350  57.8607300
 133.8014730 134.3712450  57.5326600 134.5242860 134.9121390  57.8507820
 134.0739250 134.0975870  56.6568140 147.6106380 139.2404920  61.7998180
 148.1065500 139.0075790  62.5847060 147.4122450 138.4016760  61.3835820
 133.4906920 133.6218640  67.4349220 134.1383110 133.0716020  66.9944380
 133.9108760 133.8761790  68.2565030 147.3859260 133.8160000  70.7918860
 148.0231480 134.4294140  71.1578050 147.5334150 133.8520660  69.8468090
 146.9440720 150.5176000  64.1937100 147.5399790 150.1960570  63.5171520
 147.2018870 150.0447820  64.9850370 133.2438920 133.7774310  70.1774540
 132.8953740 134.2338130  70.9432720 132.9126620 132.8831440  70.2596970
 134.8503290 146.9493910  74.3427730 134.8072920 146.5786820  75.2242190
 134.9814300 147.8871480  74.4829550 138.5509320 148.5053500  69.9437450
 138.3100680 148.7728060  69.0567970 139.4911960 148.6759230  69.9988310
 140.7563740 134.9686190  73.6993960 140.6952630 135.5608020  74.4489370
 141.6964120 134.8612150  73.5544220 143.3938300 134.6256250  73.3386250
 144.0078710 134.9435540  72.6767330 143.9387860 134.1404840  73.9582110
 133.9159560 133.3050510  73.4525310 134.4642550 133.1238560  72.6891420
 133.9814870 132.5144620  73.9881620 134.6891320 149.8956160  71.4625510
 134.0951640 149.7640860  72.2015550 134.6815160 149.0594300  70.9967610
 144.1346340 133.1888390  69.6655540 143.2606180 133.5223500  69.4628470
 144.0257090 132.7161570  70.4907410 145.0418320 135.3959260  71.0497260
 144.7131680 134.5811020  70.6698990 145.9900620 135.3529070  70.9262950
 134.3203550 147.2614540  70.4133550 133.5937610 146.6419830  70.3459500
 134.3812700 147.6555150  69.5431630 137.9248650 149.4759540  67.1982960
 138.4413670 148.8646900  66.6731220 138.5746030 149.9788320  67.6893970
 140.6644150 150.3668030  68.0251940 140.9521960 150.1122330  67.1484950
 141.1767370 149.8145390  68.6157510 141.8821160 134.1058230  68.6048450
 141.0992950 134.5803730  68.8845210 141.5884090 133.2013060  68.4961630
 146.4342230 134.8081330  66.6497540 146.8750320 134.7526430  65.8019140
 146.1649820 135.7239340  66.7207720 132.6033550 150.5788930  63.6230310
 132.4355590 149.9459610  64.3212200 131.7368060 150.7848330  63.2724500
 133.2261570 134.4105710  61.1262170 133.9840930 134.5234590  60.5526200
 132.7638740 135.2474910  61.0805600 139.7675380 136.5244980  64.1164480
 138.9549890 136.1501870  63.7760360 140.2717020 135.7690060  64.4185670
 144.2700360 133.1887430  65.3547550 144.8729730 133.7607640  65.8296070
 143.5293350 133.7526870  65.1321450 147.4134960 133.5908990  60.6287830
 147.6085590 134.4892440  60.8955260 146.6264830 133.3596070  61.1220780
 134.2096250 149.2722160  61.0680450 133.6843870 149.6530190  60.3642410
 134.1340830 149.8972930  61.7890160 135.5986720 134.9369760  59.6664140
 136.1279480 134.1499560  59.5372090 136.2315040 135.6160950  59.8999670
 137.7924560 134.6744900  62.7209530 137.1627300 133.9732210  62.8879660
 137.2529700 135.4349030  62.5042690 137.9180120 133.9528880  75.1562020
 137.6364390 134.4562480  74.3922840 138.2999820 133.1550630  74.7904150
 136.8089220 151.2204540  59.9429700 137.5408040 150.9363820  59.3953590
 137.0682890 150.9817820  60.8329080 135.9704010 147.3369270  59.9476030
 135.3412890 147.8054370  60.4961860 136.0851840 146.4918490  60.3822220
 144.5195580 133.3682460  75.7342490 144.4061030 133.6877070  76.6294010
 145.3365320 133.7694970  75.4379770 147.2994070 150.5153990  75.2161180
 148.0919390 150.0203220  75.0087140 147.5927220 151.1944130  75.8236790
 143.4253730 141.3874930  46.0977230 143.3447780 140.4729540  45.8268940
 143.0118150 141.8842000  45.3916940 141.5571770 143.1653950  47.9786500
 140.7813870 142.6854390  48.2685070 142.2084700 142.4859600  47.8042660
 135.5737600 143.4773760  48.8562260 134.7422480 143.2222470  49.2558770
 136.1818580 143.5484530  49.5920180 145.5779200 147.5714140  46.7585630
 145.1160730 146.8001380  47.0872800 146.3904750 147.5980210  47.2638080
 135.5538860 147.5113850  49.0520280 135.8566900 146.6211590  48.8730500
 136.2982450 148.0684070  48.8242530 133.9829550 138.4375650  42.6404650
 133.0946250 138.7791620  42.5384530 134.2670740 138.2375970  41.7485480
 131.9462560 141.0381300  48.5244350 132.5178670 140.2703500  48.5247990
 131.9464100 141.3370060  47.6150960 141.8042510 149.8572150  46.3789620
 141.1853950 150.3129650  45.8084060 142.6594290 150.0123610  45.9779320
 140.9980760 145.8411140  47.9856660 140.9289040 144.9001080  47.8245790
 141.7600620 145.9312550  48.5579230 133.1887430 136.4465660  50.3113280
 133.0090270 135.5491410  50.5916040 132.7867510 136.9937530  50.9860230
 142.0285930 138.6481520  48.2125590 142.4050750 137.7753400  48.0999260
 141.9305440 138.9840220  47.3216030 136.1590940 137.0207150  43.6743030
 136.2657690 137.9210880  43.9811790 135.2483300 136.9725120  43.3837680
 145.8110050 136.1431960  45.1453930 146.6319670 135.6528530  45.1879410
 145.8444130 136.7329620  45.8985770 133.8074100 138.9426160  48.9195620
 134.4884210 139.2064530  49.5383020 133.4922150 138.1027030  49.2533630
 137.9998670 139.9893520  48.0068210 138.5076890 140.4874490  48.6473230
 138.5311910 139.2128720  47.8307570 136.2834770 134.6292080  52.2731630
 136.2853210 135.1464470  51.4677530 135.4539080 134.1522260  52.2501560
 142.6705860 144.7411390  43.7721530 142.0523130 145.2060840  43.2084250
 143.1829110 145.4338870  44.1891040 137.5337620 144.2687260  50.4505130
 137.2007000 144.8956180  51.0926200 137.7104300 144.7949140  49.6706800
 146.0471530 138.0832340  47.9181470 145.3427100 138.3717230  48.4984580
 146.4083690 138.8932450  47.5581030 135.9650100 136.3402040  50.2802080
 136.3066910 137.1844090  49.9855950 135.0265910 136.4885780  50.3967420
 136.7456720 146.2368060  52.2654310 137.3630720 146.9119140  51.9838760
 135.8849840 146.6456040  52.1741810 132.0389060 145.4267920  41.1461160
 131.6617040 145.9155020  40.4146060 132.2962130 146.0993200  41.7767690
 147.6634310 147.7007470  50.1808950 146.9797830 148.3706580  50.1725620
 148.2028600 147.8988120  49.4153810 139.6477990 133.8284310  46.6046670
 139.9552970 133.2731200  45.8882170 138.7178690 133.9628770  46.4219660
 145.1993050 149.5451600  48.8954130 145.2120210 149.1413890  48.0276390
 144.6468270 150.3198890  48.7915560 146.4938470 146.2667820  43.9844300
 146.3834800 145.3242150  44.1093720 146.4906720 146.6283460  44.8707060
 144.5978490 144.4481440  50.2236740 145.0147280 144.2341550  49.3890200
 145.3218310 144.7054230  50.7945360 142.0358750 141.8933140  43.3406790
 141.1088030 141.8270520  43.5695260 142.1883570 142.8313270  43.2262030
 142.0227830 138.1650140  40.3373950 141.0831500 138.3264100  40.4226410
 142.3411090 138.8835820  39.7909940 146.0656040 143.4553440  43.8442040
 145.4468460 143.1172990  43.1968340 146.0480490 142.8113200  44.5521230
 145.5082600 139.6337980  51.2607850 145.0953780 140.4591690  51.5147840
 144.7758550 139.0483020  51.0684210 137.6415390 142.4197880  46.1226520
 137.2372390 141.7075130  45.6272420 137.7278510 142.0751120  47.0114560
 138.1097090 146.1065440  48.2865730 137.8125380 145.5010910  47.6073510
 139.0596910 146.1442750  48.1755090 136.3544010 139.1941090  49.9025560
 136.9058600 139.3036430  49.1278810 136.8687520 139.5678690  50.6180790
 146.1982700 149.6797310  51.9488830 145.7213260 150.4869500  51.7561440
 145.5144490 149.0275640  52.1015040 137.2015520 145.8447130  54.9373530
 136.3044050 146.0687100  55.1846930 137.2268390 145.9682070  53.9884930
 144.2420740 142.6940250  40.8514790 144.6814020 141.8562680  40.7052610
 144.9549160 143.3269650  40.9378930 136.0286740 142.7160450  53.5130900
 135.8894510 143.5883250  53.8818300 135.1468100 142.3733260  53.3678840
 142.3516120 147.6336320  44.8196030 142.7912030 148.3760650  44.4051420
 142.2903010 147.8762890  45.7434990 137.8267090 148.6582150  55.7216050
 137.7982520 149.0625100  54.8544480 137.6632060 147.7292510  55.5587650
 147.8237880 133.9483060  39.1655830 147.5110540 134.0409890  40.0654900
 148.5850350 134.5264090  39.1153260 134.3420020 141.3142860  43.6233170
 134.2217620 142.0404950  43.0114440 134.0320910 140.5445770  43.1461080
 131.9805390 144.4858000  49.4301810 132.0585810 144.6206770  48.4857530
 132.5947070 143.7773890  49.6229930 133.2253020 146.1858190  45.8407990
 132.8181100 146.3272780  44.9861590 134.1166030 145.9018350  45.6379200
 143.0431900 150.3350100  52.7475040 143.5576570 150.2458110  53.5497470
 142.2000980 150.6809800  53.0402950 145.0186300 150.6205440  42.1759040
 144.8587440 150.3308380  43.0740870 144.8533010 149.8445570  41.6404270
 137.4974680 150.4003970  43.9530660 137.3217160 149.4839510  43.7398460
 136.6430420 150.7591260  44.1928460 144.7212430 148.1293000  40.7357040
 144.0277590 148.1270290  40.0759320 145.4635290 147.7052320  40.3051210
 144.2862360 149.7555710  44.8105530 144.7419310 148.9745090  45.1244150
 144.6254880 150.4662530  45.3546710 132.0364910 145.5272170  51.9696270
 132.1995950 145.0577530  51.1515640 132.5017360 145.0195730  52.6345110
 136.8083680 134.6577930  47.0056840 136.3651830 135.4387470  46.6741360
 137.3668670 134.9807820  47.7127780 141.0953490 137.5246450  52.6092160
 140.6332860 137.7329470  53.4212100 140.6931600 136.7105800  52.3062830
 146.0958000 138.7455400  53.7388820 145.2451590 138.4461150  54.0597890
 145.9359790 138.9897410  52.8272640 143.1907710 140.2457150  55.8387610
 143.5161120 139.4120900  55.4989840 143.9788040 140.7685670  55.9865940
 139.9242500 134.2788630  41.8862670 139.2996680 134.2748500  42.6115980
 139.8372620 133.4119590  41.4898640 138.8459580 135.2025260  48.8646440
 139.1431910 136.1088090  48.7838460 139.3945140 134.7144040  48.2506010
 136.5997900 139.7811500  44.7338090 136.3738820 139.5648670  45.6384710
 135.8190430 140.2139960  44.3884060 143.8295660 139.7874870  43.3328740
 143.2304550 140.5110670  43.1492360 144.3775270 139.7251650  42.5505190
 139.0397110 140.6797080  55.3998360 138.9440710 139.7391810  55.2498760
 139.8829090 140.9012150  55.0046430 142.4360530 138.4238410  45.3632020
 142.8290100 138.7410610  44.5500710 142.7977380 137.5450290  45.4776540
 134.1707650 137.0910750  53.5532140 133.7771040 137.9385960  53.7604920
 133.4826050 136.4537120  53.7440780 140.7452700 137.1745720  56.6228880
 140.0551020 136.9817920  57.2574970 141.4885000 137.4580360  57.1553180
 131.4724700 135.0139210  47.5862220 131.1837750 135.5842070  48.2987200
 132.2170460 134.5343660  47.9493450 131.6594930 138.9559330  38.7964940
 131.5769600 139.8990090  38.9379930 131.3077990 138.8134240  37.9177290
 143.0215670 141.0144160  49.4582800 142.2896790 141.5230970  49.8072900
 142.6240010 140.1974140  49.1571580 139.4593060 137.6898360  47.8635290
 139.4629120 137.2488310  47.0139830 140.3544180 138.0115690  47.9707110
 135.3095440 137.5724850  46.8229500 134.9695490 138.0500080  47.5796550
 134.5472760 137.1189970  46.4630600 139.5213210 138.6910440  40.8542050
 139.6426030 138.6496920  41.8027870 139.1361720 139.5534590  40.6988780
 143.4841580 136.4677840  48.8705740 143.5014320 136.9186490  49.7147590
 143.2357160 135.5683480  49.0839180 138.5334710 141.0011580  40.2525350
 137.9651610 140.5529830  39.6261260 139.2423710 141.3604360  39.7190500
 146.9112330 133.8810020  54.7092120 147.2358100 133.1499680  55.2350100
 146.9468840 133.5623660  53.8073110 133.6103890 144.9023600  54.1292080
 133.2258680 144.2617270  54.7275040 133.9216080 145.6059720  54.6986810
 139.7601030 141.7500140  49.6100700 140.1271160 141.2758710  50.3562040
 139.5706090 142.6241710  49.9509040 132.6241520 136.4943830  45.7394170
 132.3388440 136.1299500  46.5772790 132.5620380 135.7624290  45.1257310
 137.5500400 140.7908780  51.9284910 137.2457470 141.6700760  52.1535270
 138.5046860 140.8508570  51.9642350 136.0782190 144.9969770  42.5251760
 135.3044450 144.4567390  42.3650480 136.8076820 144.4776380  42.1869520
 146.8370170 143.9935130  48.3178150 147.5569290 144.4890420  47.9274260
 146.6351990 143.3153020  47.6732020 142.2980110 135.3873090  42.4607540
 141.4844720 134.8886260  42.3852850 142.1042060 136.2271340  42.0443890
 142.2188970 144.0644190  54.2047150 142.1526280 143.1439860  53.9504740
 141.5894110 144.1619630  54.9191790 145.0128500 139.7592740  40.7569700
 145.9008120 140.0709970  40.5821040 144.9833590 138.8864990  40.3650280
 136.1219590 144.6650150  46.1630570 136.6398260 143.8618410  46.1087460
 135.6703610 144.6029290  47.0047400 141.0089090 145.9316430  41.4357870
 141.3504790 146.6758660  40.9401190 140.1801800 146.2447550  41.7982700
 133.6064130 141.6311520  53.0756270 133.2479070 142.2965370  53.6629610
 133.3118690 140.7995070  53.4468890 136.8077250 142.0895760  55.9595820
 136.5077390 142.2352940  55.0623640 137.5788490 141.5301050  55.8669210
 142.1505700 146.8864760  53.9550950 142.1650240 145.9545720  53.7369860
 141.4430800 146.9724520  54.5940720 147.2842770 141.0704580  40.2249560
 147.2006490 141.5018800  39.3746000 148.0036960 141.5302930  40.6576380
 148.3130020 147.9246840  42.9531690 147.6706180 147.2702460  43.2275410
 147.9260680 148.3301930  42.1772360 143.8916500 145.2532270  46.8003380
 144.2440320 144.6560400  46.1404750 143.0078830 144.9276500  46.9711630
 139.9779780 146.0129960  44.2073790 140.6650910 146.5599170  44.5881380
 139.1912200 146.5570690  44.2423400 132.1172180 141.6302780  39.6990870
 132.9867030 141.9127580  39.9826790 131.6262500 142.4438650  39.5839680
 139.2806990 143.0175990  43.8199150 139.7369770 143.8281240  44.0459340
 138.9295200 142.6999130  44.6517640 141.5839600 148.5282330  51.0491450
 142.2281820 148.7341710  51.7264870 141.9469040 147.7670730  50.5962300
 135.1818770 133.3613640  44.2921670 135.0533400 133.3531540  45.2406590
 134.3580790 133.6996730  43.9412680 142.8571680 146.5314680  49.7668900
 143.4993910 145.8307840  49.8801070 143.3821030 147.3113120  49.5865790
 146.7027400 146.8163300  39.4908040 146.4764980 146.0993740  40.0832680
 146.3123600 146.5675740  38.6529790 144.6309300 147.3309580  52.9704960
 144.9665540 147.9176270  53.6482880 143.7109640 147.2002290  53.2002750
 132.4843430 150.8430160  40.2652500 132.8441070 151.4419500  39.6109770
 132.3435770 151.3890050  41.0387530 132.1812700 135.1204760  53.7528370
 131.4671220 135.3201680  54.3580980 132.6007740 134.3444330  54.1243170
 146.2843650 144.7335240  41.1522200 145.9965350 145.1947930  41.9400080
 147.0795820 144.2733010  41.4206420 132.4685290 149.1085020  54.7394900
 132.5776410 148.1679760  54.5990290 131.8165850 149.3739770  54.0908630
 140.4597880 147.3800910  56.1393020 140.1394750 146.6610150  56.6838710
 139.7856240 148.0555980  56.2129080 138.5012050 148.2261360  41.0826170
 138.4922150 148.9591050  40.4670680 137.5810410 147.9792940  41.1753130
 134.1018690 143.4476250  41.8272930 133.4946640 144.1875150  41.8368230
 134.5768040 143.5375610  41.0011130 143.6751480 137.6127070  51.5029820
 144.0432300 136.7922280  51.8309390 142.8149680 137.6728960  51.9185470
 147.0413510 136.5684010  42.3117380 146.4126670 136.6729680  41.5975610
 146.5465430 136.7880790  43.1011260 141.4871650 148.2889600  39.7451360
 141.5883630 148.0853590  38.8153340 140.5873390 148.0347880  39.9499140
 139.0097540 138.8469960  43.7275260 138.3013690 139.3156300  44.1688870
 139.2942020 138.1891970  44.3620450 140.6353470 140.2666660  51.7267790
 141.1338720 140.7412480  52.3919640 140.7776420 139.3430180  51.9337820
 143.0412970 135.5720620  45.1671050 142.9180750 135.5906750  44.2180560
 143.9897530 135.6199560  45.2869450 140.1289760 150.8075920  44.4399030
 140.3831260 150.7697310  43.5178400 139.1802240 150.6809250  44.4327280
 137.2132560 137.1555040  41.1025970 138.0623090 137.5925190  41.0366160
 136.8463830 137.4675300  41.9298030 147.8420330 136.4834620  52.5696180
 147.3393930 137.2240020  52.9089990 148.6576990 136.8718620  52.2532970
 146.1342340 141.7267800  46.0157540 145.1932480 141.7418030  46.1905230
 146.4486410 140.9403760  46.4617840 136.1123980 143.4087400  39.5761500
 136.8787250 143.2968760  40.1386930 136.1898670 142.7125370  38.9238270
 134.8070740 140.8412470  40.2594390 134.8874330 139.8939980  40.3711790
 135.6990490 141.1719350  40.3655050 132.4930930 147.0581430  43.2370440
 131.5670710 147.3002570  43.2275850 132.9587360 147.8855690  43.1155190
 134.6143730 150.1753930  56.5514510 135.4156460 150.4965980  56.9649910
 134.0995550 149.8149510  57.2734420 138.7187760 150.1638170  39.1854500
 139.5116370 150.4527000  38.7336290 138.1992110 149.7330340  38.5066980
 143.4508360 146.2833800  56.4989920 142.8446520 146.3065400  55.7585670
 143.1462470 145.5516840  57.0357170 144.8808730 150.0114090  55.1099330
 145.8330480 149.9272110  55.0599570 144.7336950 150.6755800  55.7833120
 147.7717930 149.3908300  40.6091240 147.4859440 148.9773440  39.7945420
 147.5737480 150.3196010  40.4891760 132.3341540 142.6627390  55.4950560
 132.8380560 142.0834670  56.0666790 131.5948960 142.9467620  56.0326930
 139.2365160 145.3841580  39.0496850 139.1315800 144.7693930  39.7758230
 139.0689380 144.8607470  38.2659860 139.3879480 144.0698380  55.0286080
 138.6225150 144.6383380  54.9440750 139.5695440 143.7774590  54.1354310
 142.4767890 144.4461610  39.6538840 141.9277990 144.8930910  40.2981580
 143.0987150 143.9410860  40.1776510 146.5302830 145.8003710  55.5861100
 147.2712300 146.1379470  55.0828560 145.7675510 145.9695770  55.0330870
 134.3664620 140.8056980  56.3900630 134.4069960 140.5070850  57.2985860
 135.2210120 141.2064590  56.2308150 138.1443010 143.4052530  41.5504140
 138.5659430 143.2392400  42.3935530 138.2693850 142.5952760  41.0559280
 136.3070430 139.3849080  54.3575120 135.7766890 138.8940030  53.7298460
 136.9758500 139.8133280  53.8233050 140.6570650 142.4290140  38.7981240
 141.1776310 141.7139160  38.4322390 141.3039050 143.0676010  39.0981750
 145.2048490 143.8518540  54.1216310 145.6189510 144.0063620  54.9706730
 144.2699490 143.9773760  54.2842090 145.6770660 141.1914700  56.1255460
 146.2591430 140.4367020  56.0375940 145.8532430 141.7222140  55.3486940
 136.7942730 136.3511450  54.4372410 136.6999600 135.7332200  53.7123280
 136.2140120 137.0777740  54.2102320 139.5604170 134.9084690  51.4699800
 139.1121470 134.9308950  50.6245350 138.9269370 134.5103710  52.0670100
 139.9663720 143.8039020  52.0912240 140.3851830 144.6471750  51.9188480
 139.0472350 143.9411060  51.8619020 142.3027620 141.5355200  53.4750080
 142.4223830 140.9396340  54.2144920 143.1621620 141.5724890  53.0551380
 144.6415520 142.0892390  52.0512590 144.1150740 142.6135010  51.4477730
 144.9846860 142.7219780  52.6822320 137.0401910 139.4785760  38.4962300
 136.8390970 138.6153120  38.8575640 136.8693960 139.3919120  37.5583900
 137.8171140 150.1092030  53.2069970 137.2792230 150.8338090  52.8878670
 138.0705100 149.6322370  52.4167310 139.0696390 138.0776550  54.7325900
 139.6596080 137.7692400  55.4203720 138.2516630 137.6056300  54.8885800
 143.8889820 137.6942360  54.9658920 143.2005340 137.0323900  54.9008910
 144.6095840 137.2480630  55.4107380 144.5190220 134.2893990  41.0249180
 144.7992510 133.4461890  41.3808600 143.7455950 134.5217100  41.5387930
 135.8384710 136.5786380  38.4840180 136.1410610 136.5853810  37.5759330
 136.5779300 136.2284240  38.9807840 139.0569640 135.5221000  39.4696380
 138.7091640 134.8444990  38.8898830 139.2582410 135.0610510  40.2839770
 141.2218680 150.5101750  41.0882980 142.1169470 150.8486720  41.1101740
 141.2536310 149.7881160  40.4607260 134.8614840 145.8828800  39.3169980
 135.2989710 146.4258470  39.9727560 135.3462570 145.0575750  39.3266320
 132.0760640 148.6717830  46.7690240 132.4063650 147.8038890  46.5368880
 132.5051640 148.8776350  47.5995200 136.6722560 147.0026840  44.4292210
 136.3718100 146.8791810  45.3296120 136.5660050 146.1435430  44.0207940
 132.5650850 149.5388420  49.5071870 132.1281840 149.7189220  50.3396020
 133.1328530 150.2963040  49.3653590 148.2013030 149.0405420  53.7949180
 147.6015020 149.0997980  53.0513100 148.3306930 148.1010400  53.9246030
 132.3975280 142.0508650  45.8660750 131.7424120 141.7820290  45.2220450
 133.2353230 141.9413130  45.4162730 146.8864670 145.7657400  51.8925340
 146.0724510 146.1954560  52.1551130 147.2938870 146.3775810  51.2794390
 145.3465720 136.8449940  40.0879240 145.7650600 136.6580920  39.2475900
 145.0401780 135.9928990  40.3982170 133.4351210 142.4361220  50.4064090
 133.8024250 142.3488620  51.2860110 132.8662030 141.6727770  50.3070950
 148.2355070 140.9045600  53.4194560 148.0041160 140.6758350  52.5192510
 148.4959620 141.8245150  53.3739450 132.9867210 139.3470310  54.3122510
 132.0923260 139.3137070  54.6516220 133.5264760 139.5457100  55.0773760
 146.6743140 136.1302030  56.1974260 147.5513320 136.1385430  56.5808260
 146.6863980 135.3932870  55.5866610 131.6113360 139.2607580  41.8086080
 130.7077440 139.5237780  41.6337740 132.0953980 139.5318750  41.0286040
 148.2996130 140.0671440  50.6081830 147.3498840 140.0334980  50.7226820
 148.4809140 140.9771550  50.3731600 134.1540570 138.3173120  39.7180460
 134.8632270 137.8956340  39.2327740 133.4380510 138.3848350  39.0863810
 133.8014730 134.3712450  38.7583110 134.5242860 134.9121390  39.0764330
 134.0739250 134.0975870  37.8824650 147.6106380 139.2404920  43.0254690
 148.1065500 139.0075790  43.8103570 147.4122450 138.4016760  42.6092330
 133.4906920 133.6218640  48.6605730 134.1383110 133.0716020  48.2200890
 133.9108760 133.8761790  49.4821540 147.3859260 133.8160000  52.0175370
 148.0231480 134.4294140  52.3834560 147.5334150 133.8520660  51.0724600
 146.9440720 150.5176000  45.4193610 147.5399790 150.1960570  44.7428030
 147.2018870 150.0447820  46.2106880 133.2438920 133.7774310  51.4031050
 132.8953740 134.2338130  52.1689230 132.9126620 132.8831440  51.4853480
 134.8503290 146.9493910  55.5684240 134.8072920 146.5786820  56.4498700
 134.9814300 147.8871480  55.7086060 138.5509320 148.5053500  51.1693960
 138.3100680 148.7728060  50.2824480 139.4911960 148.6759230  51.2244820
 140.7563740 134.9686190  54.9250470 140.6952630 135.5608020  55.6745880
 141.6964120 134.8612150  54.7800730 143.3938300 134.6256250  54.5642760
 144.0078710 134.9435540  53.9023840 143.9387860 134.1404840  55.1838620
 133.9159560 133.3050510  54.6781820 134.4642550 133.1238560  53.9147930
 133.9814870 132.5144620  55.2138130 134.6891320 149.8956160  52.6882020
 134.0951640 149.7640860  53.4272060 134.6815160 149.0594300  52.2224120
 144.1346340 133.1888390  50.8912050 143.2606180 133.5223500  50.6884980
 144.0257090 132.7161570  51.7163920 145.0418320 135.3959260  52.2753770
 144.7131680 134.5811020  51.8955500 145.9900620 135.3529070  52.1519460
 134.3203550 147.2614540  51.6390060 133.5937610 146.6419830  51.5716010
 134.3812700 147.6555150  50.7688140 137.9248650 149.4759540  48.4239470
 138.4413670 148.8646900  47.8987730 138.5746030 149.9788320  48.9150480
 140.6644150 150.3668030  49.2508450 140.9521960 150.1122330  48.3741460
 141.1767370 149.8145390  49.8414020 141.8821160 134.1058230  49.8304960
 141.0992950 134.5803730  50.1101720 141.5884090 133.2013060  49.7218140
 146.4342230 134.8081330  47.8754050 146.8750320 134.7526430  47.0275650
 146.1649820 135.7239340  47.9464230 132.6033550 150.5788930  44.8486820
 132.4355590 149.9459610  45.5468710 131.7368060 150.7848330  44.4981010
 133.2261570 134.4105710  42.3518680 133.9840930 134.5234590  41.7782710
 132.7638740 135.2474910  42.3062110 139.7675380 136.5244980  45.3420990
 138.9549890 136.1501870  45.0016870 140.2717020 135.7690060  45.6442180
 144.2700360 133.1887430  46.5804060 144.8729730 133.7607640  47.0552580
 143.5293350 133.7526870  46.3577960 147.4134960 133.5908990  41.8544340
 147.6085590 134.4892440  42.1211770 146.6264830 133.3596070  42.3477290
 134.2096250 149.2722160  42.2936960 133.6843870 149.6530190  41.5898920
 134.1340830 149.8972930  43.0146670 135.5986720 134.9369760  40.8920650
 136.1279480 134.1499560  40.7628600 136.2315040 135.6160950  41.1256180
 137.7924560 134.6744900  43.9466040 137.1627300 133.9732210  44.1136170
 137.2529700 135.4349030  43.7299200 137.9180120 133.9528880  56.3818530
 137.6364390 134.4562480  55.6179350 138.2999820 133.1550630  56.0160660
 136.8089220 151.2204540  41.1686210 137.5408040 150.9363820  40.6210100
 137.0682890 150.9817820  42.0585590 135.9704010 147.3369270  41.1732540
 135.3412890 147.8054370  41.7218370 136.0851840 146.4918490  41.6078730
 144.5195580 133.3682460  56.9599000 144.4061030 133.6877070  57.8550520
 145.3365320 133.7694970  56.6636280 147.2994070 150.5153990  56.4417690
 148.0919390 150.0203220  56.2343650 147.5927220 151.1944130  57.0493300
 143.4253730 141.3874930  27.3233740 143.3447780 140.4729540  27.0525450
 143.0118150 141.8842000  26.6173450 141.5571770 143.1653950  29.2043010
 140.7813870 142.6854390  29.4941580 142.2084700 142.4859600  29.0299170
 135.5737600 143.4773760  30.0818770 134.7422480 143.2222470  30.4815280
 136.1818580 143.5484530  30.8176690 145.5779200 147.5714140  27.9842140
 145.1160730 146.8001380  28.3129310 146.3904750 147.5980210  28.4894590
 135.5538860 147.5113850  30.2776790 135.8566900 146.6211590  30.0987010
 136.2982450 148.0684070  30.0499040 133.9829550 138.4375650  23.8661160
 133.0946250 138.7791620  23.7641040 134.2670740 138.2375970  22.9741990
 131.9462560 141.0381300  29.7500860 132.5178670 140.2703500  29.7504500
 131.9464100 141.3370060  28.8407470 141.8042510 149.8572150  27.6046130
 141.1853950 150.3129650  27.0340570 142.6594290 150.0123610  27.2035830
 140.9980760 145.8411140  29.2113170 140.9289040 144.9001080  29.0502300
 141.7600620 145.9312550  29.7835740 133.1887430 136.4465660  31.5369790
 133.0090270 135.5491410  31.8172550 132.7867510 136.9937530  32.2116740
 142.0285930 138.6481520  29.4382100 142.4050750 137.7753400  29.3255770
 141.9305440 138.9840220  28.5472540 136.1590940 137.0207150  24.8999540
 136.2657690 137.9210880  25.2068300 135.2483300 136.9725120  24.6094190
 145.8110050 136.1431960  26.3710440 146.6319670 135.6528530  26.4135920
 145.8444130 136.7329620  27.1242280 133.8074100 138.9426160  30.1452130
 134.4884210 139.2064530  30.7639530 133.4922150 138.1027030  30.4790140
 137.9998670 139.9893520  29.2324720 138.5076890 140.4874490  29.8729740
 138.5311910 139.2128720  29.0564080 136.2834770 134.6292080  33.4988140
 136.2853210 135.1464470  32.6934040 135.4539080 134.1522260  33.4758070
 142.6705860 144.7411390  24.9978040 142.0523130 145.2060840  24.4340760
 143.1829110 145.4338870  25.4147550 137.5337620 144.2687260  31.6761640
 137.2007000 144.8956180  32.3182710 137.7104300 144.7949140  30.8963310
 146.0471530 138.0832340  29.1437980 145.3427100 138.3717230  29.7241090
 146.4083690 138.8932450  28.7837540 135.9650100 136.3402040  31.5058590
 136.3066910 137.1844090  31.2112460 135.0265910 136.4885780  31.6223930
 136.7456720 146.2368060  33.4910820 137.3630720 146.9119140  33.2095270
 135.8849840 146.6456040  33.3998320 132.0389060 145.4267920  22.3717670
 131.6617040 145.9155020  21.6402570 132.2962130 146.0993200  23.0024200
 147.6634310 147.7007470  31.4065460 146.9797830 148.3706580  31.3982130
 148.2028600 147.8988120  30.6410320 139.6477990 133.8284310  27.8303180
 139.9552970 133.2731200  27.1138680 138.7178690 133.9628770  27.6476170
 145.1993050 149.5451600  30.1210640 145.2120210 149.1413890  29.2532900
 144.6468270 150.3198890  30.0172070 146.4938470 146.2667820  25.2100810
 146.3834800 145.3242150  25.3350230 146.4906720 146.6283460  26.0963570
 144.5978490 144.4481440  31.4493250 145.0147280 144.2341550  30.6146710
 145.3218310 144.7054230  32.0201870 142.0358750 141.8933140  24.5663300
 141.1088030 141.8270520  24.7951770 142.1883570 142.8313270  24.4518540
 142.0227830 138.1650140  21.5630460 141.0831500 138.3264100  21.6482920
 142.3411090 138.8835820  21.0166450 146.0656040 143.4553440  25.0698550
 145.4468460 143.1172990  24.4224850 146.0480490 142.8113200  25.7777740
 145.5082600 139.6337980  32.4864360 145.0953780 140.4591690  32.7404350
 144.7758550 139.0483020  32.2940720 137.6415390 142.4197880  27.3483030
 137.2372390 141.7075130  26.8528930 137.7278510 142.0751120  28.2371070
 138.1097090 146.1065440  29.5122240 137.8125380 145.5010910  28.8330020
 139.0596910 146.1442750  29.4011600 136.3544010 139.1941090  31.1282070
 136.9058600 139.3036430  30.3535320 136.8687520 139.5678690  31.8437300
 146.1982700 149.6797310  33.1745340 145.7213260 150.4869500  32.9817950
 145.5144490 149.0275640  33.3271550 137.2015520 145.8447130  36.1630040
 136.3044050 146.0687100  36.4103440 137.2268390 145.9682070  35.2141440
 144.2420740 142.6940250  22.0771300 144.6814020 141.8562680  21.9309120
 144.9549160 143.3269650  22.1635440 136.0286740 142.7160450  34.7387410
 135.8894510 143.5883250  35.1074810 135.1468100 142.3733260  34.5935350
 142.3516120 147.6336320  26.0452540 142.7912030 148.3760650  25.6307930
 142.2903010 147.8762890  26.9691500 137.8267090 148.6582150  36.9472560
 137.7982520 149.0625100  36.0800990 137.6632060 147.7292510  36.7844160
 147.8237880 133.9483060  20.3912340 147.5110540 134.0409890  21.2911410
 148.5850350 134.5264090  20.3409770 134.3420020 141.3142860  24.8489680
 134.2217620 142.0404950  24.2370950 134.0320910 140.5445770  24.3717590
 131.9805390 144.4858000  30.6558320 132.0585810 144.6206770  29.7114040
 132.5947070 143.7773890  30.8486440 133.2253020 146.1858190  27.0664500
 132.8181100 146.3272780  26.2118100 134.1166030 145.9018350  26.8635710
 143.0431900 150.3350100  33.9731550 143.5576570 150.2458110  34.7753980
 142.2000980 150.6809800  34.2659460 145.0186300 150.6205440  23.4015550
 144.8587440 150.3308380  24.2997380 144.8533010 149.8445570  22.8660780
 137.4974680 150.4003970  25.1787170 137.3217160 149.4839510  24.9654970
 136.6430420 150.7591260  25.4184970 144.7212430 148.1293000  21.9613550
 144.0277590 148.1270290  21.3015830 145.4635290 147.7052320  21.5307720
 144.2862360 149.7555710  26.0362040 144.7419310 148.9745090  26.3500660
 144.6254880 150.4662530  26.5803220 132.0364910 145.5272170  33.1952780
 132.1995950 145.0577530  32.3772150 132.5017360 145.0195730  33.8601620
 136.8083680 134.6577930  28.2313350 136.3651830 135.4387470  27.8997870
 137.3668670 134.9807820  28.9384290 141.0953490 137.5246450  33.8348670
 140.6332860 137.7329470  34.6468610 140.6931600 136.7105800  33.5319340
 146.0958000 138.7455400  34.9645330 145.2451590 138.4461150  35.2854400
 145.9359790 138.9897410  34.0529150 143.1907710 140.2457150  37.0644120
 143.5161120 139.4120900  36.7246350 143.9788040 140.7685670  37.2122450
 139.9242500 134.2788630  23.1119180 139.2996680 134.2748500  23.8372490
 139.8372620 133.4119590  22.7155150 138.8459580 135.2025260  30.0902950
 139.1431910 136.1088090  30.0094970 139.3945140 134.7144040  29.4762520
 136.5997900 139.7811500  25.9594600 136.3738820 139.5648670  26.8641220
 135.8190430 140.2139960  25.6140570 143.8295660 139.7874870  24.5585250
 143.2304550 140.5110670  24.3748870 144.3775270 139.7251650  23.7761700
 139.0397110 140.6797080  36.6254870 138.9440710 139.7391810  36.4755270
 139.8829090 140.9012150  36.2302940 142.4360530 138.4238410  26.5888530
 142.8290100 138.7410610  25.7757220 142.7977380 137.5450290  26.7033050
 134.1707650 137.0910750  34.7788650 133.7771040 137.9385960  34.9861430
 133.4826050 136.4537120  34.9697290 140.7452700 137.1745720  37.8485390
 140.0551020 136.9817920  38.4831480 141.4885000 137.4580360  38.3809690
 131.4724700 135.0139210  28.8118730 131.1837750 135.5842070  29.5243710
 132.2170460 134.5343660  29.1749960 131.6594930 138.9559330  20.0221450
 131.5769600 139.8990090  20.1636440 131.3077990 138.8134240  19.1433800
 143.0215670 141.0144160  30.6839310 142.2896790 141.5230970  31.0329410
 142.6240010 140.1974140  30.3828090 139.4593060 137.6898360  29.0891800
 139.4629120 137.2488310  28.2396340 140.3544180 138.0115690  29.1963620
 135.3095440 137.5724850  28.0486010 134.9695490 138.0500080  28.8053060
 134.5472760 137.1189970  27.6887110 139.5213210 138.6910440  22.0798560
 139.6426030 138.6496920  23.0284380 139.1361720 139.5534590  21.9245290
 143.4841580 136.4677840  30.0962250 143.5014320 136.9186490  30.9404100
 143.2357160 135.5683480  30.3095690 138.5334710 141.0011580  21.4781860
 137.9651610 140.5529830  20.8517770 139.2423710 141.3604360  20.9447010
 146.9112330 133.8810020  35.9348630 147.2358100 133.1499680  36.4606610
 146.9468840 133.5623660  35.0329620 133.6103890 144.9023600  35.3548590
 133.2258680 144.2617270  35.9531550 133.9216080 145.6059720  35.9243320
 139.7601030 141.7500140  30.8357210 140.1271160 141.2758710  31.5818550
 139.5706090 142.6241710  31.1765550 132.6241520 136.4943830  26.9650680
 132.3388440 136.1299500  27.8029300 132.5620380 135.7624290  26.3513820
 137.5500400 140.7908780  33.1541420 137.2457470 141.6700760  33.3791780
 138.5046860 140.8508570  33.1898860 136.0782190 144.9969770  23.7508270
 135.3044450 144.4567390  23.5906990 136.8076820 144.4776380  23.4126030
 146.8370170 143.9935130  29.5434660 147.5569290 144.4890420  29.1530770
 146.6351990 143.3153020  28.8988530 142.2980110 135.3873090  23.6864050
 141.4844720 134.8886260  23.6109360 142.1042060 136.2271340  23.2700400
 142.2188970 144.0644190  35.4303660 142.1526280 143.1439860  35.1761250
 141.5894110 144.1619630  36.1448300 145.0128500 139.7592740  21.9826210
 145.9008120 140.0709970  21.8077550 144.9833590 138.8864990  21.5906790
 136.1219590 144.6650150  27.3887080 136.6398260 143.8618410  27.3343970
 135.6703610 144.6029290  28.2303910 141.0089090 145.9316430  22.6614380
 141.3504790 146.6758660  22.1657700 140.1801800 146.2447550  23.0239210
 133.6064130 141.6311520  34.3012780 133.2479070 142.2965370  34.8886120
 133.3118690 140.7995070  34.6725400 136.8077250 142.0895760  37.1852330
 136.5077390 142.2352940  36.2880150 137.5788490 141.5301050  37.0925720
 142.1505700 146.8864760  35.1807460 142.1650240 145.9545720  34.9626370
 141.4430800 146.9724520  35.8197230 147.2842770 141.0704580  21.4506070
 147.2006490 141.5018800  20.6002510 148.0036960 141.5302930  21.8832890
 148.3130020 147.9246840  24.1788200 147.6706180 147.2702460  24.4531920
 147.9260680 148.3301930  23.4028870 143.8916500 145.2532270  28.0259890
 144.2440320 144.6560400  27.3661260 143.0078830 144.9276500  28.1968140
 139.9779780 146.0129960  25.4330300 140.6650910 146.5599170  25.8137890
 139.1912200 146.5570690  25.4679910 132.1172180 141.6302780  20.9247380
 132.9867030 141.9127580  21.2083300 131.6262500 142.4438650  20.8096190
 139.2806990 143.0175990  25.0455660 139.7369770 143.8281240  25.2715850
 138.9295200 142.6999130  25.8774150 141.5839600 148.5282330  32.2747960
 142.2281820 148.7341710  32.9521380 141.9469040 147.7670730  31.8218810
 135.1818770 133.3613640  25.5178180 135.0533400 133.3531540  26.4663100
 134.3580790 133.6996730  25.1669190 142.8571680 146.5314680  30.9925410
 143.4993910 145.8307840  31.1057580 143.3821030 147.3113120  30.8122300
 146.7027400 146.8163300  20.7164550 146.4764980 146.0993740  21.3089190
 146.3123600 146.5675740  19.8786300 144.6309300 147.3309580  34.1961470
 144.9665540 147.9176270  34.8739390 143.7109640 147.2002290  34.4259260
 132.4843430 150.8430160  21.4909010 132.8441070 151.4419500  20.8366280
 132.3435770 151.3890050  22.2644040 132.1812700 135.1204760  34.9784880
 131.4671220 135.3201680  35.5837490 132.6007740 134.3444330  35.3499680
 146.2843650 144.7335240  22.3778710 145.9965350 145.1947930  23.1656590
 147.0795820 144.2733010  22.6462930 132.4685290 149.1085020  35.9651410
 132.5776410 148.1679760  35.8246800 131.8165850 149.3739770  35.3165140
 140.4597880 147.3800910  37.3649530 140.1394750 146.6610150  37.9095220
 139.7856240 148.0555980  37.4385590 138.5012050 148.2261360  22.3082680
 138.4922150 148.9591050  21.6927190 137.5810410 147.9792940  22.4009640
 134.1018690 143.4476250  23.0529440 133.4946640 144.1875150  23.0624740
 134.5768040 143.5375610  22.2267640 143.6751480 137.6127070  32.7286330
 144.0432300 136.7922280  33.0565900 142.8149680 137.6728960  33.1441980
 147.0413510 136.5684010  23.5373890 146.4126670 136.6729680  22.8232120
 146.5465430 136.7880790  24.3267770 141.4871650 148.2889600  20.9707870
 141.5883630 148.0853590  20.0409850 140.5873390 148.0347880  21.1755650
 139.0097540 138.8469960  24.9531770 138.3013690 139.3156300  25.3945380
 139.2942020 138.1891970  25.5876960 140.6353470 140.2666660  32.9524300
 141.1338720 140.7412480  33.6176150 140.7776420 139.3430180  33.1594330
 143.0412970 135.5720620  26.3927560 142.9180750 135.5906750  25.4437070
 143.9897530 135.6199560  26.5125960 140.1289760 150.8075920  25.6655540
 140.3831260 150.7697310  24.7434910 139.1802240 150.6809250  25.6583790
 137.2132560 137.1555040  22.3282480 138.0623090 137.5925190  22.2622670
 136.8463830 137.4675300  23.1554540 147.8420330 136.4834620  33.7952690
 147.3393930 137.2240020  34.1346500 148.6576990 136.8718620  33.4789480
 146.1342340 141.7267800  27.2414050 145.1932480 141.7418030  27.4161740
 146.4486410 140.9403760  27.6874350 136.1123980 143.4087400  20.8018010
 136.8787250 143.2968760  21.3643440 136.1898670 142.7125370  20.1494780
 134.8070740 140.8412470  21.4850900 134.8874330 139.8939980  21.5968300
 135.6990490 141.1719350  21.5911560 132.4930930 147.0581430  24.4626950
 131.5670710 147.3002570  24.4532360 132.9587360 147.8855690  24.3411700
 134.6143730 150.1753930  37.7771020 135.4156460 150.4965980  38.1906420
 134.0995550 149.8149510  38.4990930 138.7187760 150.1638170  20.4111010
 139.5116370 150.4527000  19.9592800 138.1992110 149.7330340  19.7323490
 143.4508360 146.2833800  37.7246430 142.8446520 146.3065400  36.9842180
 143.1462470 145.5516840  38.2613680 144.8808730 150.0114090  36.3355840
 145.8330480 149.9272110  36.2856080 144.7336950 150.6755800  37.0089630
 147.7717930 149.3908300  21.8347750 147.4859440 148.9773440  21.0201930
 147.5737480 150.3196010  21.7148270 132.3341540 142.6627390  36.7207070
 132.8380560 142.0834670  37.2923300 131.5948960 142.9467620  37.2583440
 139.2365160 145.3841580  20.2753360 139.1315800 144.7693930  21.0014740
 139.0689380 144.8607470  19.4916370 139.3879480 144.0698380  36.2542590
 138.6225150 144.6383380  36.1697260 139.5695440 143.7774590  35.3610820
 142.4767890 144.4461610  20.8795350 141.9277990 144.8930910  21.5238090
 143.0987150 143.9410860  21.4033020 146.5302830 145.8003710  36.8117610
 147.2712300 146.1379470  36.3085070 145.7675510 145.9695770  36.2587380
 134.3664620 140.8056980  37.6157140 134.4069960 140.5070850  38.5242370
 135.2210120 141.2064590  37.4564660 138.1443010 143.4052530  22.7760650
 138.5659430 143.2392400  23.6192040 138.2693850 142.5952760  22.2815790
 136.3070430 139.3849080  35.5831630 135.7766890 138.8940030  34.9554970
 136.9758500 139.8133280  35.0489560 140.6570650 142.4290140  20.0237750
 141.1776310 141.7139160  19.6578900 141.3039050 143.0676010  20.3238260
 145.2048490 143.8518540  35.3472820 145.6189510 144.0063620  36.1963240
 144.2699490 143.9773760  35.5098600 145.6770660 141.1914700  37.3511970
 146.2591430 140.4367020  37.2632450 145.8532430 141.7222140  36.5743450
 136.7942730 136.3511450  35.6628920 136.6999600 135.7332200  34.9379790
 136.2140120 137.0777740  35.4358830 139.5604170 134.9084690  32.6956310
 139.1121470 134.9308950  31.8501860 138.9269370 134.5103710  33.2926610
 139.9663720 143.8039020  33.3168750 140.3851830 144.6471750  33.1444990
 139.0472350 143.9411060  33.0875530 142.3027620 141.5355200  34.7006590
 142.4223830 140.9396340  35.4401430 143.1621620 141.5724890  34.2807890
 144.6415520 142.0892390  33.2769100 144.1150740 142.6135010  32.6734240
 144.9846860 142.7219780  33.9078830 137.0401910 139.4785760  19.7218810
 136.8390970 138.6153120  20.0832150 136.8693960 139.3919120  18.7840410
 137.8171140 150.1092030  34.4326480 137.2792230 150.8338090  34.1135180
 138.0705100 149.6322370  33.6423820 139.0696390 138.0776550  35.9582410
 139.6596080 137.7692400  36.6460230 138.2516630 137.6056300  36.1142310
 143.8889820 137.6942360  36.1915430 143.2005340 137.0323900  36.1265420
 144.6095840 137.2480630  36.6363890 144.5190220 134.2893990  22.2505690
 144.7992510 133.4461890  22.6065110 143.7455950 134.5217100  22.7644440
 135.8384710 136.5786380  19.7096690 136.1410610 136.5853810  18.8015840
 136.5779300 136.2284240  20.2064350 139.0569640 135.5221000  20.6952890
 138.7091640 134.8444990  20.1155340 139.2582410 135.0610510  21.5096280
 141.2218680 150.5101750  22.3139490 142.1169470 150.8486720  22.3358250
 141.2536310 149.7881160  21.6863770 134.8614840 145.8828800  20.5426490
 135.2989710 146.4258470  21.1984070 135.3462570 145.0575750  20.5522830
 132.0760640 148.6717830  27.9946750 132.4063650 147.8038890  27.7625390
 132.5051640 148.8776350  28.8251710 136.6722560 147.0026840  25.6548720
 136.3718100 146.8791810  26.5552630 136.5660050 146.1435430  25.2464450
 132.5650850 149.5388420  30.7328380 132.1281840 149.7189220  31.5652530
 133.1328530 150.2963040  30.5910100 148.2013030 149.0405420  35.0205690
 147.6015020 149.0997980  34.2769610 148.3306930 148.1010400  35.1502540
 132.3975280 142.0508650  27.0917260 131.7424120 141.7820290  26.4476960
 133.2353230 141.9413130  26.6419240 146.8864670 145.7657400  33.1181850
 146.0724510 146.1954560  33.3807640 147.2938870 146.3775810  32.5050900
 145.3465720 136.8449940  21.3135750 145.7650600 136.6580920  20.4732410
 145.0401780 135.9928990  21.6238680 133.4351210 142.4361220  31.6320600
 133.8024250 142.3488620  32.5116620 132.8662030 141.6727770  31.5327460
 148.2355070 140.9045600  34.6451070 148.0041160 140.6758350  33.7449020
 148.4959620 141.8245150  34.5995960 132.9867210 139.3470310  35.5379020
 132.0923260 139.3137070  35.8772730 133.5264760 139.5457100  36.3030270
 146.6743140 136.1302030  37.4230770 147.5513320 136.1385430  37.8064770
 146.6863980 135.3932870  36.8123120 131.6113360 139.2607580  23.0342590
 130.7077440 139.5237780  22.8594250 132.0953980 139.5318750  22.2542550
 148.2996130 140.0671440  31.8338340 147.3498840 140.0334980  31.9483330
 148.4809140 140.9771550  31.5988110 134.1540570 138.3173120  20.9436970
 134.8632270 137.8956340  20.4584250 133.4380510 138.3848350  20.3120320
 133.8014730 134.3712450  19.9839620 134.5242860 134.9121390  20.3020840
 134.0739250 134.0975870  19.1081160 147.6106380 139.2404920  24.2511200
 148.1065500 139.0075790  25.0360080 147.4122450 138.4016760  23.8348840
 133.4906920 133.6218640  29.8862240 134.1383110 133.0716020  29.4457400
 133.9108760 133.8761790  30.7078050 147.3859260 133.8160000  33.2431880
 148.0231480 134.4294140  33.6091070 147.5334150 133.8520660  32.2981110
 146.9440720 150.5176000  26.6450120 147.5399790 150.1960570  25.9684540
 147.2018870 150.0447820  27.4363390 133.2438920 133.7774310  32.6287560
 132.8953740 134.2338130  33.3945740 132.9126620 132.8831440  32.7109990
 134.8503290 146.9493910  36.7940750 134.8072920 146.5786820  37.6755210
 134.9814300 147.8871480  36.9342570 138.5509320 148.5053500  32.3950470
 138.3100680 148.7728060  31.5080990 139.4911960 148.6759230  32.4501330
 140.7563740 134.9686190  36.1506980 140.6952630 135.5608020  36.9002390
 141.6964120 134.8612150  36.0057240 143.3938300 134.6256250  35.7899270
 144.0078710 134.9435540  35.1280350 143.9387860 134.1404840  36.4095130
 133.9159560 133.3050510  35.9038330 134.4642550 133.1238560  35.1404440
 133.9814870 132.5144620  36.4394640 134.6891320 149.8956160  33.9138530
 134.0951640 149.7640860  34.6528570 134.6815160 149.0594300  33.4480630
 144.1346340 133.1888390  32.1168560 143.2606180 133.5223500  31.9141490
 144.0257090 132.7161570  32.9420430 145.0418320 135.3959260  33.5010280
 144.7131680 134.5811020  33.1212010 145.9900620 135.3529070  33.3775970
 134.3203550 147.2614540  32.8646570 133.5937610 146.6419830  32.7972520
 134.3812700 147.6555150  31.9944650 137.9248650 149.4759540  29.6495980
 138.4413670 148.8646900  29.1244240 138.5746030 149.9788320  30.1406990
 140.6644150 150.3668030  30.4764960 140.9521960 150.1122330  29.5997970
 141.1767370 149.8145390  31.0670530 141.8821160 134.1058230  31.0561470
 141.0992950 134.5803730  31.3358230 141.5884090 133.2013060  30.9474650
 146.4342230 134.8081330  29.1010560 146.8750320 134.7526430  28.2532160
 146.1649820 135.7239340  29.1720740 132.6033550 150.5788930  26.0743330
 132.4355590 149.9459610  26.7725220 131.7368060 150.7848330  25.7237520
 133.2261570 134.4105710  23.5775190 133.9840930 134.5234590  23.0039220
 132.7638740 135.2474910  23.5318620 139.7675380 136.5244980  26.5677500
 138.9549890 136.1501870  26.2273380 140.2717020 135.7690060  26.8698690
 144.2700360 133.1887430  27.8060570 144.8729730 133.7607640  28.2809090
 143.5293350 133.7526870  27.5834470 147.4134960 133.5908990  23.0800850
 147.6085590 134.4892440  23.3468280 146.6264830 133.3596070  23.5733800
 134.2096250 149.2722160  23.5193470 133.6843870 149.6530190  22.8155430
 134.1340830 149.8972930  24.2403180 135.5986720 134.9369760  22.1177160
 136.1279480 134.1499560  21.9885110 136.2315040 135.6160950  22.3512690
 137.7924560 134.6744900  25.1722550 137.1627300 133.9732210  25.3392680
 137.2529700 135.4349030  24.9555710 137.9180120 133.9528880  37.6075040
 137.6364390 134.4562480  36.8435860 138.2999820 133.1550630  37.2417170
 136.8089220 151.2204540  22.3942720 137.5408040 150.9363820  21.8466610
 137.0682890 150.9817820  23.2842100 135.9704010 147.3369270  22.3989050
 135.3412890 147.8054370  22.9474880 136.0851840 146.4918490  22.8335240
 144.5195580 133.3682460  38.1855510 144.4061030 133.6877070  39.0807030
 145.3365320 133.7694970  37.8892790 147.2994070 150.5153990  37.6674200
 148.0919390 150.0203220  37.4600160 147.5927220 151.1944130  38.2749810
 143.4253730 141.3874930   8.5490250 143.3447780 140.4729540   8.2781960
 143.0118150 141.8842000   7.8429960 141.5571770 143.1653950  10.4299520
 140.7813870 142.6854390  10.7198090 142.2084700 142.4859600  10.2555680
 135.5737600 143.4773760  11.3075280 134.7422480 143.2222470  11.7071790
 136.1818580 143.5484530  12.0433200 145.5779200 147.5714140   9.2098650
 145.1160730 146.8001380   9.5385820 146.3904750 147.5980210   9.7151100
 135.5538860 147.5113850  11.5033300 135.8566900 146.6211590  11.3243520
 136.2982450 148.0684070  11.2755550 133.9829550 138.4375650   5.0917670
 133.0946250 138.7791620   4.9897550 134.2670740 138.2375970   4.1998500
 131.9462560 141.0381300  10.9757370 132.5178670 140.2703500  10.9761010
 131.9464100 141.3370060  10.0663980 141.8042510 149.8572150   8.8302640
 141.1853950 150.3129650   8.2597080 142.6594290 150.0123610   8.4292340
 140.9980760 145.8411140  10.4369680 140.9289040 144.9001080  10.2758810
 141.7600620 145.9312550  11.0092250 133.1887430 136.4465660  12.7626300
 133.0090270 135.5491410  13.0429060 132.7867510 136.9937530  13.4373250
 142.0285930 138.6481520  10.6638610 142.4050750 137.7753400  10.5512280
 141.9305440 138.9840220   9.7729050 136.1590940 137.0207150   6.1256050
 136.2657690 137.9210880   6.4324810 135.2483300 136.9725120   5.8350700
 145.8110050 136.1431960   7.5966950 146.6319670 135.6528530   7.6392430
 145.8444130 136.7329620   8.3498790 133.8074100 138.9426160  11.3708640
 134.4884210 139.2064530  11.9896040 133.4922150 138.1027030  11.7046650
 137.9998670 139.9893520  10.4581230 138.5076890 140.4874490  11.0986250
 138.5311910 139.2128720  10.2820590 136.2834770 134.6292080  14.7244650
 136.2853210 135.1464470  13.9190550 135.4539080 134.1522260  14.7014580
 142.6705860 144.7411390   6.2234550 142.0523130 145.2060840   5.6597270
 143.1829110 145.4338870   6.6404060 137.5337620 144.2687260  12.9018150
 137.2007000 144.8956180  13.5439220 137.7104300 144.7949140  12.1219820
 146.0471530 138.0832340  10.3694490 145.3427100 138.3717230  10.9497600
 146.4083690 138.8932450  10.0094050 135.9650100 136.3402040  12.7315100
 136.3066910 137.1844090  12.4368970 135.0265910 136.4885780  12.8480440
 136.7456720 146.2368060  14.7167330 137.3630720 146.9119140  14.4351780
 135.8849840 146.6456040  14.6254830 132.0389060 145.4267920   3.5974180
 131.6617040 145.9155020   2.8659080 132.2962130 146.0993200   4.2280710
 147.6634310 147.7007470  12.6321970 146.9797830 148.3706580  12.6238640
 148.2028600 147.8988120  11.8666830 139.6477990 133.8284310   9.0559690
 139.9552970 133.2731200   8.3395190 138.7178690 133.9628770   8.8732680
 145.1993050 149.5451600  11.3467150 145.2120210 149.1413890  10.4789410
 144.6468270 150.3198890  11.2428580 146.4938470 146.2667820   6.4357320
 146.3834800 145.3242150   6.5606740 146.4906720 146.6283460   7.3220080
 144.5978490 144.4481440  12.6749760 145.0147280 144.2341550  11.8403220
 145.3218310 144.7054230  13.2458380 142.0358750 141.8933140   5.7919810
 141.1088030 141.8270520   6.0208280 142.1883570 142.8313270   5.6775050
 142.0227830 138.1650140   2.7886970 141.0831500 138.3264100   2.8739430
 142.3411090 138.8835820   2.2422960 146.0656040 143.4553440   6.2955060
 145.4468460 143.1172990   5.6481360 146.0480490 142.8113200   7.0034250
 145.5082600 139.6337980  13.7120870 145.0953780 140.4591690  13.9660860
 144.7758550 139.0483020  13.5197230 137.6415390 142.4197880   8.5739540
 137.2372390 141.7075130   8.0785440 137.7278510 142.0751120   9.4627580
 138.1097090 146.1065440  10.7378750 137.8125380 145.5010910  10.0586530
 139.0596910 146.1442750  10.6268110 136.3544010 139.1941090  12.3538580
 136.9058600 139.3036430  11.5791830 136.8687520 139.5678690  13.0693810
 146.1982700 149.6797310  14.4001850 145.7213260 150.4869500  14.2074460
 145.5144490 149.0275640  14.5528060 137.2015520 145.8447130  17.3886550
 136.3044050 146.0687100  17.6359950 137.2268390 145.9682070  16.4397950
 144.2420740 142.6940250   3.3027810 144.6814020 141.8562680   3.1565630
 144.9549160 143.3269650   3.3891950 136.0286740 142.7160450  15.9643920
 135.8894510 143.5883250  16.3331320 135.1468100 142.3733260  15.8191860
 142.3516120 147.6336320   7.2709050 142.7912030 148.3760650   6.8564440
 142.2903010 147.8762890   8.1948010 137.8267090 148.6582150  18.1729070
 137.7982520 149.0625100  17.3057500 137.6632060 147.7292510  18.0100670
 134.3420020 141.3142860   6.0746190 134.2217620 142.0404950   5.4627460
 134.0320910 140.5445770   5.5974100 131.9805390 144.4858000  11.8814830
 132.0585810 144.6206770  10.9370550 132.5947070 143.7773890  12.0742950
 133.2253020 146.1858190   8.2921010 132.8181100 146.3272780   7.4374610
 134.1166030 145.9018350   8.0892220 143.0431900 150.3350100  15.1988060
 143.5576570 150.2458110  16.0010490 142.2000980 150.6809800  15.4915970
 145.0186300 150.6205440   4.6272060 144.8587440 150.3308380   5.5253890
 144.8533010 149.8445570   4.0917290 137.4974680 150.4003970   6.4043680
 137.3217160 149.4839510   6.1911480 136.6430420 150.7591260   6.6441480
 144.7212430 148.1293000   3.1870060 144.0277590 148.1270290   2.5272340
 145.4635290 147.7052320   2.7564230 144.2862360 149.7555710   7.2618550
 144.7419310 148.9745090   7.5757170 144.6254880 150.4662530   7.8059730
 132.0364910 145.5272170  14.4209290 132.1995950 145.0577530  13.6028660
 132.5017360 145.0195730  15.0858130 136.8083680 134.6577930   9.4569860
 136.3651830 135.4387470   9.1254380 137.3668670 134.9807820  10.1640800
 141.0953490 137.5246450  15.0605180 140.6332860 137.7329470  15.8725120
 140.6931600 136.7105800  14.7575850 146.0958000 138.7455400  16.1901840
 145.2451590 138.4461150  16.5110910 145.9359790 138.9897410  15.2785660
 143.1907710 140.2457150  18.2900630 143.5161120 139.4120900  17.9502860
 143.9788040 140.7685670  18.4378960 139.9242500 134.2788630   4.3375690
 139.2996680 134.2748500   5.0629000 139.8372620 133.4119590   3.9411660
 138.8459580 135.2025260  11.3159460 139.1431910 136.1088090  11.2351480
 139.3945140 134.7144040  10.7019030 136.5997900 139.7811500   7.1851110
 136.3738820 139.5648670   8.0897730 135.8190430 140.2139960   6.8397080
 143.8295660 139.7874870   5.7841760 143.2304550 140.5110670   5.6005380
 144.3775270 139.7251650   5.0018210 139.0397110 140.6797080  17.8511380
 138.9440710 139.7391810  17.7011780 139.8829090 140.9012150  17.4559450
 142.4360530 138.4238410   7.8145040 142.8290100 138.7410610   7.0013730
 142.7977380 137.5450290   7.9289560 134.1707650 137.0910750  16.0045160
 133.7771040 137.9385960  16.2117940 133.4826050 136.4537120  16.1953800
 140.7452700 137.1745720  19.0741900 140.0551020 136.9817920  19.7087990
 141.4885000 137.4580360  19.6066200 131.4724700 135.0139210  10.0375240
 131.1837750 135.5842070  10.7500220 132.2170460 134.5343660  10.4006470
 143.0215670 141.0144160  11.9095820 142.2896790 141.5230970  12.2585920
 142.6240010 140.1974140  11.6084600 139.4593060 137.6898360  10.3148310
 139.4629120 137.2488310   9.4652850 140.3544180 138.0115690  10.4220130
 135.3095440 137.5724850   9.2742520 134.9695490 138.0500080  10.0309570
 134.5472760 137.1189970   8.9143620 139.5213210 138.6910440   3.3055070
 139.6426030 138.6496920   4.2540890 139.1361720 139.5534590   3.1501800
 143.4841580 136.4677840  11.3218760 143.5014320 136.9186490  12.1660610
 143.2357160 135.5683480  11.5352200 138.5334710 141.0011580   2.7038370
 137.9651610 140.5529830   2.0774280 139.2423710 141.3604360   2.1703520
 146.9112330 133.8810020  17.1605140 147.2358100 133.1499680  17.6863120
 146.9468840 133.5623660  16.2586130 133.6103890 144.9023600  16.5805100
 133.2258680 144.2617270  17.1788060 133.9216080 145.6059720  17.1499830
 139.7601030 141.7500140  12.0613720 140.1271160 141.2758710  12.8075060
 139.5706090 142.6241710  12.4022060 132.6241520 136.4943830   8.1907190
 132.3388440 136.1299500   9.0285810 132.5620380 135.7624290   7.5770330
 137.5500400 140.7908780  14.3797930 137.2457470 141.6700760  14.6048290
 138.5046860 140.8508570  14.4155370 136.0782190 144.9969770   4.9764780
 135.3044450 144.4567390   4.8163500 136.8076820 144.4776380   4.6382540
 146.8370170 143.9935130  10.7691170 147.5569290 144.4890420  10.3787280
 146.6351990 143.3153020  10.1245040 142.2980110 135.3873090   4.9120560
 141.4844720 134.8886260   4.8365870 142.1042060 136.2271340   4.4956910
 142.2188970 144.0644190  16.6560170 142.1526280 143.1439860  16.4017760
 141.5894110 144.1619630  17.3704810 145.0128500 139.7592740   3.2082720
 145.9008120 140.0709970   3.0334060 144.9833590 138.8864990   2.8163300
 136.1219590 144.6650150   8.6143590 136.6398260 143.8618410   8.5600480
 135.6703610 144.6029290   9.4560420 141.0089090 145.9316430   3.8870890
 141.3504790 146.6758660   3.3914210 140.1801800 146.2447550   4.2495720
 133.6064130 141.6311520  15.5269290 133.2479070 142.2965370  16.1142630
 133.3118690 140.7995070  15.8981910 136.8077250 142.0895760  18.4108840
 136.5077390 142.2352940  17.5136660 137.5788490 141.5301050  18.3182230
 142.1505700 146.8864760  16.4063970 142.1650240 145.9545720  16.1882880
 141.4430800 146.9724520  17.0453740 147.2842770 141.0704580   2.6762580
 147.2006490 141.5018800   1.8259020 148.0036960 141.5302930   3.1089400
 148.3130020 147.9246840   5.4044710 147.6706180 147.2702460   5.6788430
 147.9260680 148.3301930   4.6285380 143.8916500 145.2532270   9.2516400
 144.2440320 144.6560400   8.5917770 143.0078830 144.9276500   9.4224650
 139.9779780 146.0129960   6.6586810 140.6650910 146.5599170   7.0394400
 139.1912200 146.5570690   6.6936420 132.1172180 141.6302780   2.1503890
 132.9867030 141.9127580   2.4339810 131.6262500 142.4438650   2.0352700
 139.2806990 143.0175990   6.2712170 139.7369770 143.8281240   6.4972360
 138.9295200 142.6999130   7.1030660 141.5839600 148.5282330  13.5004470
 142.2281820 148.7341710  14.1777890 141.9469040 147.7670730  13.0475320
 135.1818770 133.3613640   6.7434690 135.0533400 133.3531540   7.6919610
 134.3580790 133.6996730   6.3925700 142.8571680 146.5314680  12.2181920
 143.4993910 145.8307840  12.3314090 143.3821030 147.3113120  12.0378810
 144.6309300 147.3309580  15.4217980 144.9665540 147.9176270  16.0995900
 143.7109640 147.2002290  15.6515770 132.4843430 150.8430160   2.7165520
 132.8441070 151.4419500   2.0622790 132.3435770 151.3890050   3.4900550
 132.1812700 135.1204760  16.2041390 131.4671220 135.3201680  16.8094000
 132.6007740 134.3444330  16.5756190 146.2843650 144.7335240   3.6035220
 145.9965350 145.1947930   4.3913100 147.0795820 144.2733010   3.8719440
 132.4685290 149.1085020  17.1907920 132.5776410 148.1679760  17.0503310
 131.8165850 149.3739770  16.5421650 140.4597880 147.3800910  18.5906040
 140.1394750 146.6610150  19.1351730 139.7856240 148.0555980  18.6642100
 138.5012050 148.2261360   3.5339190 138.4922150 148.9591050   2.9183700
 137.5810410 147.9792940   3.6266150 134.1018690 143.4476250   4.2785950
 133.4946640 144.1875150   4.2881250 134.5768040 143.5375610   3.4524150
 143.6751480 137.6127070  13.9542840 144.0432300 136.7922280  14.2822410
 142.8149680 137.6728960  14.3698490 147.0413510 136.5684010   4.7630400
 146.4126670 136.6729680   4.0488630 146.5465430 136.7880790   5.5524280
 139.0097540 138.8469960   6.1788280 138.3013690 139.3156300   6.6201890
 139.2942020 138.1891970   6.8133470 140.6353470 140.2666660  14.1780810
 141.1338720 140.7412480  14.8432660 140.7776420 139.3430180  14.3850840
 143.0412970 135.5720620   7.6184070 142.9180750 135.5906750   6.6693580
 143.9897530 135.6199560   7.7382470 140.1289760 150.8075920   6.8912050
 140.3831260 150.7697310   5.9691420 139.1802240 150.6809250   6.8840300
 137.2132560 137.1555040   3.5538990 138.0623090 137.5925190   3.4879180
 136.8463830 137.4675300   4.3811050 147.8420330 136.4834620  15.0209200
 147.3393930 137.2240020  15.3603010 148.6576990 136.8718620  14.7045990
 146.1342340 141.7267800   8.4670560 145.1932480 141.7418030   8.6418250
 146.4486410 140.9403760   8.9130860 134.8070740 140.8412470   2.7107410
 134.8874330 139.8939980   2.8224810 135.6990490 141.1719350   2.8168070
 132.4930930 147.0581430   5.6883460 131.5670710 147.3002570   5.6788870
 132.9587360 147.8855690   5.5668210 134.6143730 150.1753930  19.0027530
 135.4156460 150.4965980  19.4162930 134.0995550 149.8149510  19.7247440
 143.4508360 146.2833800  18.9502940 142.8446520 146.3065400  18.2098690
 143.1462470 145.5516840  19.4870190 144.8808730 150.0114090  17.5612350
 145.8330480 149.9272110  17.5112590 144.7336950 150.6755800  18.2346140
 147.7717930 149.3908300   3.0604260 147.4859440 148.9773440   2.2458440
 147.5737480 150.3196010   2.9404780 132.3341540 142.6627390  17.9463580
 132.8380560 142.0834670  18.5179810 131.5948960 142.9467620  18.4839950
 139.3879480 144.0698380  17.4799100 138.6225150 144.6383380  17.3953770
 139.5695440 143.7774590  16.5867330 142.4767890 144.4461610   2.1051860
 141.9277990 144.8930910   2.7494600 143.0987150 143.9410860   2.6289530
 146.5302830 145.8003710  18.0374120 147.2712300 146.1379470  17.5341580
 145.7675510 145.9695770  17.4843890 134.3664620 140.8056980  18.8413650
 134.4069960 140.5070850  19.7498880 135.2210120 141.2064590  18.6821170
 138.1443010 143.4052530   4.0017160 138.5659430 143.2392400   4.8448550
 138.2693850 142.5952760   3.5072300 136.3070430 139.3849080  16.8088140
 135.7766890 138.8940030  16.1811480 136.9758500 139.8133280  16.2746070
 145.2048490 143.8518540  16.5729330 145.6189510 144.0063620  17.4219750
 144.2699490 143.9773760  16.7355110 145.6770660 141.1914700  18.5768480
 146.2591430 140.4367020  18.4888960 145.8532430 141.7222140  17.7999960
 136.7942730 136.3511450  16.8885430 136.6999600 135.7332200  16.1636300
 136.2140120 137.0777740  16.6615340 139.5604170 134.9084690  13.9212820
 139.1121470 134.9308950  13.0758370 138.9269370 134.5103710  14.5183120
 139.9663720 143.8039020  14.5425260 140.3851830 144.6471750  14.3701500
 139.0472350 143.9411060  14.3132040 142.3027620 141.5355200  15.9263100
 142.4223830 140.9396340  16.6657940 143.1621620 141.5724890  15.5064400
 144.6415520 142.0892390  14.5025610 144.1150740 142.6135010  13.8990750
 144.9846860 142.7219780  15.1335340 137.8171140 150.1092030  15.6582990
 137.2792230 150.8338090  15.3391690 138.0705100 149.6322370  14.8680330
 139.0696390 138.0776550  17.1838920 139.6596080 137.7692400  17.8716740
 138.2516630 137.6056300  17.3398820 143.8889820 137.6942360  17.4171940
 143.2005340 137.0323900  17.3521930 144.6095840 137.2480630  17.8620400
 144.5190220 134.2893990   3.4762200 144.7992510 133.4461890   3.8321620
 143.7455950 134.5217100   3.9900950 141.2218680 150.5101750   3.5396000
 142.1169470 150.8486720   3.5614760 141.2536310 149.7881160   2.9120280
 134.8614840 145.8828800   1.7683000 135.2989710 146.4258470   2.4240580
 135.3462570 145.0575750   1.7779340 132.0760640 148.6717830   9.2203260
 132.4063650 147.8038890   8.9881900 132.5051640 148.8776350  10.0508220
 136.6722560 147.0026840   6.8805230 136.3718100 146.8791810   7.7809140
 136.5660050 146.1435430   6.4720960 132.5650850 149.5388420  11.9584890
 132.1281840 149.7189220  12.7909040 133.1328530 150.2963040  11.8166610
 148.2013030 149.0405420  16.2462200 147.6015020 149.0997980  15.5026120
 148.3306930 148.1010400  16.3759050 132.3975280 142.0508650   8.3173770
 131.7424120 141.7820290   7.6733470 133.2353230 141.9413130   7.8675750
 146.8864670 145.7657400  14.3438360 146.0724510 146.1954560  14.6064150
 147.2938870 146.3775810  13.7307410 145.3465720 136.8449940   2.5392260
 145.7650600 136.6580920   1.6988920 145.0401780 135.9928990   2.8495190
 133.4351210 142.4361220  12.8577110 133.8024250 142.3488620  13.7373130
 132.8662030 141.6727770  12.7583970 148.2355070 140.9045600  15.8707580
 148.0041160 140.6758350  14.9705530 148.4959620 141.8245150  15.8252470
 132.9867210 139.3470310  16.7635530 132.0923260 139.3137070  17.1029240
 133.5264760 139.5457100  17.5286780 146.6743140 136.1302030  18.6487280
 147.5513320 136.1385430  19.0321280 146.6863980 135.3932870  18.0379630
 131.6113360 139.2607580   4.2599100 130.7077440 139.5237780   4.0850760
 132.0953980 139.5318750   3.4799060 148.2996130 140.0671440  13.0594850
 147.3498840 140.0334980  13.1739840 148.4809140 140.9771550  12.8244620
 147.6106380 139.2404920   5.4767710 148.1065500 139.0075790   6.2616590
 147.4122450 138.4016760   5.0605350 133.4906920 133.6218640  11.1118750
 134.1383110 133.0716020  10.6713910 133.9108760 133.8761790  11.9334560
 147.3859260 133.8160000  14.4688390 148.0231480 134.4294140  14.8347580
 147.5334150 133.8520660  13.5237620 146.9440720 150.5176000   7.8706630
 147.5399790 150.1960570   7.1941050 147.2018870 150.0447820   8.6619900
 133.2438920 133.7774310  13.8544070 132.8953740 134.2338130  14.6202250
 132.9126620 132.8831440  13.9366500 134.8503290 146.9493910  18.0197260
 134.8072920 146.5786820  18.9011720 134.9814300 147.8871480  18.1599080
 138.5509320 148.5053500  13.6206980 138.3100680 148.7728060  12.7337500
 139.4911960 148.6759230  13.6757840 140.7563740 134.9686190  17.3763490
 140.6952630 135.5608020  18.1258900 141.6964120 134.8612150  17.2313750
 143.3938300 134.6256250  17.0155780 144.0078710 134.9435540  16.3536860
 143.9387860 134.1404840  17.6351640 133.9159560 133.3050510  17.1294840
 134.4642550 133.1238560  16.3660950 133.9814870 132.5144620  17.6651150
 134.6891320 149.8956160  15.1395040 134.0951640 149.7640860  15.8785080
 134.6815160 149.0594300  14.6737140 144.1346340 133.1888390  13.3425070
 143.2606180 133.5223500  13.1398000 144.0257090 132.7161570  14.1676940
 145.0418320 135.3959260  14.7266790 144.7131680 134.5811020  14.3468520
 145.9900620 135.3529070  14.6032480 134.3203550 147.2614540  14.0903080
 133.5937610 146.6419830  14.0229030 134.3812700 147.6555150  13.2201160
 137.9248650 149.4759540  10.8752490 138.4413670 148.8646900  10.3500750
 138.5746030 149.9788320  11.3663500 140.6644150 150.3668030  11.7021470
 140.9521960 150.1122330  10.8254480 141.1767370 149.8145390  12.2927040
 141.8821160 134.1058230  12.2817980 141.0992950 134.5803730  12.5614740
 141.5884090 133.2013060  12.1731160 146.4342230 134.8081330  10.3267070
 146.8750320 134.7526430   9.4788670 146.1649820 135.7239340  10.3977250
 132.6033550 150.5788930   7.2999840 132.4355590 149.9459610   7.9981730
 131.7368060 150.7848330   6.9494030 133.2261570 134.4105710   4.8031700
 133.9840930 134.5234590   4.2295730 132.7638740 135.2474910   4.7575130
 139.7675380 136.5244980   7.7934010 138.9549890 136.1501870   7.4529890
 140.2717020 135.7690060   8.0955200 144.2700360 133.1887430   9.0317080
 144.8729730 133.7607640   9.5065600 143.5293350 133.7526870   8.8090980
 147.4134960 133.5908990   4.3057360 147.6085590 134.4892440   4.5724790
 146.6264830 133.3596070   4.7990310 134.2096250 149.2722160   4.7449980
 133.6843870 149.6530190   4.0411940 134.1340830 149.8972930   5.4659690
 135.5986720 134.9369760   3.3433670 136.1279480 134.1499560   3.2141620
 136.2315040 135.6160950   3.5769200 137.7924560 134.6744900   6.3979060
 137.1627300 133.9732210   6.5649190 137.2529700 135.4349030   6.1812220
 137.9180120 133.9528880  18.8331550 137.6364390 134.4562480  18.0692370
 138.2999820 133.1550630  18.4673680 136.8089220 151.2204540   3.6199230
 137.5408040 150.9363820   3.0723120 137.0682890 150.9817820   4.5098610
 135.9704010 147.3369270   3.6245560 135.3412890 147.8054370   4.1731390
 136.0851840 146.4918490   4.0591750 144.5195580 133.3682460  19.4112020
 144.4061030 133.6877070  20.3063540 145.3365320 133.7694970  19.1149300
 147.2994070 150.5153990  18.8930710 148.0919390 150.0203220  18.6856670
 147.5927220 151.1944130  19.5006320 143.4253730 122.6131440 139.9694680
 143.3447780 121.6986050 139.6986390 143.0118150 123.1098510 139.2634390
 141.5571770 124.3910460 141.8503950 140.7813870 123.9110900 142.1402520
 142.2084700 123.7116110 141.6760110 135.5737600 124.7030270 142.7279710
 134.7422480 124.4478980 143.1276220 136.1818580 124.7741040 143.4637630
 145.5779200 128.7970650 140.6303080 145.1160730 128.0257890 140.9590250
 146.3904750 128.8236720 141.1355530 135.5538860 128.7370360 142.9237730
 135.8566900 127.8468100 142.7447950 136.2982450 129.2940580 142.6959980
 133.9829550 119.6632160 136.5122100 133.0946250 120.0048130 136.4101980
 134.2670740 119.4632480 135.6202930 131.9462560 122.2637810 142.3961800
 132.5178670 121.4960010 142.3965440 131.9464100 122.5626570 141.4868410
 141.8042510 131.0828660 140.2507070 141.1853950 131.5386160 139.6801510
 142.6594290 131.2380120 139.8496770 140.9980760 127.0667650 141.8574110
 140.9289040 126.1257590 141.6963240 141.7600620 127.1569060 142.4296680
 133.1887430 117.6722170 144.1830730 133.0090270 116.7747920 144.4633490
 132.7867510 118.2194040 144.8577680 142.0285930 119.8738030 142.0843040
 142.4050750 119.0009910 141.9716710 141.9305440 120.2096730 141.1933480
 136.1590940 118.2463660 137.5460480 136.2657690 119.1467390 137.8529240
 135.2483300 118.1981630 137.2555130 145.8110050 117.3688470 139.0171380
 146.6319670 116.8785040 139.0596860 145.8444130 117.9586130 139.7703220
 133.8074100 120.1682670 142.7913070 134.4884210 120.4321040 143.4100470
 133.4922150 119.3283540 143.1251080 137.9998670 121.2150030 141.8785660
 138.5076890 121.7131000 142.5190680 138.5311910 120.4385230 141.7025020
 136.2834770 115.8548590 146.1449080 136.2853210 116.3720980 145.3394980
 135.4539080 115.3778770 146.1219010 142.6705860 125.9667900 137.6438980
 142.0523130 126.4317350 137.0801700 143.1829110 126.6595380 138.0608490
 137.5337620 125.4943770 144.3222580 137.2007000 126.1212690 144.9643650
 137.7104300 126.0205650 143.5424250 146.0471530 119.3088850 141.7898920
 145.3427100 119.5973740 142.3702030 146.4083690 120.1188960 141.4298480
 135.9650100 117.5658550 144.1519530 136.3066910 118.4100600 143.8573400
 135.0265910 117.7142290 144.2684870 136.7456720 127.4624570 146.1371760
 137.3630720 128.1375650 145.8556210 135.8849840 127.8712550 146.0459260
 132.0389060 126.6524430 135.0178610 131.6617040 127.1411530 134.2863510
 132.2962130 127.3249710 135.6485140 147.6634310 128.9263980 144.0526400
 146.9797830 129.5963090 144.0443070 148.2028600 129.1244630 143.2871260
 139.6477990 115.0540820 140.4764120 139.9552970 114.4987710 139.7599620
 138.7178690 115.1885280 140.2937110 145.1993050 130.7708110 142.7671580
 145.2120210 130.3670400 141.8993840 144.6468270 131.5455400 142.6633010
 146.4938470 127.4924330 137.8561750 146.3834800 126.5498660 137.9811170
 146.4906720 127.8539970 138.7424510 144.5978490 125.6737950 144.0954190
 145.0147280 125.4598060 143.2607650 145.3218310 125.9310740 144.6662810
 142.0358750 123.1189650 137.2124240 141.1088030 123.0527030 137.4412710
 142.1883570 124.0569780 137.0979480 142.0227830 119.3906650 134.2091400
 141.0831500 119.5520610 134.2943860 142.3411090 120.1092330 133.6627390
 146.0656040 124.6809950 137.7159490 145.4468460 124.3429500 137.0685790
 146.0480490 124.0369710 138.4238680 145.5082600 120.8594490 145.1325300
 145.0953780 121.6848200 145.3865290 144.7758550 120.2739530 144.9401660
 137.6415390 123.6454390 139.9943970 137.2372390 122.9331640 139.4989870
 137.7278510 123.3007630 140.8832010 138.1097090 127.3321950 142.1583180
 137.8125380 126.7267420 141.4790960 139.0596910 127.3699260 142.0472540
 136.3544010 120.4197600 143.7743010 136.9058600 120.5292940 142.9996260
 136.8687520 120.7935200 144.4898240 146.1982700 130.9053820 145.8206280
 145.7213260 131.7126010 145.6278890 145.5144490 130.2532150 145.9732490
 137.2015520 127.0703640 148.8090980 136.3044050 127.2943610 149.0564380
 137.2268390 127.1938580 147.8602380 144.2420740 123.9196760 134.7232240
 144.6814020 123.0819190 134.5770060 144.9549160 124.5526160 134.8096380
 136.0286740 123.9416960 147.3848350 135.8894510 124.8139760 147.7535750
 135.1468100 123.5989770 147.2396290 142.3516120 128.8592830 138.6913480
 142.7912030 129.6017160 138.2768870 142.2903010 129.1019400 139.6152440
 137.8267090 129.8838660 149.5933500 137.7982520 130.2881610 148.7261930
 137.6632060 128.9549020 149.4305100 147.8237880 115.1739570 133.0373280
 147.5110540 115.2666400 133.9372350 148.5850350 115.7520600 132.9870710
 134.3420020 122.5399370 137.4950620 134.2217620 123.2661460 136.8831890
 134.0320910 121.7702280 137.0178530 131.9805390 125.7114510 143.3019260
 132.0585810 125.8463280 142.3574980 132.5947070 125.0030400 143.4947380
 133.2253020 127.4114700 139.7125440 132.8181100 127.5529290 138.8579040
 134.1166030 127.1274860 139.5096650 143.0431900 131.5606610 146.6192490
 143.5576570 131.4714620 147.4214920 142.2000980 131.9066310 146.9120400
 145.0186300 131.8461950 136.0476490 144.8587440 131.5564890 136.9458320
 144.8533010 131.0702080 135.5121720 137.4974680 131.6260480 137.8248110
 137.3217160 130.7096020 137.6115910 136.6430420 131.9847770 138.0645910
 144.7212430 129.3549510 134.6074490 144.0277590 129.3526800 133.9476770
 145.4635290 128.9308830 134.1768660 144.2862360 130.9812220 138.6822980
 144.7419310 130.2001600 138.9961600 144.6254880 131.6919040 139.2264160
 132.0364910 126.7528680 145.8413720 132.1995950 126.2834040 145.0233090
 132.5017360 126.2452240 146.5062560 136.8083680 115.8834440 140.8774290
 136.3651830 116.6643980 140.5458810 137.3668670 116.2064330 141.5845230
 141.0953490 118.7502960 146.4809610 140.6332860 118.9585980 147.2929550
 140.6931600 117.9362310 146.1780280 146.0958000 119.9711910 147.6106270
 145.2451590 119.6717660 147.9315340 145.9359790 120.2153920 146.6990090
 143.1907710 121.4713660 149.7105060 143.5161120 120.6377410 149.3707290
 143.9788040 121.9942180 149.8583390 139.9242500 115.5045140 135.7580120
 139.2996680 115.5005010 136.4833430 139.8372620 114.6376100 135.3616090
 138.8459580 116.4281770 142.7363890 139.1431910 117.3344600 142.6555910
 139.3945140 115.9400550 142.1223460 136.5997900 121.0068010 138.6055540
 136.3738820 120.7905180 139.5102160 135.8190430 121.4396470 138.2601510
 143.8295660 121.0131380 137.2046190 143.2304550 121.7367180 137.0209810
 144.3775270 120.9508160 136.4222640 139.0397110 121.9053590 149.2715810
 138.9440710 120.9648320 149.1216210 139.8829090 122.1268660 148.8763880
 142.4360530 119.6494920 139.2349470 142.8290100 119.9667120 138.4218160
 142.7977380 118.7706800 139.3493990 134.1707650 118.3167260 147.4249590
 133.7771040 119.1642470 147.6322370 133.4826050 117.6793630 147.6158230
 131.4724700 116.2395720 141.4579670 131.1837750 116.8098580 142.1704650
 132.2170460 115.7600170 141.8210900 131.6594930 120.1815840 132.6682390
 131.5769600 121.1246600 132.8097380 131.3077990 120.0390750 131.7894740
 143.0215670 122.2400670 143.3300250 142.2896790 122.7487480 143.6790350
 142.6240010 121.4230650 143.0289030 139.4593060 118.9154870 141.7352740
 139.4629120 118.4744820 140.8857280 140.3544180 119.2372200 141.8424560
 135.3095440 118.7981360 140.6946950 134.9695490 119.2756590 141.4514000
 134.5472760 118.3446480 140.3348050 139.5213210 119.9166950 134.7259500
 139.6426030 119.8753430 135.6745320 139.1361720 120.7791100 134.5706230
 143.4841580 117.6934350 142.7423190 143.5014320 118.1443000 143.5865040
 143.2357160 116.7939990 142.9556630 138.5334710 122.2268090 134.1242800
 137.9651610 121.7786340 133.4978710 139.2423710 122.5860870 133.5907950
 146.9112330 115.1066530 148.5809570 147.2358100 114.3756190 149.1067550
 146.9468840 114.7880170 147.6790560 133.6103890 126.1280110 148.0009530
 133.2258680 125.4873780 148.5992490 133.9216080 126.8316230 148.5704260
 139.7601030 122.9756650 143.4818150 140.1271160 122.5015220 144.2279490
 139.5706090 123.8498220 143.8226490 132.6241520 117.7200340 139.6111620
 132.3388440 117.3556010 140.4490240 132.5620380 116.9880800 138.9974760
 137.5500400 122.0165290 145.8002360 137.2457470 122.8957270 146.0252720
 138.5046860 122.0765080 145.8359800 136.0782190 126.2226280 136.3969210
 135.3044450 125.6823900 136.2367930 136.8076820 125.7032890 136.0586970
 146.8370170 125.2191640 142.1895600 147.5569290 125.7146930 141.7991710
 146.6351990 124.5409530 141.5449470 142.2980110 116.6129600 136.3324990
 141.4844720 116.1142770 136.2570300 142.1042060 117.4527850 135.9161340
 142.2188970 125.2900700 148.0764600 142.1526280 124.3696370 147.8222190
 141.5894110 125.3876140 148.7909240 145.0128500 120.9849250 134.6287150
 145.9008120 121.2966480 134.4538490 144.9833590 120.1121500 134.2367730
 136.1219590 125.8906660 140.0348020 136.6398260 125.0874920 139.9804910
 135.6703610 125.8285800 140.8764850 141.0089090 127.1572940 135.3075320
 141.3504790 127.9015170 134.8118640 140.1801800 127.4704060 135.6700150
 133.6064130 122.8568030 146.9473720 133.2479070 123.5221880 147.5347060
 133.3118690 122.0251580 147.3186340 136.8077250 123.3152270 149.8313270
 136.5077390 123.4609450 148.9341090 137.5788490 122.7557560 149.7386660
 142.1505700 128.1121270 147.8268400 142.1650240 127.1802230 147.6087310
 141.4430800 128.1981030 148.4658170 147.2842770 122.2961090 134.0967010
 147.2006490 122.7275310 133.2463450 148.0036960 122.7559440 134.5293830
 148.3130020 129.1503350 136.8249140 147.6706180 128.4958970 137.0992860
 147.9260680 129.5558440 136.0489810 143.8916500 126.4788780 140.6720830
 144.2440320 125.8816910 140.0122200 143.0078830 126.1533010 140.8429080
 139.9779780 127.2386470 138.0791240 140.6650910 127.7855680 138.4598830
 139.1912200 127.7827200 138.1140850 132.1172180 122.8559290 133.5708320
 132.9867030 123.1384090 133.8544240 131.6262500 123.6695160 133.4557130
 139.2806990 124.2432500 137.6916600 139.7369770 125.0537750 137.9176790
 138.9295200 123.9255640 138.5235090 141.5839600 129.7538840 144.9208900
 142.2281820 129.9598220 145.5982320 141.9469040 128.9927240 144.4679750
 135.1818770 114.5870150 138.1639120 135.0533400 114.5788050 139.1124040
 134.3580790 114.9253240 137.8130130 142.8571680 127.7571190 143.6386350
 143.4993910 127.0564350 143.7518520 143.3821030 128.5369630 143.4583240
 146.7027400 128.0419810 133.3625490 146.4764980 127.3250250 133.9550130
 146.3123600 127.7932250 132.5247240 144.6309300 128.5566090 146.8422410
 144.9665540 129.1432780 147.5200330 143.7109640 128.4258800 147.0720200
 132.4843430 132.0686670 134.1369950 132.8441070 132.6676010 133.4827220
 132.3435770 132.6146560 134.9104980 132.1812700 116.3461270 147.6245820
 131.4671220 116.5458190 148.2298430 132.6007740 115.5700840 147.9960620
 146.2843650 125.9591750 135.0239650 145.9965350 126.4204440 135.8117530
 147.0795820 125.4989520 135.2923870 132.4685290 130.3341530 148.6112350
 132.5776410 129.3936270 148.4707740 131.8165850 130.5996280 147.9626080
 138.5012050 129.4517870 134.9543620 138.4922150 130.1847560 134.3388130
 137.5810410 129.2049450 135.0470580 134.1018690 124.6732760 135.6990380
 133.4946640 125.4131660 135.7085680 134.5768040 124.7632120 134.8728580
 143.6751480 118.8383580 145.3747270 144.0432300 118.0178790 145.7026840
 142.8149680 118.8985470 145.7902920 147.0413510 117.7940520 136.1834830
 146.4126670 117.8986190 135.4693060 146.5465430 118.0137300 136.9728710
 141.4871650 129.5146110 133.6168810 141.5883630 129.3110100 132.6870790
 140.5873390 129.2604390 133.8216590 139.0097540 120.0726470 137.5992710
 138.3013690 120.5412810 138.0406320 139.2942020 119.4148480 138.2337900
 140.6353470 121.4923170 145.5985240 141.1338720 121.9668990 146.2637090
 140.7776420 120.5686690 145.8055270 143.0412970 116.7977130 139.0388500
 142.9180750 116.8163260 138.0898010 143.9897530 116.8456070 139.1586900
 140.1289760 132.0332430 138.3116480 140.3831260 131.9953820 137.3895850
 139.1802240 131.9065760 138.3044730 137.2132560 118.3811550 134.9743420
 138.0623090 118.8181700 134.9083610 136.8463830 118.6931810 135.8015480
 147.8420330 117.7091130 146.4413630 147.3393930 118.4496530 146.7807440
 148.6576990 118.0975130 146.1250420 146.1342340 122.9524310 139.8874990
 145.1932480 122.9674540 140.0622680 146.4486410 122.1660270 140.3335290
 136.1123980 124.6343910 133.4478950 136.8787250 124.5225270 134.0104380
 136.1898670 123.9381880 132.7955720 134.8070740 122.0668980 134.1311840
 134.8874330 121.1196490 134.2429240 135.6990490 122.3975860 134.2372500
 135.6085450 132.2164370 141.2346380 136.3447930 131.6679830 141.5054950
 135.9926370 133.0820380 141.0952370 132.4930930 128.2837940 137.1087890
 131.5670710 128.5259080 137.0993300 132.9587360 129.1112200 136.9872640
 138.7187760 131.3894680 133.0571950 139.5116370 131.6783510 132.6053740
 138.1992110 130.9586850 132.3784430 144.8808730 131.2370600 148.9816780
 145.8330480 131.1528620 148.9317020 144.7336950 131.9012310 149.6550570
 147.7717930 130.6164810 134.4808690 147.4859440 130.2029950 133.6662870
 147.5737480 131.5452520 134.3609210 132.3341540 123.8883900 149.3668010
 132.8380560 123.3091180 149.9384240 131.5948960 124.1724130 149.9044380
 139.2365160 126.6098090 132.9214300 139.1315800 125.9950440 133.6475680
 139.0689380 126.0863980 132.1377310 139.3879480 125.2954890 148.9003530
 138.6225150 125.8639890 148.8158200 139.5695440 125.0031100 148.0071760
 142.4767890 125.6718120 133.5256290 141.9277990 126.1187420 134.1699030
 143.0987150 125.1667370 134.0493960 146.5302830 127.0260220 149.4578550
 147.2712300 127.3635980 148.9546010 145.7675510 127.1952280 148.9048320
 138.1443010 124.6309040 135.4221590 138.5659430 124.4648910 136.2652980
 138.2693850 123.8209270 134.9276730 136.3070430 120.6105590 148.2292570
 135.7766890 120.1196540 147.6015910 136.9758500 121.0389790 147.6950500
 140.6570650 123.6546650 132.6698690 141.1776310 122.9395670 132.3039840
 141.3039050 124.2932520 132.9699200 145.2048490 125.0775050 147.9933760
 145.6189510 125.2320130 148.8424180 144.2699490 125.2030270 148.1559540
 145.6770660 122.4171210 149.9972910 146.2591430 121.6623530 149.9093390
 145.8532430 122.9478650 149.2204390 136.7942730 117.5767960 148.3089860
 136.6999600 116.9588710 147.5840730 136.2140120 118.3034250 148.0819770
 139.5604170 116.1341200 145.3417250 139.1121470 116.1565460 144.4962800
 138.9269370 115.7360220 145.9387550 139.9663720 125.0295530 145.9629690
 140.3851830 125.8728260 145.7905930 139.0472350 125.1667570 145.7336470
 142.3027620 122.7611710 147.3467530 142.4223830 122.1652850 148.0862370
 143.1621620 122.7981400 146.9268830 144.6415520 123.3148900 145.9230040
 144.1150740 123.8391520 145.3195180 144.9846860 123.9476290 146.5539770
 137.0401910 120.7042270 132.3679750 136.8390970 119.8409630 132.7293090
 136.8693960 120.6175630 131.4301350 137.8171140 131.3348540 147.0787420
 137.2792230 132.0594600 146.7596120 138.0705100 130.8578880 146.2884760
 139.0696390 119.3033060 148.6043350 139.6596080 118.9948910 149.2921170
 138.2516630 118.8312810 148.7603250 143.8889820 118.9198870 148.8376370
 143.2005340 118.2580410 148.7726360 144.6095840 118.4737140 149.2824830
 144.5190220 115.5150500 134.8966630 144.7992510 114.6718400 135.2526050
 143.7455950 115.7473610 135.4105380 135.8384710 117.8042890 132.3557630
 136.1410610 117.8110320 131.4476780 136.5779300 117.4540750 132.8525290
 140.6733350 132.5699750 147.3374070 140.5992050 133.4734890 147.6446440
 139.7712190 132.2511650 147.3096140 139.0569640 116.7477510 133.3413830
 138.7091640 116.0701500 132.7616280 139.2582410 116.2867020 134.1557220
 141.2218680 131.7358260 134.9600430 142.1169470 132.0743230 134.9819190
 141.2536310 131.0137670 134.3324710 134.8614840 127.1085310 133.1887430
 135.2989710 127.6514980 133.8445010 135.3462570 126.2832260 133.1983770
 132.0760640 129.8974340 140.6407690 132.4063650 129.0295400 140.4086330
 132.5051640 130.1032860 141.4712650 136.6722560 128.2283350 138.3009660
 136.3718100 128.1048320 139.2013570 136.5660050 127.3691940 137.8925390
 132.5650850 130.7644930 143.3789320 132.1281840 130.9445730 144.2113470
 133.1328530 131.5219550 143.2371040 148.2013030 130.2661930 147.6666630
 147.6015020 130.3254490 146.9230550 148.3306930 129.3266910 147.7963480
 132.3975280 123.2765160 139.7378200 131.7424120 123.0076800 139.0937900
 133.2353230 123.1669640 139.2880180 146.8864670 126.9913910 145.7642790
 146.0724510 127.4211070 146.0268580 147.2938870 127.6032320 145.1511840
 145.3465720 118.0706450 133.9596690 145.7650600 117.8837430 133.1193350
 145.0401780 117.2185500 134.2699620 133.4351210 123.6617730 144.2781540
 133.8024250 123.5745130 145.1577560 132.8662030 122.8984280 144.1788400
 148.2355070 122.1302110 147.2912010 148.0041160 121.9014860 146.3909960
 148.4959620 123.0501660 147.2456900 132.9867210 120.5726820 148.1839960
 132.0923260 120.5393580 148.5233670 133.5264760 120.7713610 148.9491210
 131.6113360 120.4864090 135.6803530 130.7077440 120.7494290 135.5055190
 132.0953980 120.7575260 134.9003490 148.2996130 121.2927950 144.4799280
 147.3498840 121.2591490 144.5944270 148.4809140 122.2028060 144.2449050
 134.1540570 119.5429630 133.5897910 134.8632270 119.1212850 133.1045190
 133.4380510 119.6104860 132.9581260 133.8014730 115.5968960 132.6300560
 134.5242860 116.1377900 132.9481780 134.0739250 115.3232380 131.7542100
 147.6106380 120.4661430 136.8972140 148.1065500 120.2332300 137.6821020
 147.4122450 119.6273270 136.4809780 133.4906920 114.8475150 142.5323180
 134.1383110 114.2972530 142.0918340 133.9108760 115.1018300 143.3538990
 147.3859260 115.0416510 145.8892820 148.0231480 115.6550650 146.2552010
 147.5334150 115.0777170 144.9442050 146.9440720 131.7432510 139.2911060
 147.5399790 131.4217080 138.6145480 147.2018870 131.2704330 140.0824330
 133.2438920 115.0030820 145.2748500 132.8953740 115.4594640 146.0406680
 132.9126620 114.1087950 145.3570930 138.5509320 129.7310010 145.0411410
 138.3100680 129.9984570 144.1541930 139.4911960 129.9015740 145.0962270
 140.7563740 116.1942700 148.7967920 140.6952630 116.7864530 149.5463330
 141.6964120 116.0868660 148.6518180 143.3938300 115.8512760 148.4360210
 144.0078710 116.1692050 147.7741290 143.9387860 115.3661350 149.0556070
 133.9159560 114.5307020 148.5499270 134.4642550 114.3495070 147.7865380
 133.9814870 113.7401130 149.0855580 134.6891320 131.1212670 146.5599470
 134.0951640 130.9897370 147.2989510 134.6815160 130.2850810 146.0941570
 144.1346340 114.4144900 144.7629500 143.2606180 114.7480010 144.5602430
 144.0257090 113.9418080 145.5881370 145.0418320 116.6215770 146.1471220
 144.7131680 115.8067530 145.7672950 145.9900620 116.5785580 146.0236910
 147.4952930 132.3927810 143.1208790 147.0355900 133.1443620 142.7466810
 146.8665390 131.6734280 143.0623590 134.3203550 128.4871050 145.5107510
 133.5937610 127.8676340 145.4433460 134.3812700 128.8811660 144.6405590
 137.9248650 130.7016050 142.2956920 138.4413670 130.0903410 141.7705180
 138.5746030 131.2044830 142.7867930 140.6644150 131.5924540 143.1225900
 140.9521960 131.3378840 142.2458910 141.1767370 131.0401900 143.7131470
 141.8821160 115.3314740 143.7022410 141.0992950 115.8060240 143.9819170
 141.5884090 114.4269570 143.5935590 146.4342230 116.0337840 141.7471500
 146.8750320 115.9782940 140.8993100 146.1649820 116.9495850 141.8181680
 132.6033550 131.8045440 138.7204270 132.4355590 131.1716120 139.4186160
 131.7368060 132.0104840 138.3698460 133.2261570 115.6362220 136.2236130
 133.9840930 115.7491100 135.6500160 132.7638740 116.4731420 136.1779560
 139.7675380 117.7501490 139.2138440 138.9549890 117.3758380 138.8734320
 140.2717020 116.9946570 139.5159630 144.2700360 114.4143940 140.4521510
 144.8729730 114.9864150 140.9270030 143.5293350 114.9783380 140.2295410
 147.4134960 114.8165500 135.7261790 147.6085590 115.7148950 135.9929220
 146.6264830 114.5852580 136.2194740 134.2096250 130.4978670 136.1654410
 133.6843870 130.8786700 135.4616370 134.1340830 131.1229440 136.8864120
 135.5986720 116.1626270 134.7638100 136.1279480 115.3756070 134.6346050
 136.2315040 116.8417460 134.9973630 137.7924560 115.9001410 137.8183490
 137.1627300 115.1988720 137.9853620 137.2529700 116.6605540 137.6016650
 136.8089220 132.4461050 135.0403660 137.5408040 132.1620330 134.4927550
 137.0682890 132.2074330 135.9303040 135.9704010 128.5625780 135.0449990
 135.3412890 129.0310880 135.5935820 136.0851840 127.7175000 135.4796180
 143.4253730 122.6131440 121.1951190 143.3447780 121.6986050 120.9242900
 143.0118150 123.1098510 120.4890900 141.5571770 124.3910460 123.0760460
 140.7813870 123.9110900 123.3659030 142.2084700 123.7116110 122.9016620
 135.5737600 124.7030270 123.9536220 134.7422480 124.4478980 124.3532730
 136.1818580 124.7741040 124.6894140 145.5779200 128.7970650 121.8559590
 145.1160730 128.0257890 122.1846760 146.3904750 128.8236720 122.3612040
 135.5538860 128.7370360 124.1494240 135.8566900 127.8468100 123.9704460
 136.2982450 129.2940580 123.9216490 133.9829550 119.6632160 117.7378610
 133.0946250 120.0048130 117.6358490 134.2670740 119.4632480 116.8459440
 131.9462560 122.2637810 123.6218310 132.5178670 121.4960010 123.6221950
 131.9464100 122.5626570 122.7124920 141.8042510 131.0828660 121.4763580
 141.1853950 131.5386160 120.9058020 142.6594290 131.2380120 121.0753280
 140.9980760 127.0667650 123.0830620 140.9289040 126.1257590 122.9219750
 141.7600620 127.1569060 123.6553190 133.1887430 117.6722170 125.4087240
 133.0090270 116.7747920 125.6890000 132.7867510 118.2194040 126.0834190
 142.0285930 119.8738030 123.3099550 142.4050750 119.0009910 123.1973220
 141.9305440 120.2096730 122.4189990 136.1590940 118.2463660 118.7716990
 136.2657690 119.1467390 119.0785750 135.2483300 118.1981630 118.4811640
 145.8110050 117.3688470 120.2427890 146.6319670 116.8785040 120.2853370
 145.8444130 117.9586130 120.9959730 133.8074100 120.1682670 124.0169580
 134.4884210 120.4321040 124.6356980 133.4922150 119.3283540 124.3507590
 137.9998670 121.2150030 123.1042170 138.5076890 121.7131000 123.7447190
 138.5311910 120.4385230 122.9281530 136.2834770 115.8548590 127.3705590
 136.2853210 116.3720980 126.5651490 135.4539080 115.3778770 127.3475520
 142.6705860 125.9667900 118.8695490 142.0523130 126.4317350 118.3058210
 143.1829110 126.6595380 119.2865000 137.5337620 125.4943770 125.5479090
 137.2007000 126.1212690 126.1900160 137.7104300 126.0205650 124.7680760
 146.0471530 119.3088850 123.0155430 145.3427100 119.5973740 123.5958540
 146.4083690 120.1188960 122.6554990 135.9650100 117.5658550 125.3776040
 136.3066910 118.4100600 125.0829910 135.0265910 117.7142290 125.4941380
 136.7456720 127.4624570 127.3628270 137.3630720 128.1375650 127.0812720
 135.8849840 127.8712550 127.2715770 132.0389060 126.6524430 116.2435120
 131.6617040 127.1411530 115.5120020 132.2962130 127.3249710 116.8741650
 147.6634310 128.9263980 125.2782910 146.9797830 129.5963090 125.2699580
 148.2028600 129.1244630 124.5127770 139.6477990 115.0540820 121.7020630
 139.9552970 114.4987710 120.9856130 138.7178690 115.1885280 121.5193620
 145.1993050 130.7708110 123.9928090 145.2120210 130.3670400 123.1250350
 144.6468270 131.5455400 123.8889520 146.4938470 127.4924330 119.0818260
 146.3834800 126.5498660 119.2067680 146.4906720 127.8539970 119.9681020
 144.5978490 125.6737950 125.3210700 145.0147280 125.4598060 124.4864160
 145.3218310 125.9310740 125.8919320 142.0358750 123.1189650 118.4380750
 141.1088030 123.0527030 118.6669220 142.1883570 124.0569780 118.3235990
 142.0227830 119.3906650 115.4347910 141.0831500 119.5520610 115.5200370
 142.3411090 120.1092330 114.8883900 146.0656040 124.6809950 118.9416000
 145.4468460 124.3429500 118.2942300 146.0480490 124.0369710 119.6495190
 145.5082600 120.8594490 126.3581810 145.0953780 121.6848200 126.6121800
 144.7758550 120.2739530 126.1658170 137.6415390 123.6454390 121.2200480
 137.2372390 122.9331640 120.7246380 137.7278510 123.3007630 122.1088520
 138.1097090 127.3321950 123.3839690 137.8125380 126.7267420 122.7047470
 139.0596910 127.3699260 123.2729050 136.3544010 120.4197600 124.9999520
 136.9058600 120.5292940 124.2252770 136.8687520 120.7935200 125.7154750
 146.1982700 130.9053820 127.0462790 145.7213260 131.7126010 126.8535400
 145.5144490 130.2532150 127.1989000 137.2015520 127.0703640 130.0347490
 136.3044050 127.2943610 130.2820890 137.2268390 127.1938580 129.0858890
 144.2420740 123.9196760 115.9488750 144.6814020 123.0819190 115.8026570
 144.9549160 124.5526160 116.0352890 136.0286740 123.9416960 128.6104860
 135.8894510 124.8139760 128.9792260 135.1468100 123.5989770 128.4652800
 142.3516120 128.8592830 119.9169990 142.7912030 129.6017160 119.5025380
 142.2903010 129.1019400 120.8408950 137.8267090 129.8838660 130.8190010
 137.7982520 130.2881610 129.9518440 137.6632060 128.9549020 130.6561610
 147.8237880 115.1739570 114.2629790 147.5110540 115.2666400 115.1628860
 148.5850350 115.7520600 114.2127220 134.3420020 122.5399370 118.7207130
 134.2217620 123.2661460 118.1088400 134.0320910 121.7702280 118.2435040
 131.9805390 125.7114510 124.5275770 132.0585810 125.8463280 123.5831490
 132.5947070 125.0030400 124.7203890 133.2253020 127.4114700 120.9381950
 132.8181100 127.5529290 120.0835550 134.1166030 127.1274860 120.7353160
 143.0431900 131.5606610 127.8449000 143.5576570 131.4714620 128.6471430
 142.2000980 131.9066310 128.1376910 145.0186300 131.8461950 117.2733000
 144.8587440 131.5564890 118.1714830 144.8533010 131.0702080 116.7378230
 137.4974680 131.6260480 119.0504620 137.3217160 130.7096020 118.8372420
 136.6430420 131.9847770 119.2902420 144.7212430 129.3549510 115.8331000
 144.0277590 129.3526800 115.1733280 145.4635290 128.9308830 115.4025170
 144.2862360 130.9812220 119.9079490 144.7419310 130.2001600 120.2218110
 144.6254880 131.6919040 120.4520670 132.0364910 126.7528680 127.0670230
 132.1995950 126.2834040 126.2489600 132.5017360 126.2452240 127.7319070
 136.8083680 115.8834440 122.1030800 136.3651830 116.6643980 121.7715320
 137.3668670 116.2064330 122.8101740 141.0953490 118.7502960 127.7066120
 140.6332860 118.9585980 128.5186060 140.6931600 117.9362310 127.4036790
 146.0958000 119.9711910 128.8362780 145.2451590 119.6717660 129.1571850
 145.9359790 120.2153920 127.9246600 143.1907710 121.4713660 130.9361570
 143.5161120 120.6377410 130.5963800 143.9788040 121.9942180 131.0839900
 139.9242500 115.5045140 116.9836630 139.2996680 115.5005010 117.7089940
 139.8372620 114.6376100 116.5872600 138.8459580 116.4281770 123.9620400
 139.1431910 117.3344600 123.8812420 139.3945140 115.9400550 123.3479970
 136.5997900 121.0068010 119.8312050 136.3738820 120.7905180 120.7358670
 135.8190430 121.4396470 119.4858020 143.8295660 121.0131380 118.4302700
 143.2304550 121.7367180 118.2466320 144.3775270 120.9508160 117.6479150
 139.0397110 121.9053590 130.4972320 138.9440710 120.9648320 130.3472720
 139.8829090 122.1268660 130.1020390 142.4360530 119.6494920 120.4605980
 142.8290100 119.9667120 119.6474670 142.7977380 118.7706800 120.5750500
 134.1707650 118.3167260 128.6506100 133.7771040 119.1642470 128.8578880
 133.4826050 117.6793630 128.8414740 140.7452700 118.4002230 131.7202840
 140.0551020 118.2074430 132.3548930 141.4885000 118.6836870 132.2527140
 131.4724700 116.2395720 122.6836180 131.1837750 116.8098580 123.3961160
 132.2170460 115.7600170 123.0467410 131.6594930 120.1815840 113.8938900
 131.5769600 121.1246600 114.0353890 131.3077990 120.0390750 113.0151250
 143.0215670 122.2400670 124.5556760 142.2896790 122.7487480 124.9046860
 142.6240010 121.4230650 124.2545540 139.4593060 118.9154870 122.9609250
 139.4629120 118.4744820 122.1113790 140.3544180 119.2372200 123.0681070
 135.3095440 118.7981360 121.9203460 134.9695490 119.2756590 122.6770510
 134.5472760 118.3446480 121.5604560 139.5213210 119.9166950 115.9516010
 139.6426030 119.8753430 116.9001830 139.1361720 120.7791100 115.7962740
 143.4841580 117.6934350 123.9679700 143.5014320 118.1443000 124.8121550
 143.2357160 116.7939990 124.1813140 138.5334710 122.2268090 115.3499310
 137.9651610 121.7786340 114.7235220 139.2423710 122.5860870 114.8164460
 146.9112330 115.1066530 129.8066080 147.2358100 114.3756190 130.3324060
 146.9468840 114.7880170 128.9047070 133.6103890 126.1280110 129.2266040
 133.2258680 125.4873780 129.8249000 133.9216080 126.8316230 129.7960770
 139.7601030 122.9756650 124.7074660 140.1271160 122.5015220 125.4536000
 139.5706090 123.8498220 125.0483000 132.6241520 117.7200340 120.8368130
 132.3388440 117.3556010 121.6746750 132.5620380 116.9880800 120.2231270
 137.5500400 122.0165290 127.0258870 137.2457470 122.8957270 127.2509230
 138.5046860 122.0765080 127.0616310 136.0782190 126.2226280 117.6225720
 135.3044450 125.6823900 117.4624440 136.8076820 125.7032890 117.2843480
 146.8370170 125.2191640 123.4152110 147.5569290 125.7146930 123.0248220
 146.6351990 124.5409530 122.7705980 142.2980110 116.6129600 117.5581500
 141.4844720 116.1142770 117.4826810 142.1042060 117.4527850 117.1417850
 142.2188970 125.2900700 129.3021110 142.1526280 124.3696370 129.0478700
 141.5894110 125.3876140 130.0165750 145.0128500 120.9849250 115.8543660
 145.9008120 121.2966480 115.6795000 144.9833590 120.1121500 115.4624240
 136.1219590 125.8906660 121.2604530 136.6398260 125.0874920 121.2061420
 135.6703610 125.8285800 122.1021360 141.0089090 127.1572940 116.5331830
 141.3504790 127.9015170 116.0375150 140.1801800 127.4704060 116.8956660
 133.6064130 122.8568030 128.1730230 133.2479070 123.5221880 128.7603570
 133.3118690 122.0251580 128.5442850 136.8077250 123.3152270 131.0569780
 136.5077390 123.4609450 130.1597600 137.5788490 122.7557560 130.9643170
 142.1505700 128.1121270 129.0524910 142.1650240 127.1802230 128.8343820
 141.4430800 128.1981030 129.6914680 147.2842770 122.2961090 115.3223520
 147.2006490 122.7275310 114.4719960 148.0036960 122.7559440 115.7550340
 148.3130020 129.1503350 118.0505650 147.6706180 128.4958970 118.3249370
 147.9260680 129.5558440 117.2746320 143.8916500 126.4788780 121.8977340
 144.2440320 125.8816910 121.2378710 143.0078830 126.1533010 122.0685590
 139.9779780 127.2386470 119.3047750 140.6650910 127.7855680 119.6855340
 139.1912200 127.7827200 119.3397360 132.1172180 122.8559290 114.7964830
 132.9867030 123.1384090 115.0800750 131.6262500 123.6695160 114.6813640
 139.2806990 124.2432500 118.9173110 139.7369770 125.0537750 119.1433300
 138.9295200 123.9255640 119.7491600 141.5839600 129.7538840 126.1465410
 142.2281820 129.9598220 126.8238830 141.9469040 128.9927240 125.6936260
 135.1818770 114.5870150 119.3895630 135.0533400 114.5788050 120.3380550
 134.3580790 114.9253240 119.0386640 142.8571680 127.7571190 124.8642860
 143.4993910 127.0564350 124.9775030 143.3821030 128.5369630 124.6839750
 146.7027400 128.0419810 114.5882000 146.4764980 127.3250250 115.1806640
 146.3123600 127.7932250 113.7503750 144.6309300 128.5566090 128.0678920
 144.9665540 129.1432780 128.7456840 143.7109640 128.4258800 128.2976710
 132.4843430 132.0686670 115.3626460 132.8441070 132.6676010 114.7083730
 132.3435770 132.6146560 116.1361490 132.1812700 116.3461270 128.8502330
 131.4671220 116.5458190 129.4554940 132.6007740 115.5700840 129.2217130
 146.2843650 125.9591750 116.2496160 145.9965350 126.4204440 117.0374040
 147.0795820 125.4989520 116.5180380 132.4685290 130.3341530 129.8368860
 132.5776410 129.3936270 129.6964250 131.8165850 130.5996280 129.1882590
 140.4597880 128.6057420 131.2366980 140.1394750 127.8866660 131.7812670
 139.7856240 129.2812490 131.3103040 138.5012050 129.4517870 116.1800130
 138.4922150 130.1847560 115.5644640 137.5810410 129.2049450 116.2727090
 134.1018690 124.6732760 116.9246890 133.4946640 125.4131660 116.9342190
 134.5768040 124.7632120 116.0985090 143.6751480 118.8383580 126.6003780
 144.0432300 118.0178790 126.9283350 142.8149680 118.8985470 127.0159430
 147.0413510 117.7940520 117.4091340 146.4126670 117.8986190 116.6949570
 146.5465430 118.0137300 118.1985220 141.4871650 129.5146110 114.8425320
 141.5883630 129.3110100 113.9127300 140.5873390 129.2604390 115.0473100
 139.0097540 120.0726470 118.8249220 138.3013690 120.5412810 119.2662830
 139.2942020 119.4148480 119.4594410 140.6353470 121.4923170 126.8241750
 141.1338720 121.9668990 127.4893600 140.7776420 120.5686690 127.0311780
 143.0412970 116.7977130 120.2645010 142.9180750 116.8163260 119.3154520
 143.9897530 116.8456070 120.3843410 140.1289760 132.0332430 119.5372990
 140.3831260 131.9953820 118.6152360 139.1802240 131.9065760 119.5301240
 137.2132560 118.3811550 116.1999930 138.0623090 118.8181700 116.1340120
 136.8463830 118.6931810 117.0271990 147.8420330 117.7091130 127.6670140
 147.3393930 118.4496530 128.0063950 148.6576990 118.0975130 127.3506930
 146.1342340 122.9524310 121.1131500 145.1932480 122.9674540 121.2879190
 146.4486410 122.1660270 121.5591800 136.1123980 124.6343910 114.6735460
 136.8787250 124.5225270 115.2360890 136.1898670 123.9381880 114.0212230
 134.8070740 122.0668980 115.3568350 134.8874330 121.1196490 115.4685750
 135.6990490 122.3975860 115.4629010 135.6085450 132.2164370 122.4602890
 136.3447930 131.6679830 122.7311460 135.9926370 133.0820380 122.3208880
 132.4930930 128.2837940 118.3344400 131.5670710 128.5259080 118.3249810
 132.9587360 129.1112200 118.2129150 134.6143730 131.4010440 131.6488470
 135.4156460 131.7222490 132.0623870 134.0995550 131.0406020 132.3708380
 138.7187760 131.3894680 114.2828460 139.5116370 131.6783510 113.8310250
 138.1992110 130.9586850 113.6040940 143.4508360 127.5090310 131.5963880
 142.8446520 127.5321910 130.8559630 143.1462470 126.7773350 132.1331130
 144.8808730 131.2370600 130.2073290 145.8330480 131.1528620 130.1573530
 144.7336950 131.9012310 130.8807080 147.7717930 130.6164810 115.7065200
 147.4859440 130.2029950 114.8919380 147.5737480 131.5452520 115.5865720
 132.3341540 123.8883900 130.5924520 132.8380560 123.3091180 131.1640750
 131.5948960 124.1724130 131.1300890 139.2365160 126.6098090 114.1470810
 139.1315800 125.9950440 114.8732190 139.0689380 126.0863980 113.3633820
 139.3879480 125.2954890 130.1260040 138.6225150 125.8639890 130.0414710
 139.5695440 125.0031100 129.2328270 142.4767890 125.6718120 114.7512800
 141.9277990 126.1187420 115.3955540 143.0987150 125.1667370 115.2750470
 146.5302830 127.0260220 130.6835060 147.2712300 127.3635980 130.1802520
 145.7675510 127.1952280 130.1304830 134.3664620 122.0313490 131.4874590
 134.4069960 121.7327360 132.3959820 135.2210120 122.4321100 131.3282110
 138.1443010 124.6309040 116.6478100 138.5659430 124.4648910 117.4909490
 138.2693850 123.8209270 116.1533240 136.3070430 120.6105590 129.4549080
 135.7766890 120.1196540 128.8272420 136.9758500 121.0389790 128.9207010
 140.6570650 123.6546650 113.8955200 141.1776310 122.9395670 113.5296350
 141.3039050 124.2932520 114.1955710 145.2048490 125.0775050 129.2190270
 145.6189510 125.2320130 130.0680690 144.2699490 125.2030270 129.3816050
 145.6770660 122.4171210 131.2229420 146.2591430 121.6623530 131.1349900
 145.8532430 122.9478650 130.4460900 136.7942730 117.5767960 129.5346370
 136.6999600 116.9588710 128.8097240 136.2140120 118.3034250 129.3076280
 139.5604170 116.1341200 126.5673760 139.1121470 116.1565460 125.7219310
 138.9269370 115.7360220 127.1644060 139.9663720 125.0295530 127.1886200
 140.3851830 125.8728260 127.0162440 139.0472350 125.1667570 126.9592980
 142.3027620 122.7611710 128.5724040 142.4223830 122.1652850 129.3118880
 143.1621620 122.7981400 128.1525340 144.6415520 123.3148900 127.1486550
 144.1150740 123.8391520 126.5451690 144.9846860 123.9476290 127.7796280
 137.0401910 120.7042270 113.5936260 136.8390970 119.8409630 113.9549600
 136.8693960 120.6175630 112.6557860 137.8171140 131.3348540 128.3043930
 137.2792230 132.0594600 127.9852630 138.0705100 130.8578880 127.5141270
 139.0696390 119.3033060 129.8299860 139.6596080 118.9948910 130.5177680
 138.2516630 118.8312810 129.9859760 143.8889820 118.9198870 130.0632880
 143.2005340 118.2580410 129.9982870 144.6095840 118.4737140 130.5081340
 144.5190220 115.5150500 116.1223140 144.7992510 114.6718400 116.4782560
 143.7455950 115.7473610 116.6361890 135.8384710 117.8042890 113.5814140
 136.1410610 117.8110320 112.6733290 136.5779300 117.4540750 114.0781800
 140.6733350 132.5699750 128.5630580 140.5992050 133.4734890 128.8702950
 139.7712190 132.2511650 128.5352650 139.0569640 116.7477510 114.5670340
 138.7091640 116.0701500 113.9872790 139.2582410 116.2867020 115.3813730
 141.2218680 131.7358260 116.1856940 142.1169470 132.0743230 116.2075700
 141.2536310 131.0137670 115.5581220 134.8614840 127.1085310 114.4143940
 135.2989710 127.6514980 115.0701520 135.3462570 126.2832260 114.4240280
 132.0760640 129.8974340 121.8664200 132.4063650 129.0295400 121.6342840
 132.5051640 130.1032860 122.6969160 136.6722560 128.2283350 119.5266170
 136.3718100 128.1048320 120.4270080 136.5660050 127.3691940 119.1181900
 132.5650850 130.7644930 124.6045830 132.1281840 130.9445730 125.4369980
 133.1328530 131.5219550 124.4627550 148.2013030 130.2661930 128.8923140
 147.6015020 130.3254490 128.1487060 148.3306930 129.3266910 129.0219990
 132.3975280 123.2765160 120.9634710 131.7424120 123.0076800 120.3194410
 133.2353230 123.1669640 120.5136690 146.8864670 126.9913910 126.9899300
 146.0724510 127.4211070 127.2525090 147.2938870 127.6032320 126.3768350
 145.3465720 118.0706450 115.1853200 145.7650600 117.8837430 114.3449860
 145.0401780 117.2185500 115.4956130 133.4351210 123.6617730 125.5038050
 133.8024250 123.5745130 126.3834070 132.8662030 122.8984280 125.4044910
 148.2355070 122.1302110 128.5168520 148.0041160 121.9014860 127.6166470
 148.4959620 123.0501660 128.4713410 132.9867210 120.5726820 129.4096470
 132.0923260 120.5393580 129.7490180 133.5264760 120.7713610 130.1747720
 146.6743140 117.3558540 131.2948220 147.5513320 117.3641940 131.6782220
 146.6863980 116.6189380 130.6840570 131.6113360 120.4864090 116.9060040
 130.7077440 120.7494290 116.7311700 132.0953980 120.7575260 116.1260000
 148.2996130 121.2927950 125.7055790 147.3498840 121.2591490 125.8200780
 148.4809140 122.2028060 125.4705560 134.1540570 119.5429630 114.8154420
 134.8632270 119.1212850 114.3301700 133.4380510 119.6104860 114.1837770
 133.8014730 115.5968960 113.8557070 134.5242860 116.1377900 114.1738290
 134.0739250 115.3232380 112.9798610 147.6106380 120.4661430 118.1228650
 148.1065500 120.2332300 118.9077530 147.4122450 119.6273270 117.7066290
 133.4906920 114.8475150 123.7579690 134.1383110 114.2972530 123.3174850
 133.9108760 115.1018300 124.5795500 147.3859260 115.0416510 127.1149330
 148.0231480 115.6550650 127.4808520 147.5334150 115.0777170 126.1698560
 146.9440720 131.7432510 120.5167570 147.5399790 131.4217080 119.8401990
 147.2018870 131.2704330 121.3080840 133.2438920 115.0030820 126.5005010
 132.8953740 115.4594640 127.2663190 132.9126620 114.1087950 126.5827440
 134.8503290 128.1750420 130.6658200 134.8072920 127.8043330 131.5472660
 134.9814300 129.1127990 130.8060020 138.5509320 129.7310010 126.2667920
 138.3100680 129.9984570 125.3798440 139.4911960 129.9015740 126.3218780
 140.7563740 116.1942700 130.0224430 140.6952630 116.7864530 130.7719840
 141.6964120 116.0868660 129.8774690 143.3938300 115.8512760 129.6616720
 144.0078710 116.1692050 128.9997800 143.9387860 115.3661350 130.2812580
 133.9159560 114.5307020 129.7755780 134.4642550 114.3495070 129.0121890
 133.9814870 113.7401130 130.3112090 134.6891320 131.1212670 127.7855980
 134.0951640 130.9897370 128.5246020 134.6815160 130.2850810 127.3198080
 144.1346340 114.4144900 125.9886010 143.2606180 114.7480010 125.7858940
 144.0257090 113.9418080 126.8137880 145.0418320 116.6215770 127.3727730
 144.7131680 115.8067530 126.9929460 145.9900620 116.5785580 127.2493420
 147.4952930 132.3927810 124.3465300 147.0355900 133.1443620 123.9723320
 146.8665390 131.6734280 124.2880100 134.3203550 128.4871050 126.7364020
 133.5937610 127.8676340 126.6689970 134.3812700 128.8811660 125.8662100
 137.9248650 130.7016050 123.5213430 138.4413670 130.0903410 122.9961690
 138.5746030 131.2044830 124.0124440 140.6644150 131.5924540 124.3482410
 140.9521960 131.3378840 123.4715420 141.1767370 131.0401900 124.9387980
 141.8821160 115.3314740 124.9278920 141.0992950 115.8060240 125.2075680
 141.5884090 114.4269570 124.8192100 146.4342230 116.0337840 122.9728010
 146.8750320 115.9782940 122.1249610 146.1649820 116.9495850 123.0438190
 132.6033550 131.8045440 119.9460780 132.4355590 131.1716120 120.6442670
 131.7368060 132.0104840 119.5954970 133.2261570 115.6362220 117.4492640
 133.9840930 115.7491100 116.8756670 132.7638740 116.4731420 117.4036070
 139.7675380 117.7501490 120.4394950 138.9549890 117.3758380 120.0990830
 140.2717020 116.9946570 120.7416140 144.2700360 114.4143940 121.6778020
 144.8729730 114.9864150 122.1526540 143.5293350 114.9783380 121.4551920
 147.4134960 114.8165500 116.9518300 147.6085590 115.7148950 117.2185730
 146.6264830 114.5852580 117.4451250 134.2096250 130.4978670 117.3910920
 133.6843870 130.8786700 116.6872880 134.1340830 131.1229440 118.1120630
 135.5986720 116.1626270 115.9894610 136.1279480 115.3756070 115.8602560
 136.2315040 116.8417460 116.2230140 137.7924560 115.9001410 119.0440000
 137.1627300 115.1988720 119.2110130 137.2529700 116.6605540 118.8273160
 140.7316510 132.5140640 131.7150610 141.6583820 132.2784910 131.7586570
 140.7166940 133.3412640 131.2336640 137.9180120 115.1785390 131.4792490
 137.6364390 115.6818990 130.7153310 138.2999820 114.3807140 131.1134620
 136.8089220 132.4461050 116.2660170 137.5408040 132.1620330 115.7184060
 137.0682890 132.2074330 117.1559550 135.9704010 128.5625780 116.2706500
 135.3412890 129.0310880 116.8192330 136.0851840 127.7175000 116.7052690
 144.5195580 114.5938970 132.0572960 144.4061030 114.9133580 132.9524480
 145.3365320 114.9951480 131.7610240 147.2994070 131.7410500 131.5391650
 148.0919390 131.2459730 131.3317610 147.5927220 132.4200640 132.1467260
 143.4253730 122.6131440 102.4207700 143.3447780 121.6986050 102.1499410
 143.0118150 123.1098510 101.7147410 141.5571770 124.3910460 104.3016970
 140.7813870 123.9110900 104.5915540 142.2084700 123.7116110 104.1273130
 135.5737600 124.7030270 105.1792730 134.7422480 124.4478980 105.5789240
 136.1818580 124.7741040 105.9150650 145.5779200 128.7970650 103.0816100
 145.1160730 128.0257890 103.4103270 146.3904750 128.8236720 103.5868550
 135.5538860 128.7370360 105.3750750 135.8566900 127.8468100 105.1960970
 136.2982450 129.2940580 105.1473000 133.9829550 119.6632160  98.9635120
 133.0946250 120.0048130  98.8615000 134.2670740 119.4632480  98.0715950
 131.9462560 122.2637810 104.8474820 132.5178670 121.4960010 104.8478460
 131.9464100 122.5626570 103.9381430 141.8042510 131.0828660 102.7020090
 141.1853950 131.5386160 102.1314530 142.6594290 131.2380120 102.3009790
 140.9980760 127.0667650 104.3087130 140.9289040 126.1257590 104.1476260
 141.7600620 127.1569060 104.8809700 133.1887430 117.6722170 106.6343750
 133.0090270 116.7747920 106.9146510 132.7867510 118.2194040 107.3090700
 142.0285930 119.8738030 104.5356060 142.4050750 119.0009910 104.4229730
 141.9305440 120.2096730 103.6446500 136.1590940 118.2463660  99.9973500
 136.2657690 119.1467390 100.3042260 135.2483300 118.1981630  99.7068150
 145.8110050 117.3688470 101.4684400 146.6319670 116.8785040 101.5109880
 145.8444130 117.9586130 102.2216240 133.8074100 120.1682670 105.2426090
 134.4884210 120.4321040 105.8613490 133.4922150 119.3283540 105.5764100
 137.9998670 121.2150030 104.3298680 138.5076890 121.7131000 104.9703700
 138.5311910 120.4385230 104.1538040 136.2834770 115.8548590 108.5962100
 136.2853210 116.3720980 107.7908000 135.4539080 115.3778770 108.5732030
 142.6705860 125.9667900 100.0952000 142.0523130 126.4317350  99.5314720
 143.1829110 126.6595380 100.5121510 137.5337620 125.4943770 106.7735600
 137.2007000 126.1212690 107.4156670 137.7104300 126.0205650 105.9937270
 146.0471530 119.3088850 104.2411940 145.3427100 119.5973740 104.8215050
 146.4083690 120.1188960 103.8811500 135.9650100 117.5658550 106.6032550
 136.3066910 118.4100600 106.3086420 135.0265910 117.7142290 106.7197890
 136.7456720 127.4624570 108.5884780 137.3630720 128.1375650 108.3069230
 135.8849840 127.8712550 108.4972280 132.0389060 126.6524430  97.4691630
 131.6617040 127.1411530  96.7376530 132.2962130 127.3249710  98.0998160
 147.6634310 128.9263980 106.5039420 146.9797830 129.5963090 106.4956090
 148.2028600 129.1244630 105.7384280 139.6477990 115.0540820 102.9277140
 139.9552970 114.4987710 102.2112640 138.7178690 115.1885280 102.7450130
 145.1993050 130.7708110 105.2184600 145.2120210 130.3670400 104.3506860
 144.6468270 131.5455400 105.1146030 146.4938470 127.4924330 100.3074770
 146.3834800 126.5498660 100.4324190 146.4906720 127.8539970 101.1937530
 144.5978490 125.6737950 106.5467210 145.0147280 125.4598060 105.7120670
 145.3218310 125.9310740 107.1175830 142.0358750 123.1189650  99.6637260
 141.1088030 123.0527030  99.8925730 142.1883570 124.0569780  99.5492500
 142.0227830 119.3906650  96.6604420 141.0831500 119.5520610  96.7456880
 142.3411090 120.1092330  96.1140410 146.0656040 124.6809950 100.1672510
 145.4468460 124.3429500  99.5198810 146.0480490 124.0369710 100.8751700
 145.5082600 120.8594490 107.5838320 145.0953780 121.6848200 107.8378310
 144.7758550 120.2739530 107.3914680 137.6415390 123.6454390 102.4456990
 137.2372390 122.9331640 101.9502890 137.7278510 123.3007630 103.3345030
 138.1097090 127.3321950 104.6096200 137.8125380 126.7267420 103.9303980
 139.0596910 127.3699260 104.4985560 136.3544010 120.4197600 106.2256030
 136.9058600 120.5292940 105.4509280 136.8687520 120.7935200 106.9411260
 146.1982700 130.9053820 108.2719300 145.7213260 131.7126010 108.0791910
 145.5144490 130.2532150 108.4245510 137.2015520 127.0703640 111.2604000
 136.3044050 127.2943610 111.5077400 137.2268390 127.1938580 110.3115400
 144.2420740 123.9196760  97.1745260 144.6814020 123.0819190  97.0283080
 144.9549160 124.5526160  97.2609400 136.0286740 123.9416960 109.8361370
 135.8894510 124.8139760 110.2048770 135.1468100 123.5989770 109.6909310
 142.3516120 128.8592830 101.1426500 142.7912030 129.6017160 100.7281890
 142.2903010 129.1019400 102.0665460 137.8267090 129.8838660 112.0446520
 137.7982520 130.2881610 111.1774950 137.6632060 128.9549020 111.8818120
 147.8237880 115.1739570  95.4886300 147.5110540 115.2666400  96.3885370
 148.5850350 115.7520600  95.4383730 134.3420020 122.5399370  99.9463640
 134.2217620 123.2661460  99.3344910 134.0320910 121.7702280  99.4691550
 131.9805390 125.7114510 105.7532280 132.0585810 125.8463280 104.8088000
 132.5947070 125.0030400 105.9460400 133.2253020 127.4114700 102.1638460
 132.8181100 127.5529290 101.3092060 134.1166030 127.1274860 101.9609670
 143.0431900 131.5606610 109.0705510 143.5576570 131.4714620 109.8727940
 142.2000980 131.9066310 109.3633420 145.0186300 131.8461950  98.4989510
 144.8587440 131.5564890  99.3971340 144.8533010 131.0702080  97.9634740
 137.4974680 131.6260480 100.2761130 137.3217160 130.7096020 100.0628930
 136.6430420 131.9847770 100.5158930 144.7212430 129.3549510  97.0587510
 144.0277590 129.3526800  96.3989790 145.4635290 128.9308830  96.6281680
 144.2862360 130.9812220 101.1336000 144.7419310 130.2001600 101.4474620
 144.6254880 131.6919040 101.6777180 132.0364910 126.7528680 108.2926740
 132.1995950 126.2834040 107.4746110 132.5017360 126.2452240 108.9575580
 136.8083680 115.8834440 103.3287310 136.3651830 116.6643980 102.9971830
 137.3668670 116.2064330 104.0358250 141.0953490 118.7502960 108.9322630
 140.6332860 118.9585980 109.7442570 140.6931600 117.9362310 108.6293300
 146.0958000 119.9711910 110.0619290 145.2451590 119.6717660 110.3828360
 145.9359790 120.2153920 109.1503110 143.1907710 121.4713660 112.1618080
 143.5161120 120.6377410 111.8220310 143.9788040 121.9942180 112.3096410
 139.9242500 115.5045140  98.2093140 139.2996680 115.5005010  98.9346450
 139.8372620 114.6376100  97.8129110 138.8459580 116.4281770 105.1876910
 139.1431910 117.3344600 105.1068930 139.3945140 115.9400550 104.5736480
 136.5997900 121.0068010 101.0568560 136.3738820 120.7905180 101.9615180
 135.8190430 121.4396470 100.7114530 143.8295660 121.0131380  99.6559210
 143.2304550 121.7367180  99.4722830 144.3775270 120.9508160  98.8735660
 139.0397110 121.9053590 111.7228830 138.9440710 120.9648320 111.5729230
 139.8829090 122.1268660 111.3276900 142.4360530 119.6494920 101.6862490
 142.8290100 119.9667120 100.8731180 142.7977380 118.7706800 101.8007010
 134.1707650 118.3167260 109.8762610 133.7771040 119.1642470 110.0835390
 133.4826050 117.6793630 110.0671250 140.7452700 118.4002230 112.9459350
 140.0551020 118.2074430 113.5805440 141.4885000 118.6836870 113.4783650
 131.4724700 116.2395720 103.9092690 131.1837750 116.8098580 104.6217670
 132.2170460 115.7600170 104.2723920 131.6594930 120.1815840  95.1195410
 131.5769600 121.1246600  95.2610400 131.3077990 120.0390750  94.2407760
 143.0215670 122.2400670 105.7813270 142.2896790 122.7487480 106.1303370
 142.6240010 121.4230650 105.4802050 139.4593060 118.9154870 104.1865760
 139.4629120 118.4744820 103.3370300 140.3544180 119.2372200 104.2937580
 135.3095440 118.7981360 103.1459970 134.9695490 119.2756590 103.9027020
 134.5472760 118.3446480 102.7861070 139.5213210 119.9166950  97.1772520
 139.6426030 119.8753430  98.1258340 139.1361720 120.7791100  97.0219250
 143.4841580 117.6934350 105.1936210 143.5014320 118.1443000 106.0378060
 143.2357160 116.7939990 105.4069650 138.5334710 122.2268090  96.5755820
 137.9651610 121.7786340  95.9491730 139.2423710 122.5860870  96.0420970
 146.9112330 115.1066530 111.0322590 147.2358100 114.3756190 111.5580570
 146.9468840 114.7880170 110.1303580 133.6103890 126.1280110 110.4522550
 133.2258680 125.4873780 111.0505510 133.9216080 126.8316230 111.0217280
 139.7601030 122.9756650 105.9331170 140.1271160 122.5015220 106.6792510
 139.5706090 123.8498220 106.2739510 132.6241520 117.7200340 102.0624640
 132.3388440 117.3556010 102.9003260 132.5620380 116.9880800 101.4487780
 137.5500400 122.0165290 108.2515380 137.2457470 122.8957270 108.4765740
 138.5046860 122.0765080 108.2872820 136.0782190 126.2226280  98.8482230
 135.3044450 125.6823900  98.6880950 136.8076820 125.7032890  98.5099990
 146.8370170 125.2191640 104.6408620 147.5569290 125.7146930 104.2504730
 146.6351990 124.5409530 103.9962490 142.2980110 116.6129600  98.7838010
 141.4844720 116.1142770  98.7083320 142.1042060 117.4527850  98.3674360
 142.2188970 125.2900700 110.5277620 142.1526280 124.3696370 110.2735210
 141.5894110 125.3876140 111.2422260 145.0128500 120.9849250  97.0800170
 145.9008120 121.2966480  96.9051510 144.9833590 120.1121500  96.6880750
 136.1219590 125.8906660 102.4861040 136.6398260 125.0874920 102.4317930
 135.6703610 125.8285800 103.3277870 141.0089090 127.1572940  97.7588340
 141.3504790 127.9015170  97.2631660 140.1801800 127.4704060  98.1213170
 133.6064130 122.8568030 109.3986740 133.2479070 123.5221880 109.9860080
 133.3118690 122.0251580 109.7699360 136.8077250 123.3152270 112.2826290
 136.5077390 123.4609450 111.3854110 137.5788490 122.7557560 112.1899680
 142.1505700 128.1121270 110.2781420 142.1650240 127.1802230 110.0600330
 141.4430800 128.1981030 110.9171190 147.2842770 122.2961090  96.5480030
 147.2006490 122.7275310  95.6976470 148.0036960 122.7559440  96.9806850
 148.3130020 129.1503350  99.2762160 147.6706180 128.4958970  99.5505880
 147.9260680 129.5558440  98.5002830 143.8916500 126.4788780 103.1233850
 144.2440320 125.8816910 102.4635220 143.0078830 126.1533010 103.2942100
 139.9779780 127.2386470 100.5304260 140.6650910 127.7855680 100.9111850
 139.1912200 127.7827200 100.5653870 132.1172180 122.8559290  96.0221340
 132.9867030 123.1384090  96.3057260 131.6262500 123.6695160  95.9070150
 139.2806990 124.2432500 100.1429620 139.7369770 125.0537750 100.3689810
 138.9295200 123.9255640 100.9748110 141.5839600 129.7538840 107.3721920
 142.2281820 129.9598220 108.0495340 141.9469040 128.9927240 106.9192770
 135.1818770 114.5870150 100.6152140 135.0533400 114.5788050 101.5637060
 134.3580790 114.9253240 100.2643150 142.8571680 127.7571190 106.0899370
 143.4993910 127.0564350 106.2031540 143.3821030 128.5369630 105.9096260
 146.7027400 128.0419810  95.8138510 146.4764980 127.3250250  96.4063150
 146.3123600 127.7932250  94.9760260 144.6309300 128.5566090 109.2935430
 144.9665540 129.1432780 109.9713350 143.7109640 128.4258800 109.5233220
 132.4843430 132.0686670  96.5882970 132.8441070 132.6676010  95.9340240
 132.3435770 132.6146560  97.3618000 132.1812700 116.3461270 110.0758840
 131.4671220 116.5458190 110.6811450 132.6007740 115.5700840 110.4473640
 146.2843650 125.9591750  97.4752670 145.9965350 126.4204440  98.2630550
 147.0795820 125.4989520  97.7436890 132.4685290 130.3341530 111.0625370
 132.5776410 129.3936270 110.9220760 131.8165850 130.5996280 110.4139100
 140.4597880 128.6057420 112.4623490 140.1394750 127.8866660 113.0069180
 139.7856240 129.2812490 112.5359550 138.5012050 129.4517870  97.4056640
 138.4922150 130.1847560  96.7901150 137.5810410 129.2049450  97.4983600
 134.1018690 124.6732760  98.1503400 133.4946640 125.4131660  98.1598700
 134.5768040 124.7632120  97.3241600 143.6751480 118.8383580 107.8260290
 144.0432300 118.0178790 108.1539860 142.8149680 118.8985470 108.2415940
 147.0413510 117.7940520  98.6347850 146.4126670 117.8986190  97.9206080
 146.5465430 118.0137300  99.4241730 141.4871650 129.5146110  96.0681830
 141.5883630 129.3110100  95.1383810 140.5873390 129.2604390  96.2729610
 139.0097540 120.0726470 100.0505730 138.3013690 120.5412810 100.4919340
 139.2942020 119.4148480 100.6850920 140.6353470 121.4923170 108.0498260
 141.1338720 121.9668990 108.7150110 140.7776420 120.5686690 108.2568290
 143.0412970 116.7977130 101.4901520 142.9180750 116.8163260 100.5411030
 143.9897530 116.8456070 101.6099920 140.1289760 132.0332430 100.7629500
 140.3831260 131.9953820  99.8408870 139.1802240 131.9065760 100.7557750
 137.2132560 118.3811550  97.4256440 138.0623090 118.8181700  97.3596630
 136.8463830 118.6931810  98.2528500 147.8420330 117.7091130 108.8926650
 147.3393930 118.4496530 109.2320460 148.6576990 118.0975130 108.5763440
 146.1342340 122.9524310 102.3388010 145.1932480 122.9674540 102.5135700
 146.4486410 122.1660270 102.7848310 136.1123980 124.6343910  95.8991970
 136.8787250 124.5225270  96.4617400 136.1898670 123.9381880  95.2468740
 134.8070740 122.0668980  96.5824860 134.8874330 121.1196490  96.6942260
 135.6990490 122.3975860  96.6885520 135.6085450 132.2164370 103.6859400
 136.3447930 131.6679830 103.9567970 135.9926370 133.0820380 103.5465390
 132.4930930 128.2837940  99.5600910 131.5670710 128.5259080  99.5506320
 132.9587360 129.1112200  99.4385660 134.6143730 131.4010440 112.8744980
 135.4156460 131.7222490 113.2880380 134.0995550 131.0406020 113.5964890
 138.7187760 131.3894680  95.5084970 139.5116370 131.6783510  95.0566760
 138.1992110 130.9586850  94.8297450 143.4508360 127.5090310 112.8220390
 142.8446520 127.5321910 112.0816140 143.1462470 126.7773350 113.3587640
 144.8808730 131.2370600 111.4329800 145.8330480 131.1528620 111.3830040
 144.7336950 131.9012310 112.1063590 147.7717930 130.6164810  96.9321710
 147.4859440 130.2029950  96.1175890 147.5737480 131.5452520  96.8122230
 132.3341540 123.8883900 111.8181030 132.8380560 123.3091180 112.3897260
 131.5948960 124.1724130 112.3557400 139.2365160 126.6098090  95.3727320
 139.1315800 125.9950440  96.0988700 139.0689380 126.0863980  94.5890330
 139.3879480 125.2954890 111.3516550 138.6225150 125.8639890 111.2671220
 139.5695440 125.0031100 110.4584780 142.4767890 125.6718120  95.9769310
 141.9277990 126.1187420  96.6212050 143.0987150 125.1667370  96.5006980
 146.5302830 127.0260220 111.9091570 147.2712300 127.3635980 111.4059030
 145.7675510 127.1952280 111.3561340 134.3664620 122.0313490 112.7131100
 134.4069960 121.7327360 113.6216330 135.2210120 122.4321100 112.5538620
 138.1443010 124.6309040  97.8734610 138.5659430 124.4648910  98.7166000
 138.2693850 123.8209270  97.3789750 136.3070430 120.6105590 110.6805590
 135.7766890 120.1196540 110.0528930 136.9758500 121.0389790 110.1463520
 140.6570650 123.6546650  95.1211710 141.1776310 122.9395670  94.7552860
 141.3039050 124.2932520  95.4212220 145.2048490 125.0775050 110.4446780
 145.6189510 125.2320130 111.2937200 144.2699490 125.2030270 110.6072560
 145.6770660 122.4171210 112.4485930 146.2591430 121.6623530 112.3606410
 145.8532430 122.9478650 111.6717410 136.7942730 117.5767960 110.7602880
 136.6999600 116.9588710 110.0353750 136.2140120 118.3034250 110.5332790
 139.5604170 116.1341200 107.7930270 139.1121470 116.1565460 106.9475820
 138.9269370 115.7360220 108.3900570 139.9663720 125.0295530 108.4142710
 140.3851830 125.8728260 108.2418950 139.0472350 125.1667570 108.1849490
 142.3027620 122.7611710 109.7980550 142.4223830 122.1652850 110.5375390
 143.1621620 122.7981400 109.3781850 144.6415520 123.3148900 108.3743060
 144.1150740 123.8391520 107.7708200 144.9846860 123.9476290 109.0052790
 137.0401910 120.7042270  94.8192770 136.8390970 119.8409630  95.1806110
 136.8693960 120.6175630  93.8814370 137.8171140 131.3348540 109.5300440
 137.2792230 132.0594600 109.2109140 138.0705100 130.8578880 108.7397780
 139.0696390 119.3033060 111.0556370 139.6596080 118.9948910 111.7434190
 138.2516630 118.8312810 111.2116270 143.8889820 118.9198870 111.2889390
 143.2005340 118.2580410 111.2239380 144.6095840 118.4737140 111.7337850
 144.5190220 115.5150500  97.3479650 144.7992510 114.6718400  97.7039070
 143.7455950 115.7473610  97.8618400 135.8384710 117.8042890  94.8070650
 136.1410610 117.8110320  93.8989800 136.5779300 117.4540750  95.3038310
 140.6733350 132.5699750 109.7887090 140.5992050 133.4734890 110.0959460
 139.7712190 132.2511650 109.7609160 139.0569640 116.7477510  95.7926850
 138.7091640 116.0701500  95.2129300 139.2582410 116.2867020  96.6070240
 141.2218680 131.7358260  97.4113450 142.1169470 132.0743230  97.4332210
 141.2536310 131.0137670  96.7837730 134.8614840 127.1085310  95.6400450
 135.2989710 127.6514980  96.2958030 135.3462570 126.2832260  95.6496790
 132.0760640 129.8974340 103.0920710 132.4063650 129.0295400 102.8599350
 132.5051640 130.1032860 103.9225670 136.6722560 128.2283350 100.7522680
 136.3718100 128.1048320 101.6526590 136.5660050 127.3691940 100.3438410
 132.5650850 130.7644930 105.8302340 132.1281840 130.9445730 106.6626490
 133.1328530 131.5219550 105.6884060 148.2013030 130.2661930 110.1179650
 147.6015020 130.3254490 109.3743570 148.3306930 129.3266910 110.2476500
 132.3975280 123.2765160 102.1891220 131.7424120 123.0076800 101.5450920
 133.2353230 123.1669640 101.7393200 146.8864670 126.9913910 108.2155810
 146.0724510 127.4211070 108.4781600 147.2938870 127.6032320 107.6024860
 145.3465720 118.0706450  96.4109710 145.7650600 117.8837430  95.5706370
 145.0401780 117.2185500  96.7212640 133.4351210 123.6617730 106.7294560
 133.8024250 123.5745130 107.6090580 132.8662030 122.8984280 106.6301420
 148.2355070 122.1302110 109.7425030 148.0041160 121.9014860 108.8422980
 148.4959620 123.0501660 109.6969920 132.9867210 120.5726820 110.6352980
 132.0923260 120.5393580 110.9746690 133.5264760 120.7713610 111.4004230
 146.6743140 117.3558540 112.5204730 147.5513320 117.3641940 112.9038730
 146.6863980 116.6189380 111.9097080 131.6113360 120.4864090  98.1316550
 130.7077440 120.7494290  97.9568210 132.0953980 120.7575260  97.3516510
 148.2996130 121.2927950 106.9312300 147.3498840 121.2591490 107.0457290
 148.4809140 122.2028060 106.6962070 134.1540570 119.5429630  96.0410930
 134.8632270 119.1212850  95.5558210 133.4380510 119.6104860  95.4094280
 133.8014730 115.5968960  95.0813580 134.5242860 116.1377900  95.3994800
 134.0739250 115.3232380  94.2055120 147.6106380 120.4661430  99.3485160
 148.1065500 120.2332300 100.1334040 147.4122450 119.6273270  98.9322800
 133.4906920 114.8475150 104.9836200 134.1383110 114.2972530 104.5431360
 133.9108760 115.1018300 105.8052010 147.3859260 115.0416510 108.3405840
 148.0231480 115.6550650 108.7065030 147.5334150 115.0777170 107.3955070
 146.9440720 131.7432510 101.7424080 147.5399790 131.4217080 101.0658500
 147.2018870 131.2704330 102.5337350 133.2438920 115.0030820 107.7261520
 132.8953740 115.4594640 108.4919700 132.9126620 114.1087950 107.8083950
 134.8503290 128.1750420 111.8914710 134.8072920 127.8043330 112.7729170
 134.9814300 129.1127990 112.0316530 138.5509320 129.7310010 107.4924430
 138.3100680 129.9984570 106.6054950 139.4911960 129.9015740 107.5475290
 140.7563740 116.1942700 111.2480940 140.6952630 116.7864530 111.9976350
 141.6964120 116.0868660 111.1031200 143.3938300 115.8512760 110.8873230
 144.0078710 116.1692050 110.2254310 143.9387860 115.3661350 111.5069090
 133.9159560 114.5307020 111.0012290 134.4642550 114.3495070 110.2378400
 133.9814870 113.7401130 111.5368600 134.6891320 131.1212670 109.0112490
 134.0951640 130.9897370 109.7502530 134.6815160 130.2850810 108.5454590
 144.1346340 114.4144900 107.2142520 143.2606180 114.7480010 107.0115450
 144.0257090 113.9418080 108.0394390 145.0418320 116.6215770 108.5984240
 144.7131680 115.8067530 108.2185970 145.9900620 116.5785580 108.4749930
 147.4952930 132.3927810 105.5721810 147.0355900 133.1443620 105.1979830
 146.8665390 131.6734280 105.5136610 134.3203550 128.4871050 107.9620530
 133.5937610 127.8676340 107.8946480 134.3812700 128.8811660 107.0918610
 137.9248650 130.7016050 104.7469940 138.4413670 130.0903410 104.2218200
 138.5746030 131.2044830 105.2380950 140.6644150 131.5924540 105.5738920
 140.9521960 131.3378840 104.6971930 141.1767370 131.0401900 106.1644490
 141.8821160 115.3314740 106.1535430 141.0992950 115.8060240 106.4332190
 141.5884090 114.4269570 106.0448610 146.4342230 116.0337840 104.1984520
 146.8750320 115.9782940 103.3506120 146.1649820 116.9495850 104.2694700
 132.6033550 131.8045440 101.1717290 132.4355590 131.1716120 101.8699180
 131.7368060 132.0104840 100.8211480 133.2261570 115.6362220  98.6749150
 133.9840930 115.7491100  98.1013180 132.7638740 116.4731420  98.6292580
 139.7675380 117.7501490 101.6651460 138.9549890 117.3758380 101.3247340
 140.2717020 116.9946570 101.9672650 144.2700360 114.4143940 102.9034530
 144.8729730 114.9864150 103.3783050 143.5293350 114.9783380 102.6808430
 147.4134960 114.8165500  98.1774810 147.6085590 115.7148950  98.4442240
 146.6264830 114.5852580  98.6707760 134.2096250 130.4978670  98.6167430
 133.6843870 130.8786700  97.9129390 134.1340830 131.1229440  99.3377140
 135.5986720 116.1626270  97.2151120 136.1279480 115.3756070  97.0859070
 136.2315040 116.8417460  97.4486650 137.7924560 115.9001410 100.2696510
 137.1627300 115.1988720 100.4366640 137.2529700 116.6605540 100.0529670
 140.7316510 132.5140640 112.9407120 141.6583820 132.2784910 112.9843080
 140.7166940 133.3412640 112.4593150 137.9180120 115.1785390 112.7049000
 137.6364390 115.6818990 111.9409820 138.2999820 114.3807140 112.3391130
 136.8089220 132.4461050  97.4916680 137.5408040 132.1620330  96.9440570
 137.0682890 132.2074330  98.3816060 135.9704010 128.5625780  97.4963010
 135.3412890 129.0310880  98.0448840 136.0851840 127.7175000  97.9309200
 144.5195580 114.5938970 113.2829470 144.4061030 114.9133580 114.1780990
 145.3365320 114.9951480 112.9866750 147.2994070 131.7410500 112.7648160
 148.0919390 131.2459730 112.5574120 147.5927220 132.4200640 113.3723770
 143.4253730 122.6131440  83.6464210 143.3447780 121.6986050  83.3755920
 143.0118150 123.1098510  82.9403920 141.5571770 124.3910460  85.5273480
 140.7813870 123.9110900  85.8172050 142.2084700 123.7116110  85.3529640
 135.5737600 124.7030270  86.4049240 134.7422480 124.4478980  86.8045750
 136.1818580 124.7741040  87.1407160 145.5779200 128.7970650  84.3072610
 145.1160730 128.0257890  84.6359780 146.3904750 128.8236720  84.8125060
 135.5538860 128.7370360  86.6007260 135.8566900 127.8468100  86.4217480
 136.2982450 129.2940580  86.3729510 133.9829550 119.6632160  80.1891630
 133.0946250 120.0048130  80.0871510 134.2670740 119.4632480  79.2972460
 131.9462560 122.2637810  86.0731330 132.5178670 121.4960010  86.0734970
 131.9464100 122.5626570  85.1637940 141.8042510 131.0828660  83.9276600
 141.1853950 131.5386160  83.3571040 142.6594290 131.2380120  83.5266300
 140.9980760 127.0667650  85.5343640 140.9289040 126.1257590  85.3732770
 141.7600620 127.1569060  86.1066210 133.1887430 117.6722170  87.8600260
 133.0090270 116.7747920  88.1403020 132.7867510 118.2194040  88.5347210
 142.0285930 119.8738030  85.7612570 142.4050750 119.0009910  85.6486240
 141.9305440 120.2096730  84.8703010 136.1590940 118.2463660  81.2230010
 136.2657690 119.1467390  81.5298770 135.2483300 118.1981630  80.9324660
 145.8110050 117.3688470  82.6940910 146.6319670 116.8785040  82.7366390
 145.8444130 117.9586130  83.4472750 133.8074100 120.1682670  86.4682600
 134.4884210 120.4321040  87.0870000 133.4922150 119.3283540  86.8020610
 137.9998670 121.2150030  85.5555190 138.5076890 121.7131000  86.1960210
 138.5311910 120.4385230  85.3794550 136.2834770 115.8548590  89.8218610
 136.2853210 116.3720980  89.0164510 135.4539080 115.3778770  89.7988540
 142.6705860 125.9667900  81.3208510 142.0523130 126.4317350  80.7571230
 143.1829110 126.6595380  81.7378020 137.5337620 125.4943770  87.9992110
 137.2007000 126.1212690  88.6413180 137.7104300 126.0205650  87.2193780
 146.0471530 119.3088850  85.4668450 145.3427100 119.5973740  86.0471560
 146.4083690 120.1188960  85.1068010 135.9650100 117.5658550  87.8289060
 136.3066910 118.4100600  87.5342930 135.0265910 117.7142290  87.9454400
 136.7456720 127.4624570  89.8141290 137.3630720 128.1375650  89.5325740
 135.8849840 127.8712550  89.7228790 132.0389060 126.6524430  78.6948140
 131.6617040 127.1411530  77.9633040 132.2962130 127.3249710  79.3254670
 147.6634310 128.9263980  87.7295930 146.9797830 129.5963090  87.7212600
 148.2028600 129.1244630  86.9640790 139.6477990 115.0540820  84.1533650
 139.9552970 114.4987710  83.4369150 138.7178690 115.1885280  83.9706640
 145.1993050 130.7708110  86.4441110 145.2120210 130.3670400  85.5763370
 144.6468270 131.5455400  86.3402540 146.4938470 127.4924330  81.5331280
 146.3834800 126.5498660  81.6580700 146.4906720 127.8539970  82.4194040
 144.5978490 125.6737950  87.7723720 145.0147280 125.4598060  86.9377180
 145.3218310 125.9310740  88.3432340 142.0358750 123.1189650  80.8893770
 141.1088030 123.0527030  81.1182240 142.1883570 124.0569780  80.7749010
 142.0227830 119.3906650  77.8860930 141.0831500 119.5520610  77.9713390
 142.3411090 120.1092330  77.3396920 146.0656040 124.6809950  81.3929020
 145.4468460 124.3429500  80.7455320 146.0480490 124.0369710  82.1008210
 145.5082600 120.8594490  88.8094830 145.0953780 121.6848200  89.0634820
 144.7758550 120.2739530  88.6171190 137.6415390 123.6454390  83.6713500
 137.2372390 122.9331640  83.1759400 137.7278510 123.3007630  84.5601540
 138.1097090 127.3321950  85.8352710 137.8125380 126.7267420  85.1560490
 139.0596910 127.3699260  85.7242070 136.3544010 120.4197600  87.4512540
 136.9058600 120.5292940  86.6765790 136.8687520 120.7935200  88.1667770
 146.1982700 130.9053820  89.4975810 145.7213260 131.7126010  89.3048420
 145.5144490 130.2532150  89.6502020 137.2015520 127.0703640  92.4860510
 136.3044050 127.2943610  92.7333910 137.2268390 127.1938580  91.5371910
 144.2420740 123.9196760  78.4001770 144.6814020 123.0819190  78.2539590
 144.9549160 124.5526160  78.4865910 136.0286740 123.9416960  91.0617880
 135.8894510 124.8139760  91.4305280 135.1468100 123.5989770  90.9165820
 142.3516120 128.8592830  82.3683010 142.7912030 129.6017160  81.9538400
 142.2903010 129.1019400  83.2921970 137.8267090 129.8838660  93.2703030
 137.7982520 130.2881610  92.4031460 137.6632060 128.9549020  93.1074630
 147.8237880 115.1739570  76.7142810 147.5110540 115.2666400  77.6141880
 148.5850350 115.7520600  76.6640240 134.3420020 122.5399370  81.1720150
 134.2217620 123.2661460  80.5601420 134.0320910 121.7702280  80.6948060
 131.9805390 125.7114510  86.9788790 132.0585810 125.8463280  86.0344510
 132.5947070 125.0030400  87.1716910 133.2253020 127.4114700  83.3894970
 132.8181100 127.5529290  82.5348570 134.1166030 127.1274860  83.1866180
 143.0431900 131.5606610  90.2962020 143.5576570 131.4714620  91.0984450
 142.2000980 131.9066310  90.5889930 145.0186300 131.8461950  79.7246020
 144.8587440 131.5564890  80.6227850 144.8533010 131.0702080  79.1891250
 137.4974680 131.6260480  81.5017640 137.3217160 130.7096020  81.2885440
 136.6430420 131.9847770  81.7415440 144.7212430 129.3549510  78.2844020
 144.0277590 129.3526800  77.6246300 145.4635290 128.9308830  77.8538190
 144.2862360 130.9812220  82.3592510 144.7419310 130.2001600  82.6731130
 144.6254880 131.6919040  82.9033690 132.0364910 126.7528680  89.5183250
 132.1995950 126.2834040  88.7002620 132.5017360 126.2452240  90.1832090
 136.8083680 115.8834440  84.5543820 136.3651830 116.6643980  84.2228340
 137.3668670 116.2064330  85.2614760 141.0953490 118.7502960  90.1579140
 140.6332860 118.9585980  90.9699080 140.6931600 117.9362310  89.8549810
 146.0958000 119.9711910  91.2875800 145.2451590 119.6717660  91.6084870
 145.9359790 120.2153920  90.3759620 143.1907710 121.4713660  93.3874590
 143.5161120 120.6377410  93.0476820 143.9788040 121.9942180  93.5352920
 139.9242500 115.5045140  79.4349650 139.2996680 115.5005010  80.1602960
 139.8372620 114.6376100  79.0385620 138.8459580 116.4281770  86.4133420
 139.1431910 117.3344600  86.3325440 139.3945140 115.9400550  85.7992990
 136.5997900 121.0068010  82.2825070 136.3738820 120.7905180  83.1871690
 135.8190430 121.4396470  81.9371040 143.8295660 121.0131380  80.8815720
 143.2304550 121.7367180  80.6979340 144.3775270 120.9508160  80.0992170
 139.0397110 121.9053590  92.9485340 138.9440710 120.9648320  92.7985740
 139.8829090 122.1268660  92.5533410 142.4360530 119.6494920  82.9119000
 142.8290100 119.9667120  82.0987690 142.7977380 118.7706800  83.0263520
 134.1707650 118.3167260  91.1019120 133.7771040 119.1642470  91.3091900
 133.4826050 117.6793630  91.2927760 140.7452700 118.4002230  94.1715860
 140.0551020 118.2074430  94.8061950 141.4885000 118.6836870  94.7040160
 131.4724700 116.2395720  85.1349200 131.1837750 116.8098580  85.8474180
 132.2170460 115.7600170  85.4980430 131.6594930 120.1815840  76.3451920
 131.5769600 121.1246600  76.4866910 131.3077990 120.0390750  75.4664270
 143.0215670 122.2400670  87.0069780 142.2896790 122.7487480  87.3559880
 142.6240010 121.4230650  86.7058560 139.4593060 118.9154870  85.4122270
 139.4629120 118.4744820  84.5626810 140.3544180 119.2372200  85.5194090
 135.3095440 118.7981360  84.3716480 134.9695490 119.2756590  85.1283530
 134.5472760 118.3446480  84.0117580 139.5213210 119.9166950  78.4029030
 139.6426030 119.8753430  79.3514850 139.1361720 120.7791100  78.2475760
 143.4841580 117.6934350  86.4192720 143.5014320 118.1443000  87.2634570
 143.2357160 116.7939990  86.6326160 138.5334710 122.2268090  77.8012330
 137.9651610 121.7786340  77.1748240 139.2423710 122.5860870  77.2677480
 146.9112330 115.1066530  92.2579100 147.2358100 114.3756190  92.7837080
 146.9468840 114.7880170  91.3560090 133.6103890 126.1280110  91.6779060
 133.2258680 125.4873780  92.2762020 133.9216080 126.8316230  92.2473790
 139.7601030 122.9756650  87.1587680 140.1271160 122.5015220  87.9049020
 139.5706090 123.8498220  87.4996020 132.6241520 117.7200340  83.2881150
 132.3388440 117.3556010  84.1259770 132.5620380 116.9880800  82.6744290
 137.5500400 122.0165290  89.4771890 137.2457470 122.8957270  89.7022250
 138.5046860 122.0765080  89.5129330 136.0782190 126.2226280  80.0738740
 135.3044450 125.6823900  79.9137460 136.8076820 125.7032890  79.7356500
 146.8370170 125.2191640  85.8665130 147.5569290 125.7146930  85.4761240
 146.6351990 124.5409530  85.2219000 142.2980110 116.6129600  80.0094520
 141.4844720 116.1142770  79.9339830 142.1042060 117.4527850  79.5930870
 142.2188970 125.2900700  91.7534130 142.1526280 124.3696370  91.4991720
 141.5894110 125.3876140  92.4678770 145.0128500 120.9849250  78.3056680
 145.9008120 121.2966480  78.1308020 144.9833590 120.1121500  77.9137260
 136.1219590 125.8906660  83.7117550 136.6398260 125.0874920  83.6574440
 135.6703610 125.8285800  84.5534380 141.0089090 127.1572940  78.9844850
 141.3504790 127.9015170  78.4888170 140.1801800 127.4704060  79.3469680
 133.6064130 122.8568030  90.6243250 133.2479070 123.5221880  91.2116590
 133.3118690 122.0251580  90.9955870 136.8077250 123.3152270  93.5082800
 136.5077390 123.4609450  92.6110620 137.5788490 122.7557560  93.4156190
 142.1505700 128.1121270  91.5037930 142.1650240 127.1802230  91.2856840
 141.4430800 128.1981030  92.1427700 147.2842770 122.2961090  77.7736540
 147.2006490 122.7275310  76.9232980 148.0036960 122.7559440  78.2063360
 148.3130020 129.1503350  80.5018670 147.6706180 128.4958970  80.7762390
 147.9260680 129.5558440  79.7259340 143.8916500 126.4788780  84.3490360
 144.2440320 125.8816910  83.6891730 143.0078830 126.1533010  84.5198610
 139.9779780 127.2386470  81.7560770 140.6650910 127.7855680  82.1368360
 139.1912200 127.7827200  81.7910380 132.1172180 122.8559290  77.2477850
 132.9867030 123.1384090  77.5313770 131.6262500 123.6695160  77.1326660
 139.2806990 124.2432500  81.3686130 139.7369770 125.0537750  81.5946320
 138.9295200 123.9255640  82.2004620 141.5839600 129.7538840  88.5978430
 142.2281820 129.9598220  89.2751850 141.9469040 128.9927240  88.1449280
 135.1818770 114.5870150  81.8408650 135.0533400 114.5788050  82.7893570
 134.3580790 114.9253240  81.4899660 142.8571680 127.7571190  87.3155880
 143.4993910 127.0564350  87.4288050 143.3821030 128.5369630  87.1352770
 146.7027400 128.0419810  77.0395020 146.4764980 127.3250250  77.6319660
 146.3123600 127.7932250  76.2016770 144.6309300 128.5566090  90.5191940
 144.9665540 129.1432780  91.1969860 143.7109640 128.4258800  90.7489730
 132.4843430 132.0686670  77.8139480 132.8441070 132.6676010  77.1596750
 132.3435770 132.6146560  78.5874510 132.1812700 116.3461270  91.3015350
 131.4671220 116.5458190  91.9067960 132.6007740 115.5700840  91.6730150
 146.2843650 125.9591750  78.7009180 145.9965350 126.4204440  79.4887060
 147.0795820 125.4989520  78.9693400 132.4685290 130.3341530  92.2881880
 132.5776410 129.3936270  92.1477270 131.8165850 130.5996280  91.6395610
 140.4597880 128.6057420  93.6880000 140.1394750 127.8866660  94.2325690
 139.7856240 129.2812490  93.7616060 138.5012050 129.4517870  78.6313150
 138.4922150 130.1847560  78.0157660 137.5810410 129.2049450  78.7240110
 134.1018690 124.6732760  79.3759910 133.4946640 125.4131660  79.3855210
 134.5768040 124.7632120  78.5498110 143.6751480 118.8383580  89.0516800
 144.0432300 118.0178790  89.3796370 142.8149680 118.8985470  89.4672450
 147.0413510 117.7940520  79.8604360 146.4126670 117.8986190  79.1462590
 146.5465430 118.0137300  80.6498240 141.4871650 129.5146110  77.2938340
 141.5883630 129.3110100  76.3640320 140.5873390 129.2604390  77.4986120
 139.0097540 120.0726470  81.2762240 138.3013690 120.5412810  81.7175850
 139.2942020 119.4148480  81.9107430 140.6353470 121.4923170  89.2754770
 141.1338720 121.9668990  89.9406620 140.7776420 120.5686690  89.4824800
 143.0412970 116.7977130  82.7158030 142.9180750 116.8163260  81.7667540
 143.9897530 116.8456070  82.8356430 140.1289760 132.0332430  81.9886010
 140.3831260 131.9953820  81.0665380 139.1802240 131.9065760  81.9814260
 137.2132560 118.3811550  78.6512950 138.0623090 118.8181700  78.5853140
 136.8463830 118.6931810  79.4785010 147.8420330 117.7091130  90.1183160
 147.3393930 118.4496530  90.4576970 148.6576990 118.0975130  89.8019950
 146.1342340 122.9524310  83.5644520 145.1932480 122.9674540  83.7392210
 146.4486410 122.1660270  84.0104820 136.1123980 124.6343910  77.1248480
 136.8787250 124.5225270  77.6873910 136.1898670 123.9381880  76.4725250
 134.8070740 122.0668980  77.8081370 134.8874330 121.1196490  77.9198770
 135.6990490 122.3975860  77.9142030 135.6085450 132.2164370  84.9115910
 136.3447930 131.6679830  85.1824480 135.9926370 133.0820380  84.7721900
 132.4930930 128.2837940  80.7857420 131.5670710 128.5259080  80.7762830
 132.9587360 129.1112200  80.6642170 134.6143730 131.4010440  94.1001490
 135.4156460 131.7222490  94.5136890 134.0995550 131.0406020  94.8221400
 138.7187760 131.3894680  76.7341480 139.5116370 131.6783510  76.2823270
 138.1992110 130.9586850  76.0553960 143.4508360 127.5090310  94.0476900
 142.8446520 127.5321910  93.3072650 143.1462470 126.7773350  94.5844150
 144.8808730 131.2370600  92.6586310 145.8330480 131.1528620  92.6086550
 144.7336950 131.9012310  93.3320100 147.7717930 130.6164810  78.1578220
 147.4859440 130.2029950  77.3432400 147.5737480 131.5452520  78.0378740
 132.3341540 123.8883900  93.0437540 132.8380560 123.3091180  93.6153770
 131.5948960 124.1724130  93.5813910 139.2365160 126.6098090  76.5983830
 139.1315800 125.9950440  77.3245210 139.0689380 126.0863980  75.8146840
 139.3879480 125.2954890  92.5773060 138.6225150 125.8639890  92.4927730
 139.5695440 125.0031100  91.6841290 142.4767890 125.6718120  77.2025820
 141.9277990 126.1187420  77.8468560 143.0987150 125.1667370  77.7263490
 146.5302830 127.0260220  93.1348080 147.2712300 127.3635980  92.6315540
 145.7675510 127.1952280  92.5817850 134.3664620 122.0313490  93.9387610
 134.4069960 121.7327360  94.8472840 135.2210120 122.4321100  93.7795130
 138.1443010 124.6309040  79.0991120 138.5659430 124.4648910  79.9422510
 138.2693850 123.8209270  78.6046260 136.3070430 120.6105590  91.9062100
 135.7766890 120.1196540  91.2785440 136.9758500 121.0389790  91.3720030
 140.6570650 123.6546650  76.3468220 141.1776310 122.9395670  75.9809370
 141.3039050 124.2932520  76.6468730 145.2048490 125.0775050  91.6703290
 145.6189510 125.2320130  92.5193710 144.2699490 125.2030270  91.8329070
 145.6770660 122.4171210  93.6742440 146.2591430 121.6623530  93.5862920
 145.8532430 122.9478650  92.8973920 136.7942730 117.5767960  91.9859390
 136.6999600 116.9588710  91.2610260 136.2140120 118.3034250  91.7589300
 139.5604170 116.1341200  89.0186780 139.1121470 116.1565460  88.1732330
 138.9269370 115.7360220  89.6157080 139.9663720 125.0295530  89.6399220
 140.3851830 125.8728260  89.4675460 139.0472350 125.1667570  89.4106000
 142.3027620 122.7611710  91.0237060 142.4223830 122.1652850  91.7631900
 143.1621620 122.7981400  90.6038360 144.6415520 123.3148900  89.5999570
 144.1150740 123.8391520  88.9964710 144.9846860 123.9476290  90.2309300
 137.0401910 120.7042270  76.0449280 136.8390970 119.8409630  76.4062620
 136.8693960 120.6175630  75.1070880 137.8171140 131.3348540  90.7556950
 137.2792230 132.0594600  90.4365650 138.0705100 130.8578880  89.9654290
 139.0696390 119.3033060  92.2812880 139.6596080 118.9948910  92.9690700
 138.2516630 118.8312810  92.4372780 143.8889820 118.9198870  92.5145900
 143.2005340 118.2580410  92.4495890 144.6095840 118.4737140  92.9594360
 144.5190220 115.5150500  78.5736160 144.7992510 114.6718400  78.9295580
 143.7455950 115.7473610  79.0874910 135.8384710 117.8042890  76.0327160
 136.1410610 117.8110320  75.1246310 136.5779300 117.4540750  76.5294820
 140.6733350 132.5699750  91.0143600 140.5992050 133.4734890  91.3215970
 139.7712190 132.2511650  90.9865670 139.0569640 116.7477510  77.0183360
 138.7091640 116.0701500  76.4385810 139.2582410 116.2867020  77.8326750
 141.2218680 131.7358260  78.6369960 142.1169470 132.0743230  78.6588720
 141.2536310 131.0137670  78.0094240 134.8614840 127.1085310  76.8656960
 135.2989710 127.6514980  77.5214540 135.3462570 126.2832260  76.8753300
 132.0760640 129.8974340  84.3177220 132.4063650 129.0295400  84.0855860
 132.5051640 130.1032860  85.1482180 136.6722560 128.2283350  81.9779190
 136.3718100 128.1048320  82.8783100 136.5660050 127.3691940  81.5694920
 132.5650850 130.7644930  87.0558850 132.1281840 130.9445730  87.8883000
 133.1328530 131.5219550  86.9140570 148.2013030 130.2661930  91.3436160
 147.6015020 130.3254490  90.6000080 148.3306930 129.3266910  91.4733010
 132.3975280 123.2765160  83.4147730 131.7424120 123.0076800  82.7707430
 133.2353230 123.1669640  82.9649710 146.8864670 126.9913910  89.4412320
 146.0724510 127.4211070  89.7038110 147.2938870 127.6032320  88.8281370
 145.3465720 118.0706450  77.6366220 145.7650600 117.8837430  76.7962880
 145.0401780 117.2185500  77.9469150 133.4351210 123.6617730  87.9551070
 133.8024250 123.5745130  88.8347090 132.8662030 122.8984280  87.8557930
 148.2355070 122.1302110  90.9681540 148.0041160 121.9014860  90.0679490
 148.4959620 123.0501660  90.9226430 132.9867210 120.5726820  91.8609490
 132.0923260 120.5393580  92.2003200 133.5264760 120.7713610  92.6260740
 146.6743140 117.3558540  93.7461240 147.5513320 117.3641940  94.1295240
 146.6863980 116.6189380  93.1353590 131.6113360 120.4864090  79.3573060
 130.7077440 120.7494290  79.1824720 132.0953980 120.7575260  78.5773020
 148.2996130 121.2927950  88.1568810 147.3498840 121.2591490  88.2713800
 148.4809140 122.2028060  87.9218580 134.1540570 119.5429630  77.2667440
 134.8632270 119.1212850  76.7814720 133.4380510 119.6104860  76.6350790
 133.8014730 115.5968960  76.3070090 134.5242860 116.1377900  76.6251310
 134.0739250 115.3232380  75.4311630 147.6106380 120.4661430  80.5741670
 148.1065500 120.2332300  81.3590550 147.4122450 119.6273270  80.1579310
 133.4906920 114.8475150  86.2092710 134.1383110 114.2972530  85.7687870
 133.9108760 115.1018300  87.0308520 147.3859260 115.0416510  89.5662350
 148.0231480 115.6550650  89.9321540 147.5334150 115.0777170  88.6211580
 146.9440720 131.7432510  82.9680590 147.5399790 131.4217080  82.2915010
 147.2018870 131.2704330  83.7593860 133.2438920 115.0030820  88.9518030
 132.8953740 115.4594640  89.7176210 132.9126620 114.1087950  89.0340460
 134.8503290 128.1750420  93.1171220 134.8072920 127.8043330  93.9985680
 134.9814300 129.1127990  93.2573040 138.5509320 129.7310010  88.7180940
 138.3100680 129.9984570  87.8311460 139.4911960 129.9015740  88.7731800
 140.7563740 116.1942700  92.4737450 140.6952630 116.7864530  93.2232860
 141.6964120 116.0868660  92.3287710 143.3938300 115.8512760  92.1129740
 144.0078710 116.1692050  91.4510820 143.9387860 115.3661350  92.7325600
 133.9159560 114.5307020  92.2268800 134.4642550 114.3495070  91.4634910
 133.9814870 113.7401130  92.7625110 134.6891320 131.1212670  90.2369000
 134.0951640 130.9897370  90.9759040 134.6815160 130.2850810  89.7711100
 144.1346340 114.4144900  88.4399030 143.2606180 114.7480010  88.2371960
 144.0257090 113.9418080  89.2650900 145.0418320 116.6215770  89.8240750
 144.7131680 115.8067530  89.4442480 145.9900620 116.5785580  89.7006440
 147.4952930 132.3927810  86.7978320 147.0355900 133.1443620  86.4236340
 146.8665390 131.6734280  86.7393120 134.3203550 128.4871050  89.1877040
 133.5937610 127.8676340  89.1202990 134.3812700 128.8811660  88.3175120
 137.9248650 130.7016050  85.9726450 138.4413670 130.0903410  85.4474710
 138.5746030 131.2044830  86.4637460 140.6644150 131.5924540  86.7995430
 140.9521960 131.3378840  85.9228440 141.1767370 131.0401900  87.3901000
 141.8821160 115.3314740  87.3791940 141.0992950 115.8060240  87.6588700
 141.5884090 114.4269570  87.2705120 146.4342230 116.0337840  85.4241030
 146.8750320 115.9782940  84.5762630 146.1649820 116.9495850  85.4951210
 132.6033550 131.8045440  82.3973800 132.4355590 131.1716120  83.0955690
 131.7368060 132.0104840  82.0467990 133.2261570 115.6362220  79.9005660
 133.9840930 115.7491100  79.3269690 132.7638740 116.4731420  79.8549090
 139.7675380 117.7501490  82.8907970 138.9549890 117.3758380  82.5503850
 140.2717020 116.9946570  83.1929160 144.2700360 114.4143940  84.1291040
 144.8729730 114.9864150  84.6039560 143.5293350 114.9783380  83.9064940
 147.4134960 114.8165500  79.4031320 147.6085590 115.7148950  79.6698750
 146.6264830 114.5852580  79.8964270 134.2096250 130.4978670  79.8423940
 133.6843870 130.8786700  79.1385900 134.1340830 131.1229440  80.5633650
 135.5986720 116.1626270  78.4407630 136.1279480 115.3756070  78.3115580
 136.2315040 116.8417460  78.6743160 137.7924560 115.9001410  81.4953020
 137.1627300 115.1988720  81.6623150 137.2529700 116.6605540  81.2786180
 140.7316510 132.5140640  94.1663630 141.6583820 132.2784910  94.2099590
 140.7166940 133.3412640  93.6849660 137.9180120 115.1785390  93.9305510
 137.6364390 115.6818990  93.1666330 138.2999820 114.3807140  93.5647640
 136.8089220 132.4461050  78.7173190 137.5408040 132.1620330  78.1697080
 137.0682890 132.2074330  79.6072570 135.9704010 128.5625780  78.7219520
 135.3412890 129.0310880  79.2705350 136.0851840 127.7175000  79.1565710
 144.5195580 114.5938970  94.5085980 144.4061030 114.9133580  95.4037500
 145.3365320 114.9951480  94.2123260 147.2994070 131.7410500  93.9904670
 148.0919390 131.2459730  93.7830630 147.5927220 132.4200640  94.5980280
 143.4253730 122.6131440  64.8720720 143.3447780 121.6986050  64.6012430
 143.0118150 123.1098510  64.1660430 141.5571770 124.3910460  66.7529990
 140.7813870 123.9110900  67.0428560 142.2084700 123.7116110  66.5786150
 135.5737600 124.7030270  67.6305750 134.7422480 124.4478980  68.0302260
 136.1818580 124.7741040  68.3663670 145.5779200 128.7970650  65.5329120
 145.1160730 128.0257890  65.8616290 146.3904750 128.8236720  66.0381570
 135.5538860 128.7370360  67.8263770 135.8566900 127.8468100  67.6473990
 136.2982450 129.2940580  67.5986020 133.9829550 119.6632160  61.4148140
 133.0946250 120.0048130  61.3128020 134.2670740 119.4632480  60.5228970
 131.9462560 122.2637810  67.2987840 132.5178670 121.4960010  67.2991480
 131.9464100 122.5626570  66.3894450 141.8042510 131.0828660  65.1533110
 141.1853950 131.5386160  64.5827550 142.6594290 131.2380120  64.7522810
 140.9980760 127.0667650  66.7600150 140.9289040 126.1257590  66.5989280
 141.7600620 127.1569060  67.3322720 133.1887430 117.6722170  69.0856770
 133.0090270 116.7747920  69.3659530 132.7867510 118.2194040  69.7603720
 142.0285930 119.8738030  66.9869080 142.4050750 119.0009910  66.8742750
 141.9305440 120.2096730  66.0959520 136.1590940 118.2463660  62.4486520
 136.2657690 119.1467390  62.7555280 135.2483300 118.1981630  62.1581170
 145.8110050 117.3688470  63.9197420 146.6319670 116.8785040  63.9622900
 145.8444130 117.9586130  64.6729260 133.8074100 120.1682670  67.6939110
 134.4884210 120.4321040  68.3126510 133.4922150 119.3283540  68.0277120
 137.9998670 121.2150030  66.7811700 138.5076890 121.7131000  67.4216720
 138.5311910 120.4385230  66.6051060 136.2834770 115.8548590  71.0475120
 136.2853210 116.3720980  70.2421020 135.4539080 115.3778770  71.0245050
 142.6705860 125.9667900  62.5465020 142.0523130 126.4317350  61.9827740
 143.1829110 126.6595380  62.9634530 137.5337620 125.4943770  69.2248620
 137.2007000 126.1212690  69.8669690 137.7104300 126.0205650  68.4450290
 146.0471530 119.3088850  66.6924960 145.3427100 119.5973740  67.2728070
 146.4083690 120.1188960  66.3324520 135.9650100 117.5658550  69.0545570
 136.3066910 118.4100600  68.7599440 135.0265910 117.7142290  69.1710910
 136.7456720 127.4624570  71.0397800 137.3630720 128.1375650  70.7582250
 135.8849840 127.8712550  70.9485300 132.0389060 126.6524430  59.9204650
 131.6617040 127.1411530  59.1889550 132.2962130 127.3249710  60.5511180
 147.6634310 128.9263980  68.9552440 146.9797830 129.5963090  68.9469110
 148.2028600 129.1244630  68.1897300 139.6477990 115.0540820  65.3790160
 139.9552970 114.4987710  64.6625660 138.7178690 115.1885280  65.1963150
 145.1993050 130.7708110  67.6697620 145.2120210 130.3670400  66.8019880
 144.6468270 131.5455400  67.5659050 146.4938470 127.4924330  62.7587790
 146.3834800 126.5498660  62.8837210 146.4906720 127.8539970  63.6450550
 144.5978490 125.6737950  68.9980230 145.0147280 125.4598060  68.1633690
 145.3218310 125.9310740  69.5688850 142.0358750 123.1189650  62.1150280
 141.1088030 123.0527030  62.3438750 142.1883570 124.0569780  62.0005520
 142.0227830 119.3906650  59.1117440 141.0831500 119.5520610  59.1969900
 142.3411090 120.1092330  58.5653430 146.0656040 124.6809950  62.6185530
 145.4468460 124.3429500  61.9711830 146.0480490 124.0369710  63.3264720
 145.5082600 120.8594490  70.0351340 145.0953780 121.6848200  70.2891330
 144.7758550 120.2739530  69.8427700 137.6415390 123.6454390  64.8970010
 137.2372390 122.9331640  64.4015910 137.7278510 123.3007630  65.7858050
 138.1097090 127.3321950  67.0609220 137.8125380 126.7267420  66.3817000
 139.0596910 127.3699260  66.9498580 136.3544010 120.4197600  68.6769050
 136.9058600 120.5292940  67.9022300 136.8687520 120.7935200  69.3924280
 146.1982700 130.9053820  70.7232320 145.7213260 131.7126010  70.5304930
 145.5144490 130.2532150  70.8758530 137.2015520 127.0703640  73.7117020
 136.3044050 127.2943610  73.9590420 137.2268390 127.1938580  72.7628420
 144.2420740 123.9196760  59.6258280 144.6814020 123.0819190  59.4796100
 144.9549160 124.5526160  59.7122420 136.0286740 123.9416960  72.2874390
 135.8894510 124.8139760  72.6561790 135.1468100 123.5989770  72.1422330
 142.3516120 128.8592830  63.5939520 142.7912030 129.6017160  63.1794910
 142.2903010 129.1019400  64.5178480 137.8267090 129.8838660  74.4959540
 137.7982520 130.2881610  73.6287970 137.6632060 128.9549020  74.3331140
 147.8237880 115.1739570  57.9399320 147.5110540 115.2666400  58.8398390
 148.5850350 115.7520600  57.8896750 134.3420020 122.5399370  62.3976660
 134.2217620 123.2661460  61.7857930 134.0320910 121.7702280  61.9204570
 131.9805390 125.7114510  68.2045300 132.0585810 125.8463280  67.2601020
 132.5947070 125.0030400  68.3973420 133.2253020 127.4114700  64.6151480
 132.8181100 127.5529290  63.7605080 134.1166030 127.1274860  64.4122690
 143.0431900 131.5606610  71.5218530 143.5576570 131.4714620  72.3240960
 142.2000980 131.9066310  71.8146440 145.0186300 131.8461950  60.9502530
 144.8587440 131.5564890  61.8484360 144.8533010 131.0702080  60.4147760
 137.4974680 131.6260480  62.7274150 137.3217160 130.7096020  62.5141950
 136.6430420 131.9847770  62.9671950 144.7212430 129.3549510  59.5100530
 144.0277590 129.3526800  58.8502810 145.4635290 128.9308830  59.0794700
 144.2862360 130.9812220  63.5849020 144.7419310 130.2001600  63.8987640
 144.6254880 131.6919040  64.1290200 132.0364910 126.7528680  70.7439760
 132.1995950 126.2834040  69.9259130 132.5017360 126.2452240  71.4088600
 136.8083680 115.8834440  65.7800330 136.3651830 116.6643980  65.4484850
 137.3668670 116.2064330  66.4871270 141.0953490 118.7502960  71.3835650
 140.6332860 118.9585980  72.1955590 140.6931600 117.9362310  71.0806320
 146.0958000 119.9711910  72.5132310 145.2451590 119.6717660  72.8341380
 145.9359790 120.2153920  71.6016130 143.1907710 121.4713660  74.6131100
 143.5161120 120.6377410  74.2733330 143.9788040 121.9942180  74.7609430
 139.9242500 115.5045140  60.6606160 139.2996680 115.5005010  61.3859470
 139.8372620 114.6376100  60.2642130 138.8459580 116.4281770  67.6389930
 139.1431910 117.3344600  67.5581950 139.3945140 115.9400550  67.0249500
 136.5997900 121.0068010  63.5081580 136.3738820 120.7905180  64.4128200
 135.8190430 121.4396470  63.1627550 143.8295660 121.0131380  62.1072230
 143.2304550 121.7367180  61.9235850 144.3775270 120.9508160  61.3248680
 139.0397110 121.9053590  74.1741850 138.9440710 120.9648320  74.0242250
 139.8829090 122.1268660  73.7789920 142.4360530 119.6494920  64.1375510
 142.8290100 119.9667120  63.3244200 142.7977380 118.7706800  64.2520030
 134.1707650 118.3167260  72.3275630 133.7771040 119.1642470  72.5348410
 133.4826050 117.6793630  72.5184270 140.7452700 118.4002230  75.3972370
 140.0551020 118.2074430  76.0318460 141.4885000 118.6836870  75.9296670
 131.4724700 116.2395720  66.3605710 131.1837750 116.8098580  67.0730690
 132.2170460 115.7600170  66.7236940 131.6594930 120.1815840  57.5708430
 131.5769600 121.1246600  57.7123420 131.3077990 120.0390750  56.6920780
 143.0215670 122.2400670  68.2326290 142.2896790 122.7487480  68.5816390
 142.6240010 121.4230650  67.9315070 139.4593060 118.9154870  66.6378780
 139.4629120 118.4744820  65.7883320 140.3544180 119.2372200  66.7450600
 135.3095440 118.7981360  65.5972990 134.9695490 119.2756590  66.3540040
 134.5472760 118.3446480  65.2374090 139.5213210 119.9166950  59.6285540
 139.6426030 119.8753430  60.5771360 139.1361720 120.7791100  59.4732270
 143.4841580 117.6934350  67.6449230 143.5014320 118.1443000  68.4891080
 143.2357160 116.7939990  67.8582670 138.5334710 122.2268090  59.0268840
 137.9651610 121.7786340  58.4004750 139.2423710 122.5860870  58.4933990
 146.9112330 115.1066530  73.4835610 147.2358100 114.3756190  74.0093590
 146.9468840 114.7880170  72.5816600 133.6103890 126.1280110  72.9035570
 133.2258680 125.4873780  73.5018530 133.9216080 126.8316230  73.4730300
 139.7601030 122.9756650  68.3844190 140.1271160 122.5015220  69.1305530
 139.5706090 123.8498220  68.7252530 132.6241520 117.7200340  64.5137660
 132.3388440 117.3556010  65.3516280 132.5620380 116.9880800  63.9000800
 137.5500400 122.0165290  70.7028400 137.2457470 122.8957270  70.9278760
 138.5046860 122.0765080  70.7385840 136.0782190 126.2226280  61.2995250
 135.3044450 125.6823900  61.1393970 136.8076820 125.7032890  60.9613010
 146.8370170 125.2191640  67.0921640 147.5569290 125.7146930  66.7017750
 146.6351990 124.5409530  66.4475510 142.2980110 116.6129600  61.2351030
 141.4844720 116.1142770  61.1596340 142.1042060 117.4527850  60.8187380
 142.2188970 125.2900700  72.9790640 142.1526280 124.3696370  72.7248230
 141.5894110 125.3876140  73.6935280 145.0128500 120.9849250  59.5313190
 145.9008120 121.2966480  59.3564530 144.9833590 120.1121500  59.1393770
 136.1219590 125.8906660  64.9374060 136.6398260 125.0874920  64.8830950
 135.6703610 125.8285800  65.7790890 141.0089090 127.1572940  60.2101360
 141.3504790 127.9015170  59.7144680 140.1801800 127.4704060  60.5726190
 133.6064130 122.8568030  71.8499760 133.2479070 123.5221880  72.4373100
 133.3118690 122.0251580  72.2212380 136.8077250 123.3152270  74.7339310
 136.5077390 123.4609450  73.8367130 137.5788490 122.7557560  74.6412700
 142.1505700 128.1121270  72.7294440 142.1650240 127.1802230  72.5113350
 141.4430800 128.1981030  73.3684210 147.2842770 122.2961090  58.9993050
 147.2006490 122.7275310  58.1489490 148.0036960 122.7559440  59.4319870
 148.3130020 129.1503350  61.7275180 147.6706180 128.4958970  62.0018900
 147.9260680 129.5558440  60.9515850 143.8916500 126.4788780  65.5746870
 144.2440320 125.8816910  64.9148240 143.0078830 126.1533010  65.7455120
 139.9779780 127.2386470  62.9817280 140.6650910 127.7855680  63.3624870
 139.1912200 127.7827200  63.0166890 132.1172180 122.8559290  58.4734360
 132.9867030 123.1384090  58.7570280 131.6262500 123.6695160  58.3583170
 139.2806990 124.2432500  62.5942640 139.7369770 125.0537750  62.8202830
 138.9295200 123.9255640  63.4261130 141.5839600 129.7538840  69.8234940
 142.2281820 129.9598220  70.5008360 141.9469040 128.9927240  69.3705790
 135.1818770 114.5870150  63.0665160 135.0533400 114.5788050  64.0150080
 134.3580790 114.9253240  62.7156170 142.8571680 127.7571190  68.5412390
 143.4993910 127.0564350  68.6544560 143.3821030 128.5369630  68.3609280
 146.7027400 128.0419810  58.2651530 146.4764980 127.3250250  58.8576170
 146.3123600 127.7932250  57.4273280 144.6309300 128.5566090  71.7448450
 144.9665540 129.1432780  72.4226370 143.7109640 128.4258800  71.9746240
 132.4843430 132.0686670  59.0395990 132.8441070 132.6676010  58.3853260
 132.3435770 132.6146560  59.8131020 132.1812700 116.3461270  72.5271860
 131.4671220 116.5458190  73.1324470 132.6007740 115.5700840  72.8986660
 146.2843650 125.9591750  59.9265690 145.9965350 126.4204440  60.7143570
 147.0795820 125.4989520  60.1949910 132.4685290 130.3341530  73.5138390
 132.5776410 129.3936270  73.3733780 131.8165850 130.5996280  72.8652120
 140.4597880 128.6057420  74.9136510 140.1394750 127.8866660  75.4582200
 139.7856240 129.2812490  74.9872570 138.5012050 129.4517870  59.8569660
 138.4922150 130.1847560  59.2414170 137.5810410 129.2049450  59.9496620
 134.1018690 124.6732760  60.6016420 133.4946640 125.4131660  60.6111720
 134.5768040 124.7632120  59.7754620 143.6751480 118.8383580  70.2773310
 144.0432300 118.0178790  70.6052880 142.8149680 118.8985470  70.6928960
 147.0413510 117.7940520  61.0860870 146.4126670 117.8986190  60.3719100
 146.5465430 118.0137300  61.8754750 141.4871650 129.5146110  58.5194850
 141.5883630 129.3110100  57.5896830 140.5873390 129.2604390  58.7242630
 139.0097540 120.0726470  62.5018750 138.3013690 120.5412810  62.9432360
 139.2942020 119.4148480  63.1363940 140.6353470 121.4923170  70.5011280
 141.1338720 121.9668990  71.1663130 140.7776420 120.5686690  70.7081310
 143.0412970 116.7977130  63.9414540 142.9180750 116.8163260  62.9924050
 143.9897530 116.8456070  64.0612940 140.1289760 132.0332430  63.2142520
 140.3831260 131.9953820  62.2921890 139.1802240 131.9065760  63.2070770
 137.2132560 118.3811550  59.8769460 138.0623090 118.8181700  59.8109650
 136.8463830 118.6931810  60.7041520 147.8420330 117.7091130  71.3439670
 147.3393930 118.4496530  71.6833480 148.6576990 118.0975130  71.0276460
 146.1342340 122.9524310  64.7901030 145.1932480 122.9674540  64.9648720
 146.4486410 122.1660270  65.2361330 136.1123980 124.6343910  58.3504990
 136.8787250 124.5225270  58.9130420 136.1898670 123.9381880  57.6981760
 134.8070740 122.0668980  59.0337880 134.8874330 121.1196490  59.1455280
 135.6990490 122.3975860  59.1398540 135.6085450 132.2164370  66.1372420
 136.3447930 131.6679830  66.4080990 135.9926370 133.0820380  65.9978410
 132.4930930 128.2837940  62.0113930 131.5670710 128.5259080  62.0019340
 132.9587360 129.1112200  61.8898680 134.6143730 131.4010440  75.3258000
 135.4156460 131.7222490  75.7393400 134.0995550 131.0406020  76.0477910
 138.7187760 131.3894680  57.9597990 139.5116370 131.6783510  57.5079780
 138.1992110 130.9586850  57.2810470 143.4508360 127.5090310  75.2733410
 142.8446520 127.5321910  74.5329160 143.1462470 126.7773350  75.8100660
 144.8808730 131.2370600  73.8842820 145.8330480 131.1528620  73.8343060
 144.7336950 131.9012310  74.5576610 147.7717930 130.6164810  59.3834730
 147.4859440 130.2029950  58.5688910 147.5737480 131.5452520  59.2635250
 132.3341540 123.8883900  74.2694050 132.8380560 123.3091180  74.8410280
 131.5948960 124.1724130  74.8070420 139.2365160 126.6098090  57.8240340
 139.1315800 125.9950440  58.5501720 139.0689380 126.0863980  57.0403350
 139.3879480 125.2954890  73.8029570 138.6225150 125.8639890  73.7184240
 139.5695440 125.0031100  72.9097800 142.4767890 125.6718120  58.4282330
 141.9277990 126.1187420  59.0725070 143.0987150 125.1667370  58.9520000
 146.5302830 127.0260220  74.3604590 147.2712300 127.3635980  73.8572050
 145.7675510 127.1952280  73.8074360 134.3664620 122.0313490  75.1644120
 134.4069960 121.7327360  76.0729350 135.2210120 122.4321100  75.0051640
 138.1443010 124.6309040  60.3247630 138.5659430 124.4648910  61.1679020
 138.2693850 123.8209270  59.8302770 136.3070430 120.6105590  73.1318610
 135.7766890 120.1196540  72.5041950 136.9758500 121.0389790  72.5976540
 140.6570650 123.6546650  57.5724730 141.1776310 122.9395670  57.2065880
 141.3039050 124.2932520  57.8725240 145.2048490 125.0775050  72.8959800
 145.6189510 125.2320130  73.7450220 144.2699490 125.2030270  73.0585580
 145.6770660 122.4171210  74.8998950 146.2591430 121.6623530  74.8119430
 145.8532430 122.9478650  74.1230430 136.7942730 117.5767960  73.2115900
 136.6999600 116.9588710  72.4866770 136.2140120 118.3034250  72.9845810
 139.5604170 116.1341200  70.2443290 139.1121470 116.1565460  69.3988840
 138.9269370 115.7360220  70.8413590 139.9663720 125.0295530  70.8655730
 140.3851830 125.8728260  70.6931970 139.0472350 125.1667570  70.6362510
 142.3027620 122.7611710  72.2493570 142.4223830 122.1652850  72.9888410
 143.1621620 122.7981400  71.8294870 144.6415520 123.3148900  70.8256080
 144.1150740 123.8391520  70.2221220 144.9846860 123.9476290  71.4565810
 137.0401910 120.7042270  57.2705790 136.8390970 119.8409630  57.6319130
 136.8693960 120.6175630  56.3327390 137.8171140 131.3348540  71.9813460
 137.2792230 132.0594600  71.6622160 138.0705100 130.8578880  71.1910800
 139.0696390 119.3033060  73.5069390 139.6596080 118.9948910  74.1947210
 138.2516630 118.8312810  73.6629290 143.8889820 118.9198870  73.7402410
 143.2005340 118.2580410  73.6752400 144.6095840 118.4737140  74.1850870
 144.5190220 115.5150500  59.7992670 144.7992510 114.6718400  60.1552090
 143.7455950 115.7473610  60.3131420 135.8384710 117.8042890  57.2583670
 136.1410610 117.8110320  56.3502820 136.5779300 117.4540750  57.7551330
 140.6733350 132.5699750  72.2400110 140.5992050 133.4734890  72.5472480
 139.7712190 132.2511650  72.2122180 139.0569640 116.7477510  58.2439870
 138.7091640 116.0701500  57.6642320 139.2582410 116.2867020  59.0583260
 141.2218680 131.7358260  59.8626470 142.1169470 132.0743230  59.8845230
 141.2536310 131.0137670  59.2350750 134.8614840 127.1085310  58.0913470
 135.2989710 127.6514980  58.7471050 135.3462570 126.2832260  58.1009810
 132.0760640 129.8974340  65.5433730 132.4063650 129.0295400  65.3112370
 132.5051640 130.1032860  66.3738690 136.6722560 128.2283350  63.2035700
 136.3718100 128.1048320  64.1039610 136.5660050 127.3691940  62.7951430
 132.5650850 130.7644930  68.2815360 132.1281840 130.9445730  69.1139510
 133.1328530 131.5219550  68.1397080 148.2013030 130.2661930  72.5692670
 147.6015020 130.3254490  71.8256590 148.3306930 129.3266910  72.6989520
 132.3975280 123.2765160  64.6404240 131.7424120 123.0076800  63.9963940
 133.2353230 123.1669640  64.1906220 146.8864670 126.9913910  70.6668830
 146.0724510 127.4211070  70.9294620 147.2938870 127.6032320  70.0537880
 145.3465720 118.0706450  58.8622730 145.7650600 117.8837430  58.0219390
 145.0401780 117.2185500  59.1725660 133.4351210 123.6617730  69.1807580
 133.8024250 123.5745130  70.0603600 132.8662030 122.8984280  69.0814440
 148.2355070 122.1302110  72.1938050 148.0041160 121.9014860  71.2936000
 148.4959620 123.0501660  72.1482940 132.9867210 120.5726820  73.0866000
 132.0923260 120.5393580  73.4259710 133.5264760 120.7713610  73.8517250
 146.6743140 117.3558540  74.9717750 147.5513320 117.3641940  75.3551750
 146.6863980 116.6189380  74.3610100 131.6113360 120.4864090  60.5829570
 130.7077440 120.7494290  60.4081230 132.0953980 120.7575260  59.8029530
 148.2996130 121.2927950  69.3825320 147.3498840 121.2591490  69.4970310
 148.4809140 122.2028060  69.1475090 134.1540570 119.5429630  58.4923950
 134.8632270 119.1212850  58.0071230 133.4380510 119.6104860  57.8607300
 133.8014730 115.5968960  57.5326600 134.5242860 116.1377900  57.8507820
 134.0739250 115.3232380  56.6568140 147.6106380 120.4661430  61.7998180
 148.1065500 120.2332300  62.5847060 147.4122450 119.6273270  61.3835820
 133.4906920 114.8475150  67.4349220 134.1383110 114.2972530  66.9944380
 133.9108760 115.1018300  68.2565030 147.3859260 115.0416510  70.7918860
 148.0231480 115.6550650  71.1578050 147.5334150 115.0777170  69.8468090
 146.9440720 131.7432510  64.1937100 147.5399790 131.4217080  63.5171520
 147.2018870 131.2704330  64.9850370 133.2438920 115.0030820  70.1774540
 132.8953740 115.4594640  70.9432720 132.9126620 114.1087950  70.2596970
 134.8503290 128.1750420  74.3427730 134.8072920 127.8043330  75.2242190
 134.9814300 129.1127990  74.4829550 138.5509320 129.7310010  69.9437450
 138.3100680 129.9984570  69.0567970 139.4911960 129.9015740  69.9988310
 140.7563740 116.1942700  73.6993960 140.6952630 116.7864530  74.4489370
 141.6964120 116.0868660  73.5544220 143.3938300 115.8512760  73.3386250
 144.0078710 116.1692050  72.6767330 143.9387860 115.3661350  73.9582110
 133.9159560 114.5307020  73.4525310 134.4642550 114.3495070  72.6891420
 133.9814870 113.7401130  73.9881620 134.6891320 131.1212670  71.4625510
 134.0951640 130.9897370  72.2015550 134.6815160 130.2850810  70.9967610
 144.1346340 114.4144900  69.6655540 143.2606180 114.7480010  69.4628470
 144.0257090 113.9418080  70.4907410 145.0418320 116.6215770  71.0497260
 144.7131680 115.8067530  70.6698990 145.9900620 116.5785580  70.9262950
 147.4952930 132.3927810  68.0234830 147.0355900 133.1443620  67.6492850
 146.8665390 131.6734280  67.9649630 134.3203550 128.4871050  70.4133550
 133.5937610 127.8676340  70.3459500 134.3812700 128.8811660  69.5431630
 137.9248650 130.7016050  67.1982960 138.4413670 130.0903410  66.6731220
 138.5746030 131.2044830  67.6893970 140.6644150 131.5924540  68.0251940
 140.9521960 131.3378840  67.1484950 141.1767370 131.0401900  68.6157510
 141.8821160 115.3314740  68.6048450 141.0992950 115.8060240  68.8845210
 141.5884090 114.4269570  68.4961630 146.4342230 116.0337840  66.6497540
 146.8750320 115.9782940  65.8019140 146.1649820 116.9495850  66.7207720
 132.6033550 131.8045440  63.6230310 132.4355590 131.1716120  64.3212200
 131.7368060 132.0104840  63.2724500 133.2261570 115.6362220  61.1262170
 133.9840930 115.7491100  60.5526200 132.7638740 116.4731420  61.0805600
 139.7675380 117.7501490  64.1164480 138.9549890 117.3758380  63.7760360
 140.2717020 116.9946570  64.4185670 144.2700360 114.4143940  65.3547550
 144.8729730 114.9864150  65.8296070 143.5293350 114.9783380  65.1321450
 147.4134960 114.8165500  60.6287830 147.6085590 115.7148950  60.8955260
 146.6264830 114.5852580  61.1220780 134.2096250 130.4978670  61.0680450
 133.6843870 130.8786700  60.3642410 134.1340830 131.1229440  61.7890160
 135.5986720 116.1626270  59.6664140 136.1279480 115.3756070  59.5372090
 136.2315040 116.8417460  59.8999670 137.7924560 115.9001410  62.7209530
 137.1627300 115.1988720  62.8879660 137.2529700 116.6605540  62.5042690
 140.7316510 132.5140640  75.3920140 141.6583820 132.2784910  75.4356100
 140.7166940 133.3412640  74.9106170 137.9180120 115.1785390  75.1562020
 137.6364390 115.6818990  74.3922840 138.2999820 114.3807140  74.7904150
 136.8089220 132.4461050  59.9429700 137.5408040 132.1620330  59.3953590
 137.0682890 132.2074330  60.8329080 135.9704010 128.5625780  59.9476030
 135.3412890 129.0310880  60.4961860 136.0851840 127.7175000  60.3822220
 144.5195580 114.5938970  75.7342490 144.4061030 114.9133580  76.6294010
 145.3365320 114.9951480  75.4379770 147.2994070 131.7410500  75.2161180
 148.0919390 131.2459730  75.0087140 147.5927220 132.4200640  75.8236790
 143.4253730 122.6131440  46.0977230 143.3447780 121.6986050  45.8268940
 143.0118150 123.1098510  45.3916940 141.5571770 124.3910460  47.9786500
 140.7813870 123.9110900  48.2685070 142.2084700 123.7116110  47.8042660
 135.5737600 124.7030270  48.8562260 134.7422480 124.4478980  49.2558770
 136.1818580 124.7741040  49.5920180 145.5779200 128.7970650  46.7585630
 145.1160730 128.0257890  47.0872800 146.3904750 128.8236720  47.2638080
 135.5538860 128.7370360  49.0520280 135.8566900 127.8468100  48.8730500
 136.2982450 129.2940580  48.8242530 133.9829550 119.6632160  42.6404650
 133.0946250 120.0048130  42.5384530 134.2670740 119.4632480  41.7485480
 131.9462560 122.2637810  48.5244350 132.5178670 121.4960010  48.5247990
 131.9464100 122.5626570  47.6150960 141.8042510 131.0828660  46.3789620
 141.1853950 131.5386160  45.8084060 142.6594290 131.2380120  45.9779320
 140.9980760 127.0667650  47.9856660 140.9289040 126.1257590  47.8245790
 141.7600620 127.1569060  48.5579230 133.1887430 117.6722170  50.3113280
 133.0090270 116.7747920  50.5916040 132.7867510 118.2194040  50.9860230
 142.0285930 119.8738030  48.2125590 142.4050750 119.0009910  48.0999260
 141.9305440 120.2096730  47.3216030 136.1590940 118.2463660  43.6743030
 136.2657690 119.1467390  43.9811790 135.2483300 118.1981630  43.3837680
 145.8110050 117.3688470  45.1453930 146.6319670 116.8785040  45.1879410
 145.8444130 117.9586130  45.8985770 133.8074100 120.1682670  48.9195620
 134.4884210 120.4321040  49.5383020 133.4922150 119.3283540  49.2533630
 137.9998670 121.2150030  48.0068210 138.5076890 121.7131000  48.6473230
 138.5311910 120.4385230  47.8307570 136.2834770 115.8548590  52.2731630
 136.2853210 116.3720980  51.4677530 135.4539080 115.3778770  52.2501560
 142.6705860 125.9667900  43.7721530 142.0523130 126.4317350  43.2084250
 143.1829110 126.6595380  44.1891040 137.5337620 125.4943770  50.4505130
 137.2007000 126.1212690  51.0926200 137.7104300 126.0205650  49.6706800
 146.0471530 119.3088850  47.9181470 145.3427100 119.5973740  48.4984580
 146.4083690 120.1188960  47.5581030 135.9650100 117.5658550  50.2802080
 136.3066910 118.4100600  49.9855950 135.0265910 117.7142290  50.3967420
 136.7456720 127.4624570  52.2654310 137.3630720 128.1375650  51.9838760
 135.8849840 127.8712550  52.1741810 132.0389060 126.6524430  41.1461160
 131.6617040 127.1411530  40.4146060 132.2962130 127.3249710  41.7767690
 147.6634310 128.9263980  50.1808950 146.9797830 129.5963090  50.1725620
 148.2028600 129.1244630  49.4153810 139.6477990 115.0540820  46.6046670
 139.9552970 114.4987710  45.8882170 138.7178690 115.1885280  46.4219660
 145.1993050 130.7708110  48.8954130 145.2120210 130.3670400  48.0276390
 144.6468270 131.5455400  48.7915560 146.4938470 127.4924330  43.9844300
 146.3834800 126.5498660  44.1093720 146.4906720 127.8539970  44.8707060
 144.5978490 125.6737950  50.2236740 145.0147280 125.4598060  49.3890200
 145.3218310 125.9310740  50.7945360 142.0358750 123.1189650  43.3406790
 141.1088030 123.0527030  43.5695260 142.1883570 124.0569780  43.2262030
 142.0227830 119.3906650  40.3373950 141.0831500 119.5520610  40.4226410
 142.3411090 120.1092330  39.7909940 146.0656040 124.6809950  43.8442040
 145.4468460 124.3429500  43.1968340 146.0480490 124.0369710  44.5521230
 145.5082600 120.8594490  51.2607850 145.0953780 121.6848200  51.5147840
 144.7758550 120.2739530  51.0684210 137.6415390 123.6454390  46.1226520
 137.2372390 122.9331640  45.6272420 137.7278510 123.3007630  47.0114560
 138.1097090 127.3321950  48.2865730 137.8125380 126.7267420  47.6073510
 139.0596910 127.3699260  48.1755090 136.3544010 120.4197600  49.9025560
 136.9058600 120.5292940  49.1278810 136.8687520 120.7935200  50.6180790
 146.1982700 130.9053820  51.9488830 145.7213260 131.7126010  51.7561440
 145.5144490 130.2532150  52.1015040 137.2015520 127.0703640  54.9373530
 136.3044050 127.2943610  55.1846930 137.2268390 127.1938580  53.9884930
 144.2420740 123.9196760  40.8514790 144.6814020 123.0819190  40.7052610
 144.9549160 124.5526160  40.9378930 136.0286740 123.9416960  53.5130900
 135.8894510 124.8139760  53.8818300 135.1468100 123.5989770  53.3678840
 142.3516120 128.8592830  44.8196030 142.7912030 129.6017160  44.4051420
 142.2903010 129.1019400  45.7434990 137.8267090 129.8838660  55.7216050
 137.7982520 130.2881610  54.8544480 137.6632060 128.9549020  55.5587650
 147.8237880 115.1739570  39.1655830 147.5110540 115.2666400  40.0654900
 148.5850350 115.7520600  39.1153260 134.3420020 122.5399370  43.6233170
 134.2217620 123.2661460  43.0114440 134.0320910 121.7702280  43.1461080
 131.9805390 125.7114510  49.4301810 132.0585810 125.8463280  48.4857530
 132.5947070 125.0030400  49.6229930 133.2253020 127.4114700  45.8407990
 132.8181100 127.5529290  44.9861590 134.1166030 127.1274860  45.6379200
 143.0431900 131.5606610  52.7475040 143.5576570 131.4714620  53.5497470
 142.2000980 131.9066310  53.0402950 145.0186300 131.8461950  42.1759040
 144.8587440 131.5564890  43.0740870 144.8533010 131.0702080  41.6404270
 137.4974680 131.6260480  43.9530660 137.3217160 130.7096020  43.7398460
 136.6430420 131.9847770  44.1928460 144.7212430 129.3549510  40.7357040
 144.0277590 129.3526800  40.0759320 145.4635290 128.9308830  40.3051210
 144.2862360 130.9812220  44.8105530 144.7419310 130.2001600  45.1244150
 144.6254880 131.6919040  45.3546710 132.0364910 126.7528680  51.9696270
 132.1995950 126.2834040  51.1515640 132.5017360 126.2452240  52.6345110
 136.8083680 115.8834440  47.0056840 136.3651830 116.6643980  46.6741360
 137.3668670 116.2064330  47.7127780 141.0953490 118.7502960  52.6092160
 140.6332860 118.9585980  53.4212100 140.6931600 117.9362310  52.3062830
 146.0958000 119.9711910  53.7388820 145.2451590 119.6717660  54.0597890
 145.9359790 120.2153920  52.8272640 143.1907710 121.4713660  55.8387610
 143.5161120 120.6377410  55.4989840 143.9788040 121.9942180  55.9865940
 139.9242500 115.5045140  41.8862670 139.2996680 115.5005010  42.6115980
 139.8372620 114.6376100  41.4898640 138.8459580 116.4281770  48.8646440
 139.1431910 117.3344600  48.7838460 139.3945140 115.9400550  48.2506010
 136.5997900 121.0068010  44.7338090 136.3738820 120.7905180  45.6384710
 135.8190430 121.4396470  44.3884060 143.8295660 121.0131380  43.3328740
 143.2304550 121.7367180  43.1492360 144.3775270 120.9508160  42.5505190
 139.0397110 121.9053590  55.3998360 138.9440710 120.9648320  55.2498760
 139.8829090 122.1268660  55.0046430 142.4360530 119.6494920  45.3632020
 142.8290100 119.9667120  44.5500710 142.7977380 118.7706800  45.4776540
 134.1707650 118.3167260  53.5532140 133.7771040 119.1642470  53.7604920
 133.4826050 117.6793630  53.7440780 140.7452700 118.4002230  56.6228880
 140.0551020 118.2074430  57.2574970 141.4885000 118.6836870  57.1553180
 131.4724700 116.2395720  47.5862220 131.1837750 116.8098580  48.2987200
 132.2170460 115.7600170  47.9493450 131.6594930 120.1815840  38.7964940
 131.5769600 121.1246600  38.9379930 131.3077990 120.0390750  37.9177290
 143.0215670 122.2400670  49.4582800 142.2896790 122.7487480  49.8072900
 142.6240010 121.4230650  49.1571580 139.4593060 118.9154870  47.8635290
 139.4629120 118.4744820  47.0139830 140.3544180 119.2372200  47.9707110
 135.3095440 118.7981360  46.8229500 134.9695490 119.2756590  47.5796550
 134.5472760 118.3446480  46.4630600 139.5213210 119.9166950  40.8542050
 139.6426030 119.8753430  41.8027870 139.1361720 120.7791100  40.6988780
 143.4841580 117.6934350  48.8705740 143.5014320 118.1443000  49.7147590
 143.2357160 116.7939990  49.0839180 138.5334710 122.2268090  40.2525350
 137.9651610 121.7786340  39.6261260 139.2423710 122.5860870  39.7190500
 146.9112330 115.1066530  54.7092120 147.2358100 114.3756190  55.2350100
 146.9468840 114.7880170  53.8073110 133.6103890 126.1280110  54.1292080
 133.2258680 125.4873780  54.7275040 133.9216080 126.8316230  54.6986810
 139.7601030 122.9756650  49.6100700 140.1271160 122.5015220  50.3562040
 139.5706090 123.8498220  49.9509040 132.6241520 117.7200340  45.7394170
 132.3388440 117.3556010  46.5772790 132.5620380 116.9880800  45.1257310
 137.5500400 122.0165290  51.9284910 137.2457470 122.8957270  52.1535270
 138.5046860 122.0765080  51.9642350 136.0782190 126.2226280  42.5251760
 135.3044450 125.6823900  42.3650480 136.8076820 125.7032890  42.1869520
 146.8370170 125.2191640  48.3178150 147.5569290 125.7146930  47.9274260
 146.6351990 124.5409530  47.6732020 142.2980110 116.6129600  42.4607540
 141.4844720 116.1142770  42.3852850 142.1042060 117.4527850  42.0443890
 142.2188970 125.2900700  54.2047150 142.1526280 124.3696370  53.9504740
 141.5894110 125.3876140  54.9191790 145.0128500 120.9849250  40.7569700
 145.9008120 121.2966480  40.5821040 144.9833590 120.1121500  40.3650280
 136.1219590 125.8906660  46.1630570 136.6398260 125.0874920  46.1087460
 135.6703610 125.8285800  47.0047400 141.0089090 127.1572940  41.4357870
 141.3504790 127.9015170  40.9401190 140.1801800 127.4704060  41.7982700
 133.6064130 122.8568030  53.0756270 133.2479070 123.5221880  53.6629610
 133.3118690 122.0251580  53.4468890 136.8077250 123.3152270  55.9595820
 136.5077390 123.4609450  55.0623640 137.5788490 122.7557560  55.8669210
 142.1505700 128.1121270  53.9550950 142.1650240 127.1802230  53.7369860
 141.4430800 128.1981030  54.5940720 147.2842770 122.2961090  40.2249560
 147.2006490 122.7275310  39.3746000 148.0036960 122.7559440  40.6576380
 148.3130020 129.1503350  42.9531690 147.6706180 128.4958970  43.2275410
 147.9260680 129.5558440  42.1772360 143.8916500 126.4788780  46.8003380
 144.2440320 125.8816910  46.1404750 143.0078830 126.1533010  46.9711630
 139.9779780 127.2386470  44.2073790 140.6650910 127.7855680  44.5881380
 139.1912200 127.7827200  44.2423400 132.1172180 122.8559290  39.6990870
 132.9867030 123.1384090  39.9826790 131.6262500 123.6695160  39.5839680
 139.2806990 124.2432500  43.8199150 139.7369770 125.0537750  44.0459340
 138.9295200 123.9255640  44.6517640 141.5839600 129.7538840  51.0491450
 142.2281820 129.9598220  51.7264870 141.9469040 128.9927240  50.5962300
 135.1818770 114.5870150  44.2921670 135.0533400 114.5788050  45.2406590
 134.3580790 114.9253240  43.9412680 142.8571680 127.7571190  49.7668900
 143.4993910 127.0564350  49.8801070 143.3821030 128.5369630  49.5865790
 146.7027400 128.0419810  39.4908040 146.4764980 127.3250250  40.0832680
 146.3123600 127.7932250  38.6529790 144.6309300 128.5566090  52.9704960
 144.9665540 129.1432780  53.6482880 143.7109640 128.4258800  53.2002750
 132.4843430 132.0686670  40.2652500 132.8441070 132.6676010  39.6109770
 132.3435770 132.6146560  41.0387530 132.1812700 116.3461270  53.7528370
 131.4671220 116.5458190  54.3580980 132.6007740 115.5700840  54.1243170
 146.2843650 125.9591750  41.1522200 145.9965350 126.4204440  41.9400080
 147.0795820 125.4989520  41.4206420 132.4685290 130.3341530  54.7394900
 132.5776410 129.3936270  54.5990290 131.8165850 130.5996280  54.0908630
 140.4597880 128.6057420  56.1393020 140.1394750 127.8866660  56.6838710
 139.7856240 129.2812490  56.2129080 138.5012050 129.4517870  41.0826170
 138.4922150 130.1847560  40.4670680 137.5810410 129.2049450  41.1753130
 134.1018690 124.6732760  41.8272930 133.4946640 125.4131660  41.8368230
 134.5768040 124.7632120  41.0011130 143.6751480 118.8383580  51.5029820
 144.0432300 118.0178790  51.8309390 142.8149680 118.8985470  51.9185470
 147.0413510 117.7940520  42.3117380 146.4126670 117.8986190  41.5975610
 146.5465430 118.0137300  43.1011260 141.4871650 129.5146110  39.7451360
 141.5883630 129.3110100  38.8153340 140.5873390 129.2604390  39.9499140
 139.0097540 120.0726470  43.7275260 138.3013690 120.5412810  44.1688870
 139.2942020 119.4148480  44.3620450 140.6353470 121.4923170  51.7267790
 141.1338720 121.9668990  52.3919640 140.7776420 120.5686690  51.9337820
 143.0412970 116.7977130  45.1671050 142.9180750 116.8163260  44.2180560
 143.9897530 116.8456070  45.2869450 140.1289760 132.0332430  44.4399030
 140.3831260 131.9953820  43.5178400 139.1802240 131.9065760  44.4327280
 137.2132560 118.3811550  41.1025970 138.0623090 118.8181700  41.0366160
 136.8463830 118.6931810  41.9298030 147.8420330 117.7091130  52.5696180
 147.3393930 118.4496530  52.9089990 148.6576990 118.0975130  52.2532970
 146.1342340 122.9524310  46.0157540 145.1932480 122.9674540  46.1905230
 146.4486410 122.1660270  46.4617840 136.1123980 124.6343910  39.5761500
 136.8787250 124.5225270  40.1386930 136.1898670 123.9381880  38.9238270
 134.8070740 122.0668980  40.2594390 134.8874330 121.1196490  40.3711790
 135.6990490 122.3975860  40.3655050 135.6085450 132.2164370  47.3628930
 136.3447930 131.6679830  47.6337500 135.9926370 133.0820380  47.2234920
 132.4930930 128.2837940  43.2370440 131.5670710 128.5259080  43.2275850
 132.9587360 129.1112200  43.1155190 134.6143730 131.4010440  56.5514510
 135.4156460 131.7222490  56.9649910 134.0995550 131.0406020  57.2734420
 138.7187760 131.3894680  39.1854500 139.5116370 131.6783510  38.7336290
 138.1992110 130.9586850  38.5066980 143.4508360 127.5090310  56.4989920
 142.8446520 127.5321910  55.7585670 143.1462470 126.7773350  57.0357170
 144.8808730 131.2370600  55.1099330 145.8330480 131.1528620  55.0599570
 144.7336950 131.9012310  55.7833120 147.7717930 130.6164810  40.6091240
 147.4859440 130.2029950  39.7945420 147.5737480 131.5452520  40.4891760
 132.3341540 123.8883900  55.4950560 132.8380560 123.3091180  56.0666790
 131.5948960 124.1724130  56.0326930 139.2365160 126.6098090  39.0496850
 139.1315800 125.9950440  39.7758230 139.0689380 126.0863980  38.2659860
 139.3879480 125.2954890  55.0286080 138.6225150 125.8639890  54.9440750
 139.5695440 125.0031100  54.1354310 142.4767890 125.6718120  39.6538840
 141.9277990 126.1187420  40.2981580 143.0987150 125.1667370  40.1776510
 146.5302830 127.0260220  55.5861100 147.2712300 127.3635980  55.0828560
 145.7675510 127.1952280  55.0330870 134.3664620 122.0313490  56.3900630
 134.4069960 121.7327360  57.2985860 135.2210120 122.4321100  56.2308150
 138.1443010 124.6309040  41.5504140 138.5659430 124.4648910  42.3935530
 138.2693850 123.8209270  41.0559280 136.3070430 120.6105590  54.3575120
 135.7766890 120.1196540  53.7298460 136.9758500 121.0389790  53.8233050
 140.6570650 123.6546650  38.7981240 141.1776310 122.9395670  38.4322390
 141.3039050 124.2932520  39.0981750 145.2048490 125.0775050  54.1216310
 145.6189510 125.2320130  54.9706730 144.2699490 125.2030270  54.2842090
 145.6770660 122.4171210  56.1255460 146.2591430 121.6623530  56.0375940
 145.8532430 122.9478650  55.3486940 136.7942730 117.5767960  54.4372410
 136.6999600 116.9588710  53.7123280 136.2140120 118.3034250  54.2102320
 139.5604170 116.1341200  51.4699800 139.1121470 116.1565460  50.6245350
 138.9269370 115.7360220  52.0670100 139.9663720 125.0295530  52.0912240
 140.3851830 125.8728260  51.9188480 139.0472350 125.1667570  51.8619020
 142.3027620 122.7611710  53.4750080 142.4223830 122.1652850  54.2144920
 143.1621620 122.7981400  53.0551380 144.6415520 123.3148900  52.0512590
 144.1150740 123.8391520  51.4477730 144.9846860 123.9476290  52.6822320
 137.0401910 120.7042270  38.4962300 136.8390970 119.8409630  38.8575640
 136.8693960 120.6175630  37.5583900 137.8171140 131.3348540  53.2069970
 137.2792230 132.0594600  52.8878670 138.0705100 130.8578880  52.4167310
 139.0696390 119.3033060  54.7325900 139.6596080 118.9948910  55.4203720
 138.2516630 118.8312810  54.8885800 143.8889820 118.9198870  54.9658920
 143.2005340 118.2580410  54.9008910 144.6095840 118.4737140  55.4107380
 144.5190220 115.5150500  41.0249180 144.7992510 114.6718400  41.3808600
 143.7455950 115.7473610  41.5387930 135.8384710 117.8042890  38.4840180
 136.1410610 117.8110320  37.5759330 136.5779300 117.4540750  38.9807840
 140.6733350 132.5699750  53.4656620 140.5992050 133.4734890  53.7728990
 139.7712190 132.2511650  53.4378690 139.0569640 116.7477510  39.4696380
 138.7091640 116.0701500  38.8898830 139.2582410 116.2867020  40.2839770
 141.2218680 131.7358260  41.0882980 142.1169470 132.0743230  41.1101740
 141.2536310 131.0137670  40.4607260 134.8614840 127.1085310  39.3169980
 135.2989710 127.6514980  39.9727560 135.3462570 126.2832260  39.3266320
 132.0760640 129.8974340  46.7690240 132.4063650 129.0295400  46.5368880
 132.5051640 130.1032860  47.5995200 136.6722560 128.2283350  44.4292210
 136.3718100 128.1048320  45.3296120 136.5660050 127.3691940  44.0207940
 132.5650850 130.7644930  49.5071870 132.1281840 130.9445730  50.3396020
 133.1328530 131.5219550  49.3653590 148.2013030 130.2661930  53.7949180
 147.6015020 130.3254490  53.0513100 148.3306930 129.3266910  53.9246030
 132.3975280 123.2765160  45.8660750 131.7424120 123.0076800  45.2220450
 133.2353230 123.1669640  45.4162730 146.8864670 126.9913910  51.8925340
 146.0724510 127.4211070  52.1551130 147.2938870 127.6032320  51.2794390
 145.3465720 118.0706450  40.0879240 145.7650600 117.8837430  39.2475900
 145.0401780 117.2185500  40.3982170 133.4351210 123.6617730  50.4064090
 133.8024250 123.5745130  51.2860110 132.8662030 122.8984280  50.3070950
 148.2355070 122.1302110  53.4194560 148.0041160 121.9014860  52.5192510
 148.4959620 123.0501660  53.3739450 132.9867210 120.5726820  54.3122510
 132.0923260 120.5393580  54.6516220 133.5264760 120.7713610  55.0773760
 146.6743140 117.3558540  56.1974260 147.5513320 117.3641940  56.5808260
 146.6863980 116.6189380  55.5866610 131.6113360 120.4864090  41.8086080
 130.7077440 120.7494290  41.6337740 132.0953980 120.7575260  41.0286040
 148.2996130 121.2927950  50.6081830 147.3498840 121.2591490  50.7226820
 148.4809140 122.2028060  50.3731600 134.1540570 119.5429630  39.7180460
 134.8632270 119.1212850  39.2327740 133.4380510 119.6104860  39.0863810
 133.8014730 115.5968960  38.7583110 134.5242860 116.1377900  39.0764330
 134.0739250 115.3232380  37.8824650 147.6106380 120.4661430  43.0254690
 148.1065500 120.2332300  43.8103570 147.4122450 119.6273270  42.6092330
 133.4906920 114.8475150  48.6605730 134.1383110 114.2972530  48.2200890
 133.9108760 115.1018300  49.4821540 147.3859260 115.0416510  52.0175370
 148.0231480 115.6550650  52.3834560 147.5334150 115.0777170  51.0724600
 146.9440720 131.7432510  45.4193610 147.5399790 131.4217080  44.7428030
 147.2018870 131.2704330  46.2106880 133.2438920 115.0030820  51.4031050
 132.8953740 115.4594640  52.1689230 132.9126620 114.1087950  51.4853480
 134.8503290 128.1750420  55.5684240 134.8072920 127.8043330  56.4498700
 134.9814300 129.1127990  55.7086060 138.5509320 129.7310010  51.1693960
 138.3100680 129.9984570  50.2824480 139.4911960 129.9015740  51.2244820
 140.7563740 116.1942700  54.9250470 140.6952630 116.7864530  55.6745880
 141.6964120 116.0868660  54.7800730 143.3938300 115.8512760  54.5642760
 144.0078710 116.1692050  53.9023840 143.9387860 115.3661350  55.1838620
 133.9159560 114.5307020  54.6781820 134.4642550 114.3495070  53.9147930
 133.9814870 113.7401130  55.2138130 134.6891320 131.1212670  52.6882020
 134.0951640 130.9897370  53.4272060 134.6815160 130.2850810  52.2224120
 144.1346340 114.4144900  50.8912050 143.2606180 114.7480010  50.6884980
 144.0257090 113.9418080  51.7163920 145.0418320 116.6215770  52.2753770
 144.7131680 115.8067530  51.8955500 145.9900620 116.5785580  52.1519460
 147.4952930 132.3927810  49.2491340 147.0355900 133.1443620  48.8749360
 146.8665390 131.6734280  49.1906140 134.3203550 128.4871050  51.6390060
 133.5937610 127.8676340  51.5716010 134.3812700 128.8811660  50.7688140
 137.9248650 130.7016050  48.4239470 138.4413670 130.0903410  47.8987730
 138.5746030 131.2044830  48.9150480 140.6644150 131.5924540  49.2508450
 140.9521960 131.3378840  48.3741460 141.1767370 131.0401900  49.8414020
 141.8821160 115.3314740  49.8304960 141.0992950 115.8060240  50.1101720
 141.5884090 114.4269570  49.7218140 146.4342230 116.0337840  47.8754050
 146.8750320 115.9782940  47.0275650 146.1649820 116.9495850  47.9464230
 132.6033550 131.8045440  44.8486820 132.4355590 131.1716120  45.5468710
 131.7368060 132.0104840  44.4981010 133.2261570 115.6362220  42.3518680
 133.9840930 115.7491100  41.7782710 132.7638740 116.4731420  42.3062110
 139.7675380 117.7501490  45.3420990 138.9549890 117.3758380  45.0016870
 140.2717020 116.9946570  45.6442180 144.2700360 114.4143940  46.5804060
 144.8729730 114.9864150  47.0552580 143.5293350 114.9783380  46.3577960
 147.4134960 114.8165500  41.8544340 147.6085590 115.7148950  42.1211770
 146.6264830 114.5852580  42.3477290 134.2096250 130.4978670  42.2936960
 133.6843870 130.8786700  41.5898920 134.1340830 131.1229440  43.0146670
 135.5986720 116.1626270  40.8920650 136.1279480 115.3756070  40.7628600
 136.2315040 116.8417460  41.1256180 137.7924560 115.9001410  43.9466040
 137.1627300 115.1988720  44.1136170 137.2529700 116.6605540  43.7299200
 140.7316510 132.5140640  56.6176650 141.6583820 132.2784910  56.6612610
 140.7166940 133.3412640  56.1362680 137.9180120 115.1785390  56.3818530
 137.6364390 115.6818990  55.6179350 138.2999820 114.3807140  56.0160660
 136.8089220 132.4461050  41.1686210 137.5408040 132.1620330  40.6210100
 137.0682890 132.2074330  42.0585590 135.9704010 128.5625780  41.1732540
 135.3412890 129.0310880  41.7218370 136.0851840 127.7175000  41.6078730
 144.5195580 114.5938970  56.9599000 144.4061030 114.9133580  57.8550520
 145.3365320 114.9951480  56.6636280 147.2994070 131.7410500  56.4417690
 148.0919390 131.2459730  56.2343650 147.5927220 132.4200640  57.0493300
 143.4253730 122.6131440  27.3233740 143.3447780 121.6986050  27.0525450
 143.0118150 123.1098510  26.6173450 141.5571770 124.3910460  29.2043010
 140.7813870 123.9110900  29.4941580 142.2084700 123.7116110  29.0299170
 135.5737600 124.7030270  30.0818770 134.7422480 124.4478980  30.4815280
 136.1818580 124.7741040  30.8176690 145.5779200 128.7970650  27.9842140
 145.1160730 128.0257890  28.3129310 146.3904750 128.8236720  28.4894590
 135.5538860 128.7370360  30.2776790 135.8566900 127.8468100  30.0987010
 136.2982450 129.2940580  30.0499040 133.9829550 119.6632160  23.8661160
 133.0946250 120.0048130  23.7641040 134.2670740 119.4632480  22.9741990
 131.9462560 122.2637810  29.7500860 132.5178670 121.4960010  29.7504500
 131.9464100 122.5626570  28.8407470 141.8042510 131.0828660  27.6046130
 141.1853950 131.5386160  27.0340570 142.6594290 131.2380120  27.2035830
 140.9980760 127.0667650  29.2113170 140.9289040 126.1257590  29.0502300
 141.7600620 127.1569060  29.7835740 133.1887430 117.6722170  31.5369790
 133.0090270 116.7747920  31.8172550 132.7867510 118.2194040  32.2116740
 142.0285930 119.8738030  29.4382100 142.4050750 119.0009910  29.3255770
 141.9305440 120.2096730  28.5472540 136.1590940 118.2463660  24.8999540
 136.2657690 119.1467390  25.2068300 135.2483300 118.1981630  24.6094190
 145.8110050 117.3688470  26.3710440 146.6319670 116.8785040  26.4135920
 145.8444130 117.9586130  27.1242280 133.8074100 120.1682670  30.1452130
 134.4884210 120.4321040  30.7639530 133.4922150 119.3283540  30.4790140
 137.9998670 121.2150030  29.2324720 138.5076890 121.7131000  29.8729740
 138.5311910 120.4385230  29.0564080 136.2834770 115.8548590  33.4988140
 136.2853210 116.3720980  32.6934040 135.4539080 115.3778770  33.4758070
 142.6705860 125.9667900  24.9978040 142.0523130 126.4317350  24.4340760
 143.1829110 126.6595380  25.4147550 137.5337620 125.4943770  31.6761640
 137.2007000 126.1212690  32.3182710 137.7104300 126.0205650  30.8963310
 146.0471530 119.3088850  29.1437980 145.3427100 119.5973740  29.7241090
 146.4083690 120.1188960  28.7837540 135.9650100 117.5658550  31.5058590
 136.3066910 118.4100600  31.2112460 135.0265910 117.7142290  31.6223930
 136.7456720 127.4624570  33.4910820 137.3630720 128.1375650  33.2095270
 135.8849840 127.8712550  33.3998320 132.0389060 126.6524430  22.3717670
 131.6617040 127.1411530  21.6402570 132.2962130 127.3249710  23.0024200
 147.6634310 128.9263980  31.4065460 146.9797830 129.5963090  31.3982130
 148.2028600 129.1244630  30.6410320 139.6477990 115.0540820  27.8303180
 139.9552970 114.4987710  27.1138680 138.7178690 115.1885280  27.6476170
 145.1993050 130.7708110  30.1210640 145.2120210 130.3670400  29.2532900
 144.6468270 131.5455400  30.0172070 146.4938470 127.4924330  25.2100810
 146.3834800 126.5498660  25.3350230 146.4906720 127.8539970  26.0963570
 144.5978490 125.6737950  31.4493250 145.0147280 125.4598060  30.6146710
 145.3218310 125.9310740  32.0201870 142.0358750 123.1189650  24.5663300
 141.1088030 123.0527030  24.7951770 142.1883570 124.0569780  24.4518540
 142.0227830 119.3906650  21.5630460 141.0831500 119.5520610  21.6482920
 142.3411090 120.1092330  21.0166450 146.0656040 124.6809950  25.0698550
 145.4468460 124.3429500  24.4224850 146.0480490 124.0369710  25.7777740
 145.5082600 120.8594490  32.4864360 145.0953780 121.6848200  32.7404350
 144.7758550 120.2739530  32.2940720 137.6415390 123.6454390  27.3483030
 137.2372390 122.9331640  26.8528930 137.7278510 123.3007630  28.2371070
 138.1097090 127.3321950  29.5122240 137.8125380 126.7267420  28.8330020
 139.0596910 127.3699260  29.4011600 136.3544010 120.4197600  31.1282070
 136.9058600 120.5292940  30.3535320 136.8687520 120.7935200  31.8437300
 146.1982700 130.9053820  33.1745340 145.7213260 131.7126010  32.9817950
 145.5144490 130.2532150  33.3271550 137.2015520 127.0703640  36.1630040
 136.3044050 127.2943610  36.4103440 137.2268390 127.1938580  35.2141440
 144.2420740 123.9196760  22.0771300 144.6814020 123.0819190  21.9309120
 144.9549160 124.5526160  22.1635440 136.0286740 123.9416960  34.7387410
 135.8894510 124.8139760  35.1074810 135.1468100 123.5989770  34.5935350
 142.3516120 128.8592830  26.0452540 142.7912030 129.6017160  25.6307930
 142.2903010 129.1019400  26.9691500 137.8267090 129.8838660  36.9472560
 137.7982520 130.2881610  36.0800990 137.6632060 128.9549020  36.7844160
 147.8237880 115.1739570  20.3912340 147.5110540 115.2666400  21.2911410
 148.5850350 115.7520600  20.3409770 134.3420020 122.5399370  24.8489680
 134.2217620 123.2661460  24.2370950 134.0320910 121.7702280  24.3717590
 131.9805390 125.7114510  30.6558320 132.0585810 125.8463280  29.7114040
 132.5947070 125.0030400  30.8486440 133.2253020 127.4114700  27.0664500
 132.8181100 127.5529290  26.2118100 134.1166030 127.1274860  26.8635710
 143.0431900 131.5606610  33.9731550 143.5576570 131.4714620  34.7753980
 142.2000980 131.9066310  34.2659460 145.0186300 131.8461950  23.4015550
 144.8587440 131.5564890  24.2997380 144.8533010 131.0702080  22.8660780
 137.4974680 131.6260480  25.1787170 137.3217160 130.7096020  24.9654970
 136.6430420 131.9847770  25.4184970 144.7212430 129.3549510  21.9613550
 144.0277590 129.3526800  21.3015830 145.4635290 128.9308830  21.5307720
 144.2862360 130.9812220  26.0362040 144.7419310 130.2001600  26.3500660
 144.6254880 131.6919040  26.5803220 132.0364910 126.7528680  33.1952780
 132.1995950 126.2834040  32.3772150 132.5017360 126.2452240  33.8601620
 136.8083680 115.8834440  28.2313350 136.3651830 116.6643980  27.8997870
 137.3668670 116.2064330  28.9384290 141.0953490 118.7502960  33.8348670
 140.6332860 118.9585980  34.6468610 140.6931600 117.9362310  33.5319340
 146.0958000 119.9711910  34.9645330 145.2451590 119.6717660  35.2854400
 145.9359790 120.2153920  34.0529150 143.1907710 121.4713660  37.0644120
 143.5161120 120.6377410  36.7246350 143.9788040 121.9942180  37.2122450
 139.9242500 115.5045140  23.1119180 139.2996680 115.5005010  23.8372490
 139.8372620 114.6376100  22.7155150 138.8459580 116.4281770  30.0902950
 139.1431910 117.3344600  30.0094970 139.3945140 115.9400550  29.4762520
 136.5997900 121.0068010  25.9594600 136.3738820 120.7905180  26.8641220
 135.8190430 121.4396470  25.6140570 143.8295660 121.0131380  24.5585250
 143.2304550 121.7367180  24.3748870 144.3775270 120.9508160  23.7761700
 139.0397110 121.9053590  36.6254870 138.9440710 120.9648320  36.4755270
 139.8829090 122.1268660  36.2302940 142.4360530 119.6494920  26.5888530
 142.8290100 119.9667120  25.7757220 142.7977380 118.7706800  26.7033050
 134.1707650 118.3167260  34.7788650 133.7771040 119.1642470  34.9861430
 133.4826050 117.6793630  34.9697290 140.7452700 118.4002230  37.8485390
 140.0551020 118.2074430  38.4831480 141.4885000 118.6836870  38.3809690
 131.4724700 116.2395720  28.8118730 131.1837750 116.8098580  29.5243710
 132.2170460 115.7600170  29.1749960 131.6594930 120.1815840  20.0221450
 131.5769600 121.1246600  20.1636440 131.3077990 120.0390750  19.1433800
 143.0215670 122.2400670  30.6839310 142.2896790 122.7487480  31.0329410
 142.6240010 121.4230650  30.3828090 139.4593060 118.9154870  29.0891800
 139.4629120 118.4744820  28.2396340 140.3544180 119.2372200  29.1963620
 135.3095440 118.7981360  28.0486010 134.9695490 119.2756590  28.8053060
 134.5472760 118.3446480  27.6887110 139.5213210 119.9166950  22.0798560
 139.6426030 119.8753430  23.0284380 139.1361720 120.7791100  21.9245290
 143.4841580 117.6934350  30.0962250 143.5014320 118.1443000  30.9404100
 143.2357160 116.7939990  30.3095690 138.5334710 122.2268090  21.4781860
 137.9651610 121.7786340  20.8517770 139.2423710 122.5860870  20.9447010
 146.9112330 115.1066530  35.9348630 147.2358100 114.3756190  36.4606610
 146.9468840 114.7880170  35.0329620 133.6103890 126.1280110  35.3548590
 133.2258680 125.4873780  35.9531550 133.9216080 126.8316230  35.9243320
 139.7601030 122.9756650  30.8357210 140.1271160 122.5015220  31.5818550
 139.5706090 123.8498220  31.1765550 132.6241520 117.7200340  26.9650680
 132.3388440 117.3556010  27.8029300 132.5620380 116.9880800  26.3513820
 137.5500400 122.0165290  33.1541420 137.2457470 122.8957270  33.3791780
 138.5046860 122.0765080  33.1898860 136.0782190 126.2226280  23.7508270
 135.3044450 125.6823900  23.5906990 136.8076820 125.7032890  23.4126030
 146.8370170 125.2191640  29.5434660 147.5569290 125.7146930  29.1530770
 146.6351990 124.5409530  28.8988530 142.2980110 116.6129600  23.6864050
 141.4844720 116.1142770  23.6109360 142.1042060 117.4527850  23.2700400
 142.2188970 125.2900700  35.4303660 142.1526280 124.3696370  35.1761250
 141.5894110 125.3876140  36.1448300 145.0128500 120.9849250  21.9826210
 145.9008120 121.2966480  21.8077550 144.9833590 120.1121500  21.5906790
 136.1219590 125.8906660  27.3887080 136.6398260 125.0874920  27.3343970
 135.6703610 125.8285800  28.2303910 141.0089090 127.1572940  22.6614380
 141.3504790 127.9015170  22.1657700 140.1801800 127.4704060  23.0239210
 133.6064130 122.8568030  34.3012780 133.2479070 123.5221880  34.8886120
 133.3118690 122.0251580  34.6725400 136.8077250 123.3152270  37.1852330
 136.5077390 123.4609450  36.2880150 137.5788490 122.7557560  37.0925720
 142.1505700 128.1121270  35.1807460 142.1650240 127.1802230  34.9626370
 141.4430800 128.1981030  35.8197230 147.2842770 122.2961090  21.4506070
 147.2006490 122.7275310  20.6002510 148.0036960 122.7559440  21.8832890
 148.3130020 129.1503350  24.1788200 147.6706180 128.4958970  24.4531920
 147.9260680 129.5558440  23.4028870 143.8916500 126.4788780  28.0259890
 144.2440320 125.8816910  27.3661260 143.0078830 126.1533010  28.1968140
 139.9779780 127.2386470  25.4330300 140.6650910 127.7855680  25.8137890
 139.1912200 127.7827200  25.4679910 132.1172180 122.8559290  20.9247380
 132.9867030 123.1384090  21.2083300 131.6262500 123.6695160  20.8096190
 139.2806990 124.2432500  25.0455660 139.7369770 125.0537750  25.2715850
 138.9295200 123.9255640  25.8774150 141.5839600 129.7538840  32.2747960
 142.2281820 129.9598220  32.9521380 141.9469040 128.9927240  31.8218810
 135.1818770 114.5870150  25.5178180 135.0533400 114.5788050  26.4663100
 134.3580790 114.9253240  25.1669190 142.8571680 127.7571190  30.9925410
 143.4993910 127.0564350  31.1057580 143.3821030 128.5369630  30.8122300
 146.7027400 128.0419810  20.7164550 146.4764980 127.3250250  21.3089190
 146.3123600 127.7932250  19.8786300 144.6309300 128.5566090  34.1961470
 144.9665540 129.1432780  34.8739390 143.7109640 128.4258800  34.4259260
 132.4843430 132.0686670  21.4909010 132.8441070 132.6676010  20.8366280
 132.3435770 132.6146560  22.2644040 132.1812700 116.3461270  34.9784880
 131.4671220 116.5458190  35.5837490 132.6007740 115.5700840  35.3499680
 146.2843650 125.9591750  22.3778710 145.9965350 126.4204440  23.1656590
 147.0795820 125.4989520  22.6462930 132.4685290 130.3341530  35.9651410
 132.5776410 129.3936270  35.8246800 131.8165850 130.5996280  35.3165140
 140.4597880 128.6057420  37.3649530 140.1394750 127.8866660  37.9095220
 139.7856240 129.2812490  37.4385590 138.5012050 129.4517870  22.3082680
 138.4922150 130.1847560  21.6927190 137.5810410 129.2049450  22.4009640
 134.1018690 124.6732760  23.0529440 133.4946640 125.4131660  23.0624740
 134.5768040 124.7632120  22.2267640 143.6751480 118.8383580  32.7286330
 144.0432300 118.0178790  33.0565900 142.8149680 118.8985470  33.1441980
 147.0413510 117.7940520  23.5373890 146.4126670 117.8986190  22.8232120
 146.5465430 118.0137300  24.3267770 141.4871650 129.5146110  20.9707870
 141.5883630 129.3110100  20.0409850 140.5873390 129.2604390  21.1755650
 139.0097540 120.0726470  24.9531770 138.3013690 120.5412810  25.3945380
 139.2942020 119.4148480  25.5876960 140.6353470 121.4923170  32.9524300
 141.1338720 121.9668990  33.6176150 140.7776420 120.5686690  33.1594330
 143.0412970 116.7977130  26.3927560 142.9180750 116.8163260  25.4437070
 143.9897530 116.8456070  26.5125960 140.1289760 132.0332430  25.6655540
 140.3831260 131.9953820  24.7434910 139.1802240 131.9065760  25.6583790
 137.2132560 118.3811550  22.3282480 138.0623090 118.8181700  22.2622670
 136.8463830 118.6931810  23.1554540 147.8420330 117.7091130  33.7952690
 147.3393930 118.4496530  34.1346500 148.6576990 118.0975130  33.4789480
 146.1342340 122.9524310  27.2414050 145.1932480 122.9674540  27.4161740
 146.4486410 122.1660270  27.6874350 136.1123980 124.6343910  20.8018010
 136.8787250 124.5225270  21.3643440 136.1898670 123.9381880  20.1494780
 134.8070740 122.0668980  21.4850900 134.8874330 121.1196490  21.5968300
 135.6990490 122.3975860  21.5911560 135.6085450 132.2164370  28.5885440
 136.3447930 131.6679830  28.8594010 135.9926370 133.0820380  28.4491430
 132.4930930 128.2837940  24.4626950 131.5670710 128.5259080  24.4532360
 132.9587360 129.1112200  24.3411700 134.6143730 131.4010440  37.7771020
 135.4156460 131.7222490  38.1906420 134.0995550 131.0406020  38.4990930
 138.7187760 131.3894680  20.4111010 139.5116370 131.6783510  19.9592800
 138.1992110 130.9586850  19.7323490 143.4508360 127.5090310  37.7246430
 142.8446520 127.5321910  36.9842180 143.1462470 126.7773350  38.2613680
 144.8808730 131.2370600  36.3355840 145.8330480 131.1528620  36.2856080
 144.7336950 131.9012310  37.0089630 147.7717930 130.6164810  21.8347750
 147.4859440 130.2029950  21.0201930 147.5737480 131.5452520  21.7148270
 132.3341540 123.8883900  36.7207070 132.8380560 123.3091180  37.2923300
 131.5948960 124.1724130  37.2583440 139.2365160 126.6098090  20.2753360
 139.1315800 125.9950440  21.0014740 139.0689380 126.0863980  19.4916370
 139.3879480 125.2954890  36.2542590 138.6225150 125.8639890  36.1697260
 139.5695440 125.0031100  35.3610820 142.4767890 125.6718120  20.8795350
 141.9277990 126.1187420  21.5238090 143.0987150 125.1667370  21.4033020
 146.5302830 127.0260220  36.8117610 147.2712300 127.3635980  36.3085070
 145.7675510 127.1952280  36.2587380 134.3664620 122.0313490  37.6157140
 134.4069960 121.7327360  38.5242370 135.2210120 122.4321100  37.4564660
 138.1443010 124.6309040  22.7760650 138.5659430 124.4648910  23.6192040
 138.2693850 123.8209270  22.2815790 136.3070430 120.6105590  35.5831630
 135.7766890 120.1196540  34.9554970 136.9758500 121.0389790  35.0489560
 140.6570650 123.6546650  20.0237750 141.1776310 122.9395670  19.6578900
 141.3039050 124.2932520  20.3238260 145.2048490 125.0775050  35.3472820
 145.6189510 125.2320130  36.1963240 144.2699490 125.2030270  35.5098600
 145.6770660 122.4171210  37.3511970 146.2591430 121.6623530  37.2632450
 145.8532430 122.9478650  36.5743450 136.7942730 117.5767960  35.6628920
 136.6999600 116.9588710  34.9379790 136.2140120 118.3034250  35.4358830
 139.5604170 116.1341200  32.6956310 139.1121470 116.1565460  31.8501860
 138.9269370 115.7360220  33.2926610 139.9663720 125.0295530  33.3168750
 140.3851830 125.8728260  33.1444990 139.0472350 125.1667570  33.0875530
 142.3027620 122.7611710  34.7006590 142.4223830 122.1652850  35.4401430
 143.1621620 122.7981400  34.2807890 144.6415520 123.3148900  33.2769100
 144.1150740 123.8391520  32.6734240 144.9846860 123.9476290  33.9078830
 137.0401910 120.7042270  19.7218810 136.8390970 119.8409630  20.0832150
 136.8693960 120.6175630  18.7840410 137.8171140 131.3348540  34.4326480
 137.2792230 132.0594600  34.1135180 138.0705100 130.8578880  33.6423820
 139.0696390 119.3033060  35.9582410 139.6596080 118.9948910  36.6460230
 138.2516630 118.8312810  36.1142310 143.8889820 118.9198870  36.1915430
 143.2005340 118.2580410  36.1265420 144.6095840 118.4737140  36.6363890
 144.5190220 115.5150500  22.2505690 144.7992510 114.6718400  22.6065110
 143.7455950 115.7473610  22.7644440 135.8384710 117.8042890  19.7096690
 136.1410610 117.8110320  18.8015840 136.5779300 117.4540750  20.2064350
 140.6733350 132.5699750  34.6913130 140.5992050 133.4734890  34.9985500
 139.7712190 132.2511650  34.6635200 139.0569640 116.7477510  20.6952890
 138.7091640 116.0701500  20.1155340 139.2582410 116.2867020  21.5096280
 141.2218680 131.7358260  22.3139490 142.1169470 132.0743230  22.3358250
 141.2536310 131.0137670  21.6863770 134.8614840 127.1085310  20.5426490
 135.2989710 127.6514980  21.1984070 135.3462570 126.2832260  20.5522830
 132.0760640 129.8974340  27.9946750 132.4063650 129.0295400  27.7625390
 132.5051640 130.1032860  28.8251710 136.6722560 128.2283350  25.6548720
 136.3718100 128.1048320  26.5552630 136.5660050 127.3691940  25.2464450
 132.5650850 130.7644930  30.7328380 132.1281840 130.9445730  31.5652530
 133.1328530 131.5219550  30.5910100 148.2013030 130.2661930  35.0205690
 147.6015020 130.3254490  34.2769610 148.3306930 129.3266910  35.1502540
 132.3975280 123.2765160  27.0917260 131.7424120 123.0076800  26.4476960
 133.2353230 123.1669640  26.6419240 146.8864670 126.9913910  33.1181850
 146.0724510 127.4211070  33.3807640 147.2938870 127.6032320  32.5050900
 145.3465720 118.0706450  21.3135750 145.7650600 117.8837430  20.4732410
 145.0401780 117.2185500  21.6238680 133.4351210 123.6617730  31.6320600
 133.8024250 123.5745130  32.5116620 132.8662030 122.8984280  31.5327460
 148.2355070 122.1302110  34.6451070 148.0041160 121.9014860  33.7449020
 148.4959620 123.0501660  34.5995960 132.9867210 120.5726820  35.5379020
 132.0923260 120.5393580  35.8772730 133.5264760 120.7713610  36.3030270
 146.6743140 117.3558540  37.4230770 147.5513320 117.3641940  37.8064770
 146.6863980 116.6189380  36.8123120 131.6113360 120.4864090  23.0342590
 130.7077440 120.7494290  22.8594250 132.0953980 120.7575260  22.2542550
 148.2996130 121.2927950  31.8338340 147.3498840 121.2591490  31.9483330
 148.4809140 122.2028060  31.5988110 134.1540570 119.5429630  20.9436970
 134.8632270 119.1212850  20.4584250 133.4380510 119.6104860  20.3120320
 133.8014730 115.5968960  19.9839620 134.5242860 116.1377900  20.3020840
 134.0739250 115.3232380  19.1081160 147.6106380 120.4661430  24.2511200
 148.1065500 120.2332300  25.0360080 147.4122450 119.6273270  23.8348840
 133.4906920 114.8475150  29.8862240 134.1383110 114.2972530  29.4457400
 133.9108760 115.1018300  30.7078050 147.3859260 115.0416510  33.2431880
 148.0231480 115.6550650  33.6091070 147.5334150 115.0777170  32.2981110
 146.9440720 131.7432510  26.6450120 147.5399790 131.4217080  25.9684540
 147.2018870 131.2704330  27.4363390 133.2438920 115.0030820  32.6287560
 132.8953740 115.4594640  33.3945740 132.9126620 114.1087950  32.7109990
 134.8503290 128.1750420  36.7940750 134.8072920 127.8043330  37.6755210
 134.9814300 129.1127990  36.9342570 138.5509320 129.7310010  32.3950470
 138.3100680 129.9984570  31.5080990 139.4911960 129.9015740  32.4501330
 140.7563740 116.1942700  36.1506980 140.6952630 116.7864530  36.9002390
 141.6964120 116.0868660  36.0057240 143.3938300 115.8512760  35.7899270
 144.0078710 116.1692050  35.1280350 143.9387860 115.3661350  36.4095130
 133.9159560 114.5307020  35.9038330 134.4642550 114.3495070  35.1404440
 133.9814870 113.7401130  36.4394640 134.6891320 131.1212670  33.9138530
 134.0951640 130.9897370  34.6528570 134.6815160 130.2850810  33.4480630
 144.1346340 114.4144900  32.1168560 143.2606180 114.7480010  31.9141490
 144.0257090 113.9418080  32.9420430 145.0418320 116.6215770  33.5010280
 144.7131680 115.8067530  33.1212010 145.9900620 116.5785580  33.3775970
 147.4952930 132.3927810  30.4747850 147.0355900 133.1443620  30.1005870
 146.8665390 131.6734280  30.4162650 134.3203550 128.4871050  32.8646570
 133.5937610 127.8676340  32.7972520 134.3812700 128.8811660  31.9944650
 137.9248650 130.7016050  29.6495980 138.4413670 130.0903410  29.1244240
 138.5746030 131.2044830  30.1406990 140.6644150 131.5924540  30.4764960
 140.9521960 131.3378840  29.5997970 141.1767370 131.0401900  31.0670530
 141.8821160 115.3314740  31.0561470 141.0992950 115.8060240  31.3358230
 141.5884090 114.4269570  30.9474650 146.4342230 116.0337840  29.1010560
 146.8750320 115.9782940  28.2532160 146.1649820 116.9495850  29.1720740
 132.6033550 131.8045440  26.0743330 132.4355590 131.1716120  26.7725220
 131.7368060 132.0104840  25.7237520 133.2261570 115.6362220  23.5775190
 133.9840930 115.7491100  23.0039220 132.7638740 116.4731420  23.5318620
 139.7675380 117.7501490  26.5677500 138.9549890 117.3758380  26.2273380
 140.2717020 116.9946570  26.8698690 144.2700360 114.4143940  27.8060570
 144.8729730 114.9864150  28.2809090 143.5293350 114.9783380  27.5834470
 147.4134960 114.8165500  23.0800850 147.6085590 115.7148950  23.3468280
 146.6264830 114.5852580  23.5733800 134.2096250 130.4978670  23.5193470
 133.6843870 130.8786700  22.8155430 134.1340830 131.1229440  24.2403180
 135.5986720 116.1626270  22.1177160 136.1279480 115.3756070  21.9885110
 136.2315040 116.8417460  22.3512690 137.7924560 115.9001410  25.1722550
 137.1627300 115.1988720  25.3392680 137.2529700 116.6605540  24.9555710
 140.7316510 132.5140640  37.8433160 141.6583820 132.2784910  37.8869120
 140.7166940 133.3412640  37.3619190 137.9180120 115.1785390  37.6075040
 137.6364390 115.6818990  36.8435860 138.2999820 114.3807140  37.2417170
 136.8089220 132.4461050  22.3942720 137.5408040 132.1620330  21.8466610
 137.0682890 132.2074330  23.2842100 135.9704010 128.5625780  22.3989050
 135.3412890 129.0310880  22.9474880 136.0851840 127.7175000  22.8335240
 144.5195580 114.5938970  38.1855510 144.4061030 114.9133580  39.0807030
 145.3365320 114.9951480  37.8892790 147.2994070 131.7410500  37.6674200
 148.0919390 131.2459730  37.4600160 147.5927220 132.4200640  38.2749810
 143.4253730 122.6131440   8.5490250 143.3447780 121.6986050   8.2781960
 143.0118150 123.1098510   7.8429960 141.5571770 124.3910460  10.4299520
 140.7813870 123.9110900  10.7198090 142.2084700 123.7116110  10.2555680
 135.5737600 124.7030270  11.3075280 134.7422480 124.4478980  11.7071790
 136.1818580 124.7741040  12.0433200 145.5779200 128.7970650   9.2098650
 145.1160730 128.0257890   9.5385820 146.3904750 128.8236720   9.7151100
 135.5538860 128.7370360  11.5033300 135.8566900 127.8468100  11.3243520
 136.2982450 129.2940580  11.2755550 133.9829550 119.6632160   5.0917670
 133.0946250 120.0048130   4.9897550 134.2670740 119.4632480   4.1998500
 131.9462560 122.2637810  10.9757370 132.5178670 121.4960010  10.9761010
 131.9464100 122.5626570  10.0663980 141.8042510 131.0828660   8.8302640
 141.1853950 131.5386160   8.2597080 142.6594290 131.2380120   8.4292340
 140.9980760 127.0667650  10.4369680 140.9289040 126.1257590  10.2758810
 141.7600620 127.1569060  11.0092250 133.1887430 117.6722170  12.7626300
 133.0090270 116.7747920  13.0429060 132.7867510 118.2194040  13.4373250
 142.0285930 119.8738030  10.6638610 142.4050750 119.0009910  10.5512280
 141.9305440 120.2096730   9.7729050 136.1590940 118.2463660   6.1256050
 136.2657690 119.1467390   6.4324810 135.2483300 118.1981630   5.8350700
 145.8110050 117.3688470   7.5966950 146.6319670 116.8785040   7.6392430
 145.8444130 117.9586130   8.3498790 133.8074100 120.1682670  11.3708640
 134.4884210 120.4321040  11.9896040 133.4922150 119.3283540  11.7046650
 137.9998670 121.2150030  10.4581230 138.5076890 121.7131000  11.0986250
 138.5311910 120.4385230  10.2820590 136.2834770 115.8548590  14.7244650
 136.2853210 116.3720980  13.9190550 135.4539080 115.3778770  14.7014580
 142.6705860 125.9667900   6.2234550 142.0523130 126.4317350   5.6597270
 143.1829110 126.6595380   6.6404060 137.5337620 125.4943770  12.9018150
 137.2007000 126.1212690  13.5439220 137.7104300 126.0205650  12.1219820
 146.0471530 119.3088850  10.3694490 145.3427100 119.5973740  10.9497600
 146.4083690 120.1188960  10.0094050 135.9650100 117.5658550  12.7315100
 136.3066910 118.4100600  12.4368970 135.0265910 117.7142290  12.8480440
 136.7456720 127.4624570  14.7167330 137.3630720 128.1375650  14.4351780
 135.8849840 127.8712550  14.6254830 132.0389060 126.6524430   3.5974180
 131.6617040 127.1411530   2.8659080 132.2962130 127.3249710   4.2280710
 147.6634310 128.9263980  12.6321970 146.9797830 129.5963090  12.6238640
 148.2028600 129.1244630  11.8666830 139.6477990 115.0540820   9.0559690
 139.9552970 114.4987710   8.3395190 138.7178690 115.1885280   8.8732680
 145.1993050 130.7708110  11.3467150 145.2120210 130.3670400  10.4789410
 144.6468270 131.5455400  11.2428580 146.4938470 127.4924330   6.4357320
 146.3834800 126.5498660   6.5606740 146.4906720 127.8539970   7.3220080
 144.5978490 125.6737950  12.6749760 145.0147280 125.4598060  11.8403220
 145.3218310 125.9310740  13.2458380 142.0358750 123.1189650   5.7919810
 141.1088030 123.0527030   6.0208280 142.1883570 124.0569780   5.6775050
 142.0227830 119.3906650   2.7886970 141.0831500 119.5520610   2.8739430
 142.3411090 120.1092330   2.2422960 146.0656040 124.6809950   6.2955060
 145.4468460 124.3429500   5.6481360 146.0480490 124.0369710   7.0034250
 145.5082600 120.8594490  13.7120870 145.0953780 121.6848200  13.9660860
 144.7758550 120.2739530  13.5197230 137.6415390 123.6454390   8.5739540
 137.2372390 122.9331640   8.0785440 137.7278510 123.3007630   9.4627580
 138.1097090 127.3321950  10.7378750 137.8125380 126.7267420  10.0586530
 139.0596910 127.3699260  10.6268110 136.3544010 120.4197600  12.3538580
 136.9058600 120.5292940  11.5791830 136.8687520 120.7935200  13.0693810
 146.1982700 130.9053820  14.4001850 145.7213260 131.7126010  14.2074460
 145.5144490 130.2532150  14.5528060 137.2015520 127.0703640  17.3886550
 136.3044050 127.2943610  17.6359950 137.2268390 127.1938580  16.4397950
 144.2420740 123.9196760   3.3027810 144.6814020 123.0819190   3.1565630
 144.9549160 124.5526160   3.3891950 136.0286740 123.9416960  15.9643920
 135.8894510 124.8139760  16.3331320 135.1468100 123.5989770  15.8191860
 142.3516120 128.8592830   7.2709050 142.7912030 129.6017160   6.8564440
 142.2903010 129.1019400   8.1948010 137.8267090 129.8838660  18.1729070
 137.7982520 130.2881610  17.3057500 137.6632060 128.9549020  18.0100670
 134.3420020 122.5399370   6.0746190 134.2217620 123.2661460   5.4627460
 134.0320910 121.7702280   5.5974100 131.9805390 125.7114510  11.8814830
 132.0585810 125.8463280  10.9370550 132.5947070 125.0030400  12.0742950
 133.2253020 127.4114700   8.2921010 132.8181100 127.5529290   7.4374610
 134.1166030 127.1274860   8.0892220 143.0431900 131.5606610  15.1988060
 143.5576570 131.4714620  16.0010490 142.2000980 131.9066310  15.4915970
 145.0186300 131.8461950   4.6272060 144.8587440 131.5564890   5.5253890
 144.8533010 131.0702080   4.0917290 137.4974680 131.6260480   6.4043680
 137.3217160 130.7096020   6.1911480 136.6430420 131.9847770   6.6441480
 144.7212430 129.3549510   3.1870060 144.0277590 129.3526800   2.5272340
 145.4635290 128.9308830   2.7564230 144.2862360 130.9812220   7.2618550
 144.7419310 130.2001600   7.5757170 144.6254880 131.6919040   7.8059730
 132.0364910 126.7528680  14.4209290 132.1995950 126.2834040  13.6028660
 132.5017360 126.2452240  15.0858130 136.8083680 115.8834440   9.4569860
 136.3651830 116.6643980   9.1254380 137.3668670 116.2064330  10.1640800
 141.0953490 118.7502960  15.0605180 140.6332860 118.9585980  15.8725120
 140.6931600 117.9362310  14.7575850 146.0958000 119.9711910  16.1901840
 145.2451590 119.6717660  16.5110910 145.9359790 120.2153920  15.2785660
 143.1907710 121.4713660  18.2900630 143.5161120 120.6377410  17.9502860
 143.9788040 121.9942180  18.4378960 139.9242500 115.5045140   4.3375690
 139.2996680 115.5005010   5.0629000 139.8372620 114.6376100   3.9411660
 138.8459580 116.4281770  11.3159460 139.1431910 117.3344600  11.2351480
 139.3945140 115.9400550  10.7019030 136.5997900 121.0068010   7.1851110
 136.3738820 120.7905180   8.0897730 135.8190430 121.4396470   6.8397080
 143.8295660 121.0131380   5.7841760 143.2304550 121.7367180   5.6005380
 144.3775270 120.9508160   5.0018210 139.0397110 121.9053590  17.8511380
 138.9440710 120.9648320  17.7011780 139.8829090 122.1268660  17.4559450
 142.4360530 119.6494920   7.8145040 142.8290100 119.9667120   7.0013730
 142.7977380 118.7706800   7.9289560 134.1707650 118.3167260  16.0045160
 133.7771040 119.1642470  16.2117940 133.4826050 117.6793630  16.1953800
 140.7452700 118.4002230  19.0741900 140.0551020 118.2074430  19.7087990
 141.4885000 118.6836870  19.6066200 131.4724700 116.2395720  10.0375240
 131.1837750 116.8098580  10.7500220 132.2170460 115.7600170  10.4006470
 143.0215670 122.2400670  11.9095820 142.2896790 122.7487480  12.2585920
 142.6240010 121.4230650  11.6084600 139.4593060 118.9154870  10.3148310
 139.4629120 118.4744820   9.4652850 140.3544180 119.2372200  10.4220130
 135.3095440 118.7981360   9.2742520 134.9695490 119.2756590  10.0309570
 134.5472760 118.3446480   8.9143620 139.5213210 119.9166950   3.3055070
 139.6426030 119.8753430   4.2540890 139.1361720 120.7791100   3.1501800
 143.4841580 117.6934350  11.3218760 143.5014320 118.1443000  12.1660610
 143.2357160 116.7939990  11.5352200 138.5334710 122.2268090   2.7038370
 137.9651610 121.7786340   2.0774280 139.2423710 122.5860870   2.1703520
 146.9112330 115.1066530  17.1605140 147.2358100 114.3756190  17.6863120
 146.9468840 114.7880170  16.2586130 133.6103890 126.1280110  16.5805100
 133.2258680 125.4873780  17.1788060 133.9216080 126.8316230  17.1499830
 139.7601030 122.9756650  12.0613720 140.1271160 122.5015220  12.8075060
 139.5706090 123.8498220  12.4022060 132.6241520 117.7200340   8.1907190
 132.3388440 117.3556010   9.0285810 132.5620380 116.9880800   7.5770330
 137.5500400 122.0165290  14.3797930 137.2457470 122.8957270  14.6048290
 138.5046860 122.0765080  14.4155370 136.0782190 126.2226280   4.9764780
 135.3044450 125.6823900   4.8163500 136.8076820 125.7032890   4.6382540
 146.8370170 125.2191640  10.7691170 147.5569290 125.7146930  10.3787280
 146.6351990 124.5409530  10.1245040 142.2980110 116.6129600   4.9120560
 141.4844720 116.1142770   4.8365870 142.1042060 117.4527850   4.4956910
 142.2188970 125.2900700  16.6560170 142.1526280 124.3696370  16.4017760
 141.5894110 125.3876140  17.3704810 145.0128500 120.9849250   3.2082720
 145.9008120 121.2966480   3.0334060 144.9833590 120.1121500   2.8163300
 136.1219590 125.8906660   8.6143590 136.6398260 125.0874920   8.5600480
 135.6703610 125.8285800   9.4560420 141.0089090 127.1572940   3.8870890
 141.3504790 127.9015170   3.3914210 140.1801800 127.4704060   4.2495720
 133.6064130 122.8568030  15.5269290 133.2479070 123.5221880  16.1142630
 133.3118690 122.0251580  15.8981910 136.8077250 123.3152270  18.4108840
 136.5077390 123.4609450  17.5136660 137.5788490 122.7557560  18.3182230
 142.1505700 128.1121270  16.4063970 142.1650240 127.1802230  16.1882880
 141.4430800 128.1981030  17.0453740 147.2842770 122.2961090   2.6762580
 147.2006490 122.7275310   1.8259020 148.0036960 122.7559440   3.1089400
 148.3130020 129.1503350   5.4044710 147.6706180 128.4958970   5.6788430
 147.9260680 129.5558440   4.6285380 143.8916500 126.4788780   9.2516400
 144.2440320 125.8816910   8.5917770 143.0078830 126.1533010   9.4224650
 139.9779780 127.2386470   6.6586810 140.6650910 127.7855680   7.0394400
 139.1912200 127.7827200   6.6936420 132.1172180 122.8559290   2.1503890
 132.9867030 123.1384090   2.4339810 131.6262500 123.6695160   2.0352700
 139.2806990 124.2432500   6.2712170 139.7369770 125.0537750   6.4972360
 138.9295200 123.9255640   7.1030660 141.5839600 129.7538840  13.5004470
 142.2281820 129.9598220  14.1777890 141.9469040 128.9927240  13.0475320
 135.1818770 114.5870150   6.7434690 135.0533400 114.5788050   7.6919610
 134.3580790 114.9253240   6.3925700 142.8571680 127.7571190  12.2181920
 143.4993910 127.0564350  12.3314090 143.3821030 128.5369630  12.0378810
 144.6309300 128.5566090  15.4217980 144.9665540 129.1432780  16.0995900
 143.7109640 128.4258800  15.6515770 132.4843430 132.0686670   2.7165520
 132.8441070 132.6676010   2.0622790 132.3435770 132.6146560   3.4900550
 132.1812700 116.3461270  16.2041390 131.4671220 116.5458190  16.8094000
 132.6007740 115.5700840  16.5756190 146.2843650 125.9591750   3.6035220
 145.9965350 126.4204440   4.3913100 147.0795820 125.4989520   3.8719440
 132.4685290 130.3341530  17.1907920 132.5776410 129.3936270  17.0503310
 131.8165850 130.5996280  16.5421650 140.4597880 128.6057420  18.5906040
 140.1394750 127.8866660  19.1351730 139.7856240 129.2812490  18.6642100
 138.5012050 129.4517870   3.5339190 138.4922150 130.1847560   2.9183700
 137.5810410 129.2049450   3.6266150 134.1018690 124.6732760   4.2785950
 133.4946640 125.4131660   4.2881250 134.5768040 124.7632120   3.4524150
 143.6751480 118.8383580  13.9542840 144.0432300 118.0178790  14.2822410
 142.8149680 118.8985470  14.3698490 147.0413510 117.7940520   4.7630400
 146.4126670 117.8986190   4.0488630 146.5465430 118.0137300   5.5524280
 139.0097540 120.0726470   6.1788280 138.3013690 120.5412810   6.6201890
 139.2942020 119.4148480   6.8133470 140.6353470 121.4923170  14.1780810
 141.1338720 121.9668990  14.8432660 140.7776420 120.5686690  14.3850840
 143.0412970 116.7977130   7.6184070 142.9180750 116.8163260   6.6693580
 143.9897530 116.8456070   7.7382470 140.1289760 132.0332430   6.8912050
 140.3831260 131.9953820   5.9691420 139.1802240 131.9065760   6.8840300
 137.2132560 118.3811550   3.5538990 138.0623090 118.8181700   3.4879180
 136.8463830 118.6931810   4.3811050 147.8420330 117.7091130  15.0209200
 147.3393930 118.4496530  15.3603010 148.6576990 118.0975130  14.7045990
 146.1342340 122.9524310   8.4670560 145.1932480 122.9674540   8.6418250
 146.4486410 122.1660270   8.9130860 134.8070740 122.0668980   2.7107410
 134.8874330 121.1196490   2.8224810 135.6990490 122.3975860   2.8168070
 135.6085450 132.2164370   9.8141950 136.3447930 131.6679830  10.0850520
 135.9926370 133.0820380   9.6747940 132.4930930 128.2837940   5.6883460
 131.5670710 128.5259080   5.6788870 132.9587360 129.1112200   5.5668210
 134.6143730 131.4010440  19.0027530 135.4156460 131.7222490  19.4162930
 134.0995550 131.0406020  19.7247440 143.4508360 127.5090310  18.9502940
 142.8446520 127.5321910  18.2098690 143.1462470 126.7773350  19.4870190
 144.8808730 131.2370600  17.5612350 145.8330480 131.1528620  17.5112590
 144.7336950 131.9012310  18.2346140 147.7717930 130.6164810   3.0604260
 147.4859440 130.2029950   2.2458440 147.5737480 131.5452520   2.9404780
 132.3341540 123.8883900  17.9463580 132.8380560 123.3091180  18.5179810
 131.5948960 124.1724130  18.4839950 139.3879480 125.2954890  17.4799100
 138.6225150 125.8639890  17.3953770 139.5695440 125.0031100  16.5867330
 142.4767890 125.6718120   2.1051860 141.9277990 126.1187420   2.7494600
 143.0987150 125.1667370   2.6289530 146.5302830 127.0260220  18.0374120
 147.2712300 127.3635980  17.5341580 145.7675510 127.1952280  17.4843890
 134.3664620 122.0313490  18.8413650 134.4069960 121.7327360  19.7498880
 135.2210120 122.4321100  18.6821170 138.1443010 124.6309040   4.0017160
 138.5659430 124.4648910   4.8448550 138.2693850 123.8209270   3.5072300
 136.3070430 120.6105590  16.8088140 135.7766890 120.1196540  16.1811480
 136.9758500 121.0389790  16.2746070 145.2048490 125.0775050  16.5729330
 145.6189510 125.2320130  17.4219750 144.2699490 125.2030270  16.7355110
 145.6770660 122.4171210  18.5768480 146.2591430 121.6623530  18.4888960
 145.8532430 122.9478650  17.7999960 136.7942730 117.5767960  16.8885430
 136.6999600 116.9588710  16.1636300 136.2140120 118.3034250  16.6615340
 139.5604170 116.1341200  13.9212820 139.1121470 116.1565460  13.0758370
 138.9269370 115.7360220  14.5183120 139.9663720 125.0295530  14.5425260
 140.3851830 125.8728260  14.3701500 139.0472350 125.1667570  14.3132040
 142.3027620 122.7611710  15.9263100 142.4223830 122.1652850  16.6657940
 143.1621620 122.7981400  15.5064400 144.6415520 123.3148900  14.5025610
 144.1150740 123.8391520  13.8990750 144.9846860 123.9476290  15.1335340
 137.8171140 131.3348540  15.6582990 137.2792230 132.0594600  15.3391690
 138.0705100 130.8578880  14.8680330 139.0696390 119.3033060  17.1838920
 139.6596080 118.9948910  17.8716740 138.2516630 118.8312810  17.3398820
 143.8889820 118.9198870  17.4171940 143.2005340 118.2580410  17.3521930
 144.6095840 118.4737140  17.8620400 144.5190220 115.5150500   3.4762200
 144.7992510 114.6718400   3.8321620 143.7455950 115.7473610   3.9900950
 140.6733350 132.5699750  15.9169640 140.5992050 133.4734890  16.2242010
 139.7712190 132.2511650  15.8891710 141.2218680 131.7358260   3.5396000
 142.1169470 132.0743230   3.5614760 141.2536310 131.0137670   2.9120280
 134.8614840 127.1085310   1.7683000 135.2989710 127.6514980   2.4240580
 135.3462570 126.2832260   1.7779340 132.0760640 129.8974340   9.2203260
 132.4063650 129.0295400   8.9881900 132.5051640 130.1032860  10.0508220
 136.6722560 128.2283350   6.8805230 136.3718100 128.1048320   7.7809140
 136.5660050 127.3691940   6.4720960 132.5650850 130.7644930  11.9584890
 132.1281840 130.9445730  12.7909040 133.1328530 131.5219550  11.8166610
 148.2013030 130.2661930  16.2462200 147.6015020 130.3254490  15.5026120
 148.3306930 129.3266910  16.3759050 132.3975280 123.2765160   8.3173770
 131.7424120 123.0076800   7.6733470 133.2353230 123.1669640   7.8675750
 146.8864670 126.9913910  14.3438360 146.0724510 127.4211070  14.6064150
 147.2938870 127.6032320  13.7307410 145.3465720 118.0706450   2.5392260
 145.7650600 117.8837430   1.6988920 145.0401780 117.2185500   2.8495190
 133.4351210 123.6617730  12.8577110 133.8024250 123.5745130  13.7373130
 132.8662030 122.8984280  12.7583970 148.2355070 122.1302110  15.8707580
 148.0041160 121.9014860  14.9705530 148.4959620 123.0501660  15.8252470
 132.9867210 120.5726820  16.7635530 132.0923260 120.5393580  17.1029240
 133.5264760 120.7713610  17.5286780 146.6743140 117.3558540  18.6487280
 147.5513320 117.3641940  19.0321280 146.6863980 116.6189380  18.0379630
 131.6113360 120.4864090   4.2599100 130.7077440 120.7494290   4.0850760
 132.0953980 120.7575260   3.4799060 148.2996130 121.2927950  13.0594850
 147.3498840 121.2591490  13.1739840 148.4809140 122.2028060  12.8244620
 147.6106380 120.4661430   5.4767710 148.1065500 120.2332300   6.2616590
 147.4122450 119.6273270   5.0605350 133.4906920 114.8475150  11.1118750
 134.1383110 114.2972530  10.6713910 133.9108760 115.1018300  11.9334560
 147.3859260 115.0416510  14.4688390 148.0231480 115.6550650  14.8347580
 147.5334150 115.0777170  13.5237620 146.9440720 131.7432510   7.8706630
 147.5399790 131.4217080   7.1941050 147.2018870 131.2704330   8.6619900
 133.2438920 115.0030820  13.8544070 132.8953740 115.4594640  14.6202250
 132.9126620 114.1087950  13.9366500 134.8503290 128.1750420  18.0197260
 134.8072920 127.8043330  18.9011720 134.9814300 129.1127990  18.1599080
 138.5509320 129.7310010  13.6206980 138.3100680 129.9984570  12.7337500
 139.4911960 129.9015740  13.6757840 140.7563740 116.1942700  17.3763490
 140.6952630 116.7864530  18.1258900 141.6964120 116.0868660  17.2313750
 143.3938300 115.8512760  17.0155780 144.0078710 116.1692050  16.3536860
 143.9387860 115.3661350  17.6351640 133.9159560 114.5307020  17.1294840
 134.4642550 114.3495070  16.3660950 133.9814870 113.7401130  17.6651150
 134.6891320 131.1212670  15.1395040 134.0951640 130.9897370  15.8785080
 134.6815160 130.2850810  14.6737140 144.1346340 114.4144900  13.3425070
 143.2606180 114.7480010  13.1398000 144.0257090 113.9418080  14.1676940
 145.0418320 116.6215770  14.7266790 144.7131680 115.8067530  14.3468520
 145.9900620 116.5785580  14.6032480 147.4952930 132.3927810  11.7004360
 147.0355900 133.1443620  11.3262380 146.8665390 131.6734280  11.6419160
 134.3203550 128.4871050  14.0903080 133.5937610 127.8676340  14.0229030
 134.3812700 128.8811660  13.2201160 137.9248650 130.7016050  10.8752490
 138.4413670 130.0903410  10.3500750 138.5746030 131.2044830  11.3663500
 140.6644150 131.5924540  11.7021470 140.9521960 131.3378840  10.8254480
 141.1767370 131.0401900  12.2927040 141.8821160 115.3314740  12.2817980
 141.0992950 115.8060240  12.5614740 141.5884090 114.4269570  12.1731160
 146.4342230 116.0337840  10.3267070 146.8750320 115.9782940   9.4788670
 146.1649820 116.9495850  10.3977250 132.6033550 131.8045440   7.2999840
 132.4355590 131.1716120   7.9981730 131.7368060 132.0104840   6.9494030
 133.2261570 115.6362220   4.8031700 133.9840930 115.7491100   4.2295730
 132.7638740 116.4731420   4.7575130 139.7675380 117.7501490   7.7934010
 138.9549890 117.3758380   7.4529890 140.2717020 116.9946570   8.0955200
 144.2700360 114.4143940   9.0317080 144.8729730 114.9864150   9.5065600
 143.5293350 114.9783380   8.8090980 147.4134960 114.8165500   4.3057360
 147.6085590 115.7148950   4.5724790 146.6264830 114.5852580   4.7990310
 134.2096250 130.4978670   4.7449980 133.6843870 130.8786700   4.0411940
 134.1340830 131.1229440   5.4659690 135.5986720 116.1626270   3.3433670
 136.1279480 115.3756070   3.2141620 136.2315040 116.8417460   3.5769200
 137.7924560 115.9001410   6.3979060 137.1627300 115.1988720   6.5649190
 137.2529700 116.6605540   6.1812220 140.7316510 132.5140640  19.0689670
 141.6583820 132.2784910  19.1125630 140.7166940 133.3412640  18.5875700
 137.9180120 115.1785390  18.8331550 137.6364390 115.6818990  18.0692370
 138.2999820 114.3807140  18.4673680 136.8089220 132.4461050   3.6199230
 137.5408040 132.1620330   3.0723120 137.0682890 132.2074330   4.5098610
 135.9704010 128.5625780   3.6245560 135.3412890 129.0310880   4.1731390
 136.0851840 127.7175000   4.0591750 144.5195580 114.5938970  19.4112020
 144.4061030 114.9133580  20.3063540 145.3365320 114.9951480  19.1149300
 147.2994070 131.7410500  18.8930710 148.0919390 131.2459730  18.6856670
 147.5927220 132.4200640  19.5006320 143.4253730 103.8387950 139.9694680
 143.3447780 102.9242560 139.6986390 143.0118150 104.3355020 139.2634390
 141.5571770 105.6166970 141.8503950 140.7813870 105.1367410 142.1402520
 142.2084700 104.9372620 141.6760110 135.5737600 105.9286780 142.7279710
 134.7422480 105.6735490 143.1276220 136.1818580 105.9997550 143.4637630
 145.5779200 110.0227160 140.6303080 145.1160730 109.2514400 140.9590250
 146.3904750 110.0493230 141.1355530 135.5538860 109.9626870 142.9237730
 135.8566900 109.0724610 142.7447950 136.2982450 110.5197090 142.6959980
 133.9829550 100.8888670 136.5122100 133.0946250 101.2304640 136.4101980
 134.2670740 100.6888990 135.6202930 131.9462560 103.4894320 142.3961800
 132.5178670 102.7216520 142.3965440 131.9464100 103.7883080 141.4868410
 141.8042510 112.3085170 140.2507070 141.1853950 112.7642670 139.6801510
 142.6594290 112.4636630 139.8496770 140.9980760 108.2924160 141.8574110
 140.9289040 107.3514100 141.6963240 141.7600620 108.3825570 142.4296680
 133.1887430  98.8978680 144.1830730 133.0090270  98.0004430 144.4633490
 132.7867510  99.4450550 144.8577680 142.0285930 101.0994540 142.0843040
 142.4050750 100.2266420 141.9716710 141.9305440 101.4353240 141.1933480
 136.1590940  99.4720170 137.5460480 136.2657690 100.3723900 137.8529240
 135.2483300  99.4238140 137.2555130 145.8110050  98.5944980 139.0171380
 146.6319670  98.1041550 139.0596860 145.8444130  99.1842640 139.7703220
 133.8074100 101.3939180 142.7913070 134.4884210 101.6577550 143.4100470
 133.4922150 100.5540050 143.1251080 137.9998670 102.4406540 141.8785660
 138.5076890 102.9387510 142.5190680 138.5311910 101.6641740 141.7025020
 136.2834770  97.0805100 146.1449080 136.2853210  97.5977490 145.3394980
 135.4539080  96.6035280 146.1219010 142.6705860 107.1924410 137.6438980
 142.0523130 107.6573860 137.0801700 143.1829110 107.8851890 138.0608490
 137.5337620 106.7200280 144.3222580 137.2007000 107.3469200 144.9643650
 137.7104300 107.2462160 143.5424250 146.0471530 100.5345360 141.7898920
 145.3427100 100.8230250 142.3702030 146.4083690 101.3445470 141.4298480
 135.9650100  98.7915060 144.1519530 136.3066910  99.6357110 143.8573400
 135.0265910  98.9398800 144.2684870 136.7456720 108.6881080 146.1371760
 137.3630720 109.3632160 145.8556210 135.8849840 109.0969060 146.0459260
 132.0389060 107.8780940 135.0178610 131.6617040 108.3668040 134.2863510
 132.2962130 108.5506220 135.6485140 147.6634310 110.1520490 144.0526400
 146.9797830 110.8219600 144.0443070 148.2028600 110.3501140 143.2871260
 139.6477990  96.2797330 140.4764120 139.9552970  95.7244220 139.7599620
 138.7178690  96.4141790 140.2937110 145.1993050 111.9964620 142.7671580
 145.2120210 111.5926910 141.8993840 144.6468270 112.7711910 142.6633010
 146.4938470 108.7180840 137.8561750 146.3834800 107.7755170 137.9811170
 146.4906720 109.0796480 138.7424510 144.5978490 106.8994460 144.0954190
 145.0147280 106.6854570 143.2607650 145.3218310 107.1567250 144.6662810
 142.0358750 104.3446160 137.2124240 141.1088030 104.2783540 137.4412710
 142.1883570 105.2826290 137.0979480 142.0227830 100.6163160 134.2091400
 141.0831500 100.7777120 134.2943860 142.3411090 101.3348840 133.6627390
 146.0656040 105.9066460 137.7159490 145.4468460 105.5686010 137.0685790
 146.0480490 105.2626220 138.4238680 145.5082600 102.0851000 145.1325300
 145.0953780 102.9104710 145.3865290 144.7758550 101.4996040 144.9401660
 137.6415390 104.8710900 139.9943970 137.2372390 104.1588150 139.4989870
 137.7278510 104.5264140 140.8832010 138.1097090 108.5578460 142.1583180
 137.8125380 107.9523930 141.4790960 139.0596910 108.5955770 142.0472540
 136.3544010 101.6454110 143.7743010 136.9058600 101.7549450 142.9996260
 136.8687520 102.0191710 144.4898240 146.1982700 112.1310330 145.8206280
 145.7213260 112.9382520 145.6278890 145.5144490 111.4788660 145.9732490
 137.2015520 108.2960150 148.8090980 136.3044050 108.5200120 149.0564380
 137.2268390 108.4195090 147.8602380 144.2420740 105.1453270 134.7232240
 144.6814020 104.3075700 134.5770060 144.9549160 105.7782670 134.8096380
 136.0286740 105.1673470 147.3848350 135.8894510 106.0396270 147.7535750
 135.1468100 104.8246280 147.2396290 142.3516120 110.0849340 138.6913480
 142.7912030 110.8273670 138.2768870 142.2903010 110.3275910 139.6152440
 137.8267090 111.1095170 149.5933500 137.7982520 111.5138120 148.7261930
 137.6632060 110.1805530 149.4305100 147.8237880  96.3996080 133.0373280
 147.5110540  96.4922910 133.9372350 148.5850350  96.9777110 132.9870710
 134.3420020 103.7655880 137.4950620 134.2217620 104.4917970 136.8831890
 134.0320910 102.9958790 137.0178530 131.9805390 106.9371020 143.3019260
 132.0585810 107.0719790 142.3574980 132.5947070 106.2286910 143.4947380
 133.2253020 108.6371210 139.7125440 132.8181100 108.7785800 138.8579040
 134.1166030 108.3531370 139.5096650 143.0431900 112.7863120 146.6192490
 143.5576570 112.6971130 147.4214920 142.2000980 113.1322820 146.9120400
 145.0186300 113.0718460 136.0476490 144.8587440 112.7821400 136.9458320
 144.8533010 112.2958590 135.5121720 137.4974680 112.8516990 137.8248110
 137.3217160 111.9352530 137.6115910 136.6430420 113.2104280 138.0645910
 144.7212430 110.5806020 134.6074490 144.0277590 110.5783310 133.9476770
 145.4635290 110.1565340 134.1768660 144.2862360 112.2068730 138.6822980
 144.7419310 111.4258110 138.9961600 144.6254880 112.9175550 139.2264160
 132.0364910 107.9785190 145.8413720 132.1995950 107.5090550 145.0233090
 132.5017360 107.4708750 146.5062560 136.8083680  97.1090950 140.8774290
 136.3651830  97.8900490 140.5458810 137.3668670  97.4320840 141.5845230
 141.0953490  99.9759470 146.4809610 140.6332860 100.1842490 147.2929550
 140.6931600  99.1618820 146.1780280 146.0958000 101.1968420 147.6106270
 145.2451590 100.8974170 147.9315340 145.9359790 101.4410430 146.6990090
 143.1907710 102.6970170 149.7105060 143.5161120 101.8633920 149.3707290
 143.9788040 103.2198690 149.8583390 139.9242500  96.7301650 135.7580120
 139.2996680  96.7261520 136.4833430 139.8372620  95.8632610 135.3616090
 138.8459580  97.6538280 142.7363890 139.1431910  98.5601110 142.6555910
 139.3945140  97.1657060 142.1223460 136.5997900 102.2324520 138.6055540
 136.3738820 102.0161690 139.5102160 135.8190430 102.6652980 138.2601510
 143.8295660 102.2387890 137.2046190 143.2304550 102.9623690 137.0209810
 144.3775270 102.1764670 136.4222640 139.0397110 103.1310100 149.2715810
 138.9440710 102.1904830 149.1216210 139.8829090 103.3525170 148.8763880
 142.4360530 100.8751430 139.2349470 142.8290100 101.1923630 138.4218160
 142.7977380  99.9963310 139.3493990 134.1707650  99.5423770 147.4249590
 133.7771040 100.3898980 147.6322370 133.4826050  98.9050140 147.6158230
 131.4724700  97.4652230 141.4579670 131.1837750  98.0355090 142.1704650
 132.2170460  96.9856680 141.8210900 131.6594930 101.4072350 132.6682390
 131.5769600 102.3503110 132.8097380 131.3077990 101.2647260 131.7894740
 143.0215670 103.4657180 143.3300250 142.2896790 103.9743990 143.6790350
 142.6240010 102.6487160 143.0289030 139.4593060 100.1411380 141.7352740
 139.4629120  99.7001330 140.8857280 140.3544180 100.4628710 141.8424560
 135.3095440 100.0237870 140.6946950 134.9695490 100.5013100 141.4514000
 134.5472760  99.5702990 140.3348050 139.5213210 101.1423460 134.7259500
 139.6426030 101.1009940 135.6745320 139.1361720 102.0047610 134.5706230
 143.4841580  98.9190860 142.7423190 143.5014320  99.3699510 143.5865040
 143.2357160  98.0196500 142.9556630 138.5334710 103.4524600 134.1242800
 137.9651610 103.0042850 133.4978710 139.2423710 103.8117380 133.5907950
 146.9112330  96.3323040 148.5809570 147.2358100  95.6012700 149.1067550
 146.9468840  96.0136680 147.6790560 133.6103890 107.3536620 148.0009530
 133.2258680 106.7130290 148.5992490 133.9216080 108.0572740 148.5704260
 139.7601030 104.2013160 143.4818150 140.1271160 103.7271730 144.2279490
 139.5706090 105.0754730 143.8226490 132.6241520  98.9456850 139.6111620
 132.3388440  98.5812520 140.4490240 132.5620380  98.2137310 138.9974760
 137.5500400 103.2421800 145.8002360 137.2457470 104.1213780 146.0252720
 138.5046860 103.3021590 145.8359800 136.0782190 107.4482790 136.3969210
 135.3044450 106.9080410 136.2367930 136.8076820 106.9289400 136.0586970
 146.8370170 106.4448150 142.1895600 147.5569290 106.9403440 141.7991710
 146.6351990 105.7666040 141.5449470 142.2980110  97.8386110 136.3324990
 141.4844720  97.3399280 136.2570300 142.1042060  98.6784360 135.9161340
 142.2188970 106.5157210 148.0764600 142.1526280 105.5952880 147.8222190
 141.5894110 106.6132650 148.7909240 145.0128500 102.2105760 134.6287150
 145.9008120 102.5222990 134.4538490 144.9833590 101.3378010 134.2367730
 136.1219590 107.1163170 140.0348020 136.6398260 106.3131430 139.9804910
 135.6703610 107.0542310 140.8764850 141.0089090 108.3829450 135.3075320
 141.3504790 109.1271680 134.8118640 140.1801800 108.6960570 135.6700150
 133.6064130 104.0824540 146.9473720 133.2479070 104.7478390 147.5347060
 133.3118690 103.2508090 147.3186340 136.8077250 104.5408780 149.8313270
 136.5077390 104.6865960 148.9341090 137.5788490 103.9814070 149.7386660
 142.1505700 109.3377780 147.8268400 142.1650240 108.4058740 147.6087310
 141.4430800 109.4237540 148.4658170 147.2842770 103.5217600 134.0967010
 147.2006490 103.9531820 133.2463450 148.0036960 103.9815950 134.5293830
 148.3130020 110.3759860 136.8249140 147.6706180 109.7215480 137.0992860
 147.9260680 110.7814950 136.0489810 143.8916500 107.7045290 140.6720830
 144.2440320 107.1073420 140.0122200 143.0078830 107.3789520 140.8429080
 139.9779780 108.4642980 138.0791240 140.6650910 109.0112190 138.4598830
 139.1912200 109.0083710 138.1140850 132.1172180 104.0815800 133.5708320
 132.9867030 104.3640600 133.8544240 131.6262500 104.8951670 133.4557130
 139.2806990 105.4689010 137.6916600 139.7369770 106.2794260 137.9176790
 138.9295200 105.1512150 138.5235090 141.5839600 110.9795350 144.9208900
 142.2281820 111.1854730 145.5982320 141.9469040 110.2183750 144.4679750
 135.1818770  95.8126660 138.1639120 135.0533400  95.8044560 139.1124040
 134.3580790  96.1509750 137.8130130 142.8571680 108.9827700 143.6386350
 143.4993910 108.2820860 143.7518520 143.3821030 109.7626140 143.4583240
 146.7027400 109.2676320 133.3625490 146.4764980 108.5506760 133.9550130
 146.3123600 109.0188760 132.5247240 144.6309300 109.7822600 146.8422410
 144.9665540 110.3689290 147.5200330 143.7109640 109.6515310 147.0720200
 132.4843430 113.2943180 134.1369950 132.8441070 113.8932520 133.4827220
 132.3435770 113.8403070 134.9104980 132.1812700  97.5717780 147.6245820
 131.4671220  97.7714700 148.2298430 132.6007740  96.7957350 147.9960620
 146.2843650 107.1848260 135.0239650 145.9965350 107.6460950 135.8117530
 147.0795820 106.7246030 135.2923870 132.4685290 111.5598040 148.6112350
 132.5776410 110.6192780 148.4707740 131.8165850 111.8252790 147.9626080
 138.5012050 110.6774380 134.9543620 138.4922150 111.4104070 134.3388130
 137.5810410 110.4305960 135.0470580 134.1018690 105.8989270 135.6990380
 133.4946640 106.6388170 135.7085680 134.5768040 105.9888630 134.8728580
 143.6751480 100.0640090 145.3747270 144.0432300  99.2435300 145.7026840
 142.8149680 100.1241980 145.7902920 147.0413510  99.0197030 136.1834830
 146.4126670  99.1242700 135.4693060 146.5465430  99.2393810 136.9728710
 141.4871650 110.7402620 133.6168810 141.5883630 110.5366610 132.6870790
 140.5873390 110.4860900 133.8216590 139.0097540 101.2982980 137.5992710
 138.3013690 101.7669320 138.0406320 139.2942020 100.6404990 138.2337900
 140.6353470 102.7179680 145.5985240 141.1338720 103.1925500 146.2637090
 140.7776420 101.7943200 145.8055270 143.0412970  98.0233640 139.0388500
 142.9180750  98.0419770 138.0898010 143.9897530  98.0712580 139.1586900
 140.1289760 113.2588940 138.3116480 140.3831260 113.2210330 137.3895850
 139.1802240 113.1322270 138.3044730 137.2132560  99.6068060 134.9743420
 138.0623090 100.0438210 134.9083610 136.8463830  99.9188320 135.8015480
 147.8420330  98.9347640 146.4413630 147.3393930  99.6753040 146.7807440
 148.6576990  99.3231640 146.1250420 146.1342340 104.1780820 139.8874990
 145.1932480 104.1931050 140.0622680 146.4486410 103.3916780 140.3335290
 136.1123980 105.8600420 133.4478950 136.8787250 105.7481780 134.0104380
 136.1898670 105.1638390 132.7955720 134.8070740 103.2925490 134.1311840
 134.8874330 102.3453000 134.2429240 135.6990490 103.6232370 134.2372500
 135.6085450 113.4420880 141.2346380 136.3447930 112.8936340 141.5054950
 135.9926370 114.3076890 141.0952370 132.4930930 109.5094450 137.1087890
 131.5670710 109.7515590 137.0993300 132.9587360 110.3368710 136.9872640
 138.7187760 112.6151190 133.0571950 139.5116370 112.9040020 132.6053740
 138.1992110 112.1843360 132.3784430 144.8808730 112.4627110 148.9816780
 145.8330480 112.3785130 148.9317020 144.7336950 113.1268820 149.6550570
 147.7717930 111.8421320 134.4808690 147.4859440 111.4286460 133.6662870
 147.5737480 112.7709030 134.3609210 132.3341540 105.1140410 149.3668010
 132.8380560 104.5347690 149.9384240 131.5948960 105.3980640 149.9044380
 139.2365160 107.8354600 132.9214300 139.1315800 107.2206950 133.6475680
 139.0689380 107.3120490 132.1377310 139.3879480 106.5211400 148.9003530
 138.6225150 107.0896400 148.8158200 139.5695440 106.2287610 148.0071760
 142.4767890 106.8974630 133.5256290 141.9277990 107.3443930 134.1699030
 143.0987150 106.3923880 134.0493960 146.5302830 108.2516730 149.4578550
 147.2712300 108.5892490 148.9546010 145.7675510 108.4208790 148.9048320
 138.1443010 105.8565550 135.4221590 138.5659430 105.6905420 136.2652980
 138.2693850 105.0465780 134.9276730 136.3070430 101.8362100 148.2292570
 135.7766890 101.3453050 147.6015910 136.9758500 102.2646300 147.6950500
 140.6570650 104.8803160 132.6698690 141.1776310 104.1652180 132.3039840
 141.3039050 105.5189030 132.9699200 145.2048490 106.3031560 147.9933760
 145.6189510 106.4576640 148.8424180 144.2699490 106.4286780 148.1559540
 145.6770660 103.6427720 149.9972910 146.2591430 102.8880040 149.9093390
 145.8532430 104.1735160 149.2204390 136.7942730  98.8024470 148.3089860
 136.6999600  98.1845220 147.5840730 136.2140120  99.5290760 148.0819770
 139.5604170  97.3597710 145.3417250 139.1121470  97.3821970 144.4962800
 138.9269370  96.9616730 145.9387550 139.9663720 106.2552040 145.9629690
 140.3851830 107.0984770 145.7905930 139.0472350 106.3924080 145.7336470
 142.3027620 103.9868220 147.3467530 142.4223830 103.3909360 148.0862370
 143.1621620 104.0237910 146.9268830 144.6415520 104.5405410 145.9230040
 144.1150740 105.0648030 145.3195180 144.9846860 105.1732800 146.5539770
 137.0401910 101.9298780 132.3679750 136.8390970 101.0666140 132.7293090
 136.8693960 101.8432140 131.4301350 137.8171140 112.5605050 147.0787420
 137.2792230 113.2851110 146.7596120 138.0705100 112.0835390 146.2884760
 139.0696390 100.5289570 148.6043350 139.6596080 100.2205420 149.2921170
 138.2516630 100.0569320 148.7603250 143.8889820 100.1455380 148.8376370
 143.2005340  99.4836920 148.7726360 144.6095840  99.6993650 149.2824830
 144.5190220  96.7407010 134.8966630 144.7992510  95.8974910 135.2526050
 143.7455950  96.9730120 135.4105380 135.8384710  99.0299400 132.3557630
 136.1410610  99.0366830 131.4476780 136.5779300  98.6797260 132.8525290
 140.6733350 113.7956260 147.3374070 140.5992050 114.6991400 147.6446440
 139.7712190 113.4768160 147.3096140 139.0569640  97.9734020 133.3413830
 138.7091640  97.2958010 132.7616280 139.2582410  97.5123530 134.1557220
 141.2218680 112.9614770 134.9600430 142.1169470 113.2999740 134.9819190
 141.2536310 112.2394180 134.3324710 134.8614840 108.3341820 133.1887430
 135.2989710 108.8771490 133.8445010 135.3462570 107.5088770 133.1983770
 132.0760640 111.1230850 140.6407690 132.4063650 110.2551910 140.4086330
 132.5051640 111.3289370 141.4712650 136.6722560 109.4539860 138.3009660
 136.3718100 109.3304830 139.2013570 136.5660050 108.5948450 137.8925390
 132.5650850 111.9901440 143.3789320 132.1281840 112.1702240 144.2113470
 133.1328530 112.7476060 143.2371040 148.2013030 111.4918440 147.6666630
 147.6015020 111.5511000 146.9230550 148.3306930 110.5523420 147.7963480
 132.3975280 104.5021670 139.7378200 131.7424120 104.2333310 139.0937900
 133.2353230 104.3926150 139.2880180 146.8864670 108.2170420 145.7642790
 146.0724510 108.6467580 146.0268580 147.2938870 108.8288830 145.1511840
 145.3465720  99.2962960 133.9596690 145.7650600  99.1093940 133.1193350
 145.0401780  98.4442010 134.2699620 133.4351210 104.8874240 144.2781540
 133.8024250 104.8001640 145.1577560 132.8662030 104.1240790 144.1788400
 148.2355070 103.3558620 147.2912010 148.0041160 103.1271370 146.3909960
 148.4959620 104.2758170 147.2456900 132.9867210 101.7983330 148.1839960
 132.0923260 101.7650090 148.5233670 133.5264760 101.9970120 148.9491210
 131.6113360 101.7120600 135.6803530 130.7077440 101.9750800 135.5055190
 132.0953980 101.9831770 134.9003490 148.2996130 102.5184460 144.4799280
 147.3498840 102.4848000 144.5944270 148.4809140 103.4284570 144.2449050
 134.1540570 100.7686140 133.5897910 134.8632270 100.3469360 133.1045190
 133.4380510 100.8361370 132.9581260 133.8014730  96.8225470 132.6300560
 134.5242860  97.3634410 132.9481780 134.0739250  96.5488890 131.7542100
 147.6106380 101.6917940 136.8972140 148.1065500 101.4588810 137.6821020
 147.4122450 100.8529780 136.4809780 133.4906920  96.0731660 142.5323180
 134.1383110  95.5229040 142.0918340 133.9108760  96.3274810 143.3538990
 147.3859260  96.2673020 145.8892820 148.0231480  96.8807160 146.2552010
 147.5334150  96.3033680 144.9442050 146.9440720 112.9689020 139.2911060
 147.5399790 112.6473590 138.6145480 147.2018870 112.4960840 140.0824330
 133.2438920  96.2287330 145.2748500 132.8953740  96.6851150 146.0406680
 132.9126620  95.3344460 145.3570930 138.5509320 110.9566520 145.0411410
 138.3100680 111.2241080 144.1541930 139.4911960 111.1272250 145.0962270
 140.7563740  97.4199210 148.7967920 140.6952630  98.0121040 149.5463330
 141.6964120  97.3125170 148.6518180 143.3938300  97.0769270 148.4360210
 144.0078710  97.3948560 147.7741290 143.9387860  96.5917860 149.0556070
 133.9159560  95.7563530 148.5499270 134.4642550  95.5751580 147.7865380
 133.9814870  94.9657640 149.0855580 134.6891320 112.3469180 146.5599470
 134.0951640 112.2153880 147.2989510 134.6815160 111.5107320 146.0941570
 144.1346340  95.6401410 144.7629500 143.2606180  95.9736520 144.5602430
 144.0257090  95.1674590 145.5881370 145.0418320  97.8472280 146.1471220
 144.7131680  97.0324040 145.7672950 145.9900620  97.8042090 146.0236910
 147.4952930 113.6184320 143.1208790 147.0355900 114.3700130 142.7466810
 146.8665390 112.8990790 143.0623590 134.3203550 109.7127560 145.5107510
 133.5937610 109.0932850 145.4433460 134.3812700 110.1068170 144.6405590
 137.9248650 111.9272560 142.2956920 138.4413670 111.3159920 141.7705180
 138.5746030 112.4301340 142.7867930 140.6644150 112.8181050 143.1225900
 140.9521960 112.5635350 142.2458910 141.1767370 112.2658410 143.7131470
 141.8821160  96.5571250 143.7022410 141.0992950  97.0316750 143.9819170
 141.5884090  95.6526080 143.5935590 146.4342230  97.2594350 141.7471500
 146.8750320  97.2039450 140.8993100 146.1649820  98.1752360 141.8181680
 132.6033550 113.0301950 138.7204270 132.4355590 112.3972630 139.4186160
 131.7368060 113.2361350 138.3698460 133.2261570  96.8618730 136.2236130
 133.9840930  96.9747610 135.6500160 132.7638740  97.6987930 136.1779560
 139.7675380  98.9758000 139.2138440 138.9549890  98.6014890 138.8734320
 140.2717020  98.2203080 139.5159630 144.2700360  95.6400450 140.4521510
 144.8729730  96.2120660 140.9270030 143.5293350  96.2039890 140.2295410
 147.4134960  96.0422010 135.7261790 147.6085590  96.9405460 135.9929220
 146.6264830  95.8109090 136.2194740 134.2096250 111.7235180 136.1654410
 133.6843870 112.1043210 135.4616370 134.1340830 112.3485950 136.8864120
 135.5986720  97.3882780 134.7638100 136.1279480  96.6012580 134.6346050
 136.2315040  98.0673970 134.9973630 137.7924560  97.1257920 137.8183490
 137.1627300  96.4245230 137.9853620 137.2529700  97.8862050 137.6016650
 136.8089220 113.6717560 135.0403660 137.5408040 113.3876840 134.4927550
 137.0682890 113.4330840 135.9303040 135.9704010 109.7882290 135.0449990
 135.3412890 110.2567390 135.5935820 136.0851840 108.9431510 135.4796180
 143.4253730 103.8387950 121.1951190 143.3447780 102.9242560 120.9242900
 143.0118150 104.3355020 120.4890900 141.5571770 105.6166970 123.0760460
 140.7813870 105.1367410 123.3659030 142.2084700 104.9372620 122.9016620
 135.5737600 105.9286780 123.9536220 134.7422480 105.6735490 124.3532730
 136.1818580 105.9997550 124.6894140 145.5779200 110.0227160 121.8559590
 145.1160730 109.2514400 122.1846760 146.3904750 110.0493230 122.3612040
 135.5538860 109.9626870 124.1494240 135.8566900 109.0724610 123.9704460
 136.2982450 110.5197090 123.9216490 133.9829550 100.8888670 117.7378610
 133.0946250 101.2304640 117.6358490 134.2670740 100.6888990 116.8459440
 131.9462560 103.4894320 123.6218310 132.5178670 102.7216520 123.6221950
 131.9464100 103.7883080 122.7124920 141.8042510 112.3085170 121.4763580
 141.1853950 112.7642670 120.9058020 142.6594290 112.4636630 121.0753280
 140.9980760 108.2924160 123.0830620 140.9289040 107.3514100 122.9219750
 141.7600620 108.3825570 123.6553190 133.1887430  98.8978680 125.4087240
 133.0090270  98.0004430 125.6890000 132.7867510  99.4450550 126.0834190
 142.0285930 101.0994540 123.3099550 142.4050750 100.2266420 123.1973220
 141.9305440 101.4353240 122.4189990 136.1590940  99.4720170 118.7716990
 136.2657690 100.3723900 119.0785750 135.2483300  99.4238140 118.4811640
 145.8110050  98.5944980 120.2427890 146.6319670  98.1041550 120.2853370
 145.8444130  99.1842640 120.9959730 133.8074100 101.3939180 124.0169580
 134.4884210 101.6577550 124.6356980 133.4922150 100.5540050 124.3507590
 137.9998670 102.4406540 123.1042170 138.5076890 102.9387510 123.7447190
 138.5311910 101.6641740 122.9281530 136.2834770  97.0805100 127.3705590
 136.2853210  97.5977490 126.5651490 135.4539080  96.6035280 127.3475520
 142.6705860 107.1924410 118.8695490 142.0523130 107.6573860 118.3058210
 143.1829110 107.8851890 119.2865000 137.5337620 106.7200280 125.5479090
 137.2007000 107.3469200 126.1900160 137.7104300 107.2462160 124.7680760
 146.0471530 100.5345360 123.0155430 145.3427100 100.8230250 123.5958540
 146.4083690 101.3445470 122.6554990 135.9650100  98.7915060 125.3776040
 136.3066910  99.6357110 125.0829910 135.0265910  98.9398800 125.4941380
 136.7456720 108.6881080 127.3628270 137.3630720 109.3632160 127.0812720
 135.8849840 109.0969060 127.2715770 132.0389060 107.8780940 116.2435120
 131.6617040 108.3668040 115.5120020 132.2962130 108.5506220 116.8741650
 147.6634310 110.1520490 125.2782910 146.9797830 110.8219600 125.2699580
 148.2028600 110.3501140 124.5127770 139.6477990  96.2797330 121.7020630
 139.9552970  95.7244220 120.9856130 138.7178690  96.4141790 121.5193620
 145.1993050 111.9964620 123.9928090 145.2120210 111.5926910 123.1250350
 144.6468270 112.7711910 123.8889520 146.4938470 108.7180840 119.0818260
 146.3834800 107.7755170 119.2067680 146.4906720 109.0796480 119.9681020
 144.5978490 106.8994460 125.3210700 145.0147280 106.6854570 124.4864160
 145.3218310 107.1567250 125.8919320 142.0358750 104.3446160 118.4380750
 141.1088030 104.2783540 118.6669220 142.1883570 105.2826290 118.3235990
 142.0227830 100.6163160 115.4347910 141.0831500 100.7777120 115.5200370
 142.3411090 101.3348840 114.8883900 146.0656040 105.9066460 118.9416000
 145.4468460 105.5686010 118.2942300 146.0480490 105.2626220 119.6495190
 145.5082600 102.0851000 126.3581810 145.0953780 102.9104710 126.6121800
 144.7758550 101.4996040 126.1658170 137.6415390 104.8710900 121.2200480
 137.2372390 104.1588150 120.7246380 137.7278510 104.5264140 122.1088520
 138.1097090 108.5578460 123.3839690 137.8125380 107.9523930 122.7047470
 139.0596910 108.5955770 123.2729050 136.3544010 101.6454110 124.9999520
 136.9058600 101.7549450 124.2252770 136.8687520 102.0191710 125.7154750
 146.1982700 112.1310330 127.0462790 145.7213260 112.9382520 126.8535400
 145.5144490 111.4788660 127.1989000 137.2015520 108.2960150 130.0347490
 136.3044050 108.5200120 130.2820890 137.2268390 108.4195090 129.0858890
 144.2420740 105.1453270 115.9488750 144.6814020 104.3075700 115.8026570
 144.9549160 105.7782670 116.0352890 136.0286740 105.1673470 128.6104860
 135.8894510 106.0396270 128.9792260 135.1468100 104.8246280 128.4652800
 142.3516120 110.0849340 119.9169990 142.7912030 110.8273670 119.5025380
 142.2903010 110.3275910 120.8408950 137.8267090 111.1095170 130.8190010
 137.7982520 111.5138120 129.9518440 137.6632060 110.1805530 130.6561610
 147.8237880  96.3996080 114.2629790 147.5110540  96.4922910 115.1628860
 148.5850350  96.9777110 114.2127220 134.3420020 103.7655880 118.7207130
 134.2217620 104.4917970 118.1088400 134.0320910 102.9958790 118.2435040
 131.9805390 106.9371020 124.5275770 132.0585810 107.0719790 123.5831490
 132.5947070 106.2286910 124.7203890 133.2253020 108.6371210 120.9381950
 132.8181100 108.7785800 120.0835550 134.1166030 108.3531370 120.7353160
 143.0431900 112.7863120 127.8449000 143.5576570 112.6971130 128.6471430
 142.2000980 113.1322820 128.1376910 145.0186300 113.0718460 117.2733000
 144.8587440 112.7821400 118.1714830 144.8533010 112.2958590 116.7378230
 137.4974680 112.8516990 119.0504620 137.3217160 111.9352530 118.8372420
 136.6430420 113.2104280 119.2902420 144.7212430 110.5806020 115.8331000
 144.0277590 110.5783310 115.1733280 145.4635290 110.1565340 115.4025170
 144.2862360 112.2068730 119.9079490 144.7419310 111.4258110 120.2218110
 144.6254880 112.9175550 120.4520670 132.0364910 107.9785190 127.0670230
 132.1995950 107.5090550 126.2489600 132.5017360 107.4708750 127.7319070
 136.8083680  97.1090950 122.1030800 136.3651830  97.8900490 121.7715320
 137.3668670  97.4320840 122.8101740 141.0953490  99.9759470 127.7066120
 140.6332860 100.1842490 128.5186060 140.6931600  99.1618820 127.4036790
 146.0958000 101.1968420 128.8362780 145.2451590 100.8974170 129.1571850
 145.9359790 101.4410430 127.9246600 143.1907710 102.6970170 130.9361570
 143.5161120 101.8633920 130.5963800 143.9788040 103.2198690 131.0839900
 139.9242500  96.7301650 116.9836630 139.2996680  96.7261520 117.7089940
 139.8372620  95.8632610 116.5872600 138.8459580  97.6538280 123.9620400
 139.1431910  98.5601110 123.8812420 139.3945140  97.1657060 123.3479970
 136.5997900 102.2324520 119.8312050 136.3738820 102.0161690 120.7358670
 135.8190430 102.6652980 119.4858020 143.8295660 102.2387890 118.4302700
 143.2304550 102.9623690 118.2466320 144.3775270 102.1764670 117.6479150
 139.0397110 103.1310100 130.4972320 138.9440710 102.1904830 130.3472720
 139.8829090 103.3525170 130.1020390 142.4360530 100.8751430 120.4605980
 142.8290100 101.1923630 119.6474670 142.7977380  99.9963310 120.5750500
 134.1707650  99.5423770 128.6506100 133.7771040 100.3898980 128.8578880
 133.4826050  98.9050140 128.8414740 140.7452700  99.6258740 131.7202840
 140.0551020  99.4330940 132.3548930 141.4885000  99.9093380 132.2527140
 131.4724700  97.4652230 122.6836180 131.1837750  98.0355090 123.3961160
 132.2170460  96.9856680 123.0467410 131.6594930 101.4072350 113.8938900
 131.5769600 102.3503110 114.0353890 131.3077990 101.2647260 113.0151250
 143.0215670 103.4657180 124.5556760 142.2896790 103.9743990 124.9046860
 142.6240010 102.6487160 124.2545540 139.4593060 100.1411380 122.9609250
 139.4629120  99.7001330 122.1113790 140.3544180 100.4628710 123.0681070
 135.3095440 100.0237870 121.9203460 134.9695490 100.5013100 122.6770510
 134.5472760  99.5702990 121.5604560 139.5213210 101.1423460 115.9516010
 139.6426030 101.1009940 116.9001830 139.1361720 102.0047610 115.7962740
 143.4841580  98.9190860 123.9679700 143.5014320  99.3699510 124.8121550
 143.2357160  98.0196500 124.1813140 138.5334710 103.4524600 115.3499310
 137.9651610 103.0042850 114.7235220 139.2423710 103.8117380 114.8164460
 146.9112330  96.3323040 129.8066080 147.2358100  95.6012700 130.3324060
 146.9468840  96.0136680 128.9047070 133.6103890 107.3536620 129.2266040
 133.2258680 106.7130290 129.8249000 133.9216080 108.0572740 129.7960770
 139.7601030 104.2013160 124.7074660 140.1271160 103.7271730 125.4536000
 139.5706090 105.0754730 125.0483000 132.6241520  98.9456850 120.8368130
 132.3388440  98.5812520 121.6746750 132.5620380  98.2137310 120.2231270
 137.5500400 103.2421800 127.0258870 137.2457470 104.1213780 127.2509230
 138.5046860 103.3021590 127.0616310 136.0782190 107.4482790 117.6225720
 135.3044450 106.9080410 117.4624440 136.8076820 106.9289400 117.2843480
 146.8370170 106.4448150 123.4152110 147.5569290 106.9403440 123.0248220
 146.6351990 105.7666040 122.7705980 142.2980110  97.8386110 117.5581500
 141.4844720  97.3399280 117.4826810 142.1042060  98.6784360 117.1417850
 142.2188970 106.5157210 129.3021110 142.1526280 105.5952880 129.0478700
 141.5894110 106.6132650 130.0165750 145.0128500 102.2105760 115.8543660
 145.9008120 102.5222990 115.6795000 144.9833590 101.3378010 115.4624240
 136.1219590 107.1163170 121.2604530 136.6398260 106.3131430 121.2061420
 135.6703610 107.0542310 122.1021360 141.0089090 108.3829450 116.5331830
 141.3504790 109.1271680 116.0375150 140.1801800 108.6960570 116.8956660
 133.6064130 104.0824540 128.1730230 133.2479070 104.7478390 128.7603570
 133.3118690 103.2508090 128.5442850 136.8077250 104.5408780 131.0569780
 136.5077390 104.6865960 130.1597600 137.5788490 103.9814070 130.9643170
 142.1505700 109.3377780 129.0524910 142.1650240 108.4058740 128.8343820
 141.4430800 109.4237540 129.6914680 147.2842770 103.5217600 115.3223520
 147.2006490 103.9531820 114.4719960 148.0036960 103.9815950 115.7550340
 148.3130020 110.3759860 118.0505650 147.6706180 109.7215480 118.3249370
 147.9260680 110.7814950 117.2746320 143.8916500 107.7045290 121.8977340
 144.2440320 107.1073420 121.2378710 143.0078830 107.3789520 122.0685590
 139.9779780 108.4642980 119.3047750 140.6650910 109.0112190 119.6855340
 139.1912200 109.0083710 119.3397360 132.1172180 104.0815800 114.7964830
 132.9867030 104.3640600 115.0800750 131.6262500 104.8951670 114.6813640
 139.2806990 105.4689010 118.9173110 139.7369770 106.2794260 119.1433300
 138.9295200 105.1512150 119.7491600 141.5839600 110.9795350 126.1465410
 142.2281820 111.1854730 126.8238830 141.9469040 110.2183750 125.6936260
 135.1818770  95.8126660 119.3895630 135.0533400  95.8044560 120.3380550
 134.3580790  96.1509750 119.0386640 142.8571680 108.9827700 124.8642860
 143.4993910 108.2820860 124.9775030 143.3821030 109.7626140 124.6839750
 146.7027400 109.2676320 114.5882000 146.4764980 108.5506760 115.1806640
 146.3123600 109.0188760 113.7503750 144.6309300 109.7822600 128.0678920
 144.9665540 110.3689290 128.7456840 143.7109640 109.6515310 128.2976710
 132.4843430 113.2943180 115.3626460 132.8441070 113.8932520 114.7083730
 132.3435770 113.8403070 116.1361490 132.1812700  97.5717780 128.8502330
 131.4671220  97.7714700 129.4554940 132.6007740  96.7957350 129.2217130
 146.2843650 107.1848260 116.2496160 145.9965350 107.6460950 117.0374040
 147.0795820 106.7246030 116.5180380 132.4685290 111.5598040 129.8368860
 132.5776410 110.6192780 129.6964250 131.8165850 111.8252790 129.1882590
 140.4597880 109.8313930 131.2366980 140.1394750 109.1123170 131.7812670
 139.7856240 110.5069000 131.3103040 138.5012050 110.6774380 116.1800130
 138.4922150 111.4104070 115.5644640 137.5810410 110.4305960 116.2727090
 134.1018690 105.8989270 116.9246890 133.4946640 106.6388170 116.9342190
 134.5768040 105.9888630 116.0985090 143.6751480 100.0640090 126.6003780
 144.0432300  99.2435300 126.9283350 142.8149680 100.1241980 127.0159430
 147.0413510  99.0197030 117.4091340 146.4126670  99.1242700 116.6949570
 146.5465430  99.2393810 118.1985220 141.4871650 110.7402620 114.8425320
 141.5883630 110.5366610 113.9127300 140.5873390 110.4860900 115.0473100
 139.0097540 101.2982980 118.8249220 138.3013690 101.7669320 119.2662830
 139.2942020 100.6404990 119.4594410 140.6353470 102.7179680 126.8241750
 141.1338720 103.1925500 127.4893600 140.7776420 101.7943200 127.0311780
 143.0412970  98.0233640 120.2645010 142.9180750  98.0419770 119.3154520
 143.9897530  98.0712580 120.3843410 140.1289760 113.2588940 119.5372990
 140.3831260 113.2210330 118.6152360 139.1802240 113.1322270 119.5301240
 137.2132560  99.6068060 116.1999930 138.0623090 100.0438210 116.1340120
 136.8463830  99.9188320 117.0271990 147.8420330  98.9347640 127.6670140
 147.3393930  99.6753040 128.0063950 148.6576990  99.3231640 127.3506930
 146.1342340 104.1780820 121.1131500 145.1932480 104.1931050 121.2879190
 146.4486410 103.3916780 121.5591800 136.1123980 105.8600420 114.6735460
 136.8787250 105.7481780 115.2360890 136.1898670 105.1638390 114.0212230
 134.8070740 103.2925490 115.3568350 134.8874330 102.3453000 115.4685750
 135.6990490 103.6232370 115.4629010 135.6085450 113.4420880 122.4602890
 136.3447930 112.8936340 122.7311460 135.9926370 114.3076890 122.3208880
 132.4930930 109.5094450 118.3344400 131.5670710 109.7515590 118.3249810
 132.9587360 110.3368710 118.2129150 134.6143730 112.6266950 131.6488470
 135.4156460 112.9479000 132.0623870 134.0995550 112.2662530 132.3708380
 138.7187760 112.6151190 114.2828460 139.5116370 112.9040020 113.8310250
 138.1992110 112.1843360 113.6040940 143.4508360 108.7346820 131.5963880
 142.8446520 108.7578420 130.8559630 143.1462470 108.0029860 132.1331130
 144.8808730 112.4627110 130.2073290 145.8330480 112.3785130 130.1573530
 144.7336950 113.1268820 130.8807080 147.7717930 111.8421320 115.7065200
 147.4859440 111.4286460 114.8919380 147.5737480 112.7709030 115.5865720
 132.3341540 105.1140410 130.5924520 132.8380560 104.5347690 131.1640750
 131.5948960 105.3980640 131.1300890 139.2365160 107.8354600 114.1470810
 139.1315800 107.2206950 114.8732190 139.0689380 107.3120490 113.3633820
 139.3879480 106.5211400 130.1260040 138.6225150 107.0896400 130.0414710
 139.5695440 106.2287610 129.2328270 142.4767890 106.8974630 114.7512800
 141.9277990 107.3443930 115.3955540 143.0987150 106.3923880 115.2750470
 146.5302830 108.2516730 130.6835060 147.2712300 108.5892490 130.1802520
 145.7675510 108.4208790 130.1304830 134.3664620 103.2570000 131.4874590
 134.4069960 102.9583870 132.3959820 135.2210120 103.6577610 131.3282110
 138.1443010 105.8565550 116.6478100 138.5659430 105.6905420 117.4909490
 138.2693850 105.0465780 116.1533240 136.3070430 101.8362100 129.4549080
 135.7766890 101.3453050 128.8272420 136.9758500 102.2646300 128.9207010
 140.6570650 104.8803160 113.8955200 141.1776310 104.1652180 113.5296350
 141.3039050 105.5189030 114.1955710 145.2048490 106.3031560 129.2190270
 145.6189510 106.4576640 130.0680690 144.2699490 106.4286780 129.3816050
 145.6770660 103.6427720 131.2229420 146.2591430 102.8880040 131.1349900
 145.8532430 104.1735160 130.4460900 136.7942730  98.8024470 129.5346370
 136.6999600  98.1845220 128.8097240 136.2140120  99.5290760 129.3076280
 139.5604170  97.3597710 126.5673760 139.1121470  97.3821970 125.7219310
 138.9269370  96.9616730 127.1644060 139.9663720 106.2552040 127.1886200
 140.3851830 107.0984770 127.0162440 139.0472350 106.3924080 126.9592980
 142.3027620 103.9868220 128.5724040 142.4223830 103.3909360 129.3118880
 143.1621620 104.0237910 128.1525340 144.6415520 104.5405410 127.1486550
 144.1150740 105.0648030 126.5451690 144.9846860 105.1732800 127.7796280
 137.0401910 101.9298780 113.5936260 136.8390970 101.0666140 113.9549600
 136.8693960 101.8432140 112.6557860 137.8171140 112.5605050 128.3043930
 137.2792230 113.2851110 127.9852630 138.0705100 112.0835390 127.5141270
 139.0696390 100.5289570 129.8299860 139.6596080 100.2205420 130.5177680
 138.2516630 100.0569320 129.9859760 143.8889820 100.1455380 130.0632880
 143.2005340  99.4836920 129.9982870 144.6095840  99.6993650 130.5081340
 144.5190220  96.7407010 116.1223140 144.7992510  95.8974910 116.4782560
 143.7455950  96.9730120 116.6361890 135.8384710  99.0299400 113.5814140
 136.1410610  99.0366830 112.6733290 136.5779300  98.6797260 114.0781800
 140.6733350 113.7956260 128.5630580 140.5992050 114.6991400 128.8702950
 139.7712190 113.4768160 128.5352650 139.0569640  97.9734020 114.5670340
 138.7091640  97.2958010 113.9872790 139.2582410  97.5123530 115.3813730
 141.2218680 112.9614770 116.1856940 142.1169470 113.2999740 116.2075700
 141.2536310 112.2394180 115.5581220 134.8614840 108.3341820 114.4143940
 135.2989710 108.8771490 115.0701520 135.3462570 107.5088770 114.4240280
 132.0760640 111.1230850 121.8664200 132.4063650 110.2551910 121.6342840
 132.5051640 111.3289370 122.6969160 136.6722560 109.4539860 119.5266170
 136.3718100 109.3304830 120.4270080 136.5660050 108.5948450 119.1181900
 132.5650850 111.9901440 124.6045830 132.1281840 112.1702240 125.4369980
 133.1328530 112.7476060 124.4627550 148.2013030 111.4918440 128.8923140
 147.6015020 111.5511000 128.1487060 148.3306930 110.5523420 129.0219990
 132.3975280 104.5021670 120.9634710 131.7424120 104.2333310 120.3194410
 133.2353230 104.3926150 120.5136690 146.8864670 108.2170420 126.9899300
 146.0724510 108.6467580 127.2525090 147.2938870 108.8288830 126.3768350
 145.3465720  99.2962960 115.1853200 145.7650600  99.1093940 114.3449860
 145.0401780  98.4442010 115.4956130 133.4351210 104.8874240 125.5038050
 133.8024250 104.8001640 126.3834070 132.8662030 104.1240790 125.4044910
 148.2355070 103.3558620 128.5168520 148.0041160 103.1271370 127.6166470
 148.4959620 104.2758170 128.4713410 132.9867210 101.7983330 129.4096470
 132.0923260 101.7650090 129.7490180 133.5264760 101.9970120 130.1747720
 146.6743140  98.5815050 131.2948220 147.5513320  98.5898450 131.6782220
 146.6863980  97.8445890 130.6840570 131.6113360 101.7120600 116.9060040
 130.7077440 101.9750800 116.7311700 132.0953980 101.9831770 116.1260000
 148.2996130 102.5184460 125.7055790 147.3498840 102.4848000 125.8200780
 148.4809140 103.4284570 125.4705560 134.1540570 100.7686140 114.8154420
 134.8632270 100.3469360 114.3301700 133.4380510 100.8361370 114.1837770
 133.8014730  96.8225470 113.8557070 134.5242860  97.3634410 114.1738290
 134.0739250  96.5488890 112.9798610 147.6106380 101.6917940 118.1228650
 148.1065500 101.4588810 118.9077530 147.4122450 100.8529780 117.7066290
 133.4906920  96.0731660 123.7579690 134.1383110  95.5229040 123.3174850
 133.9108760  96.3274810 124.5795500 147.3859260  96.2673020 127.1149330
 148.0231480  96.8807160 127.4808520 147.5334150  96.3033680 126.1698560
 146.9440720 112.9689020 120.5167570 147.5399790 112.6473590 119.8401990
 147.2018870 112.4960840 121.3080840 133.2438920  96.2287330 126.5005010
 132.8953740  96.6851150 127.2663190 132.9126620  95.3344460 126.5827440
 134.8503290 109.4006930 130.6658200 134.8072920 109.0299840 131.5472660
 134.9814300 110.3384500 130.8060020 138.5509320 110.9566520 126.2667920
 138.3100680 111.2241080 125.3798440 139.4911960 111.1272250 126.3218780
 140.7563740  97.4199210 130.0224430 140.6952630  98.0121040 130.7719840
 141.6964120  97.3125170 129.8774690 143.3938300  97.0769270 129.6616720
 144.0078710  97.3948560 128.9997800 143.9387860  96.5917860 130.2812580
 133.9159560  95.7563530 129.7755780 134.4642550  95.5751580 129.0121890
 133.9814870  94.9657640 130.3112090 134.6891320 112.3469180 127.7855980
 134.0951640 112.2153880 128.5246020 134.6815160 111.5107320 127.3198080
 144.1346340  95.6401410 125.9886010 143.2606180  95.9736520 125.7858940
 144.0257090  95.1674590 126.8137880 145.0418320  97.8472280 127.3727730
 144.7131680  97.0324040 126.9929460 145.9900620  97.8042090 127.2493420
 147.4952930 113.6184320 124.3465300 147.0355900 114.3700130 123.9723320
 146.8665390 112.8990790 124.2880100 134.3203550 109.7127560 126.7364020
 133.5937610 109.0932850 126.6689970 134.3812700 110.1068170 125.8662100
 137.9248650 111.9272560 123.5213430 138.4413670 111.3159920 122.9961690
 138.5746030 112.4301340 124.0124440 140.6644150 112.8181050 124.3482410
 140.9521960 112.5635350 123.4715420 141.1767370 112.2658410 124.9387980
 141.8821160  96.5571250 124.9278920 141.0992950  97.0316750 125.2075680
 141.5884090  95.6526080 124.8192100 146.4342230  97.2594350 122.9728010
 146.8750320  97.2039450 122.1249610 146.1649820  98.1752360 123.0438190
 132.6033550 113.0301950 119.9460780 132.4355590 112.3972630 120.6442670
 131.7368060 113.2361350 119.5954970 133.2261570  96.8618730 117.4492640
 133.9840930  96.9747610 116.8756670 132.7638740  97.6987930 117.4036070
 139.7675380  98.9758000 120.4394950 138.9549890  98.6014890 120.0990830
 140.2717020  98.2203080 120.7416140 144.2700360  95.6400450 121.6778020
 144.8729730  96.2120660 122.1526540 143.5293350  96.2039890 121.4551920
 147.4134960  96.0422010 116.9518300 147.6085590  96.9405460 117.2185730
 146.6264830  95.8109090 117.4451250 134.2096250 111.7235180 117.3910920
 133.6843870 112.1043210 116.6872880 134.1340830 112.3485950 118.1120630
 135.5986720  97.3882780 115.9894610 136.1279480  96.6012580 115.8602560
 136.2315040  98.0673970 116.2230140 137.7924560  97.1257920 119.0440000
 137.1627300  96.4245230 119.2110130 137.2529700  97.8862050 118.8273160
 140.7316510 113.7397150 131.7150610 141.6583820 113.5041420 131.7586570
 140.7166940 114.5669150 131.2336640 137.9180120  96.4041900 131.4792490
 137.6364390  96.9075500 130.7153310 138.2999820  95.6063650 131.1134620
 136.8089220 113.6717560 116.2660170 137.5408040 113.3876840 115.7184060
 137.0682890 113.4330840 117.1559550 135.9704010 109.7882290 116.2706500
 135.3412890 110.2567390 116.8192330 136.0851840 108.9431510 116.7052690
 144.5195580  95.8195480 132.0572960 144.4061030  96.1390090 132.9524480
 145.3365320  96.2207990 131.7610240 147.2994070 112.9667010 131.5391650
 148.0919390 112.4716240 131.3317610 147.5927220 113.6457150 132.1467260
 143.4253730 103.8387950 102.4207700 143.3447780 102.9242560 102.1499410
 143.0118150 104.3355020 101.7147410 141.5571770 105.6166970 104.3016970
 140.7813870 105.1367410 104.5915540 142.2084700 104.9372620 104.1273130
 135.5737600 105.9286780 105.1792730 134.7422480 105.6735490 105.5789240
 136.1818580 105.9997550 105.9150650 145.5779200 110.0227160 103.0816100
 145.1160730 109.2514400 103.4103270 146.3904750 110.0493230 103.5868550
 135.5538860 109.9626870 105.3750750 135.8566900 109.0724610 105.1960970
 136.2982450 110.5197090 105.1473000 133.9829550 100.8888670  98.9635120
 133.0946250 101.2304640  98.8615000 134.2670740 100.6888990  98.0715950
 131.9462560 103.4894320 104.8474820 132.5178670 102.7216520 104.8478460
 131.9464100 103.7883080 103.9381430 141.8042510 112.3085170 102.7020090
 141.1853950 112.7642670 102.1314530 142.6594290 112.4636630 102.3009790
 140.9980760 108.2924160 104.3087130 140.9289040 107.3514100 104.1476260
 141.7600620 108.3825570 104.8809700 133.1887430  98.8978680 106.6343750
 133.0090270  98.0004430 106.9146510 132.7867510  99.4450550 107.3090700
 142.0285930 101.0994540 104.5356060 142.4050750 100.2266420 104.4229730
 141.9305440 101.4353240 103.6446500 136.1590940  99.4720170  99.9973500
 136.2657690 100.3723900 100.3042260 135.2483300  99.4238140  99.7068150
 145.8110050  98.5944980 101.4684400 146.6319670  98.1041550 101.5109880
 145.8444130  99.1842640 102.2216240 133.8074100 101.3939180 105.2426090
 134.4884210 101.6577550 105.8613490 133.4922150 100.5540050 105.5764100
 137.9998670 102.4406540 104.3298680 138.5076890 102.9387510 104.9703700
 138.5311910 101.6641740 104.1538040 136.2834770  97.0805100 108.5962100
 136.2853210  97.5977490 107.7908000 135.4539080  96.6035280 108.5732030
 142.6705860 107.1924410 100.0952000 142.0523130 107.6573860  99.5314720
 143.1829110 107.8851890 100.5121510 137.5337620 106.7200280 106.7735600
 137.2007000 107.3469200 107.4156670 137.7104300 107.2462160 105.9937270
 146.0471530 100.5345360 104.2411940 145.3427100 100.8230250 104.8215050
 146.4083690 101.3445470 103.8811500 135.9650100  98.7915060 106.6032550
 136.3066910  99.6357110 106.3086420 135.0265910  98.9398800 106.7197890
 136.7456720 108.6881080 108.5884780 137.3630720 109.3632160 108.3069230
 135.8849840 109.0969060 108.4972280 132.0389060 107.8780940  97.4691630
 131.6617040 108.3668040  96.7376530 132.2962130 108.5506220  98.0998160
 147.6634310 110.1520490 106.5039420 146.9797830 110.8219600 106.4956090
 148.2028600 110.3501140 105.7384280 139.6477990  96.2797330 102.9277140
 139.9552970  95.7244220 102.2112640 138.7178690  96.4141790 102.7450130
 145.1993050 111.9964620 105.2184600 145.2120210 111.5926910 104.3506860
 144.6468270 112.7711910 105.1146030 146.4938470 108.7180840 100.3074770
 146.3834800 107.7755170 100.4324190 146.4906720 109.0796480 101.1937530
 144.5978490 106.8994460 106.5467210 145.0147280 106.6854570 105.7120670
 145.3218310 107.1567250 107.1175830 142.0358750 104.3446160  99.6637260
 141.1088030 104.2783540  99.8925730 142.1883570 105.2826290  99.5492500
 142.0227830 100.6163160  96.6604420 141.0831500 100.7777120  96.7456880
 142.3411090 101.3348840  96.1140410 146.0656040 105.9066460 100.1672510
 145.4468460 105.5686010  99.5198810 146.0480490 105.2626220 100.8751700
 145.5082600 102.0851000 107.5838320 145.0953780 102.9104710 107.8378310
 144.7758550 101.4996040 107.3914680 137.6415390 104.8710900 102.4456990
 137.2372390 104.1588150 101.9502890 137.7278510 104.5264140 103.3345030
 138.1097090 108.5578460 104.6096200 137.8125380 107.9523930 103.9303980
 139.0596910 108.5955770 104.4985560 136.3544010 101.6454110 106.2256030
 136.9058600 101.7549450 105.4509280 136.8687520 102.0191710 106.9411260
 146.1982700 112.1310330 108.2719300 145.7213260 112.9382520 108.0791910
 145.5144490 111.4788660 108.4245510 137.2015520 108.2960150 111.2604000
 136.3044050 108.5200120 111.5077400 137.2268390 108.4195090 110.3115400
 144.2420740 105.1453270  97.1745260 144.6814020 104.3075700  97.0283080
 144.9549160 105.7782670  97.2609400 136.0286740 105.1673470 109.8361370
 135.8894510 106.0396270 110.2048770 135.1468100 104.8246280 109.6909310
 142.3516120 110.0849340 101.1426500 142.7912030 110.8273670 100.7281890
 142.2903010 110.3275910 102.0665460 137.8267090 111.1095170 112.0446520
 137.7982520 111.5138120 111.1774950 137.6632060 110.1805530 111.8818120
 147.8237880  96.3996080  95.4886300 147.5110540  96.4922910  96.3885370
 148.5850350  96.9777110  95.4383730 134.3420020 103.7655880  99.9463640
 134.2217620 104.4917970  99.3344910 134.0320910 102.9958790  99.4691550
 131.9805390 106.9371020 105.7532280 132.0585810 107.0719790 104.8088000
 132.5947070 106.2286910 105.9460400 133.2253020 108.6371210 102.1638460
 132.8181100 108.7785800 101.3092060 134.1166030 108.3531370 101.9609670
 143.0431900 112.7863120 109.0705510 143.5576570 112.6971130 109.8727940
 142.2000980 113.1322820 109.3633420 145.0186300 113.0718460  98.4989510
 144.8587440 112.7821400  99.3971340 144.8533010 112.2958590  97.9634740
 137.4974680 112.8516990 100.2761130 137.3217160 111.9352530 100.0628930
 136.6430420 113.2104280 100.5158930 144.7212430 110.5806020  97.0587510
 144.0277590 110.5783310  96.3989790 145.4635290 110.1565340  96.6281680
 144.2862360 112.2068730 101.1336000 144.7419310 111.4258110 101.4474620
 144.6254880 112.9175550 101.6777180 132.0364910 107.9785190 108.2926740
 132.1995950 107.5090550 107.4746110 132.5017360 107.4708750 108.9575580
 136.8083680  97.1090950 103.3287310 136.3651830  97.8900490 102.9971830
 137.3668670  97.4320840 104.0358250 141.0953490  99.9759470 108.9322630
 140.6332860 100.1842490 109.7442570 140.6931600  99.1618820 108.6293300
 146.0958000 101.1968420 110.0619290 145.2451590 100.8974170 110.3828360
 145.9359790 101.4410430 109.1503110 143.1907710 102.6970170 112.1618080
 143.5161120 101.8633920 111.8220310 143.9788040 103.2198690 112.3096410
 139.9242500  96.7301650  98.2093140 139.2996680  96.7261520  98.9346450
 139.8372620  95.8632610  97.8129110 138.8459580  97.6538280 105.1876910
 139.1431910  98.5601110 105.1068930 139.3945140  97.1657060 104.5736480
 136.5997900 102.2324520 101.0568560 136.3738820 102.0161690 101.9615180
 135.8190430 102.6652980 100.7114530 143.8295660 102.2387890  99.6559210
 143.2304550 102.9623690  99.4722830 144.3775270 102.1764670  98.8735660
 139.0397110 103.1310100 111.7228830 138.9440710 102.1904830 111.5729230
 139.8829090 103.3525170 111.3276900 142.4360530 100.8751430 101.6862490
 142.8290100 101.1923630 100.8731180 142.7977380  99.9963310 101.8007010
 134.1707650  99.5423770 109.8762610 133.7771040 100.3898980 110.0835390
 133.4826050  98.9050140 110.0671250 140.7452700  99.6258740 112.9459350
 140.0551020  99.4330940 113.5805440 141.4885000  99.9093380 113.4783650
 131.4724700  97.4652230 103.9092690 131.1837750  98.0355090 104.6217670
 132.2170460  96.9856680 104.2723920 131.6594930 101.4072350  95.1195410
 131.5769600 102.3503110  95.2610400 131.3077990 101.2647260  94.2407760
 143.0215670 103.4657180 105.7813270 142.2896790 103.9743990 106.1303370
 142.6240010 102.6487160 105.4802050 139.4593060 100.1411380 104.1865760
 139.4629120  99.7001330 103.3370300 140.3544180 100.4628710 104.2937580
 135.3095440 100.0237870 103.1459970 134.9695490 100.5013100 103.9027020
 134.5472760  99.5702990 102.7861070 139.5213210 101.1423460  97.1772520
 139.6426030 101.1009940  98.1258340 139.1361720 102.0047610  97.0219250
 143.4841580  98.9190860 105.1936210 143.5014320  99.3699510 106.0378060
 143.2357160  98.0196500 105.4069650 138.5334710 103.4524600  96.5755820
 137.9651610 103.0042850  95.9491730 139.2423710 103.8117380  96.0420970
 146.9112330  96.3323040 111.0322590 147.2358100  95.6012700 111.5580570
 146.9468840  96.0136680 110.1303580 133.6103890 107.3536620 110.4522550
 133.2258680 106.7130290 111.0505510 133.9216080 108.0572740 111.0217280
 139.7601030 104.2013160 105.9331170 140.1271160 103.7271730 106.6792510
 139.5706090 105.0754730 106.2739510 132.6241520  98.9456850 102.0624640
 132.3388440  98.5812520 102.9003260 132.5620380  98.2137310 101.4487780
 137.5500400 103.2421800 108.2515380 137.2457470 104.1213780 108.4765740
 138.5046860 103.3021590 108.2872820 136.0782190 107.4482790  98.8482230
 135.3044450 106.9080410  98.6880950 136.8076820 106.9289400  98.5099990
 146.8370170 106.4448150 104.6408620 147.5569290 106.9403440 104.2504730
 146.6351990 105.7666040 103.9962490 142.2980110  97.8386110  98.7838010
 141.4844720  97.3399280  98.7083320 142.1042060  98.6784360  98.3674360
 142.2188970 106.5157210 110.5277620 142.1526280 105.5952880 110.2735210
 141.5894110 106.6132650 111.2422260 145.0128500 102.2105760  97.0800170
 145.9008120 102.5222990  96.9051510 144.9833590 101.3378010  96.6880750
 136.1219590 107.1163170 102.4861040 136.6398260 106.3131430 102.4317930
 135.6703610 107.0542310 103.3277870 141.0089090 108.3829450  97.7588340
 141.3504790 109.1271680  97.2631660 140.1801800 108.6960570  98.1213170
 133.6064130 104.0824540 109.3986740 133.2479070 104.7478390 109.9860080
 133.3118690 103.2508090 109.7699360 136.8077250 104.5408780 112.2826290
 136.5077390 104.6865960 111.3854110 137.5788490 103.9814070 112.1899680
 142.1505700 109.3377780 110.2781420 142.1650240 108.4058740 110.0600330
 141.4430800 109.4237540 110.9171190 147.2842770 103.5217600  96.5480030
 147.2006490 103.9531820  95.6976470 148.0036960 103.9815950  96.9806850
 148.3130020 110.3759860  99.2762160 147.6706180 109.7215480  99.5505880
 147.9260680 110.7814950  98.5002830 143.8916500 107.7045290 103.1233850
 144.2440320 107.1073420 102.4635220 143.0078830 107.3789520 103.2942100
 139.9779780 108.4642980 100.5304260 140.6650910 109.0112190 100.9111850
 139.1912200 109.0083710 100.5653870 132.1172180 104.0815800  96.0221340
 132.9867030 104.3640600  96.3057260 131.6262500 104.8951670  95.9070150
 139.2806990 105.4689010 100.1429620 139.7369770 106.2794260 100.3689810
 138.9295200 105.1512150 100.9748110 141.5839600 110.9795350 107.3721920
 142.2281820 111.1854730 108.0495340 141.9469040 110.2183750 106.9192770
 135.1818770  95.8126660 100.6152140 135.0533400  95.8044560 101.5637060
 134.3580790  96.1509750 100.2643150 142.8571680 108.9827700 106.0899370
 143.4993910 108.2820860 106.2031540 143.3821030 109.7626140 105.9096260
 146.7027400 109.2676320  95.8138510 146.4764980 108.5506760  96.4063150
 146.3123600 109.0188760  94.9760260 144.6309300 109.7822600 109.2935430
 144.9665540 110.3689290 109.9713350 143.7109640 109.6515310 109.5233220
 132.4843430 113.2943180  96.5882970 132.8441070 113.8932520  95.9340240
 132.3435770 113.8403070  97.3618000 132.1812700  97.5717780 110.0758840
 131.4671220  97.7714700 110.6811450 132.6007740  96.7957350 110.4473640
 146.2843650 107.1848260  97.4752670 145.9965350 107.6460950  98.2630550
 147.0795820 106.7246030  97.7436890 132.4685290 111.5598040 111.0625370
 132.5776410 110.6192780 110.9220760 131.8165850 111.8252790 110.4139100
 140.4597880 109.8313930 112.4623490 140.1394750 109.1123170 113.0069180
 139.7856240 110.5069000 112.5359550 138.5012050 110.6774380  97.4056640
 138.4922150 111.4104070  96.7901150 137.5810410 110.4305960  97.4983600
 134.1018690 105.8989270  98.1503400 133.4946640 106.6388170  98.1598700
 134.5768040 105.9888630  97.3241600 143.6751480 100.0640090 107.8260290
 144.0432300  99.2435300 108.1539860 142.8149680 100.1241980 108.2415940
 147.0413510  99.0197030  98.6347850 146.4126670  99.1242700  97.9206080
 146.5465430  99.2393810  99.4241730 141.4871650 110.7402620  96.0681830
 141.5883630 110.5366610  95.1383810 140.5873390 110.4860900  96.2729610
 139.0097540 101.2982980 100.0505730 138.3013690 101.7669320 100.4919340
 139.2942020 100.6404990 100.6850920 140.6353470 102.7179680 108.0498260
 141.1338720 103.1925500 108.7150110 140.7776420 101.7943200 108.2568290
 143.0412970  98.0233640 101.4901520 142.9180750  98.0419770 100.5411030
 143.9897530  98.0712580 101.6099920 140.1289760 113.2588940 100.7629500
 140.3831260 113.2210330  99.8408870 139.1802240 113.1322270 100.7557750
 137.2132560  99.6068060  97.4256440 138.0623090 100.0438210  97.3596630
 136.8463830  99.9188320  98.2528500 147.8420330  98.9347640 108.8926650
 147.3393930  99.6753040 109.2320460 148.6576990  99.3231640 108.5763440
 146.1342340 104.1780820 102.3388010 145.1932480 104.1931050 102.5135700
 146.4486410 103.3916780 102.7848310 136.1123980 105.8600420  95.8991970
 136.8787250 105.7481780  96.4617400 136.1898670 105.1638390  95.2468740
 134.8070740 103.2925490  96.5824860 134.8874330 102.3453000  96.6942260
 135.6990490 103.6232370  96.6885520 135.6085450 113.4420880 103.6859400
 136.3447930 112.8936340 103.9567970 135.9926370 114.3076890 103.5465390
 132.4930930 109.5094450  99.5600910 131.5670710 109.7515590  99.5506320
 132.9587360 110.3368710  99.4385660 134.6143730 112.6266950 112.8744980
 135.4156460 112.9479000 113.2880380 134.0995550 112.2662530 113.5964890
 138.7187760 112.6151190  95.5084970 139.5116370 112.9040020  95.0566760
 138.1992110 112.1843360  94.8297450 143.4508360 108.7346820 112.8220390
 142.8446520 108.7578420 112.0816140 143.1462470 108.0029860 113.3587640
 144.8808730 112.4627110 111.4329800 145.8330480 112.3785130 111.3830040
 144.7336950 113.1268820 112.1063590 147.7717930 111.8421320  96.9321710
 147.4859440 111.4286460  96.1175890 147.5737480 112.7709030  96.8122230
 132.3341540 105.1140410 111.8181030 132.8380560 104.5347690 112.3897260
 131.5948960 105.3980640 112.3557400 139.2365160 107.8354600  95.3727320
 139.1315800 107.2206950  96.0988700 139.0689380 107.3120490  94.5890330
 139.3879480 106.5211400 111.3516550 138.6225150 107.0896400 111.2671220
 139.5695440 106.2287610 110.4584780 142.4767890 106.8974630  95.9769310
 141.9277990 107.3443930  96.6212050 143.0987150 106.3923880  96.5006980
 146.5302830 108.2516730 111.9091570 147.2712300 108.5892490 111.4059030
 145.7675510 108.4208790 111.3561340 134.3664620 103.2570000 112.7131100
 134.4069960 102.9583870 113.6216330 135.2210120 103.6577610 112.5538620
 138.1443010 105.8565550  97.8734610 138.5659430 105.6905420  98.7166000
 138.2693850 105.0465780  97.3789750 136.3070430 101.8362100 110.6805590
 135.7766890 101.3453050 110.0528930 136.9758500 102.2646300 110.1463520
 140.6570650 104.8803160  95.1211710 141.1776310 104.1652180  94.7552860
 141.3039050 105.5189030  95.4212220 145.2048490 106.3031560 110.4446780
 145.6189510 106.4576640 111.2937200 144.2699490 106.4286780 110.6072560
 145.6770660 103.6427720 112.4485930 146.2591430 102.8880040 112.3606410
 145.8532430 104.1735160 111.6717410 136.7942730  98.8024470 110.7602880
 136.6999600  98.1845220 110.0353750 136.2140120  99.5290760 110.5332790
 139.5604170  97.3597710 107.7930270 139.1121470  97.3821970 106.9475820
 138.9269370  96.9616730 108.3900570 139.9663720 106.2552040 108.4142710
 140.3851830 107.0984770 108.2418950 139.0472350 106.3924080 108.1849490
 142.3027620 103.9868220 109.7980550 142.4223830 103.3909360 110.5375390
 143.1621620 104.0237910 109.3781850 144.6415520 104.5405410 108.3743060
 144.1150740 105.0648030 107.7708200 144.9846860 105.1732800 109.0052790
 137.0401910 101.9298780  94.8192770 136.8390970 101.0666140  95.1806110
 136.8693960 101.8432140  93.8814370 137.8171140 112.5605050 109.5300440
 137.2792230 113.2851110 109.2109140 138.0705100 112.0835390 108.7397780
 139.0696390 100.5289570 111.0556370 139.6596080 100.2205420 111.7434190
 138.2516630 100.0569320 111.2116270 143.8889820 100.1455380 111.2889390
 143.2005340  99.4836920 111.2239380 144.6095840  99.6993650 111.7337850
 144.5190220  96.7407010  97.3479650 144.7992510  95.8974910  97.7039070
 143.7455950  96.9730120  97.8618400 135.8384710  99.0299400  94.8070650
 136.1410610  99.0366830  93.8989800 136.5779300  98.6797260  95.3038310
 140.6733350 113.7956260 109.7887090 140.5992050 114.6991400 110.0959460
 139.7712190 113.4768160 109.7609160 139.0569640  97.9734020  95.7926850
 138.7091640  97.2958010  95.2129300 139.2582410  97.5123530  96.6070240
 141.2218680 112.9614770  97.4113450 142.1169470 113.2999740  97.4332210
 141.2536310 112.2394180  96.7837730 134.8614840 108.3341820  95.6400450
 135.2989710 108.8771490  96.2958030 135.3462570 107.5088770  95.6496790
 132.0760640 111.1230850 103.0920710 132.4063650 110.2551910 102.8599350
 132.5051640 111.3289370 103.9225670 136.6722560 109.4539860 100.7522680
 136.3718100 109.3304830 101.6526590 136.5660050 108.5948450 100.3438410
 132.5650850 111.9901440 105.8302340 132.1281840 112.1702240 106.6626490
 133.1328530 112.7476060 105.6884060 148.2013030 111.4918440 110.1179650
 147.6015020 111.5511000 109.3743570 148.3306930 110.5523420 110.2476500
 132.3975280 104.5021670 102.1891220 131.7424120 104.2333310 101.5450920
 133.2353230 104.3926150 101.7393200 146.8864670 108.2170420 108.2155810
 146.0724510 108.6467580 108.4781600 147.2938870 108.8288830 107.6024860
 145.3465720  99.2962960  96.4109710 145.7650600  99.1093940  95.5706370
 145.0401780  98.4442010  96.7212640 133.4351210 104.8874240 106.7294560
 133.8024250 104.8001640 107.6090580 132.8662030 104.1240790 106.6301420
 148.2355070 103.3558620 109.7425030 148.0041160 103.1271370 108.8422980
 148.4959620 104.2758170 109.6969920 132.9867210 101.7983330 110.6352980
 132.0923260 101.7650090 110.9746690 133.5264760 101.9970120 111.4004230
 146.6743140  98.5815050 112.5204730 147.5513320  98.5898450 112.9038730
 146.6863980  97.8445890 111.9097080 131.6113360 101.7120600  98.1316550
 130.7077440 101.9750800  97.9568210 132.0953980 101.9831770  97.3516510
 148.2996130 102.5184460 106.9312300 147.3498840 102.4848000 107.0457290
 148.4809140 103.4284570 106.6962070 134.1540570 100.7686140  96.0410930
 134.8632270 100.3469360  95.5558210 133.4380510 100.8361370  95.4094280
 133.8014730  96.8225470  95.0813580 134.5242860  97.3634410  95.3994800
 134.0739250  96.5488890  94.2055120 147.6106380 101.6917940  99.3485160
 148.1065500 101.4588810 100.1334040 147.4122450 100.8529780  98.9322800
 133.4906920  96.0731660 104.9836200 134.1383110  95.5229040 104.5431360
 133.9108760  96.3274810 105.8052010 147.3859260  96.2673020 108.3405840
 148.0231480  96.8807160 108.7065030 147.5334150  96.3033680 107.3955070
 146.9440720 112.9689020 101.7424080 147.5399790 112.6473590 101.0658500
 147.2018870 112.4960840 102.5337350 133.2438920  96.2287330 107.7261520
 132.8953740  96.6851150 108.4919700 132.9126620  95.3344460 107.8083950
 134.8503290 109.4006930 111.8914710 134.8072920 109.0299840 112.7729170
 134.9814300 110.3384500 112.0316530 138.5509320 110.9566520 107.4924430
 138.3100680 111.2241080 106.6054950 139.4911960 111.1272250 107.5475290
 140.7563740  97.4199210 111.2480940 140.6952630  98.0121040 111.9976350
 141.6964120  97.3125170 111.1031200 143.3938300  97.0769270 110.8873230
 144.0078710  97.3948560 110.2254310 143.9387860  96.5917860 111.5069090
 133.9159560  95.7563530 111.0012290 134.4642550  95.5751580 110.2378400
 133.9814870  94.9657640 111.5368600 134.6891320 112.3469180 109.0112490
 134.0951640 112.2153880 109.7502530 134.6815160 111.5107320 108.5454590
 144.1346340  95.6401410 107.2142520 143.2606180  95.9736520 107.0115450
 144.0257090  95.1674590 108.0394390 145.0418320  97.8472280 108.5984240
 144.7131680  97.0324040 108.2185970 145.9900620  97.8042090 108.4749930
 147.4952930 113.6184320 105.5721810 147.0355900 114.3700130 105.1979830
 146.8665390 112.8990790 105.5136610 134.3203550 109.7127560 107.9620530
 133.5937610 109.0932850 107.8946480 134.3812700 110.1068170 107.0918610
 137.9248650 111.9272560 104.7469940 138.4413670 111.3159920 104.2218200
 138.5746030 112.4301340 105.2380950 140.6644150 112.8181050 105.5738920
 140.9521960 112.5635350 104.6971930 141.1767370 112.2658410 106.1644490
 141.8821160  96.5571250 106.1535430 141.0992950  97.0316750 106.4332190
 141.5884090  95.6526080 106.0448610 146.4342230  97.2594350 104.1984520
 146.8750320  97.2039450 103.3506120 146.1649820  98.1752360 104.2694700
 132.6033550 113.0301950 101.1717290 132.4355590 112.3972630 101.8699180
 131.7368060 113.2361350 100.8211480 133.2261570  96.8618730  98.6749150
 133.9840930  96.9747610  98.1013180 132.7638740  97.6987930  98.6292580
 139.7675380  98.9758000 101.6651460 138.9549890  98.6014890 101.3247340
 140.2717020  98.2203080 101.9672650 144.2700360  95.6400450 102.9034530
 144.8729730  96.2120660 103.3783050 143.5293350  96.2039890 102.6808430
 147.4134960  96.0422010  98.1774810 147.6085590  96.9405460  98.4442240
 146.6264830  95.8109090  98.6707760 134.2096250 111.7235180  98.6167430
 133.6843870 112.1043210  97.9129390 134.1340830 112.3485950  99.3377140
 135.5986720  97.3882780  97.2151120 136.1279480  96.6012580  97.0859070
 136.2315040  98.0673970  97.4486650 137.7924560  97.1257920 100.2696510
 137.1627300  96.4245230 100.4366640 137.2529700  97.8862050 100.0529670
 140.7316510 113.7397150 112.9407120 141.6583820 113.5041420 112.9843080
 140.7166940 114.5669150 112.4593150 137.9180120  96.4041900 112.7049000
 137.6364390  96.9075500 111.9409820 138.2999820  95.6063650 112.3391130
 136.8089220 113.6717560  97.4916680 137.5408040 113.3876840  96.9440570
 137.0682890 113.4330840  98.3816060 135.9704010 109.7882290  97.4963010
 135.3412890 110.2567390  98.0448840 136.0851840 108.9431510  97.9309200
 144.5195580  95.8195480 113.2829470 144.4061030  96.1390090 114.1780990
 145.3365320  96.2207990 112.9866750 147.2994070 112.9667010 112.7648160
 148.0919390 112.4716240 112.5574120 147.5927220 113.6457150 113.3723770
 143.4253730 103.8387950  83.6464210 143.3447780 102.9242560  83.3755920
 143.0118150 104.3355020  82.9403920 141.5571770 105.6166970  85.5273480
 140.7813870 105.1367410  85.8172050 142.2084700 104.9372620  85.3529640
 135.5737600 105.9286780  86.4049240 134.7422480 105.6735490  86.8045750
 136.1818580 105.9997550  87.1407160 145.5779200 110.0227160  84.3072610
 145.1160730 109.2514400  84.6359780 146.3904750 110.0493230  84.8125060
 135.5538860 109.9626870  86.6007260 135.8566900 109.0724610  86.4217480
 136.2982450 110.5197090  86.3729510 133.9829550 100.8888670  80.1891630
 133.0946250 101.2304640  80.0871510 134.2670740 100.6888990  79.2972460
 141.8042510 112.3085170  83.9276600 141.1853950 112.7642670  83.3571040
 142.6594290 112.4636630  83.5266300 140.9980760 108.2924160  85.5343640
 140.9289040 107.3514100  85.3732770 141.7600620 108.3825570  86.1066210
 133.1887430  98.8978680  87.8600260 133.0090270  98.0004430  88.1403020
 132.7867510  99.4450550  88.5347210 142.0285930 101.0994540  85.7612570
 142.4050750 100.2266420  85.6486240 141.9305440 101.4353240  84.8703010
 136.1590940  99.4720170  81.2230010 136.2657690 100.3723900  81.5298770
 135.2483300  99.4238140  80.9324660 145.8110050  98.5944980  82.6940910
 146.6319670  98.1041550  82.7366390 145.8444130  99.1842640  83.4472750
 133.8074100 101.3939180  86.4682600 134.4884210 101.6577550  87.0870000
 133.4922150 100.5540050  86.8020610 137.9998670 102.4406540  85.5555190
 138.5076890 102.9387510  86.1960210 138.5311910 101.6641740  85.3794550
 136.2834770  97.0805100  89.8218610 136.2853210  97.5977490  89.0164510
 135.4539080  96.6035280  89.7988540 142.6705860 107.1924410  81.3208510
 142.0523130 107.6573860  80.7571230 143.1829110 107.8851890  81.7378020
 137.5337620 106.7200280  87.9992110 137.2007000 107.3469200  88.6413180
 137.7104300 107.2462160  87.2193780 146.0471530 100.5345360  85.4668450
 145.3427100 100.8230250  86.0471560 146.4083690 101.3445470  85.1068010
 135.9650100  98.7915060  87.8289060 136.3066910  99.6357110  87.5342930
 135.0265910  98.9398800  87.9454400 136.7456720 108.6881080  89.8141290
 137.3630720 109.3632160  89.5325740 135.8849840 109.0969060  89.7228790
 132.0389060 107.8780940  78.6948140 131.6617040 108.3668040  77.9633040
 132.2962130 108.5506220  79.3254670 147.6634310 110.1520490  87.7295930
 146.9797830 110.8219600  87.7212600 148.2028600 110.3501140  86.9640790
 139.6477990  96.2797330  84.1533650 139.9552970  95.7244220  83.4369150
 138.7178690  96.4141790  83.9706640 145.1993050 111.9964620  86.4441110
 145.2120210 111.5926910  85.5763370 144.6468270 112.7711910  86.3402540
 146.4938470 108.7180840  81.5331280 146.3834800 107.7755170  81.6580700
 146.4906720 109.0796480  82.4194040 144.5978490 106.8994460  87.7723720
 145.0147280 106.6854570  86.9377180 145.3218310 107.1567250  88.3432340
 142.0358750 104.3446160  80.8893770 141.1088030 104.2783540  81.1182240
 142.1883570 105.2826290  80.7749010 142.0227830 100.6163160  77.8860930
 141.0831500 100.7777120  77.9713390 142.3411090 101.3348840  77.3396920
 146.0656040 105.9066460  81.3929020 145.4468460 105.5686010  80.7455320
 146.0480490 105.2626220  82.1008210 145.5082600 102.0851000  88.8094830
 145.0953780 102.9104710  89.0634820 144.7758550 101.4996040  88.6171190
 137.6415390 104.8710900  83.6713500 137.2372390 104.1588150  83.1759400
 137.7278510 104.5264140  84.5601540 138.1097090 108.5578460  85.8352710
 137.8125380 107.9523930  85.1560490 139.0596910 108.5955770  85.7242070
 136.3544010 101.6454110  87.4512540 136.9058600 101.7549450  86.6765790
 136.8687520 102.0191710  88.1667770 146.1982700 112.1310330  89.4975810
 145.7213260 112.9382520  89.3048420 145.5144490 111.4788660  89.6502020
 137.2015520 108.2960150  92.4860510 136.3044050 108.5200120  92.7333910
 137.2268390 108.4195090  91.5371910 144.2420740 105.1453270  78.4001770
 144.6814020 104.3075700  78.2539590 144.9549160 105.7782670  78.4865910
 136.0286740 105.1673470  91.0617880 135.8894510 106.0396270  91.4305280
 135.1468100 104.8246280  90.9165820 142.3516120 110.0849340  82.3683010
 142.7912030 110.8273670  81.9538400 142.2903010 110.3275910  83.2921970
 137.8267090 111.1095170  93.2703030 137.7982520 111.5138120  92.4031460
 137.6632060 110.1805530  93.1074630 147.8237880  96.3996080  76.7142810
 147.5110540  96.4922910  77.6141880 148.5850350  96.9777110  76.6640240
 134.3420020 103.7655880  81.1720150 134.2217620 104.4917970  80.5601420
 134.0320910 102.9958790  80.6948060 133.2253020 108.6371210  83.3894970
 132.8181100 108.7785800  82.5348570 134.1166030 108.3531370  83.1866180
 143.0431900 112.7863120  90.2962020 143.5576570 112.6971130  91.0984450
 142.2000980 113.1322820  90.5889930 145.0186300 113.0718460  79.7246020
 144.8587440 112.7821400  80.6227850 144.8533010 112.2958590  79.1891250
 137.4974680 112.8516990  81.5017640 137.3217160 111.9352530  81.2885440
 136.6430420 113.2104280  81.7415440 144.7212430 110.5806020  78.2844020
 144.0277590 110.5783310  77.6246300 145.4635290 110.1565340  77.8538190
 144.2862360 112.2068730  82.3592510 144.7419310 111.4258110  82.6731130
 144.6254880 112.9175550  82.9033690 132.0364910 107.9785190  89.5183250
 132.1995950 107.5090550  88.7002620 132.5017360 107.4708750  90.1832090
 136.8083680  97.1090950  84.5543820 136.3651830  97.8900490  84.2228340
 137.3668670  97.4320840  85.2614760 141.0953490  99.9759470  90.1579140
 140.6332860 100.1842490  90.9699080 140.6931600  99.1618820  89.8549810
 146.0958000 101.1968420  91.2875800 145.2451590 100.8974170  91.6084870
 145.9359790 101.4410430  90.3759620 143.1907710 102.6970170  93.3874590
 143.5161120 101.8633920  93.0476820 143.9788040 103.2198690  93.5352920
 139.9242500  96.7301650  79.4349650 139.2996680  96.7261520  80.1602960
 139.8372620  95.8632610  79.0385620 138.8459580  97.6538280  86.4133420
 139.1431910  98.5601110  86.3325440 139.3945140  97.1657060  85.7992990
 136.5997900 102.2324520  82.2825070 136.3738820 102.0161690  83.1871690
 135.8190430 102.6652980  81.9371040 143.8295660 102.2387890  80.8815720
 143.2304550 102.9623690  80.6979340 144.3775270 102.1764670  80.0992170
 139.0397110 103.1310100  92.9485340 138.9440710 102.1904830  92.7985740
 139.8829090 103.3525170  92.5533410 142.4360530 100.8751430  82.9119000
 142.8290100 101.1923630  82.0987690 142.7977380  99.9963310  83.0263520
 134.1707650  99.5423770  91.1019120 133.7771040 100.3898980  91.3091900
 133.4826050  98.9050140  91.2927760 140.7452700  99.6258740  94.1715860
 140.0551020  99.4330940  94.8061950 141.4885000  99.9093380  94.7040160
 131.6594930 101.4072350  76.3451920 131.5769600 102.3503110  76.4866910
 131.3077990 101.2647260  75.4664270 143.0215670 103.4657180  87.0069780
 142.2896790 103.9743990  87.3559880 142.6240010 102.6487160  86.7058560
 139.4593060 100.1411380  85.4122270 139.4629120  99.7001330  84.5626810
 140.3544180 100.4628710  85.5194090 135.3095440 100.0237870  84.3716480
 134.9695490 100.5013100  85.1283530 134.5472760  99.5702990  84.0117580
 139.5213210 101.1423460  78.4029030 139.6426030 101.1009940  79.3514850
 139.1361720 102.0047610  78.2475760 143.4841580  98.9190860  86.4192720
 143.5014320  99.3699510  87.2634570 143.2357160  98.0196500  86.6326160
 138.5334710 103.4524600  77.8012330 137.9651610 103.0042850  77.1748240
 139.2423710 103.8117380  77.2677480 146.9112330  96.3323040  92.2579100
 147.2358100  95.6012700  92.7837080 146.9468840  96.0136680  91.3560090
 133.6103890 107.3536620  91.6779060 133.2258680 106.7130290  92.2762020
 133.9216080 108.0572740  92.2473790 139.7601030 104.2013160  87.1587680
 140.1271160 103.7271730  87.9049020 139.5706090 105.0754730  87.4996020
 132.6241520  98.9456850  83.2881150 132.3388440  98.5812520  84.1259770
 132.5620380  98.2137310  82.6744290 137.5500400 103.2421800  89.4771890
 137.2457470 104.1213780  89.7022250 138.5046860 103.3021590  89.5129330
 136.0782190 107.4482790  80.0738740 135.3044450 106.9080410  79.9137460
 136.8076820 106.9289400  79.7356500 146.8370170 106.4448150  85.8665130
 147.5569290 106.9403440  85.4761240 146.6351990 105.7666040  85.2219000
 142.2980110  97.8386110  80.0094520 141.4844720  97.3399280  79.9339830
 142.1042060  98.6784360  79.5930870 142.2188970 106.5157210  91.7534130
 142.1526280 105.5952880  91.4991720 141.5894110 106.6132650  92.4678770
 145.0128500 102.2105760  78.3056680 145.9008120 102.5222990  78.1308020
 144.9833590 101.3378010  77.9137260 136.1219590 107.1163170  83.7117550
 136.6398260 106.3131430  83.6574440 135.6703610 107.0542310  84.5534380
 141.0089090 108.3829450  78.9844850 141.3504790 109.1271680  78.4888170
 140.1801800 108.6960570  79.3469680 133.6064130 104.0824540  90.6243250
 133.2479070 104.7478390  91.2116590 133.3118690 103.2508090  90.9955870
 136.8077250 104.5408780  93.5082800 136.5077390 104.6865960  92.6110620
 137.5788490 103.9814070  93.4156190 142.1505700 109.3377780  91.5037930
 142.1650240 108.4058740  91.2856840 141.4430800 109.4237540  92.1427700
 147.2842770 103.5217600  77.7736540 147.2006490 103.9531820  76.9232980
 148.0036960 103.9815950  78.2063360 148.3130020 110.3759860  80.5018670
 147.6706180 109.7215480  80.7762390 147.9260680 110.7814950  79.7259340
 143.8916500 107.7045290  84.3490360 144.2440320 107.1073420  83.6891730
 143.0078830 107.3789520  84.5198610 139.9779780 108.4642980  81.7560770
 140.6650910 109.0112190  82.1368360 139.1912200 109.0083710  81.7910380
 132.1172180 104.0815800  77.2477850 132.9867030 104.3640600  77.5313770
 131.6262500 104.8951670  77.1326660 139.2806990 105.4689010  81.3686130
 139.7369770 106.2794260  81.5946320 138.9295200 105.1512150  82.2004620
 141.5839600 110.9795350  88.5978430 142.2281820 111.1854730  89.2751850
 141.9469040 110.2183750  88.1449280 135.1818770  95.8126660  81.8408650
 135.0533400  95.8044560  82.7893570 134.3580790  96.1509750  81.4899660
 142.8571680 108.9827700  87.3155880 143.4993910 108.2820860  87.4288050
 143.3821030 109.7626140  87.1352770 146.7027400 109.2676320  77.0395020
 146.4764980 108.5506760  77.6319660 146.3123600 109.0188760  76.2016770
 144.6309300 109.7822600  90.5191940 144.9665540 110.3689290  91.1969860
 143.7109640 109.6515310  90.7489730 132.4843430 113.2943180  77.8139480
 132.8441070 113.8932520  77.1596750 132.3435770 113.8403070  78.5874510
 132.1812700  97.5717780  91.3015350 131.4671220  97.7714700  91.9067960
 132.6007740  96.7957350  91.6730150 146.2843650 107.1848260  78.7009180
 145.9965350 107.6460950  79.4887060 147.0795820 106.7246030  78.9693400
 132.4685290 111.5598040  92.2881880 132.5776410 110.6192780  92.1477270
 131.8165850 111.8252790  91.6395610 140.4597880 109.8313930  93.6880000
 140.1394750 109.1123170  94.2325690 139.7856240 110.5069000  93.7616060
 138.5012050 110.6774380  78.6313150 138.4922150 111.4104070  78.0157660
 137.5810410 110.4305960  78.7240110 134.1018690 105.8989270  79.3759910
 133.4946640 106.6388170  79.3855210 134.5768040 105.9888630  78.5498110
 143.6751480 100.0640090  89.0516800 144.0432300  99.2435300  89.3796370
 142.8149680 100.1241980  89.4672450 147.0413510  99.0197030  79.8604360
 146.4126670  99.1242700  79.1462590 146.5465430  99.2393810  80.6498240
 141.4871650 110.7402620  77.2938340 141.5883630 110.5366610  76.3640320
 140.5873390 110.4860900  77.4986120 139.0097540 101.2982980  81.2762240
 138.3013690 101.7669320  81.7175850 139.2942020 100.6404990  81.9107430
 140.6353470 102.7179680  89.2754770 141.1338720 103.1925500  89.9406620
 140.7776420 101.7943200  89.4824800 143.0412970  98.0233640  82.7158030
 142.9180750  98.0419770  81.7667540 143.9897530  98.0712580  82.8356430
 140.1289760 113.2588940  81.9886010 140.3831260 113.2210330  81.0665380
 139.1802240 113.1322270  81.9814260 137.2132560  99.6068060  78.6512950
 138.0623090 100.0438210  78.5853140 136.8463830  99.9188320  79.4785010
 147.8420330  98.9347640  90.1183160 147.3393930  99.6753040  90.4576970
 148.6576990  99.3231640  89.8019950 146.1342340 104.1780820  83.5644520
 145.1932480 104.1931050  83.7392210 146.4486410 103.3916780  84.0104820
 136.1123980 105.8600420  77.1248480 136.8787250 105.7481780  77.6873910
 136.1898670 105.1638390  76.4725250 134.8070740 103.2925490  77.8081370
 134.8874330 102.3453000  77.9198770 135.6990490 103.6232370  77.9142030
 135.6085450 113.4420880  84.9115910 136.3447930 112.8936340  85.1824480
 135.9926370 114.3076890  84.7721900 132.4930930 109.5094450  80.7857420
 131.5670710 109.7515590  80.7762830 132.9587360 110.3368710  80.6642170
 134.6143730 112.6266950  94.1001490 135.4156460 112.9479000  94.5136890
 134.0995550 112.2662530  94.8221400 138.7187760 112.6151190  76.7341480
 139.5116370 112.9040020  76.2823270 138.1992110 112.1843360  76.0553960
 143.4508360 108.7346820  94.0476900 142.8446520 108.7578420  93.3072650
 143.1462470 108.0029860  94.5844150 144.8808730 112.4627110  92.6586310
 145.8330480 112.3785130  92.6086550 144.7336950 113.1268820  93.3320100
 147.7717930 111.8421320  78.1578220 147.4859440 111.4286460  77.3432400
 147.5737480 112.7709030  78.0378740 132.3341540 105.1140410  93.0437540
 132.8380560 104.5347690  93.6153770 131.5948960 105.3980640  93.5813910
 139.2365160 107.8354600  76.5983830 139.1315800 107.2206950  77.3245210
 139.0689380 107.3120490  75.8146840 139.3879480 106.5211400  92.5773060
 138.6225150 107.0896400  92.4927730 139.5695440 106.2287610  91.6841290
 142.4767890 106.8974630  77.2025820 141.9277990 107.3443930  77.8468560
 143.0987150 106.3923880  77.7263490 146.5302830 108.2516730  93.1348080
 147.2712300 108.5892490  92.6315540 145.7675510 108.4208790  92.5817850
 134.3664620 103.2570000  93.9387610 134.4069960 102.9583870  94.8472840
 135.2210120 103.6577610  93.7795130 138.1443010 105.8565550  79.0991120
 138.5659430 105.6905420  79.9422510 138.2693850 105.0465780  78.6046260
 136.3070430 101.8362100  91.9062100 135.7766890 101.3453050  91.2785440
 136.9758500 102.2646300  91.3720030 140.6570650 104.8803160  76.3468220
 141.1776310 104.1652180  75.9809370 141.3039050 105.5189030  76.6468730
 145.2048490 106.3031560  91.6703290 145.6189510 106.4576640  92.5193710
 144.2699490 106.4286780  91.8329070 145.6770660 103.6427720  93.6742440
 146.2591430 102.8880040  93.5862920 145.8532430 104.1735160  92.8973920
 136.7942730  98.8024470  91.9859390 136.6999600  98.1845220  91.2610260
 136.2140120  99.5290760  91.7589300 139.5604170  97.3597710  89.0186780
 139.1121470  97.3821970  88.1732330 138.9269370  96.9616730  89.6157080
 139.9663720 106.2552040  89.6399220 140.3851830 107.0984770  89.4675460
 139.0472350 106.3924080  89.4106000 142.3027620 103.9868220  91.0237060
 142.4223830 103.3909360  91.7631900 143.1621620 104.0237910  90.6038360
 144.6415520 104.5405410  89.5999570 144.1150740 105.0648030  88.9964710
 144.9846860 105.1732800  90.2309300 137.0401910 101.9298780  76.0449280
 136.8390970 101.0666140  76.4062620 136.8693960 101.8432140  75.1070880
 137.8171140 112.5605050  90.7556950 137.2792230 113.2851110  90.4365650
 138.0705100 112.0835390  89.9654290 139.0696390 100.5289570  92.2812880
 139.6596080 100.2205420  92.9690700 138.2516630 100.0569320  92.4372780
 143.8889820 100.1455380  92.5145900 143.2005340  99.4836920  92.4495890
 144.6095840  99.6993650  92.9594360 144.5190220  96.7407010  78.5736160
 144.7992510  95.8974910  78.9295580 143.7455950  96.9730120  79.0874910
 135.8384710  99.0299400  76.0327160 136.1410610  99.0366830  75.1246310
 136.5779300  98.6797260  76.5294820 140.6733350 113.7956260  91.0143600
 140.5992050 114.6991400  91.3215970 139.7712190 113.4768160  90.9865670
 139.0569640  97.9734020  77.0183360 138.7091640  97.2958010  76.4385810
 139.2582410  97.5123530  77.8326750 141.2218680 112.9614770  78.6369960
 142.1169470 113.2999740  78.6588720 141.2536310 112.2394180  78.0094240
 134.8614840 108.3341820  76.8656960 135.2989710 108.8771490  77.5214540
 135.3462570 107.5088770  76.8753300 132.0760640 111.1230850  84.3177220
 132.4063650 110.2551910  84.0855860 132.5051640 111.3289370  85.1482180
 136.6722560 109.4539860  81.9779190 136.3718100 109.3304830  82.8783100
 136.5660050 108.5948450  81.5694920 132.5650850 111.9901440  87.0558850
 132.1281840 112.1702240  87.8883000 133.1328530 112.7476060  86.9140570
 148.2013030 111.4918440  91.3436160 147.6015020 111.5511000  90.6000080
 148.3306930 110.5523420  91.4733010 146.8864670 108.2170420  89.4412320
 146.0724510 108.6467580  89.7038110 147.2938870 108.8288830  88.8281370
 145.3465720  99.2962960  77.6366220 145.7650600  99.1093940  76.7962880
 145.0401780  98.4442010  77.9469150 133.4351210 104.8874240  87.9551070
 133.8024250 104.8001640  88.8347090 132.8662030 104.1240790  87.8557930
 148.2355070 103.3558620  90.9681540 148.0041160 103.1271370  90.0679490
 148.4959620 104.2758170  90.9226430 132.9867210 101.7983330  91.8609490
 132.0923260 101.7650090  92.2003200 133.5264760 101.9970120  92.6260740
 146.6743140  98.5815050  93.7461240 147.5513320  98.5898450  94.1295240
 146.6863980  97.8445890  93.1353590 131.6113360 101.7120600  79.3573060
 130.7077440 101.9750800  79.1824720 132.0953980 101.9831770  78.5773020
 148.2996130 102.5184460  88.1568810 147.3498840 102.4848000  88.2713800
 148.4809140 103.4284570  87.9218580 134.1540570 100.7686140  77.2667440
 134.8632270 100.3469360  76.7814720 133.4380510 100.8361370  76.6350790
 147.6106380 101.6917940  80.5741670 148.1065500 101.4588810  81.3590550
 147.4122450 100.8529780  80.1579310 133.4906920  96.0731660  86.2092710
 134.1383110  95.5229040  85.7687870 133.9108760  96.3274810  87.0308520
 147.3859260  96.2673020  89.5662350 148.0231480  96.8807160  89.9321540
 147.5334150  96.3033680  88.6211580 146.9440720 112.9689020  82.9680590
 147.5399790 112.6473590  82.2915010 147.2018870 112.4960840  83.7593860
 133.2438920  96.2287330  88.9518030 132.8953740  96.6851150  89.7176210
 132.9126620  95.3344460  89.0340460 134.8503290 109.4006930  93.1171220
 134.8072920 109.0299840  93.9985680 134.9814300 110.3384500  93.2573040
 138.5509320 110.9566520  88.7180940 138.3100680 111.2241080  87.8311460
 139.4911960 111.1272250  88.7731800 140.7563740  97.4199210  92.4737450
 140.6952630  98.0121040  93.2232860 141.6964120  97.3125170  92.3287710
 143.3938300  97.0769270  92.1129740 144.0078710  97.3948560  91.4510820
 143.9387860  96.5917860  92.7325600 133.9159560  95.7563530  92.2268800
 134.4642550  95.5751580  91.4634910 133.9814870  94.9657640  92.7625110
 134.6891320 112.3469180  90.2369000 134.0951640 112.2153880  90.9759040
 134.6815160 111.5107320  89.7711100 144.1346340  95.6401410  88.4399030
 143.2606180  95.9736520  88.2371960 144.0257090  95.1674590  89.2650900
 145.0418320  97.8472280  89.8240750 144.7131680  97.0324040  89.4442480
 145.9900620  97.8042090  89.7006440 147.4952930 113.6184320  86.7978320
 147.0355900 114.3700130  86.4236340 146.8665390 112.8990790  86.7393120
 134.3203550 109.7127560  89.1877040 133.5937610 109.0932850  89.1202990
 134.3812700 110.1068170  88.3175120 137.9248650 111.9272560  85.9726450
 138.4413670 111.3159920  85.4474710 138.5746030 112.4301340  86.4637460
 140.6644150 112.8181050  86.7995430 140.9521960 112.5635350  85.9228440
 141.1767370 112.2658410  87.3901000 141.8821160  96.5571250  87.3791940
 141.0992950  97.0316750  87.6588700 141.5884090  95.6526080  87.2705120
 146.4342230  97.2594350  85.4241030 146.8750320  97.2039450  84.5762630
 146.1649820  98.1752360  85.4951210 132.6033550 113.0301950  82.3973800
 132.4355590 112.3972630  83.0955690 131.7368060 113.2361350  82.0467990
 139.7675380  98.9758000  82.8907970 138.9549890  98.6014890  82.5503850
 140.2717020  98.2203080  83.1929160 144.2700360  95.6400450  84.1291040
 144.8729730  96.2120660  84.6039560 143.5293350  96.2039890  83.9064940
 147.4134960  96.0422010  79.4031320 147.6085590  96.9405460  79.6698750
 146.6264830  95.8109090  79.8964270 134.2096250 111.7235180  79.8423940
 133.6843870 112.1043210  79.1385900 134.1340830 112.3485950  80.5633650
 137.7924560  97.1257920  81.4953020 137.1627300  96.4245230  81.6623150
 137.2529700  97.8862050  81.2786180 140.7316510 113.7397150  94.1663630
 141.6583820 113.5041420  94.2099590 140.7166940 114.5669150  93.6849660
 137.9180120  96.4041900  93.9305510 137.6364390  96.9075500  93.1666330
 138.2999820  95.6063650  93.5647640 136.8089220 113.6717560  78.7173190
 137.5408040 113.3876840  78.1697080 137.0682890 113.4330840  79.6072570
 135.9704010 109.7882290  78.7219520 135.3412890 110.2567390  79.2705350
 136.0851840 108.9431510  79.1565710 144.5195580  95.8195480  94.5085980
 144.4061030  96.1390090  95.4037500 145.3365320  96.2207990  94.2123260
 147.2994070 112.9667010  93.9904670 148.0919390 112.4716240  93.7830630
 147.5927220 113.6457150  94.5980280 143.4253730 103.8387950  64.8720720
 143.3447780 102.9242560  64.6012430 143.0118150 104.3355020  64.1660430
 141.5571770 105.6166970  66.7529990 140.7813870 105.1367410  67.0428560
 142.2084700 104.9372620  66.5786150 135.5737600 105.9286780  67.6305750
 134.7422480 105.6735490  68.0302260 136.1818580 105.9997550  68.3663670
 145.5779200 110.0227160  65.5329120 145.1160730 109.2514400  65.8616290
 146.3904750 110.0493230  66.0381570 135.5538860 109.9626870  67.8263770
 135.8566900 109.0724610  67.6473990 136.2982450 110.5197090  67.5986020
 133.9829550 100.8888670  61.4148140 133.0946250 101.2304640  61.3128020
 134.2670740 100.6888990  60.5228970 141.8042510 112.3085170  65.1533110
 141.1853950 112.7642670  64.5827550 142.6594290 112.4636630  64.7522810
 140.9980760 108.2924160  66.7600150 140.9289040 107.3514100  66.5989280
 141.7600620 108.3825570  67.3322720 133.1887430  98.8978680  69.0856770
 133.0090270  98.0004430  69.3659530 132.7867510  99.4450550  69.7603720
 142.0285930 101.0994540  66.9869080 142.4050750 100.2266420  66.8742750
 141.9305440 101.4353240  66.0959520 136.1590940  99.4720170  62.4486520
 136.2657690 100.3723900  62.7555280 135.2483300  99.4238140  62.1581170
 145.8110050  98.5944980  63.9197420 146.6319670  98.1041550  63.9622900
 145.8444130  99.1842640  64.6729260 133.8074100 101.3939180  67.6939110
 134.4884210 101.6577550  68.3126510 133.4922150 100.5540050  68.0277120
 137.9998670 102.4406540  66.7811700 138.5076890 102.9387510  67.4216720
 138.5311910 101.6641740  66.6051060 136.2834770  97.0805100  71.0475120
 136.2853210  97.5977490  70.2421020 135.4539080  96.6035280  71.0245050
 142.6705860 107.1924410  62.5465020 142.0523130 107.6573860  61.9827740
 143.1829110 107.8851890  62.9634530 137.5337620 106.7200280  69.2248620
 137.2007000 107.3469200  69.8669690 137.7104300 107.2462160  68.4450290
 146.0471530 100.5345360  66.6924960 145.3427100 100.8230250  67.2728070
 146.4083690 101.3445470  66.3324520 135.9650100  98.7915060  69.0545570
 136.3066910  99.6357110  68.7599440 135.0265910  98.9398800  69.1710910
 136.7456720 108.6881080  71.0397800 137.3630720 109.3632160  70.7582250
 135.8849840 109.0969060  70.9485300 132.0389060 107.8780940  59.9204650
 131.6617040 108.3668040  59.1889550 132.2962130 108.5506220  60.5511180
 147.6634310 110.1520490  68.9552440 146.9797830 110.8219600  68.9469110
 148.2028600 110.3501140  68.1897300 139.6477990  96.2797330  65.3790160
 139.9552970  95.7244220  64.6625660 138.7178690  96.4141790  65.1963150
 145.1993050 111.9964620  67.6697620 145.2120210 111.5926910  66.8019880
 144.6468270 112.7711910  67.5659050 146.4938470 108.7180840  62.7587790
 146.3834800 107.7755170  62.8837210 146.4906720 109.0796480  63.6450550
 144.5978490 106.8994460  68.9980230 145.0147280 106.6854570  68.1633690
 145.3218310 107.1567250  69.5688850 142.0358750 104.3446160  62.1150280
 141.1088030 104.2783540  62.3438750 142.1883570 105.2826290  62.0005520
 142.0227830 100.6163160  59.1117440 141.0831500 100.7777120  59.1969900
 142.3411090 101.3348840  58.5653430 146.0656040 105.9066460  62.6185530
 145.4468460 105.5686010  61.9711830 146.0480490 105.2626220  63.3264720
 145.5082600 102.0851000  70.0351340 145.0953780 102.9104710  70.2891330
 144.7758550 101.4996040  69.8427700 137.6415390 104.8710900  64.8970010
 137.2372390 104.1588150  64.4015910 137.7278510 104.5264140  65.7858050
 138.1097090 108.5578460  67.0609220 137.8125380 107.9523930  66.3817000
 139.0596910 108.5955770  66.9498580 136.3544010 101.6454110  68.6769050
 136.9058600 101.7549450  67.9022300 136.8687520 102.0191710  69.3924280
 146.1982700 112.1310330  70.7232320 145.7213260 112.9382520  70.5304930
 145.5144490 111.4788660  70.8758530 137.2015520 108.2960150  73.7117020
 136.3044050 108.5200120  73.9590420 137.2268390 108.4195090  72.7628420
 144.2420740 105.1453270  59.6258280 144.6814020 104.3075700  59.4796100
 144.9549160 105.7782670  59.7122420 136.0286740 105.1673470  72.2874390
 135.8894510 106.0396270  72.6561790 135.1468100 104.8246280  72.1422330
 142.3516120 110.0849340  63.5939520 142.7912030 110.8273670  63.1794910
 142.2903010 110.3275910  64.5178480 137.8267090 111.1095170  74.4959540
 137.7982520 111.5138120  73.6287970 137.6632060 110.1805530  74.3331140
 147.8237880  96.3996080  57.9399320 147.5110540  96.4922910  58.8398390
 148.5850350  96.9777110  57.8896750 134.3420020 103.7655880  62.3976660
 134.2217620 104.4917970  61.7857930 134.0320910 102.9958790  61.9204570
 133.2253020 108.6371210  64.6151480 132.8181100 108.7785800  63.7605080
 134.1166030 108.3531370  64.4122690 143.0431900 112.7863120  71.5218530
 143.5576570 112.6971130  72.3240960 142.2000980 113.1322820  71.8146440
 145.0186300 113.0718460  60.9502530 144.8587440 112.7821400  61.8484360
 144.8533010 112.2958590  60.4147760 137.4974680 112.8516990  62.7274150
 137.3217160 111.9352530  62.5141950 136.6430420 113.2104280  62.9671950
 144.7212430 110.5806020  59.5100530 144.0277590 110.5783310  58.8502810
 145.4635290 110.1565340  59.0794700 144.2862360 112.2068730  63.5849020
 144.7419310 111.4258110  63.8987640 144.6254880 112.9175550  64.1290200
 132.0364910 107.9785190  70.7439760 132.1995950 107.5090550  69.9259130
 132.5017360 107.4708750  71.4088600 136.8083680  97.1090950  65.7800330
 136.3651830  97.8900490  65.4484850 137.3668670  97.4320840  66.4871270
 141.0953490  99.9759470  71.3835650 140.6332860 100.1842490  72.1955590
 140.6931600  99.1618820  71.0806320 146.0958000 101.1968420  72.5132310
 145.2451590 100.8974170  72.8341380 145.9359790 101.4410430  71.6016130
 143.1907710 102.6970170  74.6131100 143.5161120 101.8633920  74.2733330
 143.9788040 103.2198690  74.7609430 139.9242500  96.7301650  60.6606160
 139.2996680  96.7261520  61.3859470 139.8372620  95.8632610  60.2642130
 138.8459580  97.6538280  67.6389930 139.1431910  98.5601110  67.5581950
 139.3945140  97.1657060  67.0249500 136.5997900 102.2324520  63.5081580
 136.3738820 102.0161690  64.4128200 135.8190430 102.6652980  63.1627550
 143.8295660 102.2387890  62.1072230 143.2304550 102.9623690  61.9235850
 144.3775270 102.1764670  61.3248680 139.0397110 103.1310100  74.1741850
 138.9440710 102.1904830  74.0242250 139.8829090 103.3525170  73.7789920
 142.4360530 100.8751430  64.1375510 142.8290100 101.1923630  63.3244200
 142.7977380  99.9963310  64.2520030 134.1707650  99.5423770  72.3275630
 133.7771040 100.3898980  72.5348410 133.4826050  98.9050140  72.5184270
 140.7452700  99.6258740  75.3972370 140.0551020  99.4330940  76.0318460
 141.4885000  99.9093380  75.9296670 131.4724700  97.4652230  66.3605710
 131.1837750  98.0355090  67.0730690 132.2170460  96.9856680  66.7236940
 131.6594930 101.4072350  57.5708430 131.5769600 102.3503110  57.7123420
 131.3077990 101.2647260  56.6920780 143.0215670 103.4657180  68.2326290
 142.2896790 103.9743990  68.5816390 142.6240010 102.6487160  67.9315070
 139.4593060 100.1411380  66.6378780 139.4629120  99.7001330  65.7883320
 140.3544180 100.4628710  66.7450600 135.3095440 100.0237870  65.5972990
 134.9695490 100.5013100  66.3540040 134.5472760  99.5702990  65.2374090
 139.5213210 101.1423460  59.6285540 139.6426030 101.1009940  60.5771360
 139.1361720 102.0047610  59.4732270 143.4841580  98.9190860  67.6449230
 143.5014320  99.3699510  68.4891080 143.2357160  98.0196500  67.8582670
 138.5334710 103.4524600  59.0268840 137.9651610 103.0042850  58.4004750
 139.2423710 103.8117380  58.4933990 146.9112330  96.3323040  73.4835610
 147.2358100  95.6012700  74.0093590 146.9468840  96.0136680  72.5816600
 133.6103890 107.3536620  72.9035570 133.2258680 106.7130290  73.5018530
 133.9216080 108.0572740  73.4730300 139.7601030 104.2013160  68.3844190
 140.1271160 103.7271730  69.1305530 139.5706090 105.0754730  68.7252530
 132.6241520  98.9456850  64.5137660 132.3388440  98.5812520  65.3516280
 132.5620380  98.2137310  63.9000800 137.5500400 103.2421800  70.7028400
 137.2457470 104.1213780  70.9278760 138.5046860 103.3021590  70.7385840
 136.0782190 107.4482790  61.2995250 135.3044450 106.9080410  61.1393970
 136.8076820 106.9289400  60.9613010 146.8370170 106.4448150  67.0921640
 147.5569290 106.9403440  66.7017750 146.6351990 105.7666040  66.4475510
 142.2980110  97.8386110  61.2351030 141.4844720  97.3399280  61.1596340
 142.1042060  98.6784360  60.8187380 142.2188970 106.5157210  72.9790640
 142.1526280 105.5952880  72.7248230 141.5894110 106.6132650  73.6935280
 145.0128500 102.2105760  59.5313190 145.9008120 102.5222990  59.3564530
 144.9833590 101.3378010  59.1393770 136.1219590 107.1163170  64.9374060
 136.6398260 106.3131430  64.8830950 135.6703610 107.0542310  65.7790890
 141.0089090 108.3829450  60.2101360 141.3504790 109.1271680  59.7144680
 140.1801800 108.6960570  60.5726190 133.6064130 104.0824540  71.8499760
 133.2479070 104.7478390  72.4373100 133.3118690 103.2508090  72.2212380
 136.8077250 104.5408780  74.7339310 136.5077390 104.6865960  73.8367130
 137.5788490 103.9814070  74.6412700 142.1505700 109.3377780  72.7294440
 142.1650240 108.4058740  72.5113350 141.4430800 109.4237540  73.3684210
 147.2842770 103.5217600  58.9993050 147.2006490 103.9531820  58.1489490
 148.0036960 103.9815950  59.4319870 148.3130020 110.3759860  61.7275180
 147.6706180 109.7215480  62.0018900 147.9260680 110.7814950  60.9515850
 143.8916500 107.7045290  65.5746870 144.2440320 107.1073420  64.9148240
 143.0078830 107.3789520  65.7455120 139.9779780 108.4642980  62.9817280
 140.6650910 109.0112190  63.3624870 139.1912200 109.0083710  63.0166890
 132.1172180 104.0815800  58.4734360 132.9867030 104.3640600  58.7570280
 131.6262500 104.8951670  58.3583170 139.2806990 105.4689010  62.5942640
 139.7369770 106.2794260  62.8202830 138.9295200 105.1512150  63.4261130
 141.5839600 110.9795350  69.8234940 142.2281820 111.1854730  70.5008360
 141.9469040 110.2183750  69.3705790 135.1818770  95.8126660  63.0665160
 135.0533400  95.8044560  64.0150080 134.3580790  96.1509750  62.7156170
 142.8571680 108.9827700  68.5412390 143.4993910 108.2820860  68.6544560
 143.3821030 109.7626140  68.3609280 146.7027400 109.2676320  58.2651530
 146.4764980 108.5506760  58.8576170 146.3123600 109.0188760  57.4273280
 144.6309300 109.7822600  71.7448450 144.9665540 110.3689290  72.4226370
 143.7109640 109.6515310  71.9746240 132.4843430 113.2943180  59.0395990
 132.8441070 113.8932520  58.3853260 132.3435770 113.8403070  59.8131020
 132.1812700  97.5717780  72.5271860 131.4671220  97.7714700  73.1324470
 132.6007740  96.7957350  72.8986660 146.2843650 107.1848260  59.9265690
 145.9965350 107.6460950  60.7143570 147.0795820 106.7246030  60.1949910
 132.4685290 111.5598040  73.5138390 132.5776410 110.6192780  73.3733780
 131.8165850 111.8252790  72.8652120 140.4597880 109.8313930  74.9136510
 140.1394750 109.1123170  75.4582200 139.7856240 110.5069000  74.9872570
 138.5012050 110.6774380  59.8569660 138.4922150 111.4104070  59.2414170
 137.5810410 110.4305960  59.9496620 134.1018690 105.8989270  60.6016420
 133.4946640 106.6388170  60.6111720 134.5768040 105.9888630  59.7754620
 143.6751480 100.0640090  70.2773310 144.0432300  99.2435300  70.6052880
 142.8149680 100.1241980  70.6928960 147.0413510  99.0197030  61.0860870
 146.4126670  99.1242700  60.3719100 146.5465430  99.2393810  61.8754750
 141.4871650 110.7402620  58.5194850 141.5883630 110.5366610  57.5896830
 140.5873390 110.4860900  58.7242630 139.0097540 101.2982980  62.5018750
 138.3013690 101.7669320  62.9432360 139.2942020 100.6404990  63.1363940
 140.6353470 102.7179680  70.5011280 141.1338720 103.1925500  71.1663130
 140.7776420 101.7943200  70.7081310 143.0412970  98.0233640  63.9414540
 142.9180750  98.0419770  62.9924050 143.9897530  98.0712580  64.0612940
 140.1289760 113.2588940  63.2142520 140.3831260 113.2210330  62.2921890
 139.1802240 113.1322270  63.2070770 137.2132560  99.6068060  59.8769460
 138.0623090 100.0438210  59.8109650 136.8463830  99.9188320  60.7041520
 147.8420330  98.9347640  71.3439670 147.3393930  99.6753040  71.6833480
 148.6576990  99.3231640  71.0276460 146.1342340 104.1780820  64.7901030
 145.1932480 104.1931050  64.9648720 146.4486410 103.3916780  65.2361330
 136.1123980 105.8600420  58.3504990 136.8787250 105.7481780  58.9130420
 136.1898670 105.1638390  57.6981760 134.8070740 103.2925490  59.0337880
 134.8874330 102.3453000  59.1455280 135.6990490 103.6232370  59.1398540
 135.6085450 113.4420880  66.1372420 136.3447930 112.8936340  66.4080990
 135.9926370 114.3076890  65.9978410 132.4930930 109.5094450  62.0113930
 131.5670710 109.7515590  62.0019340 132.9587360 110.3368710  61.8898680
 134.6143730 112.6266950  75.3258000 135.4156460 112.9479000  75.7393400
 134.0995550 112.2662530  76.0477910 138.7187760 112.6151190  57.9597990
 139.5116370 112.9040020  57.5079780 138.1992110 112.1843360  57.2810470
 143.4508360 108.7346820  75.2733410 142.8446520 108.7578420  74.5329160
 143.1462470 108.0029860  75.8100660 144.8808730 112.4627110  73.8842820
 145.8330480 112.3785130  73.8343060 144.7336950 113.1268820  74.5576610
 147.7717930 111.8421320  59.3834730 147.4859440 111.4286460  58.5688910
 147.5737480 112.7709030  59.2635250 132.3341540 105.1140410  74.2694050
 132.8380560 104.5347690  74.8410280 131.5948960 105.3980640  74.8070420
 139.2365160 107.8354600  57.8240340 139.1315800 107.2206950  58.5501720
 139.0689380 107.3120490  57.0403350 139.3879480 106.5211400  73.8029570
 138.6225150 107.0896400  73.7184240 139.5695440 106.2287610  72.9097800
 142.4767890 106.8974630  58.4282330 141.9277990 107.3443930  59.0725070
 143.0987150 106.3923880  58.9520000 146.5302830 108.2516730  74.3604590
 147.2712300 108.5892490  73.8572050 145.7675510 108.4208790  73.8074360
 134.3664620 103.2570000  75.1644120 134.4069960 102.9583870  76.0729350
 135.2210120 103.6577610  75.0051640 138.1443010 105.8565550  60.3247630
 138.5659430 105.6905420  61.1679020 138.2693850 105.0465780  59.8302770
 136.3070430 101.8362100  73.1318610 135.7766890 101.3453050  72.5041950
 136.9758500 102.2646300  72.5976540 140.6570650 104.8803160  57.5724730
 141.1776310 104.1652180  57.2065880 141.3039050 105.5189030  57.8725240
 145.2048490 106.3031560  72.8959800 145.6189510 106.4576640  73.7450220
 144.2699490 106.4286780  73.0585580 145.6770660 103.6427720  74.8998950
 146.2591430 102.8880040  74.8119430 145.8532430 104.1735160  74.1230430
 136.7942730  98.8024470  73.2115900 136.6999600  98.1845220  72.4866770
 136.2140120  99.5290760  72.9845810 139.5604170  97.3597710  70.2443290
 139.1121470  97.3821970  69.3988840 138.9269370  96.9616730  70.8413590
 139.9663720 106.2552040  70.8655730 140.3851830 107.0984770  70.6931970
 139.0472350 106.3924080  70.6362510 142.3027620 103.9868220  72.2493570
 142.4223830 103.3909360  72.9888410 143.1621620 104.0237910  71.8294870
 144.6415520 104.5405410  70.8256080 144.1150740 105.0648030  70.2221220
 144.9846860 105.1732800  71.4565810 137.0401910 101.9298780  57.2705790
 136.8390970 101.0666140  57.6319130 136.8693960 101.8432140  56.3327390
 137.8171140 112.5605050  71.9813460 137.2792230 113.2851110  71.6622160
 138.0705100 112.0835390  71.1910800 139.0696390 100.5289570  73.5069390
 139.6596080 100.2205420  74.1947210 138.2516630 100.0569320  73.6629290
 143.8889820 100.1455380  73.7402410 143.2005340  99.4836920  73.6752400
 144.6095840  99.6993650  74.1850870 144.5190220  96.7407010  59.7992670
 144.7992510  95.8974910  60.1552090 143.7455950  96.9730120  60.3131420
 135.8384710  99.0299400  57.2583670 136.1410610  99.0366830  56.3502820
 136.5779300  98.6797260  57.7551330 140.6733350 113.7956260  72.2400110
 140.5992050 114.6991400  72.5472480 139.7712190 113.4768160  72.2122180
 139.0569640  97.9734020  58.2439870 138.7091640  97.2958010  57.6642320
 139.2582410  97.5123530  59.0583260 141.2218680 112.9614770  59.8626470
 142.1169470 113.2999740  59.8845230 141.2536310 112.2394180  59.2350750
 134.8614840 108.3341820  58.0913470 135.2989710 108.8771490  58.7471050
 135.3462570 107.5088770  58.1009810 132.0760640 111.1230850  65.5433730
 132.4063650 110.2551910  65.3112370 132.5051640 111.3289370  66.3738690
 136.6722560 109.4539860  63.2035700 136.3718100 109.3304830  64.1039610
 136.5660050 108.5948450  62.7951430 132.5650850 111.9901440  68.2815360
 132.1281840 112.1702240  69.1139510 133.1328530 112.7476060  68.1397080
 148.2013030 111.4918440  72.5692670 147.6015020 111.5511000  71.8256590
 148.3306930 110.5523420  72.6989520 132.3975280 104.5021670  64.6404240
 131.7424120 104.2333310  63.9963940 133.2353230 104.3926150  64.1906220
 146.8864670 108.2170420  70.6668830 146.0724510 108.6467580  70.9294620
 147.2938870 108.8288830  70.0537880 145.3465720  99.2962960  58.8622730
 145.7650600  99.1093940  58.0219390 145.0401780  98.4442010  59.1725660
 133.4351210 104.8874240  69.1807580 133.8024250 104.8001640  70.0603600
 132.8662030 104.1240790  69.0814440 148.2355070 103.3558620  72.1938050
 148.0041160 103.1271370  71.2936000 148.4959620 104.2758170  72.1482940
 132.9867210 101.7983330  73.0866000 132.0923260 101.7650090  73.4259710
 133.5264760 101.9970120  73.8517250 146.6743140  98.5815050  74.9717750
 147.5513320  98.5898450  75.3551750 146.6863980  97.8445890  74.3610100
 131.6113360 101.7120600  60.5829570 130.7077440 101.9750800  60.4081230
 132.0953980 101.9831770  59.8029530 148.2996130 102.5184460  69.3825320
 147.3498840 102.4848000  69.4970310 148.4809140 103.4284570  69.1475090
 134.1540570 100.7686140  58.4923950 134.8632270 100.3469360  58.0071230
 133.4380510 100.8361370  57.8607300 133.8014730  96.8225470  57.5326600
 134.5242860  97.3634410  57.8507820 134.0739250  96.5488890  56.6568140
 147.6106380 101.6917940  61.7998180 148.1065500 101.4588810  62.5847060
 147.4122450 100.8529780  61.3835820 133.4906920  96.0731660  67.4349220
 134.1383110  95.5229040  66.9944380 133.9108760  96.3274810  68.2565030
 147.3859260  96.2673020  70.7918860 148.0231480  96.8807160  71.1578050
 147.5334150  96.3033680  69.8468090 146.9440720 112.9689020  64.1937100
 147.5399790 112.6473590  63.5171520 147.2018870 112.4960840  64.9850370
 133.2438920  96.2287330  70.1774540 132.8953740  96.6851150  70.9432720
 132.9126620  95.3344460  70.2596970 134.8503290 109.4006930  74.3427730
 134.8072920 109.0299840  75.2242190 134.9814300 110.3384500  74.4829550
 138.5509320 110.9566520  69.9437450 138.3100680 111.2241080  69.0567970
 139.4911960 111.1272250  69.9988310 140.7563740  97.4199210  73.6993960
 140.6952630  98.0121040  74.4489370 141.6964120  97.3125170  73.5544220
 143.3938300  97.0769270  73.3386250 144.0078710  97.3948560  72.6767330
 143.9387860  96.5917860  73.9582110 133.9159560  95.7563530  73.4525310
 134.4642550  95.5751580  72.6891420 133.9814870  94.9657640  73.9881620
 134.6891320 112.3469180  71.4625510 134.0951640 112.2153880  72.2015550
 134.6815160 111.5107320  70.9967610 144.1346340  95.6401410  69.6655540
 143.2606180  95.9736520  69.4628470 144.0257090  95.1674590  70.4907410
 145.0418320  97.8472280  71.0497260 144.7131680  97.0324040  70.6698990
 145.9900620  97.8042090  70.9262950 147.4952930 113.6184320  68.0234830
 147.0355900 114.3700130  67.6492850 146.8665390 112.8990790  67.9649630
 134.3203550 109.7127560  70.4133550 133.5937610 109.0932850  70.3459500
 134.3812700 110.1068170  69.5431630 137.9248650 111.9272560  67.1982960
 138.4413670 111.3159920  66.6731220 138.5746030 112.4301340  67.6893970
 140.6644150 112.8181050  68.0251940 140.9521960 112.5635350  67.1484950
 141.1767370 112.2658410  68.6157510 141.8821160  96.5571250  68.6048450
 141.0992950  97.0316750  68.8845210 141.5884090  95.6526080  68.4961630
 146.4342230  97.2594350  66.6497540 146.8750320  97.2039450  65.8019140
 146.1649820  98.1752360  66.7207720 132.6033550 113.0301950  63.6230310
 132.4355590 112.3972630  64.3212200 131.7368060 113.2361350  63.2724500
 133.2261570  96.8618730  61.1262170 133.9840930  96.9747610  60.5526200
 132.7638740  97.6987930  61.0805600 139.7675380  98.9758000  64.1164480
 138.9549890  98.6014890  63.7760360 140.2717020  98.2203080  64.4185670
 144.2700360  95.6400450  65.3547550 144.8729730  96.2120660  65.8296070
 143.5293350  96.2039890  65.1321450 147.4134960  96.0422010  60.6287830
 147.6085590  96.9405460  60.8955260 146.6264830  95.8109090  61.1220780
 134.2096250 111.7235180  61.0680450 133.6843870 112.1043210  60.3642410
 134.1340830 112.3485950  61.7890160 135.5986720  97.3882780  59.6664140
 136.1279480  96.6012580  59.5372090 136.2315040  98.0673970  59.8999670
 137.7924560  97.1257920  62.7209530 137.1627300  96.4245230  62.8879660
 137.2529700  97.8862050  62.5042690 140.7316510 113.7397150  75.3920140
 141.6583820 113.5041420  75.4356100 140.7166940 114.5669150  74.9106170
 137.9180120  96.4041900  75.1562020 137.6364390  96.9075500  74.3922840
 138.2999820  95.6063650  74.7904150 136.8089220 113.6717560  59.9429700
 137.5408040 113.3876840  59.3953590 137.0682890 113.4330840  60.8329080
 135.9704010 109.7882290  59.9476030 135.3412890 110.2567390  60.4961860
 136.0851840 108.9431510  60.3822220 144.5195580  95.8195480  75.7342490
 144.4061030  96.1390090  76.6294010 145.3365320  96.2207990  75.4379770
 147.2994070 112.9667010  75.2161180 148.0919390 112.4716240  75.0087140
 147.5927220 113.6457150  75.8236790 143.4253730 103.8387950  46.0977230
 143.3447780 102.9242560  45.8268940 143.0118150 104.3355020  45.3916940
 141.5571770 105.6166970  47.9786500 140.7813870 105.1367410  48.2685070
 142.2084700 104.9372620  47.8042660 135.5737600 105.9286780  48.8562260
 134.7422480 105.6735490  49.2558770 136.1818580 105.9997550  49.5920180
 145.5779200 110.0227160  46.7585630 145.1160730 109.2514400  47.0872800
 146.3904750 110.0493230  47.2638080 135.5538860 109.9626870  49.0520280
 135.8566900 109.0724610  48.8730500 136.2982450 110.5197090  48.8242530
 133.9829550 100.8888670  42.6404650 133.0946250 101.2304640  42.5384530
 134.2670740 100.6888990  41.7485480 131.9462560 103.4894320  48.5244350
 132.5178670 102.7216520  48.5247990 131.9464100 103.7883080  47.6150960
 141.8042510 112.3085170  46.3789620 141.1853950 112.7642670  45.8084060
 142.6594290 112.4636630  45.9779320 140.9980760 108.2924160  47.9856660
 140.9289040 107.3514100  47.8245790 141.7600620 108.3825570  48.5579230
 133.1887430  98.8978680  50.3113280 133.0090270  98.0004430  50.5916040
 132.7867510  99.4450550  50.9860230 142.0285930 101.0994540  48.2125590
 142.4050750 100.2266420  48.0999260 141.9305440 101.4353240  47.3216030
 136.1590940  99.4720170  43.6743030 136.2657690 100.3723900  43.9811790
 135.2483300  99.4238140  43.3837680 145.8110050  98.5944980  45.1453930
 146.6319670  98.1041550  45.1879410 145.8444130  99.1842640  45.8985770
 133.8074100 101.3939180  48.9195620 134.4884210 101.6577550  49.5383020
 133.4922150 100.5540050  49.2533630 137.9998670 102.4406540  48.0068210
 138.5076890 102.9387510  48.6473230 138.5311910 101.6641740  47.8307570
 136.2834770  97.0805100  52.2731630 136.2853210  97.5977490  51.4677530
 135.4539080  96.6035280  52.2501560 142.6705860 107.1924410  43.7721530
 142.0523130 107.6573860  43.2084250 143.1829110 107.8851890  44.1891040
 137.5337620 106.7200280  50.4505130 137.2007000 107.3469200  51.0926200
 137.7104300 107.2462160  49.6706800 146.0471530 100.5345360  47.9181470
 145.3427100 100.8230250  48.4984580 146.4083690 101.3445470  47.5581030
 135.9650100  98.7915060  50.2802080 136.3066910  99.6357110  49.9855950
 135.0265910  98.9398800  50.3967420 136.7456720 108.6881080  52.2654310
 137.3630720 109.3632160  51.9838760 135.8849840 109.0969060  52.1741810
 132.0389060 107.8780940  41.1461160 131.6617040 108.3668040  40.4146060
 132.2962130 108.5506220  41.7767690 147.6634310 110.1520490  50.1808950
 146.9797830 110.8219600  50.1725620 148.2028600 110.3501140  49.4153810
 139.6477990  96.2797330  46.6046670 139.9552970  95.7244220  45.8882170
 138.7178690  96.4141790  46.4219660 145.1993050 111.9964620  48.8954130
 145.2120210 111.5926910  48.0276390 144.6468270 112.7711910  48.7915560
 146.4938470 108.7180840  43.9844300 146.3834800 107.7755170  44.1093720
 146.4906720 109.0796480  44.8707060 144.5978490 106.8994460  50.2236740
 145.0147280 106.6854570  49.3890200 145.3218310 107.1567250  50.7945360
 142.0358750 104.3446160  43.3406790 141.1088030 104.2783540  43.5695260
 142.1883570 105.2826290  43.2262030 142.0227830 100.6163160  40.3373950
 141.0831500 100.7777120  40.4226410 142.3411090 101.3348840  39.7909940
 146.0656040 105.9066460  43.8442040 145.4468460 105.5686010  43.1968340
 146.0480490 105.2626220  44.5521230 145.5082600 102.0851000  51.2607850
 145.0953780 102.9104710  51.5147840 144.7758550 101.4996040  51.0684210
 137.6415390 104.8710900  46.1226520 137.2372390 104.1588150  45.6272420
 137.7278510 104.5264140  47.0114560 138.1097090 108.5578460  48.2865730
 137.8125380 107.9523930  47.6073510 139.0596910 108.5955770  48.1755090
 136.3544010 101.6454110  49.9025560 136.9058600 101.7549450  49.1278810
 136.8687520 102.0191710  50.6180790 146.1982700 112.1310330  51.9488830
 145.7213260 112.9382520  51.7561440 145.5144490 111.4788660  52.1015040
 137.2015520 108.2960150  54.9373530 136.3044050 108.5200120  55.1846930
 137.2268390 108.4195090  53.9884930 144.2420740 105.1453270  40.8514790
 144.6814020 104.3075700  40.7052610 144.9549160 105.7782670  40.9378930
 136.0286740 105.1673470  53.5130900 135.8894510 106.0396270  53.8818300
 135.1468100 104.8246280  53.3678840 142.3516120 110.0849340  44.8196030
 142.7912030 110.8273670  44.4051420 142.2903010 110.3275910  45.7434990
 137.8267090 111.1095170  55.7216050 137.7982520 111.5138120  54.8544480
 137.6632060 110.1805530  55.5587650 147.8237880  96.3996080  39.1655830
 147.5110540  96.4922910  40.0654900 148.5850350  96.9777110  39.1153260
 134.3420020 103.7655880  43.6233170 134.2217620 104.4917970  43.0114440
 134.0320910 102.9958790  43.1461080 131.9805390 106.9371020  49.4301810
 132.0585810 107.0719790  48.4857530 132.5947070 106.2286910  49.6229930
 133.2253020 108.6371210  45.8407990 132.8181100 108.7785800  44.9861590
 134.1166030 108.3531370  45.6379200 143.0431900 112.7863120  52.7475040
 143.5576570 112.6971130  53.5497470 142.2000980 113.1322820  53.0402950
 145.0186300 113.0718460  42.1759040 144.8587440 112.7821400  43.0740870
 144.8533010 112.2958590  41.6404270 137.4974680 112.8516990  43.9530660
 137.3217160 111.9352530  43.7398460 136.6430420 113.2104280  44.1928460
 144.7212430 110.5806020  40.7357040 144.0277590 110.5783310  40.0759320
 145.4635290 110.1565340  40.3051210 144.2862360 112.2068730  44.8105530
 144.7419310 111.4258110  45.1244150 144.6254880 112.9175550  45.3546710
 132.0364910 107.9785190  51.9696270 132.1995950 107.5090550  51.1515640
 132.5017360 107.4708750  52.6345110 136.8083680  97.1090950  47.0056840
 136.3651830  97.8900490  46.6741360 137.3668670  97.4320840  47.7127780
 141.0953490  99.9759470  52.6092160 140.6332860 100.1842490  53.4212100
 140.6931600  99.1618820  52.3062830 146.0958000 101.1968420  53.7388820
 145.2451590 100.8974170  54.0597890 145.9359790 101.4410430  52.8272640
 143.1907710 102.6970170  55.8387610 143.5161120 101.8633920  55.4989840
 143.9788040 103.2198690  55.9865940 139.9242500  96.7301650  41.8862670
 139.2996680  96.7261520  42.6115980 139.8372620  95.8632610  41.4898640
 138.8459580  97.6538280  48.8646440 139.1431910  98.5601110  48.7838460
 139.3945140  97.1657060  48.2506010 136.5997900 102.2324520  44.7338090
 136.3738820 102.0161690  45.6384710 135.8190430 102.6652980  44.3884060
 143.8295660 102.2387890  43.3328740 143.2304550 102.9623690  43.1492360
 144.3775270 102.1764670  42.5505190 139.0397110 103.1310100  55.3998360
 138.9440710 102.1904830  55.2498760 139.8829090 103.3525170  55.0046430
 142.4360530 100.8751430  45.3632020 142.8290100 101.1923630  44.5500710
 142.7977380  99.9963310  45.4776540 134.1707650  99.5423770  53.5532140
 133.7771040 100.3898980  53.7604920 133.4826050  98.9050140  53.7440780
 140.7452700  99.6258740  56.6228880 140.0551020  99.4330940  57.2574970
 141.4885000  99.9093380  57.1553180 131.4724700  97.4652230  47.5862220
 131.1837750  98.0355090  48.2987200 132.2170460  96.9856680  47.9493450
 131.6594930 101.4072350  38.7964940 131.5769600 102.3503110  38.9379930
 131.3077990 101.2647260  37.9177290 143.0215670 103.4657180  49.4582800
 142.2896790 103.9743990  49.8072900 142.6240010 102.6487160  49.1571580
 139.4593060 100.1411380  47.8635290 139.4629120  99.7001330  47.0139830
 140.3544180 100.4628710  47.9707110 135.3095440 100.0237870  46.8229500
 134.9695490 100.5013100  47.5796550 134.5472760  99.5702990  46.4630600
 139.5213210 101.1423460  40.8542050 139.6426030 101.1009940  41.8027870
 139.1361720 102.0047610  40.6988780 143.4841580  98.9190860  48.8705740
 143.5014320  99.3699510  49.7147590 143.2357160  98.0196500  49.0839180
 138.5334710 103.4524600  40.2525350 137.9651610 103.0042850  39.6261260
 139.2423710 103.8117380  39.7190500 146.9112330  96.3323040  54.7092120
 147.2358100  95.6012700  55.2350100 146.9468840  96.0136680  53.8073110
 133.6103890 107.3536620  54.1292080 133.2258680 106.7130290  54.7275040
 133.9216080 108.0572740  54.6986810 139.7601030 104.2013160  49.6100700
 140.1271160 103.7271730  50.3562040 139.5706090 105.0754730  49.9509040
 132.6241520  98.9456850  45.7394170 132.3388440  98.5812520  46.5772790
 132.5620380  98.2137310  45.1257310 137.5500400 103.2421800  51.9284910
 137.2457470 104.1213780  52.1535270 138.5046860 103.3021590  51.9642350
 136.0782190 107.4482790  42.5251760 135.3044450 106.9080410  42.3650480
 136.8076820 106.9289400  42.1869520 146.8370170 106.4448150  48.3178150
 147.5569290 106.9403440  47.9274260 146.6351990 105.7666040  47.6732020
 142.2980110  97.8386110  42.4607540 141.4844720  97.3399280  42.3852850
 142.1042060  98.6784360  42.0443890 142.2188970 106.5157210  54.2047150
 142.1526280 105.5952880  53.9504740 141.5894110 106.6132650  54.9191790
 145.0128500 102.2105760  40.7569700 145.9008120 102.5222990  40.5821040
 144.9833590 101.3378010  40.3650280 136.1219590 107.1163170  46.1630570
 136.6398260 106.3131430  46.1087460 135.6703610 107.0542310  47.0047400
 141.0089090 108.3829450  41.4357870 141.3504790 109.1271680  40.9401190
 140.1801800 108.6960570  41.7982700 133.6064130 104.0824540  53.0756270
 133.2479070 104.7478390  53.6629610 133.3118690 103.2508090  53.4468890
 136.8077250 104.5408780  55.9595820 136.5077390 104.6865960  55.0623640
 137.5788490 103.9814070  55.8669210 142.1505700 109.3377780  53.9550950
 142.1650240 108.4058740  53.7369860 141.4430800 109.4237540  54.5940720
 147.2842770 103.5217600  40.2249560 147.2006490 103.9531820  39.3746000
 148.0036960 103.9815950  40.6576380 148.3130020 110.3759860  42.9531690
 147.6706180 109.7215480  43.2275410 147.9260680 110.7814950  42.1772360
 143.8916500 107.7045290  46.8003380 144.2440320 107.1073420  46.1404750
 143.0078830 107.3789520  46.9711630 139.9779780 108.4642980  44.2073790
 140.6650910 109.0112190  44.5881380 139.1912200 109.0083710  44.2423400
 132.1172180 104.0815800  39.6990870 132.9867030 104.3640600  39.9826790
 131.6262500 104.8951670  39.5839680 139.2806990 105.4689010  43.8199150
 139.7369770 106.2794260  44.0459340 138.9295200 105.1512150  44.6517640
 141.5839600 110.9795350  51.0491450 142.2281820 111.1854730  51.7264870
 141.9469040 110.2183750  50.5962300 135.1818770  95.8126660  44.2921670
 135.0533400  95.8044560  45.2406590 134.3580790  96.1509750  43.9412680
 142.8571680 108.9827700  49.7668900 143.4993910 108.2820860  49.8801070
 143.3821030 109.7626140  49.5865790 146.7027400 109.2676320  39.4908040
 146.4764980 108.5506760  40.0832680 146.3123600 109.0188760  38.6529790
 144.6309300 109.7822600  52.9704960 144.9665540 110.3689290  53.6482880
 143.7109640 109.6515310  53.2002750 132.4843430 113.2943180  40.2652500
 132.8441070 113.8932520  39.6109770 132.3435770 113.8403070  41.0387530
 146.2843650 107.1848260  41.1522200 145.9965350 107.6460950  41.9400080
 147.0795820 106.7246030  41.4206420 132.4685290 111.5598040  54.7394900
 132.5776410 110.6192780  54.5990290 131.8165850 111.8252790  54.0908630
 140.4597880 109.8313930  56.1393020 140.1394750 109.1123170  56.6838710
 139.7856240 110.5069000  56.2129080 138.5012050 110.6774380  41.0826170
 138.4922150 111.4104070  40.4670680 137.5810410 110.4305960  41.1753130
 134.1018690 105.8989270  41.8272930 133.4946640 106.6388170  41.8368230
 134.5768040 105.9888630  41.0011130 143.6751480 100.0640090  51.5029820
 144.0432300  99.2435300  51.8309390 142.8149680 100.1241980  51.9185470
 147.0413510  99.0197030  42.3117380 146.4126670  99.1242700  41.5975610
 146.5465430  99.2393810  43.1011260 141.4871650 110.7402620  39.7451360
 141.5883630 110.5366610  38.8153340 140.5873390 110.4860900  39.9499140
 139.0097540 101.2982980  43.7275260 138.3013690 101.7669320  44.1688870
 139.2942020 100.6404990  44.3620450 140.6353470 102.7179680  51.7267790
 141.1338720 103.1925500  52.3919640 140.7776420 101.7943200  51.9337820
 143.0412970  98.0233640  45.1671050 142.9180750  98.0419770  44.2180560
 143.9897530  98.0712580  45.2869450 140.1289760 113.2588940  44.4399030
 140.3831260 113.2210330  43.5178400 139.1802240 113.1322270  44.4327280
 137.2132560  99.6068060  41.1025970 138.0623090 100.0438210  41.0366160
 136.8463830  99.9188320  41.9298030 147.8420330  98.9347640  52.5696180
 147.3393930  99.6753040  52.9089990 148.6576990  99.3231640  52.2532970
 146.1342340 104.1780820  46.0157540 145.1932480 104.1931050  46.1905230
 146.4486410 103.3916780  46.4617840 136.1123980 105.8600420  39.5761500
 136.8787250 105.7481780  40.1386930 136.1898670 105.1638390  38.9238270
 134.8070740 103.2925490  40.2594390 134.8874330 102.3453000  40.3711790
 135.6990490 103.6232370  40.3655050 135.6085450 113.4420880  47.3628930
 136.3447930 112.8936340  47.6337500 135.9926370 114.3076890  47.2234920
 132.4930930 109.5094450  43.2370440 131.5670710 109.7515590  43.2275850
 132.9587360 110.3368710  43.1155190 134.6143730 112.6266950  56.5514510
 135.4156460 112.9479000  56.9649910 134.0995550 112.2662530  57.2734420
 138.7187760 112.6151190  39.1854500 139.5116370 112.9040020  38.7336290
 138.1992110 112.1843360  38.5066980 143.4508360 108.7346820  56.4989920
 142.8446520 108.7578420  55.7585670 143.1462470 108.0029860  57.0357170
 144.8808730 112.4627110  55.1099330 145.8330480 112.3785130  55.0599570
 144.7336950 113.1268820  55.7833120 147.7717930 111.8421320  40.6091240
 147.4859440 111.4286460  39.7945420 147.5737480 112.7709030  40.4891760
 132.3341540 105.1140410  55.4950560 132.8380560 104.5347690  56.0666790
 131.5948960 105.3980640  56.0326930 139.2365160 107.8354600  39.0496850
 139.1315800 107.2206950  39.7758230 139.0689380 107.3120490  38.2659860
 139.3879480 106.5211400  55.0286080 138.6225150 107.0896400  54.9440750
 139.5695440 106.2287610  54.1354310 142.4767890 106.8974630  39.6538840
 141.9277990 107.3443930  40.2981580 143.0987150 106.3923880  40.1776510
 146.5302830 108.2516730  55.5861100 147.2712300 108.5892490  55.0828560
 145.7675510 108.4208790  55.0330870 134.3664620 103.2570000  56.3900630
 134.4069960 102.9583870  57.2985860 135.2210120 103.6577610  56.2308150
 138.1443010 105.8565550  41.5504140 138.5659430 105.6905420  42.3935530
 138.2693850 105.0465780  41.0559280 136.3070430 101.8362100  54.3575120
 135.7766890 101.3453050  53.7298460 136.9758500 102.2646300  53.8233050
 140.6570650 104.8803160  38.7981240 141.1776310 104.1652180  38.4322390
 141.3039050 105.5189030  39.0981750 145.2048490 106.3031560  54.1216310
 145.6189510 106.4576640  54.9706730 144.2699490 106.4286780  54.2842090
 145.6770660 103.6427720  56.1255460 146.2591430 102.8880040  56.0375940
 145.8532430 104.1735160  55.3486940 136.7942730  98.8024470  54.4372410
 136.6999600  98.1845220  53.7123280 136.2140120  99.5290760  54.2102320
 139.5604170  97.3597710  51.4699800 139.1121470  97.3821970  50.6245350
 138.9269370  96.9616730  52.0670100 139.9663720 106.2552040  52.0912240
 140.3851830 107.0984770  51.9188480 139.0472350 106.3924080  51.8619020
 142.3027620 103.9868220  53.4750080 142.4223830 103.3909360  54.2144920
 143.1621620 104.0237910  53.0551380 144.6415520 104.5405410  52.0512590
 144.1150740 105.0648030  51.4477730 144.9846860 105.1732800  52.6822320
 137.0401910 101.9298780  38.4962300 136.8390970 101.0666140  38.8575640
 136.8693960 101.8432140  37.5583900 137.8171140 112.5605050  53.2069970
 137.2792230 113.2851110  52.8878670 138.0705100 112.0835390  52.4167310
 139.0696390 100.5289570  54.7325900 139.6596080 100.2205420  55.4203720
 138.2516630 100.0569320  54.8885800 143.8889820 100.1455380  54.9658920
 143.2005340  99.4836920  54.9008910 144.6095840  99.6993650  55.4107380
 144.5190220  96.7407010  41.0249180 144.7992510  95.8974910  41.3808600
 143.7455950  96.9730120  41.5387930 135.8384710  99.0299400  38.4840180
 136.1410610  99.0366830  37.5759330 136.5779300  98.6797260  38.9807840
 140.6733350 113.7956260  53.4656620 140.5992050 114.6991400  53.7728990
 139.7712190 113.4768160  53.4378690 139.0569640  97.9734020  39.4696380
 138.7091640  97.2958010  38.8898830 139.2582410  97.5123530  40.2839770
 141.2218680 112.9614770  41.0882980 142.1169470 113.2999740  41.1101740
 141.2536310 112.2394180  40.4607260 134.8614840 108.3341820  39.3169980
 135.2989710 108.8771490  39.9727560 135.3462570 107.5088770  39.3266320
 132.0760640 111.1230850  46.7690240 132.4063650 110.2551910  46.5368880
 132.5051640 111.3289370  47.5995200 136.6722560 109.4539860  44.4292210
 136.3718100 109.3304830  45.3296120 136.5660050 108.5948450  44.0207940
 132.5650850 111.9901440  49.5071870 132.1281840 112.1702240  50.3396020
 133.1328530 112.7476060  49.3653590 148.2013030 111.4918440  53.7949180
 147.6015020 111.5511000  53.0513100 148.3306930 110.5523420  53.9246030
 132.3975280 104.5021670  45.8660750 131.7424120 104.2333310  45.2220450
 133.2353230 104.3926150  45.4162730 146.8864670 108.2170420  51.8925340
 146.0724510 108.6467580  52.1551130 147.2938870 108.8288830  51.2794390
 145.3465720  99.2962960  40.0879240 145.7650600  99.1093940  39.2475900
 145.0401780  98.4442010  40.3982170 133.4351210 104.8874240  50.4064090
 133.8024250 104.8001640  51.2860110 132.8662030 104.1240790  50.3070950
 148.2355070 103.3558620  53.4194560 148.0041160 103.1271370  52.5192510
 148.4959620 104.2758170  53.3739450 132.9867210 101.7983330  54.3122510
 132.0923260 101.7650090  54.6516220 133.5264760 101.9970120  55.0773760
 146.6743140  98.5815050  56.1974260 147.5513320  98.5898450  56.5808260
 146.6863980  97.8445890  55.5866610 131.6113360 101.7120600  41.8086080
 130.7077440 101.9750800  41.6337740 132.0953980 101.9831770  41.0286040
 148.2996130 102.5184460  50.6081830 147.3498840 102.4848000  50.7226820
 148.4809140 103.4284570  50.3731600 134.1540570 100.7686140  39.7180460
 134.8632270 100.3469360  39.2327740 133.4380510 100.8361370  39.0863810
 133.8014730  96.8225470  38.7583110 134.5242860  97.3634410  39.0764330
 134.0739250  96.5488890  37.8824650 147.6106380 101.6917940  43.0254690
 148.1065500 101.4588810  43.8103570 147.4122450 100.8529780  42.6092330
 133.4906920  96.0731660  48.6605730 134.1383110  95.5229040  48.2200890
 133.9108760  96.3274810  49.4821540 147.3859260  96.2673020  52.0175370
 148.0231480  96.8807160  52.3834560 147.5334150  96.3033680  51.0724600
 146.9440720 112.9689020  45.4193610 147.5399790 112.6473590  44.7428030
 147.2018870 112.4960840  46.2106880 133.2438920  96.2287330  51.4031050
 132.8953740  96.6851150  52.1689230 132.9126620  95.3344460  51.4853480
 134.8503290 109.4006930  55.5684240 134.8072920 109.0299840  56.4498700
 134.9814300 110.3384500  55.7086060 138.5509320 110.9566520  51.1693960
 138.3100680 111.2241080  50.2824480 139.4911960 111.1272250  51.2244820
 140.7563740  97.4199210  54.9250470 140.6952630  98.0121040  55.6745880
 141.6964120  97.3125170  54.7800730 143.3938300  97.0769270  54.5642760
 144.0078710  97.3948560  53.9023840 143.9387860  96.5917860  55.1838620
 133.9159560  95.7563530  54.6781820 134.4642550  95.5751580  53.9147930
 133.9814870  94.9657640  55.2138130 134.6891320 112.3469180  52.6882020
 134.0951640 112.2153880  53.4272060 134.6815160 111.5107320  52.2224120
 144.1346340  95.6401410  50.8912050 143.2606180  95.9736520  50.6884980
 144.0257090  95.1674590  51.7163920 145.0418320  97.8472280  52.2753770
 144.7131680  97.0324040  51.8955500 145.9900620  97.8042090  52.1519460
 147.4952930 113.6184320  49.2491340 147.0355900 114.3700130  48.8749360
 146.8665390 112.8990790  49.1906140 134.3203550 109.7127560  51.6390060
 133.5937610 109.0932850  51.5716010 134.3812700 110.1068170  50.7688140
 137.9248650 111.9272560  48.4239470 138.4413670 111.3159920  47.8987730
 138.5746030 112.4301340  48.9150480 140.6644150 112.8181050  49.2508450
 140.9521960 112.5635350  48.3741460 141.1767370 112.2658410  49.8414020
 141.8821160  96.5571250  49.8304960 141.0992950  97.0316750  50.1101720
 141.5884090  95.6526080  49.7218140 146.4342230  97.2594350  47.8754050
 146.8750320  97.2039450  47.0275650 146.1649820  98.1752360  47.9464230
 132.6033550 113.0301950  44.8486820 132.4355590 112.3972630  45.5468710
 131.7368060 113.2361350  44.4981010 133.2261570  96.8618730  42.3518680
 133.9840930  96.9747610  41.7782710 132.7638740  97.6987930  42.3062110
 139.7675380  98.9758000  45.3420990 138.9549890  98.6014890  45.0016870
 140.2717020  98.2203080  45.6442180 144.2700360  95.6400450  46.5804060
 144.8729730  96.2120660  47.0552580 143.5293350  96.2039890  46.3577960
 147.4134960  96.0422010  41.8544340 147.6085590  96.9405460  42.1211770
 146.6264830  95.8109090  42.3477290 134.2096250 111.7235180  42.2936960
 133.6843870 112.1043210  41.5898920 134.1340830 112.3485950  43.0146670
 135.5986720  97.3882780  40.8920650 136.1279480  96.6012580  40.7628600
 136.2315040  98.0673970  41.1256180 137.7924560  97.1257920  43.9466040
 137.1627300  96.4245230  44.1136170 137.2529700  97.8862050  43.7299200
 140.7316510 113.7397150  56.6176650 141.6583820 113.5041420  56.6612610
 140.7166940 114.5669150  56.1362680 137.9180120  96.4041900  56.3818530
 137.6364390  96.9075500  55.6179350 138.2999820  95.6063650  56.0160660
 136.8089220 113.6717560  41.1686210 137.5408040 113.3876840  40.6210100
 137.0682890 113.4330840  42.0585590 135.9704010 109.7882290  41.1732540
 135.3412890 110.2567390  41.7218370 136.0851840 108.9431510  41.6078730
 144.5195580  95.8195480  56.9599000 144.4061030  96.1390090  57.8550520
 145.3365320  96.2207990  56.6636280 147.2994070 112.9667010  56.4417690
 148.0919390 112.4716240  56.2343650 147.5927220 113.6457150  57.0493300
 143.4253730 103.8387950  27.3233740 143.3447780 102.9242560  27.0525450
 143.0118150 104.3355020  26.6173450 141.5571770 105.6166970  29.2043010
 140.7813870 105.1367410  29.4941580 142.2084700 104.9372620  29.0299170
 135.5737600 105.9286780  30.0818770 134.7422480 105.6735490  30.4815280
 136.1818580 105.9997550  30.8176690 145.5779200 110.0227160  27.9842140
 145.1160730 109.2514400  28.3129310 146.3904750 110.0493230  28.4894590
 135.5538860 109.9626870  30.2776790 135.8566900 109.0724610  30.0987010
 136.2982450 110.5197090  30.0499040 133.9829550 100.8888670  23.8661160
 133.0946250 101.2304640  23.7641040 134.2670740 100.6888990  22.9741990
 131.9462560 103.4894320  29.7500860 132.5178670 102.7216520  29.7504500
 131.9464100 103.7883080  28.8407470 141.8042510 112.3085170  27.6046130
 141.1853950 112.7642670  27.0340570 142.6594290 112.4636630  27.2035830
 140.9980760 108.2924160  29.2113170 140.9289040 107.3514100  29.0502300
 141.7600620 108.3825570  29.7835740 133.1887430  98.8978680  31.5369790
 133.0090270  98.0004430  31.8172550 132.7867510  99.4450550  32.2116740
 142.0285930 101.0994540  29.4382100 142.4050750 100.2266420  29.3255770
 141.9305440 101.4353240  28.5472540 136.1590940  99.4720170  24.8999540
 136.2657690 100.3723900  25.2068300 135.2483300  99.4238140  24.6094190
 145.8110050  98.5944980  26.3710440 146.6319670  98.1041550  26.4135920
 145.8444130  99.1842640  27.1242280 133.8074100 101.3939180  30.1452130
 134.4884210 101.6577550  30.7639530 133.4922150 100.5540050  30.4790140
 137.9998670 102.4406540  29.2324720 138.5076890 102.9387510  29.8729740
 138.5311910 101.6641740  29.0564080 136.2834770  97.0805100  33.4988140
 136.2853210  97.5977490  32.6934040 135.4539080  96.6035280  33.4758070
 142.6705860 107.1924410  24.9978040 142.0523130 107.6573860  24.4340760
 143.1829110 107.8851890  25.4147550 137.5337620 106.7200280  31.6761640
 137.2007000 107.3469200  32.3182710 137.7104300 107.2462160  30.8963310
 146.0471530 100.5345360  29.1437980 145.3427100 100.8230250  29.7241090
 146.4083690 101.3445470  28.7837540 135.9650100  98.7915060  31.5058590
 136.3066910  99.6357110  31.2112460 135.0265910  98.9398800  31.6223930
 136.7456720 108.6881080  33.4910820 137.3630720 109.3632160  33.2095270
 135.8849840 109.0969060  33.3998320 132.0389060 107.8780940  22.3717670
 131.6617040 108.3668040  21.6402570 132.2962130 108.5506220  23.0024200
 147.6634310 110.1520490  31.4065460 146.9797830 110.8219600  31.3982130
 148.2028600 110.3501140  30.6410320 139.6477990  96.2797330  27.8303180
 139.9552970  95.7244220  27.1138680 138.7178690  96.4141790  27.6476170
 145.1993050 111.9964620  30.1210640 145.2120210 111.5926910  29.2532900
 144.6468270 112.7711910  30.0172070 146.4938470 108.7180840  25.2100810
 146.3834800 107.7755170  25.3350230 146.4906720 109.0796480  26.0963570
 144.5978490 106.8994460  31.4493250 145.0147280 106.6854570  30.6146710
 145.3218310 107.1567250  32.0201870 142.0358750 104.3446160  24.5663300
 141.1088030 104.2783540  24.7951770 142.1883570 105.2826290  24.4518540
 142.0227830 100.6163160  21.5630460 141.0831500 100.7777120  21.6482920
 142.3411090 101.3348840  21.0166450 146.0656040 105.9066460  25.0698550
 145.4468460 105.5686010  24.4224850 146.0480490 105.2626220  25.7777740
 145.5082600 102.0851000  32.4864360 145.0953780 102.9104710  32.7404350
 144.7758550 101.4996040  32.2940720 137.6415390 104.8710900  27.3483030
 137.2372390 104.1588150  26.8528930 137.7278510 104.5264140  28.2371070
 138.1097090 108.5578460  29.5122240 137.8125380 107.9523930  28.8330020
 139.0596910 108.5955770  29.4011600 136.3544010 101.6454110  31.1282070
 136.9058600 101.7549450  30.3535320 136.8687520 102.0191710  31.8437300
 146.1982700 112.1310330  33.1745340 145.7213260 112.9382520  32.9817950
 145.5144490 111.4788660  33.3271550 137.2015520 108.2960150  36.1630040
 136.3044050 108.5200120  36.4103440 137.2268390 108.4195090  35.2141440
 144.2420740 105.1453270  22.0771300 144.6814020 104.3075700  21.9309120
 144.9549160 105.7782670  22.1635440 136.0286740 105.1673470  34.7387410
 135.8894510 106.0396270  35.1074810 135.1468100 104.8246280  34.5935350
 142.3516120 110.0849340  26.0452540 142.7912030 110.8273670  25.6307930
 142.2903010 110.3275910  26.9691500 137.8267090 111.1095170  36.9472560
 137.7982520 111.5138120  36.0800990 137.6632060 110.1805530  36.7844160
 147.8237880  96.3996080  20.3912340 147.5110540  96.4922910  21.2911410
 148.5850350  96.9777110  20.3409770 134.3420020 103.7655880  24.8489680
 134.2217620 104.4917970  24.2370950 134.0320910 102.9958790  24.3717590
 131.9805390 106.9371020  30.6558320 132.0585810 107.0719790  29.7114040
 132.5947070 106.2286910  30.8486440 133.2253020 108.6371210  27.0664500
 132.8181100 108.7785800  26.2118100 134.1166030 108.3531370  26.8635710
 143.0431900 112.7863120  33.9731550 143.5576570 112.6971130  34.7753980
 142.2000980 113.1322820  34.2659460 145.0186300 113.0718460  23.4015550
 144.8587440 112.7821400  24.2997380 144.8533010 112.2958590  22.8660780
 137.4974680 112.8516990  25.1787170 137.3217160 111.9352530  24.9654970
 136.6430420 113.2104280  25.4184970 144.7212430 110.5806020  21.9613550
 144.0277590 110.5783310  21.3015830 145.4635290 110.1565340  21.5307720
 144.2862360 112.2068730  26.0362040 144.7419310 111.4258110  26.3500660
 144.6254880 112.9175550  26.5803220 132.0364910 107.9785190  33.1952780
 132.1995950 107.5090550  32.3772150 132.5017360 107.4708750  33.8601620
 136.8083680  97.1090950  28.2313350 136.3651830  97.8900490  27.8997870
 137.3668670  97.4320840  28.9384290 141.0953490  99.9759470  33.8348670
 140.6332860 100.1842490  34.6468610 140.6931600  99.1618820  33.5319340
 146.0958000 101.1968420  34.9645330 145.2451590 100.8974170  35.2854400
 145.9359790 101.4410430  34.0529150 143.1907710 102.6970170  37.0644120
 143.5161120 101.8633920  36.7246350 143.9788040 103.2198690  37.2122450
 139.9242500  96.7301650  23.1119180 139.2996680  96.7261520  23.8372490
 139.8372620  95.8632610  22.7155150 138.8459580  97.6538280  30.0902950
 139.1431910  98.5601110  30.0094970 139.3945140  97.1657060  29.4762520
 136.5997900 102.2324520  25.9594600 136.3738820 102.0161690  26.8641220
 135.8190430 102.6652980  25.6140570 143.8295660 102.2387890  24.5585250
 143.2304550 102.9623690  24.3748870 144.3775270 102.1764670  23.7761700
 139.0397110 103.1310100  36.6254870 138.9440710 102.1904830  36.4755270
 139.8829090 103.3525170  36.2302940 142.4360530 100.8751430  26.5888530
 142.8290100 101.1923630  25.7757220 142.7977380  99.9963310  26.7033050
 134.1707650  99.5423770  34.7788650 133.7771040 100.3898980  34.9861430
 133.4826050  98.9050140  34.9697290 140.7452700  99.6258740  37.8485390
 140.0551020  99.4330940  38.4831480 141.4885000  99.9093380  38.3809690
 131.4724700  97.4652230  28.8118730 131.1837750  98.0355090  29.5243710
 132.2170460  96.9856680  29.1749960 131.6594930 101.4072350  20.0221450
 131.5769600 102.3503110  20.1636440 131.3077990 101.2647260  19.1433800
 143.0215670 103.4657180  30.6839310 142.2896790 103.9743990  31.0329410
 142.6240010 102.6487160  30.3828090 139.4593060 100.1411380  29.0891800
 139.4629120  99.7001330  28.2396340 140.3544180 100.4628710  29.1963620
 135.3095440 100.0237870  28.0486010 134.9695490 100.5013100  28.8053060
 134.5472760  99.5702990  27.6887110 139.5213210 101.1423460  22.0798560
 139.6426030 101.1009940  23.0284380 139.1361720 102.0047610  21.9245290
 143.4841580  98.9190860  30.0962250 143.5014320  99.3699510  30.9404100
 143.2357160  98.0196500  30.3095690 138.5334710 103.4524600  21.4781860
 137.9651610 103.0042850  20.8517770 139.2423710 103.8117380  20.9447010
 146.9112330  96.3323040  35.9348630 147.2358100  95.6012700  36.4606610
 146.9468840  96.0136680  35.0329620 133.6103890 107.3536620  35.3548590
 133.2258680 106.7130290  35.9531550 133.9216080 108.0572740  35.9243320
 139.7601030 104.2013160  30.8357210 140.1271160 103.7271730  31.5818550
 139.5706090 105.0754730  31.1765550 132.6241520  98.9456850  26.9650680
 132.3388440  98.5812520  27.8029300 132.5620380  98.2137310  26.3513820
 137.5500400 103.2421800  33.1541420 137.2457470 104.1213780  33.3791780
 138.5046860 103.3021590  33.1898860 136.0782190 107.4482790  23.7508270
 135.3044450 106.9080410  23.5906990 136.8076820 106.9289400  23.4126030
 146.8370170 106.4448150  29.5434660 147.5569290 106.9403440  29.1530770
 146.6351990 105.7666040  28.8988530 142.2980110  97.8386110  23.6864050
 141.4844720  97.3399280  23.6109360 142.1042060  98.6784360  23.2700400
 142.2188970 106.5157210  35.4303660 142.1526280 105.5952880  35.1761250
 141.5894110 106.6132650  36.1448300 145.0128500 102.2105760  21.9826210
 145.9008120 102.5222990  21.8077550 144.9833590 101.3378010  21.5906790
 136.1219590 107.1163170  27.3887080 136.6398260 106.3131430  27.3343970
 135.6703610 107.0542310  28.2303910 141.0089090 108.3829450  22.6614380
 141.3504790 109.1271680  22.1657700 140.1801800 108.6960570  23.0239210
 133.6064130 104.0824540  34.3012780 133.2479070 104.7478390  34.8886120
 133.3118690 103.2508090  34.6725400 136.8077250 104.5408780  37.1852330
 136.5077390 104.6865960  36.2880150 137.5788490 103.9814070  37.0925720
 142.1505700 109.3377780  35.1807460 142.1650240 108.4058740  34.9626370
 141.4430800 109.4237540  35.8197230 147.2842770 103.5217600  21.4506070
 147.2006490 103.9531820  20.6002510 148.0036960 103.9815950  21.8832890
 148.3130020 110.3759860  24.1788200 147.6706180 109.7215480  24.4531920
 147.9260680 110.7814950  23.4028870 143.8916500 107.7045290  28.0259890
 144.2440320 107.1073420  27.3661260 143.0078830 107.3789520  28.1968140
 139.9779780 108.4642980  25.4330300 140.6650910 109.0112190  25.8137890
 139.1912200 109.0083710  25.4679910 132.1172180 104.0815800  20.9247380
 132.9867030 104.3640600  21.2083300 131.6262500 104.8951670  20.8096190
 139.2806990 105.4689010  25.0455660 139.7369770 106.2794260  25.2715850
 138.9295200 105.1512150  25.8774150 141.5839600 110.9795350  32.2747960
 142.2281820 111.1854730  32.9521380 141.9469040 110.2183750  31.8218810
 135.1818770  95.8126660  25.5178180 135.0533400  95.8044560  26.4663100
 134.3580790  96.1509750  25.1669190 142.8571680 108.9827700  30.9925410
 143.4993910 108.2820860  31.1057580 143.3821030 109.7626140  30.8122300
 146.7027400 109.2676320  20.7164550 146.4764980 108.5506760  21.3089190
 146.3123600 109.0188760  19.8786300 144.6309300 109.7822600  34.1961470
 144.9665540 110.3689290  34.8739390 143.7109640 109.6515310  34.4259260
 132.4843430 113.2943180  21.4909010 132.8441070 113.8932520  20.8366280
 132.3435770 113.8403070  22.2644040 132.1812700  97.5717780  34.9784880
 131.4671220  97.7714700  35.5837490 132.6007740  96.7957350  35.3499680
 146.2843650 107.1848260  22.3778710 145.9965350 107.6460950  23.1656590
 147.0795820 106.7246030  22.6462930 132.4685290 111.5598040  35.9651410
 132.5776410 110.6192780  35.8246800 131.8165850 111.8252790  35.3165140
 140.4597880 109.8313930  37.3649530 140.1394750 109.1123170  37.9095220
 139.7856240 110.5069000  37.4385590 138.5012050 110.6774380  22.3082680
 138.4922150 111.4104070  21.6927190 137.5810410 110.4305960  22.4009640
 134.1018690 105.8989270  23.0529440 133.4946640 106.6388170  23.0624740
 134.5768040 105.9888630  22.2267640 143.6751480 100.0640090  32.7286330
 144.0432300  99.2435300  33.0565900 142.8149680 100.1241980  33.1441980
 147.0413510  99.0197030  23.5373890 146.4126670  99.1242700  22.8232120
 146.5465430  99.2393810  24.3267770 141.4871650 110.7402620  20.9707870
 141.5883630 110.5366610  20.0409850 140.5873390 110.4860900  21.1755650
 139.0097540 101.2982980  24.9531770 138.3013690 101.7669320  25.3945380
 139.2942020 100.6404990  25.5876960 140.6353470 102.7179680  32.9524300
 141.1338720 103.1925500  33.6176150 140.7776420 101.7943200  33.1594330
 143.0412970  98.0233640  26.3927560 142.9180750  98.0419770  25.4437070
 143.9897530  98.0712580  26.5125960 140.1289760 113.2588940  25.6655540
 140.3831260 113.2210330  24.7434910 139.1802240 113.1322270  25.6583790
 137.2132560  99.6068060  22.3282480 138.0623090 100.0438210  22.2622670
 136.8463830  99.9188320  23.1554540 147.8420330  98.9347640  33.7952690
 147.3393930  99.6753040  34.1346500 148.6576990  99.3231640  33.4789480
 146.1342340 104.1780820  27.2414050 145.1932480 104.1931050  27.4161740
 146.4486410 103.3916780  27.6874350 136.1123980 105.8600420  20.8018010
 136.8787250 105.7481780  21.3643440 136.1898670 105.1638390  20.1494780
 134.8070740 103.2925490  21.4850900 134.8874330 102.3453000  21.5968300
 135.6990490 103.6232370  21.5911560 135.6085450 113.4420880  28.5885440
 136.3447930 112.8936340  28.8594010 135.9926370 114.3076890  28.4491430
 132.4930930 109.5094450  24.4626950 131.5670710 109.7515590  24.4532360
 132.9587360 110.3368710  24.3411700 134.6143730 112.6266950  37.7771020
 135.4156460 112.9479000  38.1906420 134.0995550 112.2662530  38.4990930
 138.7187760 112.6151190  20.4111010 139.5116370 112.9040020  19.9592800
 138.1992110 112.1843360  19.7323490 143.4508360 108.7346820  37.7246430
 142.8446520 108.7578420  36.9842180 143.1462470 108.0029860  38.2613680
 144.8808730 112.4627110  36.3355840 145.8330480 112.3785130  36.2856080
 144.7336950 113.1268820  37.0089630 147.7717930 111.8421320  21.8347750
 147.4859440 111.4286460  21.0201930 147.5737480 112.7709030  21.7148270
 132.3341540 105.1140410  36.7207070 132.8380560 104.5347690  37.2923300
 131.5948960 105.3980640  37.2583440 139.2365160 107.8354600  20.2753360
 139.1315800 107.2206950  21.0014740 139.0689380 107.3120490  19.4916370
 139.3879480 106.5211400  36.2542590 138.6225150 107.0896400  36.1697260
 139.5695440 106.2287610  35.3610820 142.4767890 106.8974630  20.8795350
 141.9277990 107.3443930  21.5238090 143.0987150 106.3923880  21.4033020
 146.5302830 108.2516730  36.8117610 147.2712300 108.5892490  36.3085070
 145.7675510 108.4208790  36.2587380 134.3664620 103.2570000  37.6157140
 134.4069960 102.9583870  38.5242370 135.2210120 103.6577610  37.4564660
 138.1443010 105.8565550  22.7760650 138.5659430 105.6905420  23.6192040
 138.2693850 105.0465780  22.2815790 136.3070430 101.8362100  35.5831630
 135.7766890 101.3453050  34.9554970 136.9758500 102.2646300  35.0489560
 140.6570650 104.8803160  20.0237750 141.1776310 104.1652180  19.6578900
 141.3039050 105.5189030  20.3238260 145.2048490 106.3031560  35.3472820
 145.6189510 106.4576640  36.1963240 144.2699490 106.4286780  35.5098600
 145.6770660 103.6427720  37.3511970 146.2591430 102.8880040  37.2632450
 145.8532430 104.1735160  36.5743450 136.7942730  98.8024470  35.6628920
 136.6999600  98.1845220  34.9379790 136.2140120  99.5290760  35.4358830
 139.5604170  97.3597710  32.6956310 139.1121470  97.3821970  31.8501860
 138.9269370  96.9616730  33.2926610 139.9663720 106.2552040  33.3168750
 140.3851830 107.0984770  33.1444990 139.0472350 106.3924080  33.0875530
 142.3027620 103.9868220  34.7006590 142.4223830 103.3909360  35.4401430
 143.1621620 104.0237910  34.2807890 144.6415520 104.5405410  33.2769100
 144.1150740 105.0648030  32.6734240 144.9846860 105.1732800  33.9078830
 137.0401910 101.9298780  19.7218810 136.8390970 101.0666140  20.0832150
 136.8693960 101.8432140  18.7840410 137.8171140 112.5605050  34.4326480
 137.2792230 113.2851110  34.1135180 138.0705100 112.0835390  33.6423820
 139.0696390 100.5289570  35.9582410 139.6596080 100.2205420  36.6460230
 138.2516630 100.0569320  36.1142310 143.8889820 100.1455380  36.1915430
 143.2005340  99.4836920  36.1265420 144.6095840  99.6993650  36.6363890
 144.5190220  96.7407010  22.2505690 144.7992510  95.8974910  22.6065110
 143.7455950  96.9730120  22.7644440 135.8384710  99.0299400  19.7096690
 136.1410610  99.0366830  18.8015840 136.5779300  98.6797260  20.2064350
 140.6733350 113.7956260  34.6913130 140.5992050 114.6991400  34.9985500
 139.7712190 113.4768160  34.6635200 139.0569640  97.9734020  20.6952890
 138.7091640  97.2958010  20.1155340 139.2582410  97.5123530  21.5096280
 141.2218680 112.9614770  22.3139490 142.1169470 113.2999740  22.3358250
 141.2536310 112.2394180  21.6863770 134.8614840 108.3341820  20.5426490
 135.2989710 108.8771490  21.1984070 135.3462570 107.5088770  20.5522830
 132.0760640 111.1230850  27.9946750 132.4063650 110.2551910  27.7625390
 132.5051640 111.3289370  28.8251710 136.6722560 109.4539860  25.6548720
 136.3718100 109.3304830  26.5552630 136.5660050 108.5948450  25.2464450
 132.5650850 111.9901440  30.7328380 132.1281840 112.1702240  31.5652530
 133.1328530 112.7476060  30.5910100 148.2013030 111.4918440  35.0205690
 147.6015020 111.5511000  34.2769610 148.3306930 110.5523420  35.1502540
 132.3975280 104.5021670  27.0917260 131.7424120 104.2333310  26.4476960
 133.2353230 104.3926150  26.6419240 146.8864670 108.2170420  33.1181850
 146.0724510 108.6467580  33.3807640 147.2938870 108.8288830  32.5050900
 145.3465720  99.2962960  21.3135750 145.7650600  99.1093940  20.4732410
 145.0401780  98.4442010  21.6238680 133.4351210 104.8874240  31.6320600
 133.8024250 104.8001640  32.5116620 132.8662030 104.1240790  31.5327460
 148.2355070 103.3558620  34.6451070 148.0041160 103.1271370  33.7449020
 148.4959620 104.2758170  34.5995960 132.9867210 101.7983330  35.5379020
 132.0923260 101.7650090  35.8772730 133.5264760 101.9970120  36.3030270
 146.6743140  98.5815050  37.4230770 147.5513320  98.5898450  37.8064770
 146.6863980  97.8445890  36.8123120 131.6113360 101.7120600  23.0342590
 130.7077440 101.9750800  22.8594250 132.0953980 101.9831770  22.2542550
 148.2996130 102.5184460  31.8338340 147.3498840 102.4848000  31.9483330
 148.4809140 103.4284570  31.5988110 134.1540570 100.7686140  20.9436970
 134.8632270 100.3469360  20.4584250 133.4380510 100.8361370  20.3120320
 133.8014730  96.8225470  19.9839620 134.5242860  97.3634410  20.3020840
 134.0739250  96.5488890  19.1081160 147.6106380 101.6917940  24.2511200
 148.1065500 101.4588810  25.0360080 147.4122450 100.8529780  23.8348840
 133.4906920  96.0731660  29.8862240 134.1383110  95.5229040  29.4457400
 133.9108760  96.3274810  30.7078050 147.3859260  96.2673020  33.2431880
 148.0231480  96.8807160  33.6091070 147.5334150  96.3033680  32.2981110
 146.9440720 112.9689020  26.6450120 147.5399790 112.6473590  25.9684540
 147.2018870 112.4960840  27.4363390 133.2438920  96.2287330  32.6287560
 132.8953740  96.6851150  33.3945740 132.9126620  95.3344460  32.7109990
 134.8503290 109.4006930  36.7940750 134.8072920 109.0299840  37.6755210
 134.9814300 110.3384500  36.9342570 138.5509320 110.9566520  32.3950470
 138.3100680 111.2241080  31.5080990 139.4911960 111.1272250  32.4501330
 140.7563740  97.4199210  36.1506980 140.6952630  98.0121040  36.9002390
 141.6964120  97.3125170  36.0057240 143.3938300  97.0769270  35.7899270
 144.0078710  97.3948560  35.1280350 143.9387860  96.5917860  36.4095130
 133.9159560  95.7563530  35.9038330 134.4642550  95.5751580  35.1404440
 133.9814870  94.9657640  36.4394640 134.6891320 112.3469180  33.9138530
 134.0951640 112.2153880  34.6528570 134.6815160 111.5107320  33.4480630
 144.1346340  95.6401410  32.1168560 143.2606180  95.9736520  31.9141490
 144.0257090  95.1674590  32.9420430 145.0418320  97.8472280  33.5010280
 144.7131680  97.0324040  33.1212010 145.9900620  97.8042090  33.3775970
 147.4952930 113.6184320  30.4747850 147.0355900 114.3700130  30.1005870
 146.8665390 112.8990790  30.4162650 134.3203550 109.7127560  32.8646570
 133.5937610 109.0932850  32.7972520 134.3812700 110.1068170  31.9944650
 137.9248650 111.9272560  29.6495980 138.4413670 111.3159920  29.1244240
 138.5746030 112.4301340  30.1406990 140.6644150 112.8181050  30.4764960
 140.9521960 112.5635350  29.5997970 141.1767370 112.2658410  31.0670530
 141.8821160  96.5571250  31.0561470 141.0992950  97.0316750  31.3358230
 141.5884090  95.6526080  30.9474650 146.4342230  97.2594350  29.1010560
 146.8750320  97.2039450  28.2532160 146.1649820  98.1752360  29.1720740
 132.6033550 113.0301950  26.0743330 132.4355590 112.3972630  26.7725220
 131.7368060 113.2361350  25.7237520 133.2261570  96.8618730  23.5775190
 133.9840930  96.9747610  23.0039220 132.7638740  97.6987930  23.5318620
 139.7675380  98.9758000  26.5677500 138.9549890  98.6014890  26.2273380
 140.2717020  98.2203080  26.8698690 144.2700360  95.6400450  27.8060570
 144.8729730  96.2120660  28.2809090 143.5293350  96.2039890  27.5834470
 147.4134960  96.0422010  23.0800850 147.6085590  96.9405460  23.3468280
 146.6264830  95.8109090  23.5733800 134.2096250 111.7235180  23.5193470
 133.6843870 112.1043210  22.8155430 134.1340830 112.3485950  24.2403180
 135.5986720  97.3882780  22.1177160 136.1279480  96.6012580  21.9885110
 136.2315040  98.0673970  22.3512690 137.7924560  97.1257920  25.1722550
 137.1627300  96.4245230  25.3392680 137.2529700  97.8862050  24.9555710
 140.7316510 113.7397150  37.8433160 141.6583820 113.5041420  37.8869120
 140.7166940 114.5669150  37.3619190 137.9180120  96.4041900  37.6075040
 137.6364390  96.9075500  36.8435860 138.2999820  95.6063650  37.2417170
 136.8089220 113.6717560  22.3942720 137.5408040 113.3876840  21.8466610
 137.0682890 113.4330840  23.2842100 135.9704010 109.7882290  22.3989050
 135.3412890 110.2567390  22.9474880 136.0851840 108.9431510  22.8335240
 144.5195580  95.8195480  38.1855510 144.4061030  96.1390090  39.0807030
 145.3365320  96.2207990  37.8892790 147.2994070 112.9667010  37.6674200
 148.0919390 112.4716240  37.4600160 147.5927220 113.6457150  38.2749810
 143.4253730 103.8387950   8.5490250 143.3447780 102.9242560   8.2781960
 143.0118150 104.3355020   7.8429960 141.5571770 105.6166970  10.4299520
 140.7813870 105.1367410  10.7198090 142.2084700 104.9372620  10.2555680
 135.5737600 105.9286780  11.3075280 134.7422480 105.6735490  11.7071790
 136.1818580 105.9997550  12.0433200 145.5779200 110.0227160   9.2098650
 145.1160730 109.2514400   9.5385820 146.3904750 110.0493230   9.7151100
 135.5538860 109.9626870  11.5033300 135.8566900 109.0724610  11.3243520
 136.2982450 110.5197090  11.2755550 133.9829550 100.8888670   5.0917670
 133.0946250 101.2304640   4.9897550 134.2670740 100.6888990   4.1998500
 131.9462560 103.4894320  10.9757370 132.5178670 102.7216520  10.9761010
 131.9464100 103.7883080  10.0663980 141.8042510 112.3085170   8.8302640
 141.1853950 112.7642670   8.2597080 142.6594290 112.4636630   8.4292340
 140.9980760 108.2924160  10.4369680 140.9289040 107.3514100  10.2758810
 141.7600620 108.3825570  11.0092250 133.1887430  98.8978680  12.7626300
 133.0090270  98.0004430  13.0429060 132.7867510  99.4450550  13.4373250
 142.0285930 101.0994540  10.6638610 142.4050750 100.2266420  10.5512280
 141.9305440 101.4353240   9.7729050 136.1590940  99.4720170   6.1256050
 136.2657690 100.3723900   6.4324810 135.2483300  99.4238140   5.8350700
 145.8110050  98.5944980   7.5966950 146.6319670  98.1041550   7.6392430
 145.8444130  99.1842640   8.3498790 133.8074100 101.3939180  11.3708640
 134.4884210 101.6577550  11.9896040 133.4922150 100.5540050  11.7046650
 137.9998670 102.4406540  10.4581230 138.5076890 102.9387510  11.0986250
 138.5311910 101.6641740  10.2820590 136.2834770  97.0805100  14.7244650
 136.2853210  97.5977490  13.9190550 135.4539080  96.6035280  14.7014580
 142.6705860 107.1924410   6.2234550 142.0523130 107.6573860   5.6597270
 143.1829110 107.8851890   6.6404060 137.5337620 106.7200280  12.9018150
 137.2007000 107.3469200  13.5439220 137.7104300 107.2462160  12.1219820
 146.0471530 100.5345360  10.3694490 145.3427100 100.8230250  10.9497600
 146.4083690 101.3445470  10.0094050 135.9650100  98.7915060  12.7315100
 136.3066910  99.6357110  12.4368970 135.0265910  98.9398800  12.8480440
 136.7456720 108.6881080  14.7167330 137.3630720 109.3632160  14.4351780
 135.8849840 109.0969060  14.6254830 132.0389060 107.8780940   3.5974180
 131.6617040 108.3668040   2.8659080 132.2962130 108.5506220   4.2280710
 147.6634310 110.1520490  12.6321970 146.9797830 110.8219600  12.6238640
 148.2028600 110.3501140  11.8666830 139.6477990  96.2797330   9.0559690
 139.9552970  95.7244220   8.3395190 138.7178690  96.4141790   8.8732680
 145.1993050 111.9964620  11.3467150 145.2120210 111.5926910  10.4789410
 144.6468270 112.7711910  11.2428580 146.4938470 108.7180840   6.4357320
 146.3834800 107.7755170   6.5606740 146.4906720 109.0796480   7.3220080
 144.5978490 106.8994460  12.6749760 145.0147280 106.6854570  11.8403220
 145.3218310 107.1567250  13.2458380 142.0358750 104.3446160   5.7919810
 141.1088030 104.2783540   6.0208280 142.1883570 105.2826290   5.6775050
 142.0227830 100.6163160   2.7886970 141.0831500 100.7777120   2.8739430
 142.3411090 101.3348840   2.2422960 146.0656040 105.9066460   6.2955060
 145.4468460 105.5686010   5.6481360 146.0480490 105.2626220   7.0034250
 145.5082600 102.0851000  13.7120870 145.0953780 102.9104710  13.9660860
 144.7758550 101.4996040  13.5197230 137.6415390 104.8710900   8.5739540
 137.2372390 104.1588150   8.0785440 137.7278510 104.5264140   9.4627580
 138.1097090 108.5578460  10.7378750 137.8125380 107.9523930  10.0586530
 139.0596910 108.5955770  10.6268110 136.3544010 101.6454110  12.3538580
 136.9058600 101.7549450  11.5791830 136.8687520 102.0191710  13.0693810
 146.1982700 112.1310330  14.4001850 145.7213260 112.9382520  14.2074460
 145.5144490 111.4788660  14.5528060 137.2015520 108.2960150  17.3886550
 136.3044050 108.5200120  17.6359950 137.2268390 108.4195090  16.4397950
 144.2420740 105.1453270   3.3027810 144.6814020 104.3075700   3.1565630
 144.9549160 105.7782670   3.3891950 136.0286740 105.1673470  15.9643920
 135.8894510 106.0396270  16.3331320 135.1468100 104.8246280  15.8191860
 142.3516120 110.0849340   7.2709050 142.7912030 110.8273670   6.8564440
 142.2903010 110.3275910   8.1948010 137.8267090 111.1095170  18.1729070
 137.7982520 111.5138120  17.3057500 137.6632060 110.1805530  18.0100670
 134.3420020 103.7655880   6.0746190 134.2217620 104.4917970   5.4627460
 134.0320910 102.9958790   5.5974100 131.9805390 106.9371020  11.8814830
 132.0585810 107.0719790  10.9370550 132.5947070 106.2286910  12.0742950
 133.2253020 108.6371210   8.2921010 132.8181100 108.7785800   7.4374610
 134.1166030 108.3531370   8.0892220 143.0431900 112.7863120  15.1988060
 143.5576570 112.6971130  16.0010490 142.2000980 113.1322820  15.4915970
 145.0186300 113.0718460   4.6272060 144.8587440 112.7821400   5.5253890
 144.8533010 112.2958590   4.0917290 137.4974680 112.8516990   6.4043680
 137.3217160 111.9352530   6.1911480 136.6430420 113.2104280   6.6441480
 144.7212430 110.5806020   3.1870060 144.0277590 110.5783310   2.5272340
 145.4635290 110.1565340   2.7564230 144.2862360 112.2068730   7.2618550
 144.7419310 111.4258110   7.5757170 144.6254880 112.9175550   7.8059730
 132.0364910 107.9785190  14.4209290 132.1995950 107.5090550  13.6028660
 132.5017360 107.4708750  15.0858130 136.8083680  97.1090950   9.4569860
 136.3651830  97.8900490   9.1254380 137.3668670  97.4320840  10.1640800
 141.0953490  99.9759470  15.0605180 140.6332860 100.1842490  15.8725120
 140.6931600  99.1618820  14.7575850 146.0958000 101.1968420  16.1901840
 145.2451590 100.8974170  16.5110910 145.9359790 101.4410430  15.2785660
 143.1907710 102.6970170  18.2900630 143.5161120 101.8633920  17.9502860
 143.9788040 103.2198690  18.4378960 139.9242500  96.7301650   4.3375690
 139.2996680  96.7261520   5.0629000 139.8372620  95.8632610   3.9411660
 138.8459580  97.6538280  11.3159460 139.1431910  98.5601110  11.2351480
 139.3945140  97.1657060  10.7019030 136.5997900 102.2324520   7.1851110
 136.3738820 102.0161690   8.0897730 135.8190430 102.6652980   6.8397080
 143.8295660 102.2387890   5.7841760 143.2304550 102.9623690   5.6005380
 144.3775270 102.1764670   5.0018210 139.0397110 103.1310100  17.8511380
 138.9440710 102.1904830  17.7011780 139.8829090 103.3525170  17.4559450
 142.4360530 100.8751430   7.8145040 142.8290100 101.1923630   7.0013730
 142.7977380  99.9963310   7.9289560 134.1707650  99.5423770  16.0045160
 133.7771040 100.3898980  16.2117940 133.4826050  98.9050140  16.1953800
 140.7452700  99.6258740  19.0741900 140.0551020  99.4330940  19.7087990
 141.4885000  99.9093380  19.6066200 131.4724700  97.4652230  10.0375240
 131.1837750  98.0355090  10.7500220 132.2170460  96.9856680  10.4006470
 143.0215670 103.4657180  11.9095820 142.2896790 103.9743990  12.2585920
 142.6240010 102.6487160  11.6084600 139.4593060 100.1411380  10.3148310
 139.4629120  99.7001330   9.4652850 140.3544180 100.4628710  10.4220130
 135.3095440 100.0237870   9.2742520 134.9695490 100.5013100  10.0309570
 134.5472760  99.5702990   8.9143620 139.5213210 101.1423460   3.3055070
 139.6426030 101.1009940   4.2540890 139.1361720 102.0047610   3.1501800
 143.4841580  98.9190860  11.3218760 143.5014320  99.3699510  12.1660610
 143.2357160  98.0196500  11.5352200 138.5334710 103.4524600   2.7038370
 137.9651610 103.0042850   2.0774280 139.2423710 103.8117380   2.1703520
 146.9112330  96.3323040  17.1605140 147.2358100  95.6012700  17.6863120
 146.9468840  96.0136680  16.2586130 133.6103890 107.3536620  16.5805100
 133.2258680 106.7130290  17.1788060 133.9216080 108.0572740  17.1499830
 139.7601030 104.2013160  12.0613720 140.1271160 103.7271730  12.8075060
 139.5706090 105.0754730  12.4022060 132.6241520  98.9456850   8.1907190
 132.3388440  98.5812520   9.0285810 132.5620380  98.2137310   7.5770330
 137.5500400 103.2421800  14.3797930 137.2457470 104.1213780  14.6048290
 138.5046860 103.3021590  14.4155370 136.0782190 107.4482790   4.9764780
 135.3044450 106.9080410   4.8163500 136.8076820 106.9289400   4.6382540
 146.8370170 106.4448150  10.7691170 147.5569290 106.9403440  10.3787280
 146.6351990 105.7666040  10.1245040 142.2980110  97.8386110   4.9120560
 141.4844720  97.3399280   4.8365870 142.1042060  98.6784360   4.4956910
 142.2188970 106.5157210  16.6560170 142.1526280 105.5952880  16.4017760
 141.5894110 106.6132650  17.3704810 145.0128500 102.2105760   3.2082720
 145.9008120 102.5222990   3.0334060 144.9833590 101.3378010   2.8163300
 136.1219590 107.1163170   8.6143590 136.6398260 106.3131430   8.5600480
 135.6703610 107.0542310   9.4560420 141.0089090 108.3829450   3.8870890
 141.3504790 109.1271680   3.3914210 140.1801800 108.6960570   4.2495720
 133.6064130 104.0824540  15.5269290 133.2479070 104.7478390  16.1142630
 133.3118690 103.2508090  15.8981910 136.8077250 104.5408780  18.4108840
 136.5077390 104.6865960  17.5136660 137.5788490 103.9814070  18.3182230
 142.1505700 109.3377780  16.4063970 142.1650240 108.4058740  16.1882880
 141.4430800 109.4237540  17.0453740 147.2842770 103.5217600   2.6762580
 147.2006490 103.9531820   1.8259020 148.0036960 103.9815950   3.1089400
 148.3130020 110.3759860   5.4044710 147.6706180 109.7215480   5.6788430
 147.9260680 110.7814950   4.6285380 143.8916500 107.7045290   9.2516400
 144.2440320 107.1073420   8.5917770 143.0078830 107.3789520   9.4224650
 139.9779780 108.4642980   6.6586810 140.6650910 109.0112190   7.0394400
 139.1912200 109.0083710   6.6936420 132.1172180 104.0815800   2.1503890
 132.9867030 104.3640600   2.4339810 131.6262500 104.8951670   2.0352700
 139.2806990 105.4689010   6.2712170 139.7369770 106.2794260   6.4972360
 138.9295200 105.1512150   7.1030660 141.5839600 110.9795350  13.5004470
 142.2281820 111.1854730  14.1777890 141.9469040 110.2183750  13.0475320
 135.1818770  95.8126660   6.7434690 135.0533400  95.8044560   7.6919610
 134.3580790  96.1509750   6.3925700 142.8571680 108.9827700  12.2181920
 143.4993910 108.2820860  12.3314090 143.3821030 109.7626140  12.0378810
 144.6309300 109.7822600  15.4217980 144.9665540 110.3689290  16.0995900
 143.7109640 109.6515310  15.6515770 132.4843430 113.2943180   2.7165520
 132.8441070 113.8932520   2.0622790 132.3435770 113.8403070   3.4900550
 132.1812700  97.5717780  16.2041390 131.4671220  97.7714700  16.8094000
 132.6007740  96.7957350  16.5756190 146.2843650 107.1848260   3.6035220
 145.9965350 107.6460950   4.3913100 147.0795820 106.7246030   3.8719440
 132.4685290 111.5598040  17.1907920 132.5776410 110.6192780  17.0503310
 131.8165850 111.8252790  16.5421650 140.4597880 109.8313930  18.5906040
 140.1394750 109.1123170  19.1351730 139.7856240 110.5069000  18.6642100
 138.5012050 110.6774380   3.5339190 138.4922150 111.4104070   2.9183700
 137.5810410 110.4305960   3.6266150 134.1018690 105.8989270   4.2785950
 133.4946640 106.6388170   4.2881250 134.5768040 105.9888630   3.4524150
 143.6751480 100.0640090  13.9542840 144.0432300  99.2435300  14.2822410
 142.8149680 100.1241980  14.3698490 147.0413510  99.0197030   4.7630400
 146.4126670  99.1242700   4.0488630 146.5465430  99.2393810   5.5524280
 139.0097540 101.2982980   6.1788280 138.3013690 101.7669320   6.6201890
 139.2942020 100.6404990   6.8133470 140.6353470 102.7179680  14.1780810
 141.1338720 103.1925500  14.8432660 140.7776420 101.7943200  14.3850840
 143.0412970  98.0233640   7.6184070 142.9180750  98.0419770   6.6693580
 143.9897530  98.0712580   7.7382470 140.1289760 113.2588940   6.8912050
 140.3831260 113.2210330   5.9691420 139.1802240 113.1322270   6.8840300
 137.2132560  99.6068060   3.5538990 138.0623090 100.0438210   3.4879180
 136.8463830  99.9188320   4.3811050 147.8420330  98.9347640  15.0209200
 147.3393930  99.6753040  15.3603010 148.6576990  99.3231640  14.7045990
 146.1342340 104.1780820   8.4670560 145.1932480 104.1931050   8.6418250
 146.4486410 103.3916780   8.9130860 134.8070740 103.2925490   2.7107410
 134.8874330 102.3453000   2.8224810 135.6990490 103.6232370   2.8168070
 135.6085450 113.4420880   9.8141950 136.3447930 112.8936340  10.0850520
 135.9926370 114.3076890   9.6747940 132.4930930 109.5094450   5.6883460
 131.5670710 109.7515590   5.6788870 132.9587360 110.3368710   5.5668210
 134.6143730 112.6266950  19.0027530 135.4156460 112.9479000  19.4162930
 134.0995550 112.2662530  19.7247440 143.4508360 108.7346820  18.9502940
 142.8446520 108.7578420  18.2098690 143.1462470 108.0029860  19.4870190
 144.8808730 112.4627110  17.5612350 145.8330480 112.3785130  17.5112590
 144.7336950 113.1268820  18.2346140 147.7717930 111.8421320   3.0604260
 147.4859440 111.4286460   2.2458440 147.5737480 112.7709030   2.9404780
 132.3341540 105.1140410  17.9463580 132.8380560 104.5347690  18.5179810
 131.5948960 105.3980640  18.4839950 139.3879480 106.5211400  17.4799100
 138.6225150 107.0896400  17.3953770 139.5695440 106.2287610  16.5867330
 142.4767890 106.8974630   2.1051860 141.9277990 107.3443930   2.7494600
 143.0987150 106.3923880   2.6289530 146.5302830 108.2516730  18.0374120
 147.2712300 108.5892490  17.5341580 145.7675510 108.4208790  17.4843890
 134.3664620 103.2570000  18.8413650 134.4069960 102.9583870  19.7498880
 135.2210120 103.6577610  18.6821170 138.1443010 105.8565550   4.0017160
 138.5659430 105.6905420   4.8448550 138.2693850 105.0465780   3.5072300
 136.3070430 101.8362100  16.8088140 135.7766890 101.3453050  16.1811480
 136.9758500 102.2646300  16.2746070 145.2048490 106.3031560  16.5729330
 145.6189510 106.4576640  17.4219750 144.2699490 106.4286780  16.7355110
 145.6770660 103.6427720  18.5768480 146.2591430 102.8880040  18.4888960
 145.8532430 104.1735160  17.7999960 136.7942730  98.8024470  16.8885430
 136.6999600  98.1845220  16.1636300 136.2140120  99.5290760  16.6615340
 139.5604170  97.3597710  13.9212820 139.1121470  97.3821970  13.0758370
 138.9269370  96.9616730  14.5183120 139.9663720 106.2552040  14.5425260
 140.3851830 107.0984770  14.3701500 139.0472350 106.3924080  14.3132040
 142.3027620 103.9868220  15.9263100 142.4223830 103.3909360  16.6657940
 143.1621620 104.0237910  15.5064400 144.6415520 104.5405410  14.5025610
 144.1150740 105.0648030  13.8990750 144.9846860 105.1732800  15.1335340
 137.8171140 112.5605050  15.6582990 137.2792230 113.2851110  15.3391690
 138.0705100 112.0835390  14.8680330 139.0696390 100.5289570  17.1838920
 139.6596080 100.2205420  17.8716740 138.2516630 100.0569320  17.3398820
 143.8889820 100.1455380  17.4171940 143.2005340  99.4836920  17.3521930
 144.6095840  99.6993650  17.8620400 144.5190220  96.7407010   3.4762200
 144.7992510  95.8974910   3.8321620 143.7455950  96.9730120   3.9900950
 140.6733350 113.7956260  15.9169640 140.5992050 114.6991400  16.2242010
 139.7712190 113.4768160  15.8891710 141.2218680 112.9614770   3.5396000
 142.1169470 113.2999740   3.5614760 141.2536310 112.2394180   2.9120280
 134.8614840 108.3341820   1.7683000 135.2989710 108.8771490   2.4240580
 135.3462570 107.5088770   1.7779340 132.0760640 111.1230850   9.2203260
 132.4063650 110.2551910   8.9881900 132.5051640 111.3289370  10.0508220
 136.6722560 109.4539860   6.8805230 136.3718100 109.3304830   7.7809140
 136.5660050 108.5948450   6.4720960 132.5650850 111.9901440  11.9584890
 132.1281840 112.1702240  12.7909040 133.1328530 112.7476060  11.8166610
 148.2013030 111.4918440  16.2462200 147.6015020 111.5511000  15.5026120
 148.3306930 110.5523420  16.3759050 132.3975280 104.5021670   8.3173770
 131.7424120 104.2333310   7.6733470 133.2353230 104.3926150   7.8675750
 146.8864670 108.2170420  14.3438360 146.0724510 108.6467580  14.6064150
 147.2938870 108.8288830  13.7307410 145.3465720  99.2962960   2.5392260
 145.7650600  99.1093940   1.6988920 145.0401780  98.4442010   2.8495190
 133.4351210 104.8874240  12.8577110 133.8024250 104.8001640  13.7373130
 132.8662030 104.1240790  12.7583970 148.2355070 103.3558620  15.8707580
 148.0041160 103.1271370  14.9705530 148.4959620 104.2758170  15.8252470
 132.9867210 101.7983330  16.7635530 132.0923260 101.7650090  17.1029240
 133.5264760 101.9970120  17.5286780 146.6743140  98.5815050  18.6487280
 147.5513320  98.5898450  19.0321280 146.6863980  97.8445890  18.0379630
 131.6113360 101.7120600   4.2599100 130.7077440 101.9750800   4.0850760
 132.0953980 101.9831770   3.4799060 148.2996130 102.5184460  13.0594850
 147.3498840 102.4848000  13.1739840 148.4809140 103.4284570  12.8244620
 147.6106380 101.6917940   5.4767710 148.1065500 101.4588810   6.2616590
 147.4122450 100.8529780   5.0605350 133.4906920  96.0731660  11.1118750
 134.1383110  95.5229040  10.6713910 133.9108760  96.3274810  11.9334560
 147.3859260  96.2673020  14.4688390 148.0231480  96.8807160  14.8347580
 147.5334150  96.3033680  13.5237620 146.9440720 112.9689020   7.8706630
 147.5399790 112.6473590   7.1941050 147.2018870 112.4960840   8.6619900
 133.2438920  96.2287330  13.8544070 132.8953740  96.6851150  14.6202250
 132.9126620  95.3344460  13.9366500 134.8503290 109.4006930  18.0197260
 134.8072920 109.0299840  18.9011720 134.9814300 110.3384500  18.1599080
 138.5509320 110.9566520  13.6206980 138.3100680 111.2241080  12.7337500
 139.4911960 111.1272250  13.6757840 140.7563740  97.4199210  17.3763490
 140.6952630  98.0121040  18.1258900 141.6964120  97.3125170  17.2313750
 143.3938300  97.0769270  17.0155780 144.0078710  97.3948560  16.3536860
 143.9387860  96.5917860  17.6351640 133.9159560  95.7563530  17.1294840
 134.4642550  95.5751580  16.3660950 133.9814870  94.9657640  17.6651150
 134.6891320 112.3469180  15.1395040 134.0951640 112.2153880  15.8785080
 134.6815160 111.5107320  14.6737140 144.1346340  95.6401410  13.3425070
 143.2606180  95.9736520  13.1398000 144.0257090  95.1674590  14.1676940
 145.0418320  97.8472280  14.7266790 144.7131680  97.0324040  14.3468520
 145.9900620  97.8042090  14.6032480 147.4952930 113.6184320  11.7004360
 147.0355900 114.3700130  11.3262380 146.8665390 112.8990790  11.6419160
 134.3203550 109.7127560  14.0903080 133.5937610 109.0932850  14.0229030
 134.3812700 110.1068170  13.2201160 137.9248650 111.9272560  10.8752490
 138.4413670 111.3159920  10.3500750 138.5746030 112.4301340  11.3663500
 140.6644150 112.8181050  11.7021470 140.9521960 112.5635350  10.8254480
 141.1767370 112.2658410  12.2927040 141.8821160  96.5571250  12.2817980
 141.0992950  97.0316750  12.5614740 141.5884090  95.6526080  12.1731160
 146.4342230  97.2594350  10.3267070 146.8750320  97.2039450   9.4788670
 146.1649820  98.1752360  10.3977250 132.6033550 113.0301950   7.2999840
 132.4355590 112.3972630   7.9981730 131.7368060 113.2361350   6.9494030
 133.2261570  96.8618730   4.8031700 133.9840930  96.9747610   4.2295730
 132.7638740  97.6987930   4.7575130 139.7675380  98.9758000   7.7934010
 138.9549890  98.6014890   7.4529890 140.2717020  98.2203080   8.0955200
 144.2700360  95.6400450   9.0317080 144.8729730  96.2120660   9.5065600
 143.5293350  96.2039890   8.8090980 147.4134960  96.0422010   4.3057360
 147.6085590  96.9405460   4.5724790 146.6264830  95.8109090   4.7990310
 134.2096250 111.7235180   4.7449980 133.6843870 112.1043210   4.0411940
 134.1340830 112.3485950   5.4659690 135.5986720  97.3882780   3.3433670
 136.1279480  96.6012580   3.2141620 136.2315040  98.0673970   3.5769200
 137.7924560  97.1257920   6.3979060 137.1627300  96.4245230   6.5649190
 137.2529700  97.8862050   6.1812220 140.7316510 113.7397150  19.0689670
 141.6583820 113.5041420  19.1125630 140.7166940 114.5669150  18.5875700
 137.9180120  96.4041900  18.8331550 137.6364390  96.9075500  18.0692370
 138.2999820  95.6063650  18.4673680 136.8089220 113.6717560   3.6199230
 137.5408040 113.3876840   3.0723120 137.0682890 113.4330840   4.5098610
 135.9704010 109.7882290   3.6245560 135.3412890 110.2567390   4.1731390
 136.0851840 108.9431510   4.0591750 144.5195580  95.8195480  19.4112020
 144.4061030  96.1390090  20.3063540 145.3365320  96.2207990  19.1149300
 147.2994070 112.9667010  18.8930710 148.0919390 112.4716240  18.6856670
 147.5927220 113.6457150  19.5006320 143.4253730  85.0644460 139.9694680
 143.3447780  84.1499070 139.6986390 143.0118150  85.5611530 139.2634390
 141.5571770  86.8423480 141.8503950 140.7813870  86.3623920 142.1402520
 142.2084700  86.1629130 141.6760110 135.5737600  87.1543290 142.7279710
 134.7422480  86.8992000 143.1276220 136.1818580  87.2254060 143.4637630
 145.5779200  91.2483670 140.6303080 145.1160730  90.4770910 140.9590250
 146.3904750  91.2749740 141.1355530 135.5538860  91.1883380 142.9237730
 135.8566900  90.2981120 142.7447950 136.2982450  91.7453600 142.6959980
 133.9829550  82.1145180 136.5122100 133.0946250  82.4561150 136.4101980
 134.2670740  81.9145500 135.6202930 131.9462560  84.7150830 142.3961800
 132.5178670  83.9473030 142.3965440 131.9464100  85.0139590 141.4868410
 141.8042510  93.5341680 140.2507070 141.1853950  93.9899180 139.6801510
 142.6594290  93.6893140 139.8496770 140.9980760  89.5180670 141.8574110
 140.9289040  88.5770610 141.6963240 141.7600620  89.6082080 142.4296680
 133.1887430  80.1235190 144.1830730 133.0090270  79.2260940 144.4633490
 132.7867510  80.6707060 144.8577680 142.0285930  82.3251050 142.0843040
 142.4050750  81.4522930 141.9716710 141.9305440  82.6609750 141.1933480
 136.1590940  80.6976680 137.5460480 136.2657690  81.5980410 137.8529240
 135.2483300  80.6494650 137.2555130 145.8110050  79.8201490 139.0171380
 146.6319670  79.3298060 139.0596860 145.8444130  80.4099150 139.7703220
 133.8074100  82.6195690 142.7913070 134.4884210  82.8834060 143.4100470
 133.4922150  81.7796560 143.1251080 137.9998670  83.6663050 141.8785660
 138.5076890  84.1644020 142.5190680 138.5311910  82.8898250 141.7025020
 136.2834770  78.3061610 146.1449080 136.2853210  78.8234000 145.3394980
 135.4539080  77.8291790 146.1219010 142.6705860  88.4180920 137.6438980
 142.0523130  88.8830370 137.0801700 143.1829110  89.1108400 138.0608490
 137.5337620  87.9456790 144.3222580 137.2007000  88.5725710 144.9643650
 137.7104300  88.4718670 143.5424250 146.0471530  81.7601870 141.7898920
 145.3427100  82.0486760 142.3702030 146.4083690  82.5701980 141.4298480
 135.9650100  80.0171570 144.1519530 136.3066910  80.8613620 143.8573400
 135.0265910  80.1655310 144.2684870 136.7456720  89.9137590 146.1371760
 137.3630720  90.5888670 145.8556210 135.8849840  90.3225570 146.0459260
 132.0389060  89.1037450 135.0178610 131.6617040  89.5924550 134.2863510
 132.2962130  89.7762730 135.6485140 147.6634310  91.3777000 144.0526400
 146.9797830  92.0476110 144.0443070 148.2028600  91.5757650 143.2871260
 139.6477990  77.5053840 140.4764120 139.9552970  76.9500730 139.7599620
 138.7178690  77.6398300 140.2937110 145.1993050  93.2221130 142.7671580
 145.2120210  92.8183420 141.8993840 144.6468270  93.9968420 142.6633010
 146.4938470  89.9437350 137.8561750 146.3834800  89.0011680 137.9811170
 146.4906720  90.3052990 138.7424510 144.5978490  88.1250970 144.0954190
 145.0147280  87.9111080 143.2607650 145.3218310  88.3823760 144.6662810
 142.0358750  85.5702670 137.2124240 141.1088030  85.5040050 137.4412710
 142.1883570  86.5082800 137.0979480 142.0227830  81.8419670 134.2091400
 141.0831500  82.0033630 134.2943860 142.3411090  82.5605350 133.6627390
 146.0656040  87.1322970 137.7159490 145.4468460  86.7942520 137.0685790
 146.0480490  86.4882730 138.4238680 145.5082600  83.3107510 145.1325300
 145.0953780  84.1361220 145.3865290 144.7758550  82.7252550 144.9401660
 137.6415390  86.0967410 139.9943970 137.2372390  85.3844660 139.4989870
 137.7278510  85.7520650 140.8832010 138.1097090  89.7834970 142.1583180
 137.8125380  89.1780440 141.4790960 139.0596910  89.8212280 142.0472540
 136.3544010  82.8710620 143.7743010 136.9058600  82.9805960 142.9996260
 136.8687520  83.2448220 144.4898240 146.1982700  93.3566840 145.8206280
 145.7213260  94.1639030 145.6278890 145.5144490  92.7045170 145.9732490
 137.2015520  89.5216660 148.8090980 136.3044050  89.7456630 149.0564380
 137.2268390  89.6451600 147.8602380 144.2420740  86.3709780 134.7232240
 144.6814020  85.5332210 134.5770060 144.9549160  87.0039180 134.8096380
 136.0286740  86.3929980 147.3848350 135.8894510  87.2652780 147.7535750
 135.1468100  86.0502790 147.2396290 142.3516120  91.3105850 138.6913480
 142.7912030  92.0530180 138.2768870 142.2903010  91.5532420 139.6152440
 137.8267090  92.3351680 149.5933500 137.7982520  92.7394630 148.7261930
 137.6632060  91.4062040 149.4305100 147.8237880  77.6252590 133.0373280
 147.5110540  77.7179420 133.9372350 148.5850350  78.2033620 132.9870710
 134.3420020  84.9912390 137.4950620 134.2217620  85.7174480 136.8831890
 134.0320910  84.2215300 137.0178530 131.9805390  88.1627530 143.3019260
 132.0585810  88.2976300 142.3574980 132.5947070  87.4543420 143.4947380
 133.2253020  89.8627720 139.7125440 132.8181100  90.0042310 138.8579040
 134.1166030  89.5787880 139.5096650 143.0431900  94.0119630 146.6192490
 143.5576570  93.9227640 147.4214920 142.2000980  94.3579330 146.9120400
 145.0186300  94.2974970 136.0476490 144.8587440  94.0077910 136.9458320
 144.8533010  93.5215100 135.5121720 137.4974680  94.0773500 137.8248110
 137.3217160  93.1609040 137.6115910 136.6430420  94.4360790 138.0645910
 144.7212430  91.8062530 134.6074490 144.0277590  91.8039820 133.9476770
 145.4635290  91.3821850 134.1768660 144.2862360  93.4325240 138.6822980
 144.7419310  92.6514620 138.9961600 144.6254880  94.1432060 139.2264160
 132.0364910  89.2041700 145.8413720 132.1995950  88.7347060 145.0233090
 132.5017360  88.6965260 146.5062560 136.8083680  78.3347460 140.8774290
 136.3651830  79.1157000 140.5458810 137.3668670  78.6577350 141.5845230
 141.0953490  81.2015980 146.4809610 140.6332860  81.4099000 147.2929550
 140.6931600  80.3875330 146.1780280 146.0958000  82.4224930 147.6106270
 145.2451590  82.1230680 147.9315340 145.9359790  82.6666940 146.6990090
 143.1907710  83.9226680 149.7105060 143.5161120  83.0890430 149.3707290
 143.9788040  84.4455200 149.8583390 139.9242500  77.9558160 135.7580120
 139.2996680  77.9518030 136.4833430 139.8372620  77.0889120 135.3616090
 138.8459580  78.8794790 142.7363890 139.1431910  79.7857620 142.6555910
 139.3945140  78.3913570 142.1223460 136.5997900  83.4581030 138.6055540
 136.3738820  83.2418200 139.5102160 135.8190430  83.8909490 138.2601510
 143.8295660  83.4644400 137.2046190 143.2304550  84.1880200 137.0209810
 144.3775270  83.4021180 136.4222640 139.0397110  84.3566610 149.2715810
 138.9440710  83.4161340 149.1216210 139.8829090  84.5781680 148.8763880
 142.4360530  82.1007940 139.2349470 142.8290100  82.4180140 138.4218160
 142.7977380  81.2219820 139.3493990 134.1707650  80.7680280 147.4249590
 133.7771040  81.6155490 147.6322370 133.4826050  80.1306650 147.6158230
 131.4724700  78.6908740 141.4579670 131.1837750  79.2611600 142.1704650
 132.2170460  78.2113190 141.8210900 131.6594930  82.6328860 132.6682390
 131.5769600  83.5759620 132.8097380 131.3077990  82.4903770 131.7894740
 143.0215670  84.6913690 143.3300250 142.2896790  85.2000500 143.6790350
 142.6240010  83.8743670 143.0289030 139.4593060  81.3667890 141.7352740
 139.4629120  80.9257840 140.8857280 140.3544180  81.6885220 141.8424560
 135.3095440  81.2494380 140.6946950 134.9695490  81.7269610 141.4514000
 134.5472760  80.7959500 140.3348050 139.5213210  82.3679970 134.7259500
 139.6426030  82.3266450 135.6745320 139.1361720  83.2304120 134.5706230
 143.4841580  80.1447370 142.7423190 143.5014320  80.5956020 143.5865040
 143.2357160  79.2453010 142.9556630 138.5334710  84.6781110 134.1242800
 137.9651610  84.2299360 133.4978710 139.2423710  85.0373890 133.5907950
 146.9112330  77.5579550 148.5809570 147.2358100  76.8269210 149.1067550
 146.9468840  77.2393190 147.6790560 133.6103890  88.5793130 148.0009530
 133.2258680  87.9386800 148.5992490 133.9216080  89.2829250 148.5704260
 139.7601030  85.4269670 143.4818150 140.1271160  84.9528240 144.2279490
 139.5706090  86.3011240 143.8226490 132.6241520  80.1713360 139.6111620
 132.3388440  79.8069030 140.4490240 132.5620380  79.4393820 138.9974760
 137.5500400  84.4678310 145.8002360 137.2457470  85.3470290 146.0252720
 138.5046860  84.5278100 145.8359800 136.0782190  88.6739300 136.3969210
 135.3044450  88.1336920 136.2367930 136.8076820  88.1545910 136.0586970
 146.8370170  87.6704660 142.1895600 147.5569290  88.1659950 141.7991710
 146.6351990  86.9922550 141.5449470 142.2980110  79.0642620 136.3324990
 141.4844720  78.5655790 136.2570300 142.1042060  79.9040870 135.9161340
 142.2188970  87.7413720 148.0764600 142.1526280  86.8209390 147.8222190
 141.5894110  87.8389160 148.7909240 145.0128500  83.4362270 134.6287150
 145.9008120  83.7479500 134.4538490 144.9833590  82.5634520 134.2367730
 136.1219590  88.3419680 140.0348020 136.6398260  87.5387940 139.9804910
 135.6703610  88.2798820 140.8764850 141.0089090  89.6085960 135.3075320
 141.3504790  90.3528190 134.8118640 140.1801800  89.9217080 135.6700150
 133.6064130  85.3081050 146.9473720 133.2479070  85.9734900 147.5347060
 133.3118690  84.4764600 147.3186340 136.8077250  85.7665290 149.8313270
 136.5077390  85.9122470 148.9341090 137.5788490  85.2070580 149.7386660
 142.1505700  90.5634290 147.8268400 142.1650240  89.6315250 147.6087310
 141.4430800  90.6494050 148.4658170 147.2842770  84.7474110 134.0967010
 147.2006490  85.1788330 133.2463450 148.0036960  85.2072460 134.5293830
 148.3130020  91.6016370 136.8249140 147.6706180  90.9471990 137.0992860
 147.9260680  92.0071460 136.0489810 143.8916500  88.9301800 140.6720830
 144.2440320  88.3329930 140.0122200 143.0078830  88.6046030 140.8429080
 139.9779780  89.6899490 138.0791240 140.6650910  90.2368700 138.4598830
 139.1912200  90.2340220 138.1140850 132.1172180  85.3072310 133.5708320
 132.9867030  85.5897110 133.8544240 131.6262500  86.1208180 133.4557130
 139.2806990  86.6945520 137.6916600 139.7369770  87.5050770 137.9176790
 138.9295200  86.3768660 138.5235090 141.5839600  92.2051860 144.9208900
 142.2281820  92.4111240 145.5982320 141.9469040  91.4440260 144.4679750
 135.1818770  77.0383170 138.1639120 135.0533400  77.0301070 139.1124040
 134.3580790  77.3766260 137.8130130 142.8571680  90.2084210 143.6386350
 143.4993910  89.5077370 143.7518520 143.3821030  90.9882650 143.4583240
 146.7027400  90.4932830 133.3625490 146.4764980  89.7763270 133.9550130
 146.3123600  90.2445270 132.5247240 144.6309300  91.0079110 146.8422410
 144.9665540  91.5945800 147.5200330 143.7109640  90.8771820 147.0720200
 132.4843430  94.5199690 134.1369950 132.8441070  95.1189030 133.4827220
 132.3435770  95.0659580 134.9104980 132.1812700  78.7974290 147.6245820
 131.4671220  78.9971210 148.2298430 132.6007740  78.0213860 147.9960620
 146.2843650  88.4104770 135.0239650 145.9965350  88.8717460 135.8117530
 147.0795820  87.9502540 135.2923870 132.4685290  92.7854550 148.6112350
 132.5776410  91.8449290 148.4707740 131.8165850  93.0509300 147.9626080
 138.5012050  91.9030890 134.9543620 138.4922150  92.6360580 134.3388130
 137.5810410  91.6562470 135.0470580 134.1018690  87.1245780 135.6990380
 133.4946640  87.8644680 135.7085680 134.5768040  87.2145140 134.8728580
 143.6751480  81.2896600 145.3747270 144.0432300  80.4691810 145.7026840
 142.8149680  81.3498490 145.7902920 147.0413510  80.2453540 136.1834830
 146.4126670  80.3499210 135.4693060 146.5465430  80.4650320 136.9728710
 141.4871650  91.9659130 133.6168810 141.5883630  91.7623120 132.6870790
 140.5873390  91.7117410 133.8216590 139.0097540  82.5239490 137.5992710
 138.3013690  82.9925830 138.0406320 139.2942020  81.8661500 138.2337900
 140.6353470  83.9436190 145.5985240 141.1338720  84.4182010 146.2637090
 140.7776420  83.0199710 145.8055270 143.0412970  79.2490150 139.0388500
 142.9180750  79.2676280 138.0898010 143.9897530  79.2969090 139.1586900
 140.1289760  94.4845450 138.3116480 140.3831260  94.4466840 137.3895850
 139.1802240  94.3578780 138.3044730 137.2132560  80.8324570 134.9743420
 138.0623090  81.2694720 134.9083610 136.8463830  81.1444830 135.8015480
 147.8420330  80.1604150 146.4413630 147.3393930  80.9009550 146.7807440
 148.6576990  80.5488150 146.1250420 146.1342340  85.4037330 139.8874990
 145.1932480  85.4187560 140.0622680 146.4486410  84.6173290 140.3335290
 136.1123980  87.0856930 133.4478950 136.8787250  86.9738290 134.0104380
 136.1898670  86.3894900 132.7955720 134.8070740  84.5182000 134.1311840
 134.8874330  83.5709510 134.2429240 135.6990490  84.8488880 134.2372500
 135.6085450  94.6677390 141.2346380 136.3447930  94.1192850 141.5054950
 135.9926370  95.5333400 141.0952370 132.4930930  90.7350960 137.1087890
 131.5670710  90.9772100 137.0993300 132.9587360  91.5625220 136.9872640
 138.7187760  93.8407700 133.0571950 139.5116370  94.1296530 132.6053740
 138.1992110  93.4099870 132.3784430 144.8808730  93.6883620 148.9816780
 145.8330480  93.6041640 148.9317020 144.7336950  94.3525330 149.6550570
 147.7717930  93.0677830 134.4808690 147.4859440  92.6542970 133.6662870
 147.5737480  93.9965540 134.3609210 132.3341540  86.3396920 149.3668010
 132.8380560  85.7604200 149.9384240 131.5948960  86.6237150 149.9044380
 139.2365160  89.0611110 132.9214300 139.1315800  88.4463460 133.6475680
 139.0689380  88.5377000 132.1377310 139.3879480  87.7467910 148.9003530
 138.6225150  88.3152910 148.8158200 139.5695440  87.4544120 148.0071760
 142.4767890  88.1231140 133.5256290 141.9277990  88.5700440 134.1699030
 143.0987150  87.6180390 134.0493960 146.5302830  89.4773240 149.4578550
 147.2712300  89.8149000 148.9546010 145.7675510  89.6465300 148.9048320
 138.1443010  87.0822060 135.4221590 138.5659430  86.9161930 136.2652980
 138.2693850  86.2722290 134.9276730 136.3070430  83.0618610 148.2292570
 135.7766890  82.5709560 147.6015910 136.9758500  83.4902810 147.6950500
 140.6570650  86.1059670 132.6698690 141.1776310  85.3908690 132.3039840
 141.3039050  86.7445540 132.9699200 145.2048490  87.5288070 147.9933760
 145.6189510  87.6833150 148.8424180 144.2699490  87.6543290 148.1559540
 145.6770660  84.8684230 149.9972910 146.2591430  84.1136550 149.9093390
 145.8532430  85.3991670 149.2204390 136.7942730  80.0280980 148.3089860
 136.6999600  79.4101730 147.5840730 136.2140120  80.7547270 148.0819770
 139.5604170  78.5854220 145.3417250 139.1121470  78.6078480 144.4962800
 138.9269370  78.1873240 145.9387550 139.9663720  87.4808550 145.9629690
 140.3851830  88.3241280 145.7905930 139.0472350  87.6180590 145.7336470
 142.3027620  85.2124730 147.3467530 142.4223830  84.6165870 148.0862370
 143.1621620  85.2494420 146.9268830 144.6415520  85.7661920 145.9230040
 144.1150740  86.2904540 145.3195180 144.9846860  86.3989310 146.5539770
 137.0401910  83.1555290 132.3679750 136.8390970  82.2922650 132.7293090
 136.8693960  83.0688650 131.4301350 137.8171140  93.7861560 147.0787420
 137.2792230  94.5107620 146.7596120 138.0705100  93.3091900 146.2884760
 139.0696390  81.7546080 148.6043350 139.6596080  81.4461930 149.2921170
 138.2516630  81.2825830 148.7603250 143.8889820  81.3711890 148.8376370
 143.2005340  80.7093430 148.7726360 144.6095840  80.9250160 149.2824830
 144.5190220  77.9663520 134.8966630 144.7992510  77.1231420 135.2526050
 143.7455950  78.1986630 135.4105380 135.8384710  80.2555910 132.3557630
 136.1410610  80.2623340 131.4476780 136.5779300  79.9053770 132.8525290
 140.6733350  95.0212770 147.3374070 140.5992050  95.9247910 147.6446440
 139.7712190  94.7024670 147.3096140 139.0569640  79.1990530 133.3413830
 138.7091640  78.5214520 132.7616280 139.2582410  78.7380040 134.1557220
 141.2218680  94.1871280 134.9600430 142.1169470  94.5256250 134.9819190
 141.2536310  93.4650690 134.3324710 134.8614840  89.5598330 133.1887430
 135.2989710  90.1028000 133.8445010 135.3462570  88.7345280 133.1983770
 132.0760640  92.3487360 140.6407690 132.4063650  91.4808420 140.4086330
 132.5051640  92.5545880 141.4712650 136.6722560  90.6796370 138.3009660
 136.3718100  90.5561340 139.2013570 136.5660050  89.8204960 137.8925390
 132.5650850  93.2157950 143.3789320 132.1281840  93.3958750 144.2113470
 133.1328530  93.9732570 143.2371040 148.2013030  92.7174950 147.6666630
 147.6015020  92.7767510 146.9230550 148.3306930  91.7779930 147.7963480
 132.3975280  85.7278180 139.7378200 131.7424120  85.4589820 139.0937900
 133.2353230  85.6182660 139.2880180 146.8864670  89.4426930 145.7642790
 146.0724510  89.8724090 146.0268580 147.2938870  90.0545340 145.1511840
 145.3465720  80.5219470 133.9596690 145.7650600  80.3350450 133.1193350
 145.0401780  79.6698520 134.2699620 133.4351210  86.1130750 144.2781540
 133.8024250  86.0258150 145.1577560 132.8662030  85.3497300 144.1788400
 148.2355070  84.5815130 147.2912010 148.0041160  84.3527880 146.3909960
 148.4959620  85.5014680 147.2456900 132.9867210  83.0239840 148.1839960
 132.0923260  82.9906600 148.5233670 133.5264760  83.2226630 148.9491210
 131.6113360  82.9377110 135.6803530 130.7077440  83.2007310 135.5055190
 132.0953980  83.2088280 134.9003490 148.2996130  83.7440970 144.4799280
 147.3498840  83.7104510 144.5944270 148.4809140  84.6541080 144.2449050
 134.1540570  81.9942650 133.5897910 134.8632270  81.5725870 133.1045190
 133.4380510  82.0617880 132.9581260 133.8014730  78.0481980 132.6300560
 134.5242860  78.5890920 132.9481780 134.0739250  77.7745400 131.7542100
 147.6106380  82.9174450 136.8972140 148.1065500  82.6845320 137.6821020
 147.4122450  82.0786290 136.4809780 133.4906920  77.2988170 142.5323180
 134.1383110  76.7485550 142.0918340 133.9108760  77.5531320 143.3538990
 147.3859260  77.4929530 145.8892820 148.0231480  78.1063670 146.2552010
 147.5334150  77.5290190 144.9442050 146.9440720  94.1945530 139.2911060
 147.5399790  93.8730100 138.6145480 147.2018870  93.7217350 140.0824330
 133.2438920  77.4543840 145.2748500 132.8953740  77.9107660 146.0406680
 132.9126620  76.5600970 145.3570930 138.5509320  92.1823030 145.0411410
 138.3100680  92.4497590 144.1541930 139.4911960  92.3528760 145.0962270
 140.7563740  78.6455720 148.7967920 140.6952630  79.2377550 149.5463330
 141.6964120  78.5381680 148.6518180 143.3938300  78.3025780 148.4360210
 144.0078710  78.6205070 147.7741290 143.9387860  77.8174370 149.0556070
 133.9159560  76.9820040 148.5499270 134.4642550  76.8008090 147.7865380
 133.9814870  76.1914150 149.0855580 134.6891320  93.5725690 146.5599470
 134.0951640  93.4410390 147.2989510 134.6815160  92.7363830 146.0941570
 144.1346340  76.8657920 144.7629500 143.2606180  77.1993030 144.5602430
 144.0257090  76.3931100 145.5881370 145.0418320  79.0728790 146.1471220
 144.7131680  78.2580550 145.7672950 145.9900620  79.0298600 146.0236910
 147.4952930  94.8440830 143.1208790 147.0355900  95.5956640 142.7466810
 146.8665390  94.1247300 143.0623590 134.3203550  90.9384070 145.5107510
 133.5937610  90.3189360 145.4433460 134.3812700  91.3324680 144.6405590
 137.9248650  93.1529070 142.2956920 138.4413670  92.5416430 141.7705180
 138.5746030  93.6557850 142.7867930 140.6644150  94.0437560 143.1225900
 140.9521960  93.7891860 142.2458910 141.1767370  93.4914920 143.7131470
 141.8821160  77.7827760 143.7022410 141.0992950  78.2573260 143.9819170
 141.5884090  76.8782590 143.5935590 146.4342230  78.4850860 141.7471500
 146.8750320  78.4295960 140.8993100 146.1649820  79.4008870 141.8181680
 132.6033550  94.2558460 138.7204270 132.4355590  93.6229140 139.4186160
 131.7368060  94.4617860 138.3698460 133.2261570  78.0875240 136.2236130
 133.9840930  78.2004120 135.6500160 132.7638740  78.9244440 136.1779560
 139.7675380  80.2014510 139.2138440 138.9549890  79.8271400 138.8734320
 140.2717020  79.4459590 139.5159630 144.2700360  76.8656960 140.4521510
 144.8729730  77.4377170 140.9270030 143.5293350  77.4296400 140.2295410
 147.4134960  77.2678520 135.7261790 147.6085590  78.1661970 135.9929220
 146.6264830  77.0365600 136.2194740 134.2096250  92.9491690 136.1654410
 133.6843870  93.3299720 135.4616370 134.1340830  93.5742460 136.8864120
 135.5986720  78.6139290 134.7638100 136.1279480  77.8269090 134.6346050
 136.2315040  79.2930480 134.9973630 137.7924560  78.3514430 137.8183490
 137.1627300  77.6501740 137.9853620 137.2529700  79.1118560 137.6016650
 136.8089220  94.8974070 135.0403660 137.5408040  94.6133350 134.4927550
 137.0682890  94.6587350 135.9303040 135.9704010  91.0138800 135.0449990
 135.3412890  91.4823900 135.5935820 136.0851840  90.1688020 135.4796180
 143.4253730  85.0644460 121.1951190 143.3447780  84.1499070 120.9242900
 143.0118150  85.5611530 120.4890900 141.5571770  86.8423480 123.0760460
 140.7813870  86.3623920 123.3659030 142.2084700  86.1629130 122.9016620
 135.5737600  87.1543290 123.9536220 134.7422480  86.8992000 124.3532730
 136.1818580  87.2254060 124.6894140 145.5779200  91.2483670 121.8559590
 145.1160730  90.4770910 122.1846760 146.3904750  91.2749740 122.3612040
 135.5538860  91.1883380 124.1494240 135.8566900  90.2981120 123.9704460
 136.2982450  91.7453600 123.9216490 133.9829550  82.1145180 117.7378610
 133.0946250  82.4561150 117.6358490 134.2670740  81.9145500 116.8459440
 131.9462560  84.7150830 123.6218310 132.5178670  83.9473030 123.6221950
 131.9464100  85.0139590 122.7124920 141.8042510  93.5341680 121.4763580
 141.1853950  93.9899180 120.9058020 142.6594290  93.6893140 121.0753280
 140.9980760  89.5180670 123.0830620 140.9289040  88.5770610 122.9219750
 141.7600620  89.6082080 123.6553190 133.1887430  80.1235190 125.4087240
 133.0090270  79.2260940 125.6890000 132.7867510  80.6707060 126.0834190
 142.0285930  82.3251050 123.3099550 142.4050750  81.4522930 123.1973220
 141.9305440  82.6609750 122.4189990 136.1590940  80.6976680 118.7716990
 136.2657690  81.5980410 119.0785750 135.2483300  80.6494650 118.4811640
 145.8110050  79.8201490 120.2427890 146.6319670  79.3298060 120.2853370
 145.8444130  80.4099150 120.9959730 133.8074100  82.6195690 124.0169580
 134.4884210  82.8834060 124.6356980 133.4922150  81.7796560 124.3507590
 137.9998670  83.6663050 123.1042170 138.5076890  84.1644020 123.7447190
 138.5311910  82.8898250 122.9281530 136.2834770  78.3061610 127.3705590
 136.2853210  78.8234000 126.5651490 135.4539080  77.8291790 127.3475520
 142.6705860  88.4180920 118.8695490 142.0523130  88.8830370 118.3058210
 143.1829110  89.1108400 119.2865000 137.5337620  87.9456790 125.5479090
 137.2007000  88.5725710 126.1900160 137.7104300  88.4718670 124.7680760
 146.0471530  81.7601870 123.0155430 145.3427100  82.0486760 123.5958540
 146.4083690  82.5701980 122.6554990 135.9650100  80.0171570 125.3776040
 136.3066910  80.8613620 125.0829910 135.0265910  80.1655310 125.4941380
 136.7456720  89.9137590 127.3628270 137.3630720  90.5888670 127.0812720
 135.8849840  90.3225570 127.2715770 132.0389060  89.1037450 116.2435120
 131.6617040  89.5924550 115.5120020 132.2962130  89.7762730 116.8741650
 147.6634310  91.3777000 125.2782910 146.9797830  92.0476110 125.2699580
 148.2028600  91.5757650 124.5127770 139.6477990  77.5053840 121.7020630
 139.9552970  76.9500730 120.9856130 138.7178690  77.6398300 121.5193620
 145.1993050  93.2221130 123.9928090 145.2120210  92.8183420 123.1250350
 144.6468270  93.9968420 123.8889520 146.4938470  89.9437350 119.0818260
 146.3834800  89.0011680 119.2067680 146.4906720  90.3052990 119.9681020
 144.5978490  88.1250970 125.3210700 145.0147280  87.9111080 124.4864160
 145.3218310  88.3823760 125.8919320 142.0358750  85.5702670 118.4380750
 141.1088030  85.5040050 118.6669220 142.1883570  86.5082800 118.3235990
 142.0227830  81.8419670 115.4347910 141.0831500  82.0033630 115.5200370
 142.3411090  82.5605350 114.8883900 146.0656040  87.1322970 118.9416000
 145.4468460  86.7942520 118.2942300 146.0480490  86.4882730 119.6495190
 145.5082600  83.3107510 126.3581810 145.0953780  84.1361220 126.6121800
 144.7758550  82.7252550 126.1658170 137.6415390  86.0967410 121.2200480
 137.2372390  85.3844660 120.7246380 137.7278510  85.7520650 122.1088520
 138.1097090  89.7834970 123.3839690 137.8125380  89.1780440 122.7047470
 139.0596910  89.8212280 123.2729050 136.3544010  82.8710620 124.9999520
 136.9058600  82.9805960 124.2252770 136.8687520  83.2448220 125.7154750
 146.1982700  93.3566840 127.0462790 145.7213260  94.1639030 126.8535400
 145.5144490  92.7045170 127.1989000 137.2015520  89.5216660 130.0347490
 136.3044050  89.7456630 130.2820890 137.2268390  89.6451600 129.0858890
 144.2420740  86.3709780 115.9488750 144.6814020  85.5332210 115.8026570
 144.9549160  87.0039180 116.0352890 136.0286740  86.3929980 128.6104860
 135.8894510  87.2652780 128.9792260 135.1468100  86.0502790 128.4652800
 142.3516120  91.3105850 119.9169990 142.7912030  92.0530180 119.5025380
 142.2903010  91.5532420 120.8408950 137.8267090  92.3351680 130.8190010
 137.7982520  92.7394630 129.9518440 137.6632060  91.4062040 130.6561610
 147.8237880  77.6252590 114.2629790 147.5110540  77.7179420 115.1628860
 148.5850350  78.2033620 114.2127220 134.3420020  84.9912390 118.7207130
 134.2217620  85.7174480 118.1088400 134.0320910  84.2215300 118.2435040
 131.9805390  88.1627530 124.5275770 132.0585810  88.2976300 123.5831490
 132.5947070  87.4543420 124.7203890 133.2253020  89.8627720 120.9381950
 132.8181100  90.0042310 120.0835550 134.1166030  89.5787880 120.7353160
 143.0431900  94.0119630 127.8449000 143.5576570  93.9227640 128.6471430
 142.2000980  94.3579330 128.1376910 145.0186300  94.2974970 117.2733000
 144.8587440  94.0077910 118.1714830 144.8533010  93.5215100 116.7378230
 137.4974680  94.0773500 119.0504620 137.3217160  93.1609040 118.8372420
 136.6430420  94.4360790 119.2902420 144.7212430  91.8062530 115.8331000
 144.0277590  91.8039820 115.1733280 145.4635290  91.3821850 115.4025170
 144.2862360  93.4325240 119.9079490 144.7419310  92.6514620 120.2218110
 144.6254880  94.1432060 120.4520670 132.0364910  89.2041700 127.0670230
 132.1995950  88.7347060 126.2489600 132.5017360  88.6965260 127.7319070
 136.8083680  78.3347460 122.1030800 136.3651830  79.1157000 121.7715320
 137.3668670  78.6577350 122.8101740 141.0953490  81.2015980 127.7066120
 140.6332860  81.4099000 128.5186060 140.6931600  80.3875330 127.4036790
 146.0958000  82.4224930 128.8362780 145.2451590  82.1230680 129.1571850
 145.9359790  82.6666940 127.9246600 143.1907710  83.9226680 130.9361570
 143.5161120  83.0890430 130.5963800 143.9788040  84.4455200 131.0839900
 139.9242500  77.9558160 116.9836630 139.2996680  77.9518030 117.7089940
 139.8372620  77.0889120 116.5872600 138.8459580  78.8794790 123.9620400
 139.1431910  79.7857620 123.8812420 139.3945140  78.3913570 123.3479970
 136.5997900  83.4581030 119.8312050 136.3738820  83.2418200 120.7358670
 135.8190430  83.8909490 119.4858020 143.8295660  83.4644400 118.4302700
 143.2304550  84.1880200 118.2466320 144.3775270  83.4021180 117.6479150
 139.0397110  84.3566610 130.4972320 138.9440710  83.4161340 130.3472720
 139.8829090  84.5781680 130.1020390 142.4360530  82.1007940 120.4605980
 142.8290100  82.4180140 119.6474670 142.7977380  81.2219820 120.5750500
 134.1707650  80.7680280 128.6506100 133.7771040  81.6155490 128.8578880
 133.4826050  80.1306650 128.8414740 140.7452700  80.8515250 131.7202840
 140.0551020  80.6587450 132.3548930 141.4885000  81.1349890 132.2527140
 131.4724700  78.6908740 122.6836180 131.1837750  79.2611600 123.3961160
 132.2170460  78.2113190 123.0467410 131.6594930  82.6328860 113.8938900
 131.5769600  83.5759620 114.0353890 131.3077990  82.4903770 113.0151250
 143.0215670  84.6913690 124.5556760 142.2896790  85.2000500 124.9046860
 142.6240010  83.8743670 124.2545540 139.4593060  81.3667890 122.9609250
 139.4629120  80.9257840 122.1113790 140.3544180  81.6885220 123.0681070
 135.3095440  81.2494380 121.9203460 134.9695490  81.7269610 122.6770510
 134.5472760  80.7959500 121.5604560 139.5213210  82.3679970 115.9516010
 139.6426030  82.3266450 116.9001830 139.1361720  83.2304120 115.7962740
 143.4841580  80.1447370 123.9679700 143.5014320  80.5956020 124.8121550
 143.2357160  79.2453010 124.1813140 138.5334710  84.6781110 115.3499310
 137.9651610  84.2299360 114.7235220 139.2423710  85.0373890 114.8164460
 146.9112330  77.5579550 129.8066080 147.2358100  76.8269210 130.3324060
 146.9468840  77.2393190 128.9047070 133.6103890  88.5793130 129.2266040
 133.2258680  87.9386800 129.8249000 133.9216080  89.2829250 129.7960770
 139.7601030  85.4269670 124.7074660 140.1271160  84.9528240 125.4536000
 139.5706090  86.3011240 125.0483000 132.6241520  80.1713360 120.8368130
 132.3388440  79.8069030 121.6746750 132.5620380  79.4393820 120.2231270
 137.5500400  84.4678310 127.0258870 137.2457470  85.3470290 127.2509230
 138.5046860  84.5278100 127.0616310 136.0782190  88.6739300 117.6225720
 135.3044450  88.1336920 117.4624440 136.8076820  88.1545910 117.2843480
 146.8370170  87.6704660 123.4152110 147.5569290  88.1659950 123.0248220
 146.6351990  86.9922550 122.7705980 142.2980110  79.0642620 117.5581500
 141.4844720  78.5655790 117.4826810 142.1042060  79.9040870 117.1417850
 142.2188970  87.7413720 129.3021110 142.1526280  86.8209390 129.0478700
 141.5894110  87.8389160 130.0165750 145.0128500  83.4362270 115.8543660
 145.9008120  83.7479500 115.6795000 144.9833590  82.5634520 115.4624240
 136.1219590  88.3419680 121.2604530 136.6398260  87.5387940 121.2061420
 135.6703610  88.2798820 122.1021360 141.0089090  89.6085960 116.5331830
 141.3504790  90.3528190 116.0375150 140.1801800  89.9217080 116.8956660
 133.6064130  85.3081050 128.1730230 133.2479070  85.9734900 128.7603570
 133.3118690  84.4764600 128.5442850 136.8077250  85.7665290 131.0569780
 136.5077390  85.9122470 130.1597600 137.5788490  85.2070580 130.9643170
 142.1505700  90.5634290 129.0524910 142.1650240  89.6315250 128.8343820
 141.4430800  90.6494050 129.6914680 147.2842770  84.7474110 115.3223520
 147.2006490  85.1788330 114.4719960 148.0036960  85.2072460 115.7550340
 148.3130020  91.6016370 118.0505650 147.6706180  90.9471990 118.3249370
 147.9260680  92.0071460 117.2746320 143.8916500  88.9301800 121.8977340
 144.2440320  88.3329930 121.2378710 143.0078830  88.6046030 122.0685590
 139.9779780  89.6899490 119.3047750 140.6650910  90.2368700 119.6855340
 139.1912200  90.2340220 119.3397360 132.1172180  85.3072310 114.7964830
 132.9867030  85.5897110 115.0800750 131.6262500  86.1208180 114.6813640
 139.2806990  86.6945520 118.9173110 139.7369770  87.5050770 119.1433300
 138.9295200  86.3768660 119.7491600 141.5839600  92.2051860 126.1465410
 142.2281820  92.4111240 126.8238830 141.9469040  91.4440260 125.6936260
 135.1818770  77.0383170 119.3895630 135.0533400  77.0301070 120.3380550
 134.3580790  77.3766260 119.0386640 142.8571680  90.2084210 124.8642860
 143.4993910  89.5077370 124.9775030 143.3821030  90.9882650 124.6839750
 146.7027400  90.4932830 114.5882000 146.4764980  89.7763270 115.1806640
 146.3123600  90.2445270 113.7503750 144.6309300  91.0079110 128.0678920
 144.9665540  91.5945800 128.7456840 143.7109640  90.8771820 128.2976710
 132.4843430  94.5199690 115.3626460 132.8441070  95.1189030 114.7083730
 132.3435770  95.0659580 116.1361490 132.1812700  78.7974290 128.8502330
 131.4671220  78.9971210 129.4554940 132.6007740  78.0213860 129.2217130
 146.2843650  88.4104770 116.2496160 145.9965350  88.8717460 117.0374040
 147.0795820  87.9502540 116.5180380 132.4685290  92.7854550 129.8368860
 132.5776410  91.8449290 129.6964250 131.8165850  93.0509300 129.1882590
 140.4597880  91.0570440 131.2366980 140.1394750  90.3379680 131.7812670
 139.7856240  91.7325510 131.3103040 138.5012050  91.9030890 116.1800130
 138.4922150  92.6360580 115.5644640 137.5810410  91.6562470 116.2727090
 134.1018690  87.1245780 116.9246890 133.4946640  87.8644680 116.9342190
 134.5768040  87.2145140 116.0985090 143.6751480  81.2896600 126.6003780
 144.0432300  80.4691810 126.9283350 142.8149680  81.3498490 127.0159430
 147.0413510  80.2453540 117.4091340 146.4126670  80.3499210 116.6949570
 146.5465430  80.4650320 118.1985220 141.4871650  91.9659130 114.8425320
 141.5883630  91.7623120 113.9127300 140.5873390  91.7117410 115.0473100
 139.0097540  82.5239490 118.8249220 138.3013690  82.9925830 119.2662830
 139.2942020  81.8661500 119.4594410 140.6353470  83.9436190 126.8241750
 141.1338720  84.4182010 127.4893600 140.7776420  83.0199710 127.0311780
 143.0412970  79.2490150 120.2645010 142.9180750  79.2676280 119.3154520
 143.9897530  79.2969090 120.3843410 140.1289760  94.4845450 119.5372990
 140.3831260  94.4466840 118.6152360 139.1802240  94.3578780 119.5301240
 137.2132560  80.8324570 116.1999930 138.0623090  81.2694720 116.1340120
 136.8463830  81.1444830 117.0271990 147.8420330  80.1604150 127.6670140
 147.3393930  80.9009550 128.0063950 148.6576990  80.5488150 127.3506930
 146.1342340  85.4037330 121.1131500 145.1932480  85.4187560 121.2879190
 146.4486410  84.6173290 121.5591800 136.1123980  87.0856930 114.6735460
 136.8787250  86.9738290 115.2360890 136.1898670  86.3894900 114.0212230
 134.8070740  84.5182000 115.3568350 134.8874330  83.5709510 115.4685750
 135.6990490  84.8488880 115.4629010 135.6085450  94.6677390 122.4602890
 136.3447930  94.1192850 122.7311460 135.9926370  95.5333400 122.3208880
 132.4930930  90.7350960 118.3344400 131.5670710  90.9772100 118.3249810
 132.9587360  91.5625220 118.2129150 134.6143730  93.8523460 131.6488470
 135.4156460  94.1735510 132.0623870 134.0995550  93.4919040 132.3708380
 138.7187760  93.8407700 114.2828460 139.5116370  94.1296530 113.8310250
 138.1992110  93.4099870 113.6040940 143.4508360  89.9603330 131.5963880
 142.8446520  89.9834930 130.8559630 143.1462470  89.2286370 132.1331130
 144.8808730  93.6883620 130.2073290 145.8330480  93.6041640 130.1573530
 144.7336950  94.3525330 130.8807080 147.7717930  93.0677830 115.7065200
 147.4859440  92.6542970 114.8919380 147.5737480  93.9965540 115.5865720
 132.3341540  86.3396920 130.5924520 132.8380560  85.7604200 131.1640750
 131.5948960  86.6237150 131.1300890 139.2365160  89.0611110 114.1470810
 139.1315800  88.4463460 114.8732190 139.0689380  88.5377000 113.3633820
 139.3879480  87.7467910 130.1260040 138.6225150  88.3152910 130.0414710
 139.5695440  87.4544120 129.2328270 142.4767890  88.1231140 114.7512800
 141.9277990  88.5700440 115.3955540 143.0987150  87.6180390 115.2750470
 146.5302830  89.4773240 130.6835060 147.2712300  89.8149000 130.1802520
 145.7675510  89.6465300 130.1304830 134.3664620  84.4826510 131.4874590
 134.4069960  84.1840380 132.3959820 135.2210120  84.8834120 131.3282110
 138.1443010  87.0822060 116.6478100 138.5659430  86.9161930 117.4909490
 138.2693850  86.2722290 116.1533240 136.3070430  83.0618610 129.4549080
 135.7766890  82.5709560 128.8272420 136.9758500  83.4902810 128.9207010
 140.6570650  86.1059670 113.8955200 141.1776310  85.3908690 113.5296350
 141.3039050  86.7445540 114.1955710 145.2048490  87.5288070 129.2190270
 145.6189510  87.6833150 130.0680690 144.2699490  87.6543290 129.3816050
 145.6770660  84.8684230 131.2229420 146.2591430  84.1136550 131.1349900
 145.8532430  85.3991670 130.4460900 136.7942730  80.0280980 129.5346370
 136.6999600  79.4101730 128.8097240 136.2140120  80.7547270 129.3076280
 139.5604170  78.5854220 126.5673760 139.1121470  78.6078480 125.7219310
 138.9269370  78.1873240 127.1644060 139.9663720  87.4808550 127.1886200
 140.3851830  88.3241280 127.0162440 139.0472350  87.6180590 126.9592980
 142.3027620  85.2124730 128.5724040 142.4223830  84.6165870 129.3118880
 143.1621620  85.2494420 128.1525340 144.6415520  85.7661920 127.1486550
 144.1150740  86.2904540 126.5451690 144.9846860  86.3989310 127.7796280
 137.0401910  83.1555290 113.5936260 136.8390970  82.2922650 113.9549600
 136.8693960  83.0688650 112.6557860 137.8171140  93.7861560 128.3043930
 137.2792230  94.5107620 127.9852630 138.0705100  93.3091900 127.5141270
 139.0696390  81.7546080 129.8299860 139.6596080  81.4461930 130.5177680
 138.2516630  81.2825830 129.9859760 143.8889820  81.3711890 130.0632880
 143.2005340  80.7093430 129.9982870 144.6095840  80.9250160 130.5081340
 144.5190220  77.9663520 116.1223140 144.7992510  77.1231420 116.4782560
 143.7455950  78.1986630 116.6361890 135.8384710  80.2555910 113.5814140
 136.1410610  80.2623340 112.6733290 136.5779300  79.9053770 114.0781800
 140.6733350  95.0212770 128.5630580 140.5992050  95.9247910 128.8702950
 139.7712190  94.7024670 128.5352650 139.0569640  79.1990530 114.5670340
 138.7091640  78.5214520 113.9872790 139.2582410  78.7380040 115.3813730
 141.2218680  94.1871280 116.1856940 142.1169470  94.5256250 116.2075700
 141.2536310  93.4650690 115.5581220 134.8614840  89.5598330 114.4143940
 135.2989710  90.1028000 115.0701520 135.3462570  88.7345280 114.4240280
 132.0760640  92.3487360 121.8664200 132.4063650  91.4808420 121.6342840
 132.5051640  92.5545880 122.6969160 136.6722560  90.6796370 119.5266170
 136.3718100  90.5561340 120.4270080 136.5660050  89.8204960 119.1181900
 132.5650850  93.2157950 124.6045830 132.1281840  93.3958750 125.4369980
 133.1328530  93.9732570 124.4627550 148.2013030  92.7174950 128.8923140
 147.6015020  92.7767510 128.1487060 148.3306930  91.7779930 129.0219990
 132.3975280  85.7278180 120.9634710 131.7424120  85.4589820 120.3194410
 133.2353230  85.6182660 120.5136690 146.8864670  89.4426930 126.9899300
 146.0724510  89.8724090 127.2525090 147.2938870  90.0545340 126.3768350
 145.3465720  80.5219470 115.1853200 145.7650600  80.3350450 114.3449860
 145.0401780  79.6698520 115.4956130 133.4351210  86.1130750 125.5038050
 133.8024250  86.0258150 126.3834070 132.8662030  85.3497300 125.4044910
 148.2355070  84.5815130 128.5168520 148.0041160  84.3527880 127.6166470
 148.4959620  85.5014680 128.4713410 132.9867210  83.0239840 129.4096470
 132.0923260  82.9906600 129.7490180 133.5264760  83.2226630 130.1747720
 146.6743140  79.8071560 131.2948220 147.5513320  79.8154960 131.6782220
 146.6863980  79.0702400 130.6840570 131.6113360  82.9377110 116.9060040
 130.7077440  83.2007310 116.7311700 132.0953980  83.2088280 116.1260000
 148.2996130  83.7440970 125.7055790 147.3498840  83.7104510 125.8200780
 148.4809140  84.6541080 125.4705560 134.1540570  81.9942650 114.8154420
 134.8632270  81.5725870 114.3301700 133.4380510  82.0617880 114.1837770
 133.8014730  78.0481980 113.8557070 134.5242860  78.5890920 114.1738290
 134.0739250  77.7745400 112.9798610 147.6106380  82.9174450 118.1228650
 148.1065500  82.6845320 118.9077530 147.4122450  82.0786290 117.7066290
 133.4906920  77.2988170 123.7579690 134.1383110  76.7485550 123.3174850
 133.9108760  77.5531320 124.5795500 147.3859260  77.4929530 127.1149330
 148.0231480  78.1063670 127.4808520 147.5334150  77.5290190 126.1698560
 146.9440720  94.1945530 120.5167570 147.5399790  93.8730100 119.8401990
 147.2018870  93.7217350 121.3080840 133.2438920  77.4543840 126.5005010
 132.8953740  77.9107660 127.2663190 132.9126620  76.5600970 126.5827440
 134.8503290  90.6263440 130.6658200 134.8072920  90.2556350 131.5472660
 134.9814300  91.5641010 130.8060020 138.5509320  92.1823030 126.2667920
 138.3100680  92.4497590 125.3798440 139.4911960  92.3528760 126.3218780
 140.7563740  78.6455720 130.0224430 140.6952630  79.2377550 130.7719840
 141.6964120  78.5381680 129.8774690 143.3938300  78.3025780 129.6616720
 144.0078710  78.6205070 128.9997800 143.9387860  77.8174370 130.2812580
 133.9159560  76.9820040 129.7755780 134.4642550  76.8008090 129.0121890
 133.9814870  76.1914150 130.3112090 134.6891320  93.5725690 127.7855980
 134.0951640  93.4410390 128.5246020 134.6815160  92.7363830 127.3198080
 144.1346340  76.8657920 125.9886010 143.2606180  77.1993030 125.7858940
 144.0257090  76.3931100 126.8137880 145.0418320  79.0728790 127.3727730
 144.7131680  78.2580550 126.9929460 145.9900620  79.0298600 127.2493420
 147.4952930  94.8440830 124.3465300 147.0355900  95.5956640 123.9723320
 146.8665390  94.1247300 124.2880100 134.3203550  90.9384070 126.7364020
 133.5937610  90.3189360 126.6689970 134.3812700  91.3324680 125.8662100
 137.9248650  93.1529070 123.5213430 138.4413670  92.5416430 122.9961690
 138.5746030  93.6557850 124.0124440 140.6644150  94.0437560 124.3482410
 140.9521960  93.7891860 123.4715420 141.1767370  93.4914920 124.9387980
 141.8821160  77.7827760 124.9278920 141.0992950  78.2573260 125.2075680
 141.5884090  76.8782590 124.8192100 146.4342230  78.4850860 122.9728010
 146.8750320  78.4295960 122.1249610 146.1649820  79.4008870 123.0438190
 132.6033550  94.2558460 119.9460780 132.4355590  93.6229140 120.6442670
 131.7368060  94.4617860 119.5954970 133.2261570  78.0875240 117.4492640
 133.9840930  78.2004120 116.8756670 132.7638740  78.9244440 117.4036070
 139.7675380  80.2014510 120.4394950 138.9549890  79.8271400 120.0990830
 140.2717020  79.4459590 120.7416140 144.2700360  76.8656960 121.6778020
 144.8729730  77.4377170 122.1526540 143.5293350  77.4296400 121.4551920
 147.4134960  77.2678520 116.9518300 147.6085590  78.1661970 117.2185730
 146.6264830  77.0365600 117.4451250 134.2096250  92.9491690 117.3910920
 133.6843870  93.3299720 116.6872880 134.1340830  93.5742460 118.1120630
 135.5986720  78.6139290 115.9894610 136.1279480  77.8269090 115.8602560
 136.2315040  79.2930480 116.2230140 137.7924560  78.3514430 119.0440000
 137.1627300  77.6501740 119.2110130 137.2529700  79.1118560 118.8273160
 140.7316510  94.9653660 131.7150610 141.6583820  94.7297930 131.7586570
 140.7166940  95.7925660 131.2336640 137.9180120  77.6298410 131.4792490
 137.6364390  78.1332010 130.7153310 138.2999820  76.8320160 131.1134620
 136.8089220  94.8974070 116.2660170 137.5408040  94.6133350 115.7184060
 137.0682890  94.6587350 117.1559550 135.9704010  91.0138800 116.2706500
 135.3412890  91.4823900 116.8192330 136.0851840  90.1688020 116.7052690
 144.5195580  77.0451990 132.0572960 144.4061030  77.3646600 132.9524480
 145.3365320  77.4464500 131.7610240 147.2994070  94.1923520 131.5391650
 148.0919390  93.6972750 131.3317610 147.5927220  94.8713660 132.1467260
 143.4253730  85.0644460 102.4207700 143.3447780  84.1499070 102.1499410
 143.0118150  85.5611530 101.7147410 141.5571770  86.8423480 104.3016970
 140.7813870  86.3623920 104.5915540 142.2084700  86.1629130 104.1273130
 135.5737600  87.1543290 105.1792730 134.7422480  86.8992000 105.5789240
 136.1818580  87.2254060 105.9150650 145.5779200  91.2483670 103.0816100
 145.1160730  90.4770910 103.4103270 146.3904750  91.2749740 103.5868550
 135.5538860  91.1883380 105.3750750 135.8566900  90.2981120 105.1960970
 136.2982450  91.7453600 105.1473000 133.9829550  82.1145180  98.9635120
 133.0946250  82.4561150  98.8615000 134.2670740  81.9145500  98.0715950
 131.9462560  84.7150830 104.8474820 132.5178670  83.9473030 104.8478460
 131.9464100  85.0139590 103.9381430 141.8042510  93.5341680 102.7020090
 141.1853950  93.9899180 102.1314530 142.6594290  93.6893140 102.3009790
 140.9980760  89.5180670 104.3087130 140.9289040  88.5770610 104.1476260
 141.7600620  89.6082080 104.8809700 133.1887430  80.1235190 106.6343750
 133.0090270  79.2260940 106.9146510 132.7867510  80.6707060 107.3090700
 142.0285930  82.3251050 104.5356060 142.4050750  81.4522930 104.4229730
 141.9305440  82.6609750 103.6446500 136.1590940  80.6976680  99.9973500
 136.2657690  81.5980410 100.3042260 135.2483300  80.6494650  99.7068150
 145.8110050  79.8201490 101.4684400 146.6319670  79.3298060 101.5109880
 145.8444130  80.4099150 102.2216240 133.8074100  82.6195690 105.2426090
 134.4884210  82.8834060 105.8613490 133.4922150  81.7796560 105.5764100
 137.9998670  83.6663050 104.3298680 138.5076890  84.1644020 104.9703700
 138.5311910  82.8898250 104.1538040 136.2834770  78.3061610 108.5962100
 136.2853210  78.8234000 107.7908000 135.4539080  77.8291790 108.5732030
 142.6705860  88.4180920 100.0952000 142.0523130  88.8830370  99.5314720
 143.1829110  89.1108400 100.5121510 137.5337620  87.9456790 106.7735600
 137.2007000  88.5725710 107.4156670 137.7104300  88.4718670 105.9937270
 146.0471530  81.7601870 104.2411940 145.3427100  82.0486760 104.8215050
 146.4083690  82.5701980 103.8811500 135.9650100  80.0171570 106.6032550
 136.3066910  80.8613620 106.3086420 135.0265910  80.1655310 106.7197890
 136.7456720  89.9137590 108.5884780 137.3630720  90.5888670 108.3069230
 135.8849840  90.3225570 108.4972280 132.0389060  89.1037450  97.4691630
 131.6617040  89.5924550  96.7376530 132.2962130  89.7762730  98.0998160
 147.6634310  91.3777000 106.5039420 146.9797830  92.0476110 106.4956090
 148.2028600  91.5757650 105.7384280 139.6477990  77.5053840 102.9277140
 139.9552970  76.9500730 102.2112640 138.7178690  77.6398300 102.7450130
 145.1993050  93.2221130 105.2184600 145.2120210  92.8183420 104.3506860
 144.6468270  93.9968420 105.1146030 146.4938470  89.9437350 100.3074770
 146.3834800  89.0011680 100.4324190 146.4906720  90.3052990 101.1937530
 144.5978490  88.1250970 106.5467210 145.0147280  87.9111080 105.7120670
 145.3218310  88.3823760 107.1175830 142.0358750  85.5702670  99.6637260
 141.1088030  85.5040050  99.8925730 142.1883570  86.5082800  99.5492500
 142.0227830  81.8419670  96.6604420 141.0831500  82.0033630  96.7456880
 142.3411090  82.5605350  96.1140410 146.0656040  87.1322970 100.1672510
 145.4468460  86.7942520  99.5198810 146.0480490  86.4882730 100.8751700
 145.5082600  83.3107510 107.5838320 145.0953780  84.1361220 107.8378310
 144.7758550  82.7252550 107.3914680 137.6415390  86.0967410 102.4456990
 137.2372390  85.3844660 101.9502890 137.7278510  85.7520650 103.3345030
 138.1097090  89.7834970 104.6096200 137.8125380  89.1780440 103.9303980
 139.0596910  89.8212280 104.4985560 136.3544010  82.8710620 106.2256030
 136.9058600  82.9805960 105.4509280 136.8687520  83.2448220 106.9411260
 146.1982700  93.3566840 108.2719300 145.7213260  94.1639030 108.0791910
 145.5144490  92.7045170 108.4245510 137.2015520  89.5216660 111.2604000
 136.3044050  89.7456630 111.5077400 137.2268390  89.6451600 110.3115400
 144.2420740  86.3709780  97.1745260 144.6814020  85.5332210  97.0283080
 144.9549160  87.0039180  97.2609400 136.0286740  86.3929980 109.8361370
 135.8894510  87.2652780 110.2048770 135.1468100  86.0502790 109.6909310
 142.3516120  91.3105850 101.1426500 142.7912030  92.0530180 100.7281890
 142.2903010  91.5532420 102.0665460 137.8267090  92.3351680 112.0446520
 137.7982520  92.7394630 111.1774950 137.6632060  91.4062040 111.8818120
 147.8237880  77.6252590  95.4886300 147.5110540  77.7179420  96.3885370
 148.5850350  78.2033620  95.4383730 134.3420020  84.9912390  99.9463640
 134.2217620  85.7174480  99.3344910 134.0320910  84.2215300  99.4691550
 133.2253020  89.8627720 102.1638460 132.8181100  90.0042310 101.3092060
 134.1166030  89.5787880 101.9609670 143.0431900  94.0119630 109.0705510
 143.5576570  93.9227640 109.8727940 142.2000980  94.3579330 109.3633420
 145.0186300  94.2974970  98.4989510 144.8587440  94.0077910  99.3971340
 144.8533010  93.5215100  97.9634740 137.4974680  94.0773500 100.2761130
 137.3217160  93.1609040 100.0628930 136.6430420  94.4360790 100.5158930
 144.7212430  91.8062530  97.0587510 144.0277590  91.8039820  96.3989790
 145.4635290  91.3821850  96.6281680 144.2862360  93.4325240 101.1336000
 144.7419310  92.6514620 101.4474620 144.6254880  94.1432060 101.6777180
 132.0364910  89.2041700 108.2926740 132.1995950  88.7347060 107.4746110
 132.5017360  88.6965260 108.9575580 136.8083680  78.3347460 103.3287310
 136.3651830  79.1157000 102.9971830 137.3668670  78.6577350 104.0358250
 141.0953490  81.2015980 108.9322630 140.6332860  81.4099000 109.7442570
 140.6931600  80.3875330 108.6293300 146.0958000  82.4224930 110.0619290
 145.2451590  82.1230680 110.3828360 145.9359790  82.6666940 109.1503110
 143.1907710  83.9226680 112.1618080 143.5161120  83.0890430 111.8220310
 143.9788040  84.4455200 112.3096410 139.9242500  77.9558160  98.2093140
 139.2996680  77.9518030  98.9346450 139.8372620  77.0889120  97.8129110
 138.8459580  78.8794790 105.1876910 139.1431910  79.7857620 105.1068930
 139.3945140  78.3913570 104.5736480 136.5997900  83.4581030 101.0568560
 136.3738820  83.2418200 101.9615180 135.8190430  83.8909490 100.7114530
 143.8295660  83.4644400  99.6559210 143.2304550  84.1880200  99.4722830
 144.3775270  83.4021180  98.8735660 139.0397110  84.3566610 111.7228830
 138.9440710  83.4161340 111.5729230 139.8829090  84.5781680 111.3276900
 142.4360530  82.1007940 101.6862490 142.8290100  82.4180140 100.8731180
 142.7977380  81.2219820 101.8007010 134.1707650  80.7680280 109.8762610
 133.7771040  81.6155490 110.0835390 133.4826050  80.1306650 110.0671250
 140.7452700  80.8515250 112.9459350 140.0551020  80.6587450 113.5805440
 141.4885000  81.1349890 113.4783650 131.4724700  78.6908740 103.9092690
 131.1837750  79.2611600 104.6217670 132.2170460  78.2113190 104.2723920
 131.6594930  82.6328860  95.1195410 131.5769600  83.5759620  95.2610400
 131.3077990  82.4903770  94.2407760 143.0215670  84.6913690 105.7813270
 142.2896790  85.2000500 106.1303370 142.6240010  83.8743670 105.4802050
 139.4593060  81.3667890 104.1865760 139.4629120  80.9257840 103.3370300
 140.3544180  81.6885220 104.2937580 135.3095440  81.2494380 103.1459970
 134.9695490  81.7269610 103.9027020 134.5472760  80.7959500 102.7861070
 139.5213210  82.3679970  97.1772520 139.6426030  82.3266450  98.1258340
 139.1361720  83.2304120  97.0219250 143.4841580  80.1447370 105.1936210
 143.5014320  80.5956020 106.0378060 143.2357160  79.2453010 105.4069650
 138.5334710  84.6781110  96.5755820 137.9651610  84.2299360  95.9491730
 139.2423710  85.0373890  96.0420970 146.9112330  77.5579550 111.0322590
 147.2358100  76.8269210 111.5580570 146.9468840  77.2393190 110.1303580
 133.6103890  88.5793130 110.4522550 133.2258680  87.9386800 111.0505510
 133.9216080  89.2829250 111.0217280 139.7601030  85.4269670 105.9331170
 140.1271160  84.9528240 106.6792510 139.5706090  86.3011240 106.2739510
 132.6241520  80.1713360 102.0624640 132.3388440  79.8069030 102.9003260
 132.5620380  79.4393820 101.4487780 137.5500400  84.4678310 108.2515380
 137.2457470  85.3470290 108.4765740 138.5046860  84.5278100 108.2872820
 136.0782190  88.6739300  98.8482230 135.3044450  88.1336920  98.6880950
 136.8076820  88.1545910  98.5099990 146.8370170  87.6704660 104.6408620
 147.5569290  88.1659950 104.2504730 146.6351990  86.9922550 103.9962490
 142.2980110  79.0642620  98.7838010 141.4844720  78.5655790  98.7083320
 142.1042060  79.9040870  98.3674360 142.2188970  87.7413720 110.5277620
 142.1526280  86.8209390 110.2735210 141.5894110  87.8389160 111.2422260
 145.0128500  83.4362270  97.0800170 145.9008120  83.7479500  96.9051510
 144.9833590  82.5634520  96.6880750 136.1219590  88.3419680 102.4861040
 136.6398260  87.5387940 102.4317930 135.6703610  88.2798820 103.3277870
 141.0089090  89.6085960  97.7588340 141.3504790  90.3528190  97.2631660
 140.1801800  89.9217080  98.1213170 133.6064130  85.3081050 109.3986740
 133.2479070  85.9734900 109.9860080 133.3118690  84.4764600 109.7699360
 136.8077250  85.7665290 112.2826290 136.5077390  85.9122470 111.3854110
 137.5788490  85.2070580 112.1899680 142.1505700  90.5634290 110.2781420
 142.1650240  89.6315250 110.0600330 141.4430800  90.6494050 110.9171190
 147.2842770  84.7474110  96.5480030 147.2006490  85.1788330  95.6976470
 148.0036960  85.2072460  96.9806850 148.3130020  91.6016370  99.2762160
 147.6706180  90.9471990  99.5505880 147.9260680  92.0071460  98.5002830
 143.8916500  88.9301800 103.1233850 144.2440320  88.3329930 102.4635220
 143.0078830  88.6046030 103.2942100 139.9779780  89.6899490 100.5304260
 140.6650910  90.2368700 100.9111850 139.1912200  90.2340220 100.5653870
 132.1172180  85.3072310  96.0221340 132.9867030  85.5897110  96.3057260
 131.6262500  86.1208180  95.9070150 139.2806990  86.6945520 100.1429620
 139.7369770  87.5050770 100.3689810 138.9295200  86.3768660 100.9748110
 141.5839600  92.2051860 107.3721920 142.2281820  92.4111240 108.0495340
 141.9469040  91.4440260 106.9192770 135.1818770  77.0383170 100.6152140
 135.0533400  77.0301070 101.5637060 134.3580790  77.3766260 100.2643150
 142.8571680  90.2084210 106.0899370 143.4993910  89.5077370 106.2031540
 143.3821030  90.9882650 105.9096260 146.7027400  90.4932830  95.8138510
 146.4764980  89.7763270  96.4063150 146.3123600  90.2445270  94.9760260
 144.6309300  91.0079110 109.2935430 144.9665540  91.5945800 109.9713350
 143.7109640  90.8771820 109.5233220 132.4843430  94.5199690  96.5882970
 132.8441070  95.1189030  95.9340240 132.3435770  95.0659580  97.3618000
 132.1812700  78.7974290 110.0758840 131.4671220  78.9971210 110.6811450
 132.6007740  78.0213860 110.4473640 146.2843650  88.4104770  97.4752670
 145.9965350  88.8717460  98.2630550 147.0795820  87.9502540  97.7436890
 132.4685290  92.7854550 111.0625370 132.5776410  91.8449290 110.9220760
 131.8165850  93.0509300 110.4139100 140.4597880  91.0570440 112.4623490
 140.1394750  90.3379680 113.0069180 139.7856240  91.7325510 112.5359550
 138.5012050  91.9030890  97.4056640 138.4922150  92.6360580  96.7901150
 137.5810410  91.6562470  97.4983600 134.1018690  87.1245780  98.1503400
 133.4946640  87.8644680  98.1598700 134.5768040  87.2145140  97.3241600
 143.6751480  81.2896600 107.8260290 144.0432300  80.4691810 108.1539860
 142.8149680  81.3498490 108.2415940 147.0413510  80.2453540  98.6347850
 146.4126670  80.3499210  97.9206080 146.5465430  80.4650320  99.4241730
 141.4871650  91.9659130  96.0681830 141.5883630  91.7623120  95.1383810
 140.5873390  91.7117410  96.2729610 139.0097540  82.5239490 100.0505730
 138.3013690  82.9925830 100.4919340 139.2942020  81.8661500 100.6850920
 140.6353470  83.9436190 108.0498260 141.1338720  84.4182010 108.7150110
 140.7776420  83.0199710 108.2568290 143.0412970  79.2490150 101.4901520
 142.9180750  79.2676280 100.5411030 143.9897530  79.2969090 101.6099920
 140.1289760  94.4845450 100.7629500 140.3831260  94.4466840  99.8408870
 139.1802240  94.3578780 100.7557750 137.2132560  80.8324570  97.4256440
 138.0623090  81.2694720  97.3596630 136.8463830  81.1444830  98.2528500
 147.8420330  80.1604150 108.8926650 147.3393930  80.9009550 109.2320460
 148.6576990  80.5488150 108.5763440 146.1342340  85.4037330 102.3388010
 145.1932480  85.4187560 102.5135700 146.4486410  84.6173290 102.7848310
 136.1123980  87.0856930  95.8991970 136.8787250  86.9738290  96.4617400
 136.1898670  86.3894900  95.2468740 134.8070740  84.5182000  96.5824860
 134.8874330  83.5709510  96.6942260 135.6990490  84.8488880  96.6885520
 135.6085450  94.6677390 103.6859400 136.3447930  94.1192850 103.9567970
 135.9926370  95.5333400 103.5465390 132.4930930  90.7350960  99.5600910
 131.5670710  90.9772100  99.5506320 132.9587360  91.5625220  99.4385660
 134.6143730  93.8523460 112.8744980 135.4156460  94.1735510 113.2880380
 134.0995550  93.4919040 113.5964890 138.7187760  93.8407700  95.5084970
 139.5116370  94.1296530  95.0566760 138.1992110  93.4099870  94.8297450
 143.4508360  89.9603330 112.8220390 142.8446520  89.9834930 112.0816140
 143.1462470  89.2286370 113.3587640 144.8808730  93.6883620 111.4329800
 145.8330480  93.6041640 111.3830040 144.7336950  94.3525330 112.1063590
 147.7717930  93.0677830  96.9321710 147.4859440  92.6542970  96.1175890
 147.5737480  93.9965540  96.8122230 132.3341540  86.3396920 111.8181030
 132.8380560  85.7604200 112.3897260 131.5948960  86.6237150 112.3557400
 139.2365160  89.0611110  95.3727320 139.1315800  88.4463460  96.0988700
 139.0689380  88.5377000  94.5890330 139.3879480  87.7467910 111.3516550
 138.6225150  88.3152910 111.2671220 139.5695440  87.4544120 110.4584780
 142.4767890  88.1231140  95.9769310 141.9277990  88.5700440  96.6212050
 143.0987150  87.6180390  96.5006980 146.5302830  89.4773240 111.9091570
 147.2712300  89.8149000 111.4059030 145.7675510  89.6465300 111.3561340
 134.3664620  84.4826510 112.7131100 134.4069960  84.1840380 113.6216330
 135.2210120  84.8834120 112.5538620 138.1443010  87.0822060  97.8734610
 138.5659430  86.9161930  98.7166000 138.2693850  86.2722290  97.3789750
 136.3070430  83.0618610 110.6805590 135.7766890  82.5709560 110.0528930
 136.9758500  83.4902810 110.1463520 140.6570650  86.1059670  95.1211710
 141.1776310  85.3908690  94.7552860 141.3039050  86.7445540  95.4212220
 145.2048490  87.5288070 110.4446780 145.6189510  87.6833150 111.2937200
 144.2699490  87.6543290 110.6072560 145.6770660  84.8684230 112.4485930
 146.2591430  84.1136550 112.3606410 145.8532430  85.3991670 111.6717410
 136.7942730  80.0280980 110.7602880 136.6999600  79.4101730 110.0353750
 136.2140120  80.7547270 110.5332790 139.5604170  78.5854220 107.7930270
 139.1121470  78.6078480 106.9475820 138.9269370  78.1873240 108.3900570
 139.9663720  87.4808550 108.4142710 140.3851830  88.3241280 108.2418950
 139.0472350  87.6180590 108.1849490 142.3027620  85.2124730 109.7980550
 142.4223830  84.6165870 110.5375390 143.1621620  85.2494420 109.3781850
 144.6415520  85.7661920 108.3743060 144.1150740  86.2904540 107.7708200
 144.9846860  86.3989310 109.0052790 137.0401910  83.1555290  94.8192770
 136.8390970  82.2922650  95.1806110 136.8693960  83.0688650  93.8814370
 137.8171140  93.7861560 109.5300440 137.2792230  94.5107620 109.2109140
 138.0705100  93.3091900 108.7397780 139.0696390  81.7546080 111.0556370
 139.6596080  81.4461930 111.7434190 138.2516630  81.2825830 111.2116270
 143.8889820  81.3711890 111.2889390 143.2005340  80.7093430 111.2239380
 144.6095840  80.9250160 111.7337850 144.5190220  77.9663520  97.3479650
 144.7992510  77.1231420  97.7039070 143.7455950  78.1986630  97.8618400
 135.8384710  80.2555910  94.8070650 136.1410610  80.2623340  93.8989800
 136.5779300  79.9053770  95.3038310 140.6733350  95.0212770 109.7887090
 140.5992050  95.9247910 110.0959460 139.7712190  94.7024670 109.7609160
 139.0569640  79.1990530  95.7926850 138.7091640  78.5214520  95.2129300
 139.2582410  78.7380040  96.6070240 141.2218680  94.1871280  97.4113450
 142.1169470  94.5256250  97.4332210 141.2536310  93.4650690  96.7837730
 134.8614840  89.5598330  95.6400450 135.2989710  90.1028000  96.2958030
 135.3462570  88.7345280  95.6496790 132.0760640  92.3487360 103.0920710
 132.4063650  91.4808420 102.8599350 132.5051640  92.5545880 103.9225670
 136.6722560  90.6796370 100.7522680 136.3718100  90.5561340 101.6526590
 136.5660050  89.8204960 100.3438410 132.5650850  93.2157950 105.8302340
 132.1281840  93.3958750 106.6626490 133.1328530  93.9732570 105.6884060
 148.2013030  92.7174950 110.1179650 147.6015020  92.7767510 109.3743570
 148.3306930  91.7779930 110.2476500 132.3975280  85.7278180 102.1891220
 131.7424120  85.4589820 101.5450920 133.2353230  85.6182660 101.7393200
 146.8864670  89.4426930 108.2155810 146.0724510  89.8724090 108.4781600
 147.2938870  90.0545340 107.6024860 145.3465720  80.5219470  96.4109710
 145.7650600  80.3350450  95.5706370 145.0401780  79.6698520  96.7212640
 133.4351210  86.1130750 106.7294560 133.8024250  86.0258150 107.6090580
 132.8662030  85.3497300 106.6301420 148.2355070  84.5815130 109.7425030
 148.0041160  84.3527880 108.8422980 148.4959620  85.5014680 109.6969920
 132.9867210  83.0239840 110.6352980 132.0923260  82.9906600 110.9746690
 133.5264760  83.2226630 111.4004230 146.6743140  79.8071560 112.5204730
 147.5513320  79.8154960 112.9038730 146.6863980  79.0702400 111.9097080
 131.6113360  82.9377110  98.1316550 130.7077440  83.2007310  97.9568210
 132.0953980  83.2088280  97.3516510 148.2996130  83.7440970 106.9312300
 147.3498840  83.7104510 107.0457290 148.4809140  84.6541080 106.6962070
 134.1540570  81.9942650  96.0410930 134.8632270  81.5725870  95.5558210
 133.4380510  82.0617880  95.4094280 133.8014730  78.0481980  95.0813580
 134.5242860  78.5890920  95.3994800 134.0739250  77.7745400  94.2055120
 147.6106380  82.9174450  99.3485160 148.1065500  82.6845320 100.1334040
 147.4122450  82.0786290  98.9322800 133.4906920  77.2988170 104.9836200
 134.1383110  76.7485550 104.5431360 133.9108760  77.5531320 105.8052010
 147.3859260  77.4929530 108.3405840 148.0231480  78.1063670 108.7065030
 147.5334150  77.5290190 107.3955070 146.9440720  94.1945530 101.7424080
 147.5399790  93.8730100 101.0658500 147.2018870  93.7217350 102.5337350
 133.2438920  77.4543840 107.7261520 132.8953740  77.9107660 108.4919700
 132.9126620  76.5600970 107.8083950 134.8503290  90.6263440 111.8914710
 134.8072920  90.2556350 112.7729170 134.9814300  91.5641010 112.0316530
 138.5509320  92.1823030 107.4924430 138.3100680  92.4497590 106.6054950
 139.4911960  92.3528760 107.5475290 140.7563740  78.6455720 111.2480940
 140.6952630  79.2377550 111.9976350 141.6964120  78.5381680 111.1031200
 143.3938300  78.3025780 110.8873230 144.0078710  78.6205070 110.2254310
 143.9387860  77.8174370 111.5069090 133.9159560  76.9820040 111.0012290
 134.4642550  76.8008090 110.2378400 133.9814870  76.1914150 111.5368600
 134.6891320  93.5725690 109.0112490 134.0951640  93.4410390 109.7502530
 134.6815160  92.7363830 108.5454590 144.1346340  76.8657920 107.2142520
 143.2606180  77.1993030 107.0115450 144.0257090  76.3931100 108.0394390
 145.0418320  79.0728790 108.5984240 144.7131680  78.2580550 108.2185970
 145.9900620  79.0298600 108.4749930 147.4952930  94.8440830 105.5721810
 147.0355900  95.5956640 105.1979830 146.8665390  94.1247300 105.5136610
 134.3203550  90.9384070 107.9620530 133.5937610  90.3189360 107.8946480
 134.3812700  91.3324680 107.0918610 137.9248650  93.1529070 104.7469940
 138.4413670  92.5416430 104.2218200 138.5746030  93.6557850 105.2380950
 140.6644150  94.0437560 105.5738920 140.9521960  93.7891860 104.6971930
 141.1767370  93.4914920 106.1644490 141.8821160  77.7827760 106.1535430
 141.0992950  78.2573260 106.4332190 141.5884090  76.8782590 106.0448610
 146.4342230  78.4850860 104.1984520 146.8750320  78.4295960 103.3506120
 146.1649820  79.4008870 104.2694700 132.6033550  94.2558460 101.1717290
 132.4355590  93.6229140 101.8699180 131.7368060  94.4617860 100.8211480
 133.2261570  78.0875240  98.6749150 133.9840930  78.2004120  98.1013180
 132.7638740  78.9244440  98.6292580 139.7675380  80.2014510 101.6651460
 138.9549890  79.8271400 101.3247340 140.2717020  79.4459590 101.9672650
 144.2700360  76.8656960 102.9034530 144.8729730  77.4377170 103.3783050
 143.5293350  77.4296400 102.6808430 147.4134960  77.2678520  98.1774810
 147.6085590  78.1661970  98.4442240 146.6264830  77.0365600  98.6707760
 134.2096250  92.9491690  98.6167430 133.6843870  93.3299720  97.9129390
 134.1340830  93.5742460  99.3377140 135.5986720  78.6139290  97.2151120
 136.1279480  77.8269090  97.0859070 136.2315040  79.2930480  97.4486650
 137.7924560  78.3514430 100.2696510 137.1627300  77.6501740 100.4366640
 137.2529700  79.1118560 100.0529670 140.7316510  94.9653660 112.9407120
 141.6583820  94.7297930 112.9843080 140.7166940  95.7925660 112.4593150
 137.9180120  77.6298410 112.7049000 137.6364390  78.1332010 111.9409820
 138.2999820  76.8320160 112.3391130 136.8089220  94.8974070  97.4916680
 137.5408040  94.6133350  96.9440570 137.0682890  94.6587350  98.3816060
 135.9704010  91.0138800  97.4963010 135.3412890  91.4823900  98.0448840
 136.0851840  90.1688020  97.9309200 144.5195580  77.0451990 113.2829470
 144.4061030  77.3646600 114.1780990 145.3365320  77.4464500 112.9866750
 147.2994070  94.1923520 112.7648160 148.0919390  93.6972750 112.5574120
 147.5927220  94.8713660 113.3723770 143.4253730  85.0644460  83.6464210
 143.3447780  84.1499070  83.3755920 143.0118150  85.5611530  82.9403920
 141.5571770  86.8423480  85.5273480 140.7813870  86.3623920  85.8172050
 142.2084700  86.1629130  85.3529640 135.5737600  87.1543290  86.4049240
 134.7422480  86.8992000  86.8045750 136.1818580  87.2254060  87.1407160
 145.5779200  91.2483670  84.3072610 145.1160730  90.4770910  84.6359780
 146.3904750  91.2749740  84.8125060 135.5538860  91.1883380  86.6007260
 135.8566900  90.2981120  86.4217480 136.2982450  91.7453600  86.3729510
 133.9829550  82.1145180  80.1891630 133.0946250  82.4561150  80.0871510
 134.2670740  81.9145500  79.2972460 131.9462560  84.7150830  86.0731330
 132.5178670  83.9473030  86.0734970 131.9464100  85.0139590  85.1637940
 141.8042510  93.5341680  83.9276600 141.1853950  93.9899180  83.3571040
 142.6594290  93.6893140  83.5266300 140.9980760  89.5180670  85.5343640
 140.9289040  88.5770610  85.3732770 141.7600620  89.6082080  86.1066210
 133.1887430  80.1235190  87.8600260 133.0090270  79.2260940  88.1403020
 132.7867510  80.6707060  88.5347210 142.0285930  82.3251050  85.7612570
 142.4050750  81.4522930  85.6486240 141.9305440  82.6609750  84.8703010
 136.1590940  80.6976680  81.2230010 136.2657690  81.5980410  81.5298770
 135.2483300  80.6494650  80.9324660 145.8110050  79.8201490  82.6940910
 146.6319670  79.3298060  82.7366390 145.8444130  80.4099150  83.4472750
 133.8074100  82.6195690  86.4682600 134.4884210  82.8834060  87.0870000
 133.4922150  81.7796560  86.8020610 137.9998670  83.6663050  85.5555190
 138.5076890  84.1644020  86.1960210 138.5311910  82.8898250  85.3794550
 136.2834770  78.3061610  89.8218610 136.2853210  78.8234000  89.0164510
 135.4539080  77.8291790  89.7988540 142.6705860  88.4180920  81.3208510
 142.0523130  88.8830370  80.7571230 143.1829110  89.1108400  81.7378020
 137.5337620  87.9456790  87.9992110 137.2007000  88.5725710  88.6413180
 137.7104300  88.4718670  87.2193780 146.0471530  81.7601870  85.4668450
 145.3427100  82.0486760  86.0471560 146.4083690  82.5701980  85.1068010
 135.9650100  80.0171570  87.8289060 136.3066910  80.8613620  87.5342930
 135.0265910  80.1655310  87.9454400 136.7456720  89.9137590  89.8141290
 137.3630720  90.5888670  89.5325740 135.8849840  90.3225570  89.7228790
 132.0389060  89.1037450  78.6948140 131.6617040  89.5924550  77.9633040
 132.2962130  89.7762730  79.3254670 147.6634310  91.3777000  87.7295930
 146.9797830  92.0476110  87.7212600 148.2028600  91.5757650  86.9640790
 139.6477990  77.5053840  84.1533650 139.9552970  76.9500730  83.4369150
 138.7178690  77.6398300  83.9706640 145.1993050  93.2221130  86.4441110
 145.2120210  92.8183420  85.5763370 144.6468270  93.9968420  86.3402540
 146.4938470  89.9437350  81.5331280 146.3834800  89.0011680  81.6580700
 146.4906720  90.3052990  82.4194040 144.5978490  88.1250970  87.7723720
 145.0147280  87.9111080  86.9377180 145.3218310  88.3823760  88.3432340
 142.0358750  85.5702670  80.8893770 141.1088030  85.5040050  81.1182240
 142.1883570  86.5082800  80.7749010 142.0227830  81.8419670  77.8860930
 141.0831500  82.0033630  77.9713390 142.3411090  82.5605350  77.3396920
 146.0656040  87.1322970  81.3929020 145.4468460  86.7942520  80.7455320
 146.0480490  86.4882730  82.1008210 145.5082600  83.3107510  88.8094830
 145.0953780  84.1361220  89.0634820 144.7758550  82.7252550  88.6171190
 137.6415390  86.0967410  83.6713500 137.2372390  85.3844660  83.1759400
 137.7278510  85.7520650  84.5601540 138.1097090  89.7834970  85.8352710
 137.8125380  89.1780440  85.1560490 139.0596910  89.8212280  85.7242070
 136.3544010  82.8710620  87.4512540 136.9058600  82.9805960  86.6765790
 136.8687520  83.2448220  88.1667770 146.1982700  93.3566840  89.4975810
 145.7213260  94.1639030  89.3048420 145.5144490  92.7045170  89.6502020
 137.2015520  89.5216660  92.4860510 136.3044050  89.7456630  92.7333910
 137.2268390  89.6451600  91.5371910 144.2420740  86.3709780  78.4001770
 144.6814020  85.5332210  78.2539590 144.9549160  87.0039180  78.4865910
 136.0286740  86.3929980  91.0617880 135.8894510  87.2652780  91.4305280
 135.1468100  86.0502790  90.9165820 142.3516120  91.3105850  82.3683010
 142.7912030  92.0530180  81.9538400 142.2903010  91.5532420  83.2921970
 137.8267090  92.3351680  93.2703030 137.7982520  92.7394630  92.4031460
 137.6632060  91.4062040  93.1074630 147.8237880  77.6252590  76.7142810
 147.5110540  77.7179420  77.6141880 148.5850350  78.2033620  76.6640240
 134.3420020  84.9912390  81.1720150 134.2217620  85.7174480  80.5601420
 134.0320910  84.2215300  80.6948060 131.9805390  88.1627530  86.9788790
 132.0585810  88.2976300  86.0344510 132.5947070  87.4543420  87.1716910
 133.2253020  89.8627720  83.3894970 132.8181100  90.0042310  82.5348570
 134.1166030  89.5787880  83.1866180 143.0431900  94.0119630  90.2962020
 143.5576570  93.9227640  91.0984450 142.2000980  94.3579330  90.5889930
 145.0186300  94.2974970  79.7246020 144.8587440  94.0077910  80.6227850
 144.8533010  93.5215100  79.1891250 137.4974680  94.0773500  81.5017640
 137.3217160  93.1609040  81.2885440 136.6430420  94.4360790  81.7415440
 144.7212430  91.8062530  78.2844020 144.0277590  91.8039820  77.6246300
 145.4635290  91.3821850  77.8538190 144.2862360  93.4325240  82.3592510
 144.7419310  92.6514620  82.6731130 144.6254880  94.1432060  82.9033690
 132.0364910  89.2041700  89.5183250 132.1995950  88.7347060  88.7002620
 132.5017360  88.6965260  90.1832090 136.8083680  78.3347460  84.5543820
 136.3651830  79.1157000  84.2228340 137.3668670  78.6577350  85.2614760
 141.0953490  81.2015980  90.1579140 140.6332860  81.4099000  90.9699080
 140.6931600  80.3875330  89.8549810 146.0958000  82.4224930  91.2875800
 145.2451590  82.1230680  91.6084870 145.9359790  82.6666940  90.3759620
 143.1907710  83.9226680  93.3874590 143.5161120  83.0890430  93.0476820
 143.9788040  84.4455200  93.5352920 139.9242500  77.9558160  79.4349650
 139.2996680  77.9518030  80.1602960 139.8372620  77.0889120  79.0385620
 138.8459580  78.8794790  86.4133420 139.1431910  79.7857620  86.3325440
 139.3945140  78.3913570  85.7992990 136.5997900  83.4581030  82.2825070
 136.3738820  83.2418200  83.1871690 135.8190430  83.8909490  81.9371040
 143.8295660  83.4644400  80.8815720 143.2304550  84.1880200  80.6979340
 144.3775270  83.4021180  80.0992170 139.0397110  84.3566610  92.9485340
 138.9440710  83.4161340  92.7985740 139.8829090  84.5781680  92.5533410
 142.4360530  82.1007940  82.9119000 142.8290100  82.4180140  82.0987690
 142.7977380  81.2219820  83.0263520 134.1707650  80.7680280  91.1019120
 133.7771040  81.6155490  91.3091900 133.4826050  80.1306650  91.2927760
 140.7452700  80.8515250  94.1715860 140.0551020  80.6587450  94.8061950
 141.4885000  81.1349890  94.7040160 131.4724700  78.6908740  85.1349200
 131.1837750  79.2611600  85.8474180 132.2170460  78.2113190  85.4980430
 143.0215670  84.6913690  87.0069780 142.2896790  85.2000500  87.3559880
 142.6240010  83.8743670  86.7058560 139.4593060  81.3667890  85.4122270
 139.4629120  80.9257840  84.5626810 140.3544180  81.6885220  85.5194090
 135.3095440  81.2494380  84.3716480 134.9695490  81.7269610  85.1283530
 134.5472760  80.7959500  84.0117580 139.5213210  82.3679970  78.4029030
 139.6426030  82.3266450  79.3514850 139.1361720  83.2304120  78.2475760
 143.4841580  80.1447370  86.4192720 143.5014320  80.5956020  87.2634570
 143.2357160  79.2453010  86.6326160 146.9112330  77.5579550  92.2579100
 147.2358100  76.8269210  92.7837080 146.9468840  77.2393190  91.3560090
 133.6103890  88.5793130  91.6779060 133.2258680  87.9386800  92.2762020
 133.9216080  89.2829250  92.2473790 139.7601030  85.4269670  87.1587680
 140.1271160  84.9528240  87.9049020 139.5706090  86.3011240  87.4996020
 132.6241520  80.1713360  83.2881150 132.3388440  79.8069030  84.1259770
 132.5620380  79.4393820  82.6744290 137.5500400  84.4678310  89.4771890
 137.2457470  85.3470290  89.7022250 138.5046860  84.5278100  89.5129330
 136.0782190  88.6739300  80.0738740 135.3044450  88.1336920  79.9137460
 136.8076820  88.1545910  79.7356500 146.8370170  87.6704660  85.8665130
 147.5569290  88.1659950  85.4761240 146.6351990  86.9922550  85.2219000
 142.2980110  79.0642620  80.0094520 141.4844720  78.5655790  79.9339830
 142.1042060  79.9040870  79.5930870 142.2188970  87.7413720  91.7534130
 142.1526280  86.8209390  91.4991720 141.5894110  87.8389160  92.4678770
 145.0128500  83.4362270  78.3056680 145.9008120  83.7479500  78.1308020
 144.9833590  82.5634520  77.9137260 136.1219590  88.3419680  83.7117550
 136.6398260  87.5387940  83.6574440 135.6703610  88.2798820  84.5534380
 141.0089090  89.6085960  78.9844850 141.3504790  90.3528190  78.4888170
 140.1801800  89.9217080  79.3469680 133.6064130  85.3081050  90.6243250
 133.2479070  85.9734900  91.2116590 133.3118690  84.4764600  90.9955870
 136.8077250  85.7665290  93.5082800 136.5077390  85.9122470  92.6110620
 137.5788490  85.2070580  93.4156190 142.1505700  90.5634290  91.5037930
 142.1650240  89.6315250  91.2856840 141.4430800  90.6494050  92.1427700
 147.2842770  84.7474110  77.7736540 147.2006490  85.1788330  76.9232980
 148.0036960  85.2072460  78.2063360 148.3130020  91.6016370  80.5018670
 147.6706180  90.9471990  80.7762390 147.9260680  92.0071460  79.7259340
 143.8916500  88.9301800  84.3490360 144.2440320  88.3329930  83.6891730
 143.0078830  88.6046030  84.5198610 139.9779780  89.6899490  81.7560770
 140.6650910  90.2368700  82.1368360 139.1912200  90.2340220  81.7910380
 139.2806990  86.6945520  81.3686130 139.7369770  87.5050770  81.5946320
 138.9295200  86.3768660  82.2004620 141.5839600  92.2051860  88.5978430
 142.2281820  92.4111240  89.2751850 141.9469040  91.4440260  88.1449280
 135.1818770  77.0383170  81.8408650 135.0533400  77.0301070  82.7893570
 134.3580790  77.3766260  81.4899660 142.8571680  90.2084210  87.3155880
 143.4993910  89.5077370  87.4288050 143.3821030  90.9882650  87.1352770
 146.7027400  90.4932830  77.0395020 146.4764980  89.7763270  77.6319660
 146.3123600  90.2445270  76.2016770 144.6309300  91.0079110  90.5191940
 144.9665540  91.5945800  91.1969860 143.7109640  90.8771820  90.7489730
 132.1812700  78.7974290  91.3015350 131.4671220  78.9971210  91.9067960
 132.6007740  78.0213860  91.6730150 146.2843650  88.4104770  78.7009180
 145.9965350  88.8717460  79.4887060 147.0795820  87.9502540  78.9693400
 132.4685290  92.7854550  92.2881880 132.5776410  91.8449290  92.1477270
 131.8165850  93.0509300  91.6395610 140.4597880  91.0570440  93.6880000
 140.1394750  90.3379680  94.2325690 139.7856240  91.7325510  93.7616060
 138.5012050  91.9030890  78.6313150 138.4922150  92.6360580  78.0157660
 137.5810410  91.6562470  78.7240110 143.6751480  81.2896600  89.0516800
 144.0432300  80.4691810  89.3796370 142.8149680  81.3498490  89.4672450
 147.0413510  80.2453540  79.8604360 146.4126670  80.3499210  79.1462590
 146.5465430  80.4650320  80.6498240 141.4871650  91.9659130  77.2938340
 141.5883630  91.7623120  76.3640320 140.5873390  91.7117410  77.4986120
 139.0097540  82.5239490  81.2762240 138.3013690  82.9925830  81.7175850
 139.2942020  81.8661500  81.9107430 140.6353470  83.9436190  89.2754770
 141.1338720  84.4182010  89.9406620 140.7776420  83.0199710  89.4824800
 143.0412970  79.2490150  82.7158030 142.9180750  79.2676280  81.7667540
 143.9897530  79.2969090  82.8356430 140.1289760  94.4845450  81.9886010
 140.3831260  94.4466840  81.0665380 139.1802240  94.3578780  81.9814260
 137.2132560  80.8324570  78.6512950 138.0623090  81.2694720  78.5853140
 136.8463830  81.1444830  79.4785010 147.8420330  80.1604150  90.1183160
 147.3393930  80.9009550  90.4576970 148.6576990  80.5488150  89.8019950
 146.1342340  85.4037330  83.5644520 145.1932480  85.4187560  83.7392210
 146.4486410  84.6173290  84.0104820 135.6085450  94.6677390  84.9115910
 136.3447930  94.1192850  85.1824480 135.9926370  95.5333400  84.7721900
 132.4930930  90.7350960  80.7857420 131.5670710  90.9772100  80.7762830
 132.9587360  91.5625220  80.6642170 134.6143730  93.8523460  94.1001490
 135.4156460  94.1735510  94.5136890 134.0995550  93.4919040  94.8221400
 138.7187760  93.8407700  76.7341480 139.5116370  94.1296530  76.2823270
 138.1992110  93.4099870  76.0553960 143.4508360  89.9603330  94.0476900
 142.8446520  89.9834930  93.3072650 143.1462470  89.2286370  94.5844150
 144.8808730  93.6883620  92.6586310 145.8330480  93.6041640  92.6086550
 144.7336950  94.3525330  93.3320100 147.7717930  93.0677830  78.1578220
 147.4859440  92.6542970  77.3432400 147.5737480  93.9965540  78.0378740
 132.3341540  86.3396920  93.0437540 132.8380560  85.7604200  93.6153770
 131.5948960  86.6237150  93.5813910 139.2365160  89.0611110  76.5983830
 139.1315800  88.4463460  77.3245210 139.0689380  88.5377000  75.8146840
 139.3879480  87.7467910  92.5773060 138.6225150  88.3152910  92.4927730
 139.5695440  87.4544120  91.6841290 142.4767890  88.1231140  77.2025820
 141.9277990  88.5700440  77.8468560 143.0987150  87.6180390  77.7263490
 146.5302830  89.4773240  93.1348080 147.2712300  89.8149000  92.6315540
 145.7675510  89.6465300  92.5817850 134.3664620  84.4826510  93.9387610
 134.4069960  84.1840380  94.8472840 135.2210120  84.8834120  93.7795130
 138.1443010  87.0822060  79.0991120 138.5659430  86.9161930  79.9422510
 138.2693850  86.2722290  78.6046260 136.3070430  83.0618610  91.9062100
 135.7766890  82.5709560  91.2785440 136.9758500  83.4902810  91.3720030
 140.6570650  86.1059670  76.3468220 141.1776310  85.3908690  75.9809370
 141.3039050  86.7445540  76.6468730 145.2048490  87.5288070  91.6703290
 145.6189510  87.6833150  92.5193710 144.2699490  87.6543290  91.8329070
 145.6770660  84.8684230  93.6742440 146.2591430  84.1136550  93.5862920
 145.8532430  85.3991670  92.8973920 136.7942730  80.0280980  91.9859390
 136.6999600  79.4101730  91.2610260 136.2140120  80.7547270  91.7589300
 139.5604170  78.5854220  89.0186780 139.1121470  78.6078480  88.1732330
 138.9269370  78.1873240  89.6157080 139.9663720  87.4808550  89.6399220
 140.3851830  88.3241280  89.4675460 139.0472350  87.6180590  89.4106000
 142.3027620  85.2124730  91.0237060 142.4223830  84.6165870  91.7631900
 143.1621620  85.2494420  90.6038360 144.6415520  85.7661920  89.5999570
 144.1150740  86.2904540  88.9964710 144.9846860  86.3989310  90.2309300
 137.8171140  93.7861560  90.7556950 137.2792230  94.5107620  90.4365650
 138.0705100  93.3091900  89.9654290 139.0696390  81.7546080  92.2812880
 139.6596080  81.4461930  92.9690700 138.2516630  81.2825830  92.4372780
 143.8889820  81.3711890  92.5145900 143.2005340  80.7093430  92.4495890
 144.6095840  80.9250160  92.9594360 144.5190220  77.9663520  78.5736160
 144.7992510  77.1231420  78.9295580 143.7455950  78.1986630  79.0874910
 135.8384710  80.2555910  76.0327160 136.1410610  80.2623340  75.1246310
 136.5779300  79.9053770  76.5294820 140.6733350  95.0212770  91.0143600
 140.5992050  95.9247910  91.3215970 139.7712190  94.7024670  90.9865670
 139.0569640  79.1990530  77.0183360 138.7091640  78.5214520  76.4385810
 139.2582410  78.7380040  77.8326750 141.2218680  94.1871280  78.6369960
 142.1169470  94.5256250  78.6588720 141.2536310  93.4650690  78.0094240
 134.8614840  89.5598330  76.8656960 135.2989710  90.1028000  77.5214540
 135.3462570  88.7345280  76.8753300 136.6722560  90.6796370  81.9779190
 136.3718100  90.5561340  82.8783100 136.5660050  89.8204960  81.5694920
 132.5650850  93.2157950  87.0558850 132.1281840  93.3958750  87.8883000
 133.1328530  93.9732570  86.9140570 148.2013030  92.7174950  91.3436160
 147.6015020  92.7767510  90.6000080 148.3306930  91.7779930  91.4733010
 132.3975280  85.7278180  83.4147730 131.7424120  85.4589820  82.7707430
 133.2353230  85.6182660  82.9649710 146.8864670  89.4426930  89.4412320
 146.0724510  89.8724090  89.7038110 147.2938870  90.0545340  88.8281370
 145.3465720  80.5219470  77.6366220 145.7650600  80.3350450  76.7962880
 145.0401780  79.6698520  77.9469150 133.4351210  86.1130750  87.9551070
 133.8024250  86.0258150  88.8347090 132.8662030  85.3497300  87.8557930
 148.2355070  84.5815130  90.9681540 148.0041160  84.3527880  90.0679490
 148.4959620  85.5014680  90.9226430 132.9867210  83.0239840  91.8609490
 132.0923260  82.9906600  92.2003200 133.5264760  83.2226630  92.6260740
 146.6743140  79.8071560  93.7461240 147.5513320  79.8154960  94.1295240
 146.6863980  79.0702400  93.1353590 131.6113360  82.9377110  79.3573060
 130.7077440  83.2007310  79.1824720 132.0953980  83.2088280  78.5773020
 148.2996130  83.7440970  88.1568810 147.3498840  83.7104510  88.2713800
 148.4809140  84.6541080  87.9218580 133.8014730  78.0481980  76.3070090
 134.5242860  78.5890920  76.6251310 134.0739250  77.7745400  75.4311630
 147.6106380  82.9174450  80.5741670 148.1065500  82.6845320  81.3590550
 147.4122450  82.0786290  80.1579310 133.4906920  77.2988170  86.2092710
 134.1383110  76.7485550  85.7687870 133.9108760  77.5531320  87.0308520
 147.3859260  77.4929530  89.5662350 148.0231480  78.1063670  89.9321540
 147.5334150  77.5290190  88.6211580 146.9440720  94.1945530  82.9680590
 147.5399790  93.8730100  82.2915010 147.2018870  93.7217350  83.7593860
 133.2438920  77.4543840  88.9518030 132.8953740  77.9107660  89.7176210
 132.9126620  76.5600970  89.0340460 134.8503290  90.6263440  93.1171220
 134.8072920  90.2556350  93.9985680 134.9814300  91.5641010  93.2573040
 138.5509320  92.1823030  88.7180940 138.3100680  92.4497590  87.8311460
 139.4911960  92.3528760  88.7731800 140.7563740  78.6455720  92.4737450
 140.6952630  79.2377550  93.2232860 141.6964120  78.5381680  92.3287710
 143.3938300  78.3025780  92.1129740 144.0078710  78.6205070  91.4510820
 143.9387860  77.8174370  92.7325600 133.9159560  76.9820040  92.2268800
 134.4642550  76.8008090  91.4634910 133.9814870  76.1914150  92.7625110
 134.6891320  93.5725690  90.2369000 134.0951640  93.4410390  90.9759040
 134.6815160  92.7363830  89.7711100 144.1346340  76.8657920  88.4399030
 143.2606180  77.1993030  88.2371960 144.0257090  76.3931100  89.2650900
 145.0418320  79.0728790  89.8240750 144.7131680  78.2580550  89.4442480
 145.9900620  79.0298600  89.7006440 147.4952930  94.8440830  86.7978320
 147.0355900  95.5956640  86.4236340 146.8665390  94.1247300  86.7393120
 134.3203550  90.9384070  89.1877040 133.5937610  90.3189360  89.1202990
 134.3812700  91.3324680  88.3175120 137.9248650  93.1529070  85.9726450
 138.4413670  92.5416430  85.4474710 138.5746030  93.6557850  86.4637460
 140.6644150  94.0437560  86.7995430 140.9521960  93.7891860  85.9228440
 141.1767370  93.4914920  87.3901000 141.8821160  77.7827760  87.3791940
 141.0992950  78.2573260  87.6588700 141.5884090  76.8782590  87.2705120
 146.4342230  78.4850860  85.4241030 146.8750320  78.4295960  84.5762630
 146.1649820  79.4008870  85.4951210 133.2261570  78.0875240  79.9005660
 133.9840930  78.2004120  79.3269690 132.7638740  78.9244440  79.8549090
 139.7675380  80.2014510  82.8907970 138.9549890  79.8271400  82.5503850
 140.2717020  79.4459590  83.1929160 144.2700360  76.8656960  84.1291040
 144.8729730  77.4377170  84.6039560 143.5293350  77.4296400  83.9064940
 147.4134960  77.2678520  79.4031320 147.6085590  78.1661970  79.6698750
 146.6264830  77.0365600  79.8964270 135.5986720  78.6139290  78.4407630
 136.1279480  77.8269090  78.3115580 136.2315040  79.2930480  78.6743160
 137.7924560  78.3514430  81.4953020 137.1627300  77.6501740  81.6623150
 137.2529700  79.1118560  81.2786180 140.7316510  94.9653660  94.1663630
 141.6583820  94.7297930  94.2099590 140.7166940  95.7925660  93.6849660
 137.9180120  77.6298410  93.9305510 137.6364390  78.1332010  93.1666330
 138.2999820  76.8320160  93.5647640 135.9704010  91.0138800  78.7219520
 135.3412890  91.4823900  79.2705350 136.0851840  90.1688020  79.1565710
 144.5195580  77.0451990  94.5085980 144.4061030  77.3646600  95.4037500
 145.3365320  77.4464500  94.2123260 147.2994070  94.1923520  93.9904670
 148.0919390  93.6972750  93.7830630 147.5927220  94.8713660  94.5980280
 143.4253730  85.0644460  64.8720720 143.3447780  84.1499070  64.6012430
 143.0118150  85.5611530  64.1660430 141.5571770  86.8423480  66.7529990
 140.7813870  86.3623920  67.0428560 142.2084700  86.1629130  66.5786150
 145.5779200  91.2483670  65.5329120 145.1160730  90.4770910  65.8616290
 146.3904750  91.2749740  66.0381570 135.5538860  91.1883380  67.8263770
 135.8566900  90.2981120  67.6473990 136.2982450  91.7453600  67.5986020
 133.9829550  82.1145180  61.4148140 133.0946250  82.4561150  61.3128020
 134.2670740  81.9145500  60.5228970 141.8042510  93.5341680  65.1533110
 141.1853950  93.9899180  64.5827550 142.6594290  93.6893140  64.7522810
 140.9980760  89.5180670  66.7600150 140.9289040  88.5770610  66.5989280
 141.7600620  89.6082080  67.3322720 142.0285930  82.3251050  66.9869080
 142.4050750  81.4522930  66.8742750 141.9305440  82.6609750  66.0959520
 136.1590940  80.6976680  62.4486520 136.2657690  81.5980410  62.7555280
 135.2483300  80.6494650  62.1581170 145.8110050  79.8201490  63.9197420
 146.6319670  79.3298060  63.9622900 145.8444130  80.4099150  64.6729260
 136.2834770  78.3061610  71.0475120 136.2853210  78.8234000  70.2421020
 135.4539080  77.8291790  71.0245050 142.6705860  88.4180920  62.5465020
 142.0523130  88.8830370  61.9827740 143.1829110  89.1108400  62.9634530
 146.0471530  81.7601870  66.6924960 145.3427100  82.0486760  67.2728070
 146.4083690  82.5701980  66.3324520 135.9650100  80.0171570  69.0545570
 136.3066910  80.8613620  68.7599440 135.0265910  80.1655310  69.1710910
 136.7456720  89.9137590  71.0397800 137.3630720  90.5888670  70.7582250
 135.8849840  90.3225570  70.9485300 132.0389060  89.1037450  59.9204650
 131.6617040  89.5924550  59.1889550 132.2962130  89.7762730  60.5511180
 147.6634310  91.3777000  68.9552440 146.9797830  92.0476110  68.9469110
 148.2028600  91.5757650  68.1897300 139.6477990  77.5053840  65.3790160
 139.9552970  76.9500730  64.6625660 138.7178690  77.6398300  65.1963150
 145.1993050  93.2221130  67.6697620 145.2120210  92.8183420  66.8019880
 144.6468270  93.9968420  67.5659050 146.4938470  89.9437350  62.7587790
 146.3834800  89.0011680  62.8837210 146.4906720  90.3052990  63.6450550
 144.5978490  88.1250970  68.9980230 145.0147280  87.9111080  68.1633690
 145.3218310  88.3823760  69.5688850 142.0358750  85.5702670  62.1150280
 141.1088030  85.5040050  62.3438750 142.1883570  86.5082800  62.0005520
 142.0227830  81.8419670  59.1117440 141.0831500  82.0033630  59.1969900
 142.3411090  82.5605350  58.5653430 146.0656040  87.1322970  62.6185530
 145.4468460  86.7942520  61.9711830 146.0480490  86.4882730  63.3264720
 145.5082600  83.3107510  70.0351340 145.0953780  84.1361220  70.2891330
 144.7758550  82.7252550  69.8427700 137.6415390  86.0967410  64.8970010
 137.2372390  85.3844660  64.4015910 137.7278510  85.7520650  65.7858050
 138.1097090  89.7834970  67.0609220 137.8125380  89.1780440  66.3817000
 139.0596910  89.8212280  66.9498580 146.1982700  93.3566840  70.7232320
 145.7213260  94.1639030  70.5304930 145.5144490  92.7045170  70.8758530
 137.2015520  89.5216660  73.7117020 136.3044050  89.7456630  73.9590420
 137.2268390  89.6451600  72.7628420 144.2420740  86.3709780  59.6258280
 144.6814020  85.5332210  59.4796100 144.9549160  87.0039180  59.7122420
 142.3516120  91.3105850  63.5939520 142.7912030  92.0530180  63.1794910
 142.2903010  91.5532420  64.5178480 137.8267090  92.3351680  74.4959540
 137.7982520  92.7394630  73.6287970 137.6632060  91.4062040  74.3331140
 147.8237880  77.6252590  57.9399320 147.5110540  77.7179420  58.8398390
 148.5850350  78.2033620  57.8896750 134.3420020  84.9912390  62.3976660
 134.2217620  85.7174480  61.7857930 134.0320910  84.2215300  61.9204570
 133.2253020  89.8627720  64.6151480 132.8181100  90.0042310  63.7605080
 134.1166030  89.5787880  64.4122690 143.0431900  94.0119630  71.5218530
 143.5576570  93.9227640  72.3240960 142.2000980  94.3579330  71.8146440
 145.0186300  94.2974970  60.9502530 144.8587440  94.0077910  61.8484360
 144.8533010  93.5215100  60.4147760 137.4974680  94.0773500  62.7274150
 137.3217160  93.1609040  62.5141950 136.6430420  94.4360790  62.9671950
 144.7212430  91.8062530  59.5100530 144.0277590  91.8039820  58.8502810
 145.4635290  91.3821850  59.0794700 144.2862360  93.4325240  63.5849020
 144.7419310  92.6514620  63.8987640 144.6254880  94.1432060  64.1290200
 132.0364910  89.2041700  70.7439760 132.1995950  88.7347060  69.9259130
 132.5017360  88.6965260  71.4088600 136.8083680  78.3347460  65.7800330
 136.3651830  79.1157000  65.4484850 137.3668670  78.6577350  66.4871270
 141.0953490  81.2015980  71.3835650 140.6332860  81.4099000  72.1955590
 140.6931600  80.3875330  71.0806320 146.0958000  82.4224930  72.5132310
 145.2451590  82.1230680  72.8341380 145.9359790  82.6666940  71.6016130
 143.1907710  83.9226680  74.6131100 143.5161120  83.0890430  74.2733330
 143.9788040  84.4455200  74.7609430 139.9242500  77.9558160  60.6606160
 139.2996680  77.9518030  61.3859470 139.8372620  77.0889120  60.2642130
 138.8459580  78.8794790  67.6389930 139.1431910  79.7857620  67.5581950
 139.3945140  78.3913570  67.0249500 136.5997900  83.4581030  63.5081580
 136.3738820  83.2418200  64.4128200 135.8190430  83.8909490  63.1627550
 143.8295660  83.4644400  62.1072230 143.2304550  84.1880200  61.9235850
 144.3775270  83.4021180  61.3248680 139.0397110  84.3566610  74.1741850
 138.9440710  83.4161340  74.0242250 139.8829090  84.5781680  73.7789920
 142.4360530  82.1007940  64.1375510 142.8290100  82.4180140  63.3244200
 142.7977380  81.2219820  64.2520030 140.7452700  80.8515250  75.3972370
 140.0551020  80.6587450  76.0318460 141.4885000  81.1349890  75.9296670
 131.4724700  78.6908740  66.3605710 131.1837750  79.2611600  67.0730690
 132.2170460  78.2113190  66.7236940 143.0215670  84.6913690  68.2326290
 142.2896790  85.2000500  68.5816390 142.6240010  83.8743670  67.9315070
 139.4593060  81.3667890  66.6378780 139.4629120  80.9257840  65.7883320
 140.3544180  81.6885220  66.7450600 135.3095440  81.2494380  65.5972990
 134.9695490  81.7269610  66.3540040 134.5472760  80.7959500  65.2374090
 139.5213210  82.3679970  59.6285540 139.6426030  82.3266450  60.5771360
 139.1361720  83.2304120  59.4732270 143.4841580  80.1447370  67.6449230
 143.5014320  80.5956020  68.4891080 143.2357160  79.2453010  67.8582670
 138.5334710  84.6781110  59.0268840 137.9651610  84.2299360  58.4004750
 139.2423710  85.0373890  58.4933990 146.9112330  77.5579550  73.4835610
 147.2358100  76.8269210  74.0093590 146.9468840  77.2393190  72.5816600
 133.6103890  88.5793130  72.9035570 133.2258680  87.9386800  73.5018530
 133.9216080  89.2829250  73.4730300 132.6241520  80.1713360  64.5137660
 132.3388440  79.8069030  65.3516280 132.5620380  79.4393820  63.9000800
 136.0782190  88.6739300  61.2995250 135.3044450  88.1336920  61.1393970
 136.8076820  88.1545910  60.9613010 146.8370170  87.6704660  67.0921640
 147.5569290  88.1659950  66.7017750 146.6351990  86.9922550  66.4475510
 142.2980110  79.0642620  61.2351030 141.4844720  78.5655790  61.1596340
 142.1042060  79.9040870  60.8187380 142.2188970  87.7413720  72.9790640
 142.1526280  86.8209390  72.7248230 141.5894110  87.8389160  73.6935280
 145.0128500  83.4362270  59.5313190 145.9008120  83.7479500  59.3564530
 144.9833590  82.5634520  59.1393770 136.1219590  88.3419680  64.9374060
 136.6398260  87.5387940  64.8830950 135.6703610  88.2798820  65.7790890
 141.0089090  89.6085960  60.2101360 141.3504790  90.3528190  59.7144680
 140.1801800  89.9217080  60.5726190 142.1505700  90.5634290  72.7294440
 142.1650240  89.6315250  72.5113350 141.4430800  90.6494050  73.3684210
 147.2842770  84.7474110  58.9993050 147.2006490  85.1788330  58.1489490
 148.0036960  85.2072460  59.4319870 148.3130020  91.6016370  61.7275180
 147.6706180  90.9471990  62.0018900 147.9260680  92.0071460  60.9515850
 143.8916500  88.9301800  65.5746870 144.2440320  88.3329930  64.9148240
 143.0078830  88.6046030  65.7455120 139.9779780  89.6899490  62.9817280
 140.6650910  90.2368700  63.3624870 139.1912200  90.2340220  63.0166890
 139.2806990  86.6945520  62.5942640 139.7369770  87.5050770  62.8202830
 138.9295200  86.3768660  63.4261130 141.5839600  92.2051860  69.8234940
 142.2281820  92.4111240  70.5008360 141.9469040  91.4440260  69.3705790
 135.1818770  77.0383170  63.0665160 135.0533400  77.0301070  64.0150080
 134.3580790  77.3766260  62.7156170 142.8571680  90.2084210  68.5412390
 143.4993910  89.5077370  68.6544560 143.3821030  90.9882650  68.3609280
 146.7027400  90.4932830  58.2651530 146.4764980  89.7763270  58.8576170
 146.3123600  90.2445270  57.4273280 144.6309300  91.0079110  71.7448450
 144.9665540  91.5945800  72.4226370 143.7109640  90.8771820  71.9746240
 132.4843430  94.5199690  59.0395990 132.8441070  95.1189030  58.3853260
 132.3435770  95.0659580  59.8131020 146.2843650  88.4104770  59.9265690
 145.9965350  88.8717460  60.7143570 147.0795820  87.9502540  60.1949910
 132.4685290  92.7854550  73.5138390 132.5776410  91.8449290  73.3733780
 131.8165850  93.0509300  72.8652120 140.4597880  91.0570440  74.9136510
 140.1394750  90.3379680  75.4582200 139.7856240  91.7325510  74.9872570
 138.5012050  91.9030890  59.8569660 138.4922150  92.6360580  59.2414170
 137.5810410  91.6562470  59.9496620 134.1018690  87.1245780  60.6016420
 133.4946640  87.8644680  60.6111720 134.5768040  87.2145140  59.7754620
 143.6751480  81.2896600  70.2773310 144.0432300  80.4691810  70.6052880
 142.8149680  81.3498490  70.6928960 147.0413510  80.2453540  61.0860870
 146.4126670  80.3499210  60.3719100 146.5465430  80.4650320  61.8754750
 141.4871650  91.9659130  58.5194850 141.5883630  91.7623120  57.5896830
 140.5873390  91.7117410  58.7242630 139.0097540  82.5239490  62.5018750
 138.3013690  82.9925830  62.9432360 139.2942020  81.8661500  63.1363940
 140.6353470  83.9436190  70.5011280 141.1338720  84.4182010  71.1663130
 140.7776420  83.0199710  70.7081310 143.0412970  79.2490150  63.9414540
 142.9180750  79.2676280  62.9924050 143.9897530  79.2969090  64.0612940
 140.1289760  94.4845450  63.2142520 140.3831260  94.4466840  62.2921890
 139.1802240  94.3578780  63.2070770 137.2132560  80.8324570  59.8769460
 138.0623090  81.2694720  59.8109650 136.8463830  81.1444830  60.7041520
 147.8420330  80.1604150  71.3439670 147.3393930  80.9009550  71.6833480
 148.6576990  80.5488150  71.0276460 146.1342340  85.4037330  64.7901030
 145.1932480  85.4187560  64.9648720 146.4486410  84.6173290  65.2361330
 136.1123980  87.0856930  58.3504990 136.8787250  86.9738290  58.9130420
 136.1898670  86.3894900  57.6981760 134.8070740  84.5182000  59.0337880
 134.8874330  83.5709510  59.1455280 135.6990490  84.8488880  59.1398540
 135.6085450  94.6677390  66.1372420 136.3447930  94.1192850  66.4080990
 135.9926370  95.5333400  65.9978410 132.4930930  90.7350960  62.0113930
 131.5670710  90.9772100  62.0019340 132.9587360  91.5625220  61.8898680
 138.7187760  93.8407700  57.9597990 139.5116370  94.1296530  57.5079780
 138.1992110  93.4099870  57.2810470 143.4508360  89.9603330  75.2733410
 142.8446520  89.9834930  74.5329160 143.1462470  89.2286370  75.8100660
 144.8808730  93.6883620  73.8842820 145.8330480  93.6041640  73.8343060
 144.7336950  94.3525330  74.5576610 147.7717930  93.0677830  59.3834730
 147.4859440  92.6542970  58.5688910 147.5737480  93.9965540  59.2635250
 139.2365160  89.0611110  57.8240340 139.1315800  88.4463460  58.5501720
 139.0689380  88.5377000  57.0403350 139.3879480  87.7467910  73.8029570
 138.6225150  88.3152910  73.7184240 139.5695440  87.4544120  72.9097800
 142.4767890  88.1231140  58.4282330 141.9277990  88.5700440  59.0725070
 143.0987150  87.6180390  58.9520000 146.5302830  89.4773240  74.3604590
 147.2712300  89.8149000  73.8572050 145.7675510  89.6465300  73.8074360
 138.1443010  87.0822060  60.3247630 138.5659430  86.9161930  61.1679020
 138.2693850  86.2722290  59.8302770 140.6570650  86.1059670  57.5724730
 141.1776310  85.3908690  57.2065880 141.3039050  86.7445540  57.8725240
 145.2048490  87.5288070  72.8959800 145.6189510  87.6833150  73.7450220
 144.2699490  87.6543290  73.0585580 145.6770660  84.8684230  74.8998950
 146.2591430  84.1136550  74.8119430 145.8532430  85.3991670  74.1230430
 139.5604170  78.5854220  70.2443290 139.1121470  78.6078480  69.3988840
 138.9269370  78.1873240  70.8413590 139.9663720  87.4808550  70.8655730
 140.3851830  88.3241280  70.6931970 139.0472350  87.6180590  70.6362510
 142.3027620  85.2124730  72.2493570 142.4223830  84.6165870  72.9888410
 143.1621620  85.2494420  71.8294870 144.6415520  85.7661920  70.8256080
 144.1150740  86.2904540  70.2221220 144.9846860  86.3989310  71.4565810
 137.0401910  83.1555290  57.2705790 136.8390970  82.2922650  57.6319130
 136.8693960  83.0688650  56.3327390 137.8171140  93.7861560  71.9813460
 137.2792230  94.5107620  71.6622160 138.0705100  93.3091900  71.1910800
 139.0696390  81.7546080  73.5069390 139.6596080  81.4461930  74.1947210
 138.2516630  81.2825830  73.6629290 143.8889820  81.3711890  73.7402410
 143.2005340  80.7093430  73.6752400 144.6095840  80.9250160  74.1850870
 144.5190220  77.9663520  59.7992670 144.7992510  77.1231420  60.1552090
 143.7455950  78.1986630  60.3131420 135.8384710  80.2555910  57.2583670
 136.1410610  80.2623340  56.3502820 136.5779300  79.9053770  57.7551330
 140.6733350  95.0212770  72.2400110 140.5992050  95.9247910  72.5472480
 139.7712190  94.7024670  72.2122180 139.0569640  79.1990530  58.2439870
 138.7091640  78.5214520  57.6642320 139.2582410  78.7380040  59.0583260
 141.2218680  94.1871280  59.8626470 142.1169470  94.5256250  59.8845230
 141.2536310  93.4650690  59.2350750 134.8614840  89.5598330  58.0913470
 135.2989710  90.1028000  58.7471050 135.3462570  88.7345280  58.1009810
 132.0760640  92.3487360  65.5433730 132.4063650  91.4808420  65.3112370
 132.5051640  92.5545880  66.3738690 136.6722560  90.6796370  63.2035700
 136.3718100  90.5561340  64.1039610 136.5660050  89.8204960  62.7951430
 132.5650850  93.2157950  68.2815360 132.1281840  93.3958750  69.1139510
 133.1328530  93.9732570  68.1397080 148.2013030  92.7174950  72.5692670
 147.6015020  92.7767510  71.8256590 148.3306930  91.7779930  72.6989520
 146.8864670  89.4426930  70.6668830 146.0724510  89.8724090  70.9294620
 147.2938870  90.0545340  70.0537880 145.3465720  80.5219470  58.8622730
 145.7650600  80.3350450  58.0219390 145.0401780  79.6698520  59.1725660
 148.2355070  84.5815130  72.1938050 148.0041160  84.3527880  71.2936000
 148.4959620  85.5014680  72.1482940 146.6743140  79.8071560  74.9717750
 147.5513320  79.8154960  75.3551750 146.6863980  79.0702400  74.3610100
 131.6113360  82.9377110  60.5829570 130.7077440  83.2007310  60.4081230
 132.0953980  83.2088280  59.8029530 148.2996130  83.7440970  69.3825320
 147.3498840  83.7104510  69.4970310 148.4809140  84.6541080  69.1475090
 134.1540570  81.9942650  58.4923950 134.8632270  81.5725870  58.0071230
 133.4380510  82.0617880  57.8607300 133.8014730  78.0481980  57.5326600
 134.5242860  78.5890920  57.8507820 134.0739250  77.7745400  56.6568140
 147.6106380  82.9174450  61.7998180 148.1065500  82.6845320  62.5847060
 147.4122450  82.0786290  61.3835820 133.4906920  77.2988170  67.4349220
 134.1383110  76.7485550  66.9944380 133.9108760  77.5531320  68.2565030
 147.3859260  77.4929530  70.7918860 148.0231480  78.1063670  71.1578050
 147.5334150  77.5290190  69.8468090 146.9440720  94.1945530  64.1937100
 147.5399790  93.8730100  63.5171520 147.2018870  93.7217350  64.9850370
 134.8503290  90.6263440  74.3427730 134.8072920  90.2556350  75.2242190
 134.9814300  91.5641010  74.4829550 138.5509320  92.1823030  69.9437450
 138.3100680  92.4497590  69.0567970 139.4911960  92.3528760  69.9988310
 140.7563740  78.6455720  73.6993960 140.6952630  79.2377550  74.4489370
 141.6964120  78.5381680  73.5544220 143.3938300  78.3025780  73.3386250
 144.0078710  78.6205070  72.6767330 143.9387860  77.8174370  73.9582110
 134.6891320  93.5725690  71.4625510 134.0951640  93.4410390  72.2015550
 134.6815160  92.7363830  70.9967610 144.1346340  76.8657920  69.6655540
 143.2606180  77.1993030  69.4628470 144.0257090  76.3931100  70.4907410
 145.0418320  79.0728790  71.0497260 144.7131680  78.2580550  70.6698990
 145.9900620  79.0298600  70.9262950 147.4952930  94.8440830  68.0234830
 147.0355900  95.5956640  67.6492850 146.8665390  94.1247300  67.9649630
 134.3203550  90.9384070  70.4133550 133.5937610  90.3189360  70.3459500
 134.3812700  91.3324680  69.5431630 137.9248650  93.1529070  67.1982960
 138.4413670  92.5416430  66.6731220 138.5746030  93.6557850  67.6893970
 140.6644150  94.0437560  68.0251940 140.9521960  93.7891860  67.1484950
 141.1767370  93.4914920  68.6157510 141.8821160  77.7827760  68.6048450
 141.0992950  78.2573260  68.8845210 141.5884090  76.8782590  68.4961630
 146.4342230  78.4850860  66.6497540 146.8750320  78.4295960  65.8019140
 146.1649820  79.4008870  66.7207720 132.6033550  94.2558460  63.6230310
 132.4355590  93.6229140  64.3212200 131.7368060  94.4617860  63.2724500
 133.2261570  78.0875240  61.1262170 133.9840930  78.2004120  60.5526200
 132.7638740  78.9244440  61.0805600 139.7675380  80.2014510  64.1164480
 138.9549890  79.8271400  63.7760360 140.2717020  79.4459590  64.4185670
 144.2700360  76.8656960  65.3547550 144.8729730  77.4377170  65.8296070
 143.5293350  77.4296400  65.1321450 147.4134960  77.2678520  60.6287830
 147.6085590  78.1661970  60.8955260 146.6264830  77.0365600  61.1220780
 134.2096250  92.9491690  61.0680450 133.6843870  93.3299720  60.3642410
 134.1340830  93.5742460  61.7890160 135.5986720  78.6139290  59.6664140
 136.1279480  77.8269090  59.5372090 136.2315040  79.2930480  59.8999670
 137.7924560  78.3514430  62.7209530 137.1627300  77.6501740  62.8879660
 137.2529700  79.1118560  62.5042690 140.7316510  94.9653660  75.3920140
 141.6583820  94.7297930  75.4356100 140.7166940  95.7925660  74.9106170
 137.9180120  77.6298410  75.1562020 137.6364390  78.1332010  74.3922840
 138.2999820  76.8320160  74.7904150 136.8089220  94.8974070  59.9429700
 137.5408040  94.6133350  59.3953590 137.0682890  94.6587350  60.8329080
 135.9704010  91.0138800  59.9476030 135.3412890  91.4823900  60.4961860
 136.0851840  90.1688020  60.3822220 144.5195580  77.0451990  75.7342490
 144.4061030  77.3646600  76.6294010 145.3365320  77.4464500  75.4379770
 147.2994070  94.1923520  75.2161180 148.0919390  93.6972750  75.0087140
 147.5927220  94.8713660  75.8236790 143.4253730  85.0644460  46.0977230
 143.3447780  84.1499070  45.8268940 143.0118150  85.5611530  45.3916940
 141.5571770  86.8423480  47.9786500 140.7813870  86.3623920  48.2685070
 142.2084700  86.1629130  47.8042660 135.5737600  87.1543290  48.8562260
 134.7422480  86.8992000  49.2558770 136.1818580  87.2254060  49.5920180
 145.5779200  91.2483670  46.7585630 145.1160730  90.4770910  47.0872800
 146.3904750  91.2749740  47.2638080 135.5538860  91.1883380  49.0520280
 135.8566900  90.2981120  48.8730500 136.2982450  91.7453600  48.8242530
 133.9829550  82.1145180  42.6404650 133.0946250  82.4561150  42.5384530
 134.2670740  81.9145500  41.7485480 131.9462560  84.7150830  48.5244350
 132.5178670  83.9473030  48.5247990 131.9464100  85.0139590  47.6150960
 141.8042510  93.5341680  46.3789620 141.1853950  93.9899180  45.8084060
 142.6594290  93.6893140  45.9779320 140.9980760  89.5180670  47.9856660
 140.9289040  88.5770610  47.8245790 141.7600620  89.6082080  48.5579230
 133.1887430  80.1235190  50.3113280 133.0090270  79.2260940  50.5916040
 132.7867510  80.6707060  50.9860230 142.0285930  82.3251050  48.2125590
 142.4050750  81.4522930  48.0999260 141.9305440  82.6609750  47.3216030
 136.1590940  80.6976680  43.6743030 136.2657690  81.5980410  43.9811790
 135.2483300  80.6494650  43.3837680 145.8110050  79.8201490  45.1453930
 146.6319670  79.3298060  45.1879410 145.8444130  80.4099150  45.8985770
 133.8074100  82.6195690  48.9195620 134.4884210  82.8834060  49.5383020
 133.4922150  81.7796560  49.2533630 137.9998670  83.6663050  48.0068210
 138.5076890  84.1644020  48.6473230 138.5311910  82.8898250  47.8307570
 136.2834770  78.3061610  52.2731630 136.2853210  78.8234000  51.4677530
 135.4539080  77.8291790  52.2501560 142.6705860  88.4180920  43.7721530
 142.0523130  88.8830370  43.2084250 143.1829110  89.1108400  44.1891040
 137.5337620  87.9456790  50.4505130 137.2007000  88.5725710  51.0926200
 137.7104300  88.4718670  49.6706800 146.0471530  81.7601870  47.9181470
 145.3427100  82.0486760  48.4984580 146.4083690  82.5701980  47.5581030
 135.9650100  80.0171570  50.2802080 136.3066910  80.8613620  49.9855950
 135.0265910  80.1655310  50.3967420 136.7456720  89.9137590  52.2654310
 137.3630720  90.5888670  51.9838760 135.8849840  90.3225570  52.1741810
 132.0389060  89.1037450  41.1461160 131.6617040  89.5924550  40.4146060
 132.2962130  89.7762730  41.7767690 147.6634310  91.3777000  50.1808950
 146.9797830  92.0476110  50.1725620 148.2028600  91.5757650  49.4153810
 139.6477990  77.5053840  46.6046670 139.9552970  76.9500730  45.8882170
 138.7178690  77.6398300  46.4219660 145.1993050  93.2221130  48.8954130
 145.2120210  92.8183420  48.0276390 144.6468270  93.9968420  48.7915560
 146.4938470  89.9437350  43.9844300 146.3834800  89.0011680  44.1093720
 146.4906720  90.3052990  44.8707060 144.5978490  88.1250970  50.2236740
 145.0147280  87.9111080  49.3890200 145.3218310  88.3823760  50.7945360
 142.0358750  85.5702670  43.3406790 141.1088030  85.5040050  43.5695260
 142.1883570  86.5082800  43.2262030 142.0227830  81.8419670  40.3373950
 141.0831500  82.0033630  40.4226410 142.3411090  82.5605350  39.7909940
 146.0656040  87.1322970  43.8442040 145.4468460  86.7942520  43.1968340
 146.0480490  86.4882730  44.5521230 145.5082600  83.3107510  51.2607850
 145.0953780  84.1361220  51.5147840 144.7758550  82.7252550  51.0684210
 137.6415390  86.0967410  46.1226520 137.2372390  85.3844660  45.6272420
 137.7278510  85.7520650  47.0114560 138.1097090  89.7834970  48.2865730
 137.8125380  89.1780440  47.6073510 139.0596910  89.8212280  48.1755090
 136.3544010  82.8710620  49.9025560 136.9058600  82.9805960  49.1278810
 136.8687520  83.2448220  50.6180790 146.1982700  93.3566840  51.9488830
 145.7213260  94.1639030  51.7561440 145.5144490  92.7045170  52.1015040
 137.2015520  89.5216660  54.9373530 136.3044050  89.7456630  55.1846930
 137.2268390  89.6451600  53.9884930 144.2420740  86.3709780  40.8514790
 144.6814020  85.5332210  40.7052610 144.9549160  87.0039180  40.9378930
 136.0286740  86.3929980  53.5130900 135.8894510  87.2652780  53.8818300
 135.1468100  86.0502790  53.3678840 142.3516120  91.3105850  44.8196030
 142.7912030  92.0530180  44.4051420 142.2903010  91.5532420  45.7434990
 137.8267090  92.3351680  55.7216050 137.7982520  92.7394630  54.8544480
 137.6632060  91.4062040  55.5587650 147.8237880  77.6252590  39.1655830
 147.5110540  77.7179420  40.0654900 148.5850350  78.2033620  39.1153260
 134.3420020  84.9912390  43.6233170 134.2217620  85.7174480  43.0114440
 134.0320910  84.2215300  43.1461080 131.9805390  88.1627530  49.4301810
 132.0585810  88.2976300  48.4857530 132.5947070  87.4543420  49.6229930
 133.2253020  89.8627720  45.8407990 132.8181100  90.0042310  44.9861590
 134.1166030  89.5787880  45.6379200 143.0431900  94.0119630  52.7475040
 143.5576570  93.9227640  53.5497470 142.2000980  94.3579330  53.0402950
 145.0186300  94.2974970  42.1759040 144.8587440  94.0077910  43.0740870
 144.8533010  93.5215100  41.6404270 137.4974680  94.0773500  43.9530660
 137.3217160  93.1609040  43.7398460 136.6430420  94.4360790  44.1928460
 144.7212430  91.8062530  40.7357040 144.0277590  91.8039820  40.0759320
 145.4635290  91.3821850  40.3051210 144.2862360  93.4325240  44.8105530
 144.7419310  92.6514620  45.1244150 144.6254880  94.1432060  45.3546710
 132.0364910  89.2041700  51.9696270 132.1995950  88.7347060  51.1515640
 132.5017360  88.6965260  52.6345110 136.8083680  78.3347460  47.0056840
 136.3651830  79.1157000  46.6741360 137.3668670  78.6577350  47.7127780
 141.0953490  81.2015980  52.6092160 140.6332860  81.4099000  53.4212100
 140.6931600  80.3875330  52.3062830 146.0958000  82.4224930  53.7388820
 145.2451590  82.1230680  54.0597890 145.9359790  82.6666940  52.8272640
 143.1907710  83.9226680  55.8387610 143.5161120  83.0890430  55.4989840
 143.9788040  84.4455200  55.9865940 139.9242500  77.9558160  41.8862670
 139.2996680  77.9518030  42.6115980 139.8372620  77.0889120  41.4898640
 138.8459580  78.8794790  48.8646440 139.1431910  79.7857620  48.7838460
 139.3945140  78.3913570  48.2506010 136.5997900  83.4581030  44.7338090
 136.3738820  83.2418200  45.6384710 135.8190430  83.8909490  44.3884060
 143.8295660  83.4644400  43.3328740 143.2304550  84.1880200  43.1492360
 144.3775270  83.4021180  42.5505190 139.0397110  84.3566610  55.3998360
 138.9440710  83.4161340  55.2498760 139.8829090  84.5781680  55.0046430
 142.4360530  82.1007940  45.3632020 142.8290100  82.4180140  44.5500710
 142.7977380  81.2219820  45.4776540 134.1707650  80.7680280  53.5532140
 133.7771040  81.6155490  53.7604920 133.4826050  80.1306650  53.7440780
 140.7452700  80.8515250  56.6228880 140.0551020  80.6587450  57.2574970
 141.4885000  81.1349890  57.1553180 131.4724700  78.6908740  47.5862220
 131.1837750  79.2611600  48.2987200 132.2170460  78.2113190  47.9493450
 131.6594930  82.6328860  38.7964940 131.5769600  83.5759620  38.9379930
 131.3077990  82.4903770  37.9177290 143.0215670  84.6913690  49.4582800
 142.2896790  85.2000500  49.8072900 142.6240010  83.8743670  49.1571580
 139.4593060  81.3667890  47.8635290 139.4629120  80.9257840  47.0139830
 140.3544180  81.6885220  47.9707110 135.3095440  81.2494380  46.8229500
 134.9695490  81.7269610  47.5796550 134.5472760  80.7959500  46.4630600
 139.5213210  82.3679970  40.8542050 139.6426030  82.3266450  41.8027870
 139.1361720  83.2304120  40.6988780 143.4841580  80.1447370  48.8705740
 143.5014320  80.5956020  49.7147590 143.2357160  79.2453010  49.0839180
 138.5334710  84.6781110  40.2525350 137.9651610  84.2299360  39.6261260
 139.2423710  85.0373890  39.7190500 146.9112330  77.5579550  54.7092120
 147.2358100  76.8269210  55.2350100 146.9468840  77.2393190  53.8073110
 133.6103890  88.5793130  54.1292080 133.2258680  87.9386800  54.7275040
 133.9216080  89.2829250  54.6986810 139.7601030  85.4269670  49.6100700
 140.1271160  84.9528240  50.3562040 139.5706090  86.3011240  49.9509040
 132.6241520  80.1713360  45.7394170 132.3388440  79.8069030  46.5772790
 132.5620380  79.4393820  45.1257310 137.5500400  84.4678310  51.9284910
 137.2457470  85.3470290  52.1535270 138.5046860  84.5278100  51.9642350
 136.0782190  88.6739300  42.5251760 135.3044450  88.1336920  42.3650480
 136.8076820  88.1545910  42.1869520 146.8370170  87.6704660  48.3178150
 147.5569290  88.1659950  47.9274260 146.6351990  86.9922550  47.6732020
 142.2980110  79.0642620  42.4607540 141.4844720  78.5655790  42.3852850
 142.1042060  79.9040870  42.0443890 142.2188970  87.7413720  54.2047150
 142.1526280  86.8209390  53.9504740 141.5894110  87.8389160  54.9191790
 145.0128500  83.4362270  40.7569700 145.9008120  83.7479500  40.5821040
 144.9833590  82.5634520  40.3650280 136.1219590  88.3419680  46.1630570
 136.6398260  87.5387940  46.1087460 135.6703610  88.2798820  47.0047400
 141.0089090  89.6085960  41.4357870 141.3504790  90.3528190  40.9401190
 140.1801800  89.9217080  41.7982700 136.8077250  85.7665290  55.9595820
 136.5077390  85.9122470  55.0623640 137.5788490  85.2070580  55.8669210
 142.1505700  90.5634290  53.9550950 142.1650240  89.6315250  53.7369860
 141.4430800  90.6494050  54.5940720 147.2842770  84.7474110  40.2249560
 147.2006490  85.1788330  39.3746000 148.0036960  85.2072460  40.6576380
 148.3130020  91.6016370  42.9531690 147.6706180  90.9471990  43.2275410
 147.9260680  92.0071460  42.1772360 143.8916500  88.9301800  46.8003380
 144.2440320  88.3329930  46.1404750 143.0078830  88.6046030  46.9711630
 139.9779780  89.6899490  44.2073790 140.6650910  90.2368700  44.5881380
 139.1912200  90.2340220  44.2423400 132.1172180  85.3072310  39.6990870
 132.9867030  85.5897110  39.9826790 131.6262500  86.1208180  39.5839680
 139.2806990  86.6945520  43.8199150 139.7369770  87.5050770  44.0459340
 138.9295200  86.3768660  44.6517640 141.5839600  92.2051860  51.0491450
 142.2281820  92.4111240  51.7264870 141.9469040  91.4440260  50.5962300
 135.1818770  77.0383170  44.2921670 135.0533400  77.0301070  45.2406590
 134.3580790  77.3766260  43.9412680 142.8571680  90.2084210  49.7668900
 143.4993910  89.5077370  49.8801070 143.3821030  90.9882650  49.5865790
 146.7027400  90.4932830  39.4908040 146.4764980  89.7763270  40.0832680
 146.3123600  90.2445270  38.6529790 144.6309300  91.0079110  52.9704960
 144.9665540  91.5945800  53.6482880 143.7109640  90.8771820  53.2002750
 132.4843430  94.5199690  40.2652500 132.8441070  95.1189030  39.6109770
 132.3435770  95.0659580  41.0387530 146.2843650  88.4104770  41.1522200
 145.9965350  88.8717460  41.9400080 147.0795820  87.9502540  41.4206420
 140.4597880  91.0570440  56.1393020 140.1394750  90.3379680  56.6838710
 139.7856240  91.7325510  56.2129080 138.5012050  91.9030890  41.0826170
 138.4922150  92.6360580  40.4670680 137.5810410  91.6562470  41.1753130
 134.1018690  87.1245780  41.8272930 133.4946640  87.8644680  41.8368230
 134.5768040  87.2145140  41.0011130 143.6751480  81.2896600  51.5029820
 144.0432300  80.4691810  51.8309390 142.8149680  81.3498490  51.9185470
 147.0413510  80.2453540  42.3117380 146.4126670  80.3499210  41.5975610
 146.5465430  80.4650320  43.1011260 141.4871650  91.9659130  39.7451360
 141.5883630  91.7623120  38.8153340 140.5873390  91.7117410  39.9499140
 139.0097540  82.5239490  43.7275260 138.3013690  82.9925830  44.1688870
 139.2942020  81.8661500  44.3620450 140.6353470  83.9436190  51.7267790
 141.1338720  84.4182010  52.3919640 140.7776420  83.0199710  51.9337820
 143.0412970  79.2490150  45.1671050 142.9180750  79.2676280  44.2180560
 143.9897530  79.2969090  45.2869450 140.1289760  94.4845450  44.4399030
 140.3831260  94.4466840  43.5178400 139.1802240  94.3578780  44.4327280
 137.2132560  80.8324570  41.1025970 138.0623090  81.2694720  41.0366160
 136.8463830  81.1444830  41.9298030 147.8420330  80.1604150  52.5696180
 147.3393930  80.9009550  52.9089990 148.6576990  80.5488150  52.2532970
 146.1342340  85.4037330  46.0157540 145.1932480  85.4187560  46.1905230
 146.4486410  84.6173290  46.4617840 136.1123980  87.0856930  39.5761500
 136.8787250  86.9738290  40.1386930 136.1898670  86.3894900  38.9238270
 134.8070740  84.5182000  40.2594390 134.8874330  83.5709510  40.3711790
 135.6990490  84.8488880  40.3655050 135.6085450  94.6677390  47.3628930
 136.3447930  94.1192850  47.6337500 135.9926370  95.5333400  47.2234920
 132.4930930  90.7350960  43.2370440 131.5670710  90.9772100  43.2275850
 132.9587360  91.5625220  43.1155190 134.6143730  93.8523460  56.5514510
 135.4156460  94.1735510  56.9649910 134.0995550  93.4919040  57.2734420
 138.7187760  93.8407700  39.1854500 139.5116370  94.1296530  38.7336290
 138.1992110  93.4099870  38.5066980 143.4508360  89.9603330  56.4989920
 142.8446520  89.9834930  55.7585670 143.1462470  89.2286370  57.0357170
 144.8808730  93.6883620  55.1099330 145.8330480  93.6041640  55.0599570
 144.7336950  94.3525330  55.7833120 147.7717930  93.0677830  40.6091240
 147.4859440  92.6542970  39.7945420 147.5737480  93.9965540  40.4891760
 139.2365160  89.0611110  39.0496850 139.1315800  88.4463460  39.7758230
 139.0689380  88.5377000  38.2659860 139.3879480  87.7467910  55.0286080
 138.6225150  88.3152910  54.9440750 139.5695440  87.4544120  54.1354310
 142.4767890  88.1231140  39.6538840 141.9277990  88.5700440  40.2981580
 143.0987150  87.6180390  40.1776510 146.5302830  89.4773240  55.5861100
 147.2712300  89.8149000  55.0828560 145.7675510  89.6465300  55.0330870
 138.1443010  87.0822060  41.5504140 138.5659430  86.9161930  42.3935530
 138.2693850  86.2722290  41.0559280 136.3070430  83.0618610  54.3575120
 135.7766890  82.5709560  53.7298460 136.9758500  83.4902810  53.8233050
 140.6570650  86.1059670  38.7981240 141.1776310  85.3908690  38.4322390
 141.3039050  86.7445540  39.0981750 145.2048490  87.5288070  54.1216310
 145.6189510  87.6833150  54.9706730 144.2699490  87.6543290  54.2842090
 145.6770660  84.8684230  56.1255460 146.2591430  84.1136550  56.0375940
 145.8532430  85.3991670  55.3486940 136.7942730  80.0280980  54.4372410
 136.6999600  79.4101730  53.7123280 136.2140120  80.7547270  54.2102320
 139.5604170  78.5854220  51.4699800 139.1121470  78.6078480  50.6245350
 138.9269370  78.1873240  52.0670100 139.9663720  87.4808550  52.0912240
 140.3851830  88.3241280  51.9188480 139.0472350  87.6180590  51.8619020
 142.3027620  85.2124730  53.4750080 142.4223830  84.6165870  54.2144920
 143.1621620  85.2494420  53.0551380 144.6415520  85.7661920  52.0512590
 144.1150740  86.2904540  51.4477730 144.9846860  86.3989310  52.6822320
 137.0401910  83.1555290  38.4962300 136.8390970  82.2922650  38.8575640
 136.8693960  83.0688650  37.5583900 137.8171140  93.7861560  53.2069970
 137.2792230  94.5107620  52.8878670 138.0705100  93.3091900  52.4167310
 139.0696390  81.7546080  54.7325900 139.6596080  81.4461930  55.4203720
 138.2516630  81.2825830  54.8885800 143.8889820  81.3711890  54.9658920
 143.2005340  80.7093430  54.9008910 144.6095840  80.9250160  55.4107380
 144.5190220  77.9663520  41.0249180 144.7992510  77.1231420  41.3808600
 143.7455950  78.1986630  41.5387930 135.8384710  80.2555910  38.4840180
 136.1410610  80.2623340  37.5759330 136.5779300  79.9053770  38.9807840
 140.6733350  95.0212770  53.4656620 140.5992050  95.9247910  53.7728990
 139.7712190  94.7024670  53.4378690 139.0569640  79.1990530  39.4696380
 138.7091640  78.5214520  38.8898830 139.2582410  78.7380040  40.2839770
 141.2218680  94.1871280  41.0882980 142.1169470  94.5256250  41.1101740
 141.2536310  93.4650690  40.4607260 134.8614840  89.5598330  39.3169980
 135.2989710  90.1028000  39.9727560 135.3462570  88.7345280  39.3266320
 132.0760640  92.3487360  46.7690240 132.4063650  91.4808420  46.5368880
 132.5051640  92.5545880  47.5995200 136.6722560  90.6796370  44.4292210
 136.3718100  90.5561340  45.3296120 136.5660050  89.8204960  44.0207940
 132.5650850  93.2157950  49.5071870 132.1281840  93.3958750  50.3396020
 133.1328530  93.9732570  49.3653590 148.2013030  92.7174950  53.7949180
 147.6015020  92.7767510  53.0513100 148.3306930  91.7779930  53.9246030
 132.3975280  85.7278180  45.8660750 131.7424120  85.4589820  45.2220450
 133.2353230  85.6182660  45.4162730 146.8864670  89.4426930  51.8925340
 146.0724510  89.8724090  52.1551130 147.2938870  90.0545340  51.2794390
 145.3465720  80.5219470  40.0879240 145.7650600  80.3350450  39.2475900
 145.0401780  79.6698520  40.3982170 133.4351210  86.1130750  50.4064090
 133.8024250  86.0258150  51.2860110 132.8662030  85.3497300  50.3070950
 148.2355070  84.5815130  53.4194560 148.0041160  84.3527880  52.5192510
 148.4959620  85.5014680  53.3739450 146.6743140  79.8071560  56.1974260
 147.5513320  79.8154960  56.5808260 146.6863980  79.0702400  55.5866610
 131.6113360  82.9377110  41.8086080 130.7077440  83.2007310  41.6337740
 132.0953980  83.2088280  41.0286040 148.2996130  83.7440970  50.6081830
 147.3498840  83.7104510  50.7226820 148.4809140  84.6541080  50.3731600
 134.1540570  81.9942650  39.7180460 134.8632270  81.5725870  39.2327740
 133.4380510  82.0617880  39.0863810 133.8014730  78.0481980  38.7583110
 134.5242860  78.5890920  39.0764330 134.0739250  77.7745400  37.8824650
 147.6106380  82.9174450  43.0254690 148.1065500  82.6845320  43.8103570
 147.4122450  82.0786290  42.6092330 133.4906920  77.2988170  48.6605730
 134.1383110  76.7485550  48.2200890 133.9108760  77.5531320  49.4821540
 147.3859260  77.4929530  52.0175370 148.0231480  78.1063670  52.3834560
 147.5334150  77.5290190  51.0724600 146.9440720  94.1945530  45.4193610
 147.5399790  93.8730100  44.7428030 147.2018870  93.7217350  46.2106880
 134.8503290  90.6263440  55.5684240 134.8072920  90.2556350  56.4498700
 134.9814300  91.5641010  55.7086060 138.5509320  92.1823030  51.1693960
 138.3100680  92.4497590  50.2824480 139.4911960  92.3528760  51.2244820
 140.7563740  78.6455720  54.9250470 140.6952630  79.2377550  55.6745880
 141.6964120  78.5381680  54.7800730 143.3938300  78.3025780  54.5642760
 144.0078710  78.6205070  53.9023840 143.9387860  77.8174370  55.1838620
 134.6891320  93.5725690  52.6882020 134.0951640  93.4410390  53.4272060
 134.6815160  92.7363830  52.2224120 144.1346340  76.8657920  50.8912050
 143.2606180  77.1993030  50.6884980 144.0257090  76.3931100  51.7163920
 145.0418320  79.0728790  52.2753770 144.7131680  78.2580550  51.8955500
 145.9900620  79.0298600  52.1519460 147.4952930  94.8440830  49.2491340
 147.0355900  95.5956640  48.8749360 146.8665390  94.1247300  49.1906140
 134.3203550  90.9384070  51.6390060 133.5937610  90.3189360  51.5716010
 134.3812700  91.3324680  50.7688140 137.9248650  93.1529070  48.4239470
 138.4413670  92.5416430  47.8987730 138.5746030  93.6557850  48.9150480
 140.6644150  94.0437560  49.2508450 140.9521960  93.7891860  48.3741460
 141.1767370  93.4914920  49.8414020 141.8821160  77.7827760  49.8304960
 141.0992950  78.2573260  50.1101720 141.5884090  76.8782590  49.7218140
 146.4342230  78.4850860  47.8754050 146.8750320  78.4295960  47.0275650
 146.1649820  79.4008870  47.9464230 132.6033550  94.2558460  44.8486820
 132.4355590  93.6229140  45.5468710 131.7368060  94.4617860  44.4981010
 133.2261570  78.0875240  42.3518680 133.9840930  78.2004120  41.7782710
 132.7638740  78.9244440  42.3062110 139.7675380  80.2014510  45.3420990
 138.9549890  79.8271400  45.0016870 140.2717020  79.4459590  45.6442180
 144.2700360  76.8656960  46.5804060 144.8729730  77.4377170  47.0552580
 143.5293350  77.4296400  46.3577960 147.4134960  77.2678520  41.8544340
 147.6085590  78.1661970  42.1211770 146.6264830  77.0365600  42.3477290
 134.2096250  92.9491690  42.2936960 133.6843870  93.3299720  41.5898920
 134.1340830  93.5742460  43.0146670 135.5986720  78.6139290  40.8920650
 136.1279480  77.8269090  40.7628600 136.2315040  79.2930480  41.1256180
 137.7924560  78.3514430  43.9466040 137.1627300  77.6501740  44.1136170
 137.2529700  79.1118560  43.7299200 140.7316510  94.9653660  56.6176650
 141.6583820  94.7297930  56.6612610 140.7166940  95.7925660  56.1362680
 137.9180120  77.6298410  56.3818530 137.6364390  78.1332010  55.6179350
 138.2999820  76.8320160  56.0160660 136.8089220  94.8974070  41.1686210
 137.5408040  94.6133350  40.6210100 137.0682890  94.6587350  42.0585590
 135.9704010  91.0138800  41.1732540 135.3412890  91.4823900  41.7218370
 136.0851840  90.1688020  41.6078730 144.5195580  77.0451990  56.9599000
 144.4061030  77.3646600  57.8550520 145.3365320  77.4464500  56.6636280
 147.2994070  94.1923520  56.4417690 148.0919390  93.6972750  56.2343650
 147.5927220  94.8713660  57.0493300 143.4253730  85.0644460  27.3233740
 143.3447780  84.1499070  27.0525450 143.0118150  85.5611530  26.6173450
 141.5571770  86.8423480  29.2043010 140.7813870  86.3623920  29.4941580
 142.2084700  86.1629130  29.0299170 135.5737600  87.1543290  30.0818770
 134.7422480  86.8992000  30.4815280 136.1818580  87.2254060  30.8176690
 145.5779200  91.2483670  27.9842140 145.1160730  90.4770910  28.3129310
 146.3904750  91.2749740  28.4894590 135.5538860  91.1883380  30.2776790
 135.8566900  90.2981120  30.0987010 136.2982450  91.7453600  30.0499040
 133.9829550  82.1145180  23.8661160 133.0946250  82.4561150  23.7641040
 134.2670740  81.9145500  22.9741990 131.9462560  84.7150830  29.7500860
 132.5178670  83.9473030  29.7504500 131.9464100  85.0139590  28.8407470
 141.8042510  93.5341680  27.6046130 141.1853950  93.9899180  27.0340570
 142.6594290  93.6893140  27.2035830 140.9980760  89.5180670  29.2113170
 140.9289040  88.5770610  29.0502300 141.7600620  89.6082080  29.7835740
 133.1887430  80.1235190  31.5369790 133.0090270  79.2260940  31.8172550
 132.7867510  80.6707060  32.2116740 142.0285930  82.3251050  29.4382100
 142.4050750  81.4522930  29.3255770 141.9305440  82.6609750  28.5472540
 136.1590940  80.6976680  24.8999540 136.2657690  81.5980410  25.2068300
 135.2483300  80.6494650  24.6094190 145.8110050  79.8201490  26.3710440
 146.6319670  79.3298060  26.4135920 145.8444130  80.4099150  27.1242280
 133.8074100  82.6195690  30.1452130 134.4884210  82.8834060  30.7639530
 133.4922150  81.7796560  30.4790140 137.9998670  83.6663050  29.2324720
 138.5076890  84.1644020  29.8729740 138.5311910  82.8898250  29.0564080
 136.2834770  78.3061610  33.4988140 136.2853210  78.8234000  32.6934040
 135.4539080  77.8291790  33.4758070 142.6705860  88.4180920  24.9978040
 142.0523130  88.8830370  24.4340760 143.1829110  89.1108400  25.4147550
 137.5337620  87.9456790  31.6761640 137.2007000  88.5725710  32.3182710
 137.7104300  88.4718670  30.8963310 146.0471530  81.7601870  29.1437980
 145.3427100  82.0486760  29.7241090 146.4083690  82.5701980  28.7837540
 135.9650100  80.0171570  31.5058590 136.3066910  80.8613620  31.2112460
 135.0265910  80.1655310  31.6223930 136.7456720  89.9137590  33.4910820
 137.3630720  90.5888670  33.2095270 135.8849840  90.3225570  33.3998320
 132.0389060  89.1037450  22.3717670 131.6617040  89.5924550  21.6402570
 132.2962130  89.7762730  23.0024200 147.6634310  91.3777000  31.4065460
 146.9797830  92.0476110  31.3982130 148.2028600  91.5757650  30.6410320
 139.6477990  77.5053840  27.8303180 139.9552970  76.9500730  27.1138680
 138.7178690  77.6398300  27.6476170 145.1993050  93.2221130  30.1210640
 145.2120210  92.8183420  29.2532900 144.6468270  93.9968420  30.0172070
 146.4938470  89.9437350  25.2100810 146.3834800  89.0011680  25.3350230
 146.4906720  90.3052990  26.0963570 144.5978490  88.1250970  31.4493250
 145.0147280  87.9111080  30.6146710 145.3218310  88.3823760  32.0201870
 142.0358750  85.5702670  24.5663300 141.1088030  85.5040050  24.7951770
 142.1883570  86.5082800  24.4518540 142.0227830  81.8419670  21.5630460
 141.0831500  82.0033630  21.6482920 142.3411090  82.5605350  21.0166450
 146.0656040  87.1322970  25.0698550 145.4468460  86.7942520  24.4224850
 146.0480490  86.4882730  25.7777740 145.5082600  83.3107510  32.4864360
 145.0953780  84.1361220  32.7404350 144.7758550  82.7252550  32.2940720
 137.6415390  86.0967410  27.3483030 137.2372390  85.3844660  26.8528930
 137.7278510  85.7520650  28.2371070 138.1097090  89.7834970  29.5122240
 137.8125380  89.1780440  28.8330020 139.0596910  89.8212280  29.4011600
 136.3544010  82.8710620  31.1282070 136.9058600  82.9805960  30.3535320
 136.8687520  83.2448220  31.8437300 146.1982700  93.3566840  33.1745340
 145.7213260  94.1639030  32.9817950 145.5144490  92.7045170  33.3271550
 137.2015520  89.5216660  36.1630040 136.3044050  89.7456630  36.4103440
 137.2268390  89.6451600  35.2141440 144.2420740  86.3709780  22.0771300
 144.6814020  85.5332210  21.9309120 144.9549160  87.0039180  22.1635440
 136.0286740  86.3929980  34.7387410 135.8894510  87.2652780  35.1074810
 135.1468100  86.0502790  34.5935350 142.3516120  91.3105850  26.0452540
 142.7912030  92.0530180  25.6307930 142.2903010  91.5532420  26.9691500
 137.8267090  92.3351680  36.9472560 137.7982520  92.7394630  36.0800990
 137.6632060  91.4062040  36.7844160 147.8237880  77.6252590  20.3912340
 147.5110540  77.7179420  21.2911410 148.5850350  78.2033620  20.3409770
 134.3420020  84.9912390  24.8489680 134.2217620  85.7174480  24.2370950
 134.0320910  84.2215300  24.3717590 131.9805390  88.1627530  30.6558320
 132.0585810  88.2976300  29.7114040 132.5947070  87.4543420  30.8486440
 133.2253020  89.8627720  27.0664500 132.8181100  90.0042310  26.2118100
 134.1166030  89.5787880  26.8635710 143.0431900  94.0119630  33.9731550
 143.5576570  93.9227640  34.7753980 142.2000980  94.3579330  34.2659460
 145.0186300  94.2974970  23.4015550 144.8587440  94.0077910  24.2997380
 144.8533010  93.5215100  22.8660780 137.4974680  94.0773500  25.1787170
 137.3217160  93.1609040  24.9654970 136.6430420  94.4360790  25.4184970
 144.7212430  91.8062530  21.9613550 144.0277590  91.8039820  21.3015830
 145.4635290  91.3821850  21.5307720 144.2862360  93.4325240  26.0362040
 144.7419310  92.6514620  26.3500660 144.6254880  94.1432060  26.5803220
 132.0364910  89.2041700  33.1952780 132.1995950  88.7347060  32.3772150
 132.5017360  88.6965260  33.8601620 136.8083680  78.3347460  28.2313350
 136.3651830  79.1157000  27.8997870 137.3668670  78.6577350  28.9384290
 141.0953490  81.2015980  33.8348670 140.6332860  81.4099000  34.6468610
 140.6931600  80.3875330  33.5319340 146.0958000  82.4224930  34.9645330
 145.2451590  82.1230680  35.2854400 145.9359790  82.6666940  34.0529150
 143.1907710  83.9226680  37.0644120 143.5161120  83.0890430  36.7246350
 143.9788040  84.4455200  37.2122450 139.9242500  77.9558160  23.1119180
 139.2996680  77.9518030  23.8372490 139.8372620  77.0889120  22.7155150
 138.8459580  78.8794790  30.0902950 139.1431910  79.7857620  30.0094970
 139.3945140  78.3913570  29.4762520 136.5997900  83.4581030  25.9594600
 136.3738820  83.2418200  26.8641220 135.8190430  83.8909490  25.6140570
 143.8295660  83.4644400  24.5585250 143.2304550  84.1880200  24.3748870
 144.3775270  83.4021180  23.7761700 139.0397110  84.3566610  36.6254870
 138.9440710  83.4161340  36.4755270 139.8829090  84.5781680  36.2302940
 142.4360530  82.1007940  26.5888530 142.8290100  82.4180140  25.7757220
 142.7977380  81.2219820  26.7033050 134.1707650  80.7680280  34.7788650
 133.7771040  81.6155490  34.9861430 133.4826050  80.1306650  34.9697290
 140.7452700  80.8515250  37.8485390 140.0551020  80.6587450  38.4831480
 141.4885000  81.1349890  38.3809690 131.4724700  78.6908740  28.8118730
 131.1837750  79.2611600  29.5243710 132.2170460  78.2113190  29.1749960
 131.6594930  82.6328860  20.0221450 131.5769600  83.5759620  20.1636440
 131.3077990  82.4903770  19.1433800 143.0215670  84.6913690  30.6839310
 142.2896790  85.2000500  31.0329410 142.6240010  83.8743670  30.3828090
 139.4593060  81.3667890  29.0891800 139.4629120  80.9257840  28.2396340
 140.3544180  81.6885220  29.1963620 135.3095440  81.2494380  28.0486010
 134.9695490  81.7269610  28.8053060 134.5472760  80.7959500  27.6887110
 139.5213210  82.3679970  22.0798560 139.6426030  82.3266450  23.0284380
 139.1361720  83.2304120  21.9245290 143.4841580  80.1447370  30.0962250
 143.5014320  80.5956020  30.9404100 143.2357160  79.2453010  30.3095690
 138.5334710  84.6781110  21.4781860 137.9651610  84.2299360  20.8517770
 139.2423710  85.0373890  20.9447010 146.9112330  77.5579550  35.9348630
 147.2358100  76.8269210  36.4606610 146.9468840  77.2393190  35.0329620
 133.6103890  88.5793130  35.3548590 133.2258680  87.9386800  35.9531550
 133.9216080  89.2829250  35.9243320 139.7601030  85.4269670  30.8357210
 140.1271160  84.9528240  31.5818550 139.5706090  86.3011240  31.1765550
 132.6241520  80.1713360  26.9650680 132.3388440  79.8069030  27.8029300
 132.5620380  79.4393820  26.3513820 137.5500400  84.4678310  33.1541420
 137.2457470  85.3470290  33.3791780 138.5046860  84.5278100  33.1898860
 136.0782190  88.6739300  23.7508270 135.3044450  88.1336920  23.5906990
 136.8076820  88.1545910  23.4126030 146.8370170  87.6704660  29.5434660
 147.5569290  88.1659950  29.1530770 146.6351990  86.9922550  28.8988530
 142.2980110  79.0642620  23.6864050 141.4844720  78.5655790  23.6109360
 142.1042060  79.9040870  23.2700400 142.2188970  87.7413720  35.4303660
 142.1526280  86.8209390  35.1761250 141.5894110  87.8389160  36.1448300
 145.0128500  83.4362270  21.9826210 145.9008120  83.7479500  21.8077550
 144.9833590  82.5634520  21.5906790 136.1219590  88.3419680  27.3887080
 136.6398260  87.5387940  27.3343970 135.6703610  88.2798820  28.2303910
 141.0089090  89.6085960  22.6614380 141.3504790  90.3528190  22.1657700
 140.1801800  89.9217080  23.0239210 133.6064130  85.3081050  34.3012780
 133.2479070  85.9734900  34.8886120 133.3118690  84.4764600  34.6725400
 136.8077250  85.7665290  37.1852330 136.5077390  85.9122470  36.2880150
 137.5788490  85.2070580  37.0925720 142.1505700  90.5634290  35.1807460
 142.1650240  89.6315250  34.9626370 141.4430800  90.6494050  35.8197230
 147.2842770  84.7474110  21.4506070 147.2006490  85.1788330  20.6002510
 148.0036960  85.2072460  21.8832890 148.3130020  91.6016370  24.1788200
 147.6706180  90.9471990  24.4531920 147.9260680  92.0071460  23.4028870
 143.8916500  88.9301800  28.0259890 144.2440320  88.3329930  27.3661260
 143.0078830  88.6046030  28.1968140 139.9779780  89.6899490  25.4330300
 140.6650910  90.2368700  25.8137890 139.1912200  90.2340220  25.4679910
 132.1172180  85.3072310  20.9247380 132.9867030  85.5897110  21.2083300
 131.6262500  86.1208180  20.8096190 139.2806990  86.6945520  25.0455660
 139.7369770  87.5050770  25.2715850 138.9295200  86.3768660  25.8774150
 141.5839600  92.2051860  32.2747960 142.2281820  92.4111240  32.9521380
 141.9469040  91.4440260  31.8218810 135.1818770  77.0383170  25.5178180
 135.0533400  77.0301070  26.4663100 134.3580790  77.3766260  25.1669190
 142.8571680  90.2084210  30.9925410 143.4993910  89.5077370  31.1057580
 143.3821030  90.9882650  30.8122300 146.7027400  90.4932830  20.7164550
 146.4764980  89.7763270  21.3089190 146.3123600  90.2445270  19.8786300
 144.6309300  91.0079110  34.1961470 144.9665540  91.5945800  34.8739390
 143.7109640  90.8771820  34.4259260 132.4843430  94.5199690  21.4909010
 132.8441070  95.1189030  20.8366280 132.3435770  95.0659580  22.2644040
 132.1812700  78.7974290  34.9784880 131.4671220  78.9971210  35.5837490
 132.6007740  78.0213860  35.3499680 146.2843650  88.4104770  22.3778710
 145.9965350  88.8717460  23.1656590 147.0795820  87.9502540  22.6462930
 132.4685290  92.7854550  35.9651410 132.5776410  91.8449290  35.8246800
 131.8165850  93.0509300  35.3165140 140.4597880  91.0570440  37.3649530
 140.1394750  90.3379680  37.9095220 139.7856240  91.7325510  37.4385590
 138.5012050  91.9030890  22.3082680 138.4922150  92.6360580  21.6927190
 137.5810410  91.6562470  22.4009640 134.1018690  87.1245780  23.0529440
 133.4946640  87.8644680  23.0624740 134.5768040  87.2145140  22.2267640
 143.6751480  81.2896600  32.7286330 144.0432300  80.4691810  33.0565900
 142.8149680  81.3498490  33.1441980 147.0413510  80.2453540  23.5373890
 146.4126670  80.3499210  22.8232120 146.5465430  80.4650320  24.3267770
 141.4871650  91.9659130  20.9707870 141.5883630  91.7623120  20.0409850
 140.5873390  91.7117410  21.1755650 139.0097540  82.5239490  24.9531770
 138.3013690  82.9925830  25.3945380 139.2942020  81.8661500  25.5876960
 140.6353470  83.9436190  32.9524300 141.1338720  84.4182010  33.6176150
 140.7776420  83.0199710  33.1594330 143.0412970  79.2490150  26.3927560
 142.9180750  79.2676280  25.4437070 143.9897530  79.2969090  26.5125960
 140.1289760  94.4845450  25.6655540 140.3831260  94.4466840  24.7434910
 139.1802240  94.3578780  25.6583790 137.2132560  80.8324570  22.3282480
 138.0623090  81.2694720  22.2622670 136.8463830  81.1444830  23.1554540
 147.8420330  80.1604150  33.7952690 147.3393930  80.9009550  34.1346500
 148.6576990  80.5488150  33.4789480 146.1342340  85.4037330  27.2414050
 145.1932480  85.4187560  27.4161740 146.4486410  84.6173290  27.6874350
 136.1123980  87.0856930  20.8018010 136.8787250  86.9738290  21.3643440
 136.1898670  86.3894900  20.1494780 134.8070740  84.5182000  21.4850900
 134.8874330  83.5709510  21.5968300 135.6990490  84.8488880  21.5911560
 135.6085450  94.6677390  28.5885440 136.3447930  94.1192850  28.8594010
 135.9926370  95.5333400  28.4491430 132.4930930  90.7350960  24.4626950
 131.5670710  90.9772100  24.4532360 132.9587360  91.5625220  24.3411700
 134.6143730  93.8523460  37.7771020 135.4156460  94.1735510  38.1906420
 134.0995550  93.4919040  38.4990930 138.7187760  93.8407700  20.4111010
 139.5116370  94.1296530  19.9592800 138.1992110  93.4099870  19.7323490
 143.4508360  89.9603330  37.7246430 142.8446520  89.9834930  36.9842180
 143.1462470  89.2286370  38.2613680 144.8808730  93.6883620  36.3355840
 145.8330480  93.6041640  36.2856080 144.7336950  94.3525330  37.0089630
 147.7717930  93.0677830  21.8347750 147.4859440  92.6542970  21.0201930
 147.5737480  93.9965540  21.7148270 132.3341540  86.3396920  36.7207070
 132.8380560  85.7604200  37.2923300 131.5948960  86.6237150  37.2583440
 139.2365160  89.0611110  20.2753360 139.1315800  88.4463460  21.0014740
 139.0689380  88.5377000  19.4916370 139.3879480  87.7467910  36.2542590
 138.6225150  88.3152910  36.1697260 139.5695440  87.4544120  35.3610820
 142.4767890  88.1231140  20.8795350 141.9277990  88.5700440  21.5238090
 143.0987150  87.6180390  21.4033020 146.5302830  89.4773240  36.8117610
 147.2712300  89.8149000  36.3085070 145.7675510  89.6465300  36.2587380
 134.3664620  84.4826510  37.6157140 134.4069960  84.1840380  38.5242370
 135.2210120  84.8834120  37.4564660 138.1443010  87.0822060  22.7760650
 138.5659430  86.9161930  23.6192040 138.2693850  86.2722290  22.2815790
 136.3070430  83.0618610  35.5831630 135.7766890  82.5709560  34.9554970
 136.9758500  83.4902810  35.0489560 140.6570650  86.1059670  20.0237750
 141.1776310  85.3908690  19.6578900 141.3039050  86.7445540  20.3238260
 145.2048490  87.5288070  35.3472820 145.6189510  87.6833150  36.1963240
 144.2699490  87.6543290  35.5098600 145.6770660  84.8684230  37.3511970
 146.2591430  84.1136550  37.2632450 145.8532430  85.3991670  36.5743450
 136.7942730  80.0280980  35.6628920 136.6999600  79.4101730  34.9379790
 136.2140120  80.7547270  35.4358830 139.5604170  78.5854220  32.6956310
 139.1121470  78.6078480  31.8501860 138.9269370  78.1873240  33.2926610
 139.9663720  87.4808550  33.3168750 140.3851830  88.3241280  33.1444990
 139.0472350  87.6180590  33.0875530 142.3027620  85.2124730  34.7006590
 142.4223830  84.6165870  35.4401430 143.1621620  85.2494420  34.2807890
 144.6415520  85.7661920  33.2769100 144.1150740  86.2904540  32.6734240
 144.9846860  86.3989310  33.9078830 137.0401910  83.1555290  19.7218810
 136.8390970  82.2922650  20.0832150 136.8693960  83.0688650  18.7840410
 137.8171140  93.7861560  34.4326480 137.2792230  94.5107620  34.1135180
 138.0705100  93.3091900  33.6423820 139.0696390  81.7546080  35.9582410
 139.6596080  81.4461930  36.6460230 138.2516630  81.2825830  36.1142310
 143.8889820  81.3711890  36.1915430 143.2005340  80.7093430  36.1265420
 144.6095840  80.9250160  36.6363890 144.5190220  77.9663520  22.2505690
 144.7992510  77.1231420  22.6065110 143.7455950  78.1986630  22.7644440
 135.8384710  80.2555910  19.7096690 136.1410610  80.2623340  18.8015840
 136.5779300  79.9053770  20.2064350 140.6733350  95.0212770  34.6913130
 140.5992050  95.9247910  34.9985500 139.7712190  94.7024670  34.6635200
 139.0569640  79.1990530  20.6952890 138.7091640  78.5214520  20.1155340
 139.2582410  78.7380040  21.5096280 141.2218680  94.1871280  22.3139490
 142.1169470  94.5256250  22.3358250 141.2536310  93.4650690  21.6863770
 134.8614840  89.5598330  20.5426490 135.2989710  90.1028000  21.1984070
 135.3462570  88.7345280  20.5522830 132.0760640  92.3487360  27.9946750
 132.4063650  91.4808420  27.7625390 132.5051640  92.5545880  28.8251710
 136.6722560  90.6796370  25.6548720 136.3718100  90.5561340  26.5552630
 136.5660050  89.8204960  25.2464450 132.5650850  93.2157950  30.7328380
 132.1281840  93.3958750  31.5652530 133.1328530  93.9732570  30.5910100
 148.2013030  92.7174950  35.0205690 147.6015020  92.7767510  34.2769610
 148.3306930  91.7779930  35.1502540 132.3975280  85.7278180  27.0917260
 131.7424120  85.4589820  26.4476960 133.2353230  85.6182660  26.6419240
 146.8864670  89.4426930  33.1181850 146.0724510  89.8724090  33.3807640
 147.2938870  90.0545340  32.5050900 145.3465720  80.5219470  21.3135750
 145.7650600  80.3350450  20.4732410 145.0401780  79.6698520  21.6238680
 133.4351210  86.1130750  31.6320600 133.8024250  86.0258150  32.5116620
 132.8662030  85.3497300  31.5327460 148.2355070  84.5815130  34.6451070
 148.0041160  84.3527880  33.7449020 148.4959620  85.5014680  34.5995960
 132.9867210  83.0239840  35.5379020 132.0923260  82.9906600  35.8772730
 133.5264760  83.2226630  36.3030270 146.6743140  79.8071560  37.4230770
 147.5513320  79.8154960  37.8064770 146.6863980  79.0702400  36.8123120
 131.6113360  82.9377110  23.0342590 130.7077440  83.2007310  22.8594250
 132.0953980  83.2088280  22.2542550 148.2996130  83.7440970  31.8338340
 147.3498840  83.7104510  31.9483330 148.4809140  84.6541080  31.5988110
 134.1540570  81.9942650  20.9436970 134.8632270  81.5725870  20.4584250
 133.4380510  82.0617880  20.3120320 133.8014730  78.0481980  19.9839620
 134.5242860  78.5890920  20.3020840 134.0739250  77.7745400  19.1081160
 147.6106380  82.9174450  24.2511200 148.1065500  82.6845320  25.0360080
 147.4122450  82.0786290  23.8348840 133.4906920  77.2988170  29.8862240
 134.1383110  76.7485550  29.4457400 133.9108760  77.5531320  30.7078050
 147.3859260  77.4929530  33.2431880 148.0231480  78.1063670  33.6091070
 147.5334150  77.5290190  32.2981110 146.9440720  94.1945530  26.6450120
 147.5399790  93.8730100  25.9684540 147.2018870  93.7217350  27.4363390
 133.2438920  77.4543840  32.6287560 132.8953740  77.9107660  33.3945740
 132.9126620  76.5600970  32.7109990 134.8503290  90.6263440  36.7940750
 134.8072920  90.2556350  37.6755210 134.9814300  91.5641010  36.9342570
 138.5509320  92.1823030  32.3950470 138.3100680  92.4497590  31.5080990
 139.4911960  92.3528760  32.4501330 140.7563740  78.6455720  36.1506980
 140.6952630  79.2377550  36.9002390 141.6964120  78.5381680  36.0057240
 143.3938300  78.3025780  35.7899270 144.0078710  78.6205070  35.1280350
 143.9387860  77.8174370  36.4095130 133.9159560  76.9820040  35.9038330
 134.4642550  76.8008090  35.1404440 133.9814870  76.1914150  36.4394640
 134.6891320  93.5725690  33.9138530 134.0951640  93.4410390  34.6528570
 134.6815160  92.7363830  33.4480630 144.1346340  76.8657920  32.1168560
 143.2606180  77.1993030  31.9141490 144.0257090  76.3931100  32.9420430
 145.0418320  79.0728790  33.5010280 144.7131680  78.2580550  33.1212010
 145.9900620  79.0298600  33.3775970 147.4952930  94.8440830  30.4747850
 147.0355900  95.5956640  30.1005870 146.8665390  94.1247300  30.4162650
 134.3203550  90.9384070  32.8646570 133.5937610  90.3189360  32.7972520
 134.3812700  91.3324680  31.9944650 137.9248650  93.1529070  29.6495980
 138.4413670  92.5416430  29.1244240 138.5746030  93.6557850  30.1406990
 140.6644150  94.0437560  30.4764960 140.9521960  93.7891860  29.5997970
 141.1767370  93.4914920  31.0670530 141.8821160  77.7827760  31.0561470
 141.0992950  78.2573260  31.3358230 141.5884090  76.8782590  30.9474650
 146.4342230  78.4850860  29.1010560 146.8750320  78.4295960  28.2532160
 146.1649820  79.4008870  29.1720740 132.6033550  94.2558460  26.0743330
 132.4355590  93.6229140  26.7725220 131.7368060  94.4617860  25.7237520
 133.2261570  78.0875240  23.5775190 133.9840930  78.2004120  23.0039220
 132.7638740  78.9244440  23.5318620 139.7675380  80.2014510  26.5677500
 138.9549890  79.8271400  26.2273380 140.2717020  79.4459590  26.8698690
 144.2700360  76.8656960  27.8060570 144.8729730  77.4377170  28.2809090
 143.5293350  77.4296400  27.5834470 147.4134960  77.2678520  23.0800850
 147.6085590  78.1661970  23.3468280 146.6264830  77.0365600  23.5733800
 134.2096250  92.9491690  23.5193470 133.6843870  93.3299720  22.8155430
 134.1340830  93.5742460  24.2403180 135.5986720  78.6139290  22.1177160
 136.1279480  77.8269090  21.9885110 136.2315040  79.2930480  22.3512690
 137.7924560  78.3514430  25.1722550 137.1627300  77.6501740  25.3392680
 137.2529700  79.1118560  24.9555710 140.7316510  94.9653660  37.8433160
 141.6583820  94.7297930  37.8869120 140.7166940  95.7925660  37.3619190
 137.9180120  77.6298410  37.6075040 137.6364390  78.1332010  36.8435860
 138.2999820  76.8320160  37.2417170 136.8089220  94.8974070  22.3942720
 137.5408040  94.6133350  21.8466610 137.0682890  94.6587350  23.2842100
 135.9704010  91.0138800  22.3989050 135.3412890  91.4823900  22.9474880
 136.0851840  90.1688020  22.8335240 144.5195580  77.0451990  38.1855510
 144.4061030  77.3646600  39.0807030 145.3365320  77.4464500  37.8892790
 147.2994070  94.1923520  37.6674200 148.0919390  93.6972750  37.4600160
 147.5927220  94.8713660  38.2749810 143.4253730  85.0644460   8.5490250
 143.3447780  84.1499070   8.2781960 143.0118150  85.5611530   7.8429960
 141.5571770  86.8423480  10.4299520 140.7813870  86.3623920  10.7198090
 142.2084700  86.1629130  10.2555680 135.5737600  87.1543290  11.3075280
 134.7422480  86.8992000  11.7071790 136.1818580  87.2254060  12.0433200
 145.5779200  91.2483670   9.2098650 145.1160730  90.4770910   9.5385820
 146.3904750  91.2749740   9.7151100 135.5538860  91.1883380  11.5033300
 135.8566900  90.2981120  11.3243520 136.2982450  91.7453600  11.2755550
 133.9829550  82.1145180   5.0917670 133.0946250  82.4561150   4.9897550
 134.2670740  81.9145500   4.1998500 131.9462560  84.7150830  10.9757370
 132.5178670  83.9473030  10.9761010 131.9464100  85.0139590  10.0663980
 141.8042510  93.5341680   8.8302640 141.1853950  93.9899180   8.2597080
 142.6594290  93.6893140   8.4292340 140.9980760  89.5180670  10.4369680
 140.9289040  88.5770610  10.2758810 141.7600620  89.6082080  11.0092250
 133.1887430  80.1235190  12.7626300 133.0090270  79.2260940  13.0429060
 132.7867510  80.6707060  13.4373250 142.0285930  82.3251050  10.6638610
 142.4050750  81.4522930  10.5512280 141.9305440  82.6609750   9.7729050
 136.1590940  80.6976680   6.1256050 136.2657690  81.5980410   6.4324810
 135.2483300  80.6494650   5.8350700 145.8110050  79.8201490   7.5966950
 146.6319670  79.3298060   7.6392430 145.8444130  80.4099150   8.3498790
 133.8074100  82.6195690  11.3708640 134.4884210  82.8834060  11.9896040
 133.4922150  81.7796560  11.7046650 137.9998670  83.6663050  10.4581230
 138.5076890  84.1644020  11.0986250 138.5311910  82.8898250  10.2820590
 136.2834770  78.3061610  14.7244650 136.2853210  78.8234000  13.9190550
 135.4539080  77.8291790  14.7014580 142.6705860  88.4180920   6.2234550
 142.0523130  88.8830370   5.6597270 143.1829110  89.1108400   6.6404060
 137.5337620  87.9456790  12.9018150 137.2007000  88.5725710  13.5439220
 137.7104300  88.4718670  12.1219820 146.0471530  81.7601870  10.3694490
 145.3427100  82.0486760  10.9497600 146.4083690  82.5701980  10.0094050
 135.9650100  80.0171570  12.7315100 136.3066910  80.8613620  12.4368970
 135.0265910  80.1655310  12.8480440 136.7456720  89.9137590  14.7167330
 137.3630720  90.5888670  14.4351780 135.8849840  90.3225570  14.6254830
 132.0389060  89.1037450   3.5974180 131.6617040  89.5924550   2.8659080
 132.2962130  89.7762730   4.2280710 147.6634310  91.3777000  12.6321970
 146.9797830  92.0476110  12.6238640 148.2028600  91.5757650  11.8666830
 139.6477990  77.5053840   9.0559690 139.9552970  76.9500730   8.3395190
 138.7178690  77.6398300   8.8732680 145.1993050  93.2221130  11.3467150
 145.2120210  92.8183420  10.4789410 144.6468270  93.9968420  11.2428580
 146.4938470  89.9437350   6.4357320 146.3834800  89.0011680   6.5606740
 146.4906720  90.3052990   7.3220080 144.5978490  88.1250970  12.6749760
 145.0147280  87.9111080  11.8403220 145.3218310  88.3823760  13.2458380
 142.0358750  85.5702670   5.7919810 141.1088030  85.5040050   6.0208280
 142.1883570  86.5082800   5.6775050 142.0227830  81.8419670   2.7886970
 141.0831500  82.0033630   2.8739430 142.3411090  82.5605350   2.2422960
 146.0656040  87.1322970   6.2955060 145.4468460  86.7942520   5.6481360
 146.0480490  86.4882730   7.0034250 145.5082600  83.3107510  13.7120870
 145.0953780  84.1361220  13.9660860 144.7758550  82.7252550  13.5197230
 137.6415390  86.0967410   8.5739540 137.2372390  85.3844660   8.0785440
 137.7278510  85.7520650   9.4627580 138.1097090  89.7834970  10.7378750
 137.8125380  89.1780440  10.0586530 139.0596910  89.8212280  10.6268110
 136.3544010  82.8710620  12.3538580 136.9058600  82.9805960  11.5791830
 136.8687520  83.2448220  13.0693810 146.1982700  93.3566840  14.4001850
 145.7213260  94.1639030  14.2074460 145.5144490  92.7045170  14.5528060
 137.2015520  89.5216660  17.3886550 136.3044050  89.7456630  17.6359950
 137.2268390  89.6451600  16.4397950 144.2420740  86.3709780   3.3027810
 144.6814020  85.5332210   3.1565630 144.9549160  87.0039180   3.3891950
 136.0286740  86.3929980  15.9643920 135.8894510  87.2652780  16.3331320
 135.1468100  86.0502790  15.8191860 142.3516120  91.3105850   7.2709050
 142.7912030  92.0530180   6.8564440 142.2903010  91.5532420   8.1948010
 137.8267090  92.3351680  18.1729070 137.7982520  92.7394630  17.3057500
 137.6632060  91.4062040  18.0100670 134.3420020  84.9912390   6.0746190
 134.2217620  85.7174480   5.4627460 134.0320910  84.2215300   5.5974100
 131.9805390  88.1627530  11.8814830 132.0585810  88.2976300  10.9370550
 132.5947070  87.4543420  12.0742950 133.2253020  89.8627720   8.2921010
 132.8181100  90.0042310   7.4374610 134.1166030  89.5787880   8.0892220
 143.0431900  94.0119630  15.1988060 143.5576570  93.9227640  16.0010490
 142.2000980  94.3579330  15.4915970 145.0186300  94.2974970   4.6272060
 144.8587440  94.0077910   5.5253890 144.8533010  93.5215100   4.0917290
 137.4974680  94.0773500   6.4043680 137.3217160  93.1609040   6.1911480
 136.6430420  94.4360790   6.6441480 144.7212430  91.8062530   3.1870060
 144.0277590  91.8039820   2.5272340 145.4635290  91.3821850   2.7564230
 144.2862360  93.4325240   7.2618550 144.7419310  92.6514620   7.5757170
 144.6254880  94.1432060   7.8059730 132.0364910  89.2041700  14.4209290
 132.1995950  88.7347060  13.6028660 132.5017360  88.6965260  15.0858130
 136.8083680  78.3347460   9.4569860 136.3651830  79.1157000   9.1254380
 137.3668670  78.6577350  10.1640800 141.0953490  81.2015980  15.0605180
 140.6332860  81.4099000  15.8725120 140.6931600  80.3875330  14.7575850
 146.0958000  82.4224930  16.1901840 145.2451590  82.1230680  16.5110910
 145.9359790  82.6666940  15.2785660 143.1907710  83.9226680  18.2900630
 143.5161120  83.0890430  17.9502860 143.9788040  84.4455200  18.4378960
 139.9242500  77.9558160   4.3375690 139.2996680  77.9518030   5.0629000
 139.8372620  77.0889120   3.9411660 138.8459580  78.8794790  11.3159460
 139.1431910  79.7857620  11.2351480 139.3945140  78.3913570  10.7019030
 136.5997900  83.4581030   7.1851110 136.3738820  83.2418200   8.0897730
 135.8190430  83.8909490   6.8397080 143.8295660  83.4644400   5.7841760
 143.2304550  84.1880200   5.6005380 144.3775270  83.4021180   5.0018210
 139.0397110  84.3566610  17.8511380 138.9440710  83.4161340  17.7011780
 139.8829090  84.5781680  17.4559450 142.4360530  82.1007940   7.8145040
 142.8290100  82.4180140   7.0013730 142.7977380  81.2219820   7.9289560
 134.1707650  80.7680280  16.0045160 133.7771040  81.6155490  16.2117940
 133.4826050  80.1306650  16.1953800 140.7452700  80.8515250  19.0741900
 140.0551020  80.6587450  19.7087990 141.4885000  81.1349890  19.6066200
 131.4724700  78.6908740  10.0375240 131.1837750  79.2611600  10.7500220
 132.2170460  78.2113190  10.4006470 143.0215670  84.6913690  11.9095820
 142.2896790  85.2000500  12.2585920 142.6240010  83.8743670  11.6084600
 139.4593060  81.3667890  10.3148310 139.4629120  80.9257840   9.4652850
 140.3544180  81.6885220  10.4220130 135.3095440  81.2494380   9.2742520
 134.9695490  81.7269610  10.0309570 134.5472760  80.7959500   8.9143620
 139.5213210  82.3679970   3.3055070 139.6426030  82.3266450   4.2540890
 139.1361720  83.2304120   3.1501800 143.4841580  80.1447370  11.3218760
 143.5014320  80.5956020  12.1660610 143.2357160  79.2453010  11.5352200
 138.5334710  84.6781110   2.7038370 137.9651610  84.2299360   2.0774280
 139.2423710  85.0373890   2.1703520 146.9112330  77.5579550  17.1605140
 147.2358100  76.8269210  17.6863120 146.9468840  77.2393190  16.2586130
 133.6103890  88.5793130  16.5805100 133.2258680  87.9386800  17.1788060
 133.9216080  89.2829250  17.1499830 139.7601030  85.4269670  12.0613720
 140.1271160  84.9528240  12.8075060 139.5706090  86.3011240  12.4022060
 132.6241520  80.1713360   8.1907190 132.3388440  79.8069030   9.0285810
 132.5620380  79.4393820   7.5770330 137.5500400  84.4678310  14.3797930
 137.2457470  85.3470290  14.6048290 138.5046860  84.5278100  14.4155370
 136.0782190  88.6739300   4.9764780 135.3044450  88.1336920   4.8163500
 136.8076820  88.1545910   4.6382540 146.8370170  87.6704660  10.7691170
 147.5569290  88.1659950  10.3787280 146.6351990  86.9922550  10.1245040
 142.2980110  79.0642620   4.9120560 141.4844720  78.5655790   4.8365870
 142.1042060  79.9040870   4.4956910 142.2188970  87.7413720  16.6560170
 142.1526280  86.8209390  16.4017760 141.5894110  87.8389160  17.3704810
 145.0128500  83.4362270   3.2082720 145.9008120  83.7479500   3.0334060
 144.9833590  82.5634520   2.8163300 136.1219590  88.3419680   8.6143590
 136.6398260  87.5387940   8.5600480 135.6703610  88.2798820   9.4560420
 141.0089090  89.6085960   3.8870890 141.3504790  90.3528190   3.3914210
 140.1801800  89.9217080   4.2495720 133.6064130  85.3081050  15.5269290
 133.2479070  85.9734900  16.1142630 133.3118690  84.4764600  15.8981910
 136.8077250  85.7665290  18.4108840 136.5077390  85.9122470  17.5136660
 137.5788490  85.2070580  18.3182230 142.1505700  90.5634290  16.4063970
 142.1650240  89.6315250  16.1882880 141.4430800  90.6494050  17.0453740
 147.2842770  84.7474110   2.6762580 147.2006490  85.1788330   1.8259020
 148.0036960  85.2072460   3.1089400 148.3130020  91.6016370   5.4044710
 147.6706180  90.9471990   5.6788430 147.9260680  92.0071460   4.6285380
 143.8916500  88.9301800   9.2516400 144.2440320  88.3329930   8.5917770
 143.0078830  88.6046030   9.4224650 139.9779780  89.6899490   6.6586810
 140.6650910  90.2368700   7.0394400 139.1912200  90.2340220   6.6936420
 132.1172180  85.3072310   2.1503890 132.9867030  85.5897110   2.4339810
 131.6262500  86.1208180   2.0352700 139.2806990  86.6945520   6.2712170
 139.7369770  87.5050770   6.4972360 138.9295200  86.3768660   7.1030660
 141.5839600  92.2051860  13.5004470 142.2281820  92.4111240  14.1777890
 141.9469040  91.4440260  13.0475320 135.1818770  77.0383170   6.7434690
 135.0533400  77.0301070   7.6919610 134.3580790  77.3766260   6.3925700
 142.8571680  90.2084210  12.2181920 143.4993910  89.5077370  12.3314090
 143.3821030  90.9882650  12.0378810 144.6309300  91.0079110  15.4217980
 144.9665540  91.5945800  16.0995900 143.7109640  90.8771820  15.6515770
 132.4843430  94.5199690   2.7165520 132.8441070  95.1189030   2.0622790
 132.3435770  95.0659580   3.4900550 132.1812700  78.7974290  16.2041390
 131.4671220  78.9971210  16.8094000 132.6007740  78.0213860  16.5756190
 146.2843650  88.4104770   3.6035220 145.9965350  88.8717460   4.3913100
 147.0795820  87.9502540   3.8719440 132.4685290  92.7854550  17.1907920
 132.5776410  91.8449290  17.0503310 131.8165850  93.0509300  16.5421650
 140.4597880  91.0570440  18.5906040 140.1394750  90.3379680  19.1351730
 139.7856240  91.7325510  18.6642100 138.5012050  91.9030890   3.5339190
 138.4922150  92.6360580   2.9183700 137.5810410  91.6562470   3.6266150
 134.1018690  87.1245780   4.2785950 133.4946640  87.8644680   4.2881250
 134.5768040  87.2145140   3.4524150 143.6751480  81.2896600  13.9542840
 144.0432300  80.4691810  14.2822410 142.8149680  81.3498490  14.3698490
 147.0413510  80.2453540   4.7630400 146.4126670  80.3499210   4.0488630
 146.5465430  80.4650320   5.5524280 139.0097540  82.5239490   6.1788280
 138.3013690  82.9925830   6.6201890 139.2942020  81.8661500   6.8133470
 140.6353470  83.9436190  14.1780810 141.1338720  84.4182010  14.8432660
 140.7776420  83.0199710  14.3850840 143.0412970  79.2490150   7.6184070
 142.9180750  79.2676280   6.6693580 143.9897530  79.2969090   7.7382470
 140.1289760  94.4845450   6.8912050 140.3831260  94.4466840   5.9691420
 139.1802240  94.3578780   6.8840300 137.2132560  80.8324570   3.5538990
 138.0623090  81.2694720   3.4879180 136.8463830  81.1444830   4.3811050
 147.8420330  80.1604150  15.0209200 147.3393930  80.9009550  15.3603010
 148.6576990  80.5488150  14.7045990 146.1342340  85.4037330   8.4670560
 145.1932480  85.4187560   8.6418250 146.4486410  84.6173290   8.9130860
 134.8070740  84.5182000   2.7107410 134.8874330  83.5709510   2.8224810
 135.6990490  84.8488880   2.8168070 135.6085450  94.6677390   9.8141950
 136.3447930  94.1192850  10.0850520 135.9926370  95.5333400   9.6747940
 132.4930930  90.7350960   5.6883460 131.5670710  90.9772100   5.6788870
 132.9587360  91.5625220   5.5668210 134.6143730  93.8523460  19.0027530
 135.4156460  94.1735510  19.4162930 134.0995550  93.4919040  19.7247440
 143.4508360  89.9603330  18.9502940 142.8446520  89.9834930  18.2098690
 143.1462470  89.2286370  19.4870190 144.8808730  93.6883620  17.5612350
 145.8330480  93.6041640  17.5112590 144.7336950  94.3525330  18.2346140
 147.7717930  93.0677830   3.0604260 147.4859440  92.6542970   2.2458440
 147.5737480  93.9965540   2.9404780 132.3341540  86.3396920  17.9463580
 132.8380560  85.7604200  18.5179810 131.5948960  86.6237150  18.4839950
 139.3879480  87.7467910  17.4799100 138.6225150  88.3152910  17.3953770
 139.5695440  87.4544120  16.5867330 142.4767890  88.1231140   2.1051860
 141.9277990  88.5700440   2.7494600 143.0987150  87.6180390   2.6289530
 146.5302830  89.4773240  18.0374120 147.2712300  89.8149000  17.5341580
 145.7675510  89.6465300  17.4843890 134.3664620  84.4826510  18.8413650
 134.4069960  84.1840380  19.7498880 135.2210120  84.8834120  18.6821170
 138.1443010  87.0822060   4.0017160 138.5659430  86.9161930   4.8448550
 138.2693850  86.2722290   3.5072300 136.3070430  83.0618610  16.8088140
 135.7766890  82.5709560  16.1811480 136.9758500  83.4902810  16.2746070
 145.2048490  87.5288070  16.5729330 145.6189510  87.6833150  17.4219750
 144.2699490  87.6543290  16.7355110 145.6770660  84.8684230  18.5768480
 146.2591430  84.1136550  18.4888960 145.8532430  85.3991670  17.7999960
 136.7942730  80.0280980  16.8885430 136.6999600  79.4101730  16.1636300
 136.2140120  80.7547270  16.6615340 139.5604170  78.5854220  13.9212820
 139.1121470  78.6078480  13.0758370 138.9269370  78.1873240  14.5183120
 139.9663720  87.4808550  14.5425260 140.3851830  88.3241280  14.3701500
 139.0472350  87.6180590  14.3132040 142.3027620  85.2124730  15.9263100
 142.4223830  84.6165870  16.6657940 143.1621620  85.2494420  15.5064400
 144.6415520  85.7661920  14.5025610 144.1150740  86.2904540  13.8990750
 144.9846860  86.3989310  15.1335340 137.8171140  93.7861560  15.6582990
 137.2792230  94.5107620  15.3391690 138.0705100  93.3091900  14.8680330
 139.0696390  81.7546080  17.1838920 139.6596080  81.4461930  17.8716740
 138.2516630  81.2825830  17.3398820 143.8889820  81.3711890  17.4171940
 143.2005340  80.7093430  17.3521930 144.6095840  80.9250160  17.8620400
 144.5190220  77.9663520   3.4762200 144.7992510  77.1231420   3.8321620
 143.7455950  78.1986630   3.9900950 140.6733350  95.0212770  15.9169640
 140.5992050  95.9247910  16.2242010 139.7712190  94.7024670  15.8891710
 141.2218680  94.1871280   3.5396000 142.1169470  94.5256250   3.5614760
 141.2536310  93.4650690   2.9120280 134.8614840  89.5598330   1.7683000
 135.2989710  90.1028000   2.4240580 135.3462570  88.7345280   1.7779340
 132.0760640  92.3487360   9.2203260 132.4063650  91.4808420   8.9881900
 132.5051640  92.5545880  10.0508220 136.6722560  90.6796370   6.8805230
 136.3718100  90.5561340   7.7809140 136.5660050  89.8204960   6.4720960
 132.5650850  93.2157950  11.9584890 132.1281840  93.3958750  12.7909040
 133.1328530  93.9732570  11.8166610 148.2013030  92.7174950  16.2462200
 147.6015020  92.7767510  15.5026120 148.3306930  91.7779930  16.3759050
 132.3975280  85.7278180   8.3173770 131.7424120  85.4589820   7.6733470
 133.2353230  85.6182660   7.8675750 146.8864670  89.4426930  14.3438360
 146.0724510  89.8724090  14.6064150 147.2938870  90.0545340  13.7307410
 145.3465720  80.5219470   2.5392260 145.7650600  80.3350450   1.6988920
 145.0401780  79.6698520   2.8495190 133.4351210  86.1130750  12.8577110
 133.8024250  86.0258150  13.7373130 132.8662030  85.3497300  12.7583970
 148.2355070  84.5815130  15.8707580 148.0041160  84.3527880  14.9705530
 148.4959620  85.5014680  15.8252470 132.9867210  83.0239840  16.7635530
 132.0923260  82.9906600  17.1029240 133.5264760  83.2226630  17.5286780
 146.6743140  79.8071560  18.6487280 147.5513320  79.8154960  19.0321280
 146.6863980  79.0702400  18.0379630 131.6113360  82.9377110   4.2599100
 130.7077440  83.2007310   4.0850760 132.0953980  83.2088280   3.4799060
 148.2996130  83.7440970  13.0594850 147.3498840  83.7104510  13.1739840
 148.4809140  84.6541080  12.8244620 147.6106380  82.9174450   5.4767710
 148.1065500  82.6845320   6.2616590 147.4122450  82.0786290   5.0605350
 133.4906920  77.2988170  11.1118750 134.1383110  76.7485550  10.6713910
 133.9108760  77.5531320  11.9334560 147.3859260  77.4929530  14.4688390
 148.0231480  78.1063670  14.8347580 147.5334150  77.5290190  13.5237620
 146.9440720  94.1945530   7.8706630 147.5399790  93.8730100   7.1941050
 147.2018870  93.7217350   8.6619900 133.2438920  77.4543840  13.8544070
 132.8953740  77.9107660  14.6202250 132.9126620  76.5600970  13.9366500
 134.8503290  90.6263440  18.0197260 134.8072920  90.2556350  18.9011720
 134.9814300  91.5641010  18.1599080 138.5509320  92.1823030  13.6206980
 138.3100680  92.4497590  12.7337500 139.4911960  92.3528760  13.6757840
 140.7563740  78.6455720  17.3763490 140.6952630  79.2377550  18.1258900
 141.6964120  78.5381680  17.2313750 143.3938300  78.3025780  17.0155780
 144.0078710  78.6205070  16.3536860 143.9387860  77.8174370  17.6351640
 133.9159560  76.9820040  17.1294840 134.4642550  76.8008090  16.3660950
 133.9814870  76.1914150  17.6651150 134.6891320  93.5725690  15.1395040
 134.0951640  93.4410390  15.8785080 134.6815160  92.7363830  14.6737140
 144.1346340  76.8657920  13.3425070 143.2606180  77.1993030  13.1398000
 144.0257090  76.3931100  14.1676940 145.0418320  79.0728790  14.7266790
 144.7131680  78.2580550  14.3468520 145.9900620  79.0298600  14.6032480
 147.4952930  94.8440830  11.7004360 147.0355900  95.5956640  11.3262380
 146.8665390  94.1247300  11.6419160 134.3203550  90.9384070  14.0903080
 133.5937610  90.3189360  14.0229030 134.3812700  91.3324680  13.2201160
 137.9248650  93.1529070  10.8752490 138.4413670  92.5416430  10.3500750
 138.5746030  93.6557850  11.3663500 140.6644150  94.0437560  11.7021470
 140.9521960  93.7891860  10.8254480 141.1767370  93.4914920  12.2927040
 141.8821160  77.7827760  12.2817980 141.0992950  78.2573260  12.5614740
 141.5884090  76.8782590  12.1731160 146.4342230  78.4850860  10.3267070
 146.8750320  78.4295960   9.4788670 146.1649820  79.4008870  10.3977250
 132.6033550  94.2558460   7.2999840 132.4355590  93.6229140   7.9981730
 131.7368060  94.4617860   6.9494030 133.2261570  78.0875240   4.8031700
 133.9840930  78.2004120   4.2295730 132.7638740  78.9244440   4.7575130
 139.7675380  80.2014510   7.7934010 138.9549890  79.8271400   7.4529890
 140.2717020  79.4459590   8.0955200 144.2700360  76.8656960   9.0317080
 144.8729730  77.4377170   9.5065600 143.5293350  77.4296400   8.8090980
 147.4134960  77.2678520   4.3057360 147.6085590  78.1661970   4.5724790
 146.6264830  77.0365600   4.7990310 134.2096250  92.9491690   4.7449980
 133.6843870  93.3299720   4.0411940 134.1340830  93.5742460   5.4659690
 135.5986720  78.6139290   3.3433670 136.1279480  77.8269090   3.2141620
 136.2315040  79.2930480   3.5769200 137.7924560  78.3514430   6.3979060
 137.1627300  77.6501740   6.5649190 137.2529700  79.1118560   6.1812220
 140.7316510  94.9653660  19.0689670 141.6583820  94.7297930  19.1125630
 140.7166940  95.7925660  18.5875700 137.9180120  77.6298410  18.8331550
 137.6364390  78.1332010  18.0692370 138.2999820  76.8320160  18.4673680
 136.8089220  94.8974070   3.6199230 137.5408040  94.6133350   3.0723120
 137.0682890  94.6587350   4.5098610 135.9704010  91.0138800   3.6245560
 135.3412890  91.4823900   4.1731390 136.0851840  90.1688020   4.0591750
 144.5195580  77.0451990  19.4112020 144.4061030  77.3646600  20.3063540
 145.3365320  77.4464500  19.1149300 147.2994070  94.1923520  18.8930710
 148.0919390  93.6972750  18.6856670 147.5927220  94.8713660  19.5006320
 143.4253730  66.2900970 139.9694680 143.3447780  65.3755580 139.6986390
 143.0118150  66.7868040 139.2634390 141.5571770  68.0679990 141.8503950
 140.7813870  67.5880430 142.1402520 142.2084700  67.3885640 141.6760110
 135.5737600  68.3799800 142.7279710 134.7422480  68.1248510 143.1276220
 136.1818580  68.4510570 143.4637630 145.5779200  72.4740180 140.6303080
 145.1160730  71.7027420 140.9590250 146.3904750  72.5006250 141.1355530
 135.5538860  72.4139890 142.9237730 135.8566900  71.5237630 142.7447950
 136.2982450  72.9710110 142.6959980 133.9829550  63.3401690 136.5122100
 133.0946250  63.6817660 136.4101980 134.2670740  63.1402010 135.6202930
 131.9462560  65.9407340 142.3961800 132.5178670  65.1729540 142.3965440
 131.9464100  66.2396100 141.4868410 141.8042510  74.7598190 140.2507070
 141.1853950  75.2155690 139.6801510 142.6594290  74.9149650 139.8496770
 140.9980760  70.7437180 141.8574110 140.9289040  69.8027120 141.6963240
 141.7600620  70.8338590 142.4296680 133.1887430  61.3491700 144.1830730
 133.0090270  60.4517450 144.4633490 132.7867510  61.8963570 144.8577680
 142.0285930  63.5507560 142.0843040 142.4050750  62.6779440 141.9716710
 141.9305440  63.8866260 141.1933480 136.1590940  61.9233190 137.5460480
 136.2657690  62.8236920 137.8529240 135.2483300  61.8751160 137.2555130
 145.8110050  61.0458000 139.0171380 146.6319670  60.5554570 139.0596860
 145.8444130  61.6355660 139.7703220 133.8074100  63.8452200 142.7913070
 134.4884210  64.1090570 143.4100470 133.4922150  63.0053070 143.1251080
 137.9998670  64.8919560 141.8785660 138.5076890  65.3900530 142.5190680
 138.5311910  64.1154760 141.7025020 136.2834770  59.5318120 146.1449080
 136.2853210  60.0490510 145.3394980 135.4539080  59.0548300 146.1219010
 142.6705860  69.6437430 137.6438980 142.0523130  70.1086880 137.0801700
 143.1829110  70.3364910 138.0608490 137.5337620  69.1713300 144.3222580
 137.2007000  69.7982220 144.9643650 137.7104300  69.6975180 143.5424250
 146.0471530  62.9858380 141.7898920 145.3427100  63.2743270 142.3702030
 146.4083690  63.7958490 141.4298480 135.9650100  61.2428080 144.1519530
 136.3066910  62.0870130 143.8573400 135.0265910  61.3911820 144.2684870
 136.7456720  71.1394100 146.1371760 137.3630720  71.8145180 145.8556210
 135.8849840  71.5482080 146.0459260 132.0389060  70.3293960 135.0178610
 131.6617040  70.8181060 134.2863510 132.2962130  71.0019240 135.6485140
 147.6634310  72.6033510 144.0526400 146.9797830  73.2732620 144.0443070
 148.2028600  72.8014160 143.2871260 139.6477990  58.7310350 140.4764120
 139.9552970  58.1757240 139.7599620 138.7178690  58.8654810 140.2937110
 145.1993050  74.4477640 142.7671580 145.2120210  74.0439930 141.8993840
 144.6468270  75.2224930 142.6633010 146.4938470  71.1693860 137.8561750
 146.3834800  70.2268190 137.9811170 146.4906720  71.5309500 138.7424510
 144.5978490  69.3507480 144.0954190 145.0147280  69.1367590 143.2607650
 145.3218310  69.6080270 144.6662810 142.0358750  66.7959180 137.2124240
 141.1088030  66.7296560 137.4412710 142.1883570  67.7339310 137.0979480
 142.0227830  63.0676180 134.2091400 141.0831500  63.2290140 134.2943860
 142.3411090  63.7861860 133.6627390 146.0656040  68.3579480 137.7159490
 145.4468460  68.0199030 137.0685790 146.0480490  67.7139240 138.4238680
 145.5082600  64.5364020 145.1325300 145.0953780  65.3617730 145.3865290
 144.7758550  63.9509060 144.9401660 137.6415390  67.3223920 139.9943970
 137.2372390  66.6101170 139.4989870 137.7278510  66.9777160 140.8832010
 138.1097090  71.0091480 142.1583180 137.8125380  70.4036950 141.4790960
 139.0596910  71.0468790 142.0472540 136.3544010  64.0967130 143.7743010
 136.9058600  64.2062470 142.9996260 136.8687520  64.4704730 144.4898240
 146.1982700  74.5823350 145.8206280 145.7213260  75.3895540 145.6278890
 145.5144490  73.9301680 145.9732490 137.2015520  70.7473170 148.8090980
 136.3044050  70.9713140 149.0564380 137.2268390  70.8708110 147.8602380
 144.2420740  67.5966290 134.7232240 144.6814020  66.7588720 134.5770060
 144.9549160  68.2295690 134.8096380 136.0286740  67.6186490 147.3848350
 135.8894510  68.4909290 147.7535750 135.1468100  67.2759300 147.2396290
 142.3516120  72.5362360 138.6913480 142.7912030  73.2786690 138.2768870
 142.2903010  72.7788930 139.6152440 137.8267090  73.5608190 149.5933500
 137.7982520  73.9651140 148.7261930 137.6632060  72.6318550 149.4305100
 147.8237880  58.8509100 133.0373280 147.5110540  58.9435930 133.9372350
 148.5850350  59.4290130 132.9870710 134.3420020  66.2168900 137.4950620
 134.2217620  66.9430990 136.8831890 134.0320910  65.4471810 137.0178530
 131.9805390  69.3884040 143.3019260 132.0585810  69.5232810 142.3574980
 132.5947070  68.6799930 143.4947380 133.2253020  71.0884230 139.7125440
 132.8181100  71.2298820 138.8579040 134.1166030  70.8044390 139.5096650
 143.0431900  75.2376140 146.6192490 143.5576570  75.1484150 147.4214920
 142.2000980  75.5835840 146.9120400 145.0186300  75.5231480 136.0476490
 144.8587440  75.2334420 136.9458320 144.8533010  74.7471610 135.5121720
 137.4974680  75.3030010 137.8248110 137.3217160  74.3865550 137.6115910
 136.6430420  75.6617300 138.0645910 144.7212430  73.0319040 134.6074490
 144.0277590  73.0296330 133.9476770 145.4635290  72.6078360 134.1768660
 144.2862360  74.6581750 138.6822980 144.7419310  73.8771130 138.9961600
 144.6254880  75.3688570 139.2264160 132.0364910  70.4298210 145.8413720
 132.1995950  69.9603570 145.0233090 132.5017360  69.9221770 146.5062560
 136.8083680  59.5603970 140.8774290 136.3651830  60.3413510 140.5458810
 137.3668670  59.8833860 141.5845230 141.0953490  62.4272490 146.4809610
 140.6332860  62.6355510 147.2929550 140.6931600  61.6131840 146.1780280
 146.0958000  63.6481440 147.6106270 145.2451590  63.3487190 147.9315340
 145.9359790  63.8923450 146.6990090 143.1907710  65.1483190 149.7105060
 143.5161120  64.3146940 149.3707290 143.9788040  65.6711710 149.8583390
 139.9242500  59.1814670 135.7580120 139.2996680  59.1774540 136.4833430
 139.8372620  58.3145630 135.3616090 138.8459580  60.1051300 142.7363890
 139.1431910  61.0114130 142.6555910 139.3945140  59.6170080 142.1223460
 136.5997900  64.6837540 138.6055540 136.3738820  64.4674710 139.5102160
 135.8190430  65.1166000 138.2601510 143.8295660  64.6900910 137.2046190
 143.2304550  65.4136710 137.0209810 144.3775270  64.6277690 136.4222640
 139.0397110  65.5823120 149.2715810 138.9440710  64.6417850 149.1216210
 139.8829090  65.8038190 148.8763880 142.4360530  63.3264450 139.2349470
 142.8290100  63.6436650 138.4218160 142.7977380  62.4476330 139.3493990
 134.1707650  61.9936790 147.4249590 133.7771040  62.8412000 147.6322370
 133.4826050  61.3563160 147.6158230 131.4724700  59.9165250 141.4579670
 131.1837750  60.4868110 142.1704650 132.2170460  59.4369700 141.8210900
 131.6594930  63.8585370 132.6682390 131.5769600  64.8016130 132.8097380
 131.3077990  63.7160280 131.7894740 143.0215670  65.9170200 143.3300250
 142.2896790  66.4257010 143.6790350 142.6240010  65.1000180 143.0289030
 139.4593060  62.5924400 141.7352740 139.4629120  62.1514350 140.8857280
 140.3544180  62.9141730 141.8424560 135.3095440  62.4750890 140.6946950
 134.9695490  62.9526120 141.4514000 134.5472760  62.0216010 140.3348050
 139.5213210  63.5936480 134.7259500 139.6426030  63.5522960 135.6745320
 139.1361720  64.4560630 134.5706230 143.4841580  61.3703880 142.7423190
 143.5014320  61.8212530 143.5865040 143.2357160  60.4709520 142.9556630
 138.5334710  65.9037620 134.1242800 137.9651610  65.4555870 133.4978710
 139.2423710  66.2630400 133.5907950 146.9112330  58.7836060 148.5809570
 147.2358100  58.0525720 149.1067550 146.9468840  58.4649700 147.6790560
 133.6103890  69.8049640 148.0009530 133.2258680  69.1643310 148.5992490
 133.9216080  70.5085760 148.5704260 139.7601030  66.6526180 143.4818150
 140.1271160  66.1784750 144.2279490 139.5706090  67.5267750 143.8226490
 132.6241520  61.3969870 139.6111620 132.3388440  61.0325540 140.4490240
 132.5620380  60.6650330 138.9974760 137.5500400  65.6934820 145.8002360
 137.2457470  66.5726800 146.0252720 138.5046860  65.7534610 145.8359800
 136.0782190  69.8995810 136.3969210 135.3044450  69.3593430 136.2367930
 136.8076820  69.3802420 136.0586970 146.8370170  68.8961170 142.1895600
 147.5569290  69.3916460 141.7991710 146.6351990  68.2179060 141.5449470
 142.2980110  60.2899130 136.3324990 141.4844720  59.7912300 136.2570300
 142.1042060  61.1297380 135.9161340 142.2188970  68.9670230 148.0764600
 142.1526280  68.0465900 147.8222190 141.5894110  69.0645670 148.7909240
 145.0128500  64.6618780 134.6287150 145.9008120  64.9736010 134.4538490
 144.9833590  63.7891030 134.2367730 136.1219590  69.5676190 140.0348020
 136.6398260  68.7644450 139.9804910 135.6703610  69.5055330 140.8764850
 141.0089090  70.8342470 135.3075320 141.3504790  71.5784700 134.8118640
 140.1801800  71.1473590 135.6700150 133.6064130  66.5337560 146.9473720
 133.2479070  67.1991410 147.5347060 133.3118690  65.7021110 147.3186340
 136.8077250  66.9921800 149.8313270 136.5077390  67.1378980 148.9341090
 137.5788490  66.4327090 149.7386660 142.1505700  71.7890800 147.8268400
 142.1650240  70.8571760 147.6087310 141.4430800  71.8750560 148.4658170
 147.2842770  65.9730620 134.0967010 147.2006490  66.4044840 133.2463450
 148.0036960  66.4328970 134.5293830 148.3130020  72.8272880 136.8249140
 147.6706180  72.1728500 137.0992860 147.9260680  73.2327970 136.0489810
 143.8916500  70.1558310 140.6720830 144.2440320  69.5586440 140.0122200
 143.0078830  69.8302540 140.8429080 139.9779780  70.9156000 138.0791240
 140.6650910  71.4625210 138.4598830 139.1912200  71.4596730 138.1140850
 132.1172180  66.5328820 133.5708320 132.9867030  66.8153620 133.8544240
 131.6262500  67.3464690 133.4557130 139.2806990  67.9202030 137.6916600
 139.7369770  68.7307280 137.9176790 138.9295200  67.6025170 138.5235090
 141.5839600  73.4308370 144.9208900 142.2281820  73.6367750 145.5982320
 141.9469040  72.6696770 144.4679750 135.1818770  58.2639680 138.1639120
 135.0533400  58.2557580 139.1124040 134.3580790  58.6022770 137.8130130
 142.8571680  71.4340720 143.6386350 143.4993910  70.7333880 143.7518520
 143.3821030  72.2139160 143.4583240 146.7027400  71.7189340 133.3625490
 146.4764980  71.0019780 133.9550130 146.3123600  71.4701780 132.5247240
 144.6309300  72.2335620 146.8422410 144.9665540  72.8202310 147.5200330
 143.7109640  72.1028330 147.0720200 132.4843430  75.7456200 134.1369950
 132.8441070  76.3445540 133.4827220 132.3435770  76.2916090 134.9104980
 132.1812700  60.0230800 147.6245820 131.4671220  60.2227720 148.2298430
 132.6007740  59.2470370 147.9960620 146.2843650  69.6361280 135.0239650
 145.9965350  70.0973970 135.8117530 147.0795820  69.1759050 135.2923870
 132.4685290  74.0111060 148.6112350 132.5776410  73.0705800 148.4707740
 131.8165850  74.2765810 147.9626080 138.5012050  73.1287400 134.9543620
 138.4922150  73.8617090 134.3388130 137.5810410  72.8818980 135.0470580
 134.1018690  68.3502290 135.6990380 133.4946640  69.0901190 135.7085680
 134.5768040  68.4401650 134.8728580 143.6751480  62.5153110 145.3747270
 144.0432300  61.6948320 145.7026840 142.8149680  62.5755000 145.7902920
 147.0413510  61.4710050 136.1834830 146.4126670  61.5755720 135.4693060
 146.5465430  61.6906830 136.9728710 141.4871650  73.1915640 133.6168810
 141.5883630  72.9879630 132.6870790 140.5873390  72.9373920 133.8216590
 139.0097540  63.7496000 137.5992710 138.3013690  64.2182340 138.0406320
 139.2942020  63.0918010 138.2337900 140.6353470  65.1692700 145.5985240
 141.1338720  65.6438520 146.2637090 140.7776420  64.2456220 145.8055270
 143.0412970  60.4746660 139.0388500 142.9180750  60.4932790 138.0898010
 143.9897530  60.5225600 139.1586900 140.1289760  75.7101960 138.3116480
 140.3831260  75.6723350 137.3895850 139.1802240  75.5835290 138.3044730
 137.2132560  62.0581080 134.9743420 138.0623090  62.4951230 134.9083610
 136.8463830  62.3701340 135.8015480 147.8420330  61.3860660 146.4413630
 147.3393930  62.1266060 146.7807440 148.6576990  61.7744660 146.1250420
 146.1342340  66.6293840 139.8874990 145.1932480  66.6444070 140.0622680
 146.4486410  65.8429800 140.3335290 136.1123980  68.3113440 133.4478950
 136.8787250  68.1994800 134.0104380 136.1898670  67.6151410 132.7955720
 134.8070740  65.7438510 134.1311840 134.8874330  64.7966020 134.2429240
 135.6990490  66.0745390 134.2372500 135.6085450  75.8933900 141.2346380
 136.3447930  75.3449360 141.5054950 135.9926370  76.7589910 141.0952370
 132.4930930  71.9607470 137.1087890 131.5670710  72.2028610 137.0993300
 132.9587360  72.7881730 136.9872640 138.7187760  75.0664210 133.0571950
 139.5116370  75.3553040 132.6053740 138.1992110  74.6356380 132.3784430
 144.8808730  74.9140130 148.9816780 145.8330480  74.8298150 148.9317020
 144.7336950  75.5781840 149.6550570 147.7717930  74.2934340 134.4808690
 147.4859440  73.8799480 133.6662870 147.5737480  75.2222050 134.3609210
 132.3341540  67.5653430 149.3668010 132.8380560  66.9860710 149.9384240
 131.5948960  67.8493660 149.9044380 139.2365160  70.2867620 132.9214300
 139.1315800  69.6719970 133.6475680 139.0689380  69.7633510 132.1377310
 139.3879480  68.9724420 148.9003530 138.6225150  69.5409420 148.8158200
 139.5695440  68.6800630 148.0071760 142.4767890  69.3487650 133.5256290
 141.9277990  69.7956950 134.1699030 143.0987150  68.8436900 134.0493960
 146.5302830  70.7029750 149.4578550 147.2712300  71.0405510 148.9546010
 145.7675510  70.8721810 148.9048320 138.1443010  68.3078570 135.4221590
 138.5659430  68.1418440 136.2652980 138.2693850  67.4978800 134.9276730
 136.3070430  64.2875120 148.2292570 135.7766890  63.7966070 147.6015910
 136.9758500  64.7159320 147.6950500 140.6570650  67.3316180 132.6698690
 141.1776310  66.6165200 132.3039840 141.3039050  67.9702050 132.9699200
 145.2048490  68.7544580 147.9933760 145.6189510  68.9089660 148.8424180
 144.2699490  68.8799800 148.1559540 145.6770660  66.0940740 149.9972910
 146.2591430  65.3393060 149.9093390 145.8532430  66.6248180 149.2204390
 136.7942730  61.2537490 148.3089860 136.6999600  60.6358240 147.5840730
 136.2140120  61.9803780 148.0819770 139.5604170  59.8110730 145.3417250
 139.1121470  59.8334990 144.4962800 138.9269370  59.4129750 145.9387550
 139.9663720  68.7065060 145.9629690 140.3851830  69.5497790 145.7905930
 139.0472350  68.8437100 145.7336470 142.3027620  66.4381240 147.3467530
 142.4223830  65.8422380 148.0862370 143.1621620  66.4750930 146.9268830
 144.6415520  66.9918430 145.9230040 144.1150740  67.5161050 145.3195180
 144.9846860  67.6245820 146.5539770 137.0401910  64.3811800 132.3679750
 136.8390970  63.5179160 132.7293090 136.8693960  64.2945160 131.4301350
 137.8171140  75.0118070 147.0787420 137.2792230  75.7364130 146.7596120
 138.0705100  74.5348410 146.2884760 139.0696390  62.9802590 148.6043350
 139.6596080  62.6718440 149.2921170 138.2516630  62.5082340 148.7603250
 143.8889820  62.5968400 148.8376370 143.2005340  61.9349940 148.7726360
 144.6095840  62.1506670 149.2824830 144.5190220  59.1920030 134.8966630
 144.7992510  58.3487930 135.2526050 143.7455950  59.4243140 135.4105380
 135.8384710  61.4812420 132.3557630 136.1410610  61.4879850 131.4476780
 136.5779300  61.1310280 132.8525290 140.6733350  76.2469280 147.3374070
 140.5992050  77.1504420 147.6446440 139.7712190  75.9281180 147.3096140
 139.0569640  60.4247040 133.3413830 138.7091640  59.7471030 132.7616280
 139.2582410  59.9636550 134.1557220 141.2218680  75.4127790 134.9600430
 142.1169470  75.7512760 134.9819190 141.2536310  74.6907200 134.3324710
 134.8614840  70.7854840 133.1887430 135.2989710  71.3284510 133.8445010
 135.3462570  69.9601790 133.1983770 132.0760640  73.5743870 140.6407690
 132.4063650  72.7064930 140.4086330 132.5051640  73.7802390 141.4712650
 136.6722560  71.9052880 138.3009660 136.3718100  71.7817850 139.2013570
 136.5660050  71.0461470 137.8925390 132.5650850  74.4414460 143.3789320
 132.1281840  74.6215260 144.2113470 133.1328530  75.1989080 143.2371040
 148.2013030  73.9431460 147.6666630 147.6015020  74.0024020 146.9230550
 148.3306930  73.0036440 147.7963480 132.3975280  66.9534690 139.7378200
 131.7424120  66.6846330 139.0937900 133.2353230  66.8439170 139.2880180
 146.8864670  70.6683440 145.7642790 146.0724510  71.0980600 146.0268580
 147.2938870  71.2801850 145.1511840 145.3465720  61.7475980 133.9596690
 145.7650600  61.5606960 133.1193350 145.0401780  60.8955030 134.2699620
 133.4351210  67.3387260 144.2781540 133.8024250  67.2514660 145.1577560
 132.8662030  66.5753810 144.1788400 148.2355070  65.8071640 147.2912010
 148.0041160  65.5784390 146.3909960 148.4959620  66.7271190 147.2456900
 132.9867210  64.2496350 148.1839960 132.0923260  64.2163110 148.5233670
 133.5264760  64.4483140 148.9491210 131.6113360  64.1633620 135.6803530
 130.7077440  64.4263820 135.5055190 132.0953980  64.4344790 134.9003490
 148.2996130  64.9697480 144.4799280 147.3498840  64.9361020 144.5944270
 148.4809140  65.8797590 144.2449050 134.1540570  63.2199160 133.5897910
 134.8632270  62.7982380 133.1045190 133.4380510  63.2874390 132.9581260
 133.8014730  59.2738490 132.6300560 134.5242860  59.8147430 132.9481780
 134.0739250  59.0001910 131.7542100 147.6106380  64.1430960 136.8972140
 148.1065500  63.9101830 137.6821020 147.4122450  63.3042800 136.4809780
 133.4906920  58.5244680 142.5323180 134.1383110  57.9742060 142.0918340
 133.9108760  58.7787830 143.3538990 147.3859260  58.7186040 145.8892820
 148.0231480  59.3320180 146.2552010 147.5334150  58.7546700 144.9442050
 146.9440720  75.4202040 139.2911060 147.5399790  75.0986610 138.6145480
 147.2018870  74.9473860 140.0824330 133.2438920  58.6800350 145.2748500
 132.8953740  59.1364170 146.0406680 132.9126620  57.7857480 145.3570930
 138.5509320  73.4079540 145.0411410 138.3100680  73.6754100 144.1541930
 139.4911960  73.5785270 145.0962270 140.7563740  59.8712230 148.7967920
 140.6952630  60.4634060 149.5463330 141.6964120  59.7638190 148.6518180
 143.3938300  59.5282290 148.4360210 144.0078710  59.8461580 147.7741290
 143.9387860  59.0430880 149.0556070 133.9159560  58.2076550 148.5499270
 134.4642550  58.0264600 147.7865380 133.9814870  57.4170660 149.0855580
 134.6891320  74.7982200 146.5599470 134.0951640  74.6666900 147.2989510
 134.6815160  73.9620340 146.0941570 144.1346340  58.0914430 144.7629500
 143.2606180  58.4249540 144.5602430 144.0257090  57.6187610 145.5881370
 145.0418320  60.2985300 146.1471220 144.7131680  59.4837060 145.7672950
 145.9900620  60.2555110 146.0236910 147.4952930  76.0697340 143.1208790
 147.0355900  76.8213150 142.7466810 146.8665390  75.3503810 143.0623590
 134.3203550  72.1640580 145.5107510 133.5937610  71.5445870 145.4433460
 134.3812700  72.5581190 144.6405590 137.9248650  74.3785580 142.2956920
 138.4413670  73.7672940 141.7705180 138.5746030  74.8814360 142.7867930
 140.6644150  75.2694070 143.1225900 140.9521960  75.0148370 142.2458910
 141.1767370  74.7171430 143.7131470 141.8821160  59.0084270 143.7022410
 141.0992950  59.4829770 143.9819170 141.5884090  58.1039100 143.5935590
 146.4342230  59.7107370 141.7471500 146.8750320  59.6552470 140.8993100
 146.1649820  60.6265380 141.8181680 132.6033550  75.4814970 138.7204270
 132.4355590  74.8485650 139.4186160 131.7368060  75.6874370 138.3698460
 133.2261570  59.3131750 136.2236130 133.9840930  59.4260630 135.6500160
 132.7638740  60.1500950 136.1779560 139.7675380  61.4271020 139.2138440
 138.9549890  61.0527910 138.8734320 140.2717020  60.6716100 139.5159630
 144.2700360  58.0913470 140.4521510 144.8729730  58.6633680 140.9270030
 143.5293350  58.6552910 140.2295410 147.4134960  58.4935030 135.7261790
 147.6085590  59.3918480 135.9929220 146.6264830  58.2622110 136.2194740
 134.2096250  74.1748200 136.1654410 133.6843870  74.5556230 135.4616370
 134.1340830  74.7998970 136.8864120 135.5986720  59.8395800 134.7638100
 136.1279480  59.0525600 134.6346050 136.2315040  60.5186990 134.9973630
 137.7924560  59.5770940 137.8183490 137.1627300  58.8758250 137.9853620
 137.2529700  60.3375070 137.6016650 136.8089220  76.1230580 135.0403660
 137.5408040  75.8389860 134.4927550 137.0682890  75.8843860 135.9303040
 135.9704010  72.2395310 135.0449990 135.3412890  72.7080410 135.5935820
 136.0851840  71.3944530 135.4796180 143.4253730  66.2900970 121.1951190
 143.3447780  65.3755580 120.9242900 143.0118150  66.7868040 120.4890900
 141.5571770  68.0679990 123.0760460 140.7813870  67.5880430 123.3659030
 142.2084700  67.3885640 122.9016620 135.5737600  68.3799800 123.9536220
 134.7422480  68.1248510 124.3532730 136.1818580  68.4510570 124.6894140
 145.5779200  72.4740180 121.8559590 145.1160730  71.7027420 122.1846760
 146.3904750  72.5006250 122.3612040 135.5538860  72.4139890 124.1494240
 135.8566900  71.5237630 123.9704460 136.2982450  72.9710110 123.9216490
 133.9829550  63.3401690 117.7378610 133.0946250  63.6817660 117.6358490
 134.2670740  63.1402010 116.8459440 131.9462560  65.9407340 123.6218310
 132.5178670  65.1729540 123.6221950 131.9464100  66.2396100 122.7124920
 141.8042510  74.7598190 121.4763580 141.1853950  75.2155690 120.9058020
 142.6594290  74.9149650 121.0753280 140.9980760  70.7437180 123.0830620
 140.9289040  69.8027120 122.9219750 141.7600620  70.8338590 123.6553190
 133.1887430  61.3491700 125.4087240 133.0090270  60.4517450 125.6890000
 132.7867510  61.8963570 126.0834190 142.0285930  63.5507560 123.3099550
 142.4050750  62.6779440 123.1973220 141.9305440  63.8866260 122.4189990
 136.1590940  61.9233190 118.7716990 136.2657690  62.8236920 119.0785750
 135.2483300  61.8751160 118.4811640 145.8110050  61.0458000 120.2427890
 146.6319670  60.5554570 120.2853370 145.8444130  61.6355660 120.9959730
 133.8074100  63.8452200 124.0169580 134.4884210  64.1090570 124.6356980
 133.4922150  63.0053070 124.3507590 137.9998670  64.8919560 123.1042170
 138.5076890  65.3900530 123.7447190 138.5311910  64.1154760 122.9281530
 136.2834770  59.5318120 127.3705590 136.2853210  60.0490510 126.5651490
 135.4539080  59.0548300 127.3475520 142.6705860  69.6437430 118.8695490
 142.0523130  70.1086880 118.3058210 143.1829110  70.3364910 119.2865000
 137.5337620  69.1713300 125.5479090 137.2007000  69.7982220 126.1900160
 137.7104300  69.6975180 124.7680760 146.0471530  62.9858380 123.0155430
 145.3427100  63.2743270 123.5958540 146.4083690  63.7958490 122.6554990
 135.9650100  61.2428080 125.3776040 136.3066910  62.0870130 125.0829910
 135.0265910  61.3911820 125.4941380 136.7456720  71.1394100 127.3628270
 137.3630720  71.8145180 127.0812720 135.8849840  71.5482080 127.2715770
 132.0389060  70.3293960 116.2435120 131.6617040  70.8181060 115.5120020
 132.2962130  71.0019240 116.8741650 147.6634310  72.6033510 125.2782910
 146.9797830  73.2732620 125.2699580 148.2028600  72.8014160 124.5127770
 139.6477990  58.7310350 121.7020630 139.9552970  58.1757240 120.9856130
 138.7178690  58.8654810 121.5193620 145.1993050  74.4477640 123.9928090
 145.2120210  74.0439930 123.1250350 144.6468270  75.2224930 123.8889520
 146.4938470  71.1693860 119.0818260 146.3834800  70.2268190 119.2067680
 146.4906720  71.5309500 119.9681020 144.5978490  69.3507480 125.3210700
 145.0147280  69.1367590 124.4864160 145.3218310  69.6080270 125.8919320
 142.0358750  66.7959180 118.4380750 141.1088030  66.7296560 118.6669220
 142.1883570  67.7339310 118.3235990 142.0227830  63.0676180 115.4347910
 141.0831500  63.2290140 115.5200370 142.3411090  63.7861860 114.8883900
 146.0656040  68.3579480 118.9416000 145.4468460  68.0199030 118.2942300
 146.0480490  67.7139240 119.6495190 145.5082600  64.5364020 126.3581810
 145.0953780  65.3617730 126.6121800 144.7758550  63.9509060 126.1658170
 137.6415390  67.3223920 121.2200480 137.2372390  66.6101170 120.7246380
 137.7278510  66.9777160 122.1088520 138.1097090  71.0091480 123.3839690
 137.8125380  70.4036950 122.7047470 139.0596910  71.0468790 123.2729050
 136.3544010  64.0967130 124.9999520 136.9058600  64.2062470 124.2252770
 136.8687520  64.4704730 125.7154750 146.1982700  74.5823350 127.0462790
 145.7213260  75.3895540 126.8535400 145.5144490  73.9301680 127.1989000
 137.2015520  70.7473170 130.0347490 136.3044050  70.9713140 130.2820890
 137.2268390  70.8708110 129.0858890 144.2420740  67.5966290 115.9488750
 144.6814020  66.7588720 115.8026570 144.9549160  68.2295690 116.0352890
 136.0286740  67.6186490 128.6104860 135.8894510  68.4909290 128.9792260
 135.1468100  67.2759300 128.4652800 142.3516120  72.5362360 119.9169990
 142.7912030  73.2786690 119.5025380 142.2903010  72.7788930 120.8408950
 137.8267090  73.5608190 130.8190010 137.7982520  73.9651140 129.9518440
 137.6632060  72.6318550 130.6561610 147.8237880  58.8509100 114.2629790
 147.5110540  58.9435930 115.1628860 148.5850350  59.4290130 114.2127220
 134.3420020  66.2168900 118.7207130 134.2217620  66.9430990 118.1088400
 134.0320910  65.4471810 118.2435040 131.9805390  69.3884040 124.5275770
 132.0585810  69.5232810 123.5831490 132.5947070  68.6799930 124.7203890
 133.2253020  71.0884230 120.9381950 132.8181100  71.2298820 120.0835550
 134.1166030  70.8044390 120.7353160 143.0431900  75.2376140 127.8449000
 143.5576570  75.1484150 128.6471430 142.2000980  75.5835840 128.1376910
 145.0186300  75.5231480 117.2733000 144.8587440  75.2334420 118.1714830
 144.8533010  74.7471610 116.7378230 137.4974680  75.3030010 119.0504620
 137.3217160  74.3865550 118.8372420 136.6430420  75.6617300 119.2902420
 144.7212430  73.0319040 115.8331000 144.0277590  73.0296330 115.1733280
 145.4635290  72.6078360 115.4025170 144.2862360  74.6581750 119.9079490
 144.7419310  73.8771130 120.2218110 144.6254880  75.3688570 120.4520670
 132.0364910  70.4298210 127.0670230 132.1995950  69.9603570 126.2489600
 132.5017360  69.9221770 127.7319070 136.8083680  59.5603970 122.1030800
 136.3651830  60.3413510 121.7715320 137.3668670  59.8833860 122.8101740
 141.0953490  62.4272490 127.7066120 140.6332860  62.6355510 128.5186060
 140.6931600  61.6131840 127.4036790 146.0958000  63.6481440 128.8362780
 145.2451590  63.3487190 129.1571850 145.9359790  63.8923450 127.9246600
 143.1907710  65.1483190 130.9361570 143.5161120  64.3146940 130.5963800
 143.9788040  65.6711710 131.0839900 139.9242500  59.1814670 116.9836630
 139.2996680  59.1774540 117.7089940 139.8372620  58.3145630 116.5872600
 138.8459580  60.1051300 123.9620400 139.1431910  61.0114130 123.8812420
 139.3945140  59.6170080 123.3479970 136.5997900  64.6837540 119.8312050
 136.3738820  64.4674710 120.7358670 135.8190430  65.1166000 119.4858020
 143.8295660  64.6900910 118.4302700 143.2304550  65.4136710 118.2466320
 144.3775270  64.6277690 117.6479150 139.0397110  65.5823120 130.4972320
 138.9440710  64.6417850 130.3472720 139.8829090  65.8038190 130.1020390
 142.4360530  63.3264450 120.4605980 142.8290100  63.6436650 119.6474670
 142.7977380  62.4476330 120.5750500 134.1707650  61.9936790 128.6506100
 133.7771040  62.8412000 128.8578880 133.4826050  61.3563160 128.8414740
 140.7452700  62.0771760 131.7202840 140.0551020  61.8843960 132.3548930
 141.4885000  62.3606400 132.2527140 131.4724700  59.9165250 122.6836180
 131.1837750  60.4868110 123.3961160 132.2170460  59.4369700 123.0467410
 131.6594930  63.8585370 113.8938900 131.5769600  64.8016130 114.0353890
 131.3077990  63.7160280 113.0151250 143.0215670  65.9170200 124.5556760
 142.2896790  66.4257010 124.9046860 142.6240010  65.1000180 124.2545540
 139.4593060  62.5924400 122.9609250 139.4629120  62.1514350 122.1113790
 140.3544180  62.9141730 123.0681070 135.3095440  62.4750890 121.9203460
 134.9695490  62.9526120 122.6770510 134.5472760  62.0216010 121.5604560
 139.5213210  63.5936480 115.9516010 139.6426030  63.5522960 116.9001830
 139.1361720  64.4560630 115.7962740 143.4841580  61.3703880 123.9679700
 143.5014320  61.8212530 124.8121550 143.2357160  60.4709520 124.1813140
 138.5334710  65.9037620 115.3499310 137.9651610  65.4555870 114.7235220
 139.2423710  66.2630400 114.8164460 146.9112330  58.7836060 129.8066080
 147.2358100  58.0525720 130.3324060 146.9468840  58.4649700 128.9047070
 133.6103890  69.8049640 129.2266040 133.2258680  69.1643310 129.8249000
 133.9216080  70.5085760 129.7960770 139.7601030  66.6526180 124.7074660
 140.1271160  66.1784750 125.4536000 139.5706090  67.5267750 125.0483000
 132.6241520  61.3969870 120.8368130 132.3388440  61.0325540 121.6746750
 132.5620380  60.6650330 120.2231270 137.5500400  65.6934820 127.0258870
 137.2457470  66.5726800 127.2509230 138.5046860  65.7534610 127.0616310
 136.0782190  69.8995810 117.6225720 135.3044450  69.3593430 117.4624440
 136.8076820  69.3802420 117.2843480 146.8370170  68.8961170 123.4152110
 147.5569290  69.3916460 123.0248220 146.6351990  68.2179060 122.7705980
 142.2980110  60.2899130 117.5581500 141.4844720  59.7912300 117.4826810
 142.1042060  61.1297380 117.1417850 142.2188970  68.9670230 129.3021110
 142.1526280  68.0465900 129.0478700 141.5894110  69.0645670 130.0165750
 145.0128500  64.6618780 115.8543660 145.9008120  64.9736010 115.6795000
 144.9833590  63.7891030 115.4624240 136.1219590  69.5676190 121.2604530
 136.6398260  68.7644450 121.2061420 135.6703610  69.5055330 122.1021360
 141.0089090  70.8342470 116.5331830 141.3504790  71.5784700 116.0375150
 140.1801800  71.1473590 116.8956660 133.6064130  66.5337560 128.1730230
 133.2479070  67.1991410 128.7603570 133.3118690  65.7021110 128.5442850
 136.8077250  66.9921800 131.0569780 136.5077390  67.1378980 130.1597600
 137.5788490  66.4327090 130.9643170 142.1505700  71.7890800 129.0524910
 142.1650240  70.8571760 128.8343820 141.4430800  71.8750560 129.6914680
 147.2842770  65.9730620 115.3223520 147.2006490  66.4044840 114.4719960
 148.0036960  66.4328970 115.7550340 148.3130020  72.8272880 118.0505650
 147.6706180  72.1728500 118.3249370 147.9260680  73.2327970 117.2746320
 143.8916500  70.1558310 121.8977340 144.2440320  69.5586440 121.2378710
 143.0078830  69.8302540 122.0685590 139.9779780  70.9156000 119.3047750
 140.6650910  71.4625210 119.6855340 139.1912200  71.4596730 119.3397360
 132.1172180  66.5328820 114.7964830 132.9867030  66.8153620 115.0800750
 131.6262500  67.3464690 114.6813640 139.2806990  67.9202030 118.9173110
 139.7369770  68.7307280 119.1433300 138.9295200  67.6025170 119.7491600
 141.5839600  73.4308370 126.1465410 142.2281820  73.6367750 126.8238830
 141.9469040  72.6696770 125.6936260 135.1818770  58.2639680 119.3895630
 135.0533400  58.2557580 120.3380550 134.3580790  58.6022770 119.0386640
 142.8571680  71.4340720 124.8642860 143.4993910  70.7333880 124.9775030
 143.3821030  72.2139160 124.6839750 146.7027400  71.7189340 114.5882000
 146.4764980  71.0019780 115.1806640 146.3123600  71.4701780 113.7503750
 144.6309300  72.2335620 128.0678920 144.9665540  72.8202310 128.7456840
 143.7109640  72.1028330 128.2976710 132.4843430  75.7456200 115.3626460
 132.8441070  76.3445540 114.7083730 132.3435770  76.2916090 116.1361490
 132.1812700  60.0230800 128.8502330 131.4671220  60.2227720 129.4554940
 132.6007740  59.2470370 129.2217130 146.2843650  69.6361280 116.2496160
 145.9965350  70.0973970 117.0374040 147.0795820  69.1759050 116.5180380
 132.4685290  74.0111060 129.8368860 132.5776410  73.0705800 129.6964250
 131.8165850  74.2765810 129.1882590 140.4597880  72.2826950 131.2366980
 140.1394750  71.5636190 131.7812670 139.7856240  72.9582020 131.3103040
 138.5012050  73.1287400 116.1800130 138.4922150  73.8617090 115.5644640
 137.5810410  72.8818980 116.2727090 134.1018690  68.3502290 116.9246890
 133.4946640  69.0901190 116.9342190 134.5768040  68.4401650 116.0985090
 143.6751480  62.5153110 126.6003780 144.0432300  61.6948320 126.9283350
 142.8149680  62.5755000 127.0159430 147.0413510  61.4710050 117.4091340
 146.4126670  61.5755720 116.6949570 146.5465430  61.6906830 118.1985220
 141.4871650  73.1915640 114.8425320 141.5883630  72.9879630 113.9127300
 140.5873390  72.9373920 115.0473100 139.0097540  63.7496000 118.8249220
 138.3013690  64.2182340 119.2662830 139.2942020  63.0918010 119.4594410
 140.6353470  65.1692700 126.8241750 141.1338720  65.6438520 127.4893600
 140.7776420  64.2456220 127.0311780 143.0412970  60.4746660 120.2645010
 142.9180750  60.4932790 119.3154520 143.9897530  60.5225600 120.3843410
 140.1289760  75.7101960 119.5372990 140.3831260  75.6723350 118.6152360
 139.1802240  75.5835290 119.5301240 137.2132560  62.0581080 116.1999930
 138.0623090  62.4951230 116.1340120 136.8463830  62.3701340 117.0271990
 147.8420330  61.3860660 127.6670140 147.3393930  62.1266060 128.0063950
 148.6576990  61.7744660 127.3506930 146.1342340  66.6293840 121.1131500
 145.1932480  66.6444070 121.2879190 146.4486410  65.8429800 121.5591800
 136.1123980  68.3113440 114.6735460 136.8787250  68.1994800 115.2360890
 136.1898670  67.6151410 114.0212230 134.8070740  65.7438510 115.3568350
 134.8874330  64.7966020 115.4685750 135.6990490  66.0745390 115.4629010
 135.6085450  75.8933900 122.4602890 136.3447930  75.3449360 122.7311460
 135.9926370  76.7589910 122.3208880 132.4930930  71.9607470 118.3344400
 131.5670710  72.2028610 118.3249810 132.9587360  72.7881730 118.2129150
 134.6143730  75.0779970 131.6488470 135.4156460  75.3992020 132.0623870
 134.0995550  74.7175550 132.3708380 138.7187760  75.0664210 114.2828460
 139.5116370  75.3553040 113.8310250 138.1992110  74.6356380 113.6040940
 143.4508360  71.1859840 131.5963880 142.8446520  71.2091440 130.8559630
 143.1462470  70.4542880 132.1331130 144.8808730  74.9140130 130.2073290
 145.8330480  74.8298150 130.1573530 144.7336950  75.5781840 130.8807080
 147.7717930  74.2934340 115.7065200 147.4859440  73.8799480 114.8919380
 147.5737480  75.2222050 115.5865720 132.3341540  67.5653430 130.5924520
 132.8380560  66.9860710 131.1640750 131.5948960  67.8493660 131.1300890
 139.2365160  70.2867620 114.1470810 139.1315800  69.6719970 114.8732190
 139.0689380  69.7633510 113.3633820 139.3879480  68.9724420 130.1260040
 138.6225150  69.5409420 130.0414710 139.5695440  68.6800630 129.2328270
 142.4767890  69.3487650 114.7512800 141.9277990  69.7956950 115.3955540
 143.0987150  68.8436900 115.2750470 146.5302830  70.7029750 130.6835060
 147.2712300  71.0405510 130.1802520 145.7675510  70.8721810 130.1304830
 134.3664620  65.7083020 131.4874590 134.4069960  65.4096890 132.3959820
 135.2210120  66.1090630 131.3282110 138.1443010  68.3078570 116.6478100
 138.5659430  68.1418440 117.4909490 138.2693850  67.4978800 116.1533240
 136.3070430  64.2875120 129.4549080 135.7766890  63.7966070 128.8272420
 136.9758500  64.7159320 128.9207010 140.6570650  67.3316180 113.8955200
 141.1776310  66.6165200 113.5296350 141.3039050  67.9702050 114.1955710
 145.2048490  68.7544580 129.2190270 145.6189510  68.9089660 130.0680690
 144.2699490  68.8799800 129.3816050 145.6770660  66.0940740 131.2229420
 146.2591430  65.3393060 131.1349900 145.8532430  66.6248180 130.4460900
 136.7942730  61.2537490 129.5346370 136.6999600  60.6358240 128.8097240
 136.2140120  61.9803780 129.3076280 139.5604170  59.8110730 126.5673760
 139.1121470  59.8334990 125.7219310 138.9269370  59.4129750 127.1644060
 139.9663720  68.7065060 127.1886200 140.3851830  69.5497790 127.0162440
 139.0472350  68.8437100 126.9592980 142.3027620  66.4381240 128.5724040
 142.4223830  65.8422380 129.3118880 143.1621620  66.4750930 128.1525340
 144.6415520  66.9918430 127.1486550 144.1150740  67.5161050 126.5451690
 144.9846860  67.6245820 127.7796280 137.0401910  64.3811800 113.5936260
 136.8390970  63.5179160 113.9549600 136.8693960  64.2945160 112.6557860
 137.8171140  75.0118070 128.3043930 137.2792230  75.7364130 127.9852630
 138.0705100  74.5348410 127.5141270 139.0696390  62.9802590 129.8299860
 139.6596080  62.6718440 130.5177680 138.2516630  62.5082340 129.9859760
 143.8889820  62.5968400 130.0632880 143.2005340  61.9349940 129.9982870
 144.6095840  62.1506670 130.5081340 144.5190220  59.1920030 116.1223140
 144.7992510  58.3487930 116.4782560 143.7455950  59.4243140 116.6361890
 135.8384710  61.4812420 113.5814140 136.1410610  61.4879850 112.6733290
 136.5779300  61.1310280 114.0781800 140.6733350  76.2469280 128.5630580
 140.5992050  77.1504420 128.8702950 139.7712190  75.9281180 128.5352650
 139.0569640  60.4247040 114.5670340 138.7091640  59.7471030 113.9872790
 139.2582410  59.9636550 115.3813730 141.2218680  75.4127790 116.1856940
 142.1169470  75.7512760 116.2075700 141.2536310  74.6907200 115.5581220
 134.8614840  70.7854840 114.4143940 135.2989710  71.3284510 115.0701520
 135.3462570  69.9601790 114.4240280 132.0760640  73.5743870 121.8664200
 132.4063650  72.7064930 121.6342840 132.5051640  73.7802390 122.6969160
 136.6722560  71.9052880 119.5266170 136.3718100  71.7817850 120.4270080
 136.5660050  71.0461470 119.1181900 132.5650850  74.4414460 124.6045830
 132.1281840  74.6215260 125.4369980 133.1328530  75.1989080 124.4627550
 148.2013030  73.9431460 128.8923140 147.6015020  74.0024020 128.1487060
 148.3306930  73.0036440 129.0219990 132.3975280  66.9534690 120.9634710
 131.7424120  66.6846330 120.3194410 133.2353230  66.8439170 120.5136690
 146.8864670  70.6683440 126.9899300 146.0724510  71.0980600 127.2525090
 147.2938870  71.2801850 126.3768350 145.3465720  61.7475980 115.1853200
 145.7650600  61.5606960 114.3449860 145.0401780  60.8955030 115.4956130
 133.4351210  67.3387260 125.5038050 133.8024250  67.2514660 126.3834070
 132.8662030  66.5753810 125.4044910 148.2355070  65.8071640 128.5168520
 148.0041160  65.5784390 127.6166470 148.4959620  66.7271190 128.4713410
 132.9867210  64.2496350 129.4096470 132.0923260  64.2163110 129.7490180
 133.5264760  64.4483140 130.1747720 146.6743140  61.0328070 131.2948220
 147.5513320  61.0411470 131.6782220 146.6863980  60.2958910 130.6840570
 131.6113360  64.1633620 116.9060040 130.7077440  64.4263820 116.7311700
 132.0953980  64.4344790 116.1260000 148.2996130  64.9697480 125.7055790
 147.3498840  64.9361020 125.8200780 148.4809140  65.8797590 125.4705560
 134.1540570  63.2199160 114.8154420 134.8632270  62.7982380 114.3301700
 133.4380510  63.2874390 114.1837770 133.8014730  59.2738490 113.8557070
 134.5242860  59.8147430 114.1738290 134.0739250  59.0001910 112.9798610
 147.6106380  64.1430960 118.1228650 148.1065500  63.9101830 118.9077530
 147.4122450  63.3042800 117.7066290 133.4906920  58.5244680 123.7579690
 134.1383110  57.9742060 123.3174850 133.9108760  58.7787830 124.5795500
 147.3859260  58.7186040 127.1149330 148.0231480  59.3320180 127.4808520
 147.5334150  58.7546700 126.1698560 146.9440720  75.4202040 120.5167570
 147.5399790  75.0986610 119.8401990 147.2018870  74.9473860 121.3080840
 133.2438920  58.6800350 126.5005010 132.8953740  59.1364170 127.2663190
 132.9126620  57.7857480 126.5827440 134.8503290  71.8519950 130.6658200
 134.8072920  71.4812860 131.5472660 134.9814300  72.7897520 130.8060020
 138.5509320  73.4079540 126.2667920 138.3100680  73.6754100 125.3798440
 139.4911960  73.5785270 126.3218780 140.7563740  59.8712230 130.0224430
 140.6952630  60.4634060 130.7719840 141.6964120  59.7638190 129.8774690
 143.3938300  59.5282290 129.6616720 144.0078710  59.8461580 128.9997800
 143.9387860  59.0430880 130.2812580 133.9159560  58.2076550 129.7755780
 134.4642550  58.0264600 129.0121890 133.9814870  57.4170660 130.3112090
 134.6891320  74.7982200 127.7855980 134.0951640  74.6666900 128.5246020
 134.6815160  73.9620340 127.3198080 144.1346340  58.0914430 125.9886010
 143.2606180  58.4249540 125.7858940 144.0257090  57.6187610 126.8137880
 145.0418320  60.2985300 127.3727730 144.7131680  59.4837060 126.9929460
 145.9900620  60.2555110 127.2493420 147.4952930  76.0697340 124.3465300
 147.0355900  76.8213150 123.9723320 146.8665390  75.3503810 124.2880100
 134.3203550  72.1640580 126.7364020 133.5937610  71.5445870 126.6689970
 134.3812700  72.5581190 125.8662100 137.9248650  74.3785580 123.5213430
 138.4413670  73.7672940 122.9961690 138.5746030  74.8814360 124.0124440
 140.6644150  75.2694070 124.3482410 140.9521960  75.0148370 123.4715420
 141.1767370  74.7171430 124.9387980 141.8821160  59.0084270 124.9278920
 141.0992950  59.4829770 125.2075680 141.5884090  58.1039100 124.8192100
 146.4342230  59.7107370 122.9728010 146.8750320  59.6552470 122.1249610
 146.1649820  60.6265380 123.0438190 132.6033550  75.4814970 119.9460780
 132.4355590  74.8485650 120.6442670 131.7368060  75.6874370 119.5954970
 133.2261570  59.3131750 117.4492640 133.9840930  59.4260630 116.8756670
 132.7638740  60.1500950 117.4036070 139.7675380  61.4271020 120.4394950
 138.9549890  61.0527910 120.0990830 140.2717020  60.6716100 120.7416140
 144.2700360  58.0913470 121.6778020 144.8729730  58.6633680 122.1526540
 143.5293350  58.6552910 121.4551920 147.4134960  58.4935030 116.9518300
 147.6085590  59.3918480 117.2185730 146.6264830  58.2622110 117.4451250
 134.2096250  74.1748200 117.3910920 133.6843870  74.5556230 116.6872880
 134.1340830  74.7998970 118.1120630 135.5986720  59.8395800 115.9894610
 136.1279480  59.0525600 115.8602560 136.2315040  60.5186990 116.2230140
 137.7924560  59.5770940 119.0440000 137.1627300  58.8758250 119.2110130
 137.2529700  60.3375070 118.8273160 140.7316510  76.1910170 131.7150610
 141.6583820  75.9554440 131.7586570 140.7166940  77.0182170 131.2336640
 137.9180120  58.8554920 131.4792490 137.6364390  59.3588520 130.7153310
 138.2999820  58.0576670 131.1134620 136.8089220  76.1230580 116.2660170
 137.5408040  75.8389860 115.7184060 137.0682890  75.8843860 117.1559550
 135.9704010  72.2395310 116.2706500 135.3412890  72.7080410 116.8192330
 136.0851840  71.3944530 116.7052690 144.5195580  58.2708500 132.0572960
 144.4061030  58.5903110 132.9524480 145.3365320  58.6721010 131.7610240
 147.2994070  75.4180030 131.5391650 148.0919390  74.9229260 131.3317610
 147.5927220  76.0970170 132.1467260 143.4253730  66.2900970 102.4207700
 143.3447780  65.3755580 102.1499410 143.0118150  66.7868040 101.7147410
 141.5571770  68.0679990 104.3016970 140.7813870  67.5880430 104.5915540
 142.2084700  67.3885640 104.1273130 135.5737600  68.3799800 105.1792730
 134.7422480  68.1248510 105.5789240 136.1818580  68.4510570 105.9150650
 145.5779200  72.4740180 103.0816100 145.1160730  71.7027420 103.4103270
 146.3904750  72.5006250 103.5868550 135.5538860  72.4139890 105.3750750
 135.8566900  71.5237630 105.1960970 136.2982450  72.9710110 105.1473000
 133.9829550  63.3401690  98.9635120 133.0946250  63.6817660  98.8615000
 134.2670740  63.1402010  98.0715950 131.9462560  65.9407340 104.8474820
 132.5178670  65.1729540 104.8478460 131.9464100  66.2396100 103.9381430
 141.8042510  74.7598190 102.7020090 141.1853950  75.2155690 102.1314530
 142.6594290  74.9149650 102.3009790 140.9980760  70.7437180 104.3087130
 140.9289040  69.8027120 104.1476260 141.7600620  70.8338590 104.8809700
 133.1887430  61.3491700 106.6343750 133.0090270  60.4517450 106.9146510
 132.7867510  61.8963570 107.3090700 142.0285930  63.5507560 104.5356060
 142.4050750  62.6779440 104.4229730 141.9305440  63.8866260 103.6446500
 136.1590940  61.9233190  99.9973500 136.2657690  62.8236920 100.3042260
 135.2483300  61.8751160  99.7068150 145.8110050  61.0458000 101.4684400
 146.6319670  60.5554570 101.5109880 145.8444130  61.6355660 102.2216240
 133.8074100  63.8452200 105.2426090 134.4884210  64.1090570 105.8613490
 133.4922150  63.0053070 105.5764100 137.9998670  64.8919560 104.3298680
 138.5076890  65.3900530 104.9703700 138.5311910  64.1154760 104.1538040
 136.2834770  59.5318120 108.5962100 136.2853210  60.0490510 107.7908000
 135.4539080  59.0548300 108.5732030 142.6705860  69.6437430 100.0952000
 142.0523130  70.1086880  99.5314720 143.1829110  70.3364910 100.5121510
 137.5337620  69.1713300 106.7735600 137.2007000  69.7982220 107.4156670
 137.7104300  69.6975180 105.9937270 146.0471530  62.9858380 104.2411940
 145.3427100  63.2743270 104.8215050 146.4083690  63.7958490 103.8811500
 135.9650100  61.2428080 106.6032550 136.3066910  62.0870130 106.3086420
 135.0265910  61.3911820 106.7197890 136.7456720  71.1394100 108.5884780
 137.3630720  71.8145180 108.3069230 135.8849840  71.5482080 108.4972280
 132.0389060  70.3293960  97.4691630 131.6617040  70.8181060  96.7376530
 132.2962130  71.0019240  98.0998160 147.6634310  72.6033510 106.5039420
 146.9797830  73.2732620 106.4956090 148.2028600  72.8014160 105.7384280
 139.6477990  58.7310350 102.9277140 139.9552970  58.1757240 102.2112640
 138.7178690  58.8654810 102.7450130 145.1993050  74.4477640 105.2184600
 145.2120210  74.0439930 104.3506860 144.6468270  75.2224930 105.1146030
 146.4938470  71.1693860 100.3074770 146.3834800  70.2268190 100.4324190
 146.4906720  71.5309500 101.1937530 144.5978490  69.3507480 106.5467210
 145.0147280  69.1367590 105.7120670 145.3218310  69.6080270 107.1175830
 142.0358750  66.7959180  99.6637260 141.1088030  66.7296560  99.8925730
 142.1883570  67.7339310  99.5492500 142.0227830  63.0676180  96.6604420
 141.0831500  63.2290140  96.7456880 142.3411090  63.7861860  96.1140410
 146.0656040  68.3579480 100.1672510 145.4468460  68.0199030  99.5198810
 146.0480490  67.7139240 100.8751700 145.5082600  64.5364020 107.5838320
 145.0953780  65.3617730 107.8378310 144.7758550  63.9509060 107.3914680
 137.6415390  67.3223920 102.4456990 137.2372390  66.6101170 101.9502890
 137.7278510  66.9777160 103.3345030 138.1097090  71.0091480 104.6096200
 137.8125380  70.4036950 103.9303980 139.0596910  71.0468790 104.4985560
 136.3544010  64.0967130 106.2256030 136.9058600  64.2062470 105.4509280
 136.8687520  64.4704730 106.9411260 146.1982700  74.5823350 108.2719300
 145.7213260  75.3895540 108.0791910 145.5144490  73.9301680 108.4245510
 137.2015520  70.7473170 111.2604000 136.3044050  70.9713140 111.5077400
 137.2268390  70.8708110 110.3115400 144.2420740  67.5966290  97.1745260
 144.6814020  66.7588720  97.0283080 144.9549160  68.2295690  97.2609400
 136.0286740  67.6186490 109.8361370 135.8894510  68.4909290 110.2048770
 135.1468100  67.2759300 109.6909310 142.3516120  72.5362360 101.1426500
 142.7912030  73.2786690 100.7281890 142.2903010  72.7788930 102.0665460
 137.8267090  73.5608190 112.0446520 137.7982520  73.9651140 111.1774950
 137.6632060  72.6318550 111.8818120 147.8237880  58.8509100  95.4886300
 147.5110540  58.9435930  96.3885370 148.5850350  59.4290130  95.4383730
 134.3420020  66.2168900  99.9463640 134.2217620  66.9430990  99.3344910
 134.0320910  65.4471810  99.4691550 131.9805390  69.3884040 105.7532280
 132.0585810  69.5232810 104.8088000 132.5947070  68.6799930 105.9460400
 133.2253020  71.0884230 102.1638460 132.8181100  71.2298820 101.3092060
 134.1166030  70.8044390 101.9609670 143.0431900  75.2376140 109.0705510
 143.5576570  75.1484150 109.8727940 142.2000980  75.5835840 109.3633420
 145.0186300  75.5231480  98.4989510 144.8587440  75.2334420  99.3971340
 144.8533010  74.7471610  97.9634740 137.4974680  75.3030010 100.2761130
 137.3217160  74.3865550 100.0628930 136.6430420  75.6617300 100.5158930
 144.7212430  73.0319040  97.0587510 144.0277590  73.0296330  96.3989790
 145.4635290  72.6078360  96.6281680 144.2862360  74.6581750 101.1336000
 144.7419310  73.8771130 101.4474620 144.6254880  75.3688570 101.6777180
 132.0364910  70.4298210 108.2926740 132.1995950  69.9603570 107.4746110
 132.5017360  69.9221770 108.9575580 136.8083680  59.5603970 103.3287310
 136.3651830  60.3413510 102.9971830 137.3668670  59.8833860 104.0358250
 141.0953490  62.4272490 108.9322630 140.6332860  62.6355510 109.7442570
 140.6931600  61.6131840 108.6293300 146.0958000  63.6481440 110.0619290
 145.2451590  63.3487190 110.3828360 145.9359790  63.8923450 109.1503110
 143.1907710  65.1483190 112.1618080 143.5161120  64.3146940 111.8220310
 143.9788040  65.6711710 112.3096410 139.9242500  59.1814670  98.2093140
 139.2996680  59.1774540  98.9346450 139.8372620  58.3145630  97.8129110
 138.8459580  60.1051300 105.1876910 139.1431910  61.0114130 105.1068930
 139.3945140  59.6170080 104.5736480 136.5997900  64.6837540 101.0568560
 136.3738820  64.4674710 101.9615180 135.8190430  65.1166000 100.7114530
 143.8295660  64.6900910  99.6559210 143.2304550  65.4136710  99.4722830
 144.3775270  64.6277690  98.8735660 139.0397110  65.5823120 111.7228830
 138.9440710  64.6417850 111.5729230 139.8829090  65.8038190 111.3276900
 142.4360530  63.3264450 101.6862490 142.8290100  63.6436650 100.8731180
 142.7977380  62.4476330 101.8007010 134.1707650  61.9936790 109.8762610
 133.7771040  62.8412000 110.0835390 133.4826050  61.3563160 110.0671250
 140.7452700  62.0771760 112.9459350 140.0551020  61.8843960 113.5805440
 141.4885000  62.3606400 113.4783650 131.4724700  59.9165250 103.9092690
 131.1837750  60.4868110 104.6217670 132.2170460  59.4369700 104.2723920
 131.6594930  63.8585370  95.1195410 131.5769600  64.8016130  95.2610400
 131.3077990  63.7160280  94.2407760 143.0215670  65.9170200 105.7813270
 142.2896790  66.4257010 106.1303370 142.6240010  65.1000180 105.4802050
 139.4593060  62.5924400 104.1865760 139.4629120  62.1514350 103.3370300
 140.3544180  62.9141730 104.2937580 135.3095440  62.4750890 103.1459970
 134.9695490  62.9526120 103.9027020 134.5472760  62.0216010 102.7861070
 139.5213210  63.5936480  97.1772520 139.6426030  63.5522960  98.1258340
 139.1361720  64.4560630  97.0219250 143.4841580  61.3703880 105.1936210
 143.5014320  61.8212530 106.0378060 143.2357160  60.4709520 105.4069650
 138.5334710  65.9037620  96.5755820 137.9651610  65.4555870  95.9491730
 139.2423710  66.2630400  96.0420970 146.9112330  58.7836060 111.0322590
 147.2358100  58.0525720 111.5580570 146.9468840  58.4649700 110.1303580
 133.6103890  69.8049640 110.4522550 133.2258680  69.1643310 111.0505510
 133.9216080  70.5085760 111.0217280 139.7601030  66.6526180 105.9331170
 140.1271160  66.1784750 106.6792510 139.5706090  67.5267750 106.2739510
 132.6241520  61.3969870 102.0624640 132.3388440  61.0325540 102.9003260
 132.5620380  60.6650330 101.4487780 137.5500400  65.6934820 108.2515380
 137.2457470  66.5726800 108.4765740 138.5046860  65.7534610 108.2872820
 136.0782190  69.8995810  98.8482230 135.3044450  69.3593430  98.6880950
 136.8076820  69.3802420  98.5099990 146.8370170  68.8961170 104.6408620
 147.5569290  69.3916460 104.2504730 146.6351990  68.2179060 103.9962490
 142.2980110  60.2899130  98.7838010 141.4844720  59.7912300  98.7083320
 142.1042060  61.1297380  98.3674360 142.2188970  68.9670230 110.5277620
 142.1526280  68.0465900 110.2735210 141.5894110  69.0645670 111.2422260
 145.0128500  64.6618780  97.0800170 145.9008120  64.9736010  96.9051510
 144.9833590  63.7891030  96.6880750 136.1219590  69.5676190 102.4861040
 136.6398260  68.7644450 102.4317930 135.6703610  69.5055330 103.3277870
 141.0089090  70.8342470  97.7588340 141.3504790  71.5784700  97.2631660
 140.1801800  71.1473590  98.1213170 133.6064130  66.5337560 109.3986740
 133.2479070  67.1991410 109.9860080 133.3118690  65.7021110 109.7699360
 136.8077250  66.9921800 112.2826290 136.5077390  67.1378980 111.3854110
 137.5788490  66.4327090 112.1899680 142.1505700  71.7890800 110.2781420
 142.1650240  70.8571760 110.0600330 141.4430800  71.8750560 110.9171190
 147.2842770  65.9730620  96.5480030 147.2006490  66.4044840  95.6976470
 148.0036960  66.4328970  96.9806850 148.3130020  72.8272880  99.2762160
 147.6706180  72.1728500  99.5505880 147.9260680  73.2327970  98.5002830
 143.8916500  70.1558310 103.1233850 144.2440320  69.5586440 102.4635220
 143.0078830  69.8302540 103.2942100 139.9779780  70.9156000 100.5304260
 140.6650910  71.4625210 100.9111850 139.1912200  71.4596730 100.5653870
 132.1172180  66.5328820  96.0221340 132.9867030  66.8153620  96.3057260
 131.6262500  67.3464690  95.9070150 139.2806990  67.9202030 100.1429620
 139.7369770  68.7307280 100.3689810 138.9295200  67.6025170 100.9748110
 141.5839600  73.4308370 107.3721920 142.2281820  73.6367750 108.0495340
 141.9469040  72.6696770 106.9192770 135.1818770  58.2639680 100.6152140
 135.0533400  58.2557580 101.5637060 134.3580790  58.6022770 100.2643150
 142.8571680  71.4340720 106.0899370 143.4993910  70.7333880 106.2031540
 143.3821030  72.2139160 105.9096260 146.7027400  71.7189340  95.8138510
 146.4764980  71.0019780  96.4063150 146.3123600  71.4701780  94.9760260
 144.6309300  72.2335620 109.2935430 144.9665540  72.8202310 109.9713350
 143.7109640  72.1028330 109.5233220 132.4843430  75.7456200  96.5882970
 132.8441070  76.3445540  95.9340240 132.3435770  76.2916090  97.3618000
 132.1812700  60.0230800 110.0758840 131.4671220  60.2227720 110.6811450
 132.6007740  59.2470370 110.4473640 146.2843650  69.6361280  97.4752670
 145.9965350  70.0973970  98.2630550 147.0795820  69.1759050  97.7436890
 132.4685290  74.0111060 111.0625370 132.5776410  73.0705800 110.9220760
 131.8165850  74.2765810 110.4139100 140.4597880  72.2826950 112.4623490
 140.1394750  71.5636190 113.0069180 139.7856240  72.9582020 112.5359550
 138.5012050  73.1287400  97.4056640 138.4922150  73.8617090  96.7901150
 137.5810410  72.8818980  97.4983600 134.1018690  68.3502290  98.1503400
 133.4946640  69.0901190  98.1598700 134.5768040  68.4401650  97.3241600
 143.6751480  62.5153110 107.8260290 144.0432300  61.6948320 108.1539860
 142.8149680  62.5755000 108.2415940 147.0413510  61.4710050  98.6347850
 146.4126670  61.5755720  97.9206080 146.5465430  61.6906830  99.4241730
 141.4871650  73.1915640  96.0681830 141.5883630  72.9879630  95.1383810
 140.5873390  72.9373920  96.2729610 139.0097540  63.7496000 100.0505730
 138.3013690  64.2182340 100.4919340 139.2942020  63.0918010 100.6850920
 140.6353470  65.1692700 108.0498260 141.1338720  65.6438520 108.7150110
 140.7776420  64.2456220 108.2568290 143.0412970  60.4746660 101.4901520
 142.9180750  60.4932790 100.5411030 143.9897530  60.5225600 101.6099920
 140.1289760  75.7101960 100.7629500 140.3831260  75.6723350  99.8408870
 139.1802240  75.5835290 100.7557750 137.2132560  62.0581080  97.4256440
 138.0623090  62.4951230  97.3596630 136.8463830  62.3701340  98.2528500
 147.8420330  61.3860660 108.8926650 147.3393930  62.1266060 109.2320460
 148.6576990  61.7744660 108.5763440 146.1342340  66.6293840 102.3388010
 145.1932480  66.6444070 102.5135700 146.4486410  65.8429800 102.7848310
 136.1123980  68.3113440  95.8991970 136.8787250  68.1994800  96.4617400
 136.1898670  67.6151410  95.2468740 134.8070740  65.7438510  96.5824860
 134.8874330  64.7966020  96.6942260 135.6990490  66.0745390  96.6885520
 135.6085450  75.8933900 103.6859400 136.3447930  75.3449360 103.9567970
 135.9926370  76.7589910 103.5465390 132.4930930  71.9607470  99.5600910
 131.5670710  72.2028610  99.5506320 132.9587360  72.7881730  99.4385660
 134.6143730  75.0779970 112.8744980 135.4156460  75.3992020 113.2880380
 134.0995550  74.7175550 113.5964890 138.7187760  75.0664210  95.5084970
 139.5116370  75.3553040  95.0566760 138.1992110  74.6356380  94.8297450
 143.4508360  71.1859840 112.8220390 142.8446520  71.2091440 112.0816140
 143.1462470  70.4542880 113.3587640 144.8808730  74.9140130 111.4329800
 145.8330480  74.8298150 111.3830040 144.7336950  75.5781840 112.1063590
 147.7717930  74.2934340  96.9321710 147.4859440  73.8799480  96.1175890
 147.5737480  75.2222050  96.8122230 132.3341540  67.5653430 111.8181030
 132.8380560  66.9860710 112.3897260 131.5948960  67.8493660 112.3557400
 139.2365160  70.2867620  95.3727320 139.1315800  69.6719970  96.0988700
 139.0689380  69.7633510  94.5890330 139.3879480  68.9724420 111.3516550
 138.6225150  69.5409420 111.2671220 139.5695440  68.6800630 110.4584780
 142.4767890  69.3487650  95.9769310 141.9277990  69.7956950  96.6212050
 143.0987150  68.8436900  96.5006980 146.5302830  70.7029750 111.9091570
 147.2712300  71.0405510 111.4059030 145.7675510  70.8721810 111.3561340
 134.3664620  65.7083020 112.7131100 134.4069960  65.4096890 113.6216330
 135.2210120  66.1090630 112.5538620 138.1443010  68.3078570  97.8734610
 138.5659430  68.1418440  98.7166000 138.2693850  67.4978800  97.3789750
 136.3070430  64.2875120 110.6805590 135.7766890  63.7966070 110.0528930
 136.9758500  64.7159320 110.1463520 140.6570650  67.3316180  95.1211710
 141.1776310  66.6165200  94.7552860 141.3039050  67.9702050  95.4212220
 145.2048490  68.7544580 110.4446780 145.6189510  68.9089660 111.2937200
 144.2699490  68.8799800 110.6072560 145.6770660  66.0940740 112.4485930
 146.2591430  65.3393060 112.3606410 145.8532430  66.6248180 111.6717410
 136.7942730  61.2537490 110.7602880 136.6999600  60.6358240 110.0353750
 136.2140120  61.9803780 110.5332790 139.5604170  59.8110730 107.7930270
 139.1121470  59.8334990 106.9475820 138.9269370  59.4129750 108.3900570
 139.9663720  68.7065060 108.4142710 140.3851830  69.5497790 108.2418950
 139.0472350  68.8437100 108.1849490 142.3027620  66.4381240 109.7980550
 142.4223830  65.8422380 110.5375390 143.1621620  66.4750930 109.3781850
 144.6415520  66.9918430 108.3743060 144.1150740  67.5161050 107.7708200
 144.9846860  67.6245820 109.0052790 137.0401910  64.3811800  94.8192770
 136.8390970  63.5179160  95.1806110 136.8693960  64.2945160  93.8814370
 137.8171140  75.0118070 109.5300440 137.2792230  75.7364130 109.2109140
 138.0705100  74.5348410 108.7397780 139.0696390  62.9802590 111.0556370
 139.6596080  62.6718440 111.7434190 138.2516630  62.5082340 111.2116270
 143.8889820  62.5968400 111.2889390 143.2005340  61.9349940 111.2239380
 144.6095840  62.1506670 111.7337850 144.5190220  59.1920030  97.3479650
 144.7992510  58.3487930  97.7039070 143.7455950  59.4243140  97.8618400
 135.8384710  61.4812420  94.8070650 136.1410610  61.4879850  93.8989800
 136.5779300  61.1310280  95.3038310 140.6733350  76.2469280 109.7887090
 140.5992050  77.1504420 110.0959460 139.7712190  75.9281180 109.7609160
 139.0569640  60.4247040  95.7926850 138.7091640  59.7471030  95.2129300
 139.2582410  59.9636550  96.6070240 141.2218680  75.4127790  97.4113450
 142.1169470  75.7512760  97.4332210 141.2536310  74.6907200  96.7837730
 134.8614840  70.7854840  95.6400450 135.2989710  71.3284510  96.2958030
 135.3462570  69.9601790  95.6496790 132.0760640  73.5743870 103.0920710
 132.4063650  72.7064930 102.8599350 132.5051640  73.7802390 103.9225670
 136.6722560  71.9052880 100.7522680 136.3718100  71.7817850 101.6526590
 136.5660050  71.0461470 100.3438410 132.5650850  74.4414460 105.8302340
 132.1281840  74.6215260 106.6626490 133.1328530  75.1989080 105.6884060
 148.2013030  73.9431460 110.1179650 147.6015020  74.0024020 109.3743570
 148.3306930  73.0036440 110.2476500 132.3975280  66.9534690 102.1891220
 131.7424120  66.6846330 101.5450920 133.2353230  66.8439170 101.7393200
 146.8864670  70.6683440 108.2155810 146.0724510  71.0980600 108.4781600
 147.2938870  71.2801850 107.6024860 145.3465720  61.7475980  96.4109710
 145.7650600  61.5606960  95.5706370 145.0401780  60.8955030  96.7212640
 133.4351210  67.3387260 106.7294560 133.8024250  67.2514660 107.6090580
 132.8662030  66.5753810 106.6301420 148.2355070  65.8071640 109.7425030
 148.0041160  65.5784390 108.8422980 148.4959620  66.7271190 109.6969920
 132.9867210  64.2496350 110.6352980 132.0923260  64.2163110 110.9746690
 133.5264760  64.4483140 111.4004230 146.6743140  61.0328070 112.5204730
 147.5513320  61.0411470 112.9038730 146.6863980  60.2958910 111.9097080
 131.6113360  64.1633620  98.1316550 130.7077440  64.4263820  97.9568210
 132.0953980  64.4344790  97.3516510 148.2996130  64.9697480 106.9312300
 147.3498840  64.9361020 107.0457290 148.4809140  65.8797590 106.6962070
 134.1540570  63.2199160  96.0410930 134.8632270  62.7982380  95.5558210
 133.4380510  63.2874390  95.4094280 133.8014730  59.2738490  95.0813580
 134.5242860  59.8147430  95.3994800 134.0739250  59.0001910  94.2055120
 147.6106380  64.1430960  99.3485160 148.1065500  63.9101830 100.1334040
 147.4122450  63.3042800  98.9322800 133.4906920  58.5244680 104.9836200
 134.1383110  57.9742060 104.5431360 133.9108760  58.7787830 105.8052010
 147.3859260  58.7186040 108.3405840 148.0231480  59.3320180 108.7065030
 147.5334150  58.7546700 107.3955070 146.9440720  75.4202040 101.7424080
 147.5399790  75.0986610 101.0658500 147.2018870  74.9473860 102.5337350
 133.2438920  58.6800350 107.7261520 132.8953740  59.1364170 108.4919700
 132.9126620  57.7857480 107.8083950 134.8503290  71.8519950 111.8914710
 134.8072920  71.4812860 112.7729170 134.9814300  72.7897520 112.0316530
 138.5509320  73.4079540 107.4924430 138.3100680  73.6754100 106.6054950
 139.4911960  73.5785270 107.5475290 140.7563740  59.8712230 111.2480940
 140.6952630  60.4634060 111.9976350 141.6964120  59.7638190 111.1031200
 143.3938300  59.5282290 110.8873230 144.0078710  59.8461580 110.2254310
 143.9387860  59.0430880 111.5069090 133.9159560  58.2076550 111.0012290
 134.4642550  58.0264600 110.2378400 133.9814870  57.4170660 111.5368600
 134.6891320  74.7982200 109.0112490 134.0951640  74.6666900 109.7502530
 134.6815160  73.9620340 108.5454590 144.1346340  58.0914430 107.2142520
 143.2606180  58.4249540 107.0115450 144.0257090  57.6187610 108.0394390
 145.0418320  60.2985300 108.5984240 144.7131680  59.4837060 108.2185970
 145.9900620  60.2555110 108.4749930 147.4952930  76.0697340 105.5721810
 147.0355900  76.8213150 105.1979830 146.8665390  75.3503810 105.5136610
 134.3203550  72.1640580 107.9620530 133.5937610  71.5445870 107.8946480
 134.3812700  72.5581190 107.0918610 137.9248650  74.3785580 104.7469940
 138.4413670  73.7672940 104.2218200 138.5746030  74.8814360 105.2380950
 140.6644150  75.2694070 105.5738920 140.9521960  75.0148370 104.6971930
 141.1767370  74.7171430 106.1644490 141.8821160  59.0084270 106.1535430
 141.0992950  59.4829770 106.4332190 141.5884090  58.1039100 106.0448610
 146.4342230  59.7107370 104.1984520 146.8750320  59.6552470 103.3506120
 146.1649820  60.6265380 104.2694700 132.6033550  75.4814970 101.1717290
 132.4355590  74.8485650 101.8699180 131.7368060  75.6874370 100.8211480
 133.2261570  59.3131750  98.6749150 133.9840930  59.4260630  98.1013180
 132.7638740  60.1500950  98.6292580 139.7675380  61.4271020 101.6651460
 138.9549890  61.0527910 101.3247340 140.2717020  60.6716100 101.9672650
 144.2700360  58.0913470 102.9034530 144.8729730  58.6633680 103.3783050
 143.5293350  58.6552910 102.6808430 147.4134960  58.4935030  98.1774810
 147.6085590  59.3918480  98.4442240 146.6264830  58.2622110  98.6707760
 134.2096250  74.1748200  98.6167430 133.6843870  74.5556230  97.9129390
 134.1340830  74.7998970  99.3377140 135.5986720  59.8395800  97.2151120
 136.1279480  59.0525600  97.0859070 136.2315040  60.5186990  97.4486650
 137.7924560  59.5770940 100.2696510 137.1627300  58.8758250 100.4366640
 137.2529700  60.3375070 100.0529670 140.7316510  76.1910170 112.9407120
 141.6583820  75.9554440 112.9843080 140.7166940  77.0182170 112.4593150
 137.9180120  58.8554920 112.7049000 137.6364390  59.3588520 111.9409820
 138.2999820  58.0576670 112.3391130 136.8089220  76.1230580  97.4916680
 137.5408040  75.8389860  96.9440570 137.0682890  75.8843860  98.3816060
 135.9704010  72.2395310  97.4963010 135.3412890  72.7080410  98.0448840
 136.0851840  71.3944530  97.9309200 144.5195580  58.2708500 113.2829470
 144.4061030  58.5903110 114.1780990 145.3365320  58.6721010 112.9866750
 147.2994070  75.4180030 112.7648160 148.0919390  74.9229260 112.5574120
 147.5927220  76.0970170 113.3723770 143.4253730  66.2900970  83.6464210
 143.3447780  65.3755580  83.3755920 143.0118150  66.7868040  82.9403920
 141.5571770  68.0679990  85.5273480 140.7813870  67.5880430  85.8172050
 142.2084700  67.3885640  85.3529640 135.5737600  68.3799800  86.4049240
 134.7422480  68.1248510  86.8045750 136.1818580  68.4510570  87.1407160
 145.5779200  72.4740180  84.3072610 145.1160730  71.7027420  84.6359780
 146.3904750  72.5006250  84.8125060 135.5538860  72.4139890  86.6007260
 135.8566900  71.5237630  86.4217480 136.2982450  72.9710110  86.3729510
 141.8042510  74.7598190  83.9276600 141.1853950  75.2155690  83.3571040
 142.6594290  74.9149650  83.5266300 140.9980760  70.7437180  85.5343640
 140.9289040  69.8027120  85.3732770 141.7600620  70.8338590  86.1066210
 142.0285930  63.5507560  85.7612570 142.4050750  62.6779440  85.6486240
 141.9305440  63.8866260  84.8703010 136.1590940  61.9233190  81.2230010
 136.2657690  62.8236920  81.5298770 135.2483300  61.8751160  80.9324660
 145.8110050  61.0458000  82.6940910 146.6319670  60.5554570  82.7366390
 145.8444130  61.6355660  83.4472750 137.9998670  64.8919560  85.5555190
 138.5076890  65.3900530  86.1960210 138.5311910  64.1154760  85.3794550
 142.6705860  69.6437430  81.3208510 142.0523130  70.1086880  80.7571230
 143.1829110  70.3364910  81.7378020 137.5337620  69.1713300  87.9992110
 137.2007000  69.7982220  88.6413180 137.7104300  69.6975180  87.2193780
 146.0471530  62.9858380  85.4668450 145.3427100  63.2743270  86.0471560
 146.4083690  63.7958490  85.1068010 136.7456720  71.1394100  89.8141290
 137.3630720  71.8145180  89.5325740 135.8849840  71.5482080  89.7228790
 147.6634310  72.6033510  87.7295930 146.9797830  73.2732620  87.7212600
 148.2028600  72.8014160  86.9640790 139.6477990  58.7310350  84.1533650
 139.9552970  58.1757240  83.4369150 138.7178690  58.8654810  83.9706640
 145.1993050  74.4477640  86.4441110 145.2120210  74.0439930  85.5763370
 144.6468270  75.2224930  86.3402540 146.4938470  71.1693860  81.5331280
 146.3834800  70.2268190  81.6580700 146.4906720  71.5309500  82.4194040
 144.5978490  69.3507480  87.7723720 145.0147280  69.1367590  86.9377180
 145.3218310  69.6080270  88.3432340 142.0358750  66.7959180  80.8893770
 141.1088030  66.7296560  81.1182240 142.1883570  67.7339310  80.7749010
 142.0227830  63.0676180  77.8860930 141.0831500  63.2290140  77.9713390
 142.3411090  63.7861860  77.3396920 146.0656040  68.3579480  81.3929020
 145.4468460  68.0199030  80.7455320 146.0480490  67.7139240  82.1008210
 145.5082600  64.5364020  88.8094830 145.0953780  65.3617730  89.0634820
 144.7758550  63.9509060  88.6171190 137.6415390  67.3223920  83.6713500
 137.2372390  66.6101170  83.1759400 137.7278510  66.9777160  84.5601540
 138.1097090  71.0091480  85.8352710 137.8125380  70.4036950  85.1560490
 139.0596910  71.0468790  85.7242070 146.1982700  74.5823350  89.4975810
 145.7213260  75.3895540  89.3048420 145.5144490  73.9301680  89.6502020
 137.2015520  70.7473170  92.4860510 136.3044050  70.9713140  92.7333910
 137.2268390  70.8708110  91.5371910 144.2420740  67.5966290  78.4001770
 144.6814020  66.7588720  78.2539590 144.9549160  68.2295690  78.4865910
 136.0286740  67.6186490  91.0617880 135.8894510  68.4909290  91.4305280
 135.1468100  67.2759300  90.9165820 142.3516120  72.5362360  82.3683010
 142.7912030  73.2786690  81.9538400 142.2903010  72.7788930  83.2921970
 137.8267090  73.5608190  93.2703030 137.7982520  73.9651140  92.4031460
 137.6632060  72.6318550  93.1074630 147.8237880  58.8509100  76.7142810
 147.5110540  58.9435930  77.6141880 148.5850350  59.4290130  76.6640240
 143.0431900  75.2376140  90.2962020 143.5576570  75.1484150  91.0984450
 142.2000980  75.5835840  90.5889930 145.0186300  75.5231480  79.7246020
 144.8587440  75.2334420  80.6227850 144.8533010  74.7471610  79.1891250
 137.4974680  75.3030010  81.5017640 137.3217160  74.3865550  81.2885440
 136.6430420  75.6617300  81.7415440 144.7212430  73.0319040  78.2844020
 144.0277590  73.0296330  77.6246300 145.4635290  72.6078360  77.8538190
 144.2862360  74.6581750  82.3592510 144.7419310  73.8771130  82.6731130
 144.6254880  75.3688570  82.9033690 132.0364910  70.4298210  89.5183250
 132.1995950  69.9603570  88.7002620 132.5017360  69.9221770  90.1832090
 136.8083680  59.5603970  84.5543820 136.3651830  60.3413510  84.2228340
 137.3668670  59.8833860  85.2614760 141.0953490  62.4272490  90.1579140
 140.6332860  62.6355510  90.9699080 140.6931600  61.6131840  89.8549810
 146.0958000  63.6481440  91.2875800 145.2451590  63.3487190  91.6084870
 145.9359790  63.8923450  90.3759620 143.1907710  65.1483190  93.3874590
 143.5161120  64.3146940  93.0476820 143.9788040  65.6711710  93.5352920
 139.9242500  59.1814670  79.4349650 139.2996680  59.1774540  80.1602960
 139.8372620  58.3145630  79.0385620 138.8459580  60.1051300  86.4133420
 139.1431910  61.0114130  86.3325440 139.3945140  59.6170080  85.7992990
 136.5997900  64.6837540  82.2825070 136.3738820  64.4674710  83.1871690
 135.8190430  65.1166000  81.9371040 143.8295660  64.6900910  80.8815720
 143.2304550  65.4136710  80.6979340 144.3775270  64.6277690  80.0992170
 139.0397110  65.5823120  92.9485340 138.9440710  64.6417850  92.7985740
 139.8829090  65.8038190  92.5533410 142.4360530  63.3264450  82.9119000
 142.8290100  63.6436650  82.0987690 142.7977380  62.4476330  83.0263520
 140.7452700  62.0771760  94.1715860 140.0551020  61.8843960  94.8061950
 141.4885000  62.3606400  94.7040160 143.0215670  65.9170200  87.0069780
 142.2896790  66.4257010  87.3559880 142.6240010  65.1000180  86.7058560
 139.4593060  62.5924400  85.4122270 139.4629120  62.1514350  84.5626810
 140.3544180  62.9141730  85.5194090 139.5213210  63.5936480  78.4029030
 139.6426030  63.5522960  79.3514850 139.1361720  64.4560630  78.2475760
 143.4841580  61.3703880  86.4192720 143.5014320  61.8212530  87.2634570
 143.2357160  60.4709520  86.6326160 138.5334710  65.9037620  77.8012330
 137.9651610  65.4555870  77.1748240 139.2423710  66.2630400  77.2677480
 146.9112330  58.7836060  92.2579100 147.2358100  58.0525720  92.7837080
 146.9468840  58.4649700  91.3560090 133.6103890  69.8049640  91.6779060
 133.2258680  69.1643310  92.2762020 133.9216080  70.5085760  92.2473790
 139.7601030  66.6526180  87.1587680 140.1271160  66.1784750  87.9049020
 139.5706090  67.5267750  87.4996020 137.5500400  65.6934820  89.4771890
 137.2457470  66.5726800  89.7022250 138.5046860  65.7534610  89.5129330
 146.8370170  68.8961170  85.8665130 147.5569290  69.3916460  85.4761240
 146.6351990  68.2179060  85.2219000 142.2980110  60.2899130  80.0094520
 141.4844720  59.7912300  79.9339830 142.1042060  61.1297380  79.5930870
 142.2188970  68.9670230  91.7534130 142.1526280  68.0465900  91.4991720
 141.5894110  69.0645670  92.4678770 145.0128500  64.6618780  78.3056680
 145.9008120  64.9736010  78.1308020 144.9833590  63.7891030  77.9137260
 141.0089090  70.8342470  78.9844850 141.3504790  71.5784700  78.4888170
 140.1801800  71.1473590  79.3469680 133.6064130  66.5337560  90.6243250
 133.2479070  67.1991410  91.2116590 133.3118690  65.7021110  90.9955870
 136.8077250  66.9921800  93.5082800 136.5077390  67.1378980  92.6110620
 137.5788490  66.4327090  93.4156190 142.1505700  71.7890800  91.5037930
 142.1650240  70.8571760  91.2856840 141.4430800  71.8750560  92.1427700
 147.2842770  65.9730620  77.7736540 147.2006490  66.4044840  76.9232980
 148.0036960  66.4328970  78.2063360 148.3130020  72.8272880  80.5018670
 147.6706180  72.1728500  80.7762390 147.9260680  73.2327970  79.7259340
 143.8916500  70.1558310  84.3490360 144.2440320  69.5586440  83.6891730
 143.0078830  69.8302540  84.5198610 139.9779780  70.9156000  81.7560770
 140.6650910  71.4625210  82.1368360 139.1912200  71.4596730  81.7910380
 139.2806990  67.9202030  81.3686130 139.7369770  68.7307280  81.5946320
 138.9295200  67.6025170  82.2004620 141.5839600  73.4308370  88.5978430
 142.2281820  73.6367750  89.2751850 141.9469040  72.6696770  88.1449280
 135.1818770  58.2639680  81.8408650 135.0533400  58.2557580  82.7893570
 134.3580790  58.6022770  81.4899660 142.8571680  71.4340720  87.3155880
 143.4993910  70.7333880  87.4288050 143.3821030  72.2139160  87.1352770
 146.7027400  71.7189340  77.0395020 146.4764980  71.0019780  77.6319660
 146.3123600  71.4701780  76.2016770 144.6309300  72.2335620  90.5191940
 144.9665540  72.8202310  91.1969860 143.7109640  72.1028330  90.7489730
 146.2843650  69.6361280  78.7009180 145.9965350  70.0973970  79.4887060
 147.0795820  69.1759050  78.9693400 132.4685290  74.0111060  92.2881880
 132.5776410  73.0705800  92.1477270 131.8165850  74.2765810  91.6395610
 140.4597880  72.2826950  93.6880000 140.1394750  71.5636190  94.2325690
 139.7856240  72.9582020  93.7616060 138.5012050  73.1287400  78.6313150
 138.4922150  73.8617090  78.0157660 137.5810410  72.8818980  78.7240110
 143.6751480  62.5153110  89.0516800 144.0432300  61.6948320  89.3796370
 142.8149680  62.5755000  89.4672450 147.0413510  61.4710050  79.8604360
 146.4126670  61.5755720  79.1462590 146.5465430  61.6906830  80.6498240
 141.4871650  73.1915640  77.2938340 141.5883630  72.9879630  76.3640320
 140.5873390  72.9373920  77.4986120 139.0097540  63.7496000  81.2762240
 138.3013690  64.2182340  81.7175850 139.2942020  63.0918010  81.9107430
 140.6353470  65.1692700  89.2754770 141.1338720  65.6438520  89.9406620
 140.7776420  64.2456220  89.4824800 143.0412970  60.4746660  82.7158030
 142.9180750  60.4932790  81.7667540 143.9897530  60.5225600  82.8356430
 140.1289760  75.7101960  81.9886010 140.3831260  75.6723350  81.0665380
 139.1802240  75.5835290  81.9814260 147.8420330  61.3860660  90.1183160
 147.3393930  62.1266060  90.4576970 148.6576990  61.7744660  89.8019950
 146.1342340  66.6293840  83.5644520 145.1932480  66.6444070  83.7392210
 146.4486410  65.8429800  84.0104820 134.8070740  65.7438510  77.8081370
 134.8874330  64.7966020  77.9198770 135.6990490  66.0745390  77.9142030
 135.6085450  75.8933900  84.9115910 136.3447930  75.3449360  85.1824480
 135.9926370  76.7589910  84.7721900 134.6143730  75.0779970  94.1001490
 135.4156460  75.3992020  94.5136890 134.0995550  74.7175550  94.8221400
 138.7187760  75.0664210  76.7341480 139.5116370  75.3553040  76.2823270
 138.1992110  74.6356380  76.0553960 143.4508360  71.1859840  94.0476900
 142.8446520  71.2091440  93.3072650 143.1462470  70.4542880  94.5844150
 144.8808730  74.9140130  92.6586310 145.8330480  74.8298150  92.6086550
 144.7336950  75.5781840  93.3320100 147.7717930  74.2934340  78.1578220
 147.4859440  73.8799480  77.3432400 147.5737480  75.2222050  78.0378740
 132.3341540  67.5653430  93.0437540 132.8380560  66.9860710  93.6153770
 131.5948960  67.8493660  93.5813910 139.2365160  70.2867620  76.5983830
 139.1315800  69.6719970  77.3245210 139.0689380  69.7633510  75.8146840
 139.3879480  68.9724420  92.5773060 138.6225150  69.5409420  92.4927730
 139.5695440  68.6800630  91.6841290 142.4767890  69.3487650  77.2025820
 141.9277990  69.7956950  77.8468560 143.0987150  68.8436900  77.7263490
 146.5302830  70.7029750  93.1348080 147.2712300  71.0405510  92.6315540
 145.7675510  70.8721810  92.5817850 134.3664620  65.7083020  93.9387610
 134.4069960  65.4096890  94.8472840 135.2210120  66.1090630  93.7795130
 136.3070430  64.2875120  91.9062100 135.7766890  63.7966070  91.2785440
 136.9758500  64.7159320  91.3720030 140.6570650  67.3316180  76.3468220
 141.1776310  66.6165200  75.9809370 141.3039050  67.9702050  76.6468730
 145.2048490  68.7544580  91.6703290 145.6189510  68.9089660  92.5193710
 144.2699490  68.8799800  91.8329070 145.6770660  66.0940740  93.6742440
 146.2591430  65.3393060  93.5862920 145.8532430  66.6248180  92.8973920
 136.7942730  61.2537490  91.9859390 136.6999600  60.6358240  91.2610260
 136.2140120  61.9803780  91.7589300 139.5604170  59.8110730  89.0186780
 139.1121470  59.8334990  88.1732330 138.9269370  59.4129750  89.6157080
 139.9663720  68.7065060  89.6399220 140.3851830  69.5497790  89.4675460
 139.0472350  68.8437100  89.4106000 142.3027620  66.4381240  91.0237060
 142.4223830  65.8422380  91.7631900 143.1621620  66.4750930  90.6038360
 144.6415520  66.9918430  89.5999570 144.1150740  67.5161050  88.9964710
 144.9846860  67.6245820  90.2309300 137.8171140  75.0118070  90.7556950
 137.2792230  75.7364130  90.4365650 138.0705100  74.5348410  89.9654290
 139.0696390  62.9802590  92.2812880 139.6596080  62.6718440  92.9690700
 138.2516630  62.5082340  92.4372780 143.8889820  62.5968400  92.5145900
 143.2005340  61.9349940  92.4495890 144.6095840  62.1506670  92.9594360
 144.5190220  59.1920030  78.5736160 144.7992510  58.3487930  78.9295580
 143.7455950  59.4243140  79.0874910 140.6733350  76.2469280  91.0143600
 140.5992050  77.1504420  91.3215970 139.7712190  75.9281180  90.9865670
 141.2218680  75.4127790  78.6369960 142.1169470  75.7512760  78.6588720
 141.2536310  74.6907200  78.0094240 132.0760640  73.5743870  84.3177220
 132.4063650  72.7064930  84.0855860 132.5051640  73.7802390  85.1482180
 132.5650850  74.4414460  87.0558850 132.1281840  74.6215260  87.8883000
 133.1328530  75.1989080  86.9140570 148.2013030  73.9431460  91.3436160
 147.6015020  74.0024020  90.6000080 148.3306930  73.0036440  91.4733010
 146.8864670  70.6683440  89.4412320 146.0724510  71.0980600  89.7038110
 147.2938870  71.2801850  88.8281370 145.3465720  61.7475980  77.6366220
 145.7650600  61.5606960  76.7962880 145.0401780  60.8955030  77.9469150
 133.4351210  67.3387260  87.9551070 133.8024250  67.2514660  88.8347090
 132.8662030  66.5753810  87.8557930 148.2355070  65.8071640  90.9681540
 148.0041160  65.5784390  90.0679490 148.4959620  66.7271190  90.9226430
 132.9867210  64.2496350  91.8609490 132.0923260  64.2163110  92.2003200
 133.5264760  64.4483140  92.6260740 146.6743140  61.0328070  93.7461240
 147.5513320  61.0411470  94.1295240 146.6863980  60.2958910  93.1353590
 148.2996130  64.9697480  88.1568810 147.3498840  64.9361020  88.2713800
 148.4809140  65.8797590  87.9218580 147.6106380  64.1430960  80.5741670
 148.1065500  63.9101830  81.3590550 147.4122450  63.3042800  80.1579310
 147.3859260  58.7186040  89.5662350 148.0231480  59.3320180  89.9321540
 147.5334150  58.7546700  88.6211580 146.9440720  75.4202040  82.9680590
 147.5399790  75.0986610  82.2915010 147.2018870  74.9473860  83.7593860
 134.8503290  71.8519950  93.1171220 134.8072920  71.4812860  93.9985680
 134.9814300  72.7897520  93.2573040 138.5509320  73.4079540  88.7180940
 138.3100680  73.6754100  87.8311460 139.4911960  73.5785270  88.7731800
 140.7563740  59.8712230  92.4737450 140.6952630  60.4634060  93.2232860
 141.6964120  59.7638190  92.3287710 143.3938300  59.5282290  92.1129740
 144.0078710  59.8461580  91.4510820 143.9387860  59.0430880  92.7325600
 134.6891320  74.7982200  90.2369000 134.0951640  74.6666900  90.9759040
 134.6815160  73.9620340  89.7711100 144.1346340  58.0914430  88.4399030
 143.2606180  58.4249540  88.2371960 144.0257090  57.6187610  89.2650900
 145.0418320  60.2985300  89.8240750 144.7131680  59.4837060  89.4442480
 145.9900620  60.2555110  89.7006440 147.4952930  76.0697340  86.7978320
 147.0355900  76.8213150  86.4236340 146.8665390  75.3503810  86.7393120
 134.3203550  72.1640580  89.1877040 133.5937610  71.5445870  89.1202990
 134.3812700  72.5581190  88.3175120 137.9248650  74.3785580  85.9726450
 138.4413670  73.7672940  85.4474710 138.5746030  74.8814360  86.4637460
 140.6644150  75.2694070  86.7995430 140.9521960  75.0148370  85.9228440
 141.1767370  74.7171430  87.3901000 141.8821160  59.0084270  87.3791940
 141.0992950  59.4829770  87.6588700 141.5884090  58.1039100  87.2705120
 146.4342230  59.7107370  85.4241030 146.8750320  59.6552470  84.5762630
 146.1649820  60.6265380  85.4951210 132.6033550  75.4814970  82.3973800
 132.4355590  74.8485650  83.0955690 131.7368060  75.6874370  82.0467990
 139.7675380  61.4271020  82.8907970 138.9549890  61.0527910  82.5503850
 140.2717020  60.6716100  83.1929160 144.2700360  58.0913470  84.1291040
 144.8729730  58.6633680  84.6039560 143.5293350  58.6552910  83.9064940
 147.4134960  58.4935030  79.4031320 147.6085590  59.3918480  79.6698750
 146.6264830  58.2622110  79.8964270 137.7924560  59.5770940  81.4953020
 137.1627300  58.8758250  81.6623150 137.2529700  60.3375070  81.2786180
 140.7316510  76.1910170  94.1663630 141.6583820  75.9554440  94.2099590
 140.7166940  77.0182170  93.6849660 137.9180120  58.8554920  93.9305510
 137.6364390  59.3588520  93.1666330 138.2999820  58.0576670  93.5647640
 136.8089220  76.1230580  78.7173190 137.5408040  75.8389860  78.1697080
 137.0682890  75.8843860  79.6072570 144.5195580  58.2708500  94.5085980
 144.4061030  58.5903110  95.4037500 145.3365320  58.6721010  94.2123260
 147.2994070  75.4180030  93.9904670 148.0919390  74.9229260  93.7830630
 147.5927220  76.0970170  94.5980280 143.4253730  66.2900970  64.8720720
 143.3447780  65.3755580  64.6012430 143.0118150  66.7868040  64.1660430
 141.5571770  68.0679990  66.7529990 140.7813870  67.5880430  67.0428560
 142.2084700  67.3885640  66.5786150 135.5737600  68.3799800  67.6305750
 134.7422480  68.1248510  68.0302260 136.1818580  68.4510570  68.3663670
 145.5779200  72.4740180  65.5329120 145.1160730  71.7027420  65.8616290
 146.3904750  72.5006250  66.0381570 135.5538860  72.4139890  67.8263770
 135.8566900  71.5237630  67.6473990 136.2982450  72.9710110  67.5986020
 133.9829550  63.3401690  61.4148140 133.0946250  63.6817660  61.3128020
 134.2670740  63.1402010  60.5228970 131.9462560  65.9407340  67.2987840
 132.5178670  65.1729540  67.2991480 131.9464100  66.2396100  66.3894450
 141.8042510  74.7598190  65.1533110 141.1853950  75.2155690  64.5827550
 142.6594290  74.9149650  64.7522810 140.9980760  70.7437180  66.7600150
 140.9289040  69.8027120  66.5989280 141.7600620  70.8338590  67.3322720
 133.1887430  61.3491700  69.0856770 133.0090270  60.4517450  69.3659530
 132.7867510  61.8963570  69.7603720 142.0285930  63.5507560  66.9869080
 142.4050750  62.6779440  66.8742750 141.9305440  63.8866260  66.0959520
 136.1590940  61.9233190  62.4486520 136.2657690  62.8236920  62.7555280
 135.2483300  61.8751160  62.1581170 145.8110050  61.0458000  63.9197420
 146.6319670  60.5554570  63.9622900 145.8444130  61.6355660  64.6729260
 133.8074100  63.8452200  67.6939110 134.4884210  64.1090570  68.3126510
 133.4922150  63.0053070  68.0277120 137.9998670  64.8919560  66.7811700
 138.5076890  65.3900530  67.4216720 138.5311910  64.1154760  66.6051060
 136.2834770  59.5318120  71.0475120 136.2853210  60.0490510  70.2421020
 135.4539080  59.0548300  71.0245050 142.6705860  69.6437430  62.5465020
 142.0523130  70.1086880  61.9827740 143.1829110  70.3364910  62.9634530
 137.5337620  69.1713300  69.2248620 137.2007000  69.7982220  69.8669690
 137.7104300  69.6975180  68.4450290 146.0471530  62.9858380  66.6924960
 145.3427100  63.2743270  67.2728070 146.4083690  63.7958490  66.3324520
 135.9650100  61.2428080  69.0545570 136.3066910  62.0870130  68.7599440
 135.0265910  61.3911820  69.1710910 136.7456720  71.1394100  71.0397800
 137.3630720  71.8145180  70.7582250 135.8849840  71.5482080  70.9485300
 132.0389060  70.3293960  59.9204650 131.6617040  70.8181060  59.1889550
 132.2962130  71.0019240  60.5511180 147.6634310  72.6033510  68.9552440
 146.9797830  73.2732620  68.9469110 148.2028600  72.8014160  68.1897300
 139.6477990  58.7310350  65.3790160 139.9552970  58.1757240  64.6625660
 138.7178690  58.8654810  65.1963150 145.1993050  74.4477640  67.6697620
 145.2120210  74.0439930  66.8019880 144.6468270  75.2224930  67.5659050
 146.4938470  71.1693860  62.7587790 146.3834800  70.2268190  62.8837210
 146.4906720  71.5309500  63.6450550 144.5978490  69.3507480  68.9980230
 145.0147280  69.1367590  68.1633690 145.3218310  69.6080270  69.5688850
 142.0358750  66.7959180  62.1150280 141.1088030  66.7296560  62.3438750
 142.1883570  67.7339310  62.0005520 142.0227830  63.0676180  59.1117440
 141.0831500  63.2290140  59.1969900 142.3411090  63.7861860  58.5653430
 146.0656040  68.3579480  62.6185530 145.4468460  68.0199030  61.9711830
 146.0480490  67.7139240  63.3264720 145.5082600  64.5364020  70.0351340
 145.0953780  65.3617730  70.2891330 144.7758550  63.9509060  69.8427700
 137.6415390  67.3223920  64.8970010 137.2372390  66.6101170  64.4015910
 137.7278510  66.9777160  65.7858050 138.1097090  71.0091480  67.0609220
 137.8125380  70.4036950  66.3817000 139.0596910  71.0468790  66.9498580
 136.3544010  64.0967130  68.6769050 136.9058600  64.2062470  67.9022300
 136.8687520  64.4704730  69.3924280 146.1982700  74.5823350  70.7232320
 145.7213260  75.3895540  70.5304930 145.5144490  73.9301680  70.8758530
 144.2420740  67.5966290  59.6258280 144.6814020  66.7588720  59.4796100
 144.9549160  68.2295690  59.7122420 136.0286740  67.6186490  72.2874390
 135.8894510  68.4909290  72.6561790 135.1468100  67.2759300  72.1422330
 142.3516120  72.5362360  63.5939520 142.7912030  73.2786690  63.1794910
 142.2903010  72.7788930  64.5178480 137.8267090  73.5608190  74.4959540
 137.7982520  73.9651140  73.6287970 137.6632060  72.6318550  74.3331140
 147.8237880  58.8509100  57.9399320 147.5110540  58.9435930  58.8398390
 148.5850350  59.4290130  57.8896750 134.3420020  66.2168900  62.3976660
 134.2217620  66.9430990  61.7857930 134.0320910  65.4471810  61.9204570
 133.2253020  71.0884230  64.6151480 132.8181100  71.2298820  63.7605080
 134.1166030  70.8044390  64.4122690 143.0431900  75.2376140  71.5218530
 143.5576570  75.1484150  72.3240960 142.2000980  75.5835840  71.8146440
 145.0186300  75.5231480  60.9502530 144.8587440  75.2334420  61.8484360
 144.8533010  74.7471610  60.4147760 137.4974680  75.3030010  62.7274150
 137.3217160  74.3865550  62.5141950 136.6430420  75.6617300  62.9671950
 144.7212430  73.0319040  59.5100530 144.0277590  73.0296330  58.8502810
 145.4635290  72.6078360  59.0794700 144.2862360  74.6581750  63.5849020
 144.7419310  73.8771130  63.8987640 144.6254880  75.3688570  64.1290200
 132.0364910  70.4298210  70.7439760 132.1995950  69.9603570  69.9259130
 132.5017360  69.9221770  71.4088600 136.8083680  59.5603970  65.7800330
 136.3651830  60.3413510  65.4484850 137.3668670  59.8833860  66.4871270
 141.0953490  62.4272490  71.3835650 140.6332860  62.6355510  72.1955590
 140.6931600  61.6131840  71.0806320 146.0958000  63.6481440  72.5132310
 145.2451590  63.3487190  72.8341380 145.9359790  63.8923450  71.6016130
 143.1907710  65.1483190  74.6131100 143.5161120  64.3146940  74.2733330
 143.9788040  65.6711710  74.7609430 139.9242500  59.1814670  60.6606160
 139.2996680  59.1774540  61.3859470 139.8372620  58.3145630  60.2642130
 138.8459580  60.1051300  67.6389930 139.1431910  61.0114130  67.5581950
 139.3945140  59.6170080  67.0249500 136.5997900  64.6837540  63.5081580
 136.3738820  64.4674710  64.4128200 135.8190430  65.1166000  63.1627550
 143.8295660  64.6900910  62.1072230 143.2304550  65.4136710  61.9235850
 144.3775270  64.6277690  61.3248680 139.0397110  65.5823120  74.1741850
 138.9440710  64.6417850  74.0242250 139.8829090  65.8038190  73.7789920
 142.4360530  63.3264450  64.1375510 142.8290100  63.6436650  63.3244200
 142.7977380  62.4476330  64.2520030 140.7452700  62.0771760  75.3972370
 140.0551020  61.8843960  76.0318460 141.4885000  62.3606400  75.9296670
 131.4724700  59.9165250  66.3605710 131.1837750  60.4868110  67.0730690
 132.2170460  59.4369700  66.7236940 143.0215670  65.9170200  68.2326290
 142.2896790  66.4257010  68.5816390 142.6240010  65.1000180  67.9315070
 139.4593060  62.5924400  66.6378780 139.4629120  62.1514350  65.7883320
 140.3544180  62.9141730  66.7450600 135.3095440  62.4750890  65.5972990
 134.9695490  62.9526120  66.3540040 134.5472760  62.0216010  65.2374090
 139.5213210  63.5936480  59.6285540 139.6426030  63.5522960  60.5771360
 139.1361720  64.4560630  59.4732270 143.4841580  61.3703880  67.6449230
 143.5014320  61.8212530  68.4891080 143.2357160  60.4709520  67.8582670
 138.5334710  65.9037620  59.0268840 137.9651610  65.4555870  58.4004750
 139.2423710  66.2630400  58.4933990 146.9112330  58.7836060  73.4835610
 147.2358100  58.0525720  74.0093590 146.9468840  58.4649700  72.5816600
 139.7601030  66.6526180  68.3844190 140.1271160  66.1784750  69.1305530
 139.5706090  67.5267750  68.7252530 132.6241520  61.3969870  64.5137660
 132.3388440  61.0325540  65.3516280 132.5620380  60.6650330  63.9000800
 137.5500400  65.6934820  70.7028400 137.2457470  66.5726800  70.9278760
 138.5046860  65.7534610  70.7385840 136.0782190  69.8995810  61.2995250
 135.3044450  69.3593430  61.1393970 136.8076820  69.3802420  60.9613010
 146.8370170  68.8961170  67.0921640 147.5569290  69.3916460  66.7017750
 146.6351990  68.2179060  66.4475510 142.2980110  60.2899130  61.2351030
 141.4844720  59.7912300  61.1596340 142.1042060  61.1297380  60.8187380
 142.2188970  68.9670230  72.9790640 142.1526280  68.0465900  72.7248230
 141.5894110  69.0645670  73.6935280 145.0128500  64.6618780  59.5313190
 145.9008120  64.9736010  59.3564530 144.9833590  63.7891030  59.1393770
 136.1219590  69.5676190  64.9374060 136.6398260  68.7644450  64.8830950
 135.6703610  69.5055330  65.7790890 141.0089090  70.8342470  60.2101360
 141.3504790  71.5784700  59.7144680 140.1801800  71.1473590  60.5726190
 133.6064130  66.5337560  71.8499760 133.2479070  67.1991410  72.4373100
 133.3118690  65.7021110  72.2212380 136.8077250  66.9921800  74.7339310
 136.5077390  67.1378980  73.8367130 137.5788490  66.4327090  74.6412700
 142.1505700  71.7890800  72.7294440 142.1650240  70.8571760  72.5113350
 141.4430800  71.8750560  73.3684210 147.2842770  65.9730620  58.9993050
 147.2006490  66.4044840  58.1489490 148.0036960  66.4328970  59.4319870
 148.3130020  72.8272880  61.7275180 147.6706180  72.1728500  62.0018900
 147.9260680  73.2327970  60.9515850 143.8916500  70.1558310  65.5746870
 144.2440320  69.5586440  64.9148240 143.0078830  69.8302540  65.7455120
 139.9779780  70.9156000  62.9817280 140.6650910  71.4625210  63.3624870
 139.1912200  71.4596730  63.0166890 139.2806990  67.9202030  62.5942640
 139.7369770  68.7307280  62.8202830 138.9295200  67.6025170  63.4261130
 141.5839600  73.4308370  69.8234940 142.2281820  73.6367750  70.5008360
 141.9469040  72.6696770  69.3705790 135.1818770  58.2639680  63.0665160
 135.0533400  58.2557580  64.0150080 134.3580790  58.6022770  62.7156170
 142.8571680  71.4340720  68.5412390 143.4993910  70.7333880  68.6544560
 143.3821030  72.2139160  68.3609280 146.7027400  71.7189340  58.2651530
 146.4764980  71.0019780  58.8576170 146.3123600  71.4701780  57.4273280
 144.6309300  72.2335620  71.7448450 144.9665540  72.8202310  72.4226370
 143.7109640  72.1028330  71.9746240 132.4843430  75.7456200  59.0395990
 132.8441070  76.3445540  58.3853260 132.3435770  76.2916090  59.8131020
 132.1812700  60.0230800  72.5271860 131.4671220  60.2227720  73.1324470
 132.6007740  59.2470370  72.8986660 146.2843650  69.6361280  59.9265690
 145.9965350  70.0973970  60.7143570 147.0795820  69.1759050  60.1949910
 140.4597880  72.2826950  74.9136510 140.1394750  71.5636190  75.4582200
 139.7856240  72.9582020  74.9872570 138.5012050  73.1287400  59.8569660
 138.4922150  73.8617090  59.2414170 137.5810410  72.8818980  59.9496620
 134.1018690  68.3502290  60.6016420 133.4946640  69.0901190  60.6111720
 134.5768040  68.4401650  59.7754620 143.6751480  62.5153110  70.2773310
 144.0432300  61.6948320  70.6052880 142.8149680  62.5755000  70.6928960
 147.0413510  61.4710050  61.0860870 146.4126670  61.5755720  60.3719100
 146.5465430  61.6906830  61.8754750 141.4871650  73.1915640  58.5194850
 141.5883630  72.9879630  57.5896830 140.5873390  72.9373920  58.7242630
 139.0097540  63.7496000  62.5018750 138.3013690  64.2182340  62.9432360
 139.2942020  63.0918010  63.1363940 140.6353470  65.1692700  70.5011280
 141.1338720  65.6438520  71.1663130 140.7776420  64.2456220  70.7081310
 143.0412970  60.4746660  63.9414540 142.9180750  60.4932790  62.9924050
 143.9897530  60.5225600  64.0612940 140.1289760  75.7101960  63.2142520
 140.3831260  75.6723350  62.2921890 139.1802240  75.5835290  63.2070770
 137.2132560  62.0581080  59.8769460 138.0623090  62.4951230  59.8109650
 136.8463830  62.3701340  60.7041520 147.8420330  61.3860660  71.3439670
 147.3393930  62.1266060  71.6833480 148.6576990  61.7744660  71.0276460
 146.1342340  66.6293840  64.7901030 145.1932480  66.6444070  64.9648720
 146.4486410  65.8429800  65.2361330 136.1123980  68.3113440  58.3504990
 136.8787250  68.1994800  58.9130420 136.1898670  67.6151410  57.6981760
 135.6085450  75.8933900  66.1372420 136.3447930  75.3449360  66.4080990
 135.9926370  76.7589910  65.9978410 132.4930930  71.9607470  62.0113930
 131.5670710  72.2028610  62.0019340 132.9587360  72.7881730  61.8898680
 138.7187760  75.0664210  57.9597990 139.5116370  75.3553040  57.5079780
 138.1992110  74.6356380  57.2810470 143.4508360  71.1859840  75.2733410
 142.8446520  71.2091440  74.5329160 143.1462470  70.4542880  75.8100660
 144.8808730  74.9140130  73.8842820 145.8330480  74.8298150  73.8343060
 144.7336950  75.5781840  74.5576610 147.7717930  74.2934340  59.3834730
 147.4859440  73.8799480  58.5688910 147.5737480  75.2222050  59.2635250
 132.3341540  67.5653430  74.2694050 132.8380560  66.9860710  74.8410280
 131.5948960  67.8493660  74.8070420 139.2365160  70.2867620  57.8240340
 139.1315800  69.6719970  58.5501720 139.0689380  69.7633510  57.0403350
 139.3879480  68.9724420  73.8029570 138.6225150  69.5409420  73.7184240
 139.5695440  68.6800630  72.9097800 142.4767890  69.3487650  58.4282330
 141.9277990  69.7956950  59.0725070 143.0987150  68.8436900  58.9520000
 146.5302830  70.7029750  74.3604590 147.2712300  71.0405510  73.8572050
 145.7675510  70.8721810  73.8074360 138.1443010  68.3078570  60.3247630
 138.5659430  68.1418440  61.1679020 138.2693850  67.4978800  59.8302770
 140.6570650  67.3316180  57.5724730 141.1776310  66.6165200  57.2065880
 141.3039050  67.9702050  57.8725240 145.2048490  68.7544580  72.8959800
 145.6189510  68.9089660  73.7450220 144.2699490  68.8799800  73.0585580
 145.6770660  66.0940740  74.8998950 146.2591430  65.3393060  74.8119430
 145.8532430  66.6248180  74.1230430 139.5604170  59.8110730  70.2443290
 139.1121470  59.8334990  69.3988840 138.9269370  59.4129750  70.8413590
 139.9663720  68.7065060  70.8655730 140.3851830  69.5497790  70.6931970
 139.0472350  68.8437100  70.6362510 142.3027620  66.4381240  72.2493570
 142.4223830  65.8422380  72.9888410 143.1621620  66.4750930  71.8294870
 144.6415520  66.9918430  70.8256080 144.1150740  67.5161050  70.2221220
 144.9846860  67.6245820  71.4565810 137.8171140  75.0118070  71.9813460
 137.2792230  75.7364130  71.6622160 138.0705100  74.5348410  71.1910800
 139.0696390  62.9802590  73.5069390 139.6596080  62.6718440  74.1947210
 138.2516630  62.5082340  73.6629290 143.8889820  62.5968400  73.7402410
 143.2005340  61.9349940  73.6752400 144.6095840  62.1506670  74.1850870
 144.5190220  59.1920030  59.7992670 144.7992510  58.3487930  60.1552090
 143.7455950  59.4243140  60.3131420 140.6733350  76.2469280  72.2400110
 140.5992050  77.1504420  72.5472480 139.7712190  75.9281180  72.2122180
 139.0569640  60.4247040  58.2439870 138.7091640  59.7471030  57.6642320
 139.2582410  59.9636550  59.0583260 141.2218680  75.4127790  59.8626470
 142.1169470  75.7512760  59.8845230 141.2536310  74.6907200  59.2350750
 134.8614840  70.7854840  58.0913470 135.2989710  71.3284510  58.7471050
 135.3462570  69.9601790  58.1009810 132.0760640  73.5743870  65.5433730
 132.4063650  72.7064930  65.3112370 132.5051640  73.7802390  66.3738690
 136.6722560  71.9052880  63.2035700 136.3718100  71.7817850  64.1039610
 136.5660050  71.0461470  62.7951430 132.5650850  74.4414460  68.2815360
 132.1281840  74.6215260  69.1139510 133.1328530  75.1989080  68.1397080
 148.2013030  73.9431460  72.5692670 147.6015020  74.0024020  71.8256590
 148.3306930  73.0036440  72.6989520 132.3975280  66.9534690  64.6404240
 131.7424120  66.6846330  63.9963940 133.2353230  66.8439170  64.1906220
 146.8864670  70.6683440  70.6668830 146.0724510  71.0980600  70.9294620
 147.2938870  71.2801850  70.0537880 145.3465720  61.7475980  58.8622730
 145.7650600  61.5606960  58.0219390 145.0401780  60.8955030  59.1725660
 133.4351210  67.3387260  69.1807580 133.8024250  67.2514660  70.0603600
 132.8662030  66.5753810  69.0814440 148.2355070  65.8071640  72.1938050
 148.0041160  65.5784390  71.2936000 148.4959620  66.7271190  72.1482940
 132.9867210  64.2496350  73.0866000 132.0923260  64.2163110  73.4259710
 133.5264760  64.4483140  73.8517250 146.6743140  61.0328070  74.9717750
 147.5513320  61.0411470  75.3551750 146.6863980  60.2958910  74.3610100
 148.2996130  64.9697480  69.3825320 147.3498840  64.9361020  69.4970310
 148.4809140  65.8797590  69.1475090 133.8014730  59.2738490  57.5326600
 134.5242860  59.8147430  57.8507820 134.0739250  59.0001910  56.6568140
 147.6106380  64.1430960  61.7998180 148.1065500  63.9101830  62.5847060
 147.4122450  63.3042800  61.3835820 147.3859260  58.7186040  70.7918860
 148.0231480  59.3320180  71.1578050 147.5334150  58.7546700  69.8468090
 146.9440720  75.4202040  64.1937100 147.5399790  75.0986610  63.5171520
 147.2018870  74.9473860  64.9850370 138.5509320  73.4079540  69.9437450
 138.3100680  73.6754100  69.0567970 139.4911960  73.5785270  69.9988310
 140.7563740  59.8712230  73.6993960 140.6952630  60.4634060  74.4489370
 141.6964120  59.7638190  73.5544220 143.3938300  59.5282290  73.3386250
 144.0078710  59.8461580  72.6767330 143.9387860  59.0430880  73.9582110
 134.6891320  74.7982200  71.4625510 134.0951640  74.6666900  72.2015550
 134.6815160  73.9620340  70.9967610 144.1346340  58.0914430  69.6655540
 143.2606180  58.4249540  69.4628470 144.0257090  57.6187610  70.4907410
 145.0418320  60.2985300  71.0497260 144.7131680  59.4837060  70.6698990
 145.9900620  60.2555110  70.9262950 147.4952930  76.0697340  68.0234830
 147.0355900  76.8213150  67.6492850 146.8665390  75.3503810  67.9649630
 134.3203550  72.1640580  70.4133550 133.5937610  71.5445870  70.3459500
 134.3812700  72.5581190  69.5431630 137.9248650  74.3785580  67.1982960
 138.4413670  73.7672940  66.6731220 138.5746030  74.8814360  67.6893970
 140.6644150  75.2694070  68.0251940 140.9521960  75.0148370  67.1484950
 141.1767370  74.7171430  68.6157510 141.8821160  59.0084270  68.6048450
 141.0992950  59.4829770  68.8845210 141.5884090  58.1039100  68.4961630
 146.4342230  59.7107370  66.6497540 146.8750320  59.6552470  65.8019140
 146.1649820  60.6265380  66.7207720 132.6033550  75.4814970  63.6230310
 132.4355590  74.8485650  64.3212200 131.7368060  75.6874370  63.2724500
 133.2261570  59.3131750  61.1262170 133.9840930  59.4260630  60.5526200
 132.7638740  60.1500950  61.0805600 139.7675380  61.4271020  64.1164480
 138.9549890  61.0527910  63.7760360 140.2717020  60.6716100  64.4185670
 144.2700360  58.0913470  65.3547550 144.8729730  58.6633680  65.8296070
 143.5293350  58.6552910  65.1321450 147.4134960  58.4935030  60.6287830
 147.6085590  59.3918480  60.8955260 146.6264830  58.2622110  61.1220780
 134.2096250  74.1748200  61.0680450 133.6843870  74.5556230  60.3642410
 134.1340830  74.7998970  61.7890160 135.5986720  59.8395800  59.6664140
 136.1279480  59.0525600  59.5372090 136.2315040  60.5186990  59.8999670
 137.7924560  59.5770940  62.7209530 137.1627300  58.8758250  62.8879660
 137.2529700  60.3375070  62.5042690 140.7316510  76.1910170  75.3920140
 141.6583820  75.9554440  75.4356100 140.7166940  77.0182170  74.9106170
 136.8089220  76.1230580  59.9429700 137.5408040  75.8389860  59.3953590
 137.0682890  75.8843860  60.8329080 135.9704010  72.2395310  59.9476030
 135.3412890  72.7080410  60.4961860 136.0851840  71.3944530  60.3822220
 144.5195580  58.2708500  75.7342490 144.4061030  58.5903110  76.6294010
 145.3365320  58.6721010  75.4379770 147.2994070  75.4180030  75.2161180
 148.0919390  74.9229260  75.0087140 147.5927220  76.0970170  75.8236790
 143.4253730  66.2900970  46.0977230 143.3447780  65.3755580  45.8268940
 143.0118150  66.7868040  45.3916940 141.5571770  68.0679990  47.9786500
 140.7813870  67.5880430  48.2685070 142.2084700  67.3885640  47.8042660
 135.5737600  68.3799800  48.8562260 134.7422480  68.1248510  49.2558770
 136.1818580  68.4510570  49.5920180 145.5779200  72.4740180  46.7585630
 145.1160730  71.7027420  47.0872800 146.3904750  72.5006250  47.2638080
 135.5538860  72.4139890  49.0520280 135.8566900  71.5237630  48.8730500
 136.2982450  72.9710110  48.8242530 133.9829550  63.3401690  42.6404650
 133.0946250  63.6817660  42.5384530 134.2670740  63.1402010  41.7485480
 141.8042510  74.7598190  46.3789620 141.1853950  75.2155690  45.8084060
 142.6594290  74.9149650  45.9779320 140.9980760  70.7437180  47.9856660
 140.9289040  69.8027120  47.8245790 141.7600620  70.8338590  48.5579230
 142.0285930  63.5507560  48.2125590 142.4050750  62.6779440  48.0999260
 141.9305440  63.8866260  47.3216030 136.1590940  61.9233190  43.6743030
 136.2657690  62.8236920  43.9811790 135.2483300  61.8751160  43.3837680
 145.8110050  61.0458000  45.1453930 146.6319670  60.5554570  45.1879410
 145.8444130  61.6355660  45.8985770 133.8074100  63.8452200  48.9195620
 134.4884210  64.1090570  49.5383020 133.4922150  63.0053070  49.2533630
 137.9998670  64.8919560  48.0068210 138.5076890  65.3900530  48.6473230
 138.5311910  64.1154760  47.8307570 136.2834770  59.5318120  52.2731630
 136.2853210  60.0490510  51.4677530 135.4539080  59.0548300  52.2501560
 142.6705860  69.6437430  43.7721530 142.0523130  70.1086880  43.2084250
 143.1829110  70.3364910  44.1891040 137.5337620  69.1713300  50.4505130
 137.2007000  69.7982220  51.0926200 137.7104300  69.6975180  49.6706800
 146.0471530  62.9858380  47.9181470 145.3427100  63.2743270  48.4984580
 146.4083690  63.7958490  47.5581030 135.9650100  61.2428080  50.2802080
 136.3066910  62.0870130  49.9855950 135.0265910  61.3911820  50.3967420
 136.7456720  71.1394100  52.2654310 137.3630720  71.8145180  51.9838760
 135.8849840  71.5482080  52.1741810 132.0389060  70.3293960  41.1461160
 131.6617040  70.8181060  40.4146060 132.2962130  71.0019240  41.7767690
 147.6634310  72.6033510  50.1808950 146.9797830  73.2732620  50.1725620
 148.2028600  72.8014160  49.4153810 139.6477990  58.7310350  46.6046670
 139.9552970  58.1757240  45.8882170 138.7178690  58.8654810  46.4219660
 145.1993050  74.4477640  48.8954130 145.2120210  74.0439930  48.0276390
 144.6468270  75.2224930  48.7915560 146.4938470  71.1693860  43.9844300
 146.3834800  70.2268190  44.1093720 146.4906720  71.5309500  44.8707060
 144.5978490  69.3507480  50.2236740 145.0147280  69.1367590  49.3890200
 145.3218310  69.6080270  50.7945360 142.0358750  66.7959180  43.3406790
 141.1088030  66.7296560  43.5695260 142.1883570  67.7339310  43.2262030
 142.0227830  63.0676180  40.3373950 141.0831500  63.2290140  40.4226410
 142.3411090  63.7861860  39.7909940 146.0656040  68.3579480  43.8442040
 145.4468460  68.0199030  43.1968340 146.0480490  67.7139240  44.5521230
 145.5082600  64.5364020  51.2607850 145.0953780  65.3617730  51.5147840
 144.7758550  63.9509060  51.0684210 137.6415390  67.3223920  46.1226520
 137.2372390  66.6101170  45.6272420 137.7278510  66.9777160  47.0114560
 138.1097090  71.0091480  48.2865730 137.8125380  70.4036950  47.6073510
 139.0596910  71.0468790  48.1755090 136.3544010  64.0967130  49.9025560
 136.9058600  64.2062470  49.1278810 136.8687520  64.4704730  50.6180790
 146.1982700  74.5823350  51.9488830 145.7213260  75.3895540  51.7561440
 145.5144490  73.9301680  52.1015040 137.2015520  70.7473170  54.9373530
 136.3044050  70.9713140  55.1846930 137.2268390  70.8708110  53.9884930
 144.2420740  67.5966290  40.8514790 144.6814020  66.7588720  40.7052610
 144.9549160  68.2295690  40.9378930 136.0286740  67.6186490  53.5130900
 135.8894510  68.4909290  53.8818300 135.1468100  67.2759300  53.3678840
 142.3516120  72.5362360  44.8196030 142.7912030  73.2786690  44.4051420
 142.2903010  72.7788930  45.7434990 137.8267090  73.5608190  55.7216050
 137.7982520  73.9651140  54.8544480 137.6632060  72.6318550  55.5587650
 147.8237880  58.8509100  39.1655830 147.5110540  58.9435930  40.0654900
 148.5850350  59.4290130  39.1153260 134.3420020  66.2168900  43.6233170
 134.2217620  66.9430990  43.0114440 134.0320910  65.4471810  43.1461080
 131.9805390  69.3884040  49.4301810 132.0585810  69.5232810  48.4857530
 132.5947070  68.6799930  49.6229930 133.2253020  71.0884230  45.8407990
 132.8181100  71.2298820  44.9861590 134.1166030  70.8044390  45.6379200
 143.0431900  75.2376140  52.7475040 143.5576570  75.1484150  53.5497470
 142.2000980  75.5835840  53.0402950 145.0186300  75.5231480  42.1759040
 144.8587440  75.2334420  43.0740870 144.8533010  74.7471610  41.6404270
 137.4974680  75.3030010  43.9530660 137.3217160  74.3865550  43.7398460
 136.6430420  75.6617300  44.1928460 144.7212430  73.0319040  40.7357040
 144.0277590  73.0296330  40.0759320 145.4635290  72.6078360  40.3051210
 144.2862360  74.6581750  44.8105530 144.7419310  73.8771130  45.1244150
 144.6254880  75.3688570  45.3546710 132.0364910  70.4298210  51.9696270
 132.1995950  69.9603570  51.1515640 132.5017360  69.9221770  52.6345110
 136.8083680  59.5603970  47.0056840 136.3651830  60.3413510  46.6741360
 137.3668670  59.8833860  47.7127780 141.0953490  62.4272490  52.6092160
 140.6332860  62.6355510  53.4212100 140.6931600  61.6131840  52.3062830
 146.0958000  63.6481440  53.7388820 145.2451590  63.3487190  54.0597890
 145.9359790  63.8923450  52.8272640 143.1907710  65.1483190  55.8387610
 143.5161120  64.3146940  55.4989840 143.9788040  65.6711710  55.9865940
 139.9242500  59.1814670  41.8862670 139.2996680  59.1774540  42.6115980
 139.8372620  58.3145630  41.4898640 138.8459580  60.1051300  48.8646440
 139.1431910  61.0114130  48.7838460 139.3945140  59.6170080  48.2506010
 136.5997900  64.6837540  44.7338090 136.3738820  64.4674710  45.6384710
 135.8190430  65.1166000  44.3884060 143.8295660  64.6900910  43.3328740
 143.2304550  65.4136710  43.1492360 144.3775270  64.6277690  42.5505190
 139.0397110  65.5823120  55.3998360 138.9440710  64.6417850  55.2498760
 139.8829090  65.8038190  55.0046430 142.4360530  63.3264450  45.3632020
 142.8290100  63.6436650  44.5500710 142.7977380  62.4476330  45.4776540
 140.7452700  62.0771760  56.6228880 140.0551020  61.8843960  57.2574970
 141.4885000  62.3606400  57.1553180 131.6594930  63.8585370  38.7964940
 131.5769600  64.8016130  38.9379930 131.3077990  63.7160280  37.9177290
 143.0215670  65.9170200  49.4582800 142.2896790  66.4257010  49.8072900
 142.6240010  65.1000180  49.1571580 139.4593060  62.5924400  47.8635290
 139.4629120  62.1514350  47.0139830 140.3544180  62.9141730  47.9707110
 135.3095440  62.4750890  46.8229500 134.9695490  62.9526120  47.5796550
 134.5472760  62.0216010  46.4630600 139.5213210  63.5936480  40.8542050
 139.6426030  63.5522960  41.8027870 139.1361720  64.4560630  40.6988780
 143.4841580  61.3703880  48.8705740 143.5014320  61.8212530  49.7147590
 143.2357160  60.4709520  49.0839180 138.5334710  65.9037620  40.2525350
 137.9651610  65.4555870  39.6261260 139.2423710  66.2630400  39.7190500
 146.9112330  58.7836060  54.7092120 147.2358100  58.0525720  55.2350100
 146.9468840  58.4649700  53.8073110 133.6103890  69.8049640  54.1292080
 133.2258680  69.1643310  54.7275040 133.9216080  70.5085760  54.6986810
 139.7601030  66.6526180  49.6100700 140.1271160  66.1784750  50.3562040
 139.5706090  67.5267750  49.9509040 132.6241520  61.3969870  45.7394170
 132.3388440  61.0325540  46.5772790 132.5620380  60.6650330  45.1257310
 137.5500400  65.6934820  51.9284910 137.2457470  66.5726800  52.1535270
 138.5046860  65.7534610  51.9642350 136.0782190  69.8995810  42.5251760
 135.3044450  69.3593430  42.3650480 136.8076820  69.3802420  42.1869520
 146.8370170  68.8961170  48.3178150 147.5569290  69.3916460  47.9274260
 146.6351990  68.2179060  47.6732020 142.2980110  60.2899130  42.4607540
 141.4844720  59.7912300  42.3852850 142.1042060  61.1297380  42.0443890
 142.2188970  68.9670230  54.2047150 142.1526280  68.0465900  53.9504740
 141.5894110  69.0645670  54.9191790 145.0128500  64.6618780  40.7569700
 145.9008120  64.9736010  40.5821040 144.9833590  63.7891030  40.3650280
 136.1219590  69.5676190  46.1630570 136.6398260  68.7644450  46.1087460
 135.6703610  69.5055330  47.0047400 141.0089090  70.8342470  41.4357870
 141.3504790  71.5784700  40.9401190 140.1801800  71.1473590  41.7982700
 133.6064130  66.5337560  53.0756270 133.2479070  67.1991410  53.6629610
 133.3118690  65.7021110  53.4468890 136.8077250  66.9921800  55.9595820
 136.5077390  67.1378980  55.0623640 137.5788490  66.4327090  55.8669210
 142.1505700  71.7890800  53.9550950 142.1650240  70.8571760  53.7369860
 141.4430800  71.8750560  54.5940720 147.2842770  65.9730620  40.2249560
 147.2006490  66.4044840  39.3746000 148.0036960  66.4328970  40.6576380
 148.3130020  72.8272880  42.9531690 147.6706180  72.1728500  43.2275410
 147.9260680  73.2327970  42.1772360 143.8916500  70.1558310  46.8003380
 144.2440320  69.5586440  46.1404750 143.0078830  69.8302540  46.9711630
 139.9779780  70.9156000  44.2073790 140.6650910  71.4625210  44.5881380
 139.1912200  71.4596730  44.2423400 132.1172180  66.5328820  39.6990870
 132.9867030  66.8153620  39.9826790 131.6262500  67.3464690  39.5839680
 139.2806990  67.9202030  43.8199150 139.7369770  68.7307280  44.0459340
 138.9295200  67.6025170  44.6517640 141.5839600  73.4308370  51.0491450
 142.2281820  73.6367750  51.7264870 141.9469040  72.6696770  50.5962300
 135.1818770  58.2639680  44.2921670 135.0533400  58.2557580  45.2406590
 134.3580790  58.6022770  43.9412680 142.8571680  71.4340720  49.7668900
 143.4993910  70.7333880  49.8801070 143.3821030  72.2139160  49.5865790
 146.7027400  71.7189340  39.4908040 146.4764980  71.0019780  40.0832680
 146.3123600  71.4701780  38.6529790 144.6309300  72.2335620  52.9704960
 144.9665540  72.8202310  53.6482880 143.7109640  72.1028330  53.2002750
 132.4843430  75.7456200  40.2652500 132.8441070  76.3445540  39.6109770
 132.3435770  76.2916090  41.0387530 146.2843650  69.6361280  41.1522200
 145.9965350  70.0973970  41.9400080 147.0795820  69.1759050  41.4206420
 132.4685290  74.0111060  54.7394900 132.5776410  73.0705800  54.5990290
 131.8165850  74.2765810  54.0908630 140.4597880  72.2826950  56.1393020
 140.1394750  71.5636190  56.6838710 139.7856240  72.9582020  56.2129080
 138.5012050  73.1287400  41.0826170 138.4922150  73.8617090  40.4670680
 137.5810410  72.8818980  41.1753130 134.1018690  68.3502290  41.8272930
 133.4946640  69.0901190  41.8368230 134.5768040  68.4401650  41.0011130
 143.6751480  62.5153110  51.5029820 144.0432300  61.6948320  51.8309390
 142.8149680  62.5755000  51.9185470 147.0413510  61.4710050  42.3117380
 146.4126670  61.5755720  41.5975610 146.5465430  61.6906830  43.1011260
 141.4871650  73.1915640  39.7451360 141.5883630  72.9879630  38.8153340
 140.5873390  72.9373920  39.9499140 139.0097540  63.7496000  43.7275260
 138.3013690  64.2182340  44.1688870 139.2942020  63.0918010  44.3620450
 140.6353470  65.1692700  51.7267790 141.1338720  65.6438520  52.3919640
 140.7776420  64.2456220  51.9337820 143.0412970  60.4746660  45.1671050
 142.9180750  60.4932790  44.2180560 143.9897530  60.5225600  45.2869450
 140.1289760  75.7101960  44.4399030 140.3831260  75.6723350  43.5178400
 139.1802240  75.5835290  44.4327280 137.2132560  62.0581080  41.1025970
 138.0623090  62.4951230  41.0366160 136.8463830  62.3701340  41.9298030
 147.8420330  61.3860660  52.5696180 147.3393930  62.1266060  52.9089990
 148.6576990  61.7744660  52.2532970 146.1342340  66.6293840  46.0157540
 145.1932480  66.6444070  46.1905230 146.4486410  65.8429800  46.4617840
 136.1123980  68.3113440  39.5761500 136.8787250  68.1994800  40.1386930
 136.1898670  67.6151410  38.9238270 134.8070740  65.7438510  40.2594390
 134.8874330  64.7966020  40.3711790 135.6990490  66.0745390  40.3655050
 135.6085450  75.8933900  47.3628930 136.3447930  75.3449360  47.6337500
 135.9926370  76.7589910  47.2234920 132.4930930  71.9607470  43.2370440
 131.5670710  72.2028610  43.2275850 132.9587360  72.7881730  43.1155190
 134.6143730  75.0779970  56.5514510 135.4156460  75.3992020  56.9649910
 134.0995550  74.7175550  57.2734420 138.7187760  75.0664210  39.1854500
 139.5116370  75.3553040  38.7336290 138.1992110  74.6356380  38.5066980
 143.4508360  71.1859840  56.4989920 142.8446520  71.2091440  55.7585670
 143.1462470  70.4542880  57.0357170 144.8808730  74.9140130  55.1099330
 145.8330480  74.8298150  55.0599570 144.7336950  75.5781840  55.7833120
 147.7717930  74.2934340  40.6091240 147.4859440  73.8799480  39.7945420
 147.5737480  75.2222050  40.4891760 139.2365160  70.2867620  39.0496850
 139.1315800  69.6719970  39.7758230 139.0689380  69.7633510  38.2659860
 139.3879480  68.9724420  55.0286080 138.6225150  69.5409420  54.9440750
 139.5695440  68.6800630  54.1354310 142.4767890  69.3487650  39.6538840
 141.9277990  69.7956950  40.2981580 143.0987150  68.8436900  40.1776510
 146.5302830  70.7029750  55.5861100 147.2712300  71.0405510  55.0828560
 145.7675510  70.8721810  55.0330870 138.1443010  68.3078570  41.5504140
 138.5659430  68.1418440  42.3935530 138.2693850  67.4978800  41.0559280
 136.3070430  64.2875120  54.3575120 135.7766890  63.7966070  53.7298460
 136.9758500  64.7159320  53.8233050 140.6570650  67.3316180  38.7981240
 141.1776310  66.6165200  38.4322390 141.3039050  67.9702050  39.0981750
 145.2048490  68.7544580  54.1216310 145.6189510  68.9089660  54.9706730
 144.2699490  68.8799800  54.2842090 145.6770660  66.0940740  56.1255460
 146.2591430  65.3393060  56.0375940 145.8532430  66.6248180  55.3486940
 136.7942730  61.2537490  54.4372410 136.6999600  60.6358240  53.7123280
 136.2140120  61.9803780  54.2102320 139.5604170  59.8110730  51.4699800
 139.1121470  59.8334990  50.6245350 138.9269370  59.4129750  52.0670100
 139.9663720  68.7065060  52.0912240 140.3851830  69.5497790  51.9188480
 139.0472350  68.8437100  51.8619020 142.3027620  66.4381240  53.4750080
 142.4223830  65.8422380  54.2144920 143.1621620  66.4750930  53.0551380
 144.6415520  66.9918430  52.0512590 144.1150740  67.5161050  51.4477730
 144.9846860  67.6245820  52.6822320 137.0401910  64.3811800  38.4962300
 136.8390970  63.5179160  38.8575640 136.8693960  64.2945160  37.5583900
 137.8171140  75.0118070  53.2069970 137.2792230  75.7364130  52.8878670
 138.0705100  74.5348410  52.4167310 139.0696390  62.9802590  54.7325900
 139.6596080  62.6718440  55.4203720 138.2516630  62.5082340  54.8885800
 143.8889820  62.5968400  54.9658920 143.2005340  61.9349940  54.9008910
 144.6095840  62.1506670  55.4107380 144.5190220  59.1920030  41.0249180
 144.7992510  58.3487930  41.3808600 143.7455950  59.4243140  41.5387930
 135.8384710  61.4812420  38.4840180 136.1410610  61.4879850  37.5759330
 136.5779300  61.1310280  38.9807840 140.6733350  76.2469280  53.4656620
 140.5992050  77.1504420  53.7728990 139.7712190  75.9281180  53.4378690
 139.0569640  60.4247040  39.4696380 138.7091640  59.7471030  38.8898830
 139.2582410  59.9636550  40.2839770 141.2218680  75.4127790  41.0882980
 142.1169470  75.7512760  41.1101740 141.2536310  74.6907200  40.4607260
 134.8614840  70.7854840  39.3169980 135.2989710  71.3284510  39.9727560
 135.3462570  69.9601790  39.3266320 132.0760640  73.5743870  46.7690240
 132.4063650  72.7064930  46.5368880 132.5051640  73.7802390  47.5995200
 136.6722560  71.9052880  44.4292210 136.3718100  71.7817850  45.3296120
 136.5660050  71.0461470  44.0207940 132.5650850  74.4414460  49.5071870
 132.1281840  74.6215260  50.3396020 133.1328530  75.1989080  49.3653590
 148.2013030  73.9431460  53.7949180 147.6015020  74.0024020  53.0513100
 148.3306930  73.0036440  53.9246030 132.3975280  66.9534690  45.8660750
 131.7424120  66.6846330  45.2220450 133.2353230  66.8439170  45.4162730
 146.8864670  70.6683440  51.8925340 146.0724510  71.0980600  52.1551130
 147.2938870  71.2801850  51.2794390 145.3465720  61.7475980  40.0879240
 145.7650600  61.5606960  39.2475900 145.0401780  60.8955030  40.3982170
 133.4351210  67.3387260  50.4064090 133.8024250  67.2514660  51.2860110
 132.8662030  66.5753810  50.3070950 148.2355070  65.8071640  53.4194560
 148.0041160  65.5784390  52.5192510 148.4959620  66.7271190  53.3739450
 146.6743140  61.0328070  56.1974260 147.5513320  61.0411470  56.5808260
 146.6863980  60.2958910  55.5866610 131.6113360  64.1633620  41.8086080
 130.7077440  64.4263820  41.6337740 132.0953980  64.4344790  41.0286040
 148.2996130  64.9697480  50.6081830 147.3498840  64.9361020  50.7226820
 148.4809140  65.8797590  50.3731600 134.1540570  63.2199160  39.7180460
 134.8632270  62.7982380  39.2327740 133.4380510  63.2874390  39.0863810
 133.8014730  59.2738490  38.7583110 134.5242860  59.8147430  39.0764330
 134.0739250  59.0001910  37.8824650 147.6106380  64.1430960  43.0254690
 148.1065500  63.9101830  43.8103570 147.4122450  63.3042800  42.6092330
 133.4906920  58.5244680  48.6605730 134.1383110  57.9742060  48.2200890
 133.9108760  58.7787830  49.4821540 147.3859260  58.7186040  52.0175370
 148.0231480  59.3320180  52.3834560 147.5334150  58.7546700  51.0724600
 146.9440720  75.4202040  45.4193610 147.5399790  75.0986610  44.7428030
 147.2018870  74.9473860  46.2106880 133.2438920  58.6800350  51.4031050
 132.8953740  59.1364170  52.1689230 132.9126620  57.7857480  51.4853480
 134.8503290  71.8519950  55.5684240 134.8072920  71.4812860  56.4498700
 134.9814300  72.7897520  55.7086060 138.5509320  73.4079540  51.1693960
 138.3100680  73.6754100  50.2824480 139.4911960  73.5785270  51.2244820
 140.7563740  59.8712230  54.9250470 140.6952630  60.4634060  55.6745880
 141.6964120  59.7638190  54.7800730 143.3938300  59.5282290  54.5642760
 144.0078710  59.8461580  53.9023840 143.9387860  59.0430880  55.1838620
 133.9159560  58.2076550  54.6781820 134.4642550  58.0264600  53.9147930
 133.9814870  57.4170660  55.2138130 134.6891320  74.7982200  52.6882020
 134.0951640  74.6666900  53.4272060 134.6815160  73.9620340  52.2224120
 144.1346340  58.0914430  50.8912050 143.2606180  58.4249540  50.6884980
 144.0257090  57.6187610  51.7163920 145.0418320  60.2985300  52.2753770
 144.7131680  59.4837060  51.8955500 145.9900620  60.2555110  52.1519460
 147.4952930  76.0697340  49.2491340 147.0355900  76.8213150  48.8749360
 146.8665390  75.3503810  49.1906140 134.3203550  72.1640580  51.6390060
 133.5937610  71.5445870  51.5716010 134.3812700  72.5581190  50.7688140
 137.9248650  74.3785580  48.4239470 138.4413670  73.7672940  47.8987730
 138.5746030  74.8814360  48.9150480 140.6644150  75.2694070  49.2508450
 140.9521960  75.0148370  48.3741460 141.1767370  74.7171430  49.8414020
 141.8821160  59.0084270  49.8304960 141.0992950  59.4829770  50.1101720
 141.5884090  58.1039100  49.7218140 146.4342230  59.7107370  47.8754050
 146.8750320  59.6552470  47.0275650 146.1649820  60.6265380  47.9464230
 132.6033550  75.4814970  44.8486820 132.4355590  74.8485650  45.5468710
 131.7368060  75.6874370  44.4981010 133.2261570  59.3131750  42.3518680
 133.9840930  59.4260630  41.7782710 132.7638740  60.1500950  42.3062110
 139.7675380  61.4271020  45.3420990 138.9549890  61.0527910  45.0016870
 140.2717020  60.6716100  45.6442180 144.2700360  58.0913470  46.5804060
 144.8729730  58.6633680  47.0552580 143.5293350  58.6552910  46.3577960
 147.4134960  58.4935030  41.8544340 147.6085590  59.3918480  42.1211770
 146.6264830  58.2622110  42.3477290 134.2096250  74.1748200  42.2936960
 133.6843870  74.5556230  41.5898920 134.1340830  74.7998970  43.0146670
 135.5986720  59.8395800  40.8920650 136.1279480  59.0525600  40.7628600
 136.2315040  60.5186990  41.1256180 137.7924560  59.5770940  43.9466040
 137.1627300  58.8758250  44.1136170 137.2529700  60.3375070  43.7299200
 140.7316510  76.1910170  56.6176650 141.6583820  75.9554440  56.6612610
 140.7166940  77.0182170  56.1362680 137.9180120  58.8554920  56.3818530
 137.6364390  59.3588520  55.6179350 138.2999820  58.0576670  56.0160660
 136.8089220  76.1230580  41.1686210 137.5408040  75.8389860  40.6210100
 137.0682890  75.8843860  42.0585590 135.9704010  72.2395310  41.1732540
 135.3412890  72.7080410  41.7218370 136.0851840  71.3944530  41.6078730
 144.5195580  58.2708500  56.9599000 144.4061030  58.5903110  57.8550520
 145.3365320  58.6721010  56.6636280 147.2994070  75.4180030  56.4417690
 148.0919390  74.9229260  56.2343650 147.5927220  76.0970170  57.0493300
 143.4253730  66.2900970  27.3233740 143.3447780  65.3755580  27.0525450
 143.0118150  66.7868040  26.6173450 141.5571770  68.0679990  29.2043010
 140.7813870  67.5880430  29.4941580 142.2084700  67.3885640  29.0299170
 135.5737600  68.3799800  30.0818770 134.7422480  68.1248510  30.4815280
 136.1818580  68.4510570  30.8176690 145.5779200  72.4740180  27.9842140
 145.1160730  71.7027420  28.3129310 146.3904750  72.5006250  28.4894590
 135.5538860  72.4139890  30.2776790 135.8566900  71.5237630  30.0987010
 136.2982450  72.9710110  30.0499040 133.9829550  63.3401690  23.8661160
 133.0946250  63.6817660  23.7641040 134.2670740  63.1402010  22.9741990
 131.9462560  65.9407340  29.7500860 132.5178670  65.1729540  29.7504500
 131.9464100  66.2396100  28.8407470 141.8042510  74.7598190  27.6046130
 141.1853950  75.2155690  27.0340570 142.6594290  74.9149650  27.2035830
 140.9980760  70.7437180  29.2113170 140.9289040  69.8027120  29.0502300
 141.7600620  70.8338590  29.7835740 133.1887430  61.3491700  31.5369790
 133.0090270  60.4517450  31.8172550 132.7867510  61.8963570  32.2116740
 142.0285930  63.5507560  29.4382100 142.4050750  62.6779440  29.3255770
 141.9305440  63.8866260  28.5472540 136.1590940  61.9233190  24.8999540
 136.2657690  62.8236920  25.2068300 135.2483300  61.8751160  24.6094190
 145.8110050  61.0458000  26.3710440 146.6319670  60.5554570  26.4135920
 145.8444130  61.6355660  27.1242280 133.8074100  63.8452200  30.1452130
 134.4884210  64.1090570  30.7639530 133.4922150  63.0053070  30.4790140
 137.9998670  64.8919560  29.2324720 138.5076890  65.3900530  29.8729740
 138.5311910  64.1154760  29.0564080 136.2834770  59.5318120  33.4988140
 136.2853210  60.0490510  32.6934040 135.4539080  59.0548300  33.4758070
 142.6705860  69.6437430  24.9978040 142.0523130  70.1086880  24.4340760
 143.1829110  70.3364910  25.4147550 137.5337620  69.1713300  31.6761640
 137.2007000  69.7982220  32.3182710 137.7104300  69.6975180  30.8963310
 146.0471530  62.9858380  29.1437980 145.3427100  63.2743270  29.7241090
 146.4083690  63.7958490  28.7837540 135.9650100  61.2428080  31.5058590
 136.3066910  62.0870130  31.2112460 135.0265910  61.3911820  31.6223930
 136.7456720  71.1394100  33.4910820 137.3630720  71.8145180  33.2095270
 135.8849840  71.5482080  33.3998320 132.0389060  70.3293960  22.3717670
 131.6617040  70.8181060  21.6402570 132.2962130  71.0019240  23.0024200
 147.6634310  72.6033510  31.4065460 146.9797830  73.2732620  31.3982130
 148.2028600  72.8014160  30.6410320 139.6477990  58.7310350  27.8303180
 139.9552970  58.1757240  27.1138680 138.7178690  58.8654810  27.6476170
 145.1993050  74.4477640  30.1210640 145.2120210  74.0439930  29.2532900
 144.6468270  75.2224930  30.0172070 146.4938470  71.1693860  25.2100810
 146.3834800  70.2268190  25.3350230 146.4906720  71.5309500  26.0963570
 144.5978490  69.3507480  31.4493250 145.0147280  69.1367590  30.6146710
 145.3218310  69.6080270  32.0201870 142.0358750  66.7959180  24.5663300
 141.1088030  66.7296560  24.7951770 142.1883570  67.7339310  24.4518540
 142.0227830  63.0676180  21.5630460 141.0831500  63.2290140  21.6482920
 142.3411090  63.7861860  21.0166450 146.0656040  68.3579480  25.0698550
 145.4468460  68.0199030  24.4224850 146.0480490  67.7139240  25.7777740
 145.5082600  64.5364020  32.4864360 145.0953780  65.3617730  32.7404350
 144.7758550  63.9509060  32.2940720 137.6415390  67.3223920  27.3483030
 137.2372390  66.6101170  26.8528930 137.7278510  66.9777160  28.2371070
 138.1097090  71.0091480  29.5122240 137.8125380  70.4036950  28.8330020
 139.0596910  71.0468790  29.4011600 136.3544010  64.0967130  31.1282070
 136.9058600  64.2062470  30.3535320 136.8687520  64.4704730  31.8437300
 146.1982700  74.5823350  33.1745340 145.7213260  75.3895540  32.9817950
 145.5144490  73.9301680  33.3271550 137.2015520  70.7473170  36.1630040
 136.3044050  70.9713140  36.4103440 137.2268390  70.8708110  35.2141440
 144.2420740  67.5966290  22.0771300 144.6814020  66.7588720  21.9309120
 144.9549160  68.2295690  22.1635440 136.0286740  67.6186490  34.7387410
 135.8894510  68.4909290  35.1074810 135.1468100  67.2759300  34.5935350
 142.3516120  72.5362360  26.0452540 142.7912030  73.2786690  25.6307930
 142.2903010  72.7788930  26.9691500 137.8267090  73.5608190  36.9472560
 137.7982520  73.9651140  36.0800990 137.6632060  72.6318550  36.7844160
 147.8237880  58.8509100  20.3912340 147.5110540  58.9435930  21.2911410
 148.5850350  59.4290130  20.3409770 134.3420020  66.2168900  24.8489680
 134.2217620  66.9430990  24.2370950 134.0320910  65.4471810  24.3717590
 131.9805390  69.3884040  30.6558320 132.0585810  69.5232810  29.7114040
 132.5947070  68.6799930  30.8486440 133.2253020  71.0884230  27.0664500
 132.8181100  71.2298820  26.2118100 134.1166030  70.8044390  26.8635710
 143.0431900  75.2376140  33.9731550 143.5576570  75.1484150  34.7753980
 142.2000980  75.5835840  34.2659460 145.0186300  75.5231480  23.4015550
 144.8587440  75.2334420  24.2997380 144.8533010  74.7471610  22.8660780
 137.4974680  75.3030010  25.1787170 137.3217160  74.3865550  24.9654970
 136.6430420  75.6617300  25.4184970 144.7212430  73.0319040  21.9613550
 144.0277590  73.0296330  21.3015830 145.4635290  72.6078360  21.5307720
 144.2862360  74.6581750  26.0362040 144.7419310  73.8771130  26.3500660
 144.6254880  75.3688570  26.5803220 132.0364910  70.4298210  33.1952780
 132.1995950  69.9603570  32.3772150 132.5017360  69.9221770  33.8601620
 136.8083680  59.5603970  28.2313350 136.3651830  60.3413510  27.8997870
 137.3668670  59.8833860  28.9384290 141.0953490  62.4272490  33.8348670
 140.6332860  62.6355510  34.6468610 140.6931600  61.6131840  33.5319340
 146.0958000  63.6481440  34.9645330 145.2451590  63.3487190  35.2854400
 145.9359790  63.8923450  34.0529150 143.1907710  65.1483190  37.0644120
 143.5161120  64.3146940  36.7246350 143.9788040  65.6711710  37.2122450
 139.9242500  59.1814670  23.1119180 139.2996680  59.1774540  23.8372490
 139.8372620  58.3145630  22.7155150 138.8459580  60.1051300  30.0902950
 139.1431910  61.0114130  30.0094970 139.3945140  59.6170080  29.4762520
 136.5997900  64.6837540  25.9594600 136.3738820  64.4674710  26.8641220
 135.8190430  65.1166000  25.6140570 143.8295660  64.6900910  24.5585250
 143.2304550  65.4136710  24.3748870 144.3775270  64.6277690  23.7761700
 139.0397110  65.5823120  36.6254870 138.9440710  64.6417850  36.4755270
 139.8829090  65.8038190  36.2302940 142.4360530  63.3264450  26.5888530
 142.8290100  63.6436650  25.7757220 142.7977380  62.4476330  26.7033050
 134.1707650  61.9936790  34.7788650 133.7771040  62.8412000  34.9861430
 133.4826050  61.3563160  34.9697290 140.7452700  62.0771760  37.8485390
 140.0551020  61.8843960  38.4831480 141.4885000  62.3606400  38.3809690
 131.4724700  59.9165250  28.8118730 131.1837750  60.4868110  29.5243710
 132.2170460  59.4369700  29.1749960 131.6594930  63.8585370  20.0221450
 131.5769600  64.8016130  20.1636440 131.3077990  63.7160280  19.1433800
 143.0215670  65.9170200  30.6839310 142.2896790  66.4257010  31.0329410
 142.6240010  65.1000180  30.3828090 139.4593060  62.5924400  29.0891800
 139.4629120  62.1514350  28.2396340 140.3544180  62.9141730  29.1963620
 135.3095440  62.4750890  28.0486010 134.9695490  62.9526120  28.8053060
 134.5472760  62.0216010  27.6887110 139.5213210  63.5936480  22.0798560
 139.6426030  63.5522960  23.0284380 139.1361720  64.4560630  21.9245290
 143.4841580  61.3703880  30.0962250 143.5014320  61.8212530  30.9404100
 143.2357160  60.4709520  30.3095690 138.5334710  65.9037620  21.4781860
 137.9651610  65.4555870  20.8517770 139.2423710  66.2630400  20.9447010
 146.9112330  58.7836060  35.9348630 147.2358100  58.0525720  36.4606610
 146.9468840  58.4649700  35.0329620 133.6103890  69.8049640  35.3548590
 133.2258680  69.1643310  35.9531550 133.9216080  70.5085760  35.9243320
 139.7601030  66.6526180  30.8357210 140.1271160  66.1784750  31.5818550
 139.5706090  67.5267750  31.1765550 132.6241520  61.3969870  26.9650680
 132.3388440  61.0325540  27.8029300 132.5620380  60.6650330  26.3513820
 137.5500400  65.6934820  33.1541420 137.2457470  66.5726800  33.3791780
 138.5046860  65.7534610  33.1898860 136.0782190  69.8995810  23.7508270
 135.3044450  69.3593430  23.5906990 136.8076820  69.3802420  23.4126030
 146.8370170  68.8961170  29.5434660 147.5569290  69.3916460  29.1530770
 146.6351990  68.2179060  28.8988530 142.2980110  60.2899130  23.6864050
 141.4844720  59.7912300  23.6109360 142.1042060  61.1297380  23.2700400
 142.2188970  68.9670230  35.4303660 142.1526280  68.0465900  35.1761250
 141.5894110  69.0645670  36.1448300 145.0128500  64.6618780  21.9826210
 145.9008120  64.9736010  21.8077550 144.9833590  63.7891030  21.5906790
 136.1219590  69.5676190  27.3887080 136.6398260  68.7644450  27.3343970
 135.6703610  69.5055330  28.2303910 141.0089090  70.8342470  22.6614380
 141.3504790  71.5784700  22.1657700 140.1801800  71.1473590  23.0239210
 133.6064130  66.5337560  34.3012780 133.2479070  67.1991410  34.8886120
 133.3118690  65.7021110  34.6725400 136.8077250  66.9921800  37.1852330
 136.5077390  67.1378980  36.2880150 137.5788490  66.4327090  37.0925720
 142.1505700  71.7890800  35.1807460 142.1650240  70.8571760  34.9626370
 141.4430800  71.8750560  35.8197230 147.2842770  65.9730620  21.4506070
 147.2006490  66.4044840  20.6002510 148.0036960  66.4328970  21.8832890
 148.3130020  72.8272880  24.1788200 147.6706180  72.1728500  24.4531920
 147.9260680  73.2327970  23.4028870 143.8916500  70.1558310  28.0259890
 144.2440320  69.5586440  27.3661260 143.0078830  69.8302540  28.1968140
 139.9779780  70.9156000  25.4330300 140.6650910  71.4625210  25.8137890
 139.1912200  71.4596730  25.4679910 132.1172180  66.5328820  20.9247380
 132.9867030  66.8153620  21.2083300 131.6262500  67.3464690  20.8096190
 139.2806990  67.9202030  25.0455660 139.7369770  68.7307280  25.2715850
 138.9295200  67.6025170  25.8774150 141.5839600  73.4308370  32.2747960
 142.2281820  73.6367750  32.9521380 141.9469040  72.6696770  31.8218810
 135.1818770  58.2639680  25.5178180 135.0533400  58.2557580  26.4663100
 134.3580790  58.6022770  25.1669190 142.8571680  71.4340720  30.9925410
 143.4993910  70.7333880  31.1057580 143.3821030  72.2139160  30.8122300
 146.7027400  71.7189340  20.7164550 146.4764980  71.0019780  21.3089190
 146.3123600  71.4701780  19.8786300 144.6309300  72.2335620  34.1961470
 144.9665540  72.8202310  34.8739390 143.7109640  72.1028330  34.4259260
 132.4843430  75.7456200  21.4909010 132.8441070  76.3445540  20.8366280
 132.3435770  76.2916090  22.2644040 132.1812700  60.0230800  34.9784880
 131.4671220  60.2227720  35.5837490 132.6007740  59.2470370  35.3499680
 146.2843650  69.6361280  22.3778710 145.9965350  70.0973970  23.1656590
 147.0795820  69.1759050  22.6462930 132.4685290  74.0111060  35.9651410
 132.5776410  73.0705800  35.8246800 131.8165850  74.2765810  35.3165140
 140.4597880  72.2826950  37.3649530 140.1394750  71.5636190  37.9095220
 139.7856240  72.9582020  37.4385590 138.5012050  73.1287400  22.3082680
 138.4922150  73.8617090  21.6927190 137.5810410  72.8818980  22.4009640
 134.1018690  68.3502290  23.0529440 133.4946640  69.0901190  23.0624740
 134.5768040  68.4401650  22.2267640 143.6751480  62.5153110  32.7286330
 144.0432300  61.6948320  33.0565900 142.8149680  62.5755000  33.1441980
 147.0413510  61.4710050  23.5373890 146.4126670  61.5755720  22.8232120
 146.5465430  61.6906830  24.3267770 141.4871650  73.1915640  20.9707870
 141.5883630  72.9879630  20.0409850 140.5873390  72.9373920  21.1755650
 139.0097540  63.7496000  24.9531770 138.3013690  64.2182340  25.3945380
 139.2942020  63.0918010  25.5876960 140.6353470  65.1692700  32.9524300
 141.1338720  65.6438520  33.6176150 140.7776420  64.2456220  33.1594330
 143.0412970  60.4746660  26.3927560 142.9180750  60.4932790  25.4437070
 143.9897530  60.5225600  26.5125960 140.1289760  75.7101960  25.6655540
 140.3831260  75.6723350  24.7434910 139.1802240  75.5835290  25.6583790
 137.2132560  62.0581080  22.3282480 138.0623090  62.4951230  22.2622670
 136.8463830  62.3701340  23.1554540 147.8420330  61.3860660  33.7952690
 147.3393930  62.1266060  34.1346500 148.6576990  61.7744660  33.4789480
 146.1342340  66.6293840  27.2414050 145.1932480  66.6444070  27.4161740
 146.4486410  65.8429800  27.6874350 136.1123980  68.3113440  20.8018010
 136.8787250  68.1994800  21.3643440 136.1898670  67.6151410  20.1494780
 134.8070740  65.7438510  21.4850900 134.8874330  64.7966020  21.5968300
 135.6990490  66.0745390  21.5911560 135.6085450  75.8933900  28.5885440
 136.3447930  75.3449360  28.8594010 135.9926370  76.7589910  28.4491430
 132.4930930  71.9607470  24.4626950 131.5670710  72.2028610  24.4532360
 132.9587360  72.7881730  24.3411700 134.6143730  75.0779970  37.7771020
 135.4156460  75.3992020  38.1906420 134.0995550  74.7175550  38.4990930
 138.7187760  75.0664210  20.4111010 139.5116370  75.3553040  19.9592800
 138.1992110  74.6356380  19.7323490 143.4508360  71.1859840  37.7246430
 142.8446520  71.2091440  36.9842180 143.1462470  70.4542880  38.2613680
 144.8808730  74.9140130  36.3355840 145.8330480  74.8298150  36.2856080
 144.7336950  75.5781840  37.0089630 147.7717930  74.2934340  21.8347750
 147.4859440  73.8799480  21.0201930 147.5737480  75.2222050  21.7148270
 132.3341540  67.5653430  36.7207070 132.8380560  66.9860710  37.2923300
 131.5948960  67.8493660  37.2583440 139.2365160  70.2867620  20.2753360
 139.1315800  69.6719970  21.0014740 139.0689380  69.7633510  19.4916370
 139.3879480  68.9724420  36.2542590 138.6225150  69.5409420  36.1697260
 139.5695440  68.6800630  35.3610820 142.4767890  69.3487650  20.8795350
 141.9277990  69.7956950  21.5238090 143.0987150  68.8436900  21.4033020
 146.5302830  70.7029750  36.8117610 147.2712300  71.0405510  36.3085070
 145.7675510  70.8721810  36.2587380 134.3664620  65.7083020  37.6157140
 134.4069960  65.4096890  38.5242370 135.2210120  66.1090630  37.4564660
 138.1443010  68.3078570  22.7760650 138.5659430  68.1418440  23.6192040
 138.2693850  67.4978800  22.2815790 136.3070430  64.2875120  35.5831630
 135.7766890  63.7966070  34.9554970 136.9758500  64.7159320  35.0489560
 140.6570650  67.3316180  20.0237750 141.1776310  66.6165200  19.6578900
 141.3039050  67.9702050  20.3238260 145.2048490  68.7544580  35.3472820
 145.6189510  68.9089660  36.1963240 144.2699490  68.8799800  35.5098600
 145.6770660  66.0940740  37.3511970 146.2591430  65.3393060  37.2632450
 145.8532430  66.6248180  36.5743450 136.7942730  61.2537490  35.6628920
 136.6999600  60.6358240  34.9379790 136.2140120  61.9803780  35.4358830
 139.5604170  59.8110730  32.6956310 139.1121470  59.8334990  31.8501860
 138.9269370  59.4129750  33.2926610 139.9663720  68.7065060  33.3168750
 140.3851830  69.5497790  33.1444990 139.0472350  68.8437100  33.0875530
 142.3027620  66.4381240  34.7006590 142.4223830  65.8422380  35.4401430
 143.1621620  66.4750930  34.2807890 144.6415520  66.9918430  33.2769100
 144.1150740  67.5161050  32.6734240 144.9846860  67.6245820  33.9078830
 137.0401910  64.3811800  19.7218810 136.8390970  63.5179160  20.0832150
 136.8693960  64.2945160  18.7840410 137.8171140  75.0118070  34.4326480
 137.2792230  75.7364130  34.1135180 138.0705100  74.5348410  33.6423820
 139.0696390  62.9802590  35.9582410 139.6596080  62.6718440  36.6460230
 138.2516630  62.5082340  36.1142310 143.8889820  62.5968400  36.1915430
 143.2005340  61.9349940  36.1265420 144.6095840  62.1506670  36.6363890
 144.5190220  59.1920030  22.2505690 144.7992510  58.3487930  22.6065110
 143.7455950  59.4243140  22.7644440 135.8384710  61.4812420  19.7096690
 136.1410610  61.4879850  18.8015840 136.5779300  61.1310280  20.2064350
 140.6733350  76.2469280  34.6913130 140.5992050  77.1504420  34.9985500
 139.7712190  75.9281180  34.6635200 139.0569640  60.4247040  20.6952890
 138.7091640  59.7471030  20.1155340 139.2582410  59.9636550  21.5096280
 141.2218680  75.4127790  22.3139490 142.1169470  75.7512760  22.3358250
 141.2536310  74.6907200  21.6863770 134.8614840  70.7854840  20.5426490
 135.2989710  71.3284510  21.1984070 135.3462570  69.9601790  20.5522830
 132.0760640  73.5743870  27.9946750 132.4063650  72.7064930  27.7625390
 132.5051640  73.7802390  28.8251710 136.6722560  71.9052880  25.6548720
 136.3718100  71.7817850  26.5552630 136.5660050  71.0461470  25.2464450
 132.5650850  74.4414460  30.7328380 132.1281840  74.6215260  31.5652530
 133.1328530  75.1989080  30.5910100 148.2013030  73.9431460  35.0205690
 147.6015020  74.0024020  34.2769610 148.3306930  73.0036440  35.1502540
 132.3975280  66.9534690  27.0917260 131.7424120  66.6846330  26.4476960
 133.2353230  66.8439170  26.6419240 146.8864670  70.6683440  33.1181850
 146.0724510  71.0980600  33.3807640 147.2938870  71.2801850  32.5050900
 145.3465720  61.7475980  21.3135750 145.7650600  61.5606960  20.4732410
 145.0401780  60.8955030  21.6238680 133.4351210  67.3387260  31.6320600
 133.8024250  67.2514660  32.5116620 132.8662030  66.5753810  31.5327460
 148.2355070  65.8071640  34.6451070 148.0041160  65.5784390  33.7449020
 148.4959620  66.7271190  34.5995960 132.9867210  64.2496350  35.5379020
 132.0923260  64.2163110  35.8772730 133.5264760  64.4483140  36.3030270
 146.6743140  61.0328070  37.4230770 147.5513320  61.0411470  37.8064770
 146.6863980  60.2958910  36.8123120 131.6113360  64.1633620  23.0342590
 130.7077440  64.4263820  22.8594250 132.0953980  64.4344790  22.2542550
 148.2996130  64.9697480  31.8338340 147.3498840  64.9361020  31.9483330
 148.4809140  65.8797590  31.5988110 134.1540570  63.2199160  20.9436970
 134.8632270  62.7982380  20.4584250 133.4380510  63.2874390  20.3120320
 133.8014730  59.2738490  19.9839620 134.5242860  59.8147430  20.3020840
 134.0739250  59.0001910  19.1081160 147.6106380  64.1430960  24.2511200
 148.1065500  63.9101830  25.0360080 147.4122450  63.3042800  23.8348840
 133.4906920  58.5244680  29.8862240 134.1383110  57.9742060  29.4457400
 133.9108760  58.7787830  30.7078050 147.3859260  58.7186040  33.2431880
 148.0231480  59.3320180  33.6091070 147.5334150  58.7546700  32.2981110
 146.9440720  75.4202040  26.6450120 147.5399790  75.0986610  25.9684540
 147.2018870  74.9473860  27.4363390 133.2438920  58.6800350  32.6287560
 132.8953740  59.1364170  33.3945740 132.9126620  57.7857480  32.7109990
 134.8503290  71.8519950  36.7940750 134.8072920  71.4812860  37.6755210
 134.9814300  72.7897520  36.9342570 138.5509320  73.4079540  32.3950470
 138.3100680  73.6754100  31.5080990 139.4911960  73.5785270  32.4501330
 140.7563740  59.8712230  36.1506980 140.6952630  60.4634060  36.9002390
 141.6964120  59.7638190  36.0057240 143.3938300  59.5282290  35.7899270
 144.0078710  59.8461580  35.1280350 143.9387860  59.0430880  36.4095130
 133.9159560  58.2076550  35.9038330 134.4642550  58.0264600  35.1404440
 133.9814870  57.4170660  36.4394640 134.6891320  74.7982200  33.9138530
 134.0951640  74.6666900  34.6528570 134.6815160  73.9620340  33.4480630
 144.1346340  58.0914430  32.1168560 143.2606180  58.4249540  31.9141490
 144.0257090  57.6187610  32.9420430 145.0418320  60.2985300  33.5010280
 144.7131680  59.4837060  33.1212010 145.9900620  60.2555110  33.3775970
 147.4952930  76.0697340  30.4747850 147.0355900  76.8213150  30.1005870
 146.8665390  75.3503810  30.4162650 134.3203550  72.1640580  32.8646570
 133.5937610  71.5445870  32.7972520 134.3812700  72.5581190  31.9944650
 137.9248650  74.3785580  29.6495980 138.4413670  73.7672940  29.1244240
 138.5746030  74.8814360  30.1406990 140.6644150  75.2694070  30.4764960
 140.9521960  75.0148370  29.5997970 141.1767370  74.7171430  31.0670530
 141.8821160  59.0084270  31.0561470 141.0992950  59.4829770  31.3358230
 141.5884090  58.1039100  30.9474650 146.4342230  59.7107370  29.1010560
 146.8750320  59.6552470  28.2532160 146.1649820  60.6265380  29.1720740
 132.6033550  75.4814970  26.0743330 132.4355590  74.8485650  26.7725220
 131.7368060  75.6874370  25.7237520 133.2261570  59.3131750  23.5775190
 133.9840930  59.4260630  23.0039220 132.7638740  60.1500950  23.5318620
 139.7675380  61.4271020  26.5677500 138.9549890  61.0527910  26.2273380
 140.2717020  60.6716100  26.8698690 144.2700360  58.0913470  27.8060570
 144.8729730  58.6633680  28.2809090 143.5293350  58.6552910  27.5834470
 147.4134960  58.4935030  23.0800850 147.6085590  59.3918480  23.3468280
 146.6264830  58.2622110  23.5733800 134.2096250  74.1748200  23.5193470
 133.6843870  74.5556230  22.8155430 134.1340830  74.7998970  24.2403180
 135.5986720  59.8395800  22.1177160 136.1279480  59.0525600  21.9885110
 136.2315040  60.5186990  22.3512690 137.7924560  59.5770940  25.1722550
 137.1627300  58.8758250  25.3392680 137.2529700  60.3375070  24.9555710
 140.7316510  76.1910170  37.8433160 141.6583820  75.9554440  37.8869120
 140.7166940  77.0182170  37.3619190 137.9180120  58.8554920  37.6075040
 137.6364390  59.3588520  36.8435860 138.2999820  58.0576670  37.2417170
 136.8089220  76.1230580  22.3942720 137.5408040  75.8389860  21.8466610
 137.0682890  75.8843860  23.2842100 135.9704010  72.2395310  22.3989050
 135.3412890  72.7080410  22.9474880 136.0851840  71.3944530  22.8335240
 144.5195580  58.2708500  38.1855510 144.4061030  58.5903110  39.0807030
 145.3365320  58.6721010  37.8892790 147.2994070  75.4180030  37.6674200
 148.0919390  74.9229260  37.4600160 147.5927220  76.0970170  38.2749810
 143.4253730  66.2900970   8.5490250 143.3447780  65.3755580   8.2781960
 143.0118150  66.7868040   7.8429960 141.5571770  68.0679990  10.4299520
 140.7813870  67.5880430  10.7198090 142.2084700  67.3885640  10.2555680
 135.5737600  68.3799800  11.3075280 134.7422480  68.1248510  11.7071790
 136.1818580  68.4510570  12.0433200 145.5779200  72.4740180   9.2098650
 145.1160730  71.7027420   9.5385820 146.3904750  72.5006250   9.7151100
 135.5538860  72.4139890  11.5033300 135.8566900  71.5237630  11.3243520
 136.2982450  72.9710110  11.2755550 133.9829550  63.3401690   5.0917670
 133.0946250  63.6817660   4.9897550 134.2670740  63.1402010   4.1998500
 131.9462560  65.9407340  10.9757370 132.5178670  65.1729540  10.9761010
 131.9464100  66.2396100  10.0663980 141.8042510  74.7598190   8.8302640
 141.1853950  75.2155690   8.2597080 142.6594290  74.9149650   8.4292340
 140.9980760  70.7437180  10.4369680 140.9289040  69.8027120  10.2758810
 141.7600620  70.8338590  11.0092250 133.1887430  61.3491700  12.7626300
 133.0090270  60.4517450  13.0429060 132.7867510  61.8963570  13.4373250
 142.0285930  63.5507560  10.6638610 142.4050750  62.6779440  10.5512280
 141.9305440  63.8866260   9.7729050 136.1590940  61.9233190   6.1256050
 136.2657690  62.8236920   6.4324810 135.2483300  61.8751160   5.8350700
 145.8110050  61.0458000   7.5966950 146.6319670  60.5554570   7.6392430
 145.8444130  61.6355660   8.3498790 133.8074100  63.8452200  11.3708640
 134.4884210  64.1090570  11.9896040 133.4922150  63.0053070  11.7046650
 137.9998670  64.8919560  10.4581230 138.5076890  65.3900530  11.0986250
 138.5311910  64.1154760  10.2820590 136.2834770  59.5318120  14.7244650
 136.2853210  60.0490510  13.9190550 135.4539080  59.0548300  14.7014580
 142.6705860  69.6437430   6.2234550 142.0523130  70.1086880   5.6597270
 143.1829110  70.3364910   6.6404060 137.5337620  69.1713300  12.9018150
 137.2007000  69.7982220  13.5439220 137.7104300  69.6975180  12.1219820
 146.0471530  62.9858380  10.3694490 145.3427100  63.2743270  10.9497600
 146.4083690  63.7958490  10.0094050 135.9650100  61.2428080  12.7315100
 136.3066910  62.0870130  12.4368970 135.0265910  61.3911820  12.8480440
 136.7456720  71.1394100  14.7167330 137.3630720  71.8145180  14.4351780
 135.8849840  71.5482080  14.6254830 132.0389060  70.3293960   3.5974180
 131.6617040  70.8181060   2.8659080 132.2962130  71.0019240   4.2280710
 147.6634310  72.6033510  12.6321970 146.9797830  73.2732620  12.6238640
 148.2028600  72.8014160  11.8666830 139.6477990  58.7310350   9.0559690
 139.9552970  58.1757240   8.3395190 138.7178690  58.8654810   8.8732680
 145.1993050  74.4477640  11.3467150 145.2120210  74.0439930  10.4789410
 144.6468270  75.2224930  11.2428580 146.4938470  71.1693860   6.4357320
 146.3834800  70.2268190   6.5606740 146.4906720  71.5309500   7.3220080
 144.5978490  69.3507480  12.6749760 145.0147280  69.1367590  11.8403220
 145.3218310  69.6080270  13.2458380 142.0358750  66.7959180   5.7919810
 141.1088030  66.7296560   6.0208280 142.1883570  67.7339310   5.6775050
 142.0227830  63.0676180   2.7886970 141.0831500  63.2290140   2.8739430
 142.3411090  63.7861860   2.2422960 146.0656040  68.3579480   6.2955060
 145.4468460  68.0199030   5.6481360 146.0480490  67.7139240   7.0034250
 145.5082600  64.5364020  13.7120870 145.0953780  65.3617730  13.9660860
 144.7758550  63.9509060  13.5197230 137.6415390  67.3223920   8.5739540
 137.2372390  66.6101170   8.0785440 137.7278510  66.9777160   9.4627580
 138.1097090  71.0091480  10.7378750 137.8125380  70.4036950  10.0586530
 139.0596910  71.0468790  10.6268110 136.3544010  64.0967130  12.3538580
 136.9058600  64.2062470  11.5791830 136.8687520  64.4704730  13.0693810
 146.1982700  74.5823350  14.4001850 145.7213260  75.3895540  14.2074460
 145.5144490  73.9301680  14.5528060 137.2015520  70.7473170  17.3886550
 136.3044050  70.9713140  17.6359950 137.2268390  70.8708110  16.4397950
 144.2420740  67.5966290   3.3027810 144.6814020  66.7588720   3.1565630
 144.9549160  68.2295690   3.3891950 136.0286740  67.6186490  15.9643920
 135.8894510  68.4909290  16.3331320 135.1468100  67.2759300  15.8191860
 142.3516120  72.5362360   7.2709050 142.7912030  73.2786690   6.8564440
 142.2903010  72.7788930   8.1948010 137.8267090  73.5608190  18.1729070
 137.7982520  73.9651140  17.3057500 137.6632060  72.6318550  18.0100670
 134.3420020  66.2168900   6.0746190 134.2217620  66.9430990   5.4627460
 134.0320910  65.4471810   5.5974100 131.9805390  69.3884040  11.8814830
 132.0585810  69.5232810  10.9370550 132.5947070  68.6799930  12.0742950
 133.2253020  71.0884230   8.2921010 132.8181100  71.2298820   7.4374610
 134.1166030  70.8044390   8.0892220 143.0431900  75.2376140  15.1988060
 143.5576570  75.1484150  16.0010490 142.2000980  75.5835840  15.4915970
 145.0186300  75.5231480   4.6272060 144.8587440  75.2334420   5.5253890
 144.8533010  74.7471610   4.0917290 137.4974680  75.3030010   6.4043680
 137.3217160  74.3865550   6.1911480 136.6430420  75.6617300   6.6441480
 144.7212430  73.0319040   3.1870060 144.0277590  73.0296330   2.5272340
 145.4635290  72.6078360   2.7564230 144.2862360  74.6581750   7.2618550
 144.7419310  73.8771130   7.5757170 144.6254880  75.3688570   7.8059730
 132.0364910  70.4298210  14.4209290 132.1995950  69.9603570  13.6028660
 132.5017360  69.9221770  15.0858130 136.8083680  59.5603970   9.4569860
 136.3651830  60.3413510   9.1254380 137.3668670  59.8833860  10.1640800
 141.0953490  62.4272490  15.0605180 140.6332860  62.6355510  15.8725120
 140.6931600  61.6131840  14.7575850 146.0958000  63.6481440  16.1901840
 145.2451590  63.3487190  16.5110910 145.9359790  63.8923450  15.2785660
 143.1907710  65.1483190  18.2900630 143.5161120  64.3146940  17.9502860
 143.9788040  65.6711710  18.4378960 139.9242500  59.1814670   4.3375690
 139.2996680  59.1774540   5.0629000 139.8372620  58.3145630   3.9411660
 138.8459580  60.1051300  11.3159460 139.1431910  61.0114130  11.2351480
 139.3945140  59.6170080  10.7019030 136.5997900  64.6837540   7.1851110
 136.3738820  64.4674710   8.0897730 135.8190430  65.1166000   6.8397080
 143.8295660  64.6900910   5.7841760 143.2304550  65.4136710   5.6005380
 144.3775270  64.6277690   5.0018210 139.0397110  65.5823120  17.8511380
 138.9440710  64.6417850  17.7011780 139.8829090  65.8038190  17.4559450
 142.4360530  63.3264450   7.8145040 142.8290100  63.6436650   7.0013730
 142.7977380  62.4476330   7.9289560 134.1707650  61.9936790  16.0045160
 133.7771040  62.8412000  16.2117940 133.4826050  61.3563160  16.1953800
 140.7452700  62.0771760  19.0741900 140.0551020  61.8843960  19.7087990
 141.4885000  62.3606400  19.6066200 131.4724700  59.9165250  10.0375240
 131.1837750  60.4868110  10.7500220 132.2170460  59.4369700  10.4006470
 143.0215670  65.9170200  11.9095820 142.2896790  66.4257010  12.2585920
 142.6240010  65.1000180  11.6084600 139.4593060  62.5924400  10.3148310
 139.4629120  62.1514350   9.4652850 140.3544180  62.9141730  10.4220130
 135.3095440  62.4750890   9.2742520 134.9695490  62.9526120  10.0309570
 134.5472760  62.0216010   8.9143620 139.5213210  63.5936480   3.3055070
 139.6426030  63.5522960   4.2540890 139.1361720  64.4560630   3.1501800
 143.4841580  61.3703880  11.3218760 143.5014320  61.8212530  12.1660610
 143.2357160  60.4709520  11.5352200 138.5334710  65.9037620   2.7038370
 137.9651610  65.4555870   2.0774280 139.2423710  66.2630400   2.1703520
 146.9112330  58.7836060  17.1605140 147.2358100  58.0525720  17.6863120
 146.9468840  58.4649700  16.2586130 133.6103890  69.8049640  16.5805100
 133.2258680  69.1643310  17.1788060 133.9216080  70.5085760  17.1499830
 139.7601030  66.6526180  12.0613720 140.1271160  66.1784750  12.8075060
 139.5706090  67.5267750  12.4022060 132.6241520  61.3969870   8.1907190
 132.3388440  61.0325540   9.0285810 132.5620380  60.6650330   7.5770330
 137.5500400  65.6934820  14.3797930 137.2457470  66.5726800  14.6048290
 138.5046860  65.7534610  14.4155370 136.0782190  69.8995810   4.9764780
 135.3044450  69.3593430   4.8163500 136.8076820  69.3802420   4.6382540
 146.8370170  68.8961170  10.7691170 147.5569290  69.3916460  10.3787280
 146.6351990  68.2179060  10.1245040 142.2980110  60.2899130   4.9120560
 141.4844720  59.7912300   4.8365870 142.1042060  61.1297380   4.4956910
 142.2188970  68.9670230  16.6560170 142.1526280  68.0465900  16.4017760
 141.5894110  69.0645670  17.3704810 145.0128500  64.6618780   3.2082720
 145.9008120  64.9736010   3.0334060 144.9833590  63.7891030   2.8163300
 136.1219590  69.5676190   8.6143590 136.6398260  68.7644450   8.5600480
 135.6703610  69.5055330   9.4560420 141.0089090  70.8342470   3.8870890
 141.3504790  71.5784700   3.3914210 140.1801800  71.1473590   4.2495720
 133.6064130  66.5337560  15.5269290 133.2479070  67.1991410  16.1142630
 133.3118690  65.7021110  15.8981910 136.8077250  66.9921800  18.4108840
 136.5077390  67.1378980  17.5136660 137.5788490  66.4327090  18.3182230
 142.1505700  71.7890800  16.4063970 142.1650240  70.8571760  16.1882880
 141.4430800  71.8750560  17.0453740 147.2842770  65.9730620   2.6762580
 147.2006490  66.4044840   1.8259020 148.0036960  66.4328970   3.1089400
 148.3130020  72.8272880   5.4044710 147.6706180  72.1728500   5.6788430
 147.9260680  73.2327970   4.6285380 143.8916500  70.1558310   9.2516400
 144.2440320  69.5586440   8.5917770 143.0078830  69.8302540   9.4224650
 139.9779780  70.9156000   6.6586810 140.6650910  71.4625210   7.0394400
 139.1912200  71.4596730   6.6936420 132.1172180  66.5328820   2.1503890
 132.9867030  66.8153620   2.4339810 131.6262500  67.3464690   2.0352700
 139.2806990  67.9202030   6.2712170 139.7369770  68.7307280   6.4972360
 138.9295200  67.6025170   7.1030660 141.5839600  73.4308370  13.5004470
 142.2281820  73.6367750  14.1777890 141.9469040  72.6696770  13.0475320
 135.1818770  58.2639680   6.7434690 135.0533400  58.2557580   7.6919610
 134.3580790  58.6022770   6.3925700 142.8571680  71.4340720  12.2181920
 143.4993910  70.7333880  12.3314090 143.3821030  72.2139160  12.0378810
 144.6309300  72.2335620  15.4217980 144.9665540  72.8202310  16.0995900
 143.7109640  72.1028330  15.6515770 132.4843430  75.7456200   2.7165520
 132.8441070  76.3445540   2.0622790 132.3435770  76.2916090   3.4900550
 132.1812700  60.0230800  16.2041390 131.4671220  60.2227720  16.8094000
 132.6007740  59.2470370  16.5756190 146.2843650  69.6361280   3.6035220
 145.9965350  70.0973970   4.3913100 147.0795820  69.1759050   3.8719440
 132.4685290  74.0111060  17.1907920 132.5776410  73.0705800  17.0503310
 131.8165850  74.2765810  16.5421650 140.4597880  72.2826950  18.5906040
 140.1394750  71.5636190  19.1351730 139.7856240  72.9582020  18.6642100
 138.5012050  73.1287400   3.5339190 138.4922150  73.8617090   2.9183700
 137.5810410  72.8818980   3.6266150 134.1018690  68.3502290   4.2785950
 133.4946640  69.0901190   4.2881250 134.5768040  68.4401650   3.4524150
 143.6751480  62.5153110  13.9542840 144.0432300  61.6948320  14.2822410
 142.8149680  62.5755000  14.3698490 147.0413510  61.4710050   4.7630400
 146.4126670  61.5755720   4.0488630 146.5465430  61.6906830   5.5524280
 139.0097540  63.7496000   6.1788280 138.3013690  64.2182340   6.6201890
 139.2942020  63.0918010   6.8133470 140.6353470  65.1692700  14.1780810
 141.1338720  65.6438520  14.8432660 140.7776420  64.2456220  14.3850840
 143.0412970  60.4746660   7.6184070 142.9180750  60.4932790   6.6693580
 143.9897530  60.5225600   7.7382470 140.1289760  75.7101960   6.8912050
 140.3831260  75.6723350   5.9691420 139.1802240  75.5835290   6.8840300
 137.2132560  62.0581080   3.5538990 138.0623090  62.4951230   3.4879180
 136.8463830  62.3701340   4.3811050 147.8420330  61.3860660  15.0209200
 147.3393930  62.1266060  15.3603010 148.6576990  61.7744660  14.7045990
 146.1342340  66.6293840   8.4670560 145.1932480  66.6444070   8.6418250
 146.4486410  65.8429800   8.9130860 134.8070740  65.7438510   2.7107410
 134.8874330  64.7966020   2.8224810 135.6990490  66.0745390   2.8168070
 135.6085450  75.8933900   9.8141950 136.3447930  75.3449360  10.0850520
 135.9926370  76.7589910   9.6747940 132.4930930  71.9607470   5.6883460
 131.5670710  72.2028610   5.6788870 132.9587360  72.7881730   5.5668210
 134.6143730  75.0779970  19.0027530 135.4156460  75.3992020  19.4162930
 134.0995550  74.7175550  19.7247440 143.4508360  71.1859840  18.9502940
 142.8446520  71.2091440  18.2098690 143.1462470  70.4542880  19.4870190
 144.8808730  74.9140130  17.5612350 145.8330480  74.8298150  17.5112590
 144.7336950  75.5781840  18.2346140 147.7717930  74.2934340   3.0604260
 147.4859440  73.8799480   2.2458440 147.5737480  75.2222050   2.9404780
 132.3341540  67.5653430  17.9463580 132.8380560  66.9860710  18.5179810
 131.5948960  67.8493660  18.4839950 139.3879480  68.9724420  17.4799100
 138.6225150  69.5409420  17.3953770 139.5695440  68.6800630  16.5867330
 142.4767890  69.3487650   2.1051860 141.9277990  69.7956950   2.7494600
 143.0987150  68.8436900   2.6289530 146.5302830  70.7029750  18.0374120
 147.2712300  71.0405510  17.5341580 145.7675510  70.8721810  17.4843890
 134.3664620  65.7083020  18.8413650 134.4069960  65.4096890  19.7498880
 135.2210120  66.1090630  18.6821170 138.1443010  68.3078570   4.0017160
 138.5659430  68.1418440   4.8448550 138.2693850  67.4978800   3.5072300
 136.3070430  64.2875120  16.8088140 135.7766890  63.7966070  16.1811480
 136.9758500  64.7159320  16.2746070 145.2048490  68.7544580  16.5729330
 145.6189510  68.9089660  17.4219750 144.2699490  68.8799800  16.7355110
 145.6770660  66.0940740  18.5768480 146.2591430  65.3393060  18.4888960
 145.8532430  66.6248180  17.7999960 136.7942730  61.2537490  16.8885430
 136.6999600  60.6358240  16.1636300 136.2140120  61.9803780  16.6615340
 139.5604170  59.8110730  13.9212820 139.1121470  59.8334990  13.0758370
 138.9269370  59.4129750  14.5183120 139.9663720  68.7065060  14.5425260
 140.3851830  69.5497790  14.3701500 139.0472350  68.8437100  14.3132040
 142.3027620  66.4381240  15.9263100 142.4223830  65.8422380  16.6657940
 143.1621620  66.4750930  15.5064400 144.6415520  66.9918430  14.5025610
 144.1150740  67.5161050  13.8990750 144.9846860  67.6245820  15.1335340
 137.8171140  75.0118070  15.6582990 137.2792230  75.7364130  15.3391690
 138.0705100  74.5348410  14.8680330 139.0696390  62.9802590  17.1838920
 139.6596080  62.6718440  17.8716740 138.2516630  62.5082340  17.3398820
 143.8889820  62.5968400  17.4171940 143.2005340  61.9349940  17.3521930
 144.6095840  62.1506670  17.8620400 144.5190220  59.1920030   3.4762200
 144.7992510  58.3487930   3.8321620 143.7455950  59.4243140   3.9900950
 140.6733350  76.2469280  15.9169640 140.5992050  77.1504420  16.2242010
 139.7712190  75.9281180  15.8891710 141.2218680  75.4127790   3.5396000
 142.1169470  75.7512760   3.5614760 141.2536310  74.6907200   2.9120280
 134.8614840  70.7854840   1.7683000 135.2989710  71.3284510   2.4240580
 135.3462570  69.9601790   1.7779340 132.0760640  73.5743870   9.2203260
 132.4063650  72.7064930   8.9881900 132.5051640  73.7802390  10.0508220
 136.6722560  71.9052880   6.8805230 136.3718100  71.7817850   7.7809140
 136.5660050  71.0461470   6.4720960 132.5650850  74.4414460  11.9584890
 132.1281840  74.6215260  12.7909040 133.1328530  75.1989080  11.8166610
 148.2013030  73.9431460  16.2462200 147.6015020  74.0024020  15.5026120
 148.3306930  73.0036440  16.3759050 132.3975280  66.9534690   8.3173770
 131.7424120  66.6846330   7.6733470 133.2353230  66.8439170   7.8675750
 146.8864670  70.6683440  14.3438360 146.0724510  71.0980600  14.6064150
 147.2938870  71.2801850  13.7307410 145.3465720  61.7475980   2.5392260
 145.7650600  61.5606960   1.6988920 145.0401780  60.8955030   2.8495190
 133.4351210  67.3387260  12.8577110 133.8024250  67.2514660  13.7373130
 132.8662030  66.5753810  12.7583970 148.2355070  65.8071640  15.8707580
 148.0041160  65.5784390  14.9705530 148.4959620  66.7271190  15.8252470
 132.9867210  64.2496350  16.7635530 132.0923260  64.2163110  17.1029240
 133.5264760  64.4483140  17.5286780 146.6743140  61.0328070  18.6487280
 147.5513320  61.0411470  19.0321280 146.6863980  60.2958910  18.0379630
 131.6113360  64.1633620   4.2599100 130.7077440  64.4263820   4.0850760
 132.0953980  64.4344790   3.4799060 148.2996130  64.9697480  13.0594850
 147.3498840  64.9361020  13.1739840 148.4809140  65.8797590  12.8244620
 147.6106380  64.1430960   5.4767710 148.1065500  63.9101830   6.2616590
 147.4122450  63.3042800   5.0605350 133.4906920  58.5244680  11.1118750
 134.1383110  57.9742060  10.6713910 133.9108760  58.7787830  11.9334560
 147.3859260  58.7186040  14.4688390 148.0231480  59.3320180  14.8347580
 147.5334150  58.7546700  13.5237620 146.9440720  75.4202040   7.8706630
 147.5399790  75.0986610   7.1941050 147.2018870  74.9473860   8.6619900
 133.2438920  58.6800350  13.8544070 132.8953740  59.1364170  14.6202250
 132.9126620  57.7857480  13.9366500 134.8503290  71.8519950  18.0197260
 134.8072920  71.4812860  18.9011720 134.9814300  72.7897520  18.1599080
 138.5509320  73.4079540  13.6206980 138.3100680  73.6754100  12.7337500
 139.4911960  73.5785270  13.6757840 140.7563740  59.8712230  17.3763490
 140.6952630  60.4634060  18.1258900 141.6964120  59.7638190  17.2313750
 143.3938300  59.5282290  17.0155780 144.0078710  59.8461580  16.3536860
 143.9387860  59.0430880  17.6351640 133.9159560  58.2076550  17.1294840
 134.4642550  58.0264600  16.3660950 133.9814870  57.4170660  17.6651150
 134.6891320  74.7982200  15.1395040 134.0951640  74.6666900  15.8785080
 134.6815160  73.9620340  14.6737140 144.1346340  58.0914430  13.3425070
 143.2606180  58.4249540  13.1398000 144.0257090  57.6187610  14.1676940
 145.0418320  60.2985300  14.7266790 144.7131680  59.4837060  14.3468520
 145.9900620  60.2555110  14.6032480 147.4952930  76.0697340  11.7004360
 147.0355900  76.8213150  11.3262380 146.8665390  75.3503810  11.6419160
 134.3203550  72.1640580  14.0903080 133.5937610  71.5445870  14.0229030
 134.3812700  72.5581190  13.2201160 137.9248650  74.3785580  10.8752490
 138.4413670  73.7672940  10.3500750 138.5746030  74.8814360  11.3663500
 140.6644150  75.2694070  11.7021470 140.9521960  75.0148370  10.8254480
 141.1767370  74.7171430  12.2927040 141.8821160  59.0084270  12.2817980
 141.0992950  59.4829770  12.5614740 141.5884090  58.1039100  12.1731160
 146.4342230  59.7107370  10.3267070 146.8750320  59.6552470   9.4788670
 146.1649820  60.6265380  10.3977250 132.6033550  75.4814970   7.2999840
 132.4355590  74.8485650   7.9981730 131.7368060  75.6874370   6.9494030
 133.2261570  59.3131750   4.8031700 133.9840930  59.4260630   4.2295730
 132.7638740  60.1500950   4.7575130 139.7675380  61.4271020   7.7934010
 138.9549890  61.0527910   7.4529890 140.2717020  60.6716100   8.0955200
 144.2700360  58.0913470   9.0317080 144.8729730  58.6633680   9.5065600
 143.5293350  58.6552910   8.8090980 147.4134960  58.4935030   4.3057360
 147.6085590  59.3918480   4.5724790 146.6264830  58.2622110   4.7990310
 134.2096250  74.1748200   4.7449980 133.6843870  74.5556230   4.0411940
 134.1340830  74.7998970   5.4659690 135.5986720  59.8395800   3.3433670
 136.1279480  59.0525600   3.2141620 136.2315040  60.5186990   3.5769200
 137.7924560  59.5770940   6.3979060 137.1627300  58.8758250   6.5649190
 137.2529700  60.3375070   6.1812220 140.7316510  76.1910170  19.0689670
 141.6583820  75.9554440  19.1125630 140.7166940  77.0182170  18.5875700
 137.9180120  58.8554920  18.8331550 137.6364390  59.3588520  18.0692370
 138.2999820  58.0576670  18.4673680 136.8089220  76.1230580   3.6199230
 137.5408040  75.8389860   3.0723120 137.0682890  75.8843860   4.5098610
 135.9704010  72.2395310   3.6245560 135.3412890  72.7080410   4.1731390
 136.0851840  71.3944530   4.0591750 144.5195580  58.2708500  19.4112020
 144.4061030  58.5903110  20.3063540 145.3365320  58.6721010  19.1149300
 147.2994070  75.4180030  18.8930710 148.0919390  74.9229260  18.6856670
 147.5927220  76.0970170  19.5006320 143.4253730  47.5157480 139.9694680
 143.3447780  46.6012090 139.6986390 143.0118150  48.0124550 139.2634390
 141.5571770  49.2936500 141.8503950 140.7813870  48.8136940 142.1402520
 142.2084700  48.6142150 141.6760110 135.5737600  49.6056310 142.7279710
 134.7422480  49.3505020 143.1276220 136.1818580  49.6767080 143.4637630
 145.5779200  53.6996690 140.6303080 145.1160730  52.9283930 140.9590250
 146.3904750  53.7262760 141.1355530 135.5538860  53.6396400 142.9237730
 135.8566900  52.7494140 142.7447950 136.2982450  54.1966620 142.6959980
 133.9829550  44.5658200 136.5122100 133.0946250  44.9074170 136.4101980
 134.2670740  44.3658520 135.6202930 131.9462560  47.1663850 142.3961800
 132.5178670  46.3986050 142.3965440 131.9464100  47.4652610 141.4868410
 141.8042510  55.9854700 140.2507070 141.1853950  56.4412200 139.6801510
 142.6594290  56.1406160 139.8496770 140.9980760  51.9693690 141.8574110
 140.9289040  51.0283630 141.6963240 141.7600620  52.0595100 142.4296680
 133.1887430  42.5748210 144.1830730 133.0090270  41.6773960 144.4633490
 132.7867510  43.1220080 144.8577680 142.0285930  44.7764070 142.0843040
 142.4050750  43.9035950 141.9716710 141.9305440  45.1122770 141.1933480
 136.1590940  43.1489700 137.5460480 136.2657690  44.0493430 137.8529240
 135.2483300  43.1007670 137.2555130 145.8110050  42.2714510 139.0171380
 146.6319670  41.7811080 139.0596860 145.8444130  42.8612170 139.7703220
 133.8074100  45.0708710 142.7913070 134.4884210  45.3347080 143.4100470
 133.4922150  44.2309580 143.1251080 137.9998670  46.1176070 141.8785660
 138.5076890  46.6157040 142.5190680 138.5311910  45.3411270 141.7025020
 136.2834770  40.7574630 146.1449080 136.2853210  41.2747020 145.3394980
 135.4539080  40.2804810 146.1219010 142.6705860  50.8693940 137.6438980
 142.0523130  51.3343390 137.0801700 143.1829110  51.5621420 138.0608490
 137.5337620  50.3969810 144.3222580 137.2007000  51.0238730 144.9643650
 137.7104300  50.9231690 143.5424250 146.0471530  44.2114890 141.7898920
 145.3427100  44.4999780 142.3702030 146.4083690  45.0215000 141.4298480
 135.9650100  42.4684590 144.1519530 136.3066910  43.3126640 143.8573400
 135.0265910  42.6168330 144.2684870 136.7456720  52.3650610 146.1371760
 137.3630720  53.0401690 145.8556210 135.8849840  52.7738590 146.0459260
 132.0389060  51.5550470 135.0178610 131.6617040  52.0437570 134.2863510
 132.2962130  52.2275750 135.6485140 147.6634310  53.8290020 144.0526400
 146.9797830  54.4989130 144.0443070 148.2028600  54.0270670 143.2871260
 139.6477990  39.9566860 140.4764120 139.9552970  39.4013750 139.7599620
 138.7178690  40.0911320 140.2937110 145.1993050  55.6734150 142.7671580
 145.2120210  55.2696440 141.8993840 144.6468270  56.4481440 142.6633010
 146.4938470  52.3950370 137.8561750 146.3834800  51.4524700 137.9811170
 146.4906720  52.7566010 138.7424510 144.5978490  50.5763990 144.0954190
 145.0147280  50.3624100 143.2607650 145.3218310  50.8336780 144.6662810
 142.0358750  48.0215690 137.2124240 141.1088030  47.9553070 137.4412710
 142.1883570  48.9595820 137.0979480 142.0227830  44.2932690 134.2091400
 141.0831500  44.4546650 134.2943860 142.3411090  45.0118370 133.6627390
 146.0656040  49.5835990 137.7159490 145.4468460  49.2455540 137.0685790
 146.0480490  48.9395750 138.4238680 145.5082600  45.7620530 145.1325300
 145.0953780  46.5874240 145.3865290 144.7758550  45.1765570 144.9401660
 137.6415390  48.5480430 139.9943970 137.2372390  47.8357680 139.4989870
 137.7278510  48.2033670 140.8832010 138.1097090  52.2347990 142.1583180
 137.8125380  51.6293460 141.4790960 139.0596910  52.2725300 142.0472540
 136.3544010  45.3223640 143.7743010 136.9058600  45.4318980 142.9996260
 136.8687520  45.6961240 144.4898240 146.1982700  55.8079860 145.8206280
 145.7213260  56.6152050 145.6278890 145.5144490  55.1558190 145.9732490
 137.2015520  51.9729680 148.8090980 136.3044050  52.1969650 149.0564380
 137.2268390  52.0964620 147.8602380 144.2420740  48.8222800 134.7232240
 144.6814020  47.9845230 134.5770060 144.9549160  49.4552200 134.8096380
 136.0286740  48.8443000 147.3848350 135.8894510  49.7165800 147.7535750
 135.1468100  48.5015810 147.2396290 142.3516120  53.7618870 138.6913480
 142.7912030  54.5043200 138.2768870 142.2903010  54.0045440 139.6152440
 137.8267090  54.7864700 149.5933500 137.7982520  55.1907650 148.7261930
 137.6632060  53.8575060 149.4305100 147.8237880  40.0765610 133.0373280
 147.5110540  40.1692440 133.9372350 148.5850350  40.6546640 132.9870710
 134.3420020  47.4425410 137.4950620 134.2217620  48.1687500 136.8831890
 134.0320910  46.6728320 137.0178530 131.9805390  50.6140550 143.3019260
 132.0585810  50.7489320 142.3574980 132.5947070  49.9056440 143.4947380
 133.2253020  52.3140740 139.7125440 132.8181100  52.4555330 138.8579040
 134.1166030  52.0300900 139.5096650 143.0431900  56.4632650 146.6192490
 143.5576570  56.3740660 147.4214920 142.2000980  56.8092350 146.9120400
 145.0186300  56.7487990 136.0476490 144.8587440  56.4590930 136.9458320
 144.8533010  55.9728120 135.5121720 137.4974680  56.5286520 137.8248110
 137.3217160  55.6122060 137.6115910 136.6430420  56.8873810 138.0645910
 144.7212430  54.2575550 134.6074490 144.0277590  54.2552840 133.9476770
 145.4635290  53.8334870 134.1768660 144.2862360  55.8838260 138.6822980
 144.7419310  55.1027640 138.9961600 144.6254880  56.5945080 139.2264160
 132.0364910  51.6554720 145.8413720 132.1995950  51.1860080 145.0233090
 132.5017360  51.1478280 146.5062560 136.8083680  40.7860480 140.8774290
 136.3651830  41.5670020 140.5458810 137.3668670  41.1090370 141.5845230
 141.0953490  43.6529000 146.4809610 140.6332860  43.8612020 147.2929550
 140.6931600  42.8388350 146.1780280 146.0958000  44.8737950 147.6106270
 145.2451590  44.5743700 147.9315340 145.9359790  45.1179960 146.6990090
 143.1907710  46.3739700 149.7105060 143.5161120  45.5403450 149.3707290
 143.9788040  46.8968220 149.8583390 139.9242500  40.4071180 135.7580120
 139.2996680  40.4031050 136.4833430 139.8372620  39.5402140 135.3616090
 138.8459580  41.3307810 142.7363890 139.1431910  42.2370640 142.6555910
 139.3945140  40.8426590 142.1223460 136.5997900  45.9094050 138.6055540
 136.3738820  45.6931220 139.5102160 135.8190430  46.3422510 138.2601510
 143.8295660  45.9157420 137.2046190 143.2304550  46.6393220 137.0209810
 144.3775270  45.8534200 136.4222640 139.0397110  46.8079630 149.2715810
 138.9440710  45.8674360 149.1216210 139.8829090  47.0294700 148.8763880
 142.4360530  44.5520960 139.2349470 142.8290100  44.8693160 138.4218160
 142.7977380  43.6732840 139.3493990 134.1707650  43.2193300 147.4249590
 133.7771040  44.0668510 147.6322370 133.4826050  42.5819670 147.6158230
 131.4724700  41.1421760 141.4579670 131.1837750  41.7124620 142.1704650
 132.2170460  40.6626210 141.8210900 131.6594930  45.0841880 132.6682390
 131.5769600  46.0272640 132.8097380 131.3077990  44.9416790 131.7894740
 143.0215670  47.1426710 143.3300250 142.2896790  47.6513520 143.6790350
 142.6240010  46.3256690 143.0289030 139.4593060  43.8180910 141.7352740
 139.4629120  43.3770860 140.8857280 140.3544180  44.1398240 141.8424560
 135.3095440  43.7007400 140.6946950 134.9695490  44.1782630 141.4514000
 134.5472760  43.2472520 140.3348050 139.5213210  44.8192990 134.7259500
 139.6426030  44.7779470 135.6745320 139.1361720  45.6817140 134.5706230
 143.4841580  42.5960390 142.7423190 143.5014320  43.0469040 143.5865040
 143.2357160  41.6966030 142.9556630 138.5334710  47.1294130 134.1242800
 137.9651610  46.6812380 133.4978710 139.2423710  47.4886910 133.5907950
 146.9112330  40.0092570 148.5809570 147.2358100  39.2782230 149.1067550
 146.9468840  39.6906210 147.6790560 133.6103890  51.0306150 148.0009530
 133.2258680  50.3899820 148.5992490 133.9216080  51.7342270 148.5704260
 139.7601030  47.8782690 143.4818150 140.1271160  47.4041260 144.2279490
 139.5706090  48.7524260 143.8226490 132.6241520  42.6226380 139.6111620
 132.3388440  42.2582050 140.4490240 132.5620380  41.8906840 138.9974760
 137.5500400  46.9191330 145.8002360 137.2457470  47.7983310 146.0252720
 138.5046860  46.9791120 145.8359800 136.0782190  51.1252320 136.3969210
 135.3044450  50.5849940 136.2367930 136.8076820  50.6058930 136.0586970
 146.8370170  50.1217680 142.1895600 147.5569290  50.6172970 141.7991710
 146.6351990  49.4435570 141.5449470 142.2980110  41.5155640 136.3324990
 141.4844720  41.0168810 136.2570300 142.1042060  42.3553890 135.9161340
 142.2188970  50.1926740 148.0764600 142.1526280  49.2722410 147.8222190
 141.5894110  50.2902180 148.7909240 145.0128500  45.8875290 134.6287150
 145.9008120  46.1992520 134.4538490 144.9833590  45.0147540 134.2367730
 136.1219590  50.7932700 140.0348020 136.6398260  49.9900960 139.9804910
 135.6703610  50.7311840 140.8764850 141.0089090  52.0598980 135.3075320
 141.3504790  52.8041210 134.8118640 140.1801800  52.3730100 135.6700150
 133.6064130  47.7594070 146.9473720 133.2479070  48.4247920 147.5347060
 133.3118690  46.9277620 147.3186340 136.8077250  48.2178310 149.8313270
 136.5077390  48.3635490 148.9341090 137.5788490  47.6583600 149.7386660
 142.1505700  53.0147310 147.8268400 142.1650240  52.0828270 147.6087310
 141.4430800  53.1007070 148.4658170 147.2842770  47.1987130 134.0967010
 147.2006490  47.6301350 133.2463450 148.0036960  47.6585480 134.5293830
 148.3130020  54.0529390 136.8249140 147.6706180  53.3985010 137.0992860
 147.9260680  54.4584480 136.0489810 143.8916500  51.3814820 140.6720830
 144.2440320  50.7842950 140.0122200 143.0078830  51.0559050 140.8429080
 139.9779780  52.1412510 138.0791240 140.6650910  52.6881720 138.4598830
 139.1912200  52.6853240 138.1140850 132.1172180  47.7585330 133.5708320
 132.9867030  48.0410130 133.8544240 131.6262500  48.5721200 133.4557130
 139.2806990  49.1458540 137.6916600 139.7369770  49.9563790 137.9176790
 138.9295200  48.8281680 138.5235090 141.5839600  54.6564880 144.9208900
 142.2281820  54.8624260 145.5982320 141.9469040  53.8953280 144.4679750
 135.1818770  39.4896190 138.1639120 135.0533400  39.4814090 139.1124040
 134.3580790  39.8279280 137.8130130 142.8571680  52.6597230 143.6386350
 143.4993910  51.9590390 143.7518520 143.3821030  53.4395670 143.4583240
 146.7027400  52.9445850 133.3625490 146.4764980  52.2276290 133.9550130
 146.3123600  52.6958290 132.5247240 144.6309300  53.4592130 146.8422410
 144.9665540  54.0458820 147.5200330 143.7109640  53.3284840 147.0720200
 132.4843430  56.9712710 134.1369950 132.8441070  57.5702050 133.4827220
 132.3435770  57.5172600 134.9104980 132.1812700  41.2487310 147.6245820
 131.4671220  41.4484230 148.2298430 132.6007740  40.4726880 147.9960620
 146.2843650  50.8617790 135.0239650 145.9965350  51.3230480 135.8117530
 147.0795820  50.4015560 135.2923870 132.4685290  55.2367570 148.6112350
 132.5776410  54.2962310 148.4707740 131.8165850  55.5022320 147.9626080
 138.5012050  54.3543910 134.9543620 138.4922150  55.0873600 134.3388130
 137.5810410  54.1075490 135.0470580 134.1018690  49.5758800 135.6990380
 133.4946640  50.3157700 135.7085680 134.5768040  49.6658160 134.8728580
 143.6751480  43.7409620 145.3747270 144.0432300  42.9204830 145.7026840
 142.8149680  43.8011510 145.7902920 147.0413510  42.6966560 136.1834830
 146.4126670  42.8012230 135.4693060 146.5465430  42.9163340 136.9728710
 141.4871650  54.4172150 133.6168810 141.5883630  54.2136140 132.6870790
 140.5873390  54.1630430 133.8216590 139.0097540  44.9752510 137.5992710
 138.3013690  45.4438850 138.0406320 139.2942020  44.3174520 138.2337900
 140.6353470  46.3949210 145.5985240 141.1338720  46.8695030 146.2637090
 140.7776420  45.4712730 145.8055270 143.0412970  41.7003170 139.0388500
 142.9180750  41.7189300 138.0898010 143.9897530  41.7482110 139.1586900
 140.1289760  56.9358470 138.3116480 140.3831260  56.8979860 137.3895850
 139.1802240  56.8091800 138.3044730 137.2132560  43.2837590 134.9743420
 138.0623090  43.7207740 134.9083610 136.8463830  43.5957850 135.8015480
 147.8420330  42.6117170 146.4413630 147.3393930  43.3522570 146.7807440
 148.6576990  43.0001170 146.1250420 146.1342340  47.8550350 139.8874990
 145.1932480  47.8700580 140.0622680 146.4486410  47.0686310 140.3335290
 136.1123980  49.5369950 133.4478950 136.8787250  49.4251310 134.0104380
 136.1898670  48.8407920 132.7955720 134.8070740  46.9695020 134.1311840
 134.8874330  46.0222530 134.2429240 135.6990490  47.3001900 134.2372500
 135.6085450  57.1190410 141.2346380 136.3447930  56.5705870 141.5054950
 135.9926370  57.9846420 141.0952370 132.4930930  53.1863980 137.1087890
 131.5670710  53.4285120 137.0993300 132.9587360  54.0138240 136.9872640
 138.7187760  56.2920720 133.0571950 139.5116370  56.5809550 132.6053740
 138.1992110  55.8612890 132.3784430 144.8808730  56.1396640 148.9816780
 145.8330480  56.0554660 148.9317020 144.7336950  56.8038350 149.6550570
 147.7717930  55.5190850 134.4808690 147.4859440  55.1055990 133.6662870
 147.5737480  56.4478560 134.3609210 132.3341540  48.7909940 149.3668010
 132.8380560  48.2117220 149.9384240 131.5948960  49.0750170 149.9044380
 139.2365160  51.5124130 132.9214300 139.1315800  50.8976480 133.6475680
 139.0689380  50.9890020 132.1377310 139.3879480  50.1980930 148.9003530
 138.6225150  50.7665930 148.8158200 139.5695440  49.9057140 148.0071760
 142.4767890  50.5744160 133.5256290 141.9277990  51.0213460 134.1699030
 143.0987150  50.0693410 134.0493960 146.5302830  51.9286260 149.4578550
 147.2712300  52.2662020 148.9546010 145.7675510  52.0978320 148.9048320
 138.1443010  49.5335080 135.4221590 138.5659430  49.3674950 136.2652980
 138.2693850  48.7235310 134.9276730 136.3070430  45.5131630 148.2292570
 135.7766890  45.0222580 147.6015910 136.9758500  45.9415830 147.6950500
 140.6570650  48.5572690 132.6698690 141.1776310  47.8421710 132.3039840
 141.3039050  49.1958560 132.9699200 145.2048490  49.9801090 147.9933760
 145.6189510  50.1346170 148.8424180 144.2699490  50.1056310 148.1559540
 145.6770660  47.3197250 149.9972910 146.2591430  46.5649570 149.9093390
 145.8532430  47.8504690 149.2204390 136.7942730  42.4794000 148.3089860
 136.6999600  41.8614750 147.5840730 136.2140120  43.2060290 148.0819770
 139.5604170  41.0367240 145.3417250 139.1121470  41.0591500 144.4962800
 138.9269370  40.6386260 145.9387550 139.9663720  49.9321570 145.9629690
 140.3851830  50.7754300 145.7905930 139.0472350  50.0693610 145.7336470
 142.3027620  47.6637750 147.3467530 142.4223830  47.0678890 148.0862370
 143.1621620  47.7007440 146.9268830 144.6415520  48.2174940 145.9230040
 144.1150740  48.7417560 145.3195180 144.9846860  48.8502330 146.5539770
 137.0401910  45.6068310 132.3679750 136.8390970  44.7435670 132.7293090
 136.8693960  45.5201670 131.4301350 137.8171140  56.2374580 147.0787420
 137.2792230  56.9620640 146.7596120 138.0705100  55.7604920 146.2884760
 139.0696390  44.2059100 148.6043350 139.6596080  43.8974950 149.2921170
 138.2516630  43.7338850 148.7603250 143.8889820  43.8224910 148.8376370
 143.2005340  43.1606450 148.7726360 144.6095840  43.3763180 149.2824830
 144.5190220  40.4176540 134.8966630 144.7992510  39.5744440 135.2526050
 143.7455950  40.6499650 135.4105380 135.8384710  42.7068930 132.3557630
 136.1410610  42.7136360 131.4476780 136.5779300  42.3566790 132.8525290
 140.6733350  57.4725790 147.3374070 140.5992050  58.3760930 147.6446440
 139.7712190  57.1537690 147.3096140 139.0569640  41.6503550 133.3413830
 138.7091640  40.9727540 132.7616280 139.2582410  41.1893060 134.1557220
 141.2218680  56.6384300 134.9600430 142.1169470  56.9769270 134.9819190
 141.2536310  55.9163710 134.3324710 134.8614840  52.0111350 133.1887430
 135.2989710  52.5541020 133.8445010 135.3462570  51.1858300 133.1983770
 132.0760640  54.8000380 140.6407690 132.4063650  53.9321440 140.4086330
 132.5051640  55.0058900 141.4712650 136.6722560  53.1309390 138.3009660
 136.3718100  53.0074360 139.2013570 136.5660050  52.2717980 137.8925390
 132.5650850  55.6670970 143.3789320 132.1281840  55.8471770 144.2113470
 133.1328530  56.4245590 143.2371040 148.2013030  55.1687970 147.6666630
 147.6015020  55.2280530 146.9230550 148.3306930  54.2292950 147.7963480
 132.3975280  48.1791200 139.7378200 131.7424120  47.9102840 139.0937900
 133.2353230  48.0695680 139.2880180 146.8864670  51.8939950 145.7642790
 146.0724510  52.3237110 146.0268580 147.2938870  52.5058360 145.1511840
 145.3465720  42.9732490 133.9596690 145.7650600  42.7863470 133.1193350
 145.0401780  42.1211540 134.2699620 133.4351210  48.5643770 144.2781540
 133.8024250  48.4771170 145.1577560 132.8662030  47.8010320 144.1788400
 148.2355070  47.0328150 147.2912010 148.0041160  46.8040900 146.3909960
 148.4959620  47.9527700 147.2456900 132.9867210  45.4752860 148.1839960
 132.0923260  45.4419620 148.5233670 133.5264760  45.6739650 148.9491210
 131.6113360  45.3890130 135.6803530 130.7077440  45.6520330 135.5055190
 132.0953980  45.6601300 134.9003490 148.2996130  46.1953990 144.4799280
 147.3498840  46.1617530 144.5944270 148.4809140  47.1054100 144.2449050
 134.1540570  44.4455670 133.5897910 134.8632270  44.0238890 133.1045190
 133.4380510  44.5130900 132.9581260 133.8014730  40.4995000 132.6300560
 134.5242860  41.0403940 132.9481780 134.0739250  40.2258420 131.7542100
 147.6106380  45.3687470 136.8972140 148.1065500  45.1358340 137.6821020
 147.4122450  44.5299310 136.4809780 133.4906920  39.7501190 142.5323180
 134.1383110  39.1998570 142.0918340 133.9108760  40.0044340 143.3538990
 147.3859260  39.9442550 145.8892820 148.0231480  40.5576690 146.2552010
 147.5334150  39.9803210 144.9442050 146.9440720  56.6458550 139.2911060
 147.5399790  56.3243120 138.6145480 147.2018870  56.1730370 140.0824330
 133.2438920  39.9056860 145.2748500 132.8953740  40.3620680 146.0406680
 132.9126620  39.0113990 145.3570930 138.5509320  54.6336050 145.0411410
 138.3100680  54.9010610 144.1541930 139.4911960  54.8041780 145.0962270
 140.7563740  41.0968740 148.7967920 140.6952630  41.6890570 149.5463330
 141.6964120  40.9894700 148.6518180 143.3938300  40.7538800 148.4360210
 144.0078710  41.0718090 147.7741290 143.9387860  40.2687390 149.0556070
 133.9159560  39.4333060 148.5499270 134.4642550  39.2521110 147.7865380
 133.9814870  38.6427170 149.0855580 134.6891320  56.0238710 146.5599470
 134.0951640  55.8923410 147.2989510 134.6815160  55.1876850 146.0941570
 144.1346340  39.3170940 144.7629500 143.2606180  39.6506050 144.5602430
 144.0257090  38.8444120 145.5881370 145.0418320  41.5241810 146.1471220
 144.7131680  40.7093570 145.7672950 145.9900620  41.4811620 146.0236910
 147.4952930  57.2953850 143.1208790 147.0355900  58.0469660 142.7466810
 146.8665390  56.5760320 143.0623590 134.3203550  53.3897090 145.5107510
 133.5937610  52.7702380 145.4433460 134.3812700  53.7837700 144.6405590
 137.9248650  55.6042090 142.2956920 138.4413670  54.9929450 141.7705180
 138.5746030  56.1070870 142.7867930 140.6644150  56.4950580 143.1225900
 140.9521960  56.2404880 142.2458910 141.1767370  55.9427940 143.7131470
 141.8821160  40.2340780 143.7022410 141.0992950  40.7086280 143.9819170
 141.5884090  39.3295610 143.5935590 146.4342230  40.9363880 141.7471500
 146.8750320  40.8808980 140.8993100 146.1649820  41.8521890 141.8181680
 132.6033550  56.7071480 138.7204270 132.4355590  56.0742160 139.4186160
 131.7368060  56.9130880 138.3698460 133.2261570  40.5388260 136.2236130
 133.9840930  40.6517140 135.6500160 132.7638740  41.3757460 136.1779560
 139.7675380  42.6527530 139.2138440 138.9549890  42.2784420 138.8734320
 140.2717020  41.8972610 139.5159630 144.2700360  39.3169980 140.4521510
 144.8729730  39.8890190 140.9270030 143.5293350  39.8809420 140.2295410
 147.4134960  39.7191540 135.7261790 147.6085590  40.6174990 135.9929220
 146.6264830  39.4878620 136.2194740 134.2096250  55.4004710 136.1654410
 133.6843870  55.7812740 135.4616370 134.1340830  56.0255480 136.8864120
 135.5986720  41.0652310 134.7638100 136.1279480  40.2782110 134.6346050
 136.2315040  41.7443500 134.9973630 137.7924560  40.8027450 137.8183490
 137.1627300  40.1014760 137.9853620 137.2529700  41.5631580 137.6016650
 136.8089220  57.3487090 135.0403660 137.5408040  57.0646370 134.4927550
 137.0682890  57.1100370 135.9303040 135.9704010  53.4651820 135.0449990
 135.3412890  53.9336920 135.5935820 136.0851840  52.6201040 135.4796180
 143.4253730  47.5157480 121.1951190 143.3447780  46.6012090 120.9242900
 143.0118150  48.0124550 120.4890900 141.5571770  49.2936500 123.0760460
 140.7813870  48.8136940 123.3659030 142.2084700  48.6142150 122.9016620
 135.5737600  49.6056310 123.9536220 134.7422480  49.3505020 124.3532730
 136.1818580  49.6767080 124.6894140 145.5779200  53.6996690 121.8559590
 145.1160730  52.9283930 122.1846760 146.3904750  53.7262760 122.3612040
 135.5538860  53.6396400 124.1494240 135.8566900  52.7494140 123.9704460
 136.2982450  54.1966620 123.9216490 133.9829550  44.5658200 117.7378610
 133.0946250  44.9074170 117.6358490 134.2670740  44.3658520 116.8459440
 131.9462560  47.1663850 123.6218310 132.5178670  46.3986050 123.6221950
 131.9464100  47.4652610 122.7124920 141.8042510  55.9854700 121.4763580
 141.1853950  56.4412200 120.9058020 142.6594290  56.1406160 121.0753280
 140.9980760  51.9693690 123.0830620 140.9289040  51.0283630 122.9219750
 141.7600620  52.0595100 123.6553190 133.1887430  42.5748210 125.4087240
 133.0090270  41.6773960 125.6890000 132.7867510  43.1220080 126.0834190
 142.0285930  44.7764070 123.3099550 142.4050750  43.9035950 123.1973220
 141.9305440  45.1122770 122.4189990 136.1590940  43.1489700 118.7716990
 136.2657690  44.0493430 119.0785750 135.2483300  43.1007670 118.4811640
 145.8110050  42.2714510 120.2427890 146.6319670  41.7811080 120.2853370
 145.8444130  42.8612170 120.9959730 133.8074100  45.0708710 124.0169580
 134.4884210  45.3347080 124.6356980 133.4922150  44.2309580 124.3507590
 137.9998670  46.1176070 123.1042170 138.5076890  46.6157040 123.7447190
 138.5311910  45.3411270 122.9281530 136.2834770  40.7574630 127.3705590
 136.2853210  41.2747020 126.5651490 135.4539080  40.2804810 127.3475520
 142.6705860  50.8693940 118.8695490 142.0523130  51.3343390 118.3058210
 143.1829110  51.5621420 119.2865000 137.5337620  50.3969810 125.5479090
 137.2007000  51.0238730 126.1900160 137.7104300  50.9231690 124.7680760
 146.0471530  44.2114890 123.0155430 145.3427100  44.4999780 123.5958540
 146.4083690  45.0215000 122.6554990 135.9650100  42.4684590 125.3776040
 136.3066910  43.3126640 125.0829910 135.0265910  42.6168330 125.4941380
 136.7456720  52.3650610 127.3628270 137.3630720  53.0401690 127.0812720
 135.8849840  52.7738590 127.2715770 132.0389060  51.5550470 116.2435120
 131.6617040  52.0437570 115.5120020 132.2962130  52.2275750 116.8741650
 147.6634310  53.8290020 125.2782910 146.9797830  54.4989130 125.2699580
 148.2028600  54.0270670 124.5127770 139.6477990  39.9566860 121.7020630
 139.9552970  39.4013750 120.9856130 138.7178690  40.0911320 121.5193620
 145.1993050  55.6734150 123.9928090 145.2120210  55.2696440 123.1250350
 144.6468270  56.4481440 123.8889520 146.4938470  52.3950370 119.0818260
 146.3834800  51.4524700 119.2067680 146.4906720  52.7566010 119.9681020
 144.5978490  50.5763990 125.3210700 145.0147280  50.3624100 124.4864160
 145.3218310  50.8336780 125.8919320 142.0358750  48.0215690 118.4380750
 141.1088030  47.9553070 118.6669220 142.1883570  48.9595820 118.3235990
 142.0227830  44.2932690 115.4347910 141.0831500  44.4546650 115.5200370
 142.3411090  45.0118370 114.8883900 146.0656040  49.5835990 118.9416000
 145.4468460  49.2455540 118.2942300 146.0480490  48.9395750 119.6495190
 145.5082600  45.7620530 126.3581810 145.0953780  46.5874240 126.6121800
 144.7758550  45.1765570 126.1658170 137.6415390  48.5480430 121.2200480
 137.2372390  47.8357680 120.7246380 137.7278510  48.2033670 122.1088520
 138.1097090  52.2347990 123.3839690 137.8125380  51.6293460 122.7047470
 139.0596910  52.2725300 123.2729050 136.3544010  45.3223640 124.9999520
 136.9058600  45.4318980 124.2252770 136.8687520  45.6961240 125.7154750
 146.1982700  55.8079860 127.0462790 145.7213260  56.6152050 126.8535400
 145.5144490  55.1558190 127.1989000 137.2015520  51.9729680 130.0347490
 136.3044050  52.1969650 130.2820890 137.2268390  52.0964620 129.0858890
 144.2420740  48.8222800 115.9488750 144.6814020  47.9845230 115.8026570
 144.9549160  49.4552200 116.0352890 136.0286740  48.8443000 128.6104860
 135.8894510  49.7165800 128.9792260 135.1468100  48.5015810 128.4652800
 142.3516120  53.7618870 119.9169990 142.7912030  54.5043200 119.5025380
 142.2903010  54.0045440 120.8408950 137.8267090  54.7864700 130.8190010
 137.7982520  55.1907650 129.9518440 137.6632060  53.8575060 130.6561610
 147.8237880  40.0765610 114.2629790 147.5110540  40.1692440 115.1628860
 148.5850350  40.6546640 114.2127220 134.3420020  47.4425410 118.7207130
 134.2217620  48.1687500 118.1088400 134.0320910  46.6728320 118.2435040
 131.9805390  50.6140550 124.5275770 132.0585810  50.7489320 123.5831490
 132.5947070  49.9056440 124.7203890 133.2253020  52.3140740 120.9381950
 132.8181100  52.4555330 120.0835550 134.1166030  52.0300900 120.7353160
 143.0431900  56.4632650 127.8449000 143.5576570  56.3740660 128.6471430
 142.2000980  56.8092350 128.1376910 145.0186300  56.7487990 117.2733000
 144.8587440  56.4590930 118.1714830 144.8533010  55.9728120 116.7378230
 137.4974680  56.5286520 119.0504620 137.3217160  55.6122060 118.8372420
 136.6430420  56.8873810 119.2902420 144.7212430  54.2575550 115.8331000
 144.0277590  54.2552840 115.1733280 145.4635290  53.8334870 115.4025170
 144.2862360  55.8838260 119.9079490 144.7419310  55.1027640 120.2218110
 144.6254880  56.5945080 120.4520670 132.0364910  51.6554720 127.0670230
 132.1995950  51.1860080 126.2489600 132.5017360  51.1478280 127.7319070
 136.8083680  40.7860480 122.1030800 136.3651830  41.5670020 121.7715320
 137.3668670  41.1090370 122.8101740 141.0953490  43.6529000 127.7066120
 140.6332860  43.8612020 128.5186060 140.6931600  42.8388350 127.4036790
 146.0958000  44.8737950 128.8362780 145.2451590  44.5743700 129.1571850
 145.9359790  45.1179960 127.9246600 143.1907710  46.3739700 130.9361570
 143.5161120  45.5403450 130.5963800 143.9788040  46.8968220 131.0839900
 139.9242500  40.4071180 116.9836630 139.2996680  40.4031050 117.7089940
 139.8372620  39.5402140 116.5872600 138.8459580  41.3307810 123.9620400
 139.1431910  42.2370640 123.8812420 139.3945140  40.8426590 123.3479970
 136.5997900  45.9094050 119.8312050 136.3738820  45.6931220 120.7358670
 135.8190430  46.3422510 119.4858020 143.8295660  45.9157420 118.4302700
 143.2304550  46.6393220 118.2466320 144.3775270  45.8534200 117.6479150
 139.0397110  46.8079630 130.4972320 138.9440710  45.8674360 130.3472720
 139.8829090  47.0294700 130.1020390 142.4360530  44.5520960 120.4605980
 142.8290100  44.8693160 119.6474670 142.7977380  43.6732840 120.5750500
 134.1707650  43.2193300 128.6506100 133.7771040  44.0668510 128.8578880
 133.4826050  42.5819670 128.8414740 140.7452700  43.3028270 131.7202840
 140.0551020  43.1100470 132.3548930 141.4885000  43.5862910 132.2527140
 131.4724700  41.1421760 122.6836180 131.1837750  41.7124620 123.3961160
 132.2170460  40.6626210 123.0467410 131.6594930  45.0841880 113.8938900
 131.5769600  46.0272640 114.0353890 131.3077990  44.9416790 113.0151250
 143.0215670  47.1426710 124.5556760 142.2896790  47.6513520 124.9046860
 142.6240010  46.3256690 124.2545540 139.4593060  43.8180910 122.9609250
 139.4629120  43.3770860 122.1113790 140.3544180  44.1398240 123.0681070
 135.3095440  43.7007400 121.9203460 134.9695490  44.1782630 122.6770510
 134.5472760  43.2472520 121.5604560 139.5213210  44.8192990 115.9516010
 139.6426030  44.7779470 116.9001830 139.1361720  45.6817140 115.7962740
 143.4841580  42.5960390 123.9679700 143.5014320  43.0469040 124.8121550
 143.2357160  41.6966030 124.1813140 138.5334710  47.1294130 115.3499310
 137.9651610  46.6812380 114.7235220 139.2423710  47.4886910 114.8164460
 146.9112330  40.0092570 129.8066080 147.2358100  39.2782230 130.3324060
 146.9468840  39.6906210 128.9047070 133.6103890  51.0306150 129.2266040
 133.2258680  50.3899820 129.8249000 133.9216080  51.7342270 129.7960770
 139.7601030  47.8782690 124.7074660 140.1271160  47.4041260 125.4536000
 139.5706090  48.7524260 125.0483000 132.6241520  42.6226380 120.8368130
 132.3388440  42.2582050 121.6746750 132.5620380  41.8906840 120.2231270
 137.5500400  46.9191330 127.0258870 137.2457470  47.7983310 127.2509230
 138.5046860  46.9791120 127.0616310 136.0782190  51.1252320 117.6225720
 135.3044450  50.5849940 117.4624440 136.8076820  50.6058930 117.2843480
 146.8370170  50.1217680 123.4152110 147.5569290  50.6172970 123.0248220
 146.6351990  49.4435570 122.7705980 142.2980110  41.5155640 117.5581500
 141.4844720  41.0168810 117.4826810 142.1042060  42.3553890 117.1417850
 142.2188970  50.1926740 129.3021110 142.1526280  49.2722410 129.0478700
 141.5894110  50.2902180 130.0165750 145.0128500  45.8875290 115.8543660
 145.9008120  46.1992520 115.6795000 144.9833590  45.0147540 115.4624240
 136.1219590  50.7932700 121.2604530 136.6398260  49.9900960 121.2061420
 135.6703610  50.7311840 122.1021360 141.0089090  52.0598980 116.5331830
 141.3504790  52.8041210 116.0375150 140.1801800  52.3730100 116.8956660
 133.6064130  47.7594070 128.1730230 133.2479070  48.4247920 128.7603570
 133.3118690  46.9277620 128.5442850 136.8077250  48.2178310 131.0569780
 136.5077390  48.3635490 130.1597600 137.5788490  47.6583600 130.9643170
 142.1505700  53.0147310 129.0524910 142.1650240  52.0828270 128.8343820
 141.4430800  53.1007070 129.6914680 147.2842770  47.1987130 115.3223520
 147.2006490  47.6301350 114.4719960 148.0036960  47.6585480 115.7550340
 148.3130020  54.0529390 118.0505650 147.6706180  53.3985010 118.3249370
 147.9260680  54.4584480 117.2746320 143.8916500  51.3814820 121.8977340
 144.2440320  50.7842950 121.2378710 143.0078830  51.0559050 122.0685590
 139.9779780  52.1412510 119.3047750 140.6650910  52.6881720 119.6855340
 139.1912200  52.6853240 119.3397360 132.1172180  47.7585330 114.7964830
 132.9867030  48.0410130 115.0800750 131.6262500  48.5721200 114.6813640
 139.2806990  49.1458540 118.9173110 139.7369770  49.9563790 119.1433300
 138.9295200  48.8281680 119.7491600 141.5839600  54.6564880 126.1465410
 142.2281820  54.8624260 126.8238830 141.9469040  53.8953280 125.6936260
 135.1818770  39.4896190 119.3895630 135.0533400  39.4814090 120.3380550
 134.3580790  39.8279280 119.0386640 142.8571680  52.6597230 124.8642860
 143.4993910  51.9590390 124.9775030 143.3821030  53.4395670 124.6839750
 146.7027400  52.9445850 114.5882000 146.4764980  52.2276290 115.1806640
 146.3123600  52.6958290 113.7503750 144.6309300  53.4592130 128.0678920
 144.9665540  54.0458820 128.7456840 143.7109640  53.3284840 128.2976710
 132.4843430  56.9712710 115.3626460 132.8441070  57.5702050 114.7083730
 132.3435770  57.5172600 116.1361490 132.1812700  41.2487310 128.8502330
 131.4671220  41.4484230 129.4554940 132.6007740  40.4726880 129.2217130
 146.2843650  50.8617790 116.2496160 145.9965350  51.3230480 117.0374040
 147.0795820  50.4015560 116.5180380 132.4685290  55.2367570 129.8368860
 132.5776410  54.2962310 129.6964250 131.8165850  55.5022320 129.1882590
 140.4597880  53.5083460 131.2366980 140.1394750  52.7892700 131.7812670
 139.7856240  54.1838530 131.3103040 138.5012050  54.3543910 116.1800130
 138.4922150  55.0873600 115.5644640 137.5810410  54.1075490 116.2727090
 134.1018690  49.5758800 116.9246890 133.4946640  50.3157700 116.9342190
 134.5768040  49.6658160 116.0985090 143.6751480  43.7409620 126.6003780
 144.0432300  42.9204830 126.9283350 142.8149680  43.8011510 127.0159430
 147.0413510  42.6966560 117.4091340 146.4126670  42.8012230 116.6949570
 146.5465430  42.9163340 118.1985220 141.4871650  54.4172150 114.8425320
 141.5883630  54.2136140 113.9127300 140.5873390  54.1630430 115.0473100
 139.0097540  44.9752510 118.8249220 138.3013690  45.4438850 119.2662830
 139.2942020  44.3174520 119.4594410 140.6353470  46.3949210 126.8241750
 141.1338720  46.8695030 127.4893600 140.7776420  45.4712730 127.0311780
 143.0412970  41.7003170 120.2645010 142.9180750  41.7189300 119.3154520
 143.9897530  41.7482110 120.3843410 140.1289760  56.9358470 119.5372990
 140.3831260  56.8979860 118.6152360 139.1802240  56.8091800 119.5301240
 137.2132560  43.2837590 116.1999930 138.0623090  43.7207740 116.1340120
 136.8463830  43.5957850 117.0271990 147.8420330  42.6117170 127.6670140
 147.3393930  43.3522570 128.0063950 148.6576990  43.0001170 127.3506930
 146.1342340  47.8550350 121.1131500 145.1932480  47.8700580 121.2879190
 146.4486410  47.0686310 121.5591800 136.1123980  49.5369950 114.6735460
 136.8787250  49.4251310 115.2360890 136.1898670  48.8407920 114.0212230
 134.8070740  46.9695020 115.3568350 134.8874330  46.0222530 115.4685750
 135.6990490  47.3001900 115.4629010 135.6085450  57.1190410 122.4602890
 136.3447930  56.5705870 122.7311460 135.9926370  57.9846420 122.3208880
 132.4930930  53.1863980 118.3344400 131.5670710  53.4285120 118.3249810
 132.9587360  54.0138240 118.2129150 134.6143730  56.3036480 131.6488470
 135.4156460  56.6248530 132.0623870 134.0995550  55.9432060 132.3708380
 138.7187760  56.2920720 114.2828460 139.5116370  56.5809550 113.8310250
 138.1992110  55.8612890 113.6040940 143.4508360  52.4116350 131.5963880
 142.8446520  52.4347950 130.8559630 143.1462470  51.6799390 132.1331130
 144.8808730  56.1396640 130.2073290 145.8330480  56.0554660 130.1573530
 144.7336950  56.8038350 130.8807080 147.7717930  55.5190850 115.7065200
 147.4859440  55.1055990 114.8919380 147.5737480  56.4478560 115.5865720
 132.3341540  48.7909940 130.5924520 132.8380560  48.2117220 131.1640750
 131.5948960  49.0750170 131.1300890 139.2365160  51.5124130 114.1470810
 139.1315800  50.8976480 114.8732190 139.0689380  50.9890020 113.3633820
 139.3879480  50.1980930 130.1260040 138.6225150  50.7665930 130.0414710
 139.5695440  49.9057140 129.2328270 142.4767890  50.5744160 114.7512800
 141.9277990  51.0213460 115.3955540 143.0987150  50.0693410 115.2750470
 146.5302830  51.9286260 130.6835060 147.2712300  52.2662020 130.1802520
 145.7675510  52.0978320 130.1304830 134.3664620  46.9339530 131.4874590
 134.4069960  46.6353400 132.3959820 135.2210120  47.3347140 131.3282110
 138.1443010  49.5335080 116.6478100 138.5659430  49.3674950 117.4909490
 138.2693850  48.7235310 116.1533240 136.3070430  45.5131630 129.4549080
 135.7766890  45.0222580 128.8272420 136.9758500  45.9415830 128.9207010
 140.6570650  48.5572690 113.8955200 141.1776310  47.8421710 113.5296350
 141.3039050  49.1958560 114.1955710 145.2048490  49.9801090 129.2190270
 145.6189510  50.1346170 130.0680690 144.2699490  50.1056310 129.3816050
 145.6770660  47.3197250 131.2229420 146.2591430  46.5649570 131.1349900
 145.8532430  47.8504690 130.4460900 136.7942730  42.4794000 129.5346370
 136.6999600  41.8614750 128.8097240 136.2140120  43.2060290 129.3076280
 139.5604170  41.0367240 126.5673760 139.1121470  41.0591500 125.7219310
 138.9269370  40.6386260 127.1644060 139.9663720  49.9321570 127.1886200
 140.3851830  50.7754300 127.0162440 139.0472350  50.0693610 126.9592980
 142.3027620  47.6637750 128.5724040 142.4223830  47.0678890 129.3118880
 143.1621620  47.7007440 128.1525340 144.6415520  48.2174940 127.1486550
 144.1150740  48.7417560 126.5451690 144.9846860  48.8502330 127.7796280
 137.0401910  45.6068310 113.5936260 136.8390970  44.7435670 113.9549600
 136.8693960  45.5201670 112.6557860 137.8171140  56.2374580 128.3043930
 137.2792230  56.9620640 127.9852630 138.0705100  55.7604920 127.5141270
 139.0696390  44.2059100 129.8299860 139.6596080  43.8974950 130.5177680
 138.2516630  43.7338850 129.9859760 143.8889820  43.8224910 130.0632880
 143.2005340  43.1606450 129.9982870 144.6095840  43.3763180 130.5081340
 144.5190220  40.4176540 116.1223140 144.7992510  39.5744440 116.4782560
 143.7455950  40.6499650 116.6361890 135.8384710  42.7068930 113.5814140
 136.1410610  42.7136360 112.6733290 136.5779300  42.3566790 114.0781800
 140.6733350  57.4725790 128.5630580 140.5992050  58.3760930 128.8702950
 139.7712190  57.1537690 128.5352650 139.0569640  41.6503550 114.5670340
 138.7091640  40.9727540 113.9872790 139.2582410  41.1893060 115.3813730
 141.2218680  56.6384300 116.1856940 142.1169470  56.9769270 116.2075700
 141.2536310  55.9163710 115.5581220 134.8614840  52.0111350 114.4143940
 135.2989710  52.5541020 115.0701520 135.3462570  51.1858300 114.4240280
 132.0760640  54.8000380 121.8664200 132.4063650  53.9321440 121.6342840
 132.5051640  55.0058900 122.6969160 136.6722560  53.1309390 119.5266170
 136.3718100  53.0074360 120.4270080 136.5660050  52.2717980 119.1181900
 132.5650850  55.6670970 124.6045830 132.1281840  55.8471770 125.4369980
 133.1328530  56.4245590 124.4627550 148.2013030  55.1687970 128.8923140
 147.6015020  55.2280530 128.1487060 148.3306930  54.2292950 129.0219990
 132.3975280  48.1791200 120.9634710 131.7424120  47.9102840 120.3194410
 133.2353230  48.0695680 120.5136690 146.8864670  51.8939950 126.9899300
 146.0724510  52.3237110 127.2525090 147.2938870  52.5058360 126.3768350
 145.3465720  42.9732490 115.1853200 145.7650600  42.7863470 114.3449860
 145.0401780  42.1211540 115.4956130 133.4351210  48.5643770 125.5038050
 133.8024250  48.4771170 126.3834070 132.8662030  47.8010320 125.4044910
 148.2355070  47.0328150 128.5168520 148.0041160  46.8040900 127.6166470
 148.4959620  47.9527700 128.4713410 132.9867210  45.4752860 129.4096470
 132.0923260  45.4419620 129.7490180 133.5264760  45.6739650 130.1747720
 146.6743140  42.2584580 131.2948220 147.5513320  42.2667980 131.6782220
 146.6863980  41.5215420 130.6840570 131.6113360  45.3890130 116.9060040
 130.7077440  45.6520330 116.7311700 132.0953980  45.6601300 116.1260000
 148.2996130  46.1953990 125.7055790 147.3498840  46.1617530 125.8200780
 148.4809140  47.1054100 125.4705560 134.1540570  44.4455670 114.8154420
 134.8632270  44.0238890 114.3301700 133.4380510  44.5130900 114.1837770
 133.8014730  40.4995000 113.8557070 134.5242860  41.0403940 114.1738290
 134.0739250  40.2258420 112.9798610 147.6106380  45.3687470 118.1228650
 148.1065500  45.1358340 118.9077530 147.4122450  44.5299310 117.7066290
 133.4906920  39.7501190 123.7579690 134.1383110  39.1998570 123.3174850
 133.9108760  40.0044340 124.5795500 147.3859260  39.9442550 127.1149330
 148.0231480  40.5576690 127.4808520 147.5334150  39.9803210 126.1698560
 146.9440720  56.6458550 120.5167570 147.5399790  56.3243120 119.8401990
 147.2018870  56.1730370 121.3080840 133.2438920  39.9056860 126.5005010
 132.8953740  40.3620680 127.2663190 132.9126620  39.0113990 126.5827440
 134.8503290  53.0776460 130.6658200 134.8072920  52.7069370 131.5472660
 134.9814300  54.0154030 130.8060020 138.5509320  54.6336050 126.2667920
 138.3100680  54.9010610 125.3798440 139.4911960  54.8041780 126.3218780
 140.7563740  41.0968740 130.0224430 140.6952630  41.6890570 130.7719840
 141.6964120  40.9894700 129.8774690 143.3938300  40.7538800 129.6616720
 144.0078710  41.0718090 128.9997800 143.9387860  40.2687390 130.2812580
 133.9159560  39.4333060 129.7755780 134.4642550  39.2521110 129.0121890
 133.9814870  38.6427170 130.3112090 134.6891320  56.0238710 127.7855980
 134.0951640  55.8923410 128.5246020 134.6815160  55.1876850 127.3198080
 144.1346340  39.3170940 125.9886010 143.2606180  39.6506050 125.7858940
 144.0257090  38.8444120 126.8137880 145.0418320  41.5241810 127.3727730
 144.7131680  40.7093570 126.9929460 145.9900620  41.4811620 127.2493420
 147.4952930  57.2953850 124.3465300 147.0355900  58.0469660 123.9723320
 146.8665390  56.5760320 124.2880100 134.3203550  53.3897090 126.7364020
 133.5937610  52.7702380 126.6689970 134.3812700  53.7837700 125.8662100
 137.9248650  55.6042090 123.5213430 138.4413670  54.9929450 122.9961690
 138.5746030  56.1070870 124.0124440 140.6644150  56.4950580 124.3482410
 140.9521960  56.2404880 123.4715420 141.1767370  55.9427940 124.9387980
 141.8821160  40.2340780 124.9278920 141.0992950  40.7086280 125.2075680
 141.5884090  39.3295610 124.8192100 146.4342230  40.9363880 122.9728010
 146.8750320  40.8808980 122.1249610 146.1649820  41.8521890 123.0438190
 132.6033550  56.7071480 119.9460780 132.4355590  56.0742160 120.6442670
 131.7368060  56.9130880 119.5954970 133.2261570  40.5388260 117.4492640
 133.9840930  40.6517140 116.8756670 132.7638740  41.3757460 117.4036070
 139.7675380  42.6527530 120.4394950 138.9549890  42.2784420 120.0990830
 140.2717020  41.8972610 120.7416140 144.2700360  39.3169980 121.6778020
 144.8729730  39.8890190 122.1526540 143.5293350  39.8809420 121.4551920
 147.4134960  39.7191540 116.9518300 147.6085590  40.6174990 117.2185730
 146.6264830  39.4878620 117.4451250 134.2096250  55.4004710 117.3910920
 133.6843870  55.7812740 116.6872880 134.1340830  56.0255480 118.1120630
 135.5986720  41.0652310 115.9894610 136.1279480  40.2782110 115.8602560
 136.2315040  41.7443500 116.2230140 137.7924560  40.8027450 119.0440000
 137.1627300  40.1014760 119.2110130 137.2529700  41.5631580 118.8273160
 140.7316510  57.4166680 131.7150610 141.6583820  57.1810950 131.7586570
 140.7166940  58.2438680 131.2336640 137.9180120  40.0811430 131.4792490
 137.6364390  40.5845030 130.7153310 138.2999820  39.2833180 131.1134620
 136.8089220  57.3487090 116.2660170 137.5408040  57.0646370 115.7184060
 137.0682890  57.1100370 117.1559550 135.9704010  53.4651820 116.2706500
 135.3412890  53.9336920 116.8192330 136.0851840  52.6201040 116.7052690
 144.5195580  39.4965010 132.0572960 144.4061030  39.8159620 132.9524480
 145.3365320  39.8977520 131.7610240 147.2994070  56.6436540 131.5391650
 148.0919390  56.1485770 131.3317610 147.5927220  57.3226680 132.1467260
 143.4253730  47.5157480 102.4207700 143.3447780  46.6012090 102.1499410
 143.0118150  48.0124550 101.7147410 141.5571770  49.2936500 104.3016970
 140.7813870  48.8136940 104.5915540 142.2084700  48.6142150 104.1273130
 135.5737600  49.6056310 105.1792730 134.7422480  49.3505020 105.5789240
 136.1818580  49.6767080 105.9150650 145.5779200  53.6996690 103.0816100
 145.1160730  52.9283930 103.4103270 146.3904750  53.7262760 103.5868550
 135.5538860  53.6396400 105.3750750 135.8566900  52.7494140 105.1960970
 136.2982450  54.1966620 105.1473000 133.9829550  44.5658200  98.9635120
 133.0946250  44.9074170  98.8615000 134.2670740  44.3658520  98.0715950
 131.9462560  47.1663850 104.8474820 132.5178670  46.3986050 104.8478460
 131.9464100  47.4652610 103.9381430 141.8042510  55.9854700 102.7020090
 141.1853950  56.4412200 102.1314530 142.6594290  56.1406160 102.3009790
 140.9980760  51.9693690 104.3087130 140.9289040  51.0283630 104.1476260
 141.7600620  52.0595100 104.8809700 133.1887430  42.5748210 106.6343750
 133.0090270  41.6773960 106.9146510 132.7867510  43.1220080 107.3090700
 142.0285930  44.7764070 104.5356060 142.4050750  43.9035950 104.4229730
 141.9305440  45.1122770 103.6446500 136.1590940  43.1489700  99.9973500
 136.2657690  44.0493430 100.3042260 135.2483300  43.1007670  99.7068150
 145.8110050  42.2714510 101.4684400 146.6319670  41.7811080 101.5109880
 145.8444130  42.8612170 102.2216240 133.8074100  45.0708710 105.2426090
 134.4884210  45.3347080 105.8613490 133.4922150  44.2309580 105.5764100
 137.9998670  46.1176070 104.3298680 138.5076890  46.6157040 104.9703700
 138.5311910  45.3411270 104.1538040 136.2834770  40.7574630 108.5962100
 136.2853210  41.2747020 107.7908000 135.4539080  40.2804810 108.5732030
 142.6705860  50.8693940 100.0952000 142.0523130  51.3343390  99.5314720
 143.1829110  51.5621420 100.5121510 137.5337620  50.3969810 106.7735600
 137.2007000  51.0238730 107.4156670 137.7104300  50.9231690 105.9937270
 146.0471530  44.2114890 104.2411940 145.3427100  44.4999780 104.8215050
 146.4083690  45.0215000 103.8811500 135.9650100  42.4684590 106.6032550
 136.3066910  43.3126640 106.3086420 135.0265910  42.6168330 106.7197890
 136.7456720  52.3650610 108.5884780 137.3630720  53.0401690 108.3069230
 135.8849840  52.7738590 108.4972280 132.0389060  51.5550470  97.4691630
 131.6617040  52.0437570  96.7376530 132.2962130  52.2275750  98.0998160
 147.6634310  53.8290020 106.5039420 146.9797830  54.4989130 106.4956090
 148.2028600  54.0270670 105.7384280 139.6477990  39.9566860 102.9277140
 139.9552970  39.4013750 102.2112640 138.7178690  40.0911320 102.7450130
 145.1993050  55.6734150 105.2184600 145.2120210  55.2696440 104.3506860
 144.6468270  56.4481440 105.1146030 146.4938470  52.3950370 100.3074770
 146.3834800  51.4524700 100.4324190 146.4906720  52.7566010 101.1937530
 144.5978490  50.5763990 106.5467210 145.0147280  50.3624100 105.7120670
 145.3218310  50.8336780 107.1175830 142.0358750  48.0215690  99.6637260
 141.1088030  47.9553070  99.8925730 142.1883570  48.9595820  99.5492500
 142.0227830  44.2932690  96.6604420 141.0831500  44.4546650  96.7456880
 142.3411090  45.0118370  96.1140410 146.0656040  49.5835990 100.1672510
 145.4468460  49.2455540  99.5198810 146.0480490  48.9395750 100.8751700
 145.5082600  45.7620530 107.5838320 145.0953780  46.5874240 107.8378310
 144.7758550  45.1765570 107.3914680 137.6415390  48.5480430 102.4456990
 137.2372390  47.8357680 101.9502890 137.7278510  48.2033670 103.3345030
 138.1097090  52.2347990 104.6096200 137.8125380  51.6293460 103.9303980
 139.0596910  52.2725300 104.4985560 136.3544010  45.3223640 106.2256030
 136.9058600  45.4318980 105.4509280 136.8687520  45.6961240 106.9411260
 146.1982700  55.8079860 108.2719300 145.7213260  56.6152050 108.0791910
 145.5144490  55.1558190 108.4245510 137.2015520  51.9729680 111.2604000
 136.3044050  52.1969650 111.5077400 137.2268390  52.0964620 110.3115400
 144.2420740  48.8222800  97.1745260 144.6814020  47.9845230  97.0283080
 144.9549160  49.4552200  97.2609400 136.0286740  48.8443000 109.8361370
 135.8894510  49.7165800 110.2048770 135.1468100  48.5015810 109.6909310
 142.3516120  53.7618870 101.1426500 142.7912030  54.5043200 100.7281890
 142.2903010  54.0045440 102.0665460 137.8267090  54.7864700 112.0446520
 137.7982520  55.1907650 111.1774950 137.6632060  53.8575060 111.8818120
 147.8237880  40.0765610  95.4886300 147.5110540  40.1692440  96.3885370
 148.5850350  40.6546640  95.4383730 134.3420020  47.4425410  99.9463640
 134.2217620  48.1687500  99.3344910 134.0320910  46.6728320  99.4691550
 131.9805390  50.6140550 105.7532280 132.0585810  50.7489320 104.8088000
 132.5947070  49.9056440 105.9460400 133.2253020  52.3140740 102.1638460
 132.8181100  52.4555330 101.3092060 134.1166030  52.0300900 101.9609670
 143.0431900  56.4632650 109.0705510 143.5576570  56.3740660 109.8727940
 142.2000980  56.8092350 109.3633420 145.0186300  56.7487990  98.4989510
 144.8587440  56.4590930  99.3971340 144.8533010  55.9728120  97.9634740
 137.4974680  56.5286520 100.2761130 137.3217160  55.6122060 100.0628930
 136.6430420  56.8873810 100.5158930 144.7212430  54.2575550  97.0587510
 144.0277590  54.2552840  96.3989790 145.4635290  53.8334870  96.6281680
 144.2862360  55.8838260 101.1336000 144.7419310  55.1027640 101.4474620
 144.6254880  56.5945080 101.6777180 132.0364910  51.6554720 108.2926740
 132.1995950  51.1860080 107.4746110 132.5017360  51.1478280 108.9575580
 136.8083680  40.7860480 103.3287310 136.3651830  41.5670020 102.9971830
 137.3668670  41.1090370 104.0358250 141.0953490  43.6529000 108.9322630
 140.6332860  43.8612020 109.7442570 140.6931600  42.8388350 108.6293300
 146.0958000  44.8737950 110.0619290 145.2451590  44.5743700 110.3828360
 145.9359790  45.1179960 109.1503110 143.1907710  46.3739700 112.1618080
 143.5161120  45.5403450 111.8220310 143.9788040  46.8968220 112.3096410
 139.9242500  40.4071180  98.2093140 139.2996680  40.4031050  98.9346450
 139.8372620  39.5402140  97.8129110 138.8459580  41.3307810 105.1876910
 139.1431910  42.2370640 105.1068930 139.3945140  40.8426590 104.5736480
 136.5997900  45.9094050 101.0568560 136.3738820  45.6931220 101.9615180
 135.8190430  46.3422510 100.7114530 143.8295660  45.9157420  99.6559210
 143.2304550  46.6393220  99.4722830 144.3775270  45.8534200  98.8735660
 139.0397110  46.8079630 111.7228830 138.9440710  45.8674360 111.5729230
 139.8829090  47.0294700 111.3276900 142.4360530  44.5520960 101.6862490
 142.8290100  44.8693160 100.8731180 142.7977380  43.6732840 101.8007010
 134.1707650  43.2193300 109.8762610 133.7771040  44.0668510 110.0835390
 133.4826050  42.5819670 110.0671250 140.7452700  43.3028270 112.9459350
 140.0551020  43.1100470 113.5805440 141.4885000  43.5862910 113.4783650
 131.4724700  41.1421760 103.9092690 131.1837750  41.7124620 104.6217670
 132.2170460  40.6626210 104.2723920 131.6594930  45.0841880  95.1195410
 131.5769600  46.0272640  95.2610400 131.3077990  44.9416790  94.2407760
 143.0215670  47.1426710 105.7813270 142.2896790  47.6513520 106.1303370
 142.6240010  46.3256690 105.4802050 139.4593060  43.8180910 104.1865760
 139.4629120  43.3770860 103.3370300 140.3544180  44.1398240 104.2937580
 135.3095440  43.7007400 103.1459970 134.9695490  44.1782630 103.9027020
 134.5472760  43.2472520 102.7861070 139.5213210  44.8192990  97.1772520
 139.6426030  44.7779470  98.1258340 139.1361720  45.6817140  97.0219250
 143.4841580  42.5960390 105.1936210 143.5014320  43.0469040 106.0378060
 143.2357160  41.6966030 105.4069650 138.5334710  47.1294130  96.5755820
 137.9651610  46.6812380  95.9491730 139.2423710  47.4886910  96.0420970
 146.9112330  40.0092570 111.0322590 147.2358100  39.2782230 111.5580570
 146.9468840  39.6906210 110.1303580 133.6103890  51.0306150 110.4522550
 133.2258680  50.3899820 111.0505510 133.9216080  51.7342270 111.0217280
 139.7601030  47.8782690 105.9331170 140.1271160  47.4041260 106.6792510
 139.5706090  48.7524260 106.2739510 132.6241520  42.6226380 102.0624640
 132.3388440  42.2582050 102.9003260 132.5620380  41.8906840 101.4487780
 137.5500400  46.9191330 108.2515380 137.2457470  47.7983310 108.4765740
 138.5046860  46.9791120 108.2872820 136.0782190  51.1252320  98.8482230
 135.3044450  50.5849940  98.6880950 136.8076820  50.6058930  98.5099990
 146.8370170  50.1217680 104.6408620 147.5569290  50.6172970 104.2504730
 146.6351990  49.4435570 103.9962490 142.2980110  41.5155640  98.7838010
 141.4844720  41.0168810  98.7083320 142.1042060  42.3553890  98.3674360
 142.2188970  50.1926740 110.5277620 142.1526280  49.2722410 110.2735210
 141.5894110  50.2902180 111.2422260 145.0128500  45.8875290  97.0800170
 145.9008120  46.1992520  96.9051510 144.9833590  45.0147540  96.6880750
 136.1219590  50.7932700 102.4861040 136.6398260  49.9900960 102.4317930
 135.6703610  50.7311840 103.3277870 141.0089090  52.0598980  97.7588340
 141.3504790  52.8041210  97.2631660 140.1801800  52.3730100  98.1213170
 133.6064130  47.7594070 109.3986740 133.2479070  48.4247920 109.9860080
 133.3118690  46.9277620 109.7699360 136.8077250  48.2178310 112.2826290
 136.5077390  48.3635490 111.3854110 137.5788490  47.6583600 112.1899680
 142.1505700  53.0147310 110.2781420 142.1650240  52.0828270 110.0600330
 141.4430800  53.1007070 110.9171190 147.2842770  47.1987130  96.5480030
 147.2006490  47.6301350  95.6976470 148.0036960  47.6585480  96.9806850
 148.3130020  54.0529390  99.2762160 147.6706180  53.3985010  99.5505880
 147.9260680  54.4584480  98.5002830 143.8916500  51.3814820 103.1233850
 144.2440320  50.7842950 102.4635220 143.0078830  51.0559050 103.2942100
 139.9779780  52.1412510 100.5304260 140.6650910  52.6881720 100.9111850
 139.1912200  52.6853240 100.5653870 132.1172180  47.7585330  96.0221340
 132.9867030  48.0410130  96.3057260 131.6262500  48.5721200  95.9070150
 139.2806990  49.1458540 100.1429620 139.7369770  49.9563790 100.3689810
 138.9295200  48.8281680 100.9748110 141.5839600  54.6564880 107.3721920
 142.2281820  54.8624260 108.0495340 141.9469040  53.8953280 106.9192770
 135.1818770  39.4896190 100.6152140 135.0533400  39.4814090 101.5637060
 134.3580790  39.8279280 100.2643150 142.8571680  52.6597230 106.0899370
 143.4993910  51.9590390 106.2031540 143.3821030  53.4395670 105.9096260
 146.7027400  52.9445850  95.8138510 146.4764980  52.2276290  96.4063150
 146.3123600  52.6958290  94.9760260 144.6309300  53.4592130 109.2935430
 144.9665540  54.0458820 109.9713350 143.7109640  53.3284840 109.5233220
 132.4843430  56.9712710  96.5882970 132.8441070  57.5702050  95.9340240
 132.3435770  57.5172600  97.3618000 132.1812700  41.2487310 110.0758840
 131.4671220  41.4484230 110.6811450 132.6007740  40.4726880 110.4473640
 146.2843650  50.8617790  97.4752670 145.9965350  51.3230480  98.2630550
 147.0795820  50.4015560  97.7436890 132.4685290  55.2367570 111.0625370
 132.5776410  54.2962310 110.9220760 131.8165850  55.5022320 110.4139100
 140.4597880  53.5083460 112.4623490 140.1394750  52.7892700 113.0069180
 139.7856240  54.1838530 112.5359550 138.5012050  54.3543910  97.4056640
 138.4922150  55.0873600  96.7901150 137.5810410  54.1075490  97.4983600
 134.1018690  49.5758800  98.1503400 133.4946640  50.3157700  98.1598700
 134.5768040  49.6658160  97.3241600 143.6751480  43.7409620 107.8260290
 144.0432300  42.9204830 108.1539860 142.8149680  43.8011510 108.2415940
 147.0413510  42.6966560  98.6347850 146.4126670  42.8012230  97.9206080
 146.5465430  42.9163340  99.4241730 141.4871650  54.4172150  96.0681830
 141.5883630  54.2136140  95.1383810 140.5873390  54.1630430  96.2729610
 139.0097540  44.9752510 100.0505730 138.3013690  45.4438850 100.4919340
 139.2942020  44.3174520 100.6850920 140.6353470  46.3949210 108.0498260
 141.1338720  46.8695030 108.7150110 140.7776420  45.4712730 108.2568290
 143.0412970  41.7003170 101.4901520 142.9180750  41.7189300 100.5411030
 143.9897530  41.7482110 101.6099920 140.1289760  56.9358470 100.7629500
 140.3831260  56.8979860  99.8408870 139.1802240  56.8091800 100.7557750
 137.2132560  43.2837590  97.4256440 138.0623090  43.7207740  97.3596630
 136.8463830  43.5957850  98.2528500 147.8420330  42.6117170 108.8926650
 147.3393930  43.3522570 109.2320460 148.6576990  43.0001170 108.5763440
 146.1342340  47.8550350 102.3388010 145.1932480  47.8700580 102.5135700
 146.4486410  47.0686310 102.7848310 136.1123980  49.5369950  95.8991970
 136.8787250  49.4251310  96.4617400 136.1898670  48.8407920  95.2468740
 134.8070740  46.9695020  96.5824860 134.8874330  46.0222530  96.6942260
 135.6990490  47.3001900  96.6885520 135.6085450  57.1190410 103.6859400
 136.3447930  56.5705870 103.9567970 135.9926370  57.9846420 103.5465390
 132.4930930  53.1863980  99.5600910 131.5670710  53.4285120  99.5506320
 132.9587360  54.0138240  99.4385660 134.6143730  56.3036480 112.8744980
 135.4156460  56.6248530 113.2880380 134.0995550  55.9432060 113.5964890
 138.7187760  56.2920720  95.5084970 139.5116370  56.5809550  95.0566760
 138.1992110  55.8612890  94.8297450 143.4508360  52.4116350 112.8220390
 142.8446520  52.4347950 112.0816140 143.1462470  51.6799390 113.3587640
 144.8808730  56.1396640 111.4329800 145.8330480  56.0554660 111.3830040
 144.7336950  56.8038350 112.1063590 147.7717930  55.5190850  96.9321710
 147.4859440  55.1055990  96.1175890 147.5737480  56.4478560  96.8122230
 132.3341540  48.7909940 111.8181030 132.8380560  48.2117220 112.3897260
 131.5948960  49.0750170 112.3557400 139.2365160  51.5124130  95.3727320
 139.1315800  50.8976480  96.0988700 139.0689380  50.9890020  94.5890330
 139.3879480  50.1980930 111.3516550 138.6225150  50.7665930 111.2671220
 139.5695440  49.9057140 110.4584780 142.4767890  50.5744160  95.9769310
 141.9277990  51.0213460  96.6212050 143.0987150  50.0693410  96.5006980
 146.5302830  51.9286260 111.9091570 147.2712300  52.2662020 111.4059030
 145.7675510  52.0978320 111.3561340 134.3664620  46.9339530 112.7131100
 134.4069960  46.6353400 113.6216330 135.2210120  47.3347140 112.5538620
 138.1443010  49.5335080  97.8734610 138.5659430  49.3674950  98.7166000
 138.2693850  48.7235310  97.3789750 136.3070430  45.5131630 110.6805590
 135.7766890  45.0222580 110.0528930 136.9758500  45.9415830 110.1463520
 140.6570650  48.5572690  95.1211710 141.1776310  47.8421710  94.7552860
 141.3039050  49.1958560  95.4212220 145.2048490  49.9801090 110.4446780
 145.6189510  50.1346170 111.2937200 144.2699490  50.1056310 110.6072560
 145.6770660  47.3197250 112.4485930 146.2591430  46.5649570 112.3606410
 145.8532430  47.8504690 111.6717410 136.7942730  42.4794000 110.7602880
 136.6999600  41.8614750 110.0353750 136.2140120  43.2060290 110.5332790
 139.5604170  41.0367240 107.7930270 139.1121470  41.0591500 106.9475820
 138.9269370  40.6386260 108.3900570 139.9663720  49.9321570 108.4142710
 140.3851830  50.7754300 108.2418950 139.0472350  50.0693610 108.1849490
 142.3027620  47.6637750 109.7980550 142.4223830  47.0678890 110.5375390
 143.1621620  47.7007440 109.3781850 144.6415520  48.2174940 108.3743060
 144.1150740  48.7417560 107.7708200 144.9846860  48.8502330 109.0052790
 137.0401910  45.6068310  94.8192770 136.8390970  44.7435670  95.1806110
 136.8693960  45.5201670  93.8814370 137.8171140  56.2374580 109.5300440
 137.2792230  56.9620640 109.2109140 138.0705100  55.7604920 108.7397780
 139.0696390  44.2059100 111.0556370 139.6596080  43.8974950 111.7434190
 138.2516630  43.7338850 111.2116270 143.8889820  43.8224910 111.2889390
 143.2005340  43.1606450 111.2239380 144.6095840  43.3763180 111.7337850
 144.5190220  40.4176540  97.3479650 144.7992510  39.5744440  97.7039070
 143.7455950  40.6499650  97.8618400 135.8384710  42.7068930  94.8070650
 136.1410610  42.7136360  93.8989800 136.5779300  42.3566790  95.3038310
 140.6733350  57.4725790 109.7887090 140.5992050  58.3760930 110.0959460
 139.7712190  57.1537690 109.7609160 139.0569640  41.6503550  95.7926850
 138.7091640  40.9727540  95.2129300 139.2582410  41.1893060  96.6070240
 141.2218680  56.6384300  97.4113450 142.1169470  56.9769270  97.4332210
 141.2536310  55.9163710  96.7837730 134.8614840  52.0111350  95.6400450
 135.2989710  52.5541020  96.2958030 135.3462570  51.1858300  95.6496790
 132.0760640  54.8000380 103.0920710 132.4063650  53.9321440 102.8599350
 132.5051640  55.0058900 103.9225670 136.6722560  53.1309390 100.7522680
 136.3718100  53.0074360 101.6526590 136.5660050  52.2717980 100.3438410
 132.5650850  55.6670970 105.8302340 132.1281840  55.8471770 106.6626490
 133.1328530  56.4245590 105.6884060 148.2013030  55.1687970 110.1179650
 147.6015020  55.2280530 109.3743570 148.3306930  54.2292950 110.2476500
 132.3975280  48.1791200 102.1891220 131.7424120  47.9102840 101.5450920
 133.2353230  48.0695680 101.7393200 146.8864670  51.8939950 108.2155810
 146.0724510  52.3237110 108.4781600 147.2938870  52.5058360 107.6024860
 145.3465720  42.9732490  96.4109710 145.7650600  42.7863470  95.5706370
 145.0401780  42.1211540  96.7212640 133.4351210  48.5643770 106.7294560
 133.8024250  48.4771170 107.6090580 132.8662030  47.8010320 106.6301420
 148.2355070  47.0328150 109.7425030 148.0041160  46.8040900 108.8422980
 148.4959620  47.9527700 109.6969920 132.9867210  45.4752860 110.6352980
 132.0923260  45.4419620 110.9746690 133.5264760  45.6739650 111.4004230
 146.6743140  42.2584580 112.5204730 147.5513320  42.2667980 112.9038730
 146.6863980  41.5215420 111.9097080 131.6113360  45.3890130  98.1316550
 130.7077440  45.6520330  97.9568210 132.0953980  45.6601300  97.3516510
 148.2996130  46.1953990 106.9312300 147.3498840  46.1617530 107.0457290
 148.4809140  47.1054100 106.6962070 134.1540570  44.4455670  96.0410930
 134.8632270  44.0238890  95.5558210 133.4380510  44.5130900  95.4094280
 133.8014730  40.4995000  95.0813580 134.5242860  41.0403940  95.3994800
 134.0739250  40.2258420  94.2055120 147.6106380  45.3687470  99.3485160
 148.1065500  45.1358340 100.1334040 147.4122450  44.5299310  98.9322800
 133.4906920  39.7501190 104.9836200 134.1383110  39.1998570 104.5431360
 133.9108760  40.0044340 105.8052010 147.3859260  39.9442550 108.3405840
 148.0231480  40.5576690 108.7065030 147.5334150  39.9803210 107.3955070
 146.9440720  56.6458550 101.7424080 147.5399790  56.3243120 101.0658500
 147.2018870  56.1730370 102.5337350 133.2438920  39.9056860 107.7261520
 132.8953740  40.3620680 108.4919700 132.9126620  39.0113990 107.8083950
 134.8503290  53.0776460 111.8914710 134.8072920  52.7069370 112.7729170
 134.9814300  54.0154030 112.0316530 138.5509320  54.6336050 107.4924430
 138.3100680  54.9010610 106.6054950 139.4911960  54.8041780 107.5475290
 140.7563740  41.0968740 111.2480940 140.6952630  41.6890570 111.9976350
 141.6964120  40.9894700 111.1031200 143.3938300  40.7538800 110.8873230
 144.0078710  41.0718090 110.2254310 143.9387860  40.2687390 111.5069090
 133.9159560  39.4333060 111.0012290 134.4642550  39.2521110 110.2378400
 133.9814870  38.6427170 111.5368600 134.6891320  56.0238710 109.0112490
 134.0951640  55.8923410 109.7502530 134.6815160  55.1876850 108.5454590
 144.1346340  39.3170940 107.2142520 143.2606180  39.6506050 107.0115450
 144.0257090  38.8444120 108.0394390 145.0418320  41.5241810 108.5984240
 144.7131680  40.7093570 108.2185970 145.9900620  41.4811620 108.4749930
 147.4952930  57.2953850 105.5721810 147.0355900  58.0469660 105.1979830
 146.8665390  56.5760320 105.5136610 134.3203550  53.3897090 107.9620530
 133.5937610  52.7702380 107.8946480 134.3812700  53.7837700 107.0918610
 137.9248650  55.6042090 104.7469940 138.4413670  54.9929450 104.2218200
 138.5746030  56.1070870 105.2380950 140.6644150  56.4950580 105.5738920
 140.9521960  56.2404880 104.6971930 141.1767370  55.9427940 106.1644490
 141.8821160  40.2340780 106.1535430 141.0992950  40.7086280 106.4332190
 141.5884090  39.3295610 106.0448610 146.4342230  40.9363880 104.1984520
 146.8750320  40.8808980 103.3506120 146.1649820  41.8521890 104.2694700
 132.6033550  56.7071480 101.1717290 132.4355590  56.0742160 101.8699180
 131.7368060  56.9130880 100.8211480 133.2261570  40.5388260  98.6749150
 133.9840930  40.6517140  98.1013180 132.7638740  41.3757460  98.6292580
 139.7675380  42.6527530 101.6651460 138.9549890  42.2784420 101.3247340
 140.2717020  41.8972610 101.9672650 144.2700360  39.3169980 102.9034530
 144.8729730  39.8890190 103.3783050 143.5293350  39.8809420 102.6808430
 147.4134960  39.7191540  98.1774810 147.6085590  40.6174990  98.4442240
 146.6264830  39.4878620  98.6707760 134.2096250  55.4004710  98.6167430
 133.6843870  55.7812740  97.9129390 134.1340830  56.0255480  99.3377140
 135.5986720  41.0652310  97.2151120 136.1279480  40.2782110  97.0859070
 136.2315040  41.7443500  97.4486650 137.7924560  40.8027450 100.2696510
 137.1627300  40.1014760 100.4366640 137.2529700  41.5631580 100.0529670
 140.7316510  57.4166680 112.9407120 141.6583820  57.1810950 112.9843080
 140.7166940  58.2438680 112.4593150 137.9180120  40.0811430 112.7049000
 137.6364390  40.5845030 111.9409820 138.2999820  39.2833180 112.3391130
 136.8089220  57.3487090  97.4916680 137.5408040  57.0646370  96.9440570
 137.0682890  57.1100370  98.3816060 135.9704010  53.4651820  97.4963010
 135.3412890  53.9336920  98.0448840 136.0851840  52.6201040  97.9309200
 144.5195580  39.4965010 113.2829470 144.4061030  39.8159620 114.1780990
 145.3365320  39.8977520 112.9866750 147.2994070  56.6436540 112.7648160
 148.0919390  56.1485770 112.5574120 147.5927220  57.3226680 113.3723770
 143.4253730  47.5157480  83.6464210 143.3447780  46.6012090  83.3755920
 143.0118150  48.0124550  82.9403920 141.5571770  49.2936500  85.5273480
 140.7813870  48.8136940  85.8172050 142.2084700  48.6142150  85.3529640
 135.5737600  49.6056310  86.4049240 134.7422480  49.3505020  86.8045750
 136.1818580  49.6767080  87.1407160 145.5779200  53.6996690  84.3072610
 145.1160730  52.9283930  84.6359780 146.3904750  53.7262760  84.8125060
 135.5538860  53.6396400  86.6007260 135.8566900  52.7494140  86.4217480
 136.2982450  54.1966620  86.3729510 133.9829550  44.5658200  80.1891630
 133.0946250  44.9074170  80.0871510 134.2670740  44.3658520  79.2972460
 131.9462560  47.1663850  86.0731330 132.5178670  46.3986050  86.0734970
 131.9464100  47.4652610  85.1637940 141.8042510  55.9854700  83.9276600
 141.1853950  56.4412200  83.3571040 142.6594290  56.1406160  83.5266300
 140.9980760  51.9693690  85.5343640 140.9289040  51.0283630  85.3732770
 141.7600620  52.0595100  86.1066210 133.1887430  42.5748210  87.8600260
 133.0090270  41.6773960  88.1403020 132.7867510  43.1220080  88.5347210
 142.0285930  44.7764070  85.7612570 142.4050750  43.9035950  85.6486240
 141.9305440  45.1122770  84.8703010 136.1590940  43.1489700  81.2230010
 136.2657690  44.0493430  81.5298770 135.2483300  43.1007670  80.9324660
 145.8110050  42.2714510  82.6940910 146.6319670  41.7811080  82.7366390
 145.8444130  42.8612170  83.4472750 133.8074100  45.0708710  86.4682600
 134.4884210  45.3347080  87.0870000 133.4922150  44.2309580  86.8020610
 137.9998670  46.1176070  85.5555190 138.5076890  46.6157040  86.1960210
 138.5311910  45.3411270  85.3794550 136.2834770  40.7574630  89.8218610
 136.2853210  41.2747020  89.0164510 135.4539080  40.2804810  89.7988540
 142.6705860  50.8693940  81.3208510 142.0523130  51.3343390  80.7571230
 143.1829110  51.5621420  81.7378020 137.5337620  50.3969810  87.9992110
 137.2007000  51.0238730  88.6413180 137.7104300  50.9231690  87.2193780
 146.0471530  44.2114890  85.4668450 145.3427100  44.4999780  86.0471560
 146.4083690  45.0215000  85.1068010 135.9650100  42.4684590  87.8289060
 136.3066910  43.3126640  87.5342930 135.0265910  42.6168330  87.9454400
 136.7456720  52.3650610  89.8141290 137.3630720  53.0401690  89.5325740
 135.8849840  52.7738590  89.7228790 132.0389060  51.5550470  78.6948140
 131.6617040  52.0437570  77.9633040 132.2962130  52.2275750  79.3254670
 147.6634310  53.8290020  87.7295930 146.9797830  54.4989130  87.7212600
 148.2028600  54.0270670  86.9640790 139.6477990  39.9566860  84.1533650
 139.9552970  39.4013750  83.4369150 138.7178690  40.0911320  83.9706640
 145.1993050  55.6734150  86.4441110 145.2120210  55.2696440  85.5763370
 144.6468270  56.4481440  86.3402540 146.4938470  52.3950370  81.5331280
 146.3834800  51.4524700  81.6580700 146.4906720  52.7566010  82.4194040
 144.5978490  50.5763990  87.7723720 145.0147280  50.3624100  86.9377180
 145.3218310  50.8336780  88.3432340 142.0358750  48.0215690  80.8893770
 141.1088030  47.9553070  81.1182240 142.1883570  48.9595820  80.7749010
 142.0227830  44.2932690  77.8860930 141.0831500  44.4546650  77.9713390
 142.3411090  45.0118370  77.3396920 146.0656040  49.5835990  81.3929020
 145.4468460  49.2455540  80.7455320 146.0480490  48.9395750  82.1008210
 145.5082600  45.7620530  88.8094830 145.0953780  46.5874240  89.0634820
 144.7758550  45.1765570  88.6171190 137.6415390  48.5480430  83.6713500
 137.2372390  47.8357680  83.1759400 137.7278510  48.2033670  84.5601540
 138.1097090  52.2347990  85.8352710 137.8125380  51.6293460  85.1560490
 139.0596910  52.2725300  85.7242070 136.3544010  45.3223640  87.4512540
 136.9058600  45.4318980  86.6765790 136.8687520  45.6961240  88.1667770
 146.1982700  55.8079860  89.4975810 145.7213260  56.6152050  89.3048420
 145.5144490  55.1558190  89.6502020 137.2015520  51.9729680  92.4860510
 136.3044050  52.1969650  92.7333910 137.2268390  52.0964620  91.5371910
 144.2420740  48.8222800  78.4001770 144.6814020  47.9845230  78.2539590
 144.9549160  49.4552200  78.4865910 136.0286740  48.8443000  91.0617880
 135.8894510  49.7165800  91.4305280 135.1468100  48.5015810  90.9165820
 142.3516120  53.7618870  82.3683010 142.7912030  54.5043200  81.9538400
 142.2903010  54.0045440  83.2921970 137.8267090  54.7864700  93.2703030
 137.7982520  55.1907650  92.4031460 137.6632060  53.8575060  93.1074630
 147.8237880  40.0765610  76.7142810 147.5110540  40.1692440  77.6141880
 148.5850350  40.6546640  76.6640240 134.3420020  47.4425410  81.1720150
 134.2217620  48.1687500  80.5601420 134.0320910  46.6728320  80.6948060
 131.9805390  50.6140550  86.9788790 132.0585810  50.7489320  86.0344510
 132.5947070  49.9056440  87.1716910 133.2253020  52.3140740  83.3894970
 132.8181100  52.4555330  82.5348570 134.1166030  52.0300900  83.1866180
 143.0431900  56.4632650  90.2962020 143.5576570  56.3740660  91.0984450
 142.2000980  56.8092350  90.5889930 145.0186300  56.7487990  79.7246020
 144.8587440  56.4590930  80.6227850 144.8533010  55.9728120  79.1891250
 137.4974680  56.5286520  81.5017640 137.3217160  55.6122060  81.2885440
 136.6430420  56.8873810  81.7415440 144.7212430  54.2575550  78.2844020
 144.0277590  54.2552840  77.6246300 145.4635290  53.8334870  77.8538190
 144.2862360  55.8838260  82.3592510 144.7419310  55.1027640  82.6731130
 144.6254880  56.5945080  82.9033690 136.8083680  40.7860480  84.5543820
 136.3651830  41.5670020  84.2228340 137.3668670  41.1090370  85.2614760
 141.0953490  43.6529000  90.1579140 140.6332860  43.8612020  90.9699080
 140.6931600  42.8388350  89.8549810 146.0958000  44.8737950  91.2875800
 145.2451590  44.5743700  91.6084870 145.9359790  45.1179960  90.3759620
 143.1907710  46.3739700  93.3874590 143.5161120  45.5403450  93.0476820
 143.9788040  46.8968220  93.5352920 139.9242500  40.4071180  79.4349650
 139.2996680  40.4031050  80.1602960 139.8372620  39.5402140  79.0385620
 138.8459580  41.3307810  86.4133420 139.1431910  42.2370640  86.3325440
 139.3945140  40.8426590  85.7992990 136.5997900  45.9094050  82.2825070
 136.3738820  45.6931220  83.1871690 135.8190430  46.3422510  81.9371040
 143.8295660  45.9157420  80.8815720 143.2304550  46.6393220  80.6979340
 144.3775270  45.8534200  80.0992170 139.0397110  46.8079630  92.9485340
 138.9440710  45.8674360  92.7985740 139.8829090  47.0294700  92.5533410
 142.4360530  44.5520960  82.9119000 142.8290100  44.8693160  82.0987690
 142.7977380  43.6732840  83.0263520 134.1707650  43.2193300  91.1019120
 133.7771040  44.0668510  91.3091900 133.4826050  42.5819670  91.2927760
 140.7452700  43.3028270  94.1715860 140.0551020  43.1100470  94.8061950
 141.4885000  43.5862910  94.7040160 131.4724700  41.1421760  85.1349200
 131.1837750  41.7124620  85.8474180 132.2170460  40.6626210  85.4980430
 131.6594930  45.0841880  76.3451920 131.5769600  46.0272640  76.4866910
 131.3077990  44.9416790  75.4664270 143.0215670  47.1426710  87.0069780
 142.2896790  47.6513520  87.3559880 142.6240010  46.3256690  86.7058560
 139.4593060  43.8180910  85.4122270 139.4629120  43.3770860  84.5626810
 140.3544180  44.1398240  85.5194090 135.3095440  43.7007400  84.3716480
 134.9695490  44.1782630  85.1283530 134.5472760  43.2472520  84.0117580
 139.5213210  44.8192990  78.4029030 139.6426030  44.7779470  79.3514850
 139.1361720  45.6817140  78.2475760 143.4841580  42.5960390  86.4192720
 143.5014320  43.0469040  87.2634570 143.2357160  41.6966030  86.6326160
 138.5334710  47.1294130  77.8012330 137.9651610  46.6812380  77.1748240
 139.2423710  47.4886910  77.2677480 146.9112330  40.0092570  92.2579100
 147.2358100  39.2782230  92.7837080 146.9468840  39.6906210  91.3560090
 133.6103890  51.0306150  91.6779060 133.2258680  50.3899820  92.2762020
 133.9216080  51.7342270  92.2473790 139.7601030  47.8782690  87.1587680
 140.1271160  47.4041260  87.9049020 139.5706090  48.7524260  87.4996020
 132.6241520  42.6226380  83.2881150 132.3388440  42.2582050  84.1259770
 132.5620380  41.8906840  82.6744290 137.5500400  46.9191330  89.4771890
 137.2457470  47.7983310  89.7022250 138.5046860  46.9791120  89.5129330
 136.0782190  51.1252320  80.0738740 135.3044450  50.5849940  79.9137460
 136.8076820  50.6058930  79.7356500 146.8370170  50.1217680  85.8665130
 147.5569290  50.6172970  85.4761240 146.6351990  49.4435570  85.2219000
 142.2980110  41.5155640  80.0094520 141.4844720  41.0168810  79.9339830
 142.1042060  42.3553890  79.5930870 142.2188970  50.1926740  91.7534130
 142.1526280  49.2722410  91.4991720 141.5894110  50.2902180  92.4678770
 145.0128500  45.8875290  78.3056680 145.9008120  46.1992520  78.1308020
 144.9833590  45.0147540  77.9137260 136.1219590  50.7932700  83.7117550
 136.6398260  49.9900960  83.6574440 135.6703610  50.7311840  84.5534380
 141.0089090  52.0598980  78.9844850 141.3504790  52.8041210  78.4888170
 140.1801800  52.3730100  79.3469680 133.6064130  47.7594070  90.6243250
 133.2479070  48.4247920  91.2116590 133.3118690  46.9277620  90.9955870
 136.8077250  48.2178310  93.5082800 136.5077390  48.3635490  92.6110620
 137.5788490  47.6583600  93.4156190 142.1505700  53.0147310  91.5037930
 142.1650240  52.0828270  91.2856840 141.4430800  53.1007070  92.1427700
 147.2842770  47.1987130  77.7736540 147.2006490  47.6301350  76.9232980
 148.0036960  47.6585480  78.2063360 148.3130020  54.0529390  80.5018670
 147.6706180  53.3985010  80.7762390 147.9260680  54.4584480  79.7259340
 143.8916500  51.3814820  84.3490360 144.2440320  50.7842950  83.6891730
 143.0078830  51.0559050  84.5198610 139.9779780  52.1412510  81.7560770
 140.6650910  52.6881720  82.1368360 139.1912200  52.6853240  81.7910380
 132.1172180  47.7585330  77.2477850 132.9867030  48.0410130  77.5313770
 131.6262500  48.5721200  77.1326660 139.2806990  49.1458540  81.3686130
 139.7369770  49.9563790  81.5946320 138.9295200  48.8281680  82.2004620
 141.5839600  54.6564880  88.5978430 142.2281820  54.8624260  89.2751850
 141.9469040  53.8953280  88.1449280 135.1818770  39.4896190  81.8408650
 135.0533400  39.4814090  82.7893570 134.3580790  39.8279280  81.4899660
 142.8571680  52.6597230  87.3155880 143.4993910  51.9590390  87.4288050
 143.3821030  53.4395670  87.1352770 146.7027400  52.9445850  77.0395020
 146.4764980  52.2276290  77.6319660 146.3123600  52.6958290  76.2016770
 144.6309300  53.4592130  90.5191940 144.9665540  54.0458820  91.1969860
 143.7109640  53.3284840  90.7489730 132.1812700  41.2487310  91.3015350
 131.4671220  41.4484230  91.9067960 132.6007740  40.4726880  91.6730150
 146.2843650  50.8617790  78.7009180 145.9965350  51.3230480  79.4887060
 147.0795820  50.4015560  78.9693400 140.4597880  53.5083460  93.6880000
 140.1394750  52.7892700  94.2325690 139.7856240  54.1838530  93.7616060
 138.5012050  54.3543910  78.6313150 138.4922150  55.0873600  78.0157660
 137.5810410  54.1075490  78.7240110 134.1018690  49.5758800  79.3759910
 133.4946640  50.3157700  79.3855210 134.5768040  49.6658160  78.5498110
 143.6751480  43.7409620  89.0516800 144.0432300  42.9204830  89.3796370
 142.8149680  43.8011510  89.4672450 147.0413510  42.6966560  79.8604360
 146.4126670  42.8012230  79.1462590 146.5465430  42.9163340  80.6498240
 141.4871650  54.4172150  77.2938340 141.5883630  54.2136140  76.3640320
 140.5873390  54.1630430  77.4986120 139.0097540  44.9752510  81.2762240
 138.3013690  45.4438850  81.7175850 139.2942020  44.3174520  81.9107430
 140.6353470  46.3949210  89.2754770 141.1338720  46.8695030  89.9406620
 140.7776420  45.4712730  89.4824800 143.0412970  41.7003170  82.7158030
 142.9180750  41.7189300  81.7667540 143.9897530  41.7482110  82.8356430
 140.1289760  56.9358470  81.9886010 140.3831260  56.8979860  81.0665380
 139.1802240  56.8091800  81.9814260 137.2132560  43.2837590  78.6512950
 138.0623090  43.7207740  78.5853140 136.8463830  43.5957850  79.4785010
 147.8420330  42.6117170  90.1183160 147.3393930  43.3522570  90.4576970
 148.6576990  43.0001170  89.8019950 146.1342340  47.8550350  83.5644520
 145.1932480  47.8700580  83.7392210 146.4486410  47.0686310  84.0104820
 136.1123980  49.5369950  77.1248480 136.8787250  49.4251310  77.6873910
 136.1898670  48.8407920  76.4725250 134.8070740  46.9695020  77.8081370
 134.8874330  46.0222530  77.9198770 135.6990490  47.3001900  77.9142030
 135.6085450  57.1190410  84.9115910 136.3447930  56.5705870  85.1824480
 135.9926370  57.9846420  84.7721900 132.4930930  53.1863980  80.7857420
 131.5670710  53.4285120  80.7762830 132.9587360  54.0138240  80.6642170
 134.6143730  56.3036480  94.1001490 135.4156460  56.6248530  94.5136890
 134.0995550  55.9432060  94.8221400 138.7187760  56.2920720  76.7341480
 139.5116370  56.5809550  76.2823270 138.1992110  55.8612890  76.0553960
 143.4508360  52.4116350  94.0476900 142.8446520  52.4347950  93.3072650
 143.1462470  51.6799390  94.5844150 144.8808730  56.1396640  92.6586310
 145.8330480  56.0554660  92.6086550 144.7336950  56.8038350  93.3320100
 147.7717930  55.5190850  78.1578220 147.4859440  55.1055990  77.3432400
 147.5737480  56.4478560  78.0378740 132.3341540  48.7909940  93.0437540
 132.8380560  48.2117220  93.6153770 131.5948960  49.0750170  93.5813910
 139.2365160  51.5124130  76.5983830 139.1315800  50.8976480  77.3245210
 139.0689380  50.9890020  75.8146840 139.3879480  50.1980930  92.5773060
 138.6225150  50.7665930  92.4927730 139.5695440  49.9057140  91.6841290
 142.4767890  50.5744160  77.2025820 141.9277990  51.0213460  77.8468560
 143.0987150  50.0693410  77.7263490 146.5302830  51.9286260  93.1348080
 147.2712300  52.2662020  92.6315540 145.7675510  52.0978320  92.5817850
 134.3664620  46.9339530  93.9387610 134.4069960  46.6353400  94.8472840
 135.2210120  47.3347140  93.7795130 138.1443010  49.5335080  79.0991120
 138.5659430  49.3674950  79.9422510 138.2693850  48.7235310  78.6046260
 136.3070430  45.5131630  91.9062100 135.7766890  45.0222580  91.2785440
 136.9758500  45.9415830  91.3720030 140.6570650  48.5572690  76.3468220
 141.1776310  47.8421710  75.9809370 141.3039050  49.1958560  76.6468730
 145.2048490  49.9801090  91.6703290 145.6189510  50.1346170  92.5193710
 144.2699490  50.1056310  91.8329070 145.6770660  47.3197250  93.6742440
 146.2591430  46.5649570  93.5862920 145.8532430  47.8504690  92.8973920
 136.7942730  42.4794000  91.9859390 136.6999600  41.8614750  91.2610260
 136.2140120  43.2060290  91.7589300 139.5604170  41.0367240  89.0186780
 139.1121470  41.0591500  88.1732330 138.9269370  40.6386260  89.6157080
 139.9663720  49.9321570  89.6399220 140.3851830  50.7754300  89.4675460
 139.0472350  50.0693610  89.4106000 142.3027620  47.6637750  91.0237060
 142.4223830  47.0678890  91.7631900 143.1621620  47.7007440  90.6038360
 144.6415520  48.2174940  89.5999570 144.1150740  48.7417560  88.9964710
 144.9846860  48.8502330  90.2309300 137.0401910  45.6068310  76.0449280
 136.8390970  44.7435670  76.4062620 136.8693960  45.5201670  75.1070880
 137.8171140  56.2374580  90.7556950 137.2792230  56.9620640  90.4365650
 138.0705100  55.7604920  89.9654290 139.0696390  44.2059100  92.2812880
 139.6596080  43.8974950  92.9690700 138.2516630  43.7338850  92.4372780
 143.8889820  43.8224910  92.5145900 143.2005340  43.1606450  92.4495890
 144.6095840  43.3763180  92.9594360 144.5190220  40.4176540  78.5736160
 144.7992510  39.5744440  78.9295580 143.7455950  40.6499650  79.0874910
 135.8384710  42.7068930  76.0327160 136.1410610  42.7136360  75.1246310
 136.5779300  42.3566790  76.5294820 140.6733350  57.4725790  91.0143600
 140.5992050  58.3760930  91.3215970 139.7712190  57.1537690  90.9865670
 139.0569640  41.6503550  77.0183360 138.7091640  40.9727540  76.4385810
 139.2582410  41.1893060  77.8326750 141.2218680  56.6384300  78.6369960
 142.1169470  56.9769270  78.6588720 141.2536310  55.9163710  78.0094240
 134.8614840  52.0111350  76.8656960 135.2989710  52.5541020  77.5214540
 135.3462570  51.1858300  76.8753300 132.0760640  54.8000380  84.3177220
 132.4063650  53.9321440  84.0855860 132.5051640  55.0058900  85.1482180
 136.6722560  53.1309390  81.9779190 136.3718100  53.0074360  82.8783100
 136.5660050  52.2717980  81.5694920 132.5650850  55.6670970  87.0558850
 132.1281840  55.8471770  87.8883000 133.1328530  56.4245590  86.9140570
 148.2013030  55.1687970  91.3436160 147.6015020  55.2280530  90.6000080
 148.3306930  54.2292950  91.4733010 132.3975280  48.1791200  83.4147730
 131.7424120  47.9102840  82.7707430 133.2353230  48.0695680  82.9649710
 146.8864670  51.8939950  89.4412320 146.0724510  52.3237110  89.7038110
 147.2938870  52.5058360  88.8281370 145.3465720  42.9732490  77.6366220
 145.7650600  42.7863470  76.7962880 145.0401780  42.1211540  77.9469150
 133.4351210  48.5643770  87.9551070 133.8024250  48.4771170  88.8347090
 132.8662030  47.8010320  87.8557930 148.2355070  47.0328150  90.9681540
 148.0041160  46.8040900  90.0679490 148.4959620  47.9527700  90.9226430
 132.9867210  45.4752860  91.8609490 132.0923260  45.4419620  92.2003200
 133.5264760  45.6739650  92.6260740 146.6743140  42.2584580  93.7461240
 147.5513320  42.2667980  94.1295240 146.6863980  41.5215420  93.1353590
 131.6113360  45.3890130  79.3573060 130.7077440  45.6520330  79.1824720
 132.0953980  45.6601300  78.5773020 148.2996130  46.1953990  88.1568810
 147.3498840  46.1617530  88.2713800 148.4809140  47.1054100  87.9218580
 134.1540570  44.4455670  77.2667440 134.8632270  44.0238890  76.7814720
 133.4380510  44.5130900  76.6350790 133.8014730  40.4995000  76.3070090
 134.5242860  41.0403940  76.6251310 134.0739250  40.2258420  75.4311630
 147.6106380  45.3687470  80.5741670 148.1065500  45.1358340  81.3590550
 147.4122450  44.5299310  80.1579310 133.4906920  39.7501190  86.2092710
 134.1383110  39.1998570  85.7687870 133.9108760  40.0044340  87.0308520
 147.3859260  39.9442550  89.5662350 148.0231480  40.5576690  89.9321540
 147.5334150  39.9803210  88.6211580 146.9440720  56.6458550  82.9680590
 147.5399790  56.3243120  82.2915010 147.2018870  56.1730370  83.7593860
 133.2438920  39.9056860  88.9518030 132.8953740  40.3620680  89.7176210
 132.9126620  39.0113990  89.0340460 134.8503290  53.0776460  93.1171220
 134.8072920  52.7069370  93.9985680 134.9814300  54.0154030  93.2573040
 138.5509320  54.6336050  88.7180940 138.3100680  54.9010610  87.8311460
 139.4911960  54.8041780  88.7731800 140.7563740  41.0968740  92.4737450
 140.6952630  41.6890570  93.2232860 141.6964120  40.9894700  92.3287710
 143.3938300  40.7538800  92.1129740 144.0078710  41.0718090  91.4510820
 143.9387860  40.2687390  92.7325600 133.9159560  39.4333060  92.2268800
 134.4642550  39.2521110  91.4634910 133.9814870  38.6427170  92.7625110
 134.6891320  56.0238710  90.2369000 134.0951640  55.8923410  90.9759040
 134.6815160  55.1876850  89.7711100 144.1346340  39.3170940  88.4399030
 143.2606180  39.6506050  88.2371960 144.0257090  38.8444120  89.2650900
 145.0418320  41.5241810  89.8240750 144.7131680  40.7093570  89.4442480
 145.9900620  41.4811620  89.7006440 147.4952930  57.2953850  86.7978320
 147.0355900  58.0469660  86.4236340 146.8665390  56.5760320  86.7393120
 134.3203550  53.3897090  89.1877040 133.5937610  52.7702380  89.1202990
 134.3812700  53.7837700  88.3175120 137.9248650  55.6042090  85.9726450
 138.4413670  54.9929450  85.4474710 138.5746030  56.1070870  86.4637460
 140.6644150  56.4950580  86.7995430 140.9521960  56.2404880  85.9228440
 141.1767370  55.9427940  87.3901000 141.8821160  40.2340780  87.3791940
 141.0992950  40.7086280  87.6588700 141.5884090  39.3295610  87.2705120
 146.4342230  40.9363880  85.4241030 146.8750320  40.8808980  84.5762630
 146.1649820  41.8521890  85.4951210 132.6033550  56.7071480  82.3973800
 132.4355590  56.0742160  83.0955690 131.7368060  56.9130880  82.0467990
 133.2261570  40.5388260  79.9005660 133.9840930  40.6517140  79.3269690
 132.7638740  41.3757460  79.8549090 139.7675380  42.6527530  82.8907970
 138.9549890  42.2784420  82.5503850 140.2717020  41.8972610  83.1929160
 144.2700360  39.3169980  84.1291040 144.8729730  39.8890190  84.6039560
 143.5293350  39.8809420  83.9064940 147.4134960  39.7191540  79.4031320
 147.6085590  40.6174990  79.6698750 146.6264830  39.4878620  79.8964270
 135.5986720  41.0652310  78.4407630 136.1279480  40.2782110  78.3115580
 136.2315040  41.7443500  78.6743160 137.7924560  40.8027450  81.4953020
 137.1627300  40.1014760  81.6623150 137.2529700  41.5631580  81.2786180
 140.7316510  57.4166680  94.1663630 141.6583820  57.1810950  94.2099590
 140.7166940  58.2438680  93.6849660 137.9180120  40.0811430  93.9305510
 137.6364390  40.5845030  93.1666330 138.2999820  39.2833180  93.5647640
 136.8089220  57.3487090  78.7173190 137.5408040  57.0646370  78.1697080
 137.0682890  57.1100370  79.6072570 135.9704010  53.4651820  78.7219520
 135.3412890  53.9336920  79.2705350 136.0851840  52.6201040  79.1565710
 144.5195580  39.4965010  94.5085980 144.4061030  39.8159620  95.4037500
 145.3365320  39.8977520  94.2123260 147.2994070  56.6436540  93.9904670
 148.0919390  56.1485770  93.7830630 147.5927220  57.3226680  94.5980280
 143.4253730  47.5157480  64.8720720 143.3447780  46.6012090  64.6012430
 143.0118150  48.0124550  64.1660430 141.5571770  49.2936500  66.7529990
 140.7813870  48.8136940  67.0428560 142.2084700  48.6142150  66.5786150
 135.5737600  49.6056310  67.6305750 134.7422480  49.3505020  68.0302260
 136.1818580  49.6767080  68.3663670 145.5779200  53.6996690  65.5329120
 145.1160730  52.9283930  65.8616290 146.3904750  53.7262760  66.0381570
 135.5538860  53.6396400  67.8263770 135.8566900  52.7494140  67.6473990
 136.2982450  54.1966620  67.5986020 133.9829550  44.5658200  61.4148140
 133.0946250  44.9074170  61.3128020 134.2670740  44.3658520  60.5228970
 131.9462560  47.1663850  67.2987840 132.5178670  46.3986050  67.2991480
 131.9464100  47.4652610  66.3894450 141.8042510  55.9854700  65.1533110
 141.1853950  56.4412200  64.5827550 142.6594290  56.1406160  64.7522810
 140.9980760  51.9693690  66.7600150 140.9289040  51.0283630  66.5989280
 141.7600620  52.0595100  67.3322720 133.1887430  42.5748210  69.0856770
 133.0090270  41.6773960  69.3659530 132.7867510  43.1220080  69.7603720
 142.0285930  44.7764070  66.9869080 142.4050750  43.9035950  66.8742750
 141.9305440  45.1122770  66.0959520 136.1590940  43.1489700  62.4486520
 136.2657690  44.0493430  62.7555280 135.2483300  43.1007670  62.1581170
 145.8110050  42.2714510  63.9197420 146.6319670  41.7811080  63.9622900
 145.8444130  42.8612170  64.6729260 133.8074100  45.0708710  67.6939110
 134.4884210  45.3347080  68.3126510 133.4922150  44.2309580  68.0277120
 137.9998670  46.1176070  66.7811700 138.5076890  46.6157040  67.4216720
 138.5311910  45.3411270  66.6051060 136.2834770  40.7574630  71.0475120
 136.2853210  41.2747020  70.2421020 135.4539080  40.2804810  71.0245050
 142.6705860  50.8693940  62.5465020 142.0523130  51.3343390  61.9827740
 143.1829110  51.5621420  62.9634530 137.5337620  50.3969810  69.2248620
 137.2007000  51.0238730  69.8669690 137.7104300  50.9231690  68.4450290
 146.0471530  44.2114890  66.6924960 145.3427100  44.4999780  67.2728070
 146.4083690  45.0215000  66.3324520 135.9650100  42.4684590  69.0545570
 136.3066910  43.3126640  68.7599440 135.0265910  42.6168330  69.1710910
 136.7456720  52.3650610  71.0397800 137.3630720  53.0401690  70.7582250
 135.8849840  52.7738590  70.9485300 132.0389060  51.5550470  59.9204650
 131.6617040  52.0437570  59.1889550 132.2962130  52.2275750  60.5511180
 147.6634310  53.8290020  68.9552440 146.9797830  54.4989130  68.9469110
 148.2028600  54.0270670  68.1897300 139.6477990  39.9566860  65.3790160
 139.9552970  39.4013750  64.6625660 138.7178690  40.0911320  65.1963150
 145.1993050  55.6734150  67.6697620 145.2120210  55.2696440  66.8019880
 144.6468270  56.4481440  67.5659050 146.4938470  52.3950370  62.7587790
 146.3834800  51.4524700  62.8837210 146.4906720  52.7566010  63.6450550
 144.5978490  50.5763990  68.9980230 145.0147280  50.3624100  68.1633690
 145.3218310  50.8336780  69.5688850 142.0358750  48.0215690  62.1150280
 141.1088030  47.9553070  62.3438750 142.1883570  48.9595820  62.0005520
 142.0227830  44.2932690  59.1117440 141.0831500  44.4546650  59.1969900
 142.3411090  45.0118370  58.5653430 146.0656040  49.5835990  62.6185530
 145.4468460  49.2455540  61.9711830 146.0480490  48.9395750  63.3264720
 145.5082600  45.7620530  70.0351340 145.0953780  46.5874240  70.2891330
 144.7758550  45.1765570  69.8427700 137.6415390  48.5480430  64.8970010
 137.2372390  47.8357680  64.4015910 137.7278510  48.2033670  65.7858050
 138.1097090  52.2347990  67.0609220 137.8125380  51.6293460  66.3817000
 139.0596910  52.2725300  66.9498580 136.3544010  45.3223640  68.6769050
 136.9058600  45.4318980  67.9022300 136.8687520  45.6961240  69.3924280
 146.1982700  55.8079860  70.7232320 145.7213260  56.6152050  70.5304930
 145.5144490  55.1558190  70.8758530 137.2015520  51.9729680  73.7117020
 136.3044050  52.1969650  73.9590420 137.2268390  52.0964620  72.7628420
 144.2420740  48.8222800  59.6258280 144.6814020  47.9845230  59.4796100
 144.9549160  49.4552200  59.7122420 136.0286740  48.8443000  72.2874390
 135.8894510  49.7165800  72.6561790 135.1468100  48.5015810  72.1422330
 142.3516120  53.7618870  63.5939520 142.7912030  54.5043200  63.1794910
 142.2903010  54.0045440  64.5178480 137.8267090  54.7864700  74.4959540
 137.7982520  55.1907650  73.6287970 137.6632060  53.8575060  74.3331140
 147.8237880  40.0765610  57.9399320 147.5110540  40.1692440  58.8398390
 148.5850350  40.6546640  57.8896750 134.3420020  47.4425410  62.3976660
 134.2217620  48.1687500  61.7857930 134.0320910  46.6728320  61.9204570
 133.2253020  52.3140740  64.6151480 132.8181100  52.4555330  63.7605080
 134.1166030  52.0300900  64.4122690 143.0431900  56.4632650  71.5218530
 143.5576570  56.3740660  72.3240960 142.2000980  56.8092350  71.8146440
 145.0186300  56.7487990  60.9502530 144.8587440  56.4590930  61.8484360
 144.8533010  55.9728120  60.4147760 137.4974680  56.5286520  62.7274150
 137.3217160  55.6122060  62.5141950 136.6430420  56.8873810  62.9671950
 144.7212430  54.2575550  59.5100530 144.0277590  54.2552840  58.8502810
 145.4635290  53.8334870  59.0794700 144.2862360  55.8838260  63.5849020
 144.7419310  55.1027640  63.8987640 144.6254880  56.5945080  64.1290200
 136.8083680  40.7860480  65.7800330 136.3651830  41.5670020  65.4484850
 137.3668670  41.1090370  66.4871270 141.0953490  43.6529000  71.3835650
 140.6332860  43.8612020  72.1955590 140.6931600  42.8388350  71.0806320
 146.0958000  44.8737950  72.5132310 145.2451590  44.5743700  72.8341380
 145.9359790  45.1179960  71.6016130 143.1907710  46.3739700  74.6131100
 143.5161120  45.5403450  74.2733330 143.9788040  46.8968220  74.7609430
 139.9242500  40.4071180  60.6606160 139.2996680  40.4031050  61.3859470
 139.8372620  39.5402140  60.2642130 138.8459580  41.3307810  67.6389930
 139.1431910  42.2370640  67.5581950 139.3945140  40.8426590  67.0249500
 136.5997900  45.9094050  63.5081580 136.3738820  45.6931220  64.4128200
 135.8190430  46.3422510  63.1627550 143.8295660  45.9157420  62.1072230
 143.2304550  46.6393220  61.9235850 144.3775270  45.8534200  61.3248680
 139.0397110  46.8079630  74.1741850 138.9440710  45.8674360  74.0242250
 139.8829090  47.0294700  73.7789920 142.4360530  44.5520960  64.1375510
 142.8290100  44.8693160  63.3244200 142.7977380  43.6732840  64.2520030
 134.1707650  43.2193300  72.3275630 133.7771040  44.0668510  72.5348410
 133.4826050  42.5819670  72.5184270 140.7452700  43.3028270  75.3972370
 140.0551020  43.1100470  76.0318460 141.4885000  43.5862910  75.9296670
 131.4724700  41.1421760  66.3605710 131.1837750  41.7124620  67.0730690
 132.2170460  40.6626210  66.7236940 131.6594930  45.0841880  57.5708430
 131.5769600  46.0272640  57.7123420 131.3077990  44.9416790  56.6920780
 143.0215670  47.1426710  68.2326290 142.2896790  47.6513520  68.5816390
 142.6240010  46.3256690  67.9315070 139.4593060  43.8180910  66.6378780
 139.4629120  43.3770860  65.7883320 140.3544180  44.1398240  66.7450600
 135.3095440  43.7007400  65.5972990 134.9695490  44.1782630  66.3540040
 134.5472760  43.2472520  65.2374090 139.5213210  44.8192990  59.6285540
 139.6426030  44.7779470  60.5771360 139.1361720  45.6817140  59.4732270
 143.4841580  42.5960390  67.6449230 143.5014320  43.0469040  68.4891080
 143.2357160  41.6966030  67.8582670 138.5334710  47.1294130  59.0268840
 137.9651610  46.6812380  58.4004750 139.2423710  47.4886910  58.4933990
 146.9112330  40.0092570  73.4835610 147.2358100  39.2782230  74.0093590
 146.9468840  39.6906210  72.5816600 139.7601030  47.8782690  68.3844190
 140.1271160  47.4041260  69.1305530 139.5706090  48.7524260  68.7252530
 132.6241520  42.6226380  64.5137660 132.3388440  42.2582050  65.3516280
 132.5620380  41.8906840  63.9000800 137.5500400  46.9191330  70.7028400
 137.2457470  47.7983310  70.9278760 138.5046860  46.9791120  70.7385840
 136.0782190  51.1252320  61.2995250 135.3044450  50.5849940  61.1393970
 136.8076820  50.6058930  60.9613010 146.8370170  50.1217680  67.0921640
 147.5569290  50.6172970  66.7017750 146.6351990  49.4435570  66.4475510
 142.2980110  41.5155640  61.2351030 141.4844720  41.0168810  61.1596340
 142.1042060  42.3553890  60.8187380 142.2188970  50.1926740  72.9790640
 142.1526280  49.2722410  72.7248230 141.5894110  50.2902180  73.6935280
 145.0128500  45.8875290  59.5313190 145.9008120  46.1992520  59.3564530
 144.9833590  45.0147540  59.1393770 136.1219590  50.7932700  64.9374060
 136.6398260  49.9900960  64.8830950 135.6703610  50.7311840  65.7790890
 141.0089090  52.0598980  60.2101360 141.3504790  52.8041210  59.7144680
 140.1801800  52.3730100  60.5726190 133.6064130  47.7594070  71.8499760
 133.2479070  48.4247920  72.4373100 133.3118690  46.9277620  72.2212380
 136.8077250  48.2178310  74.7339310 136.5077390  48.3635490  73.8367130
 137.5788490  47.6583600  74.6412700 142.1505700  53.0147310  72.7294440
 142.1650240  52.0828270  72.5113350 141.4430800  53.1007070  73.3684210
 147.2842770  47.1987130  58.9993050 147.2006490  47.6301350  58.1489490
 148.0036960  47.6585480  59.4319870 148.3130020  54.0529390  61.7275180
 147.6706180  53.3985010  62.0018900 147.9260680  54.4584480  60.9515850
 143.8916500  51.3814820  65.5746870 144.2440320  50.7842950  64.9148240
 143.0078830  51.0559050  65.7455120 139.9779780  52.1412510  62.9817280
 140.6650910  52.6881720  63.3624870 139.1912200  52.6853240  63.0166890
 132.1172180  47.7585330  58.4734360 132.9867030  48.0410130  58.7570280
 131.6262500  48.5721200  58.3583170 139.2806990  49.1458540  62.5942640
 139.7369770  49.9563790  62.8202830 138.9295200  48.8281680  63.4261130
 141.5839600  54.6564880  69.8234940 142.2281820  54.8624260  70.5008360
 141.9469040  53.8953280  69.3705790 135.1818770  39.4896190  63.0665160
 135.0533400  39.4814090  64.0150080 134.3580790  39.8279280  62.7156170
 142.8571680  52.6597230  68.5412390 143.4993910  51.9590390  68.6544560
 143.3821030  53.4395670  68.3609280 146.7027400  52.9445850  58.2651530
 146.4764980  52.2276290  58.8576170 146.3123600  52.6958290  57.4273280
 144.6309300  53.4592130  71.7448450 144.9665540  54.0458820  72.4226370
 143.7109640  53.3284840  71.9746240 132.4843430  56.9712710  59.0395990
 132.8441070  57.5702050  58.3853260 132.3435770  57.5172600  59.8131020
 132.1812700  41.2487310  72.5271860 131.4671220  41.4484230  73.1324470
 132.6007740  40.4726880  72.8986660 146.2843650  50.8617790  59.9265690
 145.9965350  51.3230480  60.7143570 147.0795820  50.4015560  60.1949910
 140.4597880  53.5083460  74.9136510 140.1394750  52.7892700  75.4582200
 139.7856240  54.1838530  74.9872570 138.5012050  54.3543910  59.8569660
 138.4922150  55.0873600  59.2414170 137.5810410  54.1075490  59.9496620
 134.1018690  49.5758800  60.6016420 133.4946640  50.3157700  60.6111720
 134.5768040  49.6658160  59.7754620 143.6751480  43.7409620  70.2773310
 144.0432300  42.9204830  70.6052880 142.8149680  43.8011510  70.6928960
 147.0413510  42.6966560  61.0860870 146.4126670  42.8012230  60.3719100
 146.5465430  42.9163340  61.8754750 141.4871650  54.4172150  58.5194850
 141.5883630  54.2136140  57.5896830 140.5873390  54.1630430  58.7242630
 139.0097540  44.9752510  62.5018750 138.3013690  45.4438850  62.9432360
 139.2942020  44.3174520  63.1363940 140.6353470  46.3949210  70.5011280
 141.1338720  46.8695030  71.1663130 140.7776420  45.4712730  70.7081310
 143.0412970  41.7003170  63.9414540 142.9180750  41.7189300  62.9924050
 143.9897530  41.7482110  64.0612940 140.1289760  56.9358470  63.2142520
 140.3831260  56.8979860  62.2921890 139.1802240  56.8091800  63.2070770
 137.2132560  43.2837590  59.8769460 138.0623090  43.7207740  59.8109650
 136.8463830  43.5957850  60.7041520 147.8420330  42.6117170  71.3439670
 147.3393930  43.3522570  71.6833480 148.6576990  43.0001170  71.0276460
 146.1342340  47.8550350  64.7901030 145.1932480  47.8700580  64.9648720
 146.4486410  47.0686310  65.2361330 136.1123980  49.5369950  58.3504990
 136.8787250  49.4251310  58.9130420 136.1898670  48.8407920  57.6981760
 134.8070740  46.9695020  59.0337880 134.8874330  46.0222530  59.1455280
 135.6990490  47.3001900  59.1398540 135.6085450  57.1190410  66.1372420
 136.3447930  56.5705870  66.4080990 135.9926370  57.9846420  65.9978410
 132.4930930  53.1863980  62.0113930 131.5670710  53.4285120  62.0019340
 132.9587360  54.0138240  61.8898680 138.7187760  56.2920720  57.9597990
 139.5116370  56.5809550  57.5079780 138.1992110  55.8612890  57.2810470
 143.4508360  52.4116350  75.2733410 142.8446520  52.4347950  74.5329160
 143.1462470  51.6799390  75.8100660 144.8808730  56.1396640  73.8842820
 145.8330480  56.0554660  73.8343060 144.7336950  56.8038350  74.5576610
 147.7717930  55.5190850  59.3834730 147.4859440  55.1055990  58.5688910
 147.5737480  56.4478560  59.2635250 132.3341540  48.7909940  74.2694050
 132.8380560  48.2117220  74.8410280 131.5948960  49.0750170  74.8070420
 139.2365160  51.5124130  57.8240340 139.1315800  50.8976480  58.5501720
 139.0689380  50.9890020  57.0403350 139.3879480  50.1980930  73.8029570
 138.6225150  50.7665930  73.7184240 139.5695440  49.9057140  72.9097800
 142.4767890  50.5744160  58.4282330 141.9277990  51.0213460  59.0725070
 143.0987150  50.0693410  58.9520000 146.5302830  51.9286260  74.3604590
 147.2712300  52.2662020  73.8572050 145.7675510  52.0978320  73.8074360
 134.3664620  46.9339530  75.1644120 134.4069960  46.6353400  76.0729350
 135.2210120  47.3347140  75.0051640 138.1443010  49.5335080  60.3247630
 138.5659430  49.3674950  61.1679020 138.2693850  48.7235310  59.8302770
 136.3070430  45.5131630  73.1318610 135.7766890  45.0222580  72.5041950
 136.9758500  45.9415830  72.5976540 140.6570650  48.5572690  57.5724730
 141.1776310  47.8421710  57.2065880 141.3039050  49.1958560  57.8725240
 145.2048490  49.9801090  72.8959800 145.6189510  50.1346170  73.7450220
 144.2699490  50.1056310  73.0585580 145.6770660  47.3197250  74.8998950
 146.2591430  46.5649570  74.8119430 145.8532430  47.8504690  74.1230430
 136.7942730  42.4794000  73.2115900 136.6999600  41.8614750  72.4866770
 136.2140120  43.2060290  72.9845810 139.5604170  41.0367240  70.2443290
 139.1121470  41.0591500  69.3988840 138.9269370  40.6386260  70.8413590
 139.9663720  49.9321570  70.8655730 140.3851830  50.7754300  70.6931970
 139.0472350  50.0693610  70.6362510 142.3027620  47.6637750  72.2493570
 142.4223830  47.0678890  72.9888410 143.1621620  47.7007440  71.8294870
 144.6415520  48.2174940  70.8256080 144.1150740  48.7417560  70.2221220
 144.9846860  48.8502330  71.4565810 137.0401910  45.6068310  57.2705790
 136.8390970  44.7435670  57.6319130 136.8693960  45.5201670  56.3327390
 137.8171140  56.2374580  71.9813460 137.2792230  56.9620640  71.6622160
 138.0705100  55.7604920  71.1910800 139.0696390  44.2059100  73.5069390
 139.6596080  43.8974950  74.1947210 138.2516630  43.7338850  73.6629290
 143.8889820  43.8224910  73.7402410 143.2005340  43.1606450  73.6752400
 144.6095840  43.3763180  74.1850870 144.5190220  40.4176540  59.7992670
 144.7992510  39.5744440  60.1552090 143.7455950  40.6499650  60.3131420
 135.8384710  42.7068930  57.2583670 136.1410610  42.7136360  56.3502820
 136.5779300  42.3566790  57.7551330 140.6733350  57.4725790  72.2400110
 140.5992050  58.3760930  72.5472480 139.7712190  57.1537690  72.2122180
 139.0569640  41.6503550  58.2439870 138.7091640  40.9727540  57.6642320
 139.2582410  41.1893060  59.0583260 141.2218680  56.6384300  59.8626470
 142.1169470  56.9769270  59.8845230 141.2536310  55.9163710  59.2350750
 134.8614840  52.0111350  58.0913470 135.2989710  52.5541020  58.7471050
 135.3462570  51.1858300  58.1009810 136.6722560  53.1309390  63.2035700
 136.3718100  53.0074360  64.1039610 136.5660050  52.2717980  62.7951430
 148.2013030  55.1687970  72.5692670 147.6015020  55.2280530  71.8256590
 148.3306930  54.2292950  72.6989520 132.3975280  48.1791200  64.6404240
 131.7424120  47.9102840  63.9963940 133.2353230  48.0695680  64.1906220
 146.8864670  51.8939950  70.6668830 146.0724510  52.3237110  70.9294620
 147.2938870  52.5058360  70.0537880 145.3465720  42.9732490  58.8622730
 145.7650600  42.7863470  58.0219390 145.0401780  42.1211540  59.1725660
 148.2355070  47.0328150  72.1938050 148.0041160  46.8040900  71.2936000
 148.4959620  47.9527700  72.1482940 132.9867210  45.4752860  73.0866000
 132.0923260  45.4419620  73.4259710 133.5264760  45.6739650  73.8517250
 146.6743140  42.2584580  74.9717750 147.5513320  42.2667980  75.3551750
 146.6863980  41.5215420  74.3610100 131.6113360  45.3890130  60.5829570
 130.7077440  45.6520330  60.4081230 132.0953980  45.6601300  59.8029530
 148.2996130  46.1953990  69.3825320 147.3498840  46.1617530  69.4970310
 148.4809140  47.1054100  69.1475090 134.1540570  44.4455670  58.4923950
 134.8632270  44.0238890  58.0071230 133.4380510  44.5130900  57.8607300
 133.8014730  40.4995000  57.5326600 134.5242860  41.0403940  57.8507820
 134.0739250  40.2258420  56.6568140 147.6106380  45.3687470  61.7998180
 148.1065500  45.1358340  62.5847060 147.4122450  44.5299310  61.3835820
 133.4906920  39.7501190  67.4349220 134.1383110  39.1998570  66.9944380
 133.9108760  40.0044340  68.2565030 147.3859260  39.9442550  70.7918860
 148.0231480  40.5576690  71.1578050 147.5334150  39.9803210  69.8468090
 146.9440720  56.6458550  64.1937100 147.5399790  56.3243120  63.5171520
 147.2018870  56.1730370  64.9850370 133.2438920  39.9056860  70.1774540
 132.8953740  40.3620680  70.9432720 132.9126620  39.0113990  70.2596970
 138.5509320  54.6336050  69.9437450 138.3100680  54.9010610  69.0567970
 139.4911960  54.8041780  69.9988310 140.7563740  41.0968740  73.6993960
 140.6952630  41.6890570  74.4489370 141.6964120  40.9894700  73.5544220
 143.3938300  40.7538800  73.3386250 144.0078710  41.0718090  72.6767330
 143.9387860  40.2687390  73.9582110 133.9159560  39.4333060  73.4525310
 134.4642550  39.2521110  72.6891420 133.9814870  38.6427170  73.9881620
 144.1346340  39.3170940  69.6655540 143.2606180  39.6506050  69.4628470
 144.0257090  38.8444120  70.4907410 145.0418320  41.5241810  71.0497260
 144.7131680  40.7093570  70.6698990 145.9900620  41.4811620  70.9262950
 147.4952930  57.2953850  68.0234830 147.0355900  58.0469660  67.6492850
 146.8665390  56.5760320  67.9649630 134.3203550  53.3897090  70.4133550
 133.5937610  52.7702380  70.3459500 134.3812700  53.7837700  69.5431630
 137.9248650  55.6042090  67.1982960 138.4413670  54.9929450  66.6731220
 138.5746030  56.1070870  67.6893970 140.6644150  56.4950580  68.0251940
 140.9521960  56.2404880  67.1484950 141.1767370  55.9427940  68.6157510
 141.8821160  40.2340780  68.6048450 141.0992950  40.7086280  68.8845210
 141.5884090  39.3295610  68.4961630 146.4342230  40.9363880  66.6497540
 146.8750320  40.8808980  65.8019140 146.1649820  41.8521890  66.7207720
 132.6033550  56.7071480  63.6230310 132.4355590  56.0742160  64.3212200
 131.7368060  56.9130880  63.2724500 133.2261570  40.5388260  61.1262170
 133.9840930  40.6517140  60.5526200 132.7638740  41.3757460  61.0805600
 139.7675380  42.6527530  64.1164480 138.9549890  42.2784420  63.7760360
 140.2717020  41.8972610  64.4185670 144.2700360  39.3169980  65.3547550
 144.8729730  39.8890190  65.8296070 143.5293350  39.8809420  65.1321450
 147.4134960  39.7191540  60.6287830 147.6085590  40.6174990  60.8955260
 146.6264830  39.4878620  61.1220780 134.2096250  55.4004710  61.0680450
 133.6843870  55.7812740  60.3642410 134.1340830  56.0255480  61.7890160
 135.5986720  41.0652310  59.6664140 136.1279480  40.2782110  59.5372090
 136.2315040  41.7443500  59.8999670 137.7924560  40.8027450  62.7209530
 137.1627300  40.1014760  62.8879660 137.2529700  41.5631580  62.5042690
 140.7316510  57.4166680  75.3920140 141.6583820  57.1810950  75.4356100
 140.7166940  58.2438680  74.9106170 137.9180120  40.0811430  75.1562020
 137.6364390  40.5845030  74.3922840 138.2999820  39.2833180  74.7904150
 136.8089220  57.3487090  59.9429700 137.5408040  57.0646370  59.3953590
 137.0682890  57.1100370  60.8329080 135.9704010  53.4651820  59.9476030
 135.3412890  53.9336920  60.4961860 136.0851840  52.6201040  60.3822220
 144.5195580  39.4965010  75.7342490 144.4061030  39.8159620  76.6294010
 145.3365320  39.8977520  75.4379770 147.2994070  56.6436540  75.2161180
 148.0919390  56.1485770  75.0087140 147.5927220  57.3226680  75.8236790
 143.4253730  47.5157480  46.0977230 143.3447780  46.6012090  45.8268940
 143.0118150  48.0124550  45.3916940 141.5571770  49.2936500  47.9786500
 140.7813870  48.8136940  48.2685070 142.2084700  48.6142150  47.8042660
 135.5737600  49.6056310  48.8562260 134.7422480  49.3505020  49.2558770
 136.1818580  49.6767080  49.5920180 145.5779200  53.6996690  46.7585630
 145.1160730  52.9283930  47.0872800 146.3904750  53.7262760  47.2638080
 135.5538860  53.6396400  49.0520280 135.8566900  52.7494140  48.8730500
 136.2982450  54.1966620  48.8242530 133.9829550  44.5658200  42.6404650
 133.0946250  44.9074170  42.5384530 134.2670740  44.3658520  41.7485480
 131.9462560  47.1663850  48.5244350 132.5178670  46.3986050  48.5247990
 131.9464100  47.4652610  47.6150960 141.8042510  55.9854700  46.3789620
 141.1853950  56.4412200  45.8084060 142.6594290  56.1406160  45.9779320
 140.9980760  51.9693690  47.9856660 140.9289040  51.0283630  47.8245790
 141.7600620  52.0595100  48.5579230 133.1887430  42.5748210  50.3113280
 133.0090270  41.6773960  50.5916040 132.7867510  43.1220080  50.9860230
 142.0285930  44.7764070  48.2125590 142.4050750  43.9035950  48.0999260
 141.9305440  45.1122770  47.3216030 136.1590940  43.1489700  43.6743030
 136.2657690  44.0493430  43.9811790 135.2483300  43.1007670  43.3837680
 145.8110050  42.2714510  45.1453930 146.6319670  41.7811080  45.1879410
 145.8444130  42.8612170  45.8985770 133.8074100  45.0708710  48.9195620
 134.4884210  45.3347080  49.5383020 133.4922150  44.2309580  49.2533630
 137.9998670  46.1176070  48.0068210 138.5076890  46.6157040  48.6473230
 138.5311910  45.3411270  47.8307570 136.2834770  40.7574630  52.2731630
 136.2853210  41.2747020  51.4677530 135.4539080  40.2804810  52.2501560
 142.6705860  50.8693940  43.7721530 142.0523130  51.3343390  43.2084250
 143.1829110  51.5621420  44.1891040 137.5337620  50.3969810  50.4505130
 137.2007000  51.0238730  51.0926200 137.7104300  50.9231690  49.6706800
 146.0471530  44.2114890  47.9181470 145.3427100  44.4999780  48.4984580
 146.4083690  45.0215000  47.5581030 135.9650100  42.4684590  50.2802080
 136.3066910  43.3126640  49.9855950 135.0265910  42.6168330  50.3967420
 136.7456720  52.3650610  52.2654310 137.3630720  53.0401690  51.9838760
 135.8849840  52.7738590  52.1741810 132.0389060  51.5550470  41.1461160
 131.6617040  52.0437570  40.4146060 132.2962130  52.2275750  41.7767690
 147.6634310  53.8290020  50.1808950 146.9797830  54.4989130  50.1725620
 148.2028600  54.0270670  49.4153810 139.6477990  39.9566860  46.6046670
 139.9552970  39.4013750  45.8882170 138.7178690  40.0911320  46.4219660
 145.1993050  55.6734150  48.8954130 145.2120210  55.2696440  48.0276390
 144.6468270  56.4481440  48.7915560 146.4938470  52.3950370  43.9844300
 146.3834800  51.4524700  44.1093720 146.4906720  52.7566010  44.8707060
 144.5978490  50.5763990  50.2236740 145.0147280  50.3624100  49.3890200
 145.3218310  50.8336780  50.7945360 142.0358750  48.0215690  43.3406790
 141.1088030  47.9553070  43.5695260 142.1883570  48.9595820  43.2262030
 142.0227830  44.2932690  40.3373950 141.0831500  44.4546650  40.4226410
 142.3411090  45.0118370  39.7909940 146.0656040  49.5835990  43.8442040
 145.4468460  49.2455540  43.1968340 146.0480490  48.9395750  44.5521230
 145.5082600  45.7620530  51.2607850 145.0953780  46.5874240  51.5147840
 144.7758550  45.1765570  51.0684210 137.6415390  48.5480430  46.1226520
 137.2372390  47.8357680  45.6272420 137.7278510  48.2033670  47.0114560
 138.1097090  52.2347990  48.2865730 137.8125380  51.6293460  47.6073510
 139.0596910  52.2725300  48.1755090 136.3544010  45.3223640  49.9025560
 136.9058600  45.4318980  49.1278810 136.8687520  45.6961240  50.6180790
 146.1982700  55.8079860  51.9488830 145.7213260  56.6152050  51.7561440
 145.5144490  55.1558190  52.1015040 137.2015520  51.9729680  54.9373530
 136.3044050  52.1969650  55.1846930 137.2268390  52.0964620  53.9884930
 144.2420740  48.8222800  40.8514790 144.6814020  47.9845230  40.7052610
 144.9549160  49.4552200  40.9378930 136.0286740  48.8443000  53.5130900
 135.8894510  49.7165800  53.8818300 135.1468100  48.5015810  53.3678840
 142.3516120  53.7618870  44.8196030 142.7912030  54.5043200  44.4051420
 142.2903010  54.0045440  45.7434990 137.8267090  54.7864700  55.7216050
 137.7982520  55.1907650  54.8544480 137.6632060  53.8575060  55.5587650
 147.8237880  40.0765610  39.1655830 147.5110540  40.1692440  40.0654900
 148.5850350  40.6546640  39.1153260 134.3420020  47.4425410  43.6233170
 134.2217620  48.1687500  43.0114440 134.0320910  46.6728320  43.1461080
 131.9805390  50.6140550  49.4301810 132.0585810  50.7489320  48.4857530
 132.5947070  49.9056440  49.6229930 133.2253020  52.3140740  45.8407990
 132.8181100  52.4555330  44.9861590 134.1166030  52.0300900  45.6379200
 143.0431900  56.4632650  52.7475040 143.5576570  56.3740660  53.5497470
 142.2000980  56.8092350  53.0402950 145.0186300  56.7487990  42.1759040
 144.8587440  56.4590930  43.0740870 144.8533010  55.9728120  41.6404270
 137.4974680  56.5286520  43.9530660 137.3217160  55.6122060  43.7398460
 136.6430420  56.8873810  44.1928460 144.7212430  54.2575550  40.7357040
 144.0277590  54.2552840  40.0759320 145.4635290  53.8334870  40.3051210
 144.2862360  55.8838260  44.8105530 144.7419310  55.1027640  45.1244150
 144.6254880  56.5945080  45.3546710 132.0364910  51.6554720  51.9696270
 132.1995950  51.1860080  51.1515640 132.5017360  51.1478280  52.6345110
 136.8083680  40.7860480  47.0056840 136.3651830  41.5670020  46.6741360
 137.3668670  41.1090370  47.7127780 141.0953490  43.6529000  52.6092160
 140.6332860  43.8612020  53.4212100 140.6931600  42.8388350  52.3062830
 146.0958000  44.8737950  53.7388820 145.2451590  44.5743700  54.0597890
 145.9359790  45.1179960  52.8272640 143.1907710  46.3739700  55.8387610
 143.5161120  45.5403450  55.4989840 143.9788040  46.8968220  55.9865940
 139.9242500  40.4071180  41.8862670 139.2996680  40.4031050  42.6115980
 139.8372620  39.5402140  41.4898640 138.8459580  41.3307810  48.8646440
 139.1431910  42.2370640  48.7838460 139.3945140  40.8426590  48.2506010
 136.5997900  45.9094050  44.7338090 136.3738820  45.6931220  45.6384710
 135.8190430  46.3422510  44.3884060 143.8295660  45.9157420  43.3328740
 143.2304550  46.6393220  43.1492360 144.3775270  45.8534200  42.5505190
 139.0397110  46.8079630  55.3998360 138.9440710  45.8674360  55.2498760
 139.8829090  47.0294700  55.0046430 142.4360530  44.5520960  45.3632020
 142.8290100  44.8693160  44.5500710 142.7977380  43.6732840  45.4776540
 134.1707650  43.2193300  53.5532140 133.7771040  44.0668510  53.7604920
 133.4826050  42.5819670  53.7440780 140.7452700  43.3028270  56.6228880
 140.0551020  43.1100470  57.2574970 141.4885000  43.5862910  57.1553180
 131.4724700  41.1421760  47.5862220 131.1837750  41.7124620  48.2987200
 132.2170460  40.6626210  47.9493450 131.6594930  45.0841880  38.7964940
 131.5769600  46.0272640  38.9379930 131.3077990  44.9416790  37.9177290
 143.0215670  47.1426710  49.4582800 142.2896790  47.6513520  49.8072900
 142.6240010  46.3256690  49.1571580 139.4593060  43.8180910  47.8635290
 139.4629120  43.3770860  47.0139830 140.3544180  44.1398240  47.9707110
 135.3095440  43.7007400  46.8229500 134.9695490  44.1782630  47.5796550
 134.5472760  43.2472520  46.4630600 139.5213210  44.8192990  40.8542050
 139.6426030  44.7779470  41.8027870 139.1361720  45.6817140  40.6988780
 143.4841580  42.5960390  48.8705740 143.5014320  43.0469040  49.7147590
 143.2357160  41.6966030  49.0839180 138.5334710  47.1294130  40.2525350
 137.9651610  46.6812380  39.6261260 139.2423710  47.4886910  39.7190500
 146.9112330  40.0092570  54.7092120 147.2358100  39.2782230  55.2350100
 146.9468840  39.6906210  53.8073110 133.6103890  51.0306150  54.1292080
 133.2258680  50.3899820  54.7275040 133.9216080  51.7342270  54.6986810
 139.7601030  47.8782690  49.6100700 140.1271160  47.4041260  50.3562040
 139.5706090  48.7524260  49.9509040 132.6241520  42.6226380  45.7394170
 132.3388440  42.2582050  46.5772790 132.5620380  41.8906840  45.1257310
 137.5500400  46.9191330  51.9284910 137.2457470  47.7983310  52.1535270
 138.5046860  46.9791120  51.9642350 136.0782190  51.1252320  42.5251760
 135.3044450  50.5849940  42.3650480 136.8076820  50.6058930  42.1869520
 146.8370170  50.1217680  48.3178150 147.5569290  50.6172970  47.9274260
 146.6351990  49.4435570  47.6732020 142.2980110  41.5155640  42.4607540
 141.4844720  41.0168810  42.3852850 142.1042060  42.3553890  42.0443890
 142.2188970  50.1926740  54.2047150 142.1526280  49.2722410  53.9504740
 141.5894110  50.2902180  54.9191790 145.0128500  45.8875290  40.7569700
 145.9008120  46.1992520  40.5821040 144.9833590  45.0147540  40.3650280
 136.1219590  50.7932700  46.1630570 136.6398260  49.9900960  46.1087460
 135.6703610  50.7311840  47.0047400 141.0089090  52.0598980  41.4357870
 141.3504790  52.8041210  40.9401190 140.1801800  52.3730100  41.7982700
 133.6064130  47.7594070  53.0756270 133.2479070  48.4247920  53.6629610
 133.3118690  46.9277620  53.4468890 136.8077250  48.2178310  55.9595820
 136.5077390  48.3635490  55.0623640 137.5788490  47.6583600  55.8669210
 142.1505700  53.0147310  53.9550950 142.1650240  52.0828270  53.7369860
 141.4430800  53.1007070  54.5940720 147.2842770  47.1987130  40.2249560
 147.2006490  47.6301350  39.3746000 148.0036960  47.6585480  40.6576380
 148.3130020  54.0529390  42.9531690 147.6706180  53.3985010  43.2275410
 147.9260680  54.4584480  42.1772360 143.8916500  51.3814820  46.8003380
 144.2440320  50.7842950  46.1404750 143.0078830  51.0559050  46.9711630
 139.9779780  52.1412510  44.2073790 140.6650910  52.6881720  44.5881380
 139.1912200  52.6853240  44.2423400 132.1172180  47.7585330  39.6990870
 132.9867030  48.0410130  39.9826790 131.6262500  48.5721200  39.5839680
 139.2806990  49.1458540  43.8199150 139.7369770  49.9563790  44.0459340
 138.9295200  48.8281680  44.6517640 141.5839600  54.6564880  51.0491450
 142.2281820  54.8624260  51.7264870 141.9469040  53.8953280  50.5962300
 135.1818770  39.4896190  44.2921670 135.0533400  39.4814090  45.2406590
 134.3580790  39.8279280  43.9412680 142.8571680  52.6597230  49.7668900
 143.4993910  51.9590390  49.8801070 143.3821030  53.4395670  49.5865790
 146.7027400  52.9445850  39.4908040 146.4764980  52.2276290  40.0832680
 146.3123600  52.6958290  38.6529790 144.6309300  53.4592130  52.9704960
 144.9665540  54.0458820  53.6482880 143.7109640  53.3284840  53.2002750
 132.4843430  56.9712710  40.2652500 132.8441070  57.5702050  39.6109770
 132.3435770  57.5172600  41.0387530 132.1812700  41.2487310  53.7528370
 131.4671220  41.4484230  54.3580980 132.6007740  40.4726880  54.1243170
 146.2843650  50.8617790  41.1522200 145.9965350  51.3230480  41.9400080
 147.0795820  50.4015560  41.4206420 140.4597880  53.5083460  56.1393020
 140.1394750  52.7892700  56.6838710 139.7856240  54.1838530  56.2129080
 138.5012050  54.3543910  41.0826170 138.4922150  55.0873600  40.4670680
 137.5810410  54.1075490  41.1753130 134.1018690  49.5758800  41.8272930
 133.4946640  50.3157700  41.8368230 134.5768040  49.6658160  41.0011130
 143.6751480  43.7409620  51.5029820 144.0432300  42.9204830  51.8309390
 142.8149680  43.8011510  51.9185470 147.0413510  42.6966560  42.3117380
 146.4126670  42.8012230  41.5975610 146.5465430  42.9163340  43.1011260
 141.4871650  54.4172150  39.7451360 141.5883630  54.2136140  38.8153340
 140.5873390  54.1630430  39.9499140 139.0097540  44.9752510  43.7275260
 138.3013690  45.4438850  44.1688870 139.2942020  44.3174520  44.3620450
 140.6353470  46.3949210  51.7267790 141.1338720  46.8695030  52.3919640
 140.7776420  45.4712730  51.9337820 143.0412970  41.7003170  45.1671050
 142.9180750  41.7189300  44.2180560 143.9897530  41.7482110  45.2869450
 140.1289760  56.9358470  44.4399030 140.3831260  56.8979860  43.5178400
 139.1802240  56.8091800  44.4327280 137.2132560  43.2837590  41.1025970
 138.0623090  43.7207740  41.0366160 136.8463830  43.5957850  41.9298030
 147.8420330  42.6117170  52.5696180 147.3393930  43.3522570  52.9089990
 148.6576990  43.0001170  52.2532970 146.1342340  47.8550350  46.0157540
 145.1932480  47.8700580  46.1905230 146.4486410  47.0686310  46.4617840
 136.1123980  49.5369950  39.5761500 136.8787250  49.4251310  40.1386930
 136.1898670  48.8407920  38.9238270 134.8070740  46.9695020  40.2594390
 134.8874330  46.0222530  40.3711790 135.6990490  47.3001900  40.3655050
 135.6085450  57.1190410  47.3628930 136.3447930  56.5705870  47.6337500
 135.9926370  57.9846420  47.2234920 132.4930930  53.1863980  43.2370440
 131.5670710  53.4285120  43.2275850 132.9587360  54.0138240  43.1155190
 134.6143730  56.3036480  56.5514510 135.4156460  56.6248530  56.9649910
 134.0995550  55.9432060  57.2734420 138.7187760  56.2920720  39.1854500
 139.5116370  56.5809550  38.7336290 138.1992110  55.8612890  38.5066980
 143.4508360  52.4116350  56.4989920 142.8446520  52.4347950  55.7585670
 143.1462470  51.6799390  57.0357170 144.8808730  56.1396640  55.1099330
 145.8330480  56.0554660  55.0599570 144.7336950  56.8038350  55.7833120
 147.7717930  55.5190850  40.6091240 147.4859440  55.1055990  39.7945420
 147.5737480  56.4478560  40.4891760 132.3341540  48.7909940  55.4950560
 132.8380560  48.2117220  56.0666790 131.5948960  49.0750170  56.0326930
 139.2365160  51.5124130  39.0496850 139.1315800  50.8976480  39.7758230
 139.0689380  50.9890020  38.2659860 139.3879480  50.1980930  55.0286080
 138.6225150  50.7665930  54.9440750 139.5695440  49.9057140  54.1354310
 142.4767890  50.5744160  39.6538840 141.9277990  51.0213460  40.2981580
 143.0987150  50.0693410  40.1776510 146.5302830  51.9286260  55.5861100
 147.2712300  52.2662020  55.0828560 145.7675510  52.0978320  55.0330870
 134.3664620  46.9339530  56.3900630 134.4069960  46.6353400  57.2985860
 135.2210120  47.3347140  56.2308150 138.1443010  49.5335080  41.5504140
 138.5659430  49.3674950  42.3935530 138.2693850  48.7235310  41.0559280
 136.3070430  45.5131630  54.3575120 135.7766890  45.0222580  53.7298460
 136.9758500  45.9415830  53.8233050 140.6570650  48.5572690  38.7981240
 141.1776310  47.8421710  38.4322390 141.3039050  49.1958560  39.0981750
 145.2048490  49.9801090  54.1216310 145.6189510  50.1346170  54.9706730
 144.2699490  50.1056310  54.2842090 145.6770660  47.3197250  56.1255460
 146.2591430  46.5649570  56.0375940 145.8532430  47.8504690  55.3486940
 136.7942730  42.4794000  54.4372410 136.6999600  41.8614750  53.7123280
 136.2140120  43.2060290  54.2102320 139.5604170  41.0367240  51.4699800
 139.1121470  41.0591500  50.6245350 138.9269370  40.6386260  52.0670100
 139.9663720  49.9321570  52.0912240 140.3851830  50.7754300  51.9188480
 139.0472350  50.0693610  51.8619020 142.3027620  47.6637750  53.4750080
 142.4223830  47.0678890  54.2144920 143.1621620  47.7007440  53.0551380
 144.6415520  48.2174940  52.0512590 144.1150740  48.7417560  51.4477730
 144.9846860  48.8502330  52.6822320 137.0401910  45.6068310  38.4962300
 136.8390970  44.7435670  38.8575640 136.8693960  45.5201670  37.5583900
 137.8171140  56.2374580  53.2069970 137.2792230  56.9620640  52.8878670
 138.0705100  55.7604920  52.4167310 139.0696390  44.2059100  54.7325900
 139.6596080  43.8974950  55.4203720 138.2516630  43.7338850  54.8885800
 143.8889820  43.8224910  54.9658920 143.2005340  43.1606450  54.9008910
 144.6095840  43.3763180  55.4107380 144.5190220  40.4176540  41.0249180
 144.7992510  39.5744440  41.3808600 143.7455950  40.6499650  41.5387930
 135.8384710  42.7068930  38.4840180 136.1410610  42.7136360  37.5759330
 136.5779300  42.3566790  38.9807840 140.6733350  57.4725790  53.4656620
 140.5992050  58.3760930  53.7728990 139.7712190  57.1537690  53.4378690
 139.0569640  41.6503550  39.4696380 138.7091640  40.9727540  38.8898830
 139.2582410  41.1893060  40.2839770 141.2218680  56.6384300  41.0882980
 142.1169470  56.9769270  41.1101740 141.2536310  55.9163710  40.4607260
 134.8614840  52.0111350  39.3169980 135.2989710  52.5541020  39.9727560
 135.3462570  51.1858300  39.3266320 132.0760640  54.8000380  46.7690240
 132.4063650  53.9321440  46.5368880 132.5051640  55.0058900  47.5995200
 136.6722560  53.1309390  44.4292210 136.3718100  53.0074360  45.3296120
 136.5660050  52.2717980  44.0207940 132.5650850  55.6670970  49.5071870
 132.1281840  55.8471770  50.3396020 133.1328530  56.4245590  49.3653590
 148.2013030  55.1687970  53.7949180 147.6015020  55.2280530  53.0513100
 148.3306930  54.2292950  53.9246030 132.3975280  48.1791200  45.8660750
 131.7424120  47.9102840  45.2220450 133.2353230  48.0695680  45.4162730
 146.8864670  51.8939950  51.8925340 146.0724510  52.3237110  52.1551130
 147.2938870  52.5058360  51.2794390 145.3465720  42.9732490  40.0879240
 145.7650600  42.7863470  39.2475900 145.0401780  42.1211540  40.3982170
 133.4351210  48.5643770  50.4064090 133.8024250  48.4771170  51.2860110
 132.8662030  47.8010320  50.3070950 148.2355070  47.0328150  53.4194560
 148.0041160  46.8040900  52.5192510 148.4959620  47.9527700  53.3739450
 132.9867210  45.4752860  54.3122510 132.0923260  45.4419620  54.6516220
 133.5264760  45.6739650  55.0773760 146.6743140  42.2584580  56.1974260
 147.5513320  42.2667980  56.5808260 146.6863980  41.5215420  55.5866610
 131.6113360  45.3890130  41.8086080 130.7077440  45.6520330  41.6337740
 132.0953980  45.6601300  41.0286040 148.2996130  46.1953990  50.6081830
 147.3498840  46.1617530  50.7226820 148.4809140  47.1054100  50.3731600
 134.1540570  44.4455670  39.7180460 134.8632270  44.0238890  39.2327740
 133.4380510  44.5130900  39.0863810 133.8014730  40.4995000  38.7583110
 134.5242860  41.0403940  39.0764330 134.0739250  40.2258420  37.8824650
 147.6106380  45.3687470  43.0254690 148.1065500  45.1358340  43.8103570
 147.4122450  44.5299310  42.6092330 133.4906920  39.7501190  48.6605730
 134.1383110  39.1998570  48.2200890 133.9108760  40.0044340  49.4821540
 147.3859260  39.9442550  52.0175370 148.0231480  40.5576690  52.3834560
 147.5334150  39.9803210  51.0724600 146.9440720  56.6458550  45.4193610
 147.5399790  56.3243120  44.7428030 147.2018870  56.1730370  46.2106880
 133.2438920  39.9056860  51.4031050 132.8953740  40.3620680  52.1689230
 132.9126620  39.0113990  51.4853480 134.8503290  53.0776460  55.5684240
 134.8072920  52.7069370  56.4498700 134.9814300  54.0154030  55.7086060
 138.5509320  54.6336050  51.1693960 138.3100680  54.9010610  50.2824480
 139.4911960  54.8041780  51.2244820 140.7563740  41.0968740  54.9250470
 140.6952630  41.6890570  55.6745880 141.6964120  40.9894700  54.7800730
 143.3938300  40.7538800  54.5642760 144.0078710  41.0718090  53.9023840
 143.9387860  40.2687390  55.1838620 133.9159560  39.4333060  54.6781820
 134.4642550  39.2521110  53.9147930 133.9814870  38.6427170  55.2138130
 134.6891320  56.0238710  52.6882020 134.0951640  55.8923410  53.4272060
 134.6815160  55.1876850  52.2224120 144.1346340  39.3170940  50.8912050
 143.2606180  39.6506050  50.6884980 144.0257090  38.8444120  51.7163920
 145.0418320  41.5241810  52.2753770 144.7131680  40.7093570  51.8955500
 145.9900620  41.4811620  52.1519460 147.4952930  57.2953850  49.2491340
 147.0355900  58.0469660  48.8749360 146.8665390  56.5760320  49.1906140
 134.3203550  53.3897090  51.6390060 133.5937610  52.7702380  51.5716010
 134.3812700  53.7837700  50.7688140 137.9248650  55.6042090  48.4239470
 138.4413670  54.9929450  47.8987730 138.5746030  56.1070870  48.9150480
 140.6644150  56.4950580  49.2508450 140.9521960  56.2404880  48.3741460
 141.1767370  55.9427940  49.8414020 141.8821160  40.2340780  49.8304960
 141.0992950  40.7086280  50.1101720 141.5884090  39.3295610  49.7218140
 146.4342230  40.9363880  47.8754050 146.8750320  40.8808980  47.0275650
 146.1649820  41.8521890  47.9464230 132.6033550  56.7071480  44.8486820
 132.4355590  56.0742160  45.5468710 131.7368060  56.9130880  44.4981010
 133.2261570  40.5388260  42.3518680 133.9840930  40.6517140  41.7782710
 132.7638740  41.3757460  42.3062110 139.7675380  42.6527530  45.3420990
 138.9549890  42.2784420  45.0016870 140.2717020  41.8972610  45.6442180
 144.2700360  39.3169980  46.5804060 144.8729730  39.8890190  47.0552580
 143.5293350  39.8809420  46.3577960 147.4134960  39.7191540  41.8544340
 147.6085590  40.6174990  42.1211770 146.6264830  39.4878620  42.3477290
 134.2096250  55.4004710  42.2936960 133.6843870  55.7812740  41.5898920
 134.1340830  56.0255480  43.0146670 135.5986720  41.0652310  40.8920650
 136.1279480  40.2782110  40.7628600 136.2315040  41.7443500  41.1256180
 137.7924560  40.8027450  43.9466040 137.1627300  40.1014760  44.1136170
 137.2529700  41.5631580  43.7299200 140.7316510  57.4166680  56.6176650
 141.6583820  57.1810950  56.6612610 140.7166940  58.2438680  56.1362680
 137.9180120  40.0811430  56.3818530 137.6364390  40.5845030  55.6179350
 138.2999820  39.2833180  56.0160660 136.8089220  57.3487090  41.1686210
 137.5408040  57.0646370  40.6210100 137.0682890  57.1100370  42.0585590
 135.9704010  53.4651820  41.1732540 135.3412890  53.9336920  41.7218370
 136.0851840  52.6201040  41.6078730 144.5195580  39.4965010  56.9599000
 144.4061030  39.8159620  57.8550520 145.3365320  39.8977520  56.6636280
 147.2994070  56.6436540  56.4417690 148.0919390  56.1485770  56.2343650
 147.5927220  57.3226680  57.0493300 143.4253730  47.5157480  27.3233740
 143.3447780  46.6012090  27.0525450 143.0118150  48.0124550  26.6173450
 141.5571770  49.2936500  29.2043010 140.7813870  48.8136940  29.4941580
 142.2084700  48.6142150  29.0299170 135.5737600  49.6056310  30.0818770
 134.7422480  49.3505020  30.4815280 136.1818580  49.6767080  30.8176690
 145.5779200  53.6996690  27.9842140 145.1160730  52.9283930  28.3129310
 146.3904750  53.7262760  28.4894590 135.5538860  53.6396400  30.2776790
 135.8566900  52.7494140  30.0987010 136.2982450  54.1966620  30.0499040
 133.9829550  44.5658200  23.8661160 133.0946250  44.9074170  23.7641040
 134.2670740  44.3658520  22.9741990 131.9462560  47.1663850  29.7500860
 132.5178670  46.3986050  29.7504500 131.9464100  47.4652610  28.8407470
 141.8042510  55.9854700  27.6046130 141.1853950  56.4412200  27.0340570
 142.6594290  56.1406160  27.2035830 140.9980760  51.9693690  29.2113170
 140.9289040  51.0283630  29.0502300 141.7600620  52.0595100  29.7835740
 133.1887430  42.5748210  31.5369790 133.0090270  41.6773960  31.8172550
 132.7867510  43.1220080  32.2116740 142.0285930  44.7764070  29.4382100
 142.4050750  43.9035950  29.3255770 141.9305440  45.1122770  28.5472540
 136.1590940  43.1489700  24.8999540 136.2657690  44.0493430  25.2068300
 135.2483300  43.1007670  24.6094190 145.8110050  42.2714510  26.3710440
 146.6319670  41.7811080  26.4135920 145.8444130  42.8612170  27.1242280
 133.8074100  45.0708710  30.1452130 134.4884210  45.3347080  30.7639530
 133.4922150  44.2309580  30.4790140 137.9998670  46.1176070  29.2324720
 138.5076890  46.6157040  29.8729740 138.5311910  45.3411270  29.0564080
 136.2834770  40.7574630  33.4988140 136.2853210  41.2747020  32.6934040
 135.4539080  40.2804810  33.4758070 142.6705860  50.8693940  24.9978040
 142.0523130  51.3343390  24.4340760 143.1829110  51.5621420  25.4147550
 137.5337620  50.3969810  31.6761640 137.2007000  51.0238730  32.3182710
 137.7104300  50.9231690  30.8963310 146.0471530  44.2114890  29.1437980
 145.3427100  44.4999780  29.7241090 146.4083690  45.0215000  28.7837540
 135.9650100  42.4684590  31.5058590 136.3066910  43.3126640  31.2112460
 135.0265910  42.6168330  31.6223930 136.7456720  52.3650610  33.4910820
 137.3630720  53.0401690  33.2095270 135.8849840  52.7738590  33.3998320
 132.0389060  51.5550470  22.3717670 131.6617040  52.0437570  21.6402570
 132.2962130  52.2275750  23.0024200 147.6634310  53.8290020  31.4065460
 146.9797830  54.4989130  31.3982130 148.2028600  54.0270670  30.6410320
 139.6477990  39.9566860  27.8303180 139.9552970  39.4013750  27.1138680
 138.7178690  40.0911320  27.6476170 145.1993050  55.6734150  30.1210640
 145.2120210  55.2696440  29.2532900 144.6468270  56.4481440  30.0172070
 146.4938470  52.3950370  25.2100810 146.3834800  51.4524700  25.3350230
 146.4906720  52.7566010  26.0963570 144.5978490  50.5763990  31.4493250
 145.0147280  50.3624100  30.6146710 145.3218310  50.8336780  32.0201870
 142.0358750  48.0215690  24.5663300 141.1088030  47.9553070  24.7951770
 142.1883570  48.9595820  24.4518540 142.0227830  44.2932690  21.5630460
 141.0831500  44.4546650  21.6482920 142.3411090  45.0118370  21.0166450
 146.0656040  49.5835990  25.0698550 145.4468460  49.2455540  24.4224850
 146.0480490  48.9395750  25.7777740 145.5082600  45.7620530  32.4864360
 145.0953780  46.5874240  32.7404350 144.7758550  45.1765570  32.2940720
 137.6415390  48.5480430  27.3483030 137.2372390  47.8357680  26.8528930
 137.7278510  48.2033670  28.2371070 138.1097090  52.2347990  29.5122240
 137.8125380  51.6293460  28.8330020 139.0596910  52.2725300  29.4011600
 136.3544010  45.3223640  31.1282070 136.9058600  45.4318980  30.3535320
 136.8687520  45.6961240  31.8437300 146.1982700  55.8079860  33.1745340
 145.7213260  56.6152050  32.9817950 145.5144490  55.1558190  33.3271550
 137.2015520  51.9729680  36.1630040 136.3044050  52.1969650  36.4103440
 137.2268390  52.0964620  35.2141440 144.2420740  48.8222800  22.0771300
 144.6814020  47.9845230  21.9309120 144.9549160  49.4552200  22.1635440
 136.0286740  48.8443000  34.7387410 135.8894510  49.7165800  35.1074810
 135.1468100  48.5015810  34.5935350 142.3516120  53.7618870  26.0452540
 142.7912030  54.5043200  25.6307930 142.2903010  54.0045440  26.9691500
 137.8267090  54.7864700  36.9472560 137.7982520  55.1907650  36.0800990
 137.6632060  53.8575060  36.7844160 147.8237880  40.0765610  20.3912340
 147.5110540  40.1692440  21.2911410 148.5850350  40.6546640  20.3409770
 134.3420020  47.4425410  24.8489680 134.2217620  48.1687500  24.2370950
 134.0320910  46.6728320  24.3717590 131.9805390  50.6140550  30.6558320
 132.0585810  50.7489320  29.7114040 132.5947070  49.9056440  30.8486440
 133.2253020  52.3140740  27.0664500 132.8181100  52.4555330  26.2118100
 134.1166030  52.0300900  26.8635710 143.0431900  56.4632650  33.9731550
 143.5576570  56.3740660  34.7753980 142.2000980  56.8092350  34.2659460
 145.0186300  56.7487990  23.4015550 144.8587440  56.4590930  24.2997380
 144.8533010  55.9728120  22.8660780 137.4974680  56.5286520  25.1787170
 137.3217160  55.6122060  24.9654970 136.6430420  56.8873810  25.4184970
 144.7212430  54.2575550  21.9613550 144.0277590  54.2552840  21.3015830
 145.4635290  53.8334870  21.5307720 144.2862360  55.8838260  26.0362040
 144.7419310  55.1027640  26.3500660 144.6254880  56.5945080  26.5803220
 132.0364910  51.6554720  33.1952780 132.1995950  51.1860080  32.3772150
 132.5017360  51.1478280  33.8601620 136.8083680  40.7860480  28.2313350
 136.3651830  41.5670020  27.8997870 137.3668670  41.1090370  28.9384290
 141.0953490  43.6529000  33.8348670 140.6332860  43.8612020  34.6468610
 140.6931600  42.8388350  33.5319340 146.0958000  44.8737950  34.9645330
 145.2451590  44.5743700  35.2854400 145.9359790  45.1179960  34.0529150
 143.1907710  46.3739700  37.0644120 143.5161120  45.5403450  36.7246350
 143.9788040  46.8968220  37.2122450 139.9242500  40.4071180  23.1119180
 139.2996680  40.4031050  23.8372490 139.8372620  39.5402140  22.7155150
 138.8459580  41.3307810  30.0902950 139.1431910  42.2370640  30.0094970
 139.3945140  40.8426590  29.4762520 136.5997900  45.9094050  25.9594600
 136.3738820  45.6931220  26.8641220 135.8190430  46.3422510  25.6140570
 143.8295660  45.9157420  24.5585250 143.2304550  46.6393220  24.3748870
 144.3775270  45.8534200  23.7761700 139.0397110  46.8079630  36.6254870
 138.9440710  45.8674360  36.4755270 139.8829090  47.0294700  36.2302940
 142.4360530  44.5520960  26.5888530 142.8290100  44.8693160  25.7757220
 142.7977380  43.6732840  26.7033050 134.1707650  43.2193300  34.7788650
 133.7771040  44.0668510  34.9861430 133.4826050  42.5819670  34.9697290
 140.7452700  43.3028270  37.8485390 140.0551020  43.1100470  38.4831480
 141.4885000  43.5862910  38.3809690 131.4724700  41.1421760  28.8118730
 131.1837750  41.7124620  29.5243710 132.2170460  40.6626210  29.1749960
 131.6594930  45.0841880  20.0221450 131.5769600  46.0272640  20.1636440
 131.3077990  44.9416790  19.1433800 143.0215670  47.1426710  30.6839310
 142.2896790  47.6513520  31.0329410 142.6240010  46.3256690  30.3828090
 139.4593060  43.8180910  29.0891800 139.4629120  43.3770860  28.2396340
 140.3544180  44.1398240  29.1963620 135.3095440  43.7007400  28.0486010
 134.9695490  44.1782630  28.8053060 134.5472760  43.2472520  27.6887110
 139.5213210  44.8192990  22.0798560 139.6426030  44.7779470  23.0284380
 139.1361720  45.6817140  21.9245290 143.4841580  42.5960390  30.0962250
 143.5014320  43.0469040  30.9404100 143.2357160  41.6966030  30.3095690
 138.5334710  47.1294130  21.4781860 137.9651610  46.6812380  20.8517770
 139.2423710  47.4886910  20.9447010 146.9112330  40.0092570  35.9348630
 147.2358100  39.2782230  36.4606610 146.9468840  39.6906210  35.0329620
 133.6103890  51.0306150  35.3548590 133.2258680  50.3899820  35.9531550
 133.9216080  51.7342270  35.9243320 139.7601030  47.8782690  30.8357210
 140.1271160  47.4041260  31.5818550 139.5706090  48.7524260  31.1765550
 132.6241520  42.6226380  26.9650680 132.3388440  42.2582050  27.8029300
 132.5620380  41.8906840  26.3513820 137.5500400  46.9191330  33.1541420
 137.2457470  47.7983310  33.3791780 138.5046860  46.9791120  33.1898860
 136.0782190  51.1252320  23.7508270 135.3044450  50.5849940  23.5906990
 136.8076820  50.6058930  23.4126030 146.8370170  50.1217680  29.5434660
 147.5569290  50.6172970  29.1530770 146.6351990  49.4435570  28.8988530
 142.2980110  41.5155640  23.6864050 141.4844720  41.0168810  23.6109360
 142.1042060  42.3553890  23.2700400 142.2188970  50.1926740  35.4303660
 142.1526280  49.2722410  35.1761250 141.5894110  50.2902180  36.1448300
 145.0128500  45.8875290  21.9826210 145.9008120  46.1992520  21.8077550
 144.9833590  45.0147540  21.5906790 136.1219590  50.7932700  27.3887080
 136.6398260  49.9900960  27.3343970 135.6703610  50.7311840  28.2303910
 141.0089090  52.0598980  22.6614380 141.3504790  52.8041210  22.1657700
 140.1801800  52.3730100  23.0239210 133.6064130  47.7594070  34.3012780
 133.2479070  48.4247920  34.8886120 133.3118690  46.9277620  34.6725400
 136.8077250  48.2178310  37.1852330 136.5077390  48.3635490  36.2880150
 137.5788490  47.6583600  37.0925720 142.1505700  53.0147310  35.1807460
 142.1650240  52.0828270  34.9626370 141.4430800  53.1007070  35.8197230
 147.2842770  47.1987130  21.4506070 147.2006490  47.6301350  20.6002510
 148.0036960  47.6585480  21.8832890 148.3130020  54.0529390  24.1788200
 147.6706180  53.3985010  24.4531920 147.9260680  54.4584480  23.4028870
 143.8916500  51.3814820  28.0259890 144.2440320  50.7842950  27.3661260
 143.0078830  51.0559050  28.1968140 139.9779780  52.1412510  25.4330300
 140.6650910  52.6881720  25.8137890 139.1912200  52.6853240  25.4679910
 132.1172180  47.7585330  20.9247380 132.9867030  48.0410130  21.2083300
 131.6262500  48.5721200  20.8096190 139.2806990  49.1458540  25.0455660
 139.7369770  49.9563790  25.2715850 138.9295200  48.8281680  25.8774150
 141.5839600  54.6564880  32.2747960 142.2281820  54.8624260  32.9521380
 141.9469040  53.8953280  31.8218810 135.1818770  39.4896190  25.5178180
 135.0533400  39.4814090  26.4663100 134.3580790  39.8279280  25.1669190
 142.8571680  52.6597230  30.9925410 143.4993910  51.9590390  31.1057580
 143.3821030  53.4395670  30.8122300 146.7027400  52.9445850  20.7164550
 146.4764980  52.2276290  21.3089190 146.3123600  52.6958290  19.8786300
 144.6309300  53.4592130  34.1961470 144.9665540  54.0458820  34.8739390
 143.7109640  53.3284840  34.4259260 132.4843430  56.9712710  21.4909010
 132.8441070  57.5702050  20.8366280 132.3435770  57.5172600  22.2644040
 132.1812700  41.2487310  34.9784880 131.4671220  41.4484230  35.5837490
 132.6007740  40.4726880  35.3499680 146.2843650  50.8617790  22.3778710
 145.9965350  51.3230480  23.1656590 147.0795820  50.4015560  22.6462930
 132.4685290  55.2367570  35.9651410 132.5776410  54.2962310  35.8246800
 131.8165850  55.5022320  35.3165140 140.4597880  53.5083460  37.3649530
 140.1394750  52.7892700  37.9095220 139.7856240  54.1838530  37.4385590
 138.5012050  54.3543910  22.3082680 138.4922150  55.0873600  21.6927190
 137.5810410  54.1075490  22.4009640 134.1018690  49.5758800  23.0529440
 133.4946640  50.3157700  23.0624740 134.5768040  49.6658160  22.2267640
 143.6751480  43.7409620  32.7286330 144.0432300  42.9204830  33.0565900
 142.8149680  43.8011510  33.1441980 147.0413510  42.6966560  23.5373890
 146.4126670  42.8012230  22.8232120 146.5465430  42.9163340  24.3267770
 141.4871650  54.4172150  20.9707870 141.5883630  54.2136140  20.0409850
 140.5873390  54.1630430  21.1755650 139.0097540  44.9752510  24.9531770
 138.3013690  45.4438850  25.3945380 139.2942020  44.3174520  25.5876960
 140.6353470  46.3949210  32.9524300 141.1338720  46.8695030  33.6176150
 140.7776420  45.4712730  33.1594330 143.0412970  41.7003170  26.3927560
 142.9180750  41.7189300  25.4437070 143.9897530  41.7482110  26.5125960
 140.1289760  56.9358470  25.6655540 140.3831260  56.8979860  24.7434910
 139.1802240  56.8091800  25.6583790 137.2132560  43.2837590  22.3282480
 138.0623090  43.7207740  22.2622670 136.8463830  43.5957850  23.1554540
 147.8420330  42.6117170  33.7952690 147.3393930  43.3522570  34.1346500
 148.6576990  43.0001170  33.4789480 146.1342340  47.8550350  27.2414050
 145.1932480  47.8700580  27.4161740 146.4486410  47.0686310  27.6874350
 136.1123980  49.5369950  20.8018010 136.8787250  49.4251310  21.3643440
 136.1898670  48.8407920  20.1494780 134.8070740  46.9695020  21.4850900
 134.8874330  46.0222530  21.5968300 135.6990490  47.3001900  21.5911560
 135.6085450  57.1190410  28.5885440 136.3447930  56.5705870  28.8594010
 135.9926370  57.9846420  28.4491430 132.4930930  53.1863980  24.4626950
 131.5670710  53.4285120  24.4532360 132.9587360  54.0138240  24.3411700
 134.6143730  56.3036480  37.7771020 135.4156460  56.6248530  38.1906420
 134.0995550  55.9432060  38.4990930 138.7187760  56.2920720  20.4111010
 139.5116370  56.5809550  19.9592800 138.1992110  55.8612890  19.7323490
 143.4508360  52.4116350  37.7246430 142.8446520  52.4347950  36.9842180
 143.1462470  51.6799390  38.2613680 144.8808730  56.1396640  36.3355840
 145.8330480  56.0554660  36.2856080 144.7336950  56.8038350  37.0089630
 147.7717930  55.5190850  21.8347750 147.4859440  55.1055990  21.0201930
 147.5737480  56.4478560  21.7148270 132.3341540  48.7909940  36.7207070
 132.8380560  48.2117220  37.2923300 131.5948960  49.0750170  37.2583440
 139.2365160  51.5124130  20.2753360 139.1315800  50.8976480  21.0014740
 139.0689380  50.9890020  19.4916370 139.3879480  50.1980930  36.2542590
 138.6225150  50.7665930  36.1697260 139.5695440  49.9057140  35.3610820
 142.4767890  50.5744160  20.8795350 141.9277990  51.0213460  21.5238090
 143.0987150  50.0693410  21.4033020 146.5302830  51.9286260  36.8117610
 147.2712300  52.2662020  36.3085070 145.7675510  52.0978320  36.2587380
 134.3664620  46.9339530  37.6157140 134.4069960  46.6353400  38.5242370
 135.2210120  47.3347140  37.4564660 138.1443010  49.5335080  22.7760650
 138.5659430  49.3674950  23.6192040 138.2693850  48.7235310  22.2815790
 136.3070430  45.5131630  35.5831630 135.7766890  45.0222580  34.9554970
 136.9758500  45.9415830  35.0489560 140.6570650  48.5572690  20.0237750
 141.1776310  47.8421710  19.6578900 141.3039050  49.1958560  20.3238260
 145.2048490  49.9801090  35.3472820 145.6189510  50.1346170  36.1963240
 144.2699490  50.1056310  35.5098600 145.6770660  47.3197250  37.3511970
 146.2591430  46.5649570  37.2632450 145.8532430  47.8504690  36.5743450
 136.7942730  42.4794000  35.6628920 136.6999600  41.8614750  34.9379790
 136.2140120  43.2060290  35.4358830 139.5604170  41.0367240  32.6956310
 139.1121470  41.0591500  31.8501860 138.9269370  40.6386260  33.2926610
 139.9663720  49.9321570  33.3168750 140.3851830  50.7754300  33.1444990
 139.0472350  50.0693610  33.0875530 142.3027620  47.6637750  34.7006590
 142.4223830  47.0678890  35.4401430 143.1621620  47.7007440  34.2807890
 144.6415520  48.2174940  33.2769100 144.1150740  48.7417560  32.6734240
 144.9846860  48.8502330  33.9078830 137.0401910  45.6068310  19.7218810
 136.8390970  44.7435670  20.0832150 136.8693960  45.5201670  18.7840410
 137.8171140  56.2374580  34.4326480 137.2792230  56.9620640  34.1135180
 138.0705100  55.7604920  33.6423820 139.0696390  44.2059100  35.9582410
 139.6596080  43.8974950  36.6460230 138.2516630  43.7338850  36.1142310
 143.8889820  43.8224910  36.1915430 143.2005340  43.1606450  36.1265420
 144.6095840  43.3763180  36.6363890 144.5190220  40.4176540  22.2505690
 144.7992510  39.5744440  22.6065110 143.7455950  40.6499650  22.7644440
 135.8384710  42.7068930  19.7096690 136.1410610  42.7136360  18.8015840
 136.5779300  42.3566790  20.2064350 140.6733350  57.4725790  34.6913130
 140.5992050  58.3760930  34.9985500 139.7712190  57.1537690  34.6635200
 139.0569640  41.6503550  20.6952890 138.7091640  40.9727540  20.1155340
 139.2582410  41.1893060  21.5096280 141.2218680  56.6384300  22.3139490
 142.1169470  56.9769270  22.3358250 141.2536310  55.9163710  21.6863770
 134.8614840  52.0111350  20.5426490 135.2989710  52.5541020  21.1984070
 135.3462570  51.1858300  20.5522830 132.0760640  54.8000380  27.9946750
 132.4063650  53.9321440  27.7625390 132.5051640  55.0058900  28.8251710
 136.6722560  53.1309390  25.6548720 136.3718100  53.0074360  26.5552630
 136.5660050  52.2717980  25.2464450 132.5650850  55.6670970  30.7328380
 132.1281840  55.8471770  31.5652530 133.1328530  56.4245590  30.5910100
 148.2013030  55.1687970  35.0205690 147.6015020  55.2280530  34.2769610
 148.3306930  54.2292950  35.1502540 132.3975280  48.1791200  27.0917260
 131.7424120  47.9102840  26.4476960 133.2353230  48.0695680  26.6419240
 146.8864670  51.8939950  33.1181850 146.0724510  52.3237110  33.3807640
 147.2938870  52.5058360  32.5050900 145.3465720  42.9732490  21.3135750
 145.7650600  42.7863470  20.4732410 145.0401780  42.1211540  21.6238680
 133.4351210  48.5643770  31.6320600 133.8024250  48.4771170  32.5116620
 132.8662030  47.8010320  31.5327460 148.2355070  47.0328150  34.6451070
 148.0041160  46.8040900  33.7449020 148.4959620  47.9527700  34.5995960
 132.9867210  45.4752860  35.5379020 132.0923260  45.4419620  35.8772730
 133.5264760  45.6739650  36.3030270 146.6743140  42.2584580  37.4230770
 147.5513320  42.2667980  37.8064770 146.6863980  41.5215420  36.8123120
 131.6113360  45.3890130  23.0342590 130.7077440  45.6520330  22.8594250
 132.0953980  45.6601300  22.2542550 148.2996130  46.1953990  31.8338340
 147.3498840  46.1617530  31.9483330 148.4809140  47.1054100  31.5988110
 134.1540570  44.4455670  20.9436970 134.8632270  44.0238890  20.4584250
 133.4380510  44.5130900  20.3120320 133.8014730  40.4995000  19.9839620
 134.5242860  41.0403940  20.3020840 134.0739250  40.2258420  19.1081160
 147.6106380  45.3687470  24.2511200 148.1065500  45.1358340  25.0360080
 147.4122450  44.5299310  23.8348840 133.4906920  39.7501190  29.8862240
 134.1383110  39.1998570  29.4457400 133.9108760  40.0044340  30.7078050
 147.3859260  39.9442550  33.2431880 148.0231480  40.5576690  33.6091070
 147.5334150  39.9803210  32.2981110 146.9440720  56.6458550  26.6450120
 147.5399790  56.3243120  25.9684540 147.2018870  56.1730370  27.4363390
 133.2438920  39.9056860  32.6287560 132.8953740  40.3620680  33.3945740
 132.9126620  39.0113990  32.7109990 134.8503290  53.0776460  36.7940750
 134.8072920  52.7069370  37.6755210 134.9814300  54.0154030  36.9342570
 138.5509320  54.6336050  32.3950470 138.3100680  54.9010610  31.5080990
 139.4911960  54.8041780  32.4501330 140.7563740  41.0968740  36.1506980
 140.6952630  41.6890570  36.9002390 141.6964120  40.9894700  36.0057240
 143.3938300  40.7538800  35.7899270 144.0078710  41.0718090  35.1280350
 143.9387860  40.2687390  36.4095130 133.9159560  39.4333060  35.9038330
 134.4642550  39.2521110  35.1404440 133.9814870  38.6427170  36.4394640
 134.6891320  56.0238710  33.9138530 134.0951640  55.8923410  34.6528570
 134.6815160  55.1876850  33.4480630 144.1346340  39.3170940  32.1168560
 143.2606180  39.6506050  31.9141490 144.0257090  38.8444120  32.9420430
 145.0418320  41.5241810  33.5010280 144.7131680  40.7093570  33.1212010
 145.9900620  41.4811620  33.3775970 147.4952930  57.2953850  30.4747850
 147.0355900  58.0469660  30.1005870 146.8665390  56.5760320  30.4162650
 134.3203550  53.3897090  32.8646570 133.5937610  52.7702380  32.7972520
 134.3812700  53.7837700  31.9944650 137.9248650  55.6042090  29.6495980
 138.4413670  54.9929450  29.1244240 138.5746030  56.1070870  30.1406990
 140.6644150  56.4950580  30.4764960 140.9521960  56.2404880  29.5997970
 141.1767370  55.9427940  31.0670530 141.8821160  40.2340780  31.0561470
 141.0992950  40.7086280  31.3358230 141.5884090  39.3295610  30.9474650
 146.4342230  40.9363880  29.1010560 146.8750320  40.8808980  28.2532160
 146.1649820  41.8521890  29.1720740 132.6033550  56.7071480  26.0743330
 132.4355590  56.0742160  26.7725220 131.7368060  56.9130880  25.7237520
 133.2261570  40.5388260  23.5775190 133.9840930  40.6517140  23.0039220
 132.7638740  41.3757460  23.5318620 139.7675380  42.6527530  26.5677500
 138.9549890  42.2784420  26.2273380 140.2717020  41.8972610  26.8698690
 144.2700360  39.3169980  27.8060570 144.8729730  39.8890190  28.2809090
 143.5293350  39.8809420  27.5834470 147.4134960  39.7191540  23.0800850
 147.6085590  40.6174990  23.3468280 146.6264830  39.4878620  23.5733800
 134.2096250  55.4004710  23.5193470 133.6843870  55.7812740  22.8155430
 134.1340830  56.0255480  24.2403180 135.5986720  41.0652310  22.1177160
 136.1279480  40.2782110  21.9885110 136.2315040  41.7443500  22.3512690
 137.7924560  40.8027450  25.1722550 137.1627300  40.1014760  25.3392680
 137.2529700  41.5631580  24.9555710 140.7316510  57.4166680  37.8433160
 141.6583820  57.1810950  37.8869120 140.7166940  58.2438680  37.3619190
 137.9180120  40.0811430  37.6075040 137.6364390  40.5845030  36.8435860
 138.2999820  39.2833180  37.2417170 136.8089220  57.3487090  22.3942720
 137.5408040  57.0646370  21.8466610 137.0682890  57.1100370  23.2842100
 135.9704010  53.4651820  22.3989050 135.3412890  53.9336920  22.9474880
 136.0851840  52.6201040  22.8335240 144.5195580  39.4965010  38.1855510
 144.4061030  39.8159620  39.0807030 145.3365320  39.8977520  37.8892790
 147.2994070  56.6436540  37.6674200 148.0919390  56.1485770  37.4600160
 147.5927220  57.3226680  38.2749810 143.4253730  47.5157480   8.5490250
 143.3447780  46.6012090   8.2781960 143.0118150  48.0124550   7.8429960
 141.5571770  49.2936500  10.4299520 140.7813870  48.8136940  10.7198090
 142.2084700  48.6142150  10.2555680 135.5737600  49.6056310  11.3075280
 134.7422480  49.3505020  11.7071790 136.1818580  49.6767080  12.0433200
 145.5779200  53.6996690   9.2098650 145.1160730  52.9283930   9.5385820
 146.3904750  53.7262760   9.7151100 135.5538860  53.6396400  11.5033300
 135.8566900  52.7494140  11.3243520 136.2982450  54.1966620  11.2755550
 133.9829550  44.5658200   5.0917670 133.0946250  44.9074170   4.9897550
 134.2670740  44.3658520   4.1998500 131.9462560  47.1663850  10.9757370
 132.5178670  46.3986050  10.9761010 131.9464100  47.4652610  10.0663980
 141.8042510  55.9854700   8.8302640 141.1853950  56.4412200   8.2597080
 142.6594290  56.1406160   8.4292340 140.9980760  51.9693690  10.4369680
 140.9289040  51.0283630  10.2758810 141.7600620  52.0595100  11.0092250
 133.1887430  42.5748210  12.7626300 133.0090270  41.6773960  13.0429060
 132.7867510  43.1220080  13.4373250 142.0285930  44.7764070  10.6638610
 142.4050750  43.9035950  10.5512280 141.9305440  45.1122770   9.7729050
 136.1590940  43.1489700   6.1256050 136.2657690  44.0493430   6.4324810
 135.2483300  43.1007670   5.8350700 145.8110050  42.2714510   7.5966950
 146.6319670  41.7811080   7.6392430 145.8444130  42.8612170   8.3498790
 133.8074100  45.0708710  11.3708640 134.4884210  45.3347080  11.9896040
 133.4922150  44.2309580  11.7046650 137.9998670  46.1176070  10.4581230
 138.5076890  46.6157040  11.0986250 138.5311910  45.3411270  10.2820590
 136.2834770  40.7574630  14.7244650 136.2853210  41.2747020  13.9190550
 135.4539080  40.2804810  14.7014580 142.6705860  50.8693940   6.2234550
 142.0523130  51.3343390   5.6597270 143.1829110  51.5621420   6.6404060
 137.5337620  50.3969810  12.9018150 137.2007000  51.0238730  13.5439220
 137.7104300  50.9231690  12.1219820 146.0471530  44.2114890  10.3694490
 145.3427100  44.4999780  10.9497600 146.4083690  45.0215000  10.0094050
 135.9650100  42.4684590  12.7315100 136.3066910  43.3126640  12.4368970
 135.0265910  42.6168330  12.8480440 136.7456720  52.3650610  14.7167330
 137.3630720  53.0401690  14.4351780 135.8849840  52.7738590  14.6254830
 132.0389060  51.5550470   3.5974180 131.6617040  52.0437570   2.8659080
 132.2962130  52.2275750   4.2280710 147.6634310  53.8290020  12.6321970
 146.9797830  54.4989130  12.6238640 148.2028600  54.0270670  11.8666830
 139.6477990  39.9566860   9.0559690 139.9552970  39.4013750   8.3395190
 138.7178690  40.0911320   8.8732680 145.1993050  55.6734150  11.3467150
 145.2120210  55.2696440  10.4789410 144.6468270  56.4481440  11.2428580
 146.4938470  52.3950370   6.4357320 146.3834800  51.4524700   6.5606740
 146.4906720  52.7566010   7.3220080 144.5978490  50.5763990  12.6749760
 145.0147280  50.3624100  11.8403220 145.3218310  50.8336780  13.2458380
 142.0358750  48.0215690   5.7919810 141.1088030  47.9553070   6.0208280
 142.1883570  48.9595820   5.6775050 142.0227830  44.2932690   2.7886970
 141.0831500  44.4546650   2.8739430 142.3411090  45.0118370   2.2422960
 146.0656040  49.5835990   6.2955060 145.4468460  49.2455540   5.6481360
 146.0480490  48.9395750   7.0034250 145.5082600  45.7620530  13.7120870
 145.0953780  46.5874240  13.9660860 144.7758550  45.1765570  13.5197230
 137.6415390  48.5480430   8.5739540 137.2372390  47.8357680   8.0785440
 137.7278510  48.2033670   9.4627580 138.1097090  52.2347990  10.7378750
 137.8125380  51.6293460  10.0586530 139.0596910  52.2725300  10.6268110
 136.3544010  45.3223640  12.3538580 136.9058600  45.4318980  11.5791830
 136.8687520  45.6961240  13.0693810 146.1982700  55.8079860  14.4001850
 145.7213260  56.6152050  14.2074460 145.5144490  55.1558190  14.5528060
 137.2015520  51.9729680  17.3886550 136.3044050  52.1969650  17.6359950
 137.2268390  52.0964620  16.4397950 144.2420740  48.8222800   3.3027810
 144.6814020  47.9845230   3.1565630 144.9549160  49.4552200   3.3891950
 136.0286740  48.8443000  15.9643920 135.8894510  49.7165800  16.3331320
 135.1468100  48.5015810  15.8191860 142.3516120  53.7618870   7.2709050
 142.7912030  54.5043200   6.8564440 142.2903010  54.0045440   8.1948010
 137.8267090  54.7864700  18.1729070 137.7982520  55.1907650  17.3057500
 137.6632060  53.8575060  18.0100670 134.3420020  47.4425410   6.0746190
 134.2217620  48.1687500   5.4627460 134.0320910  46.6728320   5.5974100
 131.9805390  50.6140550  11.8814830 132.0585810  50.7489320  10.9370550
 132.5947070  49.9056440  12.0742950 133.2253020  52.3140740   8.2921010
 132.8181100  52.4555330   7.4374610 134.1166030  52.0300900   8.0892220
 143.0431900  56.4632650  15.1988060 143.5576570  56.3740660  16.0010490
 142.2000980  56.8092350  15.4915970 145.0186300  56.7487990   4.6272060
 144.8587440  56.4590930   5.5253890 144.8533010  55.9728120   4.0917290
 137.4974680  56.5286520   6.4043680 137.3217160  55.6122060   6.1911480
 136.6430420  56.8873810   6.6441480 144.7212430  54.2575550   3.1870060
 144.0277590  54.2552840   2.5272340 145.4635290  53.8334870   2.7564230
 144.2862360  55.8838260   7.2618550 144.7419310  55.1027640   7.5757170
 144.6254880  56.5945080   7.8059730 132.0364910  51.6554720  14.4209290
 132.1995950  51.1860080  13.6028660 132.5017360  51.1478280  15.0858130
 136.8083680  40.7860480   9.4569860 136.3651830  41.5670020   9.1254380
 137.3668670  41.1090370  10.1640800 141.0953490  43.6529000  15.0605180
 140.6332860  43.8612020  15.8725120 140.6931600  42.8388350  14.7575850
 146.0958000  44.8737950  16.1901840 145.2451590  44.5743700  16.5110910
 145.9359790  45.1179960  15.2785660 143.1907710  46.3739700  18.2900630
 143.5161120  45.5403450  17.9502860 143.9788040  46.8968220  18.4378960
 139.9242500  40.4071180   4.3375690 139.2996680  40.4031050   5.0629000
 139.8372620  39.5402140   3.9411660 138.8459580  41.3307810  11.3159460
 139.1431910  42.2370640  11.2351480 139.3945140  40.8426590  10.7019030
 136.5997900  45.9094050   7.1851110 136.3738820  45.6931220   8.0897730
 135.8190430  46.3422510   6.8397080 143.8295660  45.9157420   5.7841760
 143.2304550  46.6393220   5.6005380 144.3775270  45.8534200   5.0018210
 139.0397110  46.8079630  17.8511380 138.9440710  45.8674360  17.7011780
 139.8829090  47.0294700  17.4559450 142.4360530  44.5520960   7.8145040
 142.8290100  44.8693160   7.0013730 142.7977380  43.6732840   7.9289560
 134.1707650  43.2193300  16.0045160 133.7771040  44.0668510  16.2117940
 133.4826050  42.5819670  16.1953800 140.7452700  43.3028270  19.0741900
 140.0551020  43.1100470  19.7087990 141.4885000  43.5862910  19.6066200
 131.4724700  41.1421760  10.0375240 131.1837750  41.7124620  10.7500220
 132.2170460  40.6626210  10.4006470 143.0215670  47.1426710  11.9095820
 142.2896790  47.6513520  12.2585920 142.6240010  46.3256690  11.6084600
 139.4593060  43.8180910  10.3148310 139.4629120  43.3770860   9.4652850
 140.3544180  44.1398240  10.4220130 135.3095440  43.7007400   9.2742520
 134.9695490  44.1782630  10.0309570 134.5472760  43.2472520   8.9143620
 139.5213210  44.8192990   3.3055070 139.6426030  44.7779470   4.2540890
 139.1361720  45.6817140   3.1501800 143.4841580  42.5960390  11.3218760
 143.5014320  43.0469040  12.1660610 143.2357160  41.6966030  11.5352200
 138.5334710  47.1294130   2.7038370 137.9651610  46.6812380   2.0774280
 139.2423710  47.4886910   2.1703520 146.9112330  40.0092570  17.1605140
 147.2358100  39.2782230  17.6863120 146.9468840  39.6906210  16.2586130
 133.6103890  51.0306150  16.5805100 133.2258680  50.3899820  17.1788060
 133.9216080  51.7342270  17.1499830 139.7601030  47.8782690  12.0613720
 140.1271160  47.4041260  12.8075060 139.5706090  48.7524260  12.4022060
 132.6241520  42.6226380   8.1907190 132.3388440  42.2582050   9.0285810
 132.5620380  41.8906840   7.5770330 137.5500400  46.9191330  14.3797930
 137.2457470  47.7983310  14.6048290 138.5046860  46.9791120  14.4155370
 136.0782190  51.1252320   4.9764780 135.3044450  50.5849940   4.8163500
 136.8076820  50.6058930   4.6382540 146.8370170  50.1217680  10.7691170
 147.5569290  50.6172970  10.3787280 146.6351990  49.4435570  10.1245040
 142.2980110  41.5155640   4.9120560 141.4844720  41.0168810   4.8365870
 142.1042060  42.3553890   4.4956910 142.2188970  50.1926740  16.6560170
 142.1526280  49.2722410  16.4017760 141.5894110  50.2902180  17.3704810
 145.0128500  45.8875290   3.2082720 145.9008120  46.1992520   3.0334060
 144.9833590  45.0147540   2.8163300 136.1219590  50.7932700   8.6143590
 136.6398260  49.9900960   8.5600480 135.6703610  50.7311840   9.4560420
 141.0089090  52.0598980   3.8870890 141.3504790  52.8041210   3.3914210
 140.1801800  52.3730100   4.2495720 133.6064130  47.7594070  15.5269290
 133.2479070  48.4247920  16.1142630 133.3118690  46.9277620  15.8981910
 136.8077250  48.2178310  18.4108840 136.5077390  48.3635490  17.5136660
 137.5788490  47.6583600  18.3182230 142.1505700  53.0147310  16.4063970
 142.1650240  52.0828270  16.1882880 141.4430800  53.1007070  17.0453740
 147.2842770  47.1987130   2.6762580 147.2006490  47.6301350   1.8259020
 148.0036960  47.6585480   3.1089400 148.3130020  54.0529390   5.4044710
 147.6706180  53.3985010   5.6788430 147.9260680  54.4584480   4.6285380
 143.8916500  51.3814820   9.2516400 144.2440320  50.7842950   8.5917770
 143.0078830  51.0559050   9.4224650 139.9779780  52.1412510   6.6586810
 140.6650910  52.6881720   7.0394400 139.1912200  52.6853240   6.6936420
 132.1172180  47.7585330   2.1503890 132.9867030  48.0410130   2.4339810
 131.6262500  48.5721200   2.0352700 139.2806990  49.1458540   6.2712170
 139.7369770  49.9563790   6.4972360 138.9295200  48.8281680   7.1030660
 141.5839600  54.6564880  13.5004470 142.2281820  54.8624260  14.1777890
 141.9469040  53.8953280  13.0475320 135.1818770  39.4896190   6.7434690
 135.0533400  39.4814090   7.6919610 134.3580790  39.8279280   6.3925700
 142.8571680  52.6597230  12.2181920 143.4993910  51.9590390  12.3314090
 143.3821030  53.4395670  12.0378810 144.6309300  53.4592130  15.4217980
 144.9665540  54.0458820  16.0995900 143.7109640  53.3284840  15.6515770
 132.4843430  56.9712710   2.7165520 132.8441070  57.5702050   2.0622790
 132.3435770  57.5172600   3.4900550 132.1812700  41.2487310  16.2041390
 131.4671220  41.4484230  16.8094000 132.6007740  40.4726880  16.5756190
 146.2843650  50.8617790   3.6035220 145.9965350  51.3230480   4.3913100
 147.0795820  50.4015560   3.8719440 132.4685290  55.2367570  17.1907920
 132.5776410  54.2962310  17.0503310 131.8165850  55.5022320  16.5421650
 140.4597880  53.5083460  18.5906040 140.1394750  52.7892700  19.1351730
 139.7856240  54.1838530  18.6642100 138.5012050  54.3543910   3.5339190
 138.4922150  55.0873600   2.9183700 137.5810410  54.1075490   3.6266150
 134.1018690  49.5758800   4.2785950 133.4946640  50.3157700   4.2881250
 134.5768040  49.6658160   3.4524150 143.6751480  43.7409620  13.9542840
 144.0432300  42.9204830  14.2822410 142.8149680  43.8011510  14.3698490
 147.0413510  42.6966560   4.7630400 146.4126670  42.8012230   4.0488630
 146.5465430  42.9163340   5.5524280 139.0097540  44.9752510   6.1788280
 138.3013690  45.4438850   6.6201890 139.2942020  44.3174520   6.8133470
 140.6353470  46.3949210  14.1780810 141.1338720  46.8695030  14.8432660
 140.7776420  45.4712730  14.3850840 143.0412970  41.7003170   7.6184070
 142.9180750  41.7189300   6.6693580 143.9897530  41.7482110   7.7382470
 140.1289760  56.9358470   6.8912050 140.3831260  56.8979860   5.9691420
 139.1802240  56.8091800   6.8840300 137.2132560  43.2837590   3.5538990
 138.0623090  43.7207740   3.4879180 136.8463830  43.5957850   4.3811050
 147.8420330  42.6117170  15.0209200 147.3393930  43.3522570  15.3603010
 148.6576990  43.0001170  14.7045990 146.1342340  47.8550350   8.4670560
 145.1932480  47.8700580   8.6418250 146.4486410  47.0686310   8.9130860
 134.8070740  46.9695020   2.7107410 134.8874330  46.0222530   2.8224810
 135.6990490  47.3001900   2.8168070 135.6085450  57.1190410   9.8141950
 136.3447930  56.5705870  10.0850520 135.9926370  57.9846420   9.6747940
 132.4930930  53.1863980   5.6883460 131.5670710  53.4285120   5.6788870
 132.9587360  54.0138240   5.5668210 134.6143730  56.3036480  19.0027530
 135.4156460  56.6248530  19.4162930 134.0995550  55.9432060  19.7247440
 143.4508360  52.4116350  18.9502940 142.8446520  52.4347950  18.2098690
 143.1462470  51.6799390  19.4870190 144.8808730  56.1396640  17.5612350
 145.8330480  56.0554660  17.5112590 144.7336950  56.8038350  18.2346140
 147.7717930  55.5190850   3.0604260 147.4859440  55.1055990   2.2458440
 147.5737480  56.4478560   2.9404780 132.3341540  48.7909940  17.9463580
 132.8380560  48.2117220  18.5179810 131.5948960  49.0750170  18.4839950
 139.3879480  50.1980930  17.4799100 138.6225150  50.7665930  17.3953770
 139.5695440  49.9057140  16.5867330 142.4767890  50.5744160   2.1051860
 141.9277990  51.0213460   2.7494600 143.0987150  50.0693410   2.6289530
 146.5302830  51.9286260  18.0374120 147.2712300  52.2662020  17.5341580
 145.7675510  52.0978320  17.4843890 134.3664620  46.9339530  18.8413650
 134.4069960  46.6353400  19.7498880 135.2210120  47.3347140  18.6821170
 138.1443010  49.5335080   4.0017160 138.5659430  49.3674950   4.8448550
 138.2693850  48.7235310   3.5072300 136.3070430  45.5131630  16.8088140
 135.7766890  45.0222580  16.1811480 136.9758500  45.9415830  16.2746070
 145.2048490  49.9801090  16.5729330 145.6189510  50.1346170  17.4219750
 144.2699490  50.1056310  16.7355110 145.6770660  47.3197250  18.5768480
 146.2591430  46.5649570  18.4888960 145.8532430  47.8504690  17.7999960
 136.7942730  42.4794000  16.8885430 136.6999600  41.8614750  16.1636300
 136.2140120  43.2060290  16.6615340 139.5604170  41.0367240  13.9212820
 139.1121470  41.0591500  13.0758370 138.9269370  40.6386260  14.5183120
 139.9663720  49.9321570  14.5425260 140.3851830  50.7754300  14.3701500
 139.0472350  50.0693610  14.3132040 142.3027620  47.6637750  15.9263100
 142.4223830  47.0678890  16.6657940 143.1621620  47.7007440  15.5064400
 144.6415520  48.2174940  14.5025610 144.1150740  48.7417560  13.8990750
 144.9846860  48.8502330  15.1335340 137.8171140  56.2374580  15.6582990
 137.2792230  56.9620640  15.3391690 138.0705100  55.7604920  14.8680330
 139.0696390  44.2059100  17.1838920 139.6596080  43.8974950  17.8716740
 138.2516630  43.7338850  17.3398820 143.8889820  43.8224910  17.4171940
 143.2005340  43.1606450  17.3521930 144.6095840  43.3763180  17.8620400
 144.5190220  40.4176540   3.4762200 144.7992510  39.5744440   3.8321620
 143.7455950  40.6499650   3.9900950 140.6733350  57.4725790  15.9169640
 140.5992050  58.3760930  16.2242010 139.7712190  57.1537690  15.8891710
 141.2218680  56.6384300   3.5396000 142.1169470  56.9769270   3.5614760
 141.2536310  55.9163710   2.9120280 134.8614840  52.0111350   1.7683000
 135.2989710  52.5541020   2.4240580 135.3462570  51.1858300   1.7779340
 132.0760640  54.8000380   9.2203260 132.4063650  53.9321440   8.9881900
 132.5051640  55.0058900  10.0508220 136.6722560  53.1309390   6.8805230
 136.3718100  53.0074360   7.7809140 136.5660050  52.2717980   6.4720960
 132.5650850  55.6670970  11.9584890 132.1281840  55.8471770  12.7909040
 133.1328530  56.4245590  11.8166610 148.2013030  55.1687970  16.2462200
 147.6015020  55.2280530  15.5026120 148.3306930  54.2292950  16.3759050
 132.3975280  48.1791200   8.3173770 131.7424120  47.9102840   7.6733470
 133.2353230  48.0695680   7.8675750 146.8864670  51.8939950  14.3438360
 146.0724510  52.3237110  14.6064150 147.2938870  52.5058360  13.7307410
 145.3465720  42.9732490   2.5392260 145.7650600  42.7863470   1.6988920
 145.0401780  42.1211540   2.8495190 133.4351210  48.5643770  12.8577110
 133.8024250  48.4771170  13.7373130 132.8662030  47.8010320  12.7583970
 148.2355070  47.0328150  15.8707580 148.0041160  46.8040900  14.9705530
 148.4959620  47.9527700  15.8252470 132.9867210  45.4752860  16.7635530
 132.0923260  45.4419620  17.1029240 133.5264760  45.6739650  17.5286780
 146.6743140  42.2584580  18.6487280 147.5513320  42.2667980  19.0321280
 146.6863980  41.5215420  18.0379630 131.6113360  45.3890130   4.2599100
 130.7077440  45.6520330   4.0850760 132.0953980  45.6601300   3.4799060
 148.2996130  46.1953990  13.0594850 147.3498840  46.1617530  13.1739840
 148.4809140  47.1054100  12.8244620 147.6106380  45.3687470   5.4767710
 148.1065500  45.1358340   6.2616590 147.4122450  44.5299310   5.0605350
 133.4906920  39.7501190  11.1118750 134.1383110  39.1998570  10.6713910
 133.9108760  40.0044340  11.9334560 147.3859260  39.9442550  14.4688390
 148.0231480  40.5576690  14.8347580 147.5334150  39.9803210  13.5237620
 146.9440720  56.6458550   7.8706630 147.5399790  56.3243120   7.1941050
 147.2018870  56.1730370   8.6619900 133.2438920  39.9056860  13.8544070
 132.8953740  40.3620680  14.6202250 132.9126620  39.0113990  13.9366500
 134.8503290  53.0776460  18.0197260 134.8072920  52.7069370  18.9011720
 134.9814300  54.0154030  18.1599080 138.5509320  54.6336050  13.6206980
 138.3100680  54.9010610  12.7337500 139.4911960  54.8041780  13.6757840
 140.7563740  41.0968740  17.3763490 140.6952630  41.6890570  18.1258900
 141.6964120  40.9894700  17.2313750 143.3938300  40.7538800  17.0155780
 144.0078710  41.0718090  16.3536860 143.9387860  40.2687390  17.6351640
 133.9159560  39.4333060  17.1294840 134.4642550  39.2521110  16.3660950
 133.9814870  38.6427170  17.6651150 134.6891320  56.0238710  15.1395040
 134.0951640  55.8923410  15.8785080 134.6815160  55.1876850  14.6737140
 144.1346340  39.3170940  13.3425070 143.2606180  39.6506050  13.1398000
 144.0257090  38.8444120  14.1676940 145.0418320  41.5241810  14.7266790
 144.7131680  40.7093570  14.3468520 145.9900620  41.4811620  14.6032480
 147.4952930  57.2953850  11.7004360 147.0355900  58.0469660  11.3262380
 146.8665390  56.5760320  11.6419160 134.3203550  53.3897090  14.0903080
 133.5937610  52.7702380  14.0229030 134.3812700  53.7837700  13.2201160
 137.9248650  55.6042090  10.8752490 138.4413670  54.9929450  10.3500750
 138.5746030  56.1070870  11.3663500 140.6644150  56.4950580  11.7021470
 140.9521960  56.2404880  10.8254480 141.1767370  55.9427940  12.2927040
 141.8821160  40.2340780  12.2817980 141.0992950  40.7086280  12.5614740
 141.5884090  39.3295610  12.1731160 146.4342230  40.9363880  10.3267070
 146.8750320  40.8808980   9.4788670 146.1649820  41.8521890  10.3977250
 132.6033550  56.7071480   7.2999840 132.4355590  56.0742160   7.9981730
 131.7368060  56.9130880   6.9494030 133.2261570  40.5388260   4.8031700
 133.9840930  40.6517140   4.2295730 132.7638740  41.3757460   4.7575130
 139.7675380  42.6527530   7.7934010 138.9549890  42.2784420   7.4529890
 140.2717020  41.8972610   8.0955200 144.2700360  39.3169980   9.0317080
 144.8729730  39.8890190   9.5065600 143.5293350  39.8809420   8.8090980
 147.4134960  39.7191540   4.3057360 147.6085590  40.6174990   4.5724790
 146.6264830  39.4878620   4.7990310 134.2096250  55.4004710   4.7449980
 133.6843870  55.7812740   4.0411940 134.1340830  56.0255480   5.4659690
 135.5986720  41.0652310   3.3433670 136.1279480  40.2782110   3.2141620
 136.2315040  41.7443500   3.5769200 137.7924560  40.8027450   6.3979060
 137.1627300  40.1014760   6.5649190 137.2529700  41.5631580   6.1812220
 140.7316510  57.4166680  19.0689670 141.6583820  57.1810950  19.1125630
 140.7166940  58.2438680  18.5875700 137.9180120  40.0811430  18.8331550
 137.6364390  40.5845030  18.0692370 138.2999820  39.2833180  18.4673680
 136.8089220  57.3487090   3.6199230 137.5408040  57.0646370   3.0723120
 137.0682890  57.1100370   4.5098610 135.9704010  53.4651820   3.6245560
 135.3412890  53.9336920   4.1731390 136.0851840  52.6201040   4.0591750
 144.5195580  39.4965010  19.4112020 144.4061030  39.8159620  20.3063540
 145.3365320  39.8977520  19.1149300 147.2994070  56.6436540  18.8930710
 148.0919390  56.1485770  18.6856670 147.5927220  57.3226680  19.5006320
 143.4253730  28.7413990 139.9694680 143.3447780  27.8268600 139.6986390
 143.0118150  29.2381060 139.2634390 141.5571770  30.5193010 141.8503950
 140.7813870  30.0393450 142.1402520 142.2084700  29.8398660 141.6760110
 135.5737600  30.8312820 142.7279710 134.7422480  30.5761530 143.1276220
 136.1818580  30.9023590 143.4637630 145.5779200  34.9253200 140.6303080
 145.1160730  34.1540440 140.9590250 146.3904750  34.9519270 141.1355530
 135.5538860  34.8652910 142.9237730 135.8566900  33.9750650 142.7447950
 136.2982450  35.4223130 142.6959980 133.9829550  25.7914710 136.5122100
 133.0946250  26.1330680 136.4101980 134.2670740  25.5915030 135.6202930
 131.9462560  28.3920360 142.3961800 132.5178670  27.6242560 142.3965440
 131.9464100  28.6909120 141.4868410 141.8042510  37.2111210 140.2507070
 141.1853950  37.6668710 139.6801510 142.6594290  37.3662670 139.8496770
 140.9980760  33.1950200 141.8574110 140.9289040  32.2540140 141.6963240
 141.7600620  33.2851610 142.4296680 133.1887430  23.8004720 144.1830730
 133.0090270  22.9030470 144.4633490 132.7867510  24.3476590 144.8577680
 142.0285930  26.0020580 142.0843040 142.4050750  25.1292460 141.9716710
 141.9305440  26.3379280 141.1933480 136.1590940  24.3746210 137.5460480
 136.2657690  25.2749940 137.8529240 135.2483300  24.3264180 137.2555130
 145.8110050  23.4971020 139.0171380 146.6319670  23.0067590 139.0596860
 145.8444130  24.0868680 139.7703220 133.8074100  26.2965220 142.7913070
 134.4884210  26.5603590 143.4100470 133.4922150  25.4566090 143.1251080
 137.9998670  27.3432580 141.8785660 138.5076890  27.8413550 142.5190680
 138.5311910  26.5667780 141.7025020 136.2834770  21.9831140 146.1449080
 136.2853210  22.5003530 145.3394980 135.4539080  21.5061320 146.1219010
 142.6705860  32.0950450 137.6438980 142.0523130  32.5599900 137.0801700
 143.1829110  32.7877930 138.0608490 137.5337620  31.6226320 144.3222580
 137.2007000  32.2495240 144.9643650 137.7104300  32.1488200 143.5424250
 146.0471530  25.4371400 141.7898920 145.3427100  25.7256290 142.3702030
 146.4083690  26.2471510 141.4298480 135.9650100  23.6941100 144.1519530
 136.3066910  24.5383150 143.8573400 135.0265910  23.8424840 144.2684870
 136.7456720  33.5907120 146.1371760 137.3630720  34.2658200 145.8556210
 135.8849840  33.9995100 146.0459260 132.0389060  32.7806980 135.0178610
 131.6617040  33.2694080 134.2863510 132.2962130  33.4532260 135.6485140
 147.6634310  35.0546530 144.0526400 146.9797830  35.7245640 144.0443070
 148.2028600  35.2527180 143.2871260 139.6477990  21.1823370 140.4764120
 139.9552970  20.6270260 139.7599620 138.7178690  21.3167830 140.2937110
 145.1993050  36.8990660 142.7671580 145.2120210  36.4952950 141.8993840
 144.6468270  37.6737950 142.6633010 146.4938470  33.6206880 137.8561750
 146.3834800  32.6781210 137.9811170 146.4906720  33.9822520 138.7424510
 144.5978490  31.8020500 144.0954190 145.0147280  31.5880610 143.2607650
 145.3218310  32.0593290 144.6662810 142.0358750  29.2472200 137.2124240
 141.1088030  29.1809580 137.4412710 142.1883570  30.1852330 137.0979480
 142.0227830  25.5189200 134.2091400 141.0831500  25.6803160 134.2943860
 142.3411090  26.2374880 133.6627390 146.0656040  30.8092500 137.7159490
 145.4468460  30.4712050 137.0685790 146.0480490  30.1652260 138.4238680
 145.5082600  26.9877040 145.1325300 145.0953780  27.8130750 145.3865290
 144.7758550  26.4022080 144.9401660 137.6415390  29.7736940 139.9943970
 137.2372390  29.0614190 139.4989870 137.7278510  29.4290180 140.8832010
 138.1097090  33.4604500 142.1583180 137.8125380  32.8549970 141.4790960
 139.0596910  33.4981810 142.0472540 136.3544010  26.5480150 143.7743010
 136.9058600  26.6575490 142.9996260 136.8687520  26.9217750 144.4898240
 146.1982700  37.0336370 145.8206280 145.7213260  37.8408560 145.6278890
 145.5144490  36.3814700 145.9732490 137.2015520  33.1986190 148.8090980
 136.3044050  33.4226160 149.0564380 137.2268390  33.3221130 147.8602380
 144.2420740  30.0479310 134.7232240 144.6814020  29.2101740 134.5770060
 144.9549160  30.6808710 134.8096380 136.0286740  30.0699510 147.3848350
 135.8894510  30.9422310 147.7535750 135.1468100  29.7272320 147.2396290
 142.3516120  34.9875380 138.6913480 142.7912030  35.7299710 138.2768870
 142.2903010  35.2301950 139.6152440 137.8267090  36.0121210 149.5933500
 137.7982520  36.4164160 148.7261930 137.6632060  35.0831570 149.4305100
 147.8237880  21.3022120 133.0373280 147.5110540  21.3948950 133.9372350
 148.5850350  21.8803150 132.9870710 134.3420020  28.6681920 137.4950620
 134.2217620  29.3944010 136.8831890 134.0320910  27.8984830 137.0178530
 131.9805390  31.8397060 143.3019260 132.0585810  31.9745830 142.3574980
 132.5947070  31.1312950 143.4947380 133.2253020  33.5397250 139.7125440
 132.8181100  33.6811840 138.8579040 134.1166030  33.2557410 139.5096650
 143.0431900  37.6889160 146.6192490 143.5576570  37.5997170 147.4214920
 142.2000980  38.0348860 146.9120400 145.0186300  37.9744500 136.0476490
 144.8587440  37.6847440 136.9458320 144.8533010  37.1984630 135.5121720
 137.4974680  37.7543030 137.8248110 137.3217160  36.8378570 137.6115910
 136.6430420  38.1130320 138.0645910 144.7212430  35.4832060 134.6074490
 144.0277590  35.4809350 133.9476770 145.4635290  35.0591380 134.1768660
 144.2862360  37.1094770 138.6822980 144.7419310  36.3284150 138.9961600
 144.6254880  37.8201590 139.2264160 132.0364910  32.8811230 145.8413720
 132.1995950  32.4116590 145.0233090 132.5017360  32.3734790 146.5062560
 136.8083680  22.0116990 140.8774290 136.3651830  22.7926530 140.5458810
 137.3668670  22.3346880 141.5845230 141.0953490  24.8785510 146.4809610
 140.6332860  25.0868530 147.2929550 140.6931600  24.0644860 146.1780280
 146.0958000  26.0994460 147.6106270 145.2451590  25.8000210 147.9315340
 145.9359790  26.3436470 146.6990090 143.1907710  27.5996210 149.7105060
 143.5161120  26.7659960 149.3707290 143.9788040  28.1224730 149.8583390
 139.9242500  21.6327690 135.7580120 139.2996680  21.6287560 136.4833430
 139.8372620  20.7658650 135.3616090 138.8459580  22.5564320 142.7363890
 139.1431910  23.4627150 142.6555910 139.3945140  22.0683100 142.1223460
 136.5997900  27.1350560 138.6055540 136.3738820  26.9187730 139.5102160
 135.8190430  27.5679020 138.2601510 143.8295660  27.1413930 137.2046190
 143.2304550  27.8649730 137.0209810 144.3775270  27.0790710 136.4222640
 139.0397110  28.0336140 149.2715810 138.9440710  27.0930870 149.1216210
 139.8829090  28.2551210 148.8763880 142.4360530  25.7777470 139.2349470
 142.8290100  26.0949670 138.4218160 142.7977380  24.8989350 139.3493990
 134.1707650  24.4449810 147.4249590 133.7771040  25.2925020 147.6322370
 133.4826050  23.8076180 147.6158230 131.4724700  22.3678270 141.4579670
 131.1837750  22.9381130 142.1704650 132.2170460  21.8882720 141.8210900
 131.6594930  26.3098390 132.6682390 131.5769600  27.2529150 132.8097380
 131.3077990  26.1673300 131.7894740 143.0215670  28.3683220 143.3300250
 142.2896790  28.8770030 143.6790350 142.6240010  27.5513200 143.0289030
 139.4593060  25.0437420 141.7352740 139.4629120  24.6027370 140.8857280
 140.3544180  25.3654750 141.8424560 135.3095440  24.9263910 140.6946950
 134.9695490  25.4039140 141.4514000 134.5472760  24.4729030 140.3348050
 139.5213210  26.0449500 134.7259500 139.6426030  26.0035980 135.6745320
 139.1361720  26.9073650 134.5706230 143.4841580  23.8216900 142.7423190
 143.5014320  24.2725550 143.5865040 143.2357160  22.9222540 142.9556630
 138.5334710  28.3550640 134.1242800 137.9651610  27.9068890 133.4978710
 139.2423710  28.7143420 133.5907950 146.9112330  21.2349080 148.5809570
 147.2358100  20.5038740 149.1067550 146.9468840  20.9162720 147.6790560
 133.6103890  32.2562660 148.0009530 133.2258680  31.6156330 148.5992490
 133.9216080  32.9598780 148.5704260 139.7601030  29.1039200 143.4818150
 140.1271160  28.6297770 144.2279490 139.5706090  29.9780770 143.8226490
 132.6241520  23.8482890 139.6111620 132.3388440  23.4838560 140.4490240
 132.5620380  23.1163350 138.9974760 137.5500400  28.1447840 145.8002360
 137.2457470  29.0239820 146.0252720 138.5046860  28.2047630 145.8359800
 136.0782190  32.3508830 136.3969210 135.3044450  31.8106450 136.2367930
 136.8076820  31.8315440 136.0586970 146.8370170  31.3474190 142.1895600
 147.5569290  31.8429480 141.7991710 146.6351990  30.6692080 141.5449470
 142.2980110  22.7412150 136.3324990 141.4844720  22.2425320 136.2570300
 142.1042060  23.5810400 135.9161340 142.2188970  31.4183250 148.0764600
 142.1526280  30.4978920 147.8222190 141.5894110  31.5158690 148.7909240
 145.0128500  27.1131800 134.6287150 145.9008120  27.4249030 134.4538490
 144.9833590  26.2404050 134.2367730 136.1219590  32.0189210 140.0348020
 136.6398260  31.2157470 139.9804910 135.6703610  31.9568350 140.8764850
 141.0089090  33.2855490 135.3075320 141.3504790  34.0297720 134.8118640
 140.1801800  33.5986610 135.6700150 133.6064130  28.9850580 146.9473720
 133.2479070  29.6504430 147.5347060 133.3118690  28.1534130 147.3186340
 136.8077250  29.4434820 149.8313270 136.5077390  29.5892000 148.9341090
 137.5788490  28.8840110 149.7386660 142.1505700  34.2403820 147.8268400
 142.1650240  33.3084780 147.6087310 141.4430800  34.3263580 148.4658170
 147.2842770  28.4243640 134.0967010 147.2006490  28.8557860 133.2463450
 148.0036960  28.8841990 134.5293830 148.3130020  35.2785900 136.8249140
 147.6706180  34.6241520 137.0992860 147.9260680  35.6840990 136.0489810
 143.8916500  32.6071330 140.6720830 144.2440320  32.0099460 140.0122200
 143.0078830  32.2815560 140.8429080 139.9779780  33.3669020 138.0791240
 140.6650910  33.9138230 138.4598830 139.1912200  33.9109750 138.1140850
 132.1172180  28.9841840 133.5708320 132.9867030  29.2666640 133.8544240
 131.6262500  29.7977710 133.4557130 139.2806990  30.3715050 137.6916600
 139.7369770  31.1820300 137.9176790 138.9295200  30.0538190 138.5235090
 141.5839600  35.8821390 144.9208900 142.2281820  36.0880770 145.5982320
 141.9469040  35.1209790 144.4679750 135.1818770  20.7152700 138.1639120
 135.0533400  20.7070600 139.1124040 134.3580790  21.0535790 137.8130130
 142.8571680  33.8853740 143.6386350 143.4993910  33.1846900 143.7518520
 143.3821030  34.6652180 143.4583240 146.7027400  34.1702360 133.3625490
 146.4764980  33.4532800 133.9550130 146.3123600  33.9214800 132.5247240
 144.6309300  34.6848640 146.8422410 144.9665540  35.2715330 147.5200330
 143.7109640  34.5541350 147.0720200 132.4843430  38.1969220 134.1369950
 132.8441070  38.7958560 133.4827220 132.3435770  38.7429110 134.9104980
 132.1812700  22.4743820 147.6245820 131.4671220  22.6740740 148.2298430
 132.6007740  21.6983390 147.9960620 146.2843650  32.0874300 135.0239650
 145.9965350  32.5486990 135.8117530 147.0795820  31.6272070 135.2923870
 132.4685290  36.4624080 148.6112350 132.5776410  35.5218820 148.4707740
 131.8165850  36.7278830 147.9626080 138.5012050  35.5800420 134.9543620
 138.4922150  36.3130110 134.3388130 137.5810410  35.3332000 135.0470580
 134.1018690  30.8015310 135.6990380 133.4946640  31.5414210 135.7085680
 134.5768040  30.8914670 134.8728580 143.6751480  24.9666130 145.3747270
 144.0432300  24.1461340 145.7026840 142.8149680  25.0268020 145.7902920
 147.0413510  23.9223070 136.1834830 146.4126670  24.0268740 135.4693060
 146.5465430  24.1419850 136.9728710 141.4871650  35.6428660 133.6168810
 141.5883630  35.4392650 132.6870790 140.5873390  35.3886940 133.8216590
 139.0097540  26.2009020 137.5992710 138.3013690  26.6695360 138.0406320
 139.2942020  25.5431030 138.2337900 140.6353470  27.6205720 145.5985240
 141.1338720  28.0951540 146.2637090 140.7776420  26.6969240 145.8055270
 143.0412970  22.9259680 139.0388500 142.9180750  22.9445810 138.0898010
 143.9897530  22.9738620 139.1586900 140.1289760  38.1614980 138.3116480
 140.3831260  38.1236370 137.3895850 139.1802240  38.0348310 138.3044730
 137.2132560  24.5094100 134.9743420 138.0623090  24.9464250 134.9083610
 136.8463830  24.8214360 135.8015480 147.8420330  23.8373680 146.4413630
 147.3393930  24.5779080 146.7807440 148.6576990  24.2257680 146.1250420
 146.1342340  29.0806860 139.8874990 145.1932480  29.0957090 140.0622680
 146.4486410  28.2942820 140.3335290 136.1123980  30.7626460 133.4478950
 136.8787250  30.6507820 134.0104380 136.1898670  30.0664430 132.7955720
 134.8070740  28.1951530 134.1311840 134.8874330  27.2479040 134.2429240
 135.6990490  28.5258410 134.2372500 135.6085450  38.3446920 141.2346380
 136.3447930  37.7962380 141.5054950 135.9926370  39.2102930 141.0952370
 132.4930930  34.4120490 137.1087890 131.5670710  34.6541630 137.0993300
 132.9587360  35.2394750 136.9872640 138.7187760  37.5177230 133.0571950
 139.5116370  37.8066060 132.6053740 138.1992110  37.0869400 132.3784430
 144.8808730  37.3653150 148.9816780 145.8330480  37.2811170 148.9317020
 144.7336950  38.0294860 149.6550570 147.7717930  36.7447360 134.4808690
 147.4859440  36.3312500 133.6662870 147.5737480  37.6735070 134.3609210
 132.3341540  30.0166450 149.3668010 132.8380560  29.4373730 149.9384240
 131.5948960  30.3006680 149.9044380 139.2365160  32.7380640 132.9214300
 139.1315800  32.1232990 133.6475680 139.0689380  32.2146530 132.1377310
 139.3879480  31.4237440 148.9003530 138.6225150  31.9922440 148.8158200
 139.5695440  31.1313650 148.0071760 142.4767890  31.8000670 133.5256290
 141.9277990  32.2469970 134.1699030 143.0987150  31.2949920 134.0493960
 146.5302830  33.1542770 149.4578550 147.2712300  33.4918530 148.9546010
 145.7675510  33.3234830 148.9048320 138.1443010  30.7591590 135.4221590
 138.5659430  30.5931460 136.2652980 138.2693850  29.9491820 134.9276730
 136.3070430  26.7388140 148.2292570 135.7766890  26.2479090 147.6015910
 136.9758500  27.1672340 147.6950500 140.6570650  29.7829200 132.6698690
 141.1776310  29.0678220 132.3039840 141.3039050  30.4215070 132.9699200
 145.2048490  31.2057600 147.9933760 145.6189510  31.3602680 148.8424180
 144.2699490  31.3312820 148.1559540 145.6770660  28.5453760 149.9972910
 146.2591430  27.7906080 149.9093390 145.8532430  29.0761200 149.2204390
 136.7942730  23.7050510 148.3089860 136.6999600  23.0871260 147.5840730
 136.2140120  24.4316800 148.0819770 139.5604170  22.2623750 145.3417250
 139.1121470  22.2848010 144.4962800 138.9269370  21.8642770 145.9387550
 139.9663720  31.1578080 145.9629690 140.3851830  32.0010810 145.7905930
 139.0472350  31.2950120 145.7336470 142.3027620  28.8894260 147.3467530
 142.4223830  28.2935400 148.0862370 143.1621620  28.9263950 146.9268830
 144.6415520  29.4431450 145.9230040 144.1150740  29.9674070 145.3195180
 144.9846860  30.0758840 146.5539770 137.0401910  26.8324820 132.3679750
 136.8390970  25.9692180 132.7293090 136.8693960  26.7458180 131.4301350
 137.8171140  37.4631090 147.0787420 137.2792230  38.1877150 146.7596120
 138.0705100  36.9861430 146.2884760 139.0696390  25.4315610 148.6043350
 139.6596080  25.1231460 149.2921170 138.2516630  24.9595360 148.7603250
 143.8889820  25.0481420 148.8376370 143.2005340  24.3862960 148.7726360
 144.6095840  24.6019690 149.2824830 144.5190220  21.6433050 134.8966630
 144.7992510  20.8000950 135.2526050 143.7455950  21.8756160 135.4105380
 135.8384710  23.9325440 132.3557630 136.1410610  23.9392870 131.4476780
 136.5779300  23.5823300 132.8525290 140.6733350  38.6982300 147.3374070
 140.5992050  39.6017440 147.6446440 139.7712190  38.3794200 147.3096140
 139.0569640  22.8760060 133.3413830 138.7091640  22.1984050 132.7616280
 139.2582410  22.4149570 134.1557220 141.2218680  37.8640810 134.9600430
 142.1169470  38.2025780 134.9819190 141.2536310  37.1420220 134.3324710
 134.8614840  33.2367860 133.1887430 135.2989710  33.7797530 133.8445010
 135.3462570  32.4114810 133.1983770 132.0760640  36.0256890 140.6407690
 132.4063650  35.1577950 140.4086330 132.5051640  36.2315410 141.4712650
 136.6722560  34.3565900 138.3009660 136.3718100  34.2330870 139.2013570
 136.5660050  33.4974490 137.8925390 132.5650850  36.8927480 143.3789320
 132.1281840  37.0728280 144.2113470 133.1328530  37.6502100 143.2371040
 148.2013030  36.3944480 147.6666630 147.6015020  36.4537040 146.9230550
 148.3306930  35.4549460 147.7963480 132.3975280  29.4047710 139.7378200
 131.7424120  29.1359350 139.0937900 133.2353230  29.2952190 139.2880180
 146.8864670  33.1196460 145.7642790 146.0724510  33.5493620 146.0268580
 147.2938870  33.7314870 145.1511840 145.3465720  24.1989000 133.9596690
 145.7650600  24.0119980 133.1193350 145.0401780  23.3468050 134.2699620
 133.4351210  29.7900280 144.2781540 133.8024250  29.7027680 145.1577560
 132.8662030  29.0266830 144.1788400 148.2355070  28.2584660 147.2912010
 148.0041160  28.0297410 146.3909960 148.4959620  29.1784210 147.2456900
 132.9867210  26.7009370 148.1839960 132.0923260  26.6676130 148.5233670
 133.5264760  26.8996160 148.9491210 131.6113360  26.6146640 135.6803530
 130.7077440  26.8776840 135.5055190 132.0953980  26.8857810 134.9003490
 148.2996130  27.4210500 144.4799280 147.3498840  27.3874040 144.5944270
 148.4809140  28.3310610 144.2449050 134.1540570  25.6712180 133.5897910
 134.8632270  25.2495400 133.1045190 133.4380510  25.7387410 132.9581260
 133.8014730  21.7251510 132.6300560 134.5242860  22.2660450 132.9481780
 134.0739250  21.4514930 131.7542100 147.6106380  26.5943980 136.8972140
 148.1065500  26.3614850 137.6821020 147.4122450  25.7555820 136.4809780
 133.4906920  20.9757700 142.5323180 134.1383110  20.4255080 142.0918340
 133.9108760  21.2300850 143.3538990 147.3859260  21.1699060 145.8892820
 148.0231480  21.7833200 146.2552010 147.5334150  21.2059720 144.9442050
 146.9440720  37.8715060 139.2911060 147.5399790  37.5499630 138.6145480
 147.2018870  37.3986880 140.0824330 133.2438920  21.1313370 145.2748500
 132.8953740  21.5877190 146.0406680 132.9126620  20.2370500 145.3570930
 138.5509320  35.8592560 145.0411410 138.3100680  36.1267120 144.1541930
 139.4911960  36.0298290 145.0962270 140.7563740  22.3225250 148.7967920
 140.6952630  22.9147080 149.5463330 141.6964120  22.2151210 148.6518180
 143.3938300  21.9795310 148.4360210 144.0078710  22.2974600 147.7741290
 143.9387860  21.4943900 149.0556070 133.9159560  20.6589570 148.5499270
 134.4642550  20.4777620 147.7865380 133.9814870  19.8683680 149.0855580
 134.6891320  37.2495220 146.5599470 134.0951640  37.1179920 147.2989510
 134.6815160  36.4133360 146.0941570 144.1346340  20.5427450 144.7629500
 143.2606180  20.8762560 144.5602430 144.0257090  20.0700630 145.5881370
 145.0418320  22.7498320 146.1471220 144.7131680  21.9350080 145.7672950
 145.9900620  22.7068130 146.0236910 147.4952930  38.5210360 143.1208790
 147.0355900  39.2726170 142.7466810 146.8665390  37.8016830 143.0623590
 134.3203550  34.6153600 145.5107510 133.5937610  33.9958890 145.4433460
 134.3812700  35.0094210 144.6405590 137.9248650  36.8298600 142.2956920
 138.4413670  36.2185960 141.7705180 138.5746030  37.3327380 142.7867930
 140.6644150  37.7207090 143.1225900 140.9521960  37.4661390 142.2458910
 141.1767370  37.1684450 143.7131470 141.8821160  21.4597290 143.7022410
 141.0992950  21.9342790 143.9819170 141.5884090  20.5552120 143.5935590
 146.4342230  22.1620390 141.7471500 146.8750320  22.1065490 140.8993100
 146.1649820  23.0778400 141.8181680 132.6033550  37.9327990 138.7204270
 132.4355590  37.2998670 139.4186160 131.7368060  38.1387390 138.3698460
 133.2261570  21.7644770 136.2236130 133.9840930  21.8773650 135.6500160
 132.7638740  22.6013970 136.1779560 139.7675380  23.8784040 139.2138440
 138.9549890  23.5040930 138.8734320 140.2717020  23.1229120 139.5159630
 144.2700360  20.5426490 140.4521510 144.8729730  21.1146700 140.9270030
 143.5293350  21.1065930 140.2295410 147.4134960  20.9448050 135.7261790
 147.6085590  21.8431500 135.9929220 146.6264830  20.7135130 136.2194740
 134.2096250  36.6261220 136.1654410 133.6843870  37.0069250 135.4616370
 134.1340830  37.2511990 136.8864120 135.5986720  22.2908820 134.7638100
 136.1279480  21.5038620 134.6346050 136.2315040  22.9700010 134.9973630
 137.7924560  22.0283960 137.8183490 137.1627300  21.3271270 137.9853620
 137.2529700  22.7888090 137.6016650 136.8089220  38.5743600 135.0403660
 137.5408040  38.2902880 134.4927550 137.0682890  38.3356880 135.9303040
 135.9704010  34.6908330 135.0449990 135.3412890  35.1593430 135.5935820
 136.0851840  33.8457550 135.4796180 143.4253730  28.7413990 121.1951190
 143.3447780  27.8268600 120.9242900 143.0118150  29.2381060 120.4890900
 141.5571770  30.5193010 123.0760460 140.7813870  30.0393450 123.3659030
 142.2084700  29.8398660 122.9016620 135.5737600  30.8312820 123.9536220
 134.7422480  30.5761530 124.3532730 136.1818580  30.9023590 124.6894140
 145.5779200  34.9253200 121.8559590 145.1160730  34.1540440 122.1846760
 146.3904750  34.9519270 122.3612040 135.5538860  34.8652910 124.1494240
 135.8566900  33.9750650 123.9704460 136.2982450  35.4223130 123.9216490
 133.9829550  25.7914710 117.7378610 133.0946250  26.1330680 117.6358490
 134.2670740  25.5915030 116.8459440 131.9462560  28.3920360 123.6218310
 132.5178670  27.6242560 123.6221950 131.9464100  28.6909120 122.7124920
 141.8042510  37.2111210 121.4763580 141.1853950  37.6668710 120.9058020
 142.6594290  37.3662670 121.0753280 140.9980760  33.1950200 123.0830620
 140.9289040  32.2540140 122.9219750 141.7600620  33.2851610 123.6553190
 133.1887430  23.8004720 125.4087240 133.0090270  22.9030470 125.6890000
 132.7867510  24.3476590 126.0834190 142.0285930  26.0020580 123.3099550
 142.4050750  25.1292460 123.1973220 141.9305440  26.3379280 122.4189990
 136.1590940  24.3746210 118.7716990 136.2657690  25.2749940 119.0785750
 135.2483300  24.3264180 118.4811640 145.8110050  23.4971020 120.2427890
 146.6319670  23.0067590 120.2853370 145.8444130  24.0868680 120.9959730
 133.8074100  26.2965220 124.0169580 134.4884210  26.5603590 124.6356980
 133.4922150  25.4566090 124.3507590 137.9998670  27.3432580 123.1042170
 138.5076890  27.8413550 123.7447190 138.5311910  26.5667780 122.9281530
 136.2834770  21.9831140 127.3705590 136.2853210  22.5003530 126.5651490
 135.4539080  21.5061320 127.3475520 142.6705860  32.0950450 118.8695490
 142.0523130  32.5599900 118.3058210 143.1829110  32.7877930 119.2865000
 137.5337620  31.6226320 125.5479090 137.2007000  32.2495240 126.1900160
 137.7104300  32.1488200 124.7680760 146.0471530  25.4371400 123.0155430
 145.3427100  25.7256290 123.5958540 146.4083690  26.2471510 122.6554990
 135.9650100  23.6941100 125.3776040 136.3066910  24.5383150 125.0829910
 135.0265910  23.8424840 125.4941380 136.7456720  33.5907120 127.3628270
 137.3630720  34.2658200 127.0812720 135.8849840  33.9995100 127.2715770
 132.0389060  32.7806980 116.2435120 131.6617040  33.2694080 115.5120020
 132.2962130  33.4532260 116.8741650 147.6634310  35.0546530 125.2782910
 146.9797830  35.7245640 125.2699580 148.2028600  35.2527180 124.5127770
 139.6477990  21.1823370 121.7020630 139.9552970  20.6270260 120.9856130
 138.7178690  21.3167830 121.5193620 145.1993050  36.8990660 123.9928090
 145.2120210  36.4952950 123.1250350 144.6468270  37.6737950 123.8889520
 146.4938470  33.6206880 119.0818260 146.3834800  32.6781210 119.2067680
 146.4906720  33.9822520 119.9681020 144.5978490  31.8020500 125.3210700
 145.0147280  31.5880610 124.4864160 145.3218310  32.0593290 125.8919320
 142.0358750  29.2472200 118.4380750 141.1088030  29.1809580 118.6669220
 142.1883570  30.1852330 118.3235990 142.0227830  25.5189200 115.4347910
 141.0831500  25.6803160 115.5200370 142.3411090  26.2374880 114.8883900
 146.0656040  30.8092500 118.9416000 145.4468460  30.4712050 118.2942300
 146.0480490  30.1652260 119.6495190 145.5082600  26.9877040 126.3581810
 145.0953780  27.8130750 126.6121800 144.7758550  26.4022080 126.1658170
 137.6415390  29.7736940 121.2200480 137.2372390  29.0614190 120.7246380
 137.7278510  29.4290180 122.1088520 138.1097090  33.4604500 123.3839690
 137.8125380  32.8549970 122.7047470 139.0596910  33.4981810 123.2729050
 136.3544010  26.5480150 124.9999520 136.9058600  26.6575490 124.2252770
 136.8687520  26.9217750 125.7154750 146.1982700  37.0336370 127.0462790
 145.7213260  37.8408560 126.8535400 145.5144490  36.3814700 127.1989000
 137.2015520  33.1986190 130.0347490 136.3044050  33.4226160 130.2820890
 137.2268390  33.3221130 129.0858890 144.2420740  30.0479310 115.9488750
 144.6814020  29.2101740 115.8026570 144.9549160  30.6808710 116.0352890
 136.0286740  30.0699510 128.6104860 135.8894510  30.9422310 128.9792260
 135.1468100  29.7272320 128.4652800 142.3516120  34.9875380 119.9169990
 142.7912030  35.7299710 119.5025380 142.2903010  35.2301950 120.8408950
 137.8267090  36.0121210 130.8190010 137.7982520  36.4164160 129.9518440
 137.6632060  35.0831570 130.6561610 147.8237880  21.3022120 114.2629790
 147.5110540  21.3948950 115.1628860 148.5850350  21.8803150 114.2127220
 134.3420020  28.6681920 118.7207130 134.2217620  29.3944010 118.1088400
 134.0320910  27.8984830 118.2435040 131.9805390  31.8397060 124.5275770
 132.0585810  31.9745830 123.5831490 132.5947070  31.1312950 124.7203890
 133.2253020  33.5397250 120.9381950 132.8181100  33.6811840 120.0835550
 134.1166030  33.2557410 120.7353160 143.0431900  37.6889160 127.8449000
 143.5576570  37.5997170 128.6471430 142.2000980  38.0348860 128.1376910
 145.0186300  37.9744500 117.2733000 144.8587440  37.6847440 118.1714830
 144.8533010  37.1984630 116.7378230 137.4974680  37.7543030 119.0504620
 137.3217160  36.8378570 118.8372420 136.6430420  38.1130320 119.2902420
 144.7212430  35.4832060 115.8331000 144.0277590  35.4809350 115.1733280
 145.4635290  35.0591380 115.4025170 144.2862360  37.1094770 119.9079490
 144.7419310  36.3284150 120.2218110 144.6254880  37.8201590 120.4520670
 132.0364910  32.8811230 127.0670230 132.1995950  32.4116590 126.2489600
 132.5017360  32.3734790 127.7319070 136.8083680  22.0116990 122.1030800
 136.3651830  22.7926530 121.7715320 137.3668670  22.3346880 122.8101740
 141.0953490  24.8785510 127.7066120 140.6332860  25.0868530 128.5186060
 140.6931600  24.0644860 127.4036790 146.0958000  26.0994460 128.8362780
 145.2451590  25.8000210 129.1571850 145.9359790  26.3436470 127.9246600
 143.1907710  27.5996210 130.9361570 143.5161120  26.7659960 130.5963800
 143.9788040  28.1224730 131.0839900 139.9242500  21.6327690 116.9836630
 139.2996680  21.6287560 117.7089940 139.8372620  20.7658650 116.5872600
 138.8459580  22.5564320 123.9620400 139.1431910  23.4627150 123.8812420
 139.3945140  22.0683100 123.3479970 136.5997900  27.1350560 119.8312050
 136.3738820  26.9187730 120.7358670 135.8190430  27.5679020 119.4858020
 143.8295660  27.1413930 118.4302700 143.2304550  27.8649730 118.2466320
 144.3775270  27.0790710 117.6479150 139.0397110  28.0336140 130.4972320
 138.9440710  27.0930870 130.3472720 139.8829090  28.2551210 130.1020390
 142.4360530  25.7777470 120.4605980 142.8290100  26.0949670 119.6474670
 142.7977380  24.8989350 120.5750500 134.1707650  24.4449810 128.6506100
 133.7771040  25.2925020 128.8578880 133.4826050  23.8076180 128.8414740
 140.7452700  24.5284780 131.7202840 140.0551020  24.3356980 132.3548930
 141.4885000  24.8119420 132.2527140 131.4724700  22.3678270 122.6836180
 131.1837750  22.9381130 123.3961160 132.2170460  21.8882720 123.0467410
 131.6594930  26.3098390 113.8938900 131.5769600  27.2529150 114.0353890
 131.3077990  26.1673300 113.0151250 143.0215670  28.3683220 124.5556760
 142.2896790  28.8770030 124.9046860 142.6240010  27.5513200 124.2545540
 139.4593060  25.0437420 122.9609250 139.4629120  24.6027370 122.1113790
 140.3544180  25.3654750 123.0681070 135.3095440  24.9263910 121.9203460
 134.9695490  25.4039140 122.6770510 134.5472760  24.4729030 121.5604560
 139.5213210  26.0449500 115.9516010 139.6426030  26.0035980 116.9001830
 139.1361720  26.9073650 115.7962740 143.4841580  23.8216900 123.9679700
 143.5014320  24.2725550 124.8121550 143.2357160  22.9222540 124.1813140
 138.5334710  28.3550640 115.3499310 137.9651610  27.9068890 114.7235220
 139.2423710  28.7143420 114.8164460 146.9112330  21.2349080 129.8066080
 147.2358100  20.5038740 130.3324060 146.9468840  20.9162720 128.9047070
 133.6103890  32.2562660 129.2266040 133.2258680  31.6156330 129.8249000
 133.9216080  32.9598780 129.7960770 139.7601030  29.1039200 124.7074660
 140.1271160  28.6297770 125.4536000 139.5706090  29.9780770 125.0483000
 132.6241520  23.8482890 120.8368130 132.3388440  23.4838560 121.6746750
 132.5620380  23.1163350 120.2231270 137.5500400  28.1447840 127.0258870
 137.2457470  29.0239820 127.2509230 138.5046860  28.2047630 127.0616310
 136.0782190  32.3508830 117.6225720 135.3044450  31.8106450 117.4624440
 136.8076820  31.8315440 117.2843480 146.8370170  31.3474190 123.4152110
 147.5569290  31.8429480 123.0248220 146.6351990  30.6692080 122.7705980
 142.2980110  22.7412150 117.5581500 141.4844720  22.2425320 117.4826810
 142.1042060  23.5810400 117.1417850 142.2188970  31.4183250 129.3021110
 142.1526280  30.4978920 129.0478700 141.5894110  31.5158690 130.0165750
 145.0128500  27.1131800 115.8543660 145.9008120  27.4249030 115.6795000
 144.9833590  26.2404050 115.4624240 136.1219590  32.0189210 121.2604530
 136.6398260  31.2157470 121.2061420 135.6703610  31.9568350 122.1021360
 141.0089090  33.2855490 116.5331830 141.3504790  34.0297720 116.0375150
 140.1801800  33.5986610 116.8956660 133.6064130  28.9850580 128.1730230
 133.2479070  29.6504430 128.7603570 133.3118690  28.1534130 128.5442850
 136.8077250  29.4434820 131.0569780 136.5077390  29.5892000 130.1597600
 137.5788490  28.8840110 130.9643170 142.1505700  34.2403820 129.0524910
 142.1650240  33.3084780 128.8343820 141.4430800  34.3263580 129.6914680
 147.2842770  28.4243640 115.3223520 147.2006490  28.8557860 114.4719960
 148.0036960  28.8841990 115.7550340 148.3130020  35.2785900 118.0505650
 147.6706180  34.6241520 118.3249370 147.9260680  35.6840990 117.2746320
 143.8916500  32.6071330 121.8977340 144.2440320  32.0099460 121.2378710
 143.0078830  32.2815560 122.0685590 139.9779780  33.3669020 119.3047750
 140.6650910  33.9138230 119.6855340 139.1912200  33.9109750 119.3397360
 132.1172180  28.9841840 114.7964830 132.9867030  29.2666640 115.0800750
 131.6262500  29.7977710 114.6813640 139.2806990  30.3715050 118.9173110
 139.7369770  31.1820300 119.1433300 138.9295200  30.0538190 119.7491600
 141.5839600  35.8821390 126.1465410 142.2281820  36.0880770 126.8238830
 141.9469040  35.1209790 125.6936260 135.1818770  20.7152700 119.3895630
 135.0533400  20.7070600 120.3380550 134.3580790  21.0535790 119.0386640
 142.8571680  33.8853740 124.8642860 143.4993910  33.1846900 124.9775030
 143.3821030  34.6652180 124.6839750 146.7027400  34.1702360 114.5882000
 146.4764980  33.4532800 115.1806640 146.3123600  33.9214800 113.7503750
 144.6309300  34.6848640 128.0678920 144.9665540  35.2715330 128.7456840
 143.7109640  34.5541350 128.2976710 132.4843430  38.1969220 115.3626460
 132.8441070  38.7958560 114.7083730 132.3435770  38.7429110 116.1361490
 132.1812700  22.4743820 128.8502330 131.4671220  22.6740740 129.4554940
 132.6007740  21.6983390 129.2217130 146.2843650  32.0874300 116.2496160
 145.9965350  32.5486990 117.0374040 147.0795820  31.6272070 116.5180380
 132.4685290  36.4624080 129.8368860 132.5776410  35.5218820 129.6964250
 131.8165850  36.7278830 129.1882590 140.4597880  34.7339970 131.2366980
 140.1394750  34.0149210 131.7812670 139.7856240  35.4095040 131.3103040
 138.5012050  35.5800420 116.1800130 138.4922150  36.3130110 115.5644640
 137.5810410  35.3332000 116.2727090 134.1018690  30.8015310 116.9246890
 133.4946640  31.5414210 116.9342190 134.5768040  30.8914670 116.0985090
 143.6751480  24.9666130 126.6003780 144.0432300  24.1461340 126.9283350
 142.8149680  25.0268020 127.0159430 147.0413510  23.9223070 117.4091340
 146.4126670  24.0268740 116.6949570 146.5465430  24.1419850 118.1985220
 141.4871650  35.6428660 114.8425320 141.5883630  35.4392650 113.9127300
 140.5873390  35.3886940 115.0473100 139.0097540  26.2009020 118.8249220
 138.3013690  26.6695360 119.2662830 139.2942020  25.5431030 119.4594410
 140.6353470  27.6205720 126.8241750 141.1338720  28.0951540 127.4893600
 140.7776420  26.6969240 127.0311780 143.0412970  22.9259680 120.2645010
 142.9180750  22.9445810 119.3154520 143.9897530  22.9738620 120.3843410
 140.1289760  38.1614980 119.5372990 140.3831260  38.1236370 118.6152360
 139.1802240  38.0348310 119.5301240 137.2132560  24.5094100 116.1999930
 138.0623090  24.9464250 116.1340120 136.8463830  24.8214360 117.0271990
 147.8420330  23.8373680 127.6670140 147.3393930  24.5779080 128.0063950
 148.6576990  24.2257680 127.3506930 146.1342340  29.0806860 121.1131500
 145.1932480  29.0957090 121.2879190 146.4486410  28.2942820 121.5591800
 136.1123980  30.7626460 114.6735460 136.8787250  30.6507820 115.2360890
 136.1898670  30.0664430 114.0212230 134.8070740  28.1951530 115.3568350
 134.8874330  27.2479040 115.4685750 135.6990490  28.5258410 115.4629010
 135.6085450  38.3446920 122.4602890 136.3447930  37.7962380 122.7311460
 135.9926370  39.2102930 122.3208880 132.4930930  34.4120490 118.3344400
 131.5670710  34.6541630 118.3249810 132.9587360  35.2394750 118.2129150
 134.6143730  37.5292990 131.6488470 135.4156460  37.8505040 132.0623870
 134.0995550  37.1688570 132.3708380 138.7187760  37.5177230 114.2828460
 139.5116370  37.8066060 113.8310250 138.1992110  37.0869400 113.6040940
 143.4508360  33.6372860 131.5963880 142.8446520  33.6604460 130.8559630
 143.1462470  32.9055900 132.1331130 144.8808730  37.3653150 130.2073290
 145.8330480  37.2811170 130.1573530 144.7336950  38.0294860 130.8807080
 147.7717930  36.7447360 115.7065200 147.4859440  36.3312500 114.8919380
 147.5737480  37.6735070 115.5865720 132.3341540  30.0166450 130.5924520
 132.8380560  29.4373730 131.1640750 131.5948960  30.3006680 131.1300890
 139.2365160  32.7380640 114.1470810 139.1315800  32.1232990 114.8732190
 139.0689380  32.2146530 113.3633820 139.3879480  31.4237440 130.1260040
 138.6225150  31.9922440 130.0414710 139.5695440  31.1313650 129.2328270
 142.4767890  31.8000670 114.7512800 141.9277990  32.2469970 115.3955540
 143.0987150  31.2949920 115.2750470 146.5302830  33.1542770 130.6835060
 147.2712300  33.4918530 130.1802520 145.7675510  33.3234830 130.1304830
 134.3664620  28.1596040 131.4874590 134.4069960  27.8609910 132.3959820
 135.2210120  28.5603650 131.3282110 138.1443010  30.7591590 116.6478100
 138.5659430  30.5931460 117.4909490 138.2693850  29.9491820 116.1533240
 136.3070430  26.7388140 129.4549080 135.7766890  26.2479090 128.8272420
 136.9758500  27.1672340 128.9207010 140.6570650  29.7829200 113.8955200
 141.1776310  29.0678220 113.5296350 141.3039050  30.4215070 114.1955710
 145.2048490  31.2057600 129.2190270 145.6189510  31.3602680 130.0680690
 144.2699490  31.3312820 129.3816050 145.6770660  28.5453760 131.2229420
 146.2591430  27.7906080 131.1349900 145.8532430  29.0761200 130.4460900
 136.7942730  23.7050510 129.5346370 136.6999600  23.0871260 128.8097240
 136.2140120  24.4316800 129.3076280 139.5604170  22.2623750 126.5673760
 139.1121470  22.2848010 125.7219310 138.9269370  21.8642770 127.1644060
 139.9663720  31.1578080 127.1886200 140.3851830  32.0010810 127.0162440
 139.0472350  31.2950120 126.9592980 142.3027620  28.8894260 128.5724040
 142.4223830  28.2935400 129.3118880 143.1621620  28.9263950 128.1525340
 144.6415520  29.4431450 127.1486550 144.1150740  29.9674070 126.5451690
 144.9846860  30.0758840 127.7796280 137.0401910  26.8324820 113.5936260
 136.8390970  25.9692180 113.9549600 136.8693960  26.7458180 112.6557860
 137.8171140  37.4631090 128.3043930 137.2792230  38.1877150 127.9852630
 138.0705100  36.9861430 127.5141270 139.0696390  25.4315610 129.8299860
 139.6596080  25.1231460 130.5177680 138.2516630  24.9595360 129.9859760
 143.8889820  25.0481420 130.0632880 143.2005340  24.3862960 129.9982870
 144.6095840  24.6019690 130.5081340 144.5190220  21.6433050 116.1223140
 144.7992510  20.8000950 116.4782560 143.7455950  21.8756160 116.6361890
 135.8384710  23.9325440 113.5814140 136.1410610  23.9392870 112.6733290
 136.5779300  23.5823300 114.0781800 140.6733350  38.6982300 128.5630580
 140.5992050  39.6017440 128.8702950 139.7712190  38.3794200 128.5352650
 139.0569640  22.8760060 114.5670340 138.7091640  22.1984050 113.9872790
 139.2582410  22.4149570 115.3813730 141.2218680  37.8640810 116.1856940
 142.1169470  38.2025780 116.2075700 141.2536310  37.1420220 115.5581220
 134.8614840  33.2367860 114.4143940 135.2989710  33.7797530 115.0701520
 135.3462570  32.4114810 114.4240280 132.0760640  36.0256890 121.8664200
 132.4063650  35.1577950 121.6342840 132.5051640  36.2315410 122.6969160
 136.6722560  34.3565900 119.5266170 136.3718100  34.2330870 120.4270080
 136.5660050  33.4974490 119.1181900 132.5650850  36.8927480 124.6045830
 132.1281840  37.0728280 125.4369980 133.1328530  37.6502100 124.4627550
 148.2013030  36.3944480 128.8923140 147.6015020  36.4537040 128.1487060
 148.3306930  35.4549460 129.0219990 132.3975280  29.4047710 120.9634710
 131.7424120  29.1359350 120.3194410 133.2353230  29.2952190 120.5136690
 146.8864670  33.1196460 126.9899300 146.0724510  33.5493620 127.2525090
 147.2938870  33.7314870 126.3768350 145.3465720  24.1989000 115.1853200
 145.7650600  24.0119980 114.3449860 145.0401780  23.3468050 115.4956130
 133.4351210  29.7900280 125.5038050 133.8024250  29.7027680 126.3834070
 132.8662030  29.0266830 125.4044910 148.2355070  28.2584660 128.5168520
 148.0041160  28.0297410 127.6166470 148.4959620  29.1784210 128.4713410
 132.9867210  26.7009370 129.4096470 132.0923260  26.6676130 129.7490180
 133.5264760  26.8996160 130.1747720 146.6743140  23.4841090 131.2948220
 147.5513320  23.4924490 131.6782220 146.6863980  22.7471930 130.6840570
 131.6113360  26.6146640 116.9060040 130.7077440  26.8776840 116.7311700
 132.0953980  26.8857810 116.1260000 148.2996130  27.4210500 125.7055790
 147.3498840  27.3874040 125.8200780 148.4809140  28.3310610 125.4705560
 134.1540570  25.6712180 114.8154420 134.8632270  25.2495400 114.3301700
 133.4380510  25.7387410 114.1837770 133.8014730  21.7251510 113.8557070
 134.5242860  22.2660450 114.1738290 134.0739250  21.4514930 112.9798610
 147.6106380  26.5943980 118.1228650 148.1065500  26.3614850 118.9077530
 147.4122450  25.7555820 117.7066290 133.4906920  20.9757700 123.7579690
 134.1383110  20.4255080 123.3174850 133.9108760  21.2300850 124.5795500
 147.3859260  21.1699060 127.1149330 148.0231480  21.7833200 127.4808520
 147.5334150  21.2059720 126.1698560 146.9440720  37.8715060 120.5167570
 147.5399790  37.5499630 119.8401990 147.2018870  37.3986880 121.3080840
 133.2438920  21.1313370 126.5005010 132.8953740  21.5877190 127.2663190
 132.9126620  20.2370500 126.5827440 134.8503290  34.3032970 130.6658200
 134.8072920  33.9325880 131.5472660 134.9814300  35.2410540 130.8060020
 138.5509320  35.8592560 126.2667920 138.3100680  36.1267120 125.3798440
 139.4911960  36.0298290 126.3218780 140.7563740  22.3225250 130.0224430
 140.6952630  22.9147080 130.7719840 141.6964120  22.2151210 129.8774690
 143.3938300  21.9795310 129.6616720 144.0078710  22.2974600 128.9997800
 143.9387860  21.4943900 130.2812580 133.9159560  20.6589570 129.7755780
 134.4642550  20.4777620 129.0121890 133.9814870  19.8683680 130.3112090
 134.6891320  37.2495220 127.7855980 134.0951640  37.1179920 128.5246020
 134.6815160  36.4133360 127.3198080 144.1346340  20.5427450 125.9886010
 143.2606180  20.8762560 125.7858940 144.0257090  20.0700630 126.8137880
 145.0418320  22.7498320 127.3727730 144.7131680  21.9350080 126.9929460
 145.9900620  22.7068130 127.2493420 147.4952930  38.5210360 124.3465300
 147.0355900  39.2726170 123.9723320 146.8665390  37.8016830 124.2880100
 134.3203550  34.6153600 126.7364020 133.5937610  33.9958890 126.6689970
 134.3812700  35.0094210 125.8662100 137.9248650  36.8298600 123.5213430
 138.4413670  36.2185960 122.9961690 138.5746030  37.3327380 124.0124440
 140.6644150  37.7207090 124.3482410 140.9521960  37.4661390 123.4715420
 141.1767370  37.1684450 124.9387980 141.8821160  21.4597290 124.9278920
 141.0992950  21.9342790 125.2075680 141.5884090  20.5552120 124.8192100
 146.4342230  22.1620390 122.9728010 146.8750320  22.1065490 122.1249610
 146.1649820  23.0778400 123.0438190 132.6033550  37.9327990 119.9460780
 132.4355590  37.2998670 120.6442670 131.7368060  38.1387390 119.5954970
 133.2261570  21.7644770 117.4492640 133.9840930  21.8773650 116.8756670
 132.7638740  22.6013970 117.4036070 139.7675380  23.8784040 120.4394950
 138.9549890  23.5040930 120.0990830 140.2717020  23.1229120 120.7416140
 144.2700360  20.5426490 121.6778020 144.8729730  21.1146700 122.1526540
 143.5293350  21.1065930 121.4551920 147.4134960  20.9448050 116.9518300
 147.6085590  21.8431500 117.2185730 146.6264830  20.7135130 117.4451250
 134.2096250  36.6261220 117.3910920 133.6843870  37.0069250 116.6872880
 134.1340830  37.2511990 118.1120630 135.5986720  22.2908820 115.9894610
 136.1279480  21.5038620 115.8602560 136.2315040  22.9700010 116.2230140
 137.7924560  22.0283960 119.0440000 137.1627300  21.3271270 119.2110130
 137.2529700  22.7888090 118.8273160 140.7316510  38.6423190 131.7150610
 141.6583820  38.4067460 131.7586570 140.7166940  39.4695190 131.2336640
 137.9180120  21.3067940 131.4792490 137.6364390  21.8101540 130.7153310
 138.2999820  20.5089690 131.1134620 136.8089220  38.5743600 116.2660170
 137.5408040  38.2902880 115.7184060 137.0682890  38.3356880 117.1559550
 135.9704010  34.6908330 116.2706500 135.3412890  35.1593430 116.8192330
 136.0851840  33.8457550 116.7052690 144.5195580  20.7221520 132.0572960
 144.4061030  21.0416130 132.9524480 145.3365320  21.1234030 131.7610240
 147.2994070  37.8693050 131.5391650 148.0919390  37.3742280 131.3317610
 147.5927220  38.5483190 132.1467260 143.4253730  28.7413990 102.4207700
 143.3447780  27.8268600 102.1499410 143.0118150  29.2381060 101.7147410
 141.5571770  30.5193010 104.3016970 140.7813870  30.0393450 104.5915540
 142.2084700  29.8398660 104.1273130 135.5737600  30.8312820 105.1792730
 134.7422480  30.5761530 105.5789240 136.1818580  30.9023590 105.9150650
 145.5779200  34.9253200 103.0816100 145.1160730  34.1540440 103.4103270
 146.3904750  34.9519270 103.5868550 135.5538860  34.8652910 105.3750750
 135.8566900  33.9750650 105.1960970 136.2982450  35.4223130 105.1473000
 133.9829550  25.7914710  98.9635120 133.0946250  26.1330680  98.8615000
 134.2670740  25.5915030  98.0715950 131.9462560  28.3920360 104.8474820
 132.5178670  27.6242560 104.8478460 131.9464100  28.6909120 103.9381430
 141.8042510  37.2111210 102.7020090 141.1853950  37.6668710 102.1314530
 142.6594290  37.3662670 102.3009790 140.9980760  33.1950200 104.3087130
 140.9289040  32.2540140 104.1476260 141.7600620  33.2851610 104.8809700
 133.1887430  23.8004720 106.6343750 133.0090270  22.9030470 106.9146510
 132.7867510  24.3476590 107.3090700 142.0285930  26.0020580 104.5356060
 142.4050750  25.1292460 104.4229730 141.9305440  26.3379280 103.6446500
 136.1590940  24.3746210  99.9973500 136.2657690  25.2749940 100.3042260
 135.2483300  24.3264180  99.7068150 145.8110050  23.4971020 101.4684400
 146.6319670  23.0067590 101.5109880 145.8444130  24.0868680 102.2216240
 133.8074100  26.2965220 105.2426090 134.4884210  26.5603590 105.8613490
 133.4922150  25.4566090 105.5764100 137.9998670  27.3432580 104.3298680
 138.5076890  27.8413550 104.9703700 138.5311910  26.5667780 104.1538040
 136.2834770  21.9831140 108.5962100 136.2853210  22.5003530 107.7908000
 135.4539080  21.5061320 108.5732030 142.6705860  32.0950450 100.0952000
 142.0523130  32.5599900  99.5314720 143.1829110  32.7877930 100.5121510
 137.5337620  31.6226320 106.7735600 137.2007000  32.2495240 107.4156670
 137.7104300  32.1488200 105.9937270 146.0471530  25.4371400 104.2411940
 145.3427100  25.7256290 104.8215050 146.4083690  26.2471510 103.8811500
 135.9650100  23.6941100 106.6032550 136.3066910  24.5383150 106.3086420
 135.0265910  23.8424840 106.7197890 136.7456720  33.5907120 108.5884780
 137.3630720  34.2658200 108.3069230 135.8849840  33.9995100 108.4972280
 132.0389060  32.7806980  97.4691630 131.6617040  33.2694080  96.7376530
 132.2962130  33.4532260  98.0998160 147.6634310  35.0546530 106.5039420
 146.9797830  35.7245640 106.4956090 148.2028600  35.2527180 105.7384280
 139.6477990  21.1823370 102.9277140 139.9552970  20.6270260 102.2112640
 138.7178690  21.3167830 102.7450130 145.1993050  36.8990660 105.2184600
 145.2120210  36.4952950 104.3506860 144.6468270  37.6737950 105.1146030
 146.4938470  33.6206880 100.3074770 146.3834800  32.6781210 100.4324190
 146.4906720  33.9822520 101.1937530 144.5978490  31.8020500 106.5467210
 145.0147280  31.5880610 105.7120670 145.3218310  32.0593290 107.1175830
 142.0358750  29.2472200  99.6637260 141.1088030  29.1809580  99.8925730
 142.1883570  30.1852330  99.5492500 142.0227830  25.5189200  96.6604420
 141.0831500  25.6803160  96.7456880 142.3411090  26.2374880  96.1140410
 146.0656040  30.8092500 100.1672510 145.4468460  30.4712050  99.5198810
 146.0480490  30.1652260 100.8751700 145.5082600  26.9877040 107.5838320
 145.0953780  27.8130750 107.8378310 144.7758550  26.4022080 107.3914680
 137.6415390  29.7736940 102.4456990 137.2372390  29.0614190 101.9502890
 137.7278510  29.4290180 103.3345030 138.1097090  33.4604500 104.6096200
 137.8125380  32.8549970 103.9303980 139.0596910  33.4981810 104.4985560
 136.3544010  26.5480150 106.2256030 136.9058600  26.6575490 105.4509280
 136.8687520  26.9217750 106.9411260 146.1982700  37.0336370 108.2719300
 145.7213260  37.8408560 108.0791910 145.5144490  36.3814700 108.4245510
 137.2015520  33.1986190 111.2604000 136.3044050  33.4226160 111.5077400
 137.2268390  33.3221130 110.3115400 144.2420740  30.0479310  97.1745260
 144.6814020  29.2101740  97.0283080 144.9549160  30.6808710  97.2609400
 136.0286740  30.0699510 109.8361370 135.8894510  30.9422310 110.2048770
 135.1468100  29.7272320 109.6909310 142.3516120  34.9875380 101.1426500
 142.7912030  35.7299710 100.7281890 142.2903010  35.2301950 102.0665460
 137.8267090  36.0121210 112.0446520 137.7982520  36.4164160 111.1774950
 137.6632060  35.0831570 111.8818120 147.8237880  21.3022120  95.4886300
 147.5110540  21.3948950  96.3885370 148.5850350  21.8803150  95.4383730
 134.3420020  28.6681920  99.9463640 134.2217620  29.3944010  99.3344910
 134.0320910  27.8984830  99.4691550 131.9805390  31.8397060 105.7532280
 132.0585810  31.9745830 104.8088000 132.5947070  31.1312950 105.9460400
 133.2253020  33.5397250 102.1638460 132.8181100  33.6811840 101.3092060
 134.1166030  33.2557410 101.9609670 143.0431900  37.6889160 109.0705510
 143.5576570  37.5997170 109.8727940 142.2000980  38.0348860 109.3633420
 145.0186300  37.9744500  98.4989510 144.8587440  37.6847440  99.3971340
 144.8533010  37.1984630  97.9634740 137.4974680  37.7543030 100.2761130
 137.3217160  36.8378570 100.0628930 136.6430420  38.1130320 100.5158930
 144.7212430  35.4832060  97.0587510 144.0277590  35.4809350  96.3989790
 145.4635290  35.0591380  96.6281680 144.2862360  37.1094770 101.1336000
 144.7419310  36.3284150 101.4474620 144.6254880  37.8201590 101.6777180
 132.0364910  32.8811230 108.2926740 132.1995950  32.4116590 107.4746110
 132.5017360  32.3734790 108.9575580 136.8083680  22.0116990 103.3287310
 136.3651830  22.7926530 102.9971830 137.3668670  22.3346880 104.0358250
 141.0953490  24.8785510 108.9322630 140.6332860  25.0868530 109.7442570
 140.6931600  24.0644860 108.6293300 146.0958000  26.0994460 110.0619290
 145.2451590  25.8000210 110.3828360 145.9359790  26.3436470 109.1503110
 143.1907710  27.5996210 112.1618080 143.5161120  26.7659960 111.8220310
 143.9788040  28.1224730 112.3096410 139.9242500  21.6327690  98.2093140
 139.2996680  21.6287560  98.9346450 139.8372620  20.7658650  97.8129110
 138.8459580  22.5564320 105.1876910 139.1431910  23.4627150 105.1068930
 139.3945140  22.0683100 104.5736480 136.5997900  27.1350560 101.0568560
 136.3738820  26.9187730 101.9615180 135.8190430  27.5679020 100.7114530
 143.8295660  27.1413930  99.6559210 143.2304550  27.8649730  99.4722830
 144.3775270  27.0790710  98.8735660 139.0397110  28.0336140 111.7228830
 138.9440710  27.0930870 111.5729230 139.8829090  28.2551210 111.3276900
 142.4360530  25.7777470 101.6862490 142.8290100  26.0949670 100.8731180
 142.7977380  24.8989350 101.8007010 134.1707650  24.4449810 109.8762610
 133.7771040  25.2925020 110.0835390 133.4826050  23.8076180 110.0671250
 140.7452700  24.5284780 112.9459350 140.0551020  24.3356980 113.5805440
 141.4885000  24.8119420 113.4783650 131.4724700  22.3678270 103.9092690
 131.1837750  22.9381130 104.6217670 132.2170460  21.8882720 104.2723920
 131.6594930  26.3098390  95.1195410 131.5769600  27.2529150  95.2610400
 131.3077990  26.1673300  94.2407760 143.0215670  28.3683220 105.7813270
 142.2896790  28.8770030 106.1303370 142.6240010  27.5513200 105.4802050
 139.4593060  25.0437420 104.1865760 139.4629120  24.6027370 103.3370300
 140.3544180  25.3654750 104.2937580 135.3095440  24.9263910 103.1459970
 134.9695490  25.4039140 103.9027020 134.5472760  24.4729030 102.7861070
 139.5213210  26.0449500  97.1772520 139.6426030  26.0035980  98.1258340
 139.1361720  26.9073650  97.0219250 143.4841580  23.8216900 105.1936210
 143.5014320  24.2725550 106.0378060 143.2357160  22.9222540 105.4069650
 138.5334710  28.3550640  96.5755820 137.9651610  27.9068890  95.9491730
 139.2423710  28.7143420  96.0420970 146.9112330  21.2349080 111.0322590
 147.2358100  20.5038740 111.5580570 146.9468840  20.9162720 110.1303580
 133.6103890  32.2562660 110.4522550 133.2258680  31.6156330 111.0505510
 133.9216080  32.9598780 111.0217280 139.7601030  29.1039200 105.9331170
 140.1271160  28.6297770 106.6792510 139.5706090  29.9780770 106.2739510
 132.6241520  23.8482890 102.0624640 132.3388440  23.4838560 102.9003260
 132.5620380  23.1163350 101.4487780 137.5500400  28.1447840 108.2515380
 137.2457470  29.0239820 108.4765740 138.5046860  28.2047630 108.2872820
 136.0782190  32.3508830  98.8482230 135.3044450  31.8106450  98.6880950
 136.8076820  31.8315440  98.5099990 146.8370170  31.3474190 104.6408620
 147.5569290  31.8429480 104.2504730 146.6351990  30.6692080 103.9962490
 142.2980110  22.7412150  98.7838010 141.4844720  22.2425320  98.7083320
 142.1042060  23.5810400  98.3674360 142.2188970  31.4183250 110.5277620
 142.1526280  30.4978920 110.2735210 141.5894110  31.5158690 111.2422260
 145.0128500  27.1131800  97.0800170 145.9008120  27.4249030  96.9051510
 144.9833590  26.2404050  96.6880750 136.1219590  32.0189210 102.4861040
 136.6398260  31.2157470 102.4317930 135.6703610  31.9568350 103.3277870
 141.0089090  33.2855490  97.7588340 141.3504790  34.0297720  97.2631660
 140.1801800  33.5986610  98.1213170 133.6064130  28.9850580 109.3986740
 133.2479070  29.6504430 109.9860080 133.3118690  28.1534130 109.7699360
 136.8077250  29.4434820 112.2826290 136.5077390  29.5892000 111.3854110
 137.5788490  28.8840110 112.1899680 142.1505700  34.2403820 110.2781420
 142.1650240  33.3084780 110.0600330 141.4430800  34.3263580 110.9171190
 147.2842770  28.4243640  96.5480030 147.2006490  28.8557860  95.6976470
 148.0036960  28.8841990  96.9806850 148.3130020  35.2785900  99.2762160
 147.6706180  34.6241520  99.5505880 147.9260680  35.6840990  98.5002830
 143.8916500  32.6071330 103.1233850 144.2440320  32.0099460 102.4635220
 143.0078830  32.2815560 103.2942100 139.9779780  33.3669020 100.5304260
 140.6650910  33.9138230 100.9111850 139.1912200  33.9109750 100.5653870
 132.1172180  28.9841840  96.0221340 132.9867030  29.2666640  96.3057260
 131.6262500  29.7977710  95.9070150 139.2806990  30.3715050 100.1429620
 139.7369770  31.1820300 100.3689810 138.9295200  30.0538190 100.9748110
 141.5839600  35.8821390 107.3721920 142.2281820  36.0880770 108.0495340
 141.9469040  35.1209790 106.9192770 135.1818770  20.7152700 100.6152140
 135.0533400  20.7070600 101.5637060 134.3580790  21.0535790 100.2643150
 142.8571680  33.8853740 106.0899370 143.4993910  33.1846900 106.2031540
 143.3821030  34.6652180 105.9096260 146.7027400  34.1702360  95.8138510
 146.4764980  33.4532800  96.4063150 146.3123600  33.9214800  94.9760260
 144.6309300  34.6848640 109.2935430 144.9665540  35.2715330 109.9713350
 143.7109640  34.5541350 109.5233220 132.4843430  38.1969220  96.5882970
 132.8441070  38.7958560  95.9340240 132.3435770  38.7429110  97.3618000
 132.1812700  22.4743820 110.0758840 131.4671220  22.6740740 110.6811450
 132.6007740  21.6983390 110.4473640 146.2843650  32.0874300  97.4752670
 145.9965350  32.5486990  98.2630550 147.0795820  31.6272070  97.7436890
 132.4685290  36.4624080 111.0625370 132.5776410  35.5218820 110.9220760
 131.8165850  36.7278830 110.4139100 140.4597880  34.7339970 112.4623490
 140.1394750  34.0149210 113.0069180 139.7856240  35.4095040 112.5359550
 138.5012050  35.5800420  97.4056640 138.4922150  36.3130110  96.7901150
 137.5810410  35.3332000  97.4983600 134.1018690  30.8015310  98.1503400
 133.4946640  31.5414210  98.1598700 134.5768040  30.8914670  97.3241600
 143.6751480  24.9666130 107.8260290 144.0432300  24.1461340 108.1539860
 142.8149680  25.0268020 108.2415940 147.0413510  23.9223070  98.6347850
 146.4126670  24.0268740  97.9206080 146.5465430  24.1419850  99.4241730
 141.4871650  35.6428660  96.0681830 141.5883630  35.4392650  95.1383810
 140.5873390  35.3886940  96.2729610 139.0097540  26.2009020 100.0505730
 138.3013690  26.6695360 100.4919340 139.2942020  25.5431030 100.6850920
 140.6353470  27.6205720 108.0498260 141.1338720  28.0951540 108.7150110
 140.7776420  26.6969240 108.2568290 143.0412970  22.9259680 101.4901520
 142.9180750  22.9445810 100.5411030 143.9897530  22.9738620 101.6099920
 140.1289760  38.1614980 100.7629500 140.3831260  38.1236370  99.8408870
 139.1802240  38.0348310 100.7557750 137.2132560  24.5094100  97.4256440
 138.0623090  24.9464250  97.3596630 136.8463830  24.8214360  98.2528500
 147.8420330  23.8373680 108.8926650 147.3393930  24.5779080 109.2320460
 148.6576990  24.2257680 108.5763440 146.1342340  29.0806860 102.3388010
 145.1932480  29.0957090 102.5135700 146.4486410  28.2942820 102.7848310
 136.1123980  30.7626460  95.8991970 136.8787250  30.6507820  96.4617400
 136.1898670  30.0664430  95.2468740 134.8070740  28.1951530  96.5824860
 134.8874330  27.2479040  96.6942260 135.6990490  28.5258410  96.6885520
 135.6085450  38.3446920 103.6859400 136.3447930  37.7962380 103.9567970
 135.9926370  39.2102930 103.5465390 132.4930930  34.4120490  99.5600910
 131.5670710  34.6541630  99.5506320 132.9587360  35.2394750  99.4385660
 134.6143730  37.5292990 112.8744980 135.4156460  37.8505040 113.2880380
 134.0995550  37.1688570 113.5964890 138.7187760  37.5177230  95.5084970
 139.5116370  37.8066060  95.0566760 138.1992110  37.0869400  94.8297450
 143.4508360  33.6372860 112.8220390 142.8446520  33.6604460 112.0816140
 143.1462470  32.9055900 113.3587640 144.8808730  37.3653150 111.4329800
 145.8330480  37.2811170 111.3830040 144.7336950  38.0294860 112.1063590
 147.7717930  36.7447360  96.9321710 147.4859440  36.3312500  96.1175890
 147.5737480  37.6735070  96.8122230 132.3341540  30.0166450 111.8181030
 132.8380560  29.4373730 112.3897260 131.5948960  30.3006680 112.3557400
 139.2365160  32.7380640  95.3727320 139.1315800  32.1232990  96.0988700
 139.0689380  32.2146530  94.5890330 139.3879480  31.4237440 111.3516550
 138.6225150  31.9922440 111.2671220 139.5695440  31.1313650 110.4584780
 142.4767890  31.8000670  95.9769310 141.9277990  32.2469970  96.6212050
 143.0987150  31.2949920  96.5006980 146.5302830  33.1542770 111.9091570
 147.2712300  33.4918530 111.4059030 145.7675510  33.3234830 111.3561340
 134.3664620  28.1596040 112.7131100 134.4069960  27.8609910 113.6216330
 135.2210120  28.5603650 112.5538620 138.1443010  30.7591590  97.8734610
 138.5659430  30.5931460  98.7166000 138.2693850  29.9491820  97.3789750
 136.3070430  26.7388140 110.6805590 135.7766890  26.2479090 110.0528930
 136.9758500  27.1672340 110.1463520 140.6570650  29.7829200  95.1211710
 141.1776310  29.0678220  94.7552860 141.3039050  30.4215070  95.4212220
 145.2048490  31.2057600 110.4446780 145.6189510  31.3602680 111.2937200
 144.2699490  31.3312820 110.6072560 145.6770660  28.5453760 112.4485930
 146.2591430  27.7906080 112.3606410 145.8532430  29.0761200 111.6717410
 136.7942730  23.7050510 110.7602880 136.6999600  23.0871260 110.0353750
 136.2140120  24.4316800 110.5332790 139.5604170  22.2623750 107.7930270
 139.1121470  22.2848010 106.9475820 138.9269370  21.8642770 108.3900570
 139.9663720  31.1578080 108.4142710 140.3851830  32.0010810 108.2418950
 139.0472350  31.2950120 108.1849490 142.3027620  28.8894260 109.7980550
 142.4223830  28.2935400 110.5375390 143.1621620  28.9263950 109.3781850
 144.6415520  29.4431450 108.3743060 144.1150740  29.9674070 107.7708200
 144.9846860  30.0758840 109.0052790 137.0401910  26.8324820  94.8192770
 136.8390970  25.9692180  95.1806110 136.8693960  26.7458180  93.8814370
 137.8171140  37.4631090 109.5300440 137.2792230  38.1877150 109.2109140
 138.0705100  36.9861430 108.7397780 139.0696390  25.4315610 111.0556370
 139.6596080  25.1231460 111.7434190 138.2516630  24.9595360 111.2116270
 143.8889820  25.0481420 111.2889390 143.2005340  24.3862960 111.2239380
 144.6095840  24.6019690 111.7337850 144.5190220  21.6433050  97.3479650
 144.7992510  20.8000950  97.7039070 143.7455950  21.8756160  97.8618400
 135.8384710  23.9325440  94.8070650 136.1410610  23.9392870  93.8989800
 136.5779300  23.5823300  95.3038310 140.6733350  38.6982300 109.7887090
 140.5992050  39.6017440 110.0959460 139.7712190  38.3794200 109.7609160
 139.0569640  22.8760060  95.7926850 138.7091640  22.1984050  95.2129300
 139.2582410  22.4149570  96.6070240 141.2218680  37.8640810  97.4113450
 142.1169470  38.2025780  97.4332210 141.2536310  37.1420220  96.7837730
 134.8614840  33.2367860  95.6400450 135.2989710  33.7797530  96.2958030
 135.3462570  32.4114810  95.6496790 132.0760640  36.0256890 103.0920710
 132.4063650  35.1577950 102.8599350 132.5051640  36.2315410 103.9225670
 136.6722560  34.3565900 100.7522680 136.3718100  34.2330870 101.6526590
 136.5660050  33.4974490 100.3438410 132.5650850  36.8927480 105.8302340
 132.1281840  37.0728280 106.6626490 133.1328530  37.6502100 105.6884060
 148.2013030  36.3944480 110.1179650 147.6015020  36.4537040 109.3743570
 148.3306930  35.4549460 110.2476500 132.3975280  29.4047710 102.1891220
 131.7424120  29.1359350 101.5450920 133.2353230  29.2952190 101.7393200
 146.8864670  33.1196460 108.2155810 146.0724510  33.5493620 108.4781600
 147.2938870  33.7314870 107.6024860 145.3465720  24.1989000  96.4109710
 145.7650600  24.0119980  95.5706370 145.0401780  23.3468050  96.7212640
 133.4351210  29.7900280 106.7294560 133.8024250  29.7027680 107.6090580
 132.8662030  29.0266830 106.6301420 148.2355070  28.2584660 109.7425030
 148.0041160  28.0297410 108.8422980 148.4959620  29.1784210 109.6969920
 132.9867210  26.7009370 110.6352980 132.0923260  26.6676130 110.9746690
 133.5264760  26.8996160 111.4004230 146.6743140  23.4841090 112.5204730
 147.5513320  23.4924490 112.9038730 146.6863980  22.7471930 111.9097080
 131.6113360  26.6146640  98.1316550 130.7077440  26.8776840  97.9568210
 132.0953980  26.8857810  97.3516510 148.2996130  27.4210500 106.9312300
 147.3498840  27.3874040 107.0457290 148.4809140  28.3310610 106.6962070
 134.1540570  25.6712180  96.0410930 134.8632270  25.2495400  95.5558210
 133.4380510  25.7387410  95.4094280 133.8014730  21.7251510  95.0813580
 134.5242860  22.2660450  95.3994800 134.0739250  21.4514930  94.2055120
 147.6106380  26.5943980  99.3485160 148.1065500  26.3614850 100.1334040
 147.4122450  25.7555820  98.9322800 133.4906920  20.9757700 104.9836200
 134.1383110  20.4255080 104.5431360 133.9108760  21.2300850 105.8052010
 147.3859260  21.1699060 108.3405840 148.0231480  21.7833200 108.7065030
 147.5334150  21.2059720 107.3955070 146.9440720  37.8715060 101.7424080
 147.5399790  37.5499630 101.0658500 147.2018870  37.3986880 102.5337350
 133.2438920  21.1313370 107.7261520 132.8953740  21.5877190 108.4919700
 132.9126620  20.2370500 107.8083950 134.8503290  34.3032970 111.8914710
 134.8072920  33.9325880 112.7729170 134.9814300  35.2410540 112.0316530
 138.5509320  35.8592560 107.4924430 138.3100680  36.1267120 106.6054950
 139.4911960  36.0298290 107.5475290 140.7563740  22.3225250 111.2480940
 140.6952630  22.9147080 111.9976350 141.6964120  22.2151210 111.1031200
 143.3938300  21.9795310 110.8873230 144.0078710  22.2974600 110.2254310
 143.9387860  21.4943900 111.5069090 133.9159560  20.6589570 111.0012290
 134.4642550  20.4777620 110.2378400 133.9814870  19.8683680 111.5368600
 134.6891320  37.2495220 109.0112490 134.0951640  37.1179920 109.7502530
 134.6815160  36.4133360 108.5454590 144.1346340  20.5427450 107.2142520
 143.2606180  20.8762560 107.0115450 144.0257090  20.0700630 108.0394390
 145.0418320  22.7498320 108.5984240 144.7131680  21.9350080 108.2185970
 145.9900620  22.7068130 108.4749930 147.4952930  38.5210360 105.5721810
 147.0355900  39.2726170 105.1979830 146.8665390  37.8016830 105.5136610
 134.3203550  34.6153600 107.9620530 133.5937610  33.9958890 107.8946480
 134.3812700  35.0094210 107.0918610 137.9248650  36.8298600 104.7469940
 138.4413670  36.2185960 104.2218200 138.5746030  37.3327380 105.2380950
 140.6644150  37.7207090 105.5738920 140.9521960  37.4661390 104.6971930
 141.1767370  37.1684450 106.1644490 141.8821160  21.4597290 106.1535430
 141.0992950  21.9342790 106.4332190 141.5884090  20.5552120 106.0448610
 146.4342230  22.1620390 104.1984520 146.8750320  22.1065490 103.3506120
 146.1649820  23.0778400 104.2694700 132.6033550  37.9327990 101.1717290
 132.4355590  37.2998670 101.8699180 131.7368060  38.1387390 100.8211480
 133.2261570  21.7644770  98.6749150 133.9840930  21.8773650  98.1013180
 132.7638740  22.6013970  98.6292580 139.7675380  23.8784040 101.6651460
 138.9549890  23.5040930 101.3247340 140.2717020  23.1229120 101.9672650
 144.2700360  20.5426490 102.9034530 144.8729730  21.1146700 103.3783050
 143.5293350  21.1065930 102.6808430 147.4134960  20.9448050  98.1774810
 147.6085590  21.8431500  98.4442240 146.6264830  20.7135130  98.6707760
 134.2096250  36.6261220  98.6167430 133.6843870  37.0069250  97.9129390
 134.1340830  37.2511990  99.3377140 135.5986720  22.2908820  97.2151120
 136.1279480  21.5038620  97.0859070 136.2315040  22.9700010  97.4486650
 137.7924560  22.0283960 100.2696510 137.1627300  21.3271270 100.4366640
 137.2529700  22.7888090 100.0529670 140.7316510  38.6423190 112.9407120
 141.6583820  38.4067460 112.9843080 140.7166940  39.4695190 112.4593150
 137.9180120  21.3067940 112.7049000 137.6364390  21.8101540 111.9409820
 138.2999820  20.5089690 112.3391130 136.8089220  38.5743600  97.4916680
 137.5408040  38.2902880  96.9440570 137.0682890  38.3356880  98.3816060
 135.9704010  34.6908330  97.4963010 135.3412890  35.1593430  98.0448840
 136.0851840  33.8457550  97.9309200 144.5195580  20.7221520 113.2829470
 144.4061030  21.0416130 114.1780990 145.3365320  21.1234030 112.9866750
 147.2994070  37.8693050 112.7648160 148.0919390  37.3742280 112.5574120
 147.5927220  38.5483190 113.3723770 143.4253730  28.7413990  83.6464210
 143.3447780  27.8268600  83.3755920 143.0118150  29.2381060  82.9403920
 141.5571770  30.5193010  85.5273480 140.7813870  30.0393450  85.8172050
 142.2084700  29.8398660  85.3529640 135.5737600  30.8312820  86.4049240
 134.7422480  30.5761530  86.8045750 136.1818580  30.9023590  87.1407160
 145.5779200  34.9253200  84.3072610 145.1160730  34.1540440  84.6359780
 146.3904750  34.9519270  84.8125060 135.5538860  34.8652910  86.6007260
 135.8566900  33.9750650  86.4217480 136.2982450  35.4223130  86.3729510
 133.9829550  25.7914710  80.1891630 133.0946250  26.1330680  80.0871510
 134.2670740  25.5915030  79.2972460 131.9462560  28.3920360  86.0731330
 132.5178670  27.6242560  86.0734970 131.9464100  28.6909120  85.1637940
 141.8042510  37.2111210  83.9276600 141.1853950  37.6668710  83.3571040
 142.6594290  37.3662670  83.5266300 140.9980760  33.1950200  85.5343640
 140.9289040  32.2540140  85.3732770 141.7600620  33.2851610  86.1066210
 133.1887430  23.8004720  87.8600260 133.0090270  22.9030470  88.1403020
 132.7867510  24.3476590  88.5347210 142.0285930  26.0020580  85.7612570
 142.4050750  25.1292460  85.6486240 141.9305440  26.3379280  84.8703010
 136.1590940  24.3746210  81.2230010 136.2657690  25.2749940  81.5298770
 135.2483300  24.3264180  80.9324660 145.8110050  23.4971020  82.6940910
 146.6319670  23.0067590  82.7366390 145.8444130  24.0868680  83.4472750
 133.8074100  26.2965220  86.4682600 134.4884210  26.5603590  87.0870000
 133.4922150  25.4566090  86.8020610 137.9998670  27.3432580  85.5555190
 138.5076890  27.8413550  86.1960210 138.5311910  26.5667780  85.3794550
 136.2834770  21.9831140  89.8218610 136.2853210  22.5003530  89.0164510
 135.4539080  21.5061320  89.7988540 142.6705860  32.0950450  81.3208510
 142.0523130  32.5599900  80.7571230 143.1829110  32.7877930  81.7378020
 137.5337620  31.6226320  87.9992110 137.2007000  32.2495240  88.6413180
 137.7104300  32.1488200  87.2193780 146.0471530  25.4371400  85.4668450
 145.3427100  25.7256290  86.0471560 146.4083690  26.2471510  85.1068010
 135.9650100  23.6941100  87.8289060 136.3066910  24.5383150  87.5342930
 135.0265910  23.8424840  87.9454400 136.7456720  33.5907120  89.8141290
 137.3630720  34.2658200  89.5325740 135.8849840  33.9995100  89.7228790
 132.0389060  32.7806980  78.6948140 131.6617040  33.2694080  77.9633040
 132.2962130  33.4532260  79.3254670 147.6634310  35.0546530  87.7295930
 146.9797830  35.7245640  87.7212600 148.2028600  35.2527180  86.9640790
 139.6477990  21.1823370  84.1533650 139.9552970  20.6270260  83.4369150
 138.7178690  21.3167830  83.9706640 145.1993050  36.8990660  86.4441110
 145.2120210  36.4952950  85.5763370 144.6468270  37.6737950  86.3402540
 146.4938470  33.6206880  81.5331280 146.3834800  32.6781210  81.6580700
 146.4906720  33.9822520  82.4194040 144.5978490  31.8020500  87.7723720
 145.0147280  31.5880610  86.9377180 145.3218310  32.0593290  88.3432340
 142.0358750  29.2472200  80.8893770 141.1088030  29.1809580  81.1182240
 142.1883570  30.1852330  80.7749010 142.0227830  25.5189200  77.8860930
 141.0831500  25.6803160  77.9713390 142.3411090  26.2374880  77.3396920
 146.0656040  30.8092500  81.3929020 145.4468460  30.4712050  80.7455320
 146.0480490  30.1652260  82.1008210 145.5082600  26.9877040  88.8094830
 145.0953780  27.8130750  89.0634820 144.7758550  26.4022080  88.6171190
 137.6415390  29.7736940  83.6713500 137.2372390  29.0614190  83.1759400
 137.7278510  29.4290180  84.5601540 138.1097090  33.4604500  85.8352710
 137.8125380  32.8549970  85.1560490 139.0596910  33.4981810  85.7242070
 136.3544010  26.5480150  87.4512540 136.9058600  26.6575490  86.6765790
 136.8687520  26.9217750  88.1667770 146.1982700  37.0336370  89.4975810
 145.7213260  37.8408560  89.3048420 145.5144490  36.3814700  89.6502020
 137.2015520  33.1986190  92.4860510 136.3044050  33.4226160  92.7333910
 137.2268390  33.3221130  91.5371910 144.2420740  30.0479310  78.4001770
 144.6814020  29.2101740  78.2539590 144.9549160  30.6808710  78.4865910
 136.0286740  30.0699510  91.0617880 135.8894510  30.9422310  91.4305280
 135.1468100  29.7272320  90.9165820 142.3516120  34.9875380  82.3683010
 142.7912030  35.7299710  81.9538400 142.2903010  35.2301950  83.2921970
 137.8267090  36.0121210  93.2703030 137.7982520  36.4164160  92.4031460
 137.6632060  35.0831570  93.1074630 147.8237880  21.3022120  76.7142810
 147.5110540  21.3948950  77.6141880 148.5850350  21.8803150  76.6640240
 134.3420020  28.6681920  81.1720150 134.2217620  29.3944010  80.5601420
 134.0320910  27.8984830  80.6948060 131.9805390  31.8397060  86.9788790
 132.0585810  31.9745830  86.0344510 132.5947070  31.1312950  87.1716910
 133.2253020  33.5397250  83.3894970 132.8181100  33.6811840  82.5348570
 134.1166030  33.2557410  83.1866180 143.0431900  37.6889160  90.2962020
 143.5576570  37.5997170  91.0984450 142.2000980  38.0348860  90.5889930
 145.0186300  37.9744500  79.7246020 144.8587440  37.6847440  80.6227850
 144.8533010  37.1984630  79.1891250 137.4974680  37.7543030  81.5017640
 137.3217160  36.8378570  81.2885440 136.6430420  38.1130320  81.7415440
 144.7212430  35.4832060  78.2844020 144.0277590  35.4809350  77.6246300
 145.4635290  35.0591380  77.8538190 144.2862360  37.1094770  82.3592510
 144.7419310  36.3284150  82.6731130 144.6254880  37.8201590  82.9033690
 132.0364910  32.8811230  89.5183250 132.1995950  32.4116590  88.7002620
 132.5017360  32.3734790  90.1832090 136.8083680  22.0116990  84.5543820
 136.3651830  22.7926530  84.2228340 137.3668670  22.3346880  85.2614760
 141.0953490  24.8785510  90.1579140 140.6332860  25.0868530  90.9699080
 140.6931600  24.0644860  89.8549810 146.0958000  26.0994460  91.2875800
 145.2451590  25.8000210  91.6084870 145.9359790  26.3436470  90.3759620
 143.1907710  27.5996210  93.3874590 143.5161120  26.7659960  93.0476820
 143.9788040  28.1224730  93.5352920 139.9242500  21.6327690  79.4349650
 139.2996680  21.6287560  80.1602960 139.8372620  20.7658650  79.0385620
 138.8459580  22.5564320  86.4133420 139.1431910  23.4627150  86.3325440
 139.3945140  22.0683100  85.7992990 136.5997900  27.1350560  82.2825070
 136.3738820  26.9187730  83.1871690 135.8190430  27.5679020  81.9371040
 143.8295660  27.1413930  80.8815720 143.2304550  27.8649730  80.6979340
 144.3775270  27.0790710  80.0992170 139.0397110  28.0336140  92.9485340
 138.9440710  27.0930870  92.7985740 139.8829090  28.2551210  92.5533410
 142.4360530  25.7777470  82.9119000 142.8290100  26.0949670  82.0987690
 142.7977380  24.8989350  83.0263520 134.1707650  24.4449810  91.1019120
 133.7771040  25.2925020  91.3091900 133.4826050  23.8076180  91.2927760
 140.7452700  24.5284780  94.1715860 140.0551020  24.3356980  94.8061950
 141.4885000  24.8119420  94.7040160 131.4724700  22.3678270  85.1349200
 131.1837750  22.9381130  85.8474180 132.2170460  21.8882720  85.4980430
 131.6594930  26.3098390  76.3451920 131.5769600  27.2529150  76.4866910
 131.3077990  26.1673300  75.4664270 143.0215670  28.3683220  87.0069780
 142.2896790  28.8770030  87.3559880 142.6240010  27.5513200  86.7058560
 139.4593060  25.0437420  85.4122270 139.4629120  24.6027370  84.5626810
 140.3544180  25.3654750  85.5194090 135.3095440  24.9263910  84.3716480
 134.9695490  25.4039140  85.1283530 134.5472760  24.4729030  84.0117580
 139.5213210  26.0449500  78.4029030 139.6426030  26.0035980  79.3514850
 139.1361720  26.9073650  78.2475760 143.4841580  23.8216900  86.4192720
 143.5014320  24.2725550  87.2634570 143.2357160  22.9222540  86.6326160
 138.5334710  28.3550640  77.8012330 137.9651610  27.9068890  77.1748240
 139.2423710  28.7143420  77.2677480 146.9112330  21.2349080  92.2579100
 147.2358100  20.5038740  92.7837080 146.9468840  20.9162720  91.3560090
 133.6103890  32.2562660  91.6779060 133.2258680  31.6156330  92.2762020
 133.9216080  32.9598780  92.2473790 139.7601030  29.1039200  87.1587680
 140.1271160  28.6297770  87.9049020 139.5706090  29.9780770  87.4996020
 132.6241520  23.8482890  83.2881150 132.3388440  23.4838560  84.1259770
 132.5620380  23.1163350  82.6744290 137.5500400  28.1447840  89.4771890
 137.2457470  29.0239820  89.7022250 138.5046860  28.2047630  89.5129330
 136.0782190  32.3508830  80.0738740 135.3044450  31.8106450  79.9137460
 136.8076820  31.8315440  79.7356500 146.8370170  31.3474190  85.8665130
 147.5569290  31.8429480  85.4761240 146.6351990  30.6692080  85.2219000
 142.2980110  22.7412150  80.0094520 141.4844720  22.2425320  79.9339830
 142.1042060  23.5810400  79.5930870 142.2188970  31.4183250  91.7534130
 142.1526280  30.4978920  91.4991720 141.5894110  31.5158690  92.4678770
 145.0128500  27.1131800  78.3056680 145.9008120  27.4249030  78.1308020
 144.9833590  26.2404050  77.9137260 136.1219590  32.0189210  83.7117550
 136.6398260  31.2157470  83.6574440 135.6703610  31.9568350  84.5534380
 141.0089090  33.2855490  78.9844850 141.3504790  34.0297720  78.4888170
 140.1801800  33.5986610  79.3469680 133.6064130  28.9850580  90.6243250
 133.2479070  29.6504430  91.2116590 133.3118690  28.1534130  90.9955870
 136.8077250  29.4434820  93.5082800 136.5077390  29.5892000  92.6110620
 137.5788490  28.8840110  93.4156190 142.1505700  34.2403820  91.5037930
 142.1650240  33.3084780  91.2856840 141.4430800  34.3263580  92.1427700
 147.2842770  28.4243640  77.7736540 147.2006490  28.8557860  76.9232980
 148.0036960  28.8841990  78.2063360 148.3130020  35.2785900  80.5018670
 147.6706180  34.6241520  80.7762390 147.9260680  35.6840990  79.7259340
 143.8916500  32.6071330  84.3490360 144.2440320  32.0099460  83.6891730
 143.0078830  32.2815560  84.5198610 139.9779780  33.3669020  81.7560770
 140.6650910  33.9138230  82.1368360 139.1912200  33.9109750  81.7910380
 132.1172180  28.9841840  77.2477850 132.9867030  29.2666640  77.5313770
 131.6262500  29.7977710  77.1326660 139.2806990  30.3715050  81.3686130
 139.7369770  31.1820300  81.5946320 138.9295200  30.0538190  82.2004620
 141.5839600  35.8821390  88.5978430 142.2281820  36.0880770  89.2751850
 141.9469040  35.1209790  88.1449280 135.1818770  20.7152700  81.8408650
 135.0533400  20.7070600  82.7893570 134.3580790  21.0535790  81.4899660
 142.8571680  33.8853740  87.3155880 143.4993910  33.1846900  87.4288050
 143.3821030  34.6652180  87.1352770 146.7027400  34.1702360  77.0395020
 146.4764980  33.4532800  77.6319660 146.3123600  33.9214800  76.2016770
 144.6309300  34.6848640  90.5191940 144.9665540  35.2715330  91.1969860
 143.7109640  34.5541350  90.7489730 132.4843430  38.1969220  77.8139480
 132.8441070  38.7958560  77.1596750 132.3435770  38.7429110  78.5874510
 132.1812700  22.4743820  91.3015350 131.4671220  22.6740740  91.9067960
 132.6007740  21.6983390  91.6730150 146.2843650  32.0874300  78.7009180
 145.9965350  32.5486990  79.4887060 147.0795820  31.6272070  78.9693400
 132.4685290  36.4624080  92.2881880 132.5776410  35.5218820  92.1477270
 131.8165850  36.7278830  91.6395610 140.4597880  34.7339970  93.6880000
 140.1394750  34.0149210  94.2325690 139.7856240  35.4095040  93.7616060
 138.5012050  35.5800420  78.6313150 138.4922150  36.3130110  78.0157660
 137.5810410  35.3332000  78.7240110 134.1018690  30.8015310  79.3759910
 133.4946640  31.5414210  79.3855210 134.5768040  30.8914670  78.5498110
 143.6751480  24.9666130  89.0516800 144.0432300  24.1461340  89.3796370
 142.8149680  25.0268020  89.4672450 147.0413510  23.9223070  79.8604360
 146.4126670  24.0268740  79.1462590 146.5465430  24.1419850  80.6498240
 141.4871650  35.6428660  77.2938340 141.5883630  35.4392650  76.3640320
 140.5873390  35.3886940  77.4986120 139.0097540  26.2009020  81.2762240
 138.3013690  26.6695360  81.7175850 139.2942020  25.5431030  81.9107430
 140.6353470  27.6205720  89.2754770 141.1338720  28.0951540  89.9406620
 140.7776420  26.6969240  89.4824800 143.0412970  22.9259680  82.7158030
 142.9180750  22.9445810  81.7667540 143.9897530  22.9738620  82.8356430
 140.1289760  38.1614980  81.9886010 140.3831260  38.1236370  81.0665380
 139.1802240  38.0348310  81.9814260 137.2132560  24.5094100  78.6512950
 138.0623090  24.9464250  78.5853140 136.8463830  24.8214360  79.4785010
 147.8420330  23.8373680  90.1183160 147.3393930  24.5779080  90.4576970
 148.6576990  24.2257680  89.8019950 146.1342340  29.0806860  83.5644520
 145.1932480  29.0957090  83.7392210 146.4486410  28.2942820  84.0104820
 136.1123980  30.7626460  77.1248480 136.8787250  30.6507820  77.6873910
 136.1898670  30.0664430  76.4725250 134.8070740  28.1951530  77.8081370
 134.8874330  27.2479040  77.9198770 135.6990490  28.5258410  77.9142030
 135.6085450  38.3446920  84.9115910 136.3447930  37.7962380  85.1824480
 135.9926370  39.2102930  84.7721900 132.4930930  34.4120490  80.7857420
 131.5670710  34.6541630  80.7762830 132.9587360  35.2394750  80.6642170
 134.6143730  37.5292990  94.1001490 135.4156460  37.8505040  94.5136890
 134.0995550  37.1688570  94.8221400 138.7187760  37.5177230  76.7341480
 139.5116370  37.8066060  76.2823270 138.1992110  37.0869400  76.0553960
 143.4508360  33.6372860  94.0476900 142.8446520  33.6604460  93.3072650
 143.1462470  32.9055900  94.5844150 144.8808730  37.3653150  92.6586310
 145.8330480  37.2811170  92.6086550 144.7336950  38.0294860  93.3320100
 147.7717930  36.7447360  78.1578220 147.4859440  36.3312500  77.3432400
 147.5737480  37.6735070  78.0378740 132.3341540  30.0166450  93.0437540
 132.8380560  29.4373730  93.6153770 131.5948960  30.3006680  93.5813910
 139.2365160  32.7380640  76.5983830 139.1315800  32.1232990  77.3245210
 139.0689380  32.2146530  75.8146840 139.3879480  31.4237440  92.5773060
 138.6225150  31.9922440  92.4927730 139.5695440  31.1313650  91.6841290
 142.4767890  31.8000670  77.2025820 141.9277990  32.2469970  77.8468560
 143.0987150  31.2949920  77.7263490 146.5302830  33.1542770  93.1348080
 147.2712300  33.4918530  92.6315540 145.7675510  33.3234830  92.5817850
 134.3664620  28.1596040  93.9387610 134.4069960  27.8609910  94.8472840
 135.2210120  28.5603650  93.7795130 138.1443010  30.7591590  79.0991120
 138.5659430  30.5931460  79.9422510 138.2693850  29.9491820  78.6046260
 136.3070430  26.7388140  91.9062100 135.7766890  26.2479090  91.2785440
 136.9758500  27.1672340  91.3720030 140.6570650  29.7829200  76.3468220
 141.1776310  29.0678220  75.9809370 141.3039050  30.4215070  76.6468730
 145.2048490  31.2057600  91.6703290 145.6189510  31.3602680  92.5193710
 144.2699490  31.3312820  91.8329070 145.6770660  28.5453760  93.6742440
 146.2591430  27.7906080  93.5862920 145.8532430  29.0761200  92.8973920
 136.7942730  23.7050510  91.9859390 136.6999600  23.0871260  91.2610260
 136.2140120  24.4316800  91.7589300 139.5604170  22.2623750  89.0186780
 139.1121470  22.2848010  88.1732330 138.9269370  21.8642770  89.6157080
 139.9663720  31.1578080  89.6399220 140.3851830  32.0010810  89.4675460
 139.0472350  31.2950120  89.4106000 142.3027620  28.8894260  91.0237060
 142.4223830  28.2935400  91.7631900 143.1621620  28.9263950  90.6038360
 144.6415520  29.4431450  89.5999570 144.1150740  29.9674070  88.9964710
 144.9846860  30.0758840  90.2309300 137.0401910  26.8324820  76.0449280
 136.8390970  25.9692180  76.4062620 136.8693960  26.7458180  75.1070880
 137.8171140  37.4631090  90.7556950 137.2792230  38.1877150  90.4365650
 138.0705100  36.9861430  89.9654290 139.0696390  25.4315610  92.2812880
 139.6596080  25.1231460  92.9690700 138.2516630  24.9595360  92.4372780
 143.8889820  25.0481420  92.5145900 143.2005340  24.3862960  92.4495890
 144.6095840  24.6019690  92.9594360 144.5190220  21.6433050  78.5736160
 144.7992510  20.8000950  78.9295580 143.7455950  21.8756160  79.0874910
 135.8384710  23.9325440  76.0327160 136.1410610  23.9392870  75.1246310
 136.5779300  23.5823300  76.5294820 140.6733350  38.6982300  91.0143600
 140.5992050  39.6017440  91.3215970 139.7712190  38.3794200  90.9865670
 139.0569640  22.8760060  77.0183360 138.7091640  22.1984050  76.4385810
 139.2582410  22.4149570  77.8326750 141.2218680  37.8640810  78.6369960
 142.1169470  38.2025780  78.6588720 141.2536310  37.1420220  78.0094240
 134.8614840  33.2367860  76.8656960 135.2989710  33.7797530  77.5214540
 135.3462570  32.4114810  76.8753300 132.0760640  36.0256890  84.3177220
 132.4063650  35.1577950  84.0855860 132.5051640  36.2315410  85.1482180
 136.6722560  34.3565900  81.9779190 136.3718100  34.2330870  82.8783100
 136.5660050  33.4974490  81.5694920 132.5650850  36.8927480  87.0558850
 132.1281840  37.0728280  87.8883000 133.1328530  37.6502100  86.9140570
 148.2013030  36.3944480  91.3436160 147.6015020  36.4537040  90.6000080
 148.3306930  35.4549460  91.4733010 132.3975280  29.4047710  83.4147730
 131.7424120  29.1359350  82.7707430 133.2353230  29.2952190  82.9649710
 146.8864670  33.1196460  89.4412320 146.0724510  33.5493620  89.7038110
 147.2938870  33.7314870  88.8281370 145.3465720  24.1989000  77.6366220
 145.7650600  24.0119980  76.7962880 145.0401780  23.3468050  77.9469150
 133.4351210  29.7900280  87.9551070 133.8024250  29.7027680  88.8347090
 132.8662030  29.0266830  87.8557930 148.2355070  28.2584660  90.9681540
 148.0041160  28.0297410  90.0679490 148.4959620  29.1784210  90.9226430
 132.9867210  26.7009370  91.8609490 132.0923260  26.6676130  92.2003200
 133.5264760  26.8996160  92.6260740 146.6743140  23.4841090  93.7461240
 147.5513320  23.4924490  94.1295240 146.6863980  22.7471930  93.1353590
 131.6113360  26.6146640  79.3573060 130.7077440  26.8776840  79.1824720
 132.0953980  26.8857810  78.5773020 148.2996130  27.4210500  88.1568810
 147.3498840  27.3874040  88.2713800 148.4809140  28.3310610  87.9218580
 134.1540570  25.6712180  77.2667440 134.8632270  25.2495400  76.7814720
 133.4380510  25.7387410  76.6350790 133.8014730  21.7251510  76.3070090
 134.5242860  22.2660450  76.6251310 134.0739250  21.4514930  75.4311630
 147.6106380  26.5943980  80.5741670 148.1065500  26.3614850  81.3590550
 147.4122450  25.7555820  80.1579310 133.4906920  20.9757700  86.2092710
 134.1383110  20.4255080  85.7687870 133.9108760  21.2300850  87.0308520
 147.3859260  21.1699060  89.5662350 148.0231480  21.7833200  89.9321540
 147.5334150  21.2059720  88.6211580 146.9440720  37.8715060  82.9680590
 147.5399790  37.5499630  82.2915010 147.2018870  37.3986880  83.7593860
 133.2438920  21.1313370  88.9518030 132.8953740  21.5877190  89.7176210
 132.9126620  20.2370500  89.0340460 134.8503290  34.3032970  93.1171220
 134.8072920  33.9325880  93.9985680 134.9814300  35.2410540  93.2573040
 138.5509320  35.8592560  88.7180940 138.3100680  36.1267120  87.8311460
 139.4911960  36.0298290  88.7731800 140.7563740  22.3225250  92.4737450
 140.6952630  22.9147080  93.2232860 141.6964120  22.2151210  92.3287710
 143.3938300  21.9795310  92.1129740 144.0078710  22.2974600  91.4510820
 143.9387860  21.4943900  92.7325600 133.9159560  20.6589570  92.2268800
 134.4642550  20.4777620  91.4634910 133.9814870  19.8683680  92.7625110
 134.6891320  37.2495220  90.2369000 134.0951640  37.1179920  90.9759040
 134.6815160  36.4133360  89.7711100 144.1346340  20.5427450  88.4399030
 143.2606180  20.8762560  88.2371960 144.0257090  20.0700630  89.2650900
 145.0418320  22.7498320  89.8240750 144.7131680  21.9350080  89.4442480
 145.9900620  22.7068130  89.7006440 147.4952930  38.5210360  86.7978320
 147.0355900  39.2726170  86.4236340 146.8665390  37.8016830  86.7393120
 134.3203550  34.6153600  89.1877040 133.5937610  33.9958890  89.1202990
 134.3812700  35.0094210  88.3175120 137.9248650  36.8298600  85.9726450
 138.4413670  36.2185960  85.4474710 138.5746030  37.3327380  86.4637460
 140.6644150  37.7207090  86.7995430 140.9521960  37.4661390  85.9228440
 141.1767370  37.1684450  87.3901000 141.8821160  21.4597290  87.3791940
 141.0992950  21.9342790  87.6588700 141.5884090  20.5552120  87.2705120
 146.4342230  22.1620390  85.4241030 146.8750320  22.1065490  84.5762630
 146.1649820  23.0778400  85.4951210 132.6033550  37.9327990  82.3973800
 132.4355590  37.2998670  83.0955690 131.7368060  38.1387390  82.0467990
 133.2261570  21.7644770  79.9005660 133.9840930  21.8773650  79.3269690
 132.7638740  22.6013970  79.8549090 139.7675380  23.8784040  82.8907970
 138.9549890  23.5040930  82.5503850 140.2717020  23.1229120  83.1929160
 144.2700360  20.5426490  84.1291040 144.8729730  21.1146700  84.6039560
 143.5293350  21.1065930  83.9064940 147.4134960  20.9448050  79.4031320
 147.6085590  21.8431500  79.6698750 146.6264830  20.7135130  79.8964270
 134.2096250  36.6261220  79.8423940 133.6843870  37.0069250  79.1385900
 134.1340830  37.2511990  80.5633650 135.5986720  22.2908820  78.4407630
 136.1279480  21.5038620  78.3115580 136.2315040  22.9700010  78.6743160
 137.7924560  22.0283960  81.4953020 137.1627300  21.3271270  81.6623150
 137.2529700  22.7888090  81.2786180 140.7316510  38.6423190  94.1663630
 141.6583820  38.4067460  94.2099590 140.7166940  39.4695190  93.6849660
 137.9180120  21.3067940  93.9305510 137.6364390  21.8101540  93.1666330
 138.2999820  20.5089690  93.5647640 136.8089220  38.5743600  78.7173190
 137.5408040  38.2902880  78.1697080 137.0682890  38.3356880  79.6072570
 135.9704010  34.6908330  78.7219520 135.3412890  35.1593430  79.2705350
 136.0851840  33.8457550  79.1565710 144.5195580  20.7221520  94.5085980
 144.4061030  21.0416130  95.4037500 145.3365320  21.1234030  94.2123260
 147.2994070  37.8693050  93.9904670 148.0919390  37.3742280  93.7830630
 147.5927220  38.5483190  94.5980280 143.4253730  28.7413990  64.8720720
 143.3447780  27.8268600  64.6012430 143.0118150  29.2381060  64.1660430
 141.5571770  30.5193010  66.7529990 140.7813870  30.0393450  67.0428560
 142.2084700  29.8398660  66.5786150 135.5737600  30.8312820  67.6305750
 134.7422480  30.5761530  68.0302260 136.1818580  30.9023590  68.3663670
 145.5779200  34.9253200  65.5329120 145.1160730  34.1540440  65.8616290
 146.3904750  34.9519270  66.0381570 135.5538860  34.8652910  67.8263770
 135.8566900  33.9750650  67.6473990 136.2982450  35.4223130  67.5986020
 133.9829550  25.7914710  61.4148140 133.0946250  26.1330680  61.3128020
 134.2670740  25.5915030  60.5228970 131.9462560  28.3920360  67.2987840
 132.5178670  27.6242560  67.2991480 131.9464100  28.6909120  66.3894450
 141.8042510  37.2111210  65.1533110 141.1853950  37.6668710  64.5827550
 142.6594290  37.3662670  64.7522810 140.9980760  33.1950200  66.7600150
 140.9289040  32.2540140  66.5989280 141.7600620  33.2851610  67.3322720
 133.1887430  23.8004720  69.0856770 133.0090270  22.9030470  69.3659530
 132.7867510  24.3476590  69.7603720 142.0285930  26.0020580  66.9869080
 142.4050750  25.1292460  66.8742750 141.9305440  26.3379280  66.0959520
 136.1590940  24.3746210  62.4486520 136.2657690  25.2749940  62.7555280
 135.2483300  24.3264180  62.1581170 145.8110050  23.4971020  63.9197420
 146.6319670  23.0067590  63.9622900 145.8444130  24.0868680  64.6729260
 133.8074100  26.2965220  67.6939110 134.4884210  26.5603590  68.3126510
 133.4922150  25.4566090  68.0277120 137.9998670  27.3432580  66.7811700
 138.5076890  27.8413550  67.4216720 138.5311910  26.5667780  66.6051060
 136.2834770  21.9831140  71.0475120 136.2853210  22.5003530  70.2421020
 135.4539080  21.5061320  71.0245050 142.6705860  32.0950450  62.5465020
 142.0523130  32.5599900  61.9827740 143.1829110  32.7877930  62.9634530
 137.5337620  31.6226320  69.2248620 137.2007000  32.2495240  69.8669690
 137.7104300  32.1488200  68.4450290 146.0471530  25.4371400  66.6924960
 145.3427100  25.7256290  67.2728070 146.4083690  26.2471510  66.3324520
 135.9650100  23.6941100  69.0545570 136.3066910  24.5383150  68.7599440
 135.0265910  23.8424840  69.1710910 136.7456720  33.5907120  71.0397800
 137.3630720  34.2658200  70.7582250 135.8849840  33.9995100  70.9485300
 132.0389060  32.7806980  59.9204650 131.6617040  33.2694080  59.1889550
 132.2962130  33.4532260  60.5511180 147.6634310  35.0546530  68.9552440
 146.9797830  35.7245640  68.9469110 148.2028600  35.2527180  68.1897300
 139.6477990  21.1823370  65.3790160 139.9552970  20.6270260  64.6625660
 138.7178690  21.3167830  65.1963150 145.1993050  36.8990660  67.6697620
 145.2120210  36.4952950  66.8019880 144.6468270  37.6737950  67.5659050
 146.4938470  33.6206880  62.7587790 146.3834800  32.6781210  62.8837210
 146.4906720  33.9822520  63.6450550 144.5978490  31.8020500  68.9980230
 145.0147280  31.5880610  68.1633690 145.3218310  32.0593290  69.5688850
 142.0358750  29.2472200  62.1150280 141.1088030  29.1809580  62.3438750
 142.1883570  30.1852330  62.0005520 142.0227830  25.5189200  59.1117440
 141.0831500  25.6803160  59.1969900 142.3411090  26.2374880  58.5653430
 146.0656040  30.8092500  62.6185530 145.4468460  30.4712050  61.9711830
 146.0480490  30.1652260  63.3264720 145.5082600  26.9877040  70.0351340
 145.0953780  27.8130750  70.2891330 144.7758550  26.4022080  69.8427700
 137.6415390  29.7736940  64.8970010 137.2372390  29.0614190  64.4015910
 137.7278510  29.4290180  65.7858050 138.1097090  33.4604500  67.0609220
 137.8125380  32.8549970  66.3817000 139.0596910  33.4981810  66.9498580
 136.3544010  26.5480150  68.6769050 136.9058600  26.6575490  67.9022300
 136.8687520  26.9217750  69.3924280 146.1982700  37.0336370  70.7232320
 145.7213260  37.8408560  70.5304930 145.5144490  36.3814700  70.8758530
 137.2015520  33.1986190  73.7117020 136.3044050  33.4226160  73.9590420
 137.2268390  33.3221130  72.7628420 144.2420740  30.0479310  59.6258280
 144.6814020  29.2101740  59.4796100 144.9549160  30.6808710  59.7122420
 136.0286740  30.0699510  72.2874390 135.8894510  30.9422310  72.6561790
 135.1468100  29.7272320  72.1422330 142.3516120  34.9875380  63.5939520
 142.7912030  35.7299710  63.1794910 142.2903010  35.2301950  64.5178480
 137.8267090  36.0121210  74.4959540 137.7982520  36.4164160  73.6287970
 137.6632060  35.0831570  74.3331140 147.8237880  21.3022120  57.9399320
 147.5110540  21.3948950  58.8398390 148.5850350  21.8803150  57.8896750
 134.3420020  28.6681920  62.3976660 134.2217620  29.3944010  61.7857930
 134.0320910  27.8984830  61.9204570 131.9805390  31.8397060  68.2045300
 132.0585810  31.9745830  67.2601020 132.5947070  31.1312950  68.3973420
 133.2253020  33.5397250  64.6151480 132.8181100  33.6811840  63.7605080
 134.1166030  33.2557410  64.4122690 143.0431900  37.6889160  71.5218530
 143.5576570  37.5997170  72.3240960 142.2000980  38.0348860  71.8146440
 145.0186300  37.9744500  60.9502530 144.8587440  37.6847440  61.8484360
 144.8533010  37.1984630  60.4147760 137.4974680  37.7543030  62.7274150
 137.3217160  36.8378570  62.5141950 136.6430420  38.1130320  62.9671950
 144.7212430  35.4832060  59.5100530 144.0277590  35.4809350  58.8502810
 145.4635290  35.0591380  59.0794700 144.2862360  37.1094770  63.5849020
 144.7419310  36.3284150  63.8987640 144.6254880  37.8201590  64.1290200
 132.0364910  32.8811230  70.7439760 132.1995950  32.4116590  69.9259130
 132.5017360  32.3734790  71.4088600 136.8083680  22.0116990  65.7800330
 136.3651830  22.7926530  65.4484850 137.3668670  22.3346880  66.4871270
 141.0953490  24.8785510  71.3835650 140.6332860  25.0868530  72.1955590
 140.6931600  24.0644860  71.0806320 146.0958000  26.0994460  72.5132310
 145.2451590  25.8000210  72.8341380 145.9359790  26.3436470  71.6016130
 143.1907710  27.5996210  74.6131100 143.5161120  26.7659960  74.2733330
 143.9788040  28.1224730  74.7609430 139.9242500  21.6327690  60.6606160
 139.2996680  21.6287560  61.3859470 139.8372620  20.7658650  60.2642130
 138.8459580  22.5564320  67.6389930 139.1431910  23.4627150  67.5581950
 139.3945140  22.0683100  67.0249500 136.5997900  27.1350560  63.5081580
 136.3738820  26.9187730  64.4128200 135.8190430  27.5679020  63.1627550
 143.8295660  27.1413930  62.1072230 143.2304550  27.8649730  61.9235850
 144.3775270  27.0790710  61.3248680 139.0397110  28.0336140  74.1741850
 138.9440710  27.0930870  74.0242250 139.8829090  28.2551210  73.7789920
 142.4360530  25.7777470  64.1375510 142.8290100  26.0949670  63.3244200
 142.7977380  24.8989350  64.2520030 134.1707650  24.4449810  72.3275630
 133.7771040  25.2925020  72.5348410 133.4826050  23.8076180  72.5184270
 140.7452700  24.5284780  75.3972370 140.0551020  24.3356980  76.0318460
 141.4885000  24.8119420  75.9296670 131.4724700  22.3678270  66.3605710
 131.1837750  22.9381130  67.0730690 132.2170460  21.8882720  66.7236940
 131.6594930  26.3098390  57.5708430 131.5769600  27.2529150  57.7123420
 131.3077990  26.1673300  56.6920780 143.0215670  28.3683220  68.2326290
 142.2896790  28.8770030  68.5816390 142.6240010  27.5513200  67.9315070
 139.4593060  25.0437420  66.6378780 139.4629120  24.6027370  65.7883320
 140.3544180  25.3654750  66.7450600 135.3095440  24.9263910  65.5972990
 134.9695490  25.4039140  66.3540040 134.5472760  24.4729030  65.2374090
 139.5213210  26.0449500  59.6285540 139.6426030  26.0035980  60.5771360
 139.1361720  26.9073650  59.4732270 143.4841580  23.8216900  67.6449230
 143.5014320  24.2725550  68.4891080 143.2357160  22.9222540  67.8582670
 138.5334710  28.3550640  59.0268840 137.9651610  27.9068890  58.4004750
 139.2423710  28.7143420  58.4933990 146.9112330  21.2349080  73.4835610
 147.2358100  20.5038740  74.0093590 146.9468840  20.9162720  72.5816600
 133.6103890  32.2562660  72.9035570 133.2258680  31.6156330  73.5018530
 133.9216080  32.9598780  73.4730300 139.7601030  29.1039200  68.3844190
 140.1271160  28.6297770  69.1305530 139.5706090  29.9780770  68.7252530
 132.6241520  23.8482890  64.5137660 132.3388440  23.4838560  65.3516280
 132.5620380  23.1163350  63.9000800 137.5500400  28.1447840  70.7028400
 137.2457470  29.0239820  70.9278760 138.5046860  28.2047630  70.7385840
 136.0782190  32.3508830  61.2995250 135.3044450  31.8106450  61.1393970
 136.8076820  31.8315440  60.9613010 146.8370170  31.3474190  67.0921640
 147.5569290  31.8429480  66.7017750 146.6351990  30.6692080  66.4475510
 142.2980110  22.7412150  61.2351030 141.4844720  22.2425320  61.1596340
 142.1042060  23.5810400  60.8187380 142.2188970  31.4183250  72.9790640
 142.1526280  30.4978920  72.7248230 141.5894110  31.5158690  73.6935280
 145.0128500  27.1131800  59.5313190 145.9008120  27.4249030  59.3564530
 144.9833590  26.2404050  59.1393770 136.1219590  32.0189210  64.9374060
 136.6398260  31.2157470  64.8830950 135.6703610  31.9568350  65.7790890
 141.0089090  33.2855490  60.2101360 141.3504790  34.0297720  59.7144680
 140.1801800  33.5986610  60.5726190 133.6064130  28.9850580  71.8499760
 133.2479070  29.6504430  72.4373100 133.3118690  28.1534130  72.2212380
 136.8077250  29.4434820  74.7339310 136.5077390  29.5892000  73.8367130
 137.5788490  28.8840110  74.6412700 142.1505700  34.2403820  72.7294440
 142.1650240  33.3084780  72.5113350 141.4430800  34.3263580  73.3684210
 147.2842770  28.4243640  58.9993050 147.2006490  28.8557860  58.1489490
 148.0036960  28.8841990  59.4319870 148.3130020  35.2785900  61.7275180
 147.6706180  34.6241520  62.0018900 147.9260680  35.6840990  60.9515850
 143.8916500  32.6071330  65.5746870 144.2440320  32.0099460  64.9148240
 143.0078830  32.2815560  65.7455120 139.9779780  33.3669020  62.9817280
 140.6650910  33.9138230  63.3624870 139.1912200  33.9109750  63.0166890
 132.1172180  28.9841840  58.4734360 132.9867030  29.2666640  58.7570280
 131.6262500  29.7977710  58.3583170 139.2806990  30.3715050  62.5942640
 139.7369770  31.1820300  62.8202830 138.9295200  30.0538190  63.4261130
 141.5839600  35.8821390  69.8234940 142.2281820  36.0880770  70.5008360
 141.9469040  35.1209790  69.3705790 135.1818770  20.7152700  63.0665160
 135.0533400  20.7070600  64.0150080 134.3580790  21.0535790  62.7156170
 142.8571680  33.8853740  68.5412390 143.4993910  33.1846900  68.6544560
 143.3821030  34.6652180  68.3609280 146.7027400  34.1702360  58.2651530
 146.4764980  33.4532800  58.8576170 146.3123600  33.9214800  57.4273280
 144.6309300  34.6848640  71.7448450 144.9665540  35.2715330  72.4226370
 143.7109640  34.5541350  71.9746240 132.4843430  38.1969220  59.0395990
 132.8441070  38.7958560  58.3853260 132.3435770  38.7429110  59.8131020
 132.1812700  22.4743820  72.5271860 131.4671220  22.6740740  73.1324470
 132.6007740  21.6983390  72.8986660 146.2843650  32.0874300  59.9265690
 145.9965350  32.5486990  60.7143570 147.0795820  31.6272070  60.1949910
 132.4685290  36.4624080  73.5138390 132.5776410  35.5218820  73.3733780
 131.8165850  36.7278830  72.8652120 140.4597880  34.7339970  74.9136510
 140.1394750  34.0149210  75.4582200 139.7856240  35.4095040  74.9872570
 138.5012050  35.5800420  59.8569660 138.4922150  36.3130110  59.2414170
 137.5810410  35.3332000  59.9496620 134.1018690  30.8015310  60.6016420
 133.4946640  31.5414210  60.6111720 134.5768040  30.8914670  59.7754620
 143.6751480  24.9666130  70.2773310 144.0432300  24.1461340  70.6052880
 142.8149680  25.0268020  70.6928960 147.0413510  23.9223070  61.0860870
 146.4126670  24.0268740  60.3719100 146.5465430  24.1419850  61.8754750
 141.4871650  35.6428660  58.5194850 141.5883630  35.4392650  57.5896830
 140.5873390  35.3886940  58.7242630 139.0097540  26.2009020  62.5018750
 138.3013690  26.6695360  62.9432360 139.2942020  25.5431030  63.1363940
 140.6353470  27.6205720  70.5011280 141.1338720  28.0951540  71.1663130
 140.7776420  26.6969240  70.7081310 143.0412970  22.9259680  63.9414540
 142.9180750  22.9445810  62.9924050 143.9897530  22.9738620  64.0612940
 140.1289760  38.1614980  63.2142520 140.3831260  38.1236370  62.2921890
 139.1802240  38.0348310  63.2070770 137.2132560  24.5094100  59.8769460
 138.0623090  24.9464250  59.8109650 136.8463830  24.8214360  60.7041520
 147.8420330  23.8373680  71.3439670 147.3393930  24.5779080  71.6833480
 148.6576990  24.2257680  71.0276460 146.1342340  29.0806860  64.7901030
 145.1932480  29.0957090  64.9648720 146.4486410  28.2942820  65.2361330
 136.1123980  30.7626460  58.3504990 136.8787250  30.6507820  58.9130420
 136.1898670  30.0664430  57.6981760 134.8070740  28.1951530  59.0337880
 134.8874330  27.2479040  59.1455280 135.6990490  28.5258410  59.1398540
 135.6085450  38.3446920  66.1372420 136.3447930  37.7962380  66.4080990
 135.9926370  39.2102930  65.9978410 132.4930930  34.4120490  62.0113930
 131.5670710  34.6541630  62.0019340 132.9587360  35.2394750  61.8898680
 134.6143730  37.5292990  75.3258000 135.4156460  37.8505040  75.7393400
 134.0995550  37.1688570  76.0477910 138.7187760  37.5177230  57.9597990
 139.5116370  37.8066060  57.5079780 138.1992110  37.0869400  57.2810470
 143.4508360  33.6372860  75.2733410 142.8446520  33.6604460  74.5329160
 143.1462470  32.9055900  75.8100660 144.8808730  37.3653150  73.8842820
 145.8330480  37.2811170  73.8343060 144.7336950  38.0294860  74.5576610
 147.7717930  36.7447360  59.3834730 147.4859440  36.3312500  58.5688910
 147.5737480  37.6735070  59.2635250 132.3341540  30.0166450  74.2694050
 132.8380560  29.4373730  74.8410280 131.5948960  30.3006680  74.8070420
 139.2365160  32.7380640  57.8240340 139.1315800  32.1232990  58.5501720
 139.0689380  32.2146530  57.0403350 139.3879480  31.4237440  73.8029570
 138.6225150  31.9922440  73.7184240 139.5695440  31.1313650  72.9097800
 142.4767890  31.8000670  58.4282330 141.9277990  32.2469970  59.0725070
 143.0987150  31.2949920  58.9520000 146.5302830  33.1542770  74.3604590
 147.2712300  33.4918530  73.8572050 145.7675510  33.3234830  73.8074360
 134.3664620  28.1596040  75.1644120 134.4069960  27.8609910  76.0729350
 135.2210120  28.5603650  75.0051640 138.1443010  30.7591590  60.3247630
 138.5659430  30.5931460  61.1679020 138.2693850  29.9491820  59.8302770
 136.3070430  26.7388140  73.1318610 135.7766890  26.2479090  72.5041950
 136.9758500  27.1672340  72.5976540 140.6570650  29.7829200  57.5724730
 141.1776310  29.0678220  57.2065880 141.3039050  30.4215070  57.8725240
 145.2048490  31.2057600  72.8959800 145.6189510  31.3602680  73.7450220
 144.2699490  31.3312820  73.0585580 145.6770660  28.5453760  74.8998950
 146.2591430  27.7906080  74.8119430 145.8532430  29.0761200  74.1230430
 136.7942730  23.7050510  73.2115900 136.6999600  23.0871260  72.4866770
 136.2140120  24.4316800  72.9845810 139.5604170  22.2623750  70.2443290
 139.1121470  22.2848010  69.3988840 138.9269370  21.8642770  70.8413590
 139.9663720  31.1578080  70.8655730 140.3851830  32.0010810  70.6931970
 139.0472350  31.2950120  70.6362510 142.3027620  28.8894260  72.2493570
 142.4223830  28.2935400  72.9888410 143.1621620  28.9263950  71.8294870
 144.6415520  29.4431450  70.8256080 144.1150740  29.9674070  70.2221220
 144.9846860  30.0758840  71.4565810 137.0401910  26.8324820  57.2705790
 136.8390970  25.9692180  57.6319130 136.8693960  26.7458180  56.3327390
 137.8171140  37.4631090  71.9813460 137.2792230  38.1877150  71.6622160
 138.0705100  36.9861430  71.1910800 139.0696390  25.4315610  73.5069390
 139.6596080  25.1231460  74.1947210 138.2516630  24.9595360  73.6629290
 143.8889820  25.0481420  73.7402410 143.2005340  24.3862960  73.6752400
 144.6095840  24.6019690  74.1850870 144.5190220  21.6433050  59.7992670
 144.7992510  20.8000950  60.1552090 143.7455950  21.8756160  60.3131420
 135.8384710  23.9325440  57.2583670 136.1410610  23.9392870  56.3502820
 136.5779300  23.5823300  57.7551330 140.6733350  38.6982300  72.2400110
 140.5992050  39.6017440  72.5472480 139.7712190  38.3794200  72.2122180
 139.0569640  22.8760060  58.2439870 138.7091640  22.1984050  57.6642320
 139.2582410  22.4149570  59.0583260 141.2218680  37.8640810  59.8626470
 142.1169470  38.2025780  59.8845230 141.2536310  37.1420220  59.2350750
 134.8614840  33.2367860  58.0913470 135.2989710  33.7797530  58.7471050
 135.3462570  32.4114810  58.1009810 132.0760640  36.0256890  65.5433730
 132.4063650  35.1577950  65.3112370 132.5051640  36.2315410  66.3738690
 136.6722560  34.3565900  63.2035700 136.3718100  34.2330870  64.1039610
 136.5660050  33.4974490  62.7951430 132.5650850  36.8927480  68.2815360
 132.1281840  37.0728280  69.1139510 133.1328530  37.6502100  68.1397080
 148.2013030  36.3944480  72.5692670 147.6015020  36.4537040  71.8256590
 148.3306930  35.4549460  72.6989520 132.3975280  29.4047710  64.6404240
 131.7424120  29.1359350  63.9963940 133.2353230  29.2952190  64.1906220
 146.8864670  33.1196460  70.6668830 146.0724510  33.5493620  70.9294620
 147.2938870  33.7314870  70.0537880 145.3465720  24.1989000  58.8622730
 145.7650600  24.0119980  58.0219390 145.0401780  23.3468050  59.1725660
 133.4351210  29.7900280  69.1807580 133.8024250  29.7027680  70.0603600
 132.8662030  29.0266830  69.0814440 148.2355070  28.2584660  72.1938050
 148.0041160  28.0297410  71.2936000 148.4959620  29.1784210  72.1482940
 132.9867210  26.7009370  73.0866000 132.0923260  26.6676130  73.4259710
 133.5264760  26.8996160  73.8517250 146.6743140  23.4841090  74.9717750
 147.5513320  23.4924490  75.3551750 146.6863980  22.7471930  74.3610100
 131.6113360  26.6146640  60.5829570 130.7077440  26.8776840  60.4081230
 132.0953980  26.8857810  59.8029530 148.2996130  27.4210500  69.3825320
 147.3498840  27.3874040  69.4970310 148.4809140  28.3310610  69.1475090
 134.1540570  25.6712180  58.4923950 134.8632270  25.2495400  58.0071230
 133.4380510  25.7387410  57.8607300 133.8014730  21.7251510  57.5326600
 134.5242860  22.2660450  57.8507820 134.0739250  21.4514930  56.6568140
 147.6106380  26.5943980  61.7998180 148.1065500  26.3614850  62.5847060
 147.4122450  25.7555820  61.3835820 133.4906920  20.9757700  67.4349220
 134.1383110  20.4255080  66.9944380 133.9108760  21.2300850  68.2565030
 147.3859260  21.1699060  70.7918860 148.0231480  21.7833200  71.1578050
 147.5334150  21.2059720  69.8468090 146.9440720  37.8715060  64.1937100
 147.5399790  37.5499630  63.5171520 147.2018870  37.3986880  64.9850370
 133.2438920  21.1313370  70.1774540 132.8953740  21.5877190  70.9432720
 132.9126620  20.2370500  70.2596970 134.8503290  34.3032970  74.3427730
 134.8072920  33.9325880  75.2242190 134.9814300  35.2410540  74.4829550
 138.5509320  35.8592560  69.9437450 138.3100680  36.1267120  69.0567970
 139.4911960  36.0298290  69.9988310 140.7563740  22.3225250  73.6993960
 140.6952630  22.9147080  74.4489370 141.6964120  22.2151210  73.5544220
 143.3938300  21.9795310  73.3386250 144.0078710  22.2974600  72.6767330
 143.9387860  21.4943900  73.9582110 133.9159560  20.6589570  73.4525310
 134.4642550  20.4777620  72.6891420 133.9814870  19.8683680  73.9881620
 134.6891320  37.2495220  71.4625510 134.0951640  37.1179920  72.2015550
 134.6815160  36.4133360  70.9967610 144.1346340  20.5427450  69.6655540
 143.2606180  20.8762560  69.4628470 144.0257090  20.0700630  70.4907410
 145.0418320  22.7498320  71.0497260 144.7131680  21.9350080  70.6698990
 145.9900620  22.7068130  70.9262950 147.4952930  38.5210360  68.0234830
 147.0355900  39.2726170  67.6492850 146.8665390  37.8016830  67.9649630
 134.3203550  34.6153600  70.4133550 133.5937610  33.9958890  70.3459500
 134.3812700  35.0094210  69.5431630 137.9248650  36.8298600  67.1982960
 138.4413670  36.2185960  66.6731220 138.5746030  37.3327380  67.6893970
 140.6644150  37.7207090  68.0251940 140.9521960  37.4661390  67.1484950
 141.1767370  37.1684450  68.6157510 141.8821160  21.4597290  68.6048450
 141.0992950  21.9342790  68.8845210 141.5884090  20.5552120  68.4961630
 146.4342230  22.1620390  66.6497540 146.8750320  22.1065490  65.8019140
 146.1649820  23.0778400  66.7207720 132.6033550  37.9327990  63.6230310
 132.4355590  37.2998670  64.3212200 131.7368060  38.1387390  63.2724500
 133.2261570  21.7644770  61.1262170 133.9840930  21.8773650  60.5526200
 132.7638740  22.6013970  61.0805600 139.7675380  23.8784040  64.1164480
 138.9549890  23.5040930  63.7760360 140.2717020  23.1229120  64.4185670
 144.2700360  20.5426490  65.3547550 144.8729730  21.1146700  65.8296070
 143.5293350  21.1065930  65.1321450 147.4134960  20.9448050  60.6287830
 147.6085590  21.8431500  60.8955260 146.6264830  20.7135130  61.1220780
 134.2096250  36.6261220  61.0680450 133.6843870  37.0069250  60.3642410
 134.1340830  37.2511990  61.7890160 135.5986720  22.2908820  59.6664140
 136.1279480  21.5038620  59.5372090 136.2315040  22.9700010  59.8999670
 137.7924560  22.0283960  62.7209530 137.1627300  21.3271270  62.8879660
 137.2529700  22.7888090  62.5042690 140.7316510  38.6423190  75.3920140
 141.6583820  38.4067460  75.4356100 140.7166940  39.4695190  74.9106170
 137.9180120  21.3067940  75.1562020 137.6364390  21.8101540  74.3922840
 138.2999820  20.5089690  74.7904150 136.8089220  38.5743600  59.9429700
 137.5408040  38.2902880  59.3953590 137.0682890  38.3356880  60.8329080
 135.9704010  34.6908330  59.9476030 135.3412890  35.1593430  60.4961860
 136.0851840  33.8457550  60.3822220 144.5195580  20.7221520  75.7342490
 144.4061030  21.0416130  76.6294010 145.3365320  21.1234030  75.4379770
 147.2994070  37.8693050  75.2161180 148.0919390  37.3742280  75.0087140
 147.5927220  38.5483190  75.8236790 143.4253730  28.7413990  46.0977230
 143.3447780  27.8268600  45.8268940 143.0118150  29.2381060  45.3916940
 141.5571770  30.5193010  47.9786500 140.7813870  30.0393450  48.2685070
 142.2084700  29.8398660  47.8042660 135.5737600  30.8312820  48.8562260
 134.7422480  30.5761530  49.2558770 136.1818580  30.9023590  49.5920180
 145.5779200  34.9253200  46.7585630 145.1160730  34.1540440  47.0872800
 146.3904750  34.9519270  47.2638080 135.5538860  34.8652910  49.0520280
 135.8566900  33.9750650  48.8730500 136.2982450  35.4223130  48.8242530
 133.9829550  25.7914710  42.6404650 133.0946250  26.1330680  42.5384530
 134.2670740  25.5915030  41.7485480 131.9462560  28.3920360  48.5244350
 132.5178670  27.6242560  48.5247990 131.9464100  28.6909120  47.6150960
 141.8042510  37.2111210  46.3789620 141.1853950  37.6668710  45.8084060
 142.6594290  37.3662670  45.9779320 140.9980760  33.1950200  47.9856660
 140.9289040  32.2540140  47.8245790 141.7600620  33.2851610  48.5579230
 133.1887430  23.8004720  50.3113280 133.0090270  22.9030470  50.5916040
 132.7867510  24.3476590  50.9860230 142.0285930  26.0020580  48.2125590
 142.4050750  25.1292460  48.0999260 141.9305440  26.3379280  47.3216030
 136.1590940  24.3746210  43.6743030 136.2657690  25.2749940  43.9811790
 135.2483300  24.3264180  43.3837680 145.8110050  23.4971020  45.1453930
 146.6319670  23.0067590  45.1879410 145.8444130  24.0868680  45.8985770
 133.8074100  26.2965220  48.9195620 134.4884210  26.5603590  49.5383020
 133.4922150  25.4566090  49.2533630 137.9998670  27.3432580  48.0068210
 138.5076890  27.8413550  48.6473230 138.5311910  26.5667780  47.8307570
 136.2834770  21.9831140  52.2731630 136.2853210  22.5003530  51.4677530
 135.4539080  21.5061320  52.2501560 142.6705860  32.0950450  43.7721530
 142.0523130  32.5599900  43.2084250 143.1829110  32.7877930  44.1891040
 137.5337620  31.6226320  50.4505130 137.2007000  32.2495240  51.0926200
 137.7104300  32.1488200  49.6706800 146.0471530  25.4371400  47.9181470
 145.3427100  25.7256290  48.4984580 146.4083690  26.2471510  47.5581030
 135.9650100  23.6941100  50.2802080 136.3066910  24.5383150  49.9855950
 135.0265910  23.8424840  50.3967420 136.7456720  33.5907120  52.2654310
 137.3630720  34.2658200  51.9838760 135.8849840  33.9995100  52.1741810
 132.0389060  32.7806980  41.1461160 131.6617040  33.2694080  40.4146060
 132.2962130  33.4532260  41.7767690 147.6634310  35.0546530  50.1808950
 146.9797830  35.7245640  50.1725620 148.2028600  35.2527180  49.4153810
 139.6477990  21.1823370  46.6046670 139.9552970  20.6270260  45.8882170
 138.7178690  21.3167830  46.4219660 145.1993050  36.8990660  48.8954130
 145.2120210  36.4952950  48.0276390 144.6468270  37.6737950  48.7915560
 146.4938470  33.6206880  43.9844300 146.3834800  32.6781210  44.1093720
 146.4906720  33.9822520  44.8707060 144.5978490  31.8020500  50.2236740
 145.0147280  31.5880610  49.3890200 145.3218310  32.0593290  50.7945360
 142.0358750  29.2472200  43.3406790 141.1088030  29.1809580  43.5695260
 142.1883570  30.1852330  43.2262030 142.0227830  25.5189200  40.3373950
 141.0831500  25.6803160  40.4226410 142.3411090  26.2374880  39.7909940
 146.0656040  30.8092500  43.8442040 145.4468460  30.4712050  43.1968340
 146.0480490  30.1652260  44.5521230 145.5082600  26.9877040  51.2607850
 145.0953780  27.8130750  51.5147840 144.7758550  26.4022080  51.0684210
 137.6415390  29.7736940  46.1226520 137.2372390  29.0614190  45.6272420
 137.7278510  29.4290180  47.0114560 138.1097090  33.4604500  48.2865730
 137.8125380  32.8549970  47.6073510 139.0596910  33.4981810  48.1755090
 136.3544010  26.5480150  49.9025560 136.9058600  26.6575490  49.1278810
 136.8687520  26.9217750  50.6180790 146.1982700  37.0336370  51.9488830
 145.7213260  37.8408560  51.7561440 145.5144490  36.3814700  52.1015040
 137.2015520  33.1986190  54.9373530 136.3044050  33.4226160  55.1846930
 137.2268390  33.3221130  53.9884930 144.2420740  30.0479310  40.8514790
 144.6814020  29.2101740  40.7052610 144.9549160  30.6808710  40.9378930
 136.0286740  30.0699510  53.5130900 135.8894510  30.9422310  53.8818300
 135.1468100  29.7272320  53.3678840 142.3516120  34.9875380  44.8196030
 142.7912030  35.7299710  44.4051420 142.2903010  35.2301950  45.7434990
 137.8267090  36.0121210  55.7216050 137.7982520  36.4164160  54.8544480
 137.6632060  35.0831570  55.5587650 147.8237880  21.3022120  39.1655830
 147.5110540  21.3948950  40.0654900 148.5850350  21.8803150  39.1153260
 134.3420020  28.6681920  43.6233170 134.2217620  29.3944010  43.0114440
 134.0320910  27.8984830  43.1461080 131.9805390  31.8397060  49.4301810
 132.0585810  31.9745830  48.4857530 132.5947070  31.1312950  49.6229930
 133.2253020  33.5397250  45.8407990 132.8181100  33.6811840  44.9861590
 134.1166030  33.2557410  45.6379200 143.0431900  37.6889160  52.7475040
 143.5576570  37.5997170  53.5497470 142.2000980  38.0348860  53.0402950
 145.0186300  37.9744500  42.1759040 144.8587440  37.6847440  43.0740870
 144.8533010  37.1984630  41.6404270 137.4974680  37.7543030  43.9530660
 137.3217160  36.8378570  43.7398460 136.6430420  38.1130320  44.1928460
 144.7212430  35.4832060  40.7357040 144.0277590  35.4809350  40.0759320
 145.4635290  35.0591380  40.3051210 144.2862360  37.1094770  44.8105530
 144.7419310  36.3284150  45.1244150 144.6254880  37.8201590  45.3546710
 132.0364910  32.8811230  51.9696270 132.1995950  32.4116590  51.1515640
 132.5017360  32.3734790  52.6345110 136.8083680  22.0116990  47.0056840
 136.3651830  22.7926530  46.6741360 137.3668670  22.3346880  47.7127780
 141.0953490  24.8785510  52.6092160 140.6332860  25.0868530  53.4212100
 140.6931600  24.0644860  52.3062830 146.0958000  26.0994460  53.7388820
 145.2451590  25.8000210  54.0597890 145.9359790  26.3436470  52.8272640
 143.1907710  27.5996210  55.8387610 143.5161120  26.7659960  55.4989840
 143.9788040  28.1224730  55.9865940 139.9242500  21.6327690  41.8862670
 139.2996680  21.6287560  42.6115980 139.8372620  20.7658650  41.4898640
 138.8459580  22.5564320  48.8646440 139.1431910  23.4627150  48.7838460
 139.3945140  22.0683100  48.2506010 136.5997900  27.1350560  44.7338090
 136.3738820  26.9187730  45.6384710 135.8190430  27.5679020  44.3884060
 143.8295660  27.1413930  43.3328740 143.2304550  27.8649730  43.1492360
 144.3775270  27.0790710  42.5505190 139.0397110  28.0336140  55.3998360
 138.9440710  27.0930870  55.2498760 139.8829090  28.2551210  55.0046430
 142.4360530  25.7777470  45.3632020 142.8290100  26.0949670  44.5500710
 142.7977380  24.8989350  45.4776540 134.1707650  24.4449810  53.5532140
 133.7771040  25.2925020  53.7604920 133.4826050  23.8076180  53.7440780
 140.7452700  24.5284780  56.6228880 140.0551020  24.3356980  57.2574970
 141.4885000  24.8119420  57.1553180 131.4724700  22.3678270  47.5862220
 131.1837750  22.9381130  48.2987200 132.2170460  21.8882720  47.9493450
 131.6594930  26.3098390  38.7964940 131.5769600  27.2529150  38.9379930
 131.3077990  26.1673300  37.9177290 143.0215670  28.3683220  49.4582800
 142.2896790  28.8770030  49.8072900 142.6240010  27.5513200  49.1571580
 139.4593060  25.0437420  47.8635290 139.4629120  24.6027370  47.0139830
 140.3544180  25.3654750  47.9707110 135.3095440  24.9263910  46.8229500
 134.9695490  25.4039140  47.5796550 134.5472760  24.4729030  46.4630600
 139.5213210  26.0449500  40.8542050 139.6426030  26.0035980  41.8027870
 139.1361720  26.9073650  40.6988780 143.4841580  23.8216900  48.8705740
 143.5014320  24.2725550  49.7147590 143.2357160  22.9222540  49.0839180
 138.5334710  28.3550640  40.2525350 137.9651610  27.9068890  39.6261260
 139.2423710  28.7143420  39.7190500 146.9112330  21.2349080  54.7092120
 147.2358100  20.5038740  55.2350100 146.9468840  20.9162720  53.8073110
 133.6103890  32.2562660  54.1292080 133.2258680  31.6156330  54.7275040
 133.9216080  32.9598780  54.6986810 139.7601030  29.1039200  49.6100700
 140.1271160  28.6297770  50.3562040 139.5706090  29.9780770  49.9509040
 132.6241520  23.8482890  45.7394170 132.3388440  23.4838560  46.5772790
 132.5620380  23.1163350  45.1257310 137.5500400  28.1447840  51.9284910
 137.2457470  29.0239820  52.1535270 138.5046860  28.2047630  51.9642350
 136.0782190  32.3508830  42.5251760 135.3044450  31.8106450  42.3650480
 136.8076820  31.8315440  42.1869520 146.8370170  31.3474190  48.3178150
 147.5569290  31.8429480  47.9274260 146.6351990  30.6692080  47.6732020
 142.2980110  22.7412150  42.4607540 141.4844720  22.2425320  42.3852850
 142.1042060  23.5810400  42.0443890 142.2188970  31.4183250  54.2047150
 142.1526280  30.4978920  53.9504740 141.5894110  31.5158690  54.9191790
 145.0128500  27.1131800  40.7569700 145.9008120  27.4249030  40.5821040
 144.9833590  26.2404050  40.3650280 136.1219590  32.0189210  46.1630570
 136.6398260  31.2157470  46.1087460 135.6703610  31.9568350  47.0047400
 141.0089090  33.2855490  41.4357870 141.3504790  34.0297720  40.9401190
 140.1801800  33.5986610  41.7982700 133.6064130  28.9850580  53.0756270
 133.2479070  29.6504430  53.6629610 133.3118690  28.1534130  53.4468890
 136.8077250  29.4434820  55.9595820 136.5077390  29.5892000  55.0623640
 137.5788490  28.8840110  55.8669210 142.1505700  34.2403820  53.9550950
 142.1650240  33.3084780  53.7369860 141.4430800  34.3263580  54.5940720
 147.2842770  28.4243640  40.2249560 147.2006490  28.8557860  39.3746000
 148.0036960  28.8841990  40.6576380 148.3130020  35.2785900  42.9531690
 147.6706180  34.6241520  43.2275410 147.9260680  35.6840990  42.1772360
 143.8916500  32.6071330  46.8003380 144.2440320  32.0099460  46.1404750
 143.0078830  32.2815560  46.9711630 139.9779780  33.3669020  44.2073790
 140.6650910  33.9138230  44.5881380 139.1912200  33.9109750  44.2423400
 132.1172180  28.9841840  39.6990870 132.9867030  29.2666640  39.9826790
 131.6262500  29.7977710  39.5839680 139.2806990  30.3715050  43.8199150
 139.7369770  31.1820300  44.0459340 138.9295200  30.0538190  44.6517640
 141.5839600  35.8821390  51.0491450 142.2281820  36.0880770  51.7264870
 141.9469040  35.1209790  50.5962300 135.1818770  20.7152700  44.2921670
 135.0533400  20.7070600  45.2406590 134.3580790  21.0535790  43.9412680
 142.8571680  33.8853740  49.7668900 143.4993910  33.1846900  49.8801070
 143.3821030  34.6652180  49.5865790 146.7027400  34.1702360  39.4908040
 146.4764980  33.4532800  40.0832680 146.3123600  33.9214800  38.6529790
 144.6309300  34.6848640  52.9704960 144.9665540  35.2715330  53.6482880
 143.7109640  34.5541350  53.2002750 132.4843430  38.1969220  40.2652500
 132.8441070  38.7958560  39.6109770 132.3435770  38.7429110  41.0387530
 132.1812700  22.4743820  53.7528370 131.4671220  22.6740740  54.3580980
 132.6007740  21.6983390  54.1243170 146.2843650  32.0874300  41.1522200
 145.9965350  32.5486990  41.9400080 147.0795820  31.6272070  41.4206420
 132.4685290  36.4624080  54.7394900 132.5776410  35.5218820  54.5990290
 131.8165850  36.7278830  54.0908630 140.4597880  34.7339970  56.1393020
 140.1394750  34.0149210  56.6838710 139.7856240  35.4095040  56.2129080
 138.5012050  35.5800420  41.0826170 138.4922150  36.3130110  40.4670680
 137.5810410  35.3332000  41.1753130 134.1018690  30.8015310  41.8272930
 133.4946640  31.5414210  41.8368230 134.5768040  30.8914670  41.0011130
 143.6751480  24.9666130  51.5029820 144.0432300  24.1461340  51.8309390
 142.8149680  25.0268020  51.9185470 147.0413510  23.9223070  42.3117380
 146.4126670  24.0268740  41.5975610 146.5465430  24.1419850  43.1011260
 141.4871650  35.6428660  39.7451360 141.5883630  35.4392650  38.8153340
 140.5873390  35.3886940  39.9499140 139.0097540  26.2009020  43.7275260
 138.3013690  26.6695360  44.1688870 139.2942020  25.5431030  44.3620450
 140.6353470  27.6205720  51.7267790 141.1338720  28.0951540  52.3919640
 140.7776420  26.6969240  51.9337820 143.0412970  22.9259680  45.1671050
 142.9180750  22.9445810  44.2180560 143.9897530  22.9738620  45.2869450
 140.1289760  38.1614980  44.4399030 140.3831260  38.1236370  43.5178400
 139.1802240  38.0348310  44.4327280 137.2132560  24.5094100  41.1025970
 138.0623090  24.9464250  41.0366160 136.8463830  24.8214360  41.9298030
 147.8420330  23.8373680  52.5696180 147.3393930  24.5779080  52.9089990
 148.6576990  24.2257680  52.2532970 146.1342340  29.0806860  46.0157540
 145.1932480  29.0957090  46.1905230 146.4486410  28.2942820  46.4617840
 136.1123980  30.7626460  39.5761500 136.8787250  30.6507820  40.1386930
 136.1898670  30.0664430  38.9238270 134.8070740  28.1951530  40.2594390
 134.8874330  27.2479040  40.3711790 135.6990490  28.5258410  40.3655050
 135.6085450  38.3446920  47.3628930 136.3447930  37.7962380  47.6337500
 135.9926370  39.2102930  47.2234920 132.4930930  34.4120490  43.2370440
 131.5670710  34.6541630  43.2275850 132.9587360  35.2394750  43.1155190
 134.6143730  37.5292990  56.5514510 135.4156460  37.8505040  56.9649910
 134.0995550  37.1688570  57.2734420 138.7187760  37.5177230  39.1854500
 139.5116370  37.8066060  38.7336290 138.1992110  37.0869400  38.5066980
 143.4508360  33.6372860  56.4989920 142.8446520  33.6604460  55.7585670
 143.1462470  32.9055900  57.0357170 144.8808730  37.3653150  55.1099330
 145.8330480  37.2811170  55.0599570 144.7336950  38.0294860  55.7833120
 147.7717930  36.7447360  40.6091240 147.4859440  36.3312500  39.7945420
 147.5737480  37.6735070  40.4891760 132.3341540  30.0166450  55.4950560
 132.8380560  29.4373730  56.0666790 131.5948960  30.3006680  56.0326930
 139.2365160  32.7380640  39.0496850 139.1315800  32.1232990  39.7758230
 139.0689380  32.2146530  38.2659860 139.3879480  31.4237440  55.0286080
 138.6225150  31.9922440  54.9440750 139.5695440  31.1313650  54.1354310
 142.4767890  31.8000670  39.6538840 141.9277990  32.2469970  40.2981580
 143.0987150  31.2949920  40.1776510 146.5302830  33.1542770  55.5861100
 147.2712300  33.4918530  55.0828560 145.7675510  33.3234830  55.0330870
 134.3664620  28.1596040  56.3900630 134.4069960  27.8609910  57.2985860
 135.2210120  28.5603650  56.2308150 138.1443010  30.7591590  41.5504140
 138.5659430  30.5931460  42.3935530 138.2693850  29.9491820  41.0559280
 136.3070430  26.7388140  54.3575120 135.7766890  26.2479090  53.7298460
 136.9758500  27.1672340  53.8233050 140.6570650  29.7829200  38.7981240
 141.1776310  29.0678220  38.4322390 141.3039050  30.4215070  39.0981750
 145.2048490  31.2057600  54.1216310 145.6189510  31.3602680  54.9706730
 144.2699490  31.3312820  54.2842090 145.6770660  28.5453760  56.1255460
 146.2591430  27.7906080  56.0375940 145.8532430  29.0761200  55.3486940
 136.7942730  23.7050510  54.4372410 136.6999600  23.0871260  53.7123280
 136.2140120  24.4316800  54.2102320 139.5604170  22.2623750  51.4699800
 139.1121470  22.2848010  50.6245350 138.9269370  21.8642770  52.0670100
 139.9663720  31.1578080  52.0912240 140.3851830  32.0010810  51.9188480
 139.0472350  31.2950120  51.8619020 142.3027620  28.8894260  53.4750080
 142.4223830  28.2935400  54.2144920 143.1621620  28.9263950  53.0551380
 144.6415520  29.4431450  52.0512590 144.1150740  29.9674070  51.4477730
 144.9846860  30.0758840  52.6822320 137.0401910  26.8324820  38.4962300
 136.8390970  25.9692180  38.8575640 136.8693960  26.7458180  37.5583900
 137.8171140  37.4631090  53.2069970 137.2792230  38.1877150  52.8878670
 138.0705100  36.9861430  52.4167310 139.0696390  25.4315610  54.7325900
 139.6596080  25.1231460  55.4203720 138.2516630  24.9595360  54.8885800
 143.8889820  25.0481420  54.9658920 143.2005340  24.3862960  54.9008910
 144.6095840  24.6019690  55.4107380 144.5190220  21.6433050  41.0249180
 144.7992510  20.8000950  41.3808600 143.7455950  21.8756160  41.5387930
 135.8384710  23.9325440  38.4840180 136.1410610  23.9392870  37.5759330
 136.5779300  23.5823300  38.9807840 140.6733350  38.6982300  53.4656620
 140.5992050  39.6017440  53.7728990 139.7712190  38.3794200  53.4378690
 139.0569640  22.8760060  39.4696380 138.7091640  22.1984050  38.8898830
 139.2582410  22.4149570  40.2839770 141.2218680  37.8640810  41.0882980
 142.1169470  38.2025780  41.1101740 141.2536310  37.1420220  40.4607260
 134.8614840  33.2367860  39.3169980 135.2989710  33.7797530  39.9727560
 135.3462570  32.4114810  39.3266320 132.0760640  36.0256890  46.7690240
 132.4063650  35.1577950  46.5368880 132.5051640  36.2315410  47.5995200
 136.6722560  34.3565900  44.4292210 136.3718100  34.2330870  45.3296120
 136.5660050  33.4974490  44.0207940 132.5650850  36.8927480  49.5071870
 132.1281840  37.0728280  50.3396020 133.1328530  37.6502100  49.3653590
 148.2013030  36.3944480  53.7949180 147.6015020  36.4537040  53.0513100
 148.3306930  35.4549460  53.9246030 132.3975280  29.4047710  45.8660750
 131.7424120  29.1359350  45.2220450 133.2353230  29.2952190  45.4162730
 146.8864670  33.1196460  51.8925340 146.0724510  33.5493620  52.1551130
 147.2938870  33.7314870  51.2794390 145.3465720  24.1989000  40.0879240
 145.7650600  24.0119980  39.2475900 145.0401780  23.3468050  40.3982170
 133.4351210  29.7900280  50.4064090 133.8024250  29.7027680  51.2860110
 132.8662030  29.0266830  50.3070950 148.2355070  28.2584660  53.4194560
 148.0041160  28.0297410  52.5192510 148.4959620  29.1784210  53.3739450
 132.9867210  26.7009370  54.3122510 132.0923260  26.6676130  54.6516220
 133.5264760  26.8996160  55.0773760 146.6743140  23.4841090  56.1974260
 147.5513320  23.4924490  56.5808260 146.6863980  22.7471930  55.5866610
 131.6113360  26.6146640  41.8086080 130.7077440  26.8776840  41.6337740
 132.0953980  26.8857810  41.0286040 148.2996130  27.4210500  50.6081830
 147.3498840  27.3874040  50.7226820 148.4809140  28.3310610  50.3731600
 134.1540570  25.6712180  39.7180460 134.8632270  25.2495400  39.2327740
 133.4380510  25.7387410  39.0863810 133.8014730  21.7251510  38.7583110
 134.5242860  22.2660450  39.0764330 134.0739250  21.4514930  37.8824650
 147.6106380  26.5943980  43.0254690 148.1065500  26.3614850  43.8103570
 147.4122450  25.7555820  42.6092330 133.4906920  20.9757700  48.6605730
 134.1383110  20.4255080  48.2200890 133.9108760  21.2300850  49.4821540
 147.3859260  21.1699060  52.0175370 148.0231480  21.7833200  52.3834560
 147.5334150  21.2059720  51.0724600 146.9440720  37.8715060  45.4193610
 147.5399790  37.5499630  44.7428030 147.2018870  37.3986880  46.2106880
 133.2438920  21.1313370  51.4031050 132.8953740  21.5877190  52.1689230
 132.9126620  20.2370500  51.4853480 134.8503290  34.3032970  55.5684240
 134.8072920  33.9325880  56.4498700 134.9814300  35.2410540  55.7086060
 138.5509320  35.8592560  51.1693960 138.3100680  36.1267120  50.2824480
 139.4911960  36.0298290  51.2244820 140.7563740  22.3225250  54.9250470
 140.6952630  22.9147080  55.6745880 141.6964120  22.2151210  54.7800730
 143.3938300  21.9795310  54.5642760 144.0078710  22.2974600  53.9023840
 143.9387860  21.4943900  55.1838620 133.9159560  20.6589570  54.6781820
 134.4642550  20.4777620  53.9147930 133.9814870  19.8683680  55.2138130
 134.6891320  37.2495220  52.6882020 134.0951640  37.1179920  53.4272060
 134.6815160  36.4133360  52.2224120 144.1346340  20.5427450  50.8912050
 143.2606180  20.8762560  50.6884980 144.0257090  20.0700630  51.7163920
 145.0418320  22.7498320  52.2753770 144.7131680  21.9350080  51.8955500
 145.9900620  22.7068130  52.1519460 147.4952930  38.5210360  49.2491340
 147.0355900  39.2726170  48.8749360 146.8665390  37.8016830  49.1906140
 134.3203550  34.6153600  51.6390060 133.5937610  33.9958890  51.5716010
 134.3812700  35.0094210  50.7688140 137.9248650  36.8298600  48.4239470
 138.4413670  36.2185960  47.8987730 138.5746030  37.3327380  48.9150480
 140.6644150  37.7207090  49.2508450 140.9521960  37.4661390  48.3741460
 141.1767370  37.1684450  49.8414020 141.8821160  21.4597290  49.8304960
 141.0992950  21.9342790  50.1101720 141.5884090  20.5552120  49.7218140
 146.4342230  22.1620390  47.8754050 146.8750320  22.1065490  47.0275650
 146.1649820  23.0778400  47.9464230 132.6033550  37.9327990  44.8486820
 132.4355590  37.2998670  45.5468710 131.7368060  38.1387390  44.4981010
 133.2261570  21.7644770  42.3518680 133.9840930  21.8773650  41.7782710
 132.7638740  22.6013970  42.3062110 139.7675380  23.8784040  45.3420990
 138.9549890  23.5040930  45.0016870 140.2717020  23.1229120  45.6442180
 144.2700360  20.5426490  46.5804060 144.8729730  21.1146700  47.0552580
 143.5293350  21.1065930  46.3577960 147.4134960  20.9448050  41.8544340
 147.6085590  21.8431500  42.1211770 146.6264830  20.7135130  42.3477290
 134.2096250  36.6261220  42.2936960 133.6843870  37.0069250  41.5898920
 134.1340830  37.2511990  43.0146670 135.5986720  22.2908820  40.8920650
 136.1279480  21.5038620  40.7628600 136.2315040  22.9700010  41.1256180
 137.7924560  22.0283960  43.9466040 137.1627300  21.3271270  44.1136170
 137.2529700  22.7888090  43.7299200 140.7316510  38.6423190  56.6176650
 141.6583820  38.4067460  56.6612610 140.7166940  39.4695190  56.1362680
 137.9180120  21.3067940  56.3818530 137.6364390  21.8101540  55.6179350
 138.2999820  20.5089690  56.0160660 136.8089220  38.5743600  41.1686210
 137.5408040  38.2902880  40.6210100 137.0682890  38.3356880  42.0585590
 135.9704010  34.6908330  41.1732540 135.3412890  35.1593430  41.7218370
 136.0851840  33.8457550  41.6078730 144.5195580  20.7221520  56.9599000
 144.4061030  21.0416130  57.8550520 145.3365320  21.1234030  56.6636280
 147.2994070  37.8693050  56.4417690 148.0919390  37.3742280  56.2343650
 147.5927220  38.5483190  57.0493300 143.4253730  28.7413990  27.3233740
 143.3447780  27.8268600  27.0525450 143.0118150  29.2381060  26.6173450
 141.5571770  30.5193010  29.2043010 140.7813870  30.0393450  29.4941580
 142.2084700  29.8398660  29.0299170 135.5737600  30.8312820  30.0818770
 134.7422480  30.5761530  30.4815280 136.1818580  30.9023590  30.8176690
 145.5779200  34.9253200  27.9842140 145.1160730  34.1540440  28.3129310
 146.3904750  34.9519270  28.4894590 135.5538860  34.8652910  30.2776790
 135.8566900  33.9750650  30.0987010 136.2982450  35.4223130  30.0499040
 133.9829550  25.7914710  23.8661160 133.0946250  26.1330680  23.7641040
 134.2670740  25.5915030  22.9741990 131.9462560  28.3920360  29.7500860
 132.5178670  27.6242560  29.7504500 131.9464100  28.6909120  28.8407470
 141.8042510  37.2111210  27.6046130 141.1853950  37.6668710  27.0340570
 142.6594290  37.3662670  27.2035830 140.9980760  33.1950200  29.2113170
 140.9289040  32.2540140  29.0502300 141.7600620  33.2851610  29.7835740
 133.1887430  23.8004720  31.5369790 133.0090270  22.9030470  31.8172550
 132.7867510  24.3476590  32.2116740 142.0285930  26.0020580  29.4382100
 142.4050750  25.1292460  29.3255770 141.9305440  26.3379280  28.5472540
 136.1590940  24.3746210  24.8999540 136.2657690  25.2749940  25.2068300
 135.2483300  24.3264180  24.6094190 145.8110050  23.4971020  26.3710440
 146.6319670  23.0067590  26.4135920 145.8444130  24.0868680  27.1242280
 133.8074100  26.2965220  30.1452130 134.4884210  26.5603590  30.7639530
 133.4922150  25.4566090  30.4790140 137.9998670  27.3432580  29.2324720
 138.5076890  27.8413550  29.8729740 138.5311910  26.5667780  29.0564080
 136.2834770  21.9831140  33.4988140 136.2853210  22.5003530  32.6934040
 135.4539080  21.5061320  33.4758070 142.6705860  32.0950450  24.9978040
 142.0523130  32.5599900  24.4340760 143.1829110  32.7877930  25.4147550
 137.5337620  31.6226320  31.6761640 137.2007000  32.2495240  32.3182710
 137.7104300  32.1488200  30.8963310 146.0471530  25.4371400  29.1437980
 145.3427100  25.7256290  29.7241090 146.4083690  26.2471510  28.7837540
 135.9650100  23.6941100  31.5058590 136.3066910  24.5383150  31.2112460
 135.0265910  23.8424840  31.6223930 136.7456720  33.5907120  33.4910820
 137.3630720  34.2658200  33.2095270 135.8849840  33.9995100  33.3998320
 132.0389060  32.7806980  22.3717670 131.6617040  33.2694080  21.6402570
 132.2962130  33.4532260  23.0024200 147.6634310  35.0546530  31.4065460
 146.9797830  35.7245640  31.3982130 148.2028600  35.2527180  30.6410320
 139.6477990  21.1823370  27.8303180 139.9552970  20.6270260  27.1138680
 138.7178690  21.3167830  27.6476170 145.1993050  36.8990660  30.1210640
 145.2120210  36.4952950  29.2532900 144.6468270  37.6737950  30.0172070
 146.4938470  33.6206880  25.2100810 146.3834800  32.6781210  25.3350230
 146.4906720  33.9822520  26.0963570 144.5978490  31.8020500  31.4493250
 145.0147280  31.5880610  30.6146710 145.3218310  32.0593290  32.0201870
 142.0358750  29.2472200  24.5663300 141.1088030  29.1809580  24.7951770
 142.1883570  30.1852330  24.4518540 142.0227830  25.5189200  21.5630460
 141.0831500  25.6803160  21.6482920 142.3411090  26.2374880  21.0166450
 146.0656040  30.8092500  25.0698550 145.4468460  30.4712050  24.4224850
 146.0480490  30.1652260  25.7777740 145.5082600  26.9877040  32.4864360
 145.0953780  27.8130750  32.7404350 144.7758550  26.4022080  32.2940720
 137.6415390  29.7736940  27.3483030 137.2372390  29.0614190  26.8528930
 137.7278510  29.4290180  28.2371070 138.1097090  33.4604500  29.5122240
 137.8125380  32.8549970  28.8330020 139.0596910  33.4981810  29.4011600
 136.3544010  26.5480150  31.1282070 136.9058600  26.6575490  30.3535320
 136.8687520  26.9217750  31.8437300 146.1982700  37.0336370  33.1745340
 145.7213260  37.8408560  32.9817950 145.5144490  36.3814700  33.3271550
 137.2015520  33.1986190  36.1630040 136.3044050  33.4226160  36.4103440
 137.2268390  33.3221130  35.2141440 144.2420740  30.0479310  22.0771300
 144.6814020  29.2101740  21.9309120 144.9549160  30.6808710  22.1635440
 136.0286740  30.0699510  34.7387410 135.8894510  30.9422310  35.1074810
 135.1468100  29.7272320  34.5935350 142.3516120  34.9875380  26.0452540
 142.7912030  35.7299710  25.6307930 142.2903010  35.2301950  26.9691500
 137.8267090  36.0121210  36.9472560 137.7982520  36.4164160  36.0800990
 137.6632060  35.0831570  36.7844160 147.8237880  21.3022120  20.3912340
 147.5110540  21.3948950  21.2911410 148.5850350  21.8803150  20.3409770
 134.3420020  28.6681920  24.8489680 134.2217620  29.3944010  24.2370950
 134.0320910  27.8984830  24.3717590 131.9805390  31.8397060  30.6558320
 132.0585810  31.9745830  29.7114040 132.5947070  31.1312950  30.8486440
 133.2253020  33.5397250  27.0664500 132.8181100  33.6811840  26.2118100
 134.1166030  33.2557410  26.8635710 143.0431900  37.6889160  33.9731550
 143.5576570  37.5997170  34.7753980 142.2000980  38.0348860  34.2659460
 145.0186300  37.9744500  23.4015550 144.8587440  37.6847440  24.2997380
 144.8533010  37.1984630  22.8660780 137.4974680  37.7543030  25.1787170
 137.3217160  36.8378570  24.9654970 136.6430420  38.1130320  25.4184970
 144.7212430  35.4832060  21.9613550 144.0277590  35.4809350  21.3015830
 145.4635290  35.0591380  21.5307720 144.2862360  37.1094770  26.0362040
 144.7419310  36.3284150  26.3500660 144.6254880  37.8201590  26.5803220
 132.0364910  32.8811230  33.1952780 132.1995950  32.4116590  32.3772150
 132.5017360  32.3734790  33.8601620 136.8083680  22.0116990  28.2313350
 136.3651830  22.7926530  27.8997870 137.3668670  22.3346880  28.9384290
 141.0953490  24.8785510  33.8348670 140.6332860  25.0868530  34.6468610
 140.6931600  24.0644860  33.5319340 146.0958000  26.0994460  34.9645330
 145.2451590  25.8000210  35.2854400 145.9359790  26.3436470  34.0529150
 143.1907710  27.5996210  37.0644120 143.5161120  26.7659960  36.7246350
 143.9788040  28.1224730  37.2122450 139.9242500  21.6327690  23.1119180
 139.2996680  21.6287560  23.8372490 139.8372620  20.7658650  22.7155150
 138.8459580  22.5564320  30.0902950 139.1431910  23.4627150  30.0094970
 139.3945140  22.0683100  29.4762520 136.5997900  27.1350560  25.9594600
 136.3738820  26.9187730  26.8641220 135.8190430  27.5679020  25.6140570
 143.8295660  27.1413930  24.5585250 143.2304550  27.8649730  24.3748870
 144.3775270  27.0790710  23.7761700 139.0397110  28.0336140  36.6254870
 138.9440710  27.0930870  36.4755270 139.8829090  28.2551210  36.2302940
 142.4360530  25.7777470  26.5888530 142.8290100  26.0949670  25.7757220
 142.7977380  24.8989350  26.7033050 134.1707650  24.4449810  34.7788650
 133.7771040  25.2925020  34.9861430 133.4826050  23.8076180  34.9697290
 140.7452700  24.5284780  37.8485390 140.0551020  24.3356980  38.4831480
 141.4885000  24.8119420  38.3809690 131.4724700  22.3678270  28.8118730
 131.1837750  22.9381130  29.5243710 132.2170460  21.8882720  29.1749960
 131.6594930  26.3098390  20.0221450 131.5769600  27.2529150  20.1636440
 131.3077990  26.1673300  19.1433800 143.0215670  28.3683220  30.6839310
 142.2896790  28.8770030  31.0329410 142.6240010  27.5513200  30.3828090
 139.4593060  25.0437420  29.0891800 139.4629120  24.6027370  28.2396340
 140.3544180  25.3654750  29.1963620 135.3095440  24.9263910  28.0486010
 134.9695490  25.4039140  28.8053060 134.5472760  24.4729030  27.6887110
 139.5213210  26.0449500  22.0798560 139.6426030  26.0035980  23.0284380
 139.1361720  26.9073650  21.9245290 143.4841580  23.8216900  30.0962250
 143.5014320  24.2725550  30.9404100 143.2357160  22.9222540  30.3095690
 138.5334710  28.3550640  21.4781860 137.9651610  27.9068890  20.8517770
 139.2423710  28.7143420  20.9447010 146.9112330  21.2349080  35.9348630
 147.2358100  20.5038740  36.4606610 146.9468840  20.9162720  35.0329620
 133.6103890  32.2562660  35.3548590 133.2258680  31.6156330  35.9531550
 133.9216080  32.9598780  35.9243320 139.7601030  29.1039200  30.8357210
 140.1271160  28.6297770  31.5818550 139.5706090  29.9780770  31.1765550
 132.6241520  23.8482890  26.9650680 132.3388440  23.4838560  27.8029300
 132.5620380  23.1163350  26.3513820 137.5500400  28.1447840  33.1541420
 137.2457470  29.0239820  33.3791780 138.5046860  28.2047630  33.1898860
 136.0782190  32.3508830  23.7508270 135.3044450  31.8106450  23.5906990
 136.8076820  31.8315440  23.4126030 146.8370170  31.3474190  29.5434660
 147.5569290  31.8429480  29.1530770 146.6351990  30.6692080  28.8988530
 142.2980110  22.7412150  23.6864050 141.4844720  22.2425320  23.6109360
 142.1042060  23.5810400  23.2700400 142.2188970  31.4183250  35.4303660
 142.1526280  30.4978920  35.1761250 141.5894110  31.5158690  36.1448300
 145.0128500  27.1131800  21.9826210 145.9008120  27.4249030  21.8077550
 144.9833590  26.2404050  21.5906790 136.1219590  32.0189210  27.3887080
 136.6398260  31.2157470  27.3343970 135.6703610  31.9568350  28.2303910
 141.0089090  33.2855490  22.6614380 141.3504790  34.0297720  22.1657700
 140.1801800  33.5986610  23.0239210 133.6064130  28.9850580  34.3012780
 133.2479070  29.6504430  34.8886120 133.3118690  28.1534130  34.6725400
 136.8077250  29.4434820  37.1852330 136.5077390  29.5892000  36.2880150
 137.5788490  28.8840110  37.0925720 142.1505700  34.2403820  35.1807460
 142.1650240  33.3084780  34.9626370 141.4430800  34.3263580  35.8197230
 147.2842770  28.4243640  21.4506070 147.2006490  28.8557860  20.6002510
 148.0036960  28.8841990  21.8832890 148.3130020  35.2785900  24.1788200
 147.6706180  34.6241520  24.4531920 147.9260680  35.6840990  23.4028870
 143.8916500  32.6071330  28.0259890 144.2440320  32.0099460  27.3661260
 143.0078830  32.2815560  28.1968140 139.9779780  33.3669020  25.4330300
 140.6650910  33.9138230  25.8137890 139.1912200  33.9109750  25.4679910
 132.1172180  28.9841840  20.9247380 132.9867030  29.2666640  21.2083300
 131.6262500  29.7977710  20.8096190 139.2806990  30.3715050  25.0455660
 139.7369770  31.1820300  25.2715850 138.9295200  30.0538190  25.8774150
 141.5839600  35.8821390  32.2747960 142.2281820  36.0880770  32.9521380
 141.9469040  35.1209790  31.8218810 135.1818770  20.7152700  25.5178180
 135.0533400  20.7070600  26.4663100 134.3580790  21.0535790  25.1669190
 142.8571680  33.8853740  30.9925410 143.4993910  33.1846900  31.1057580
 143.3821030  34.6652180  30.8122300 146.7027400  34.1702360  20.7164550
 146.4764980  33.4532800  21.3089190 146.3123600  33.9214800  19.8786300
 144.6309300  34.6848640  34.1961470 144.9665540  35.2715330  34.8739390
 143.7109640  34.5541350  34.4259260 132.4843430  38.1969220  21.4909010
 132.8441070  38.7958560  20.8366280 132.3435770  38.7429110  22.2644040
 132.1812700  22.4743820  34.9784880 131.4671220  22.6740740  35.5837490
 132.6007740  21.6983390  35.3499680 146.2843650  32.0874300  22.3778710
 145.9965350  32.5486990  23.1656590 147.0795820  31.6272070  22.6462930
 132.4685290  36.4624080  35.9651410 132.5776410  35.5218820  35.8246800
 131.8165850  36.7278830  35.3165140 140.4597880  34.7339970  37.3649530
 140.1394750  34.0149210  37.9095220 139.7856240  35.4095040  37.4385590
 138.5012050  35.5800420  22.3082680 138.4922150  36.3130110  21.6927190
 137.5810410  35.3332000  22.4009640 134.1018690  30.8015310  23.0529440
 133.4946640  31.5414210  23.0624740 134.5768040  30.8914670  22.2267640
 143.6751480  24.9666130  32.7286330 144.0432300  24.1461340  33.0565900
 142.8149680  25.0268020  33.1441980 147.0413510  23.9223070  23.5373890
 146.4126670  24.0268740  22.8232120 146.5465430  24.1419850  24.3267770
 141.4871650  35.6428660  20.9707870 141.5883630  35.4392650  20.0409850
 140.5873390  35.3886940  21.1755650 139.0097540  26.2009020  24.9531770
 138.3013690  26.6695360  25.3945380 139.2942020  25.5431030  25.5876960
 140.6353470  27.6205720  32.9524300 141.1338720  28.0951540  33.6176150
 140.7776420  26.6969240  33.1594330 143.0412970  22.9259680  26.3927560
 142.9180750  22.9445810  25.4437070 143.9897530  22.9738620  26.5125960
 140.1289760  38.1614980  25.6655540 140.3831260  38.1236370  24.7434910
 139.1802240  38.0348310  25.6583790 137.2132560  24.5094100  22.3282480
 138.0623090  24.9464250  22.2622670 136.8463830  24.8214360  23.1554540
 147.8420330  23.8373680  33.7952690 147.3393930  24.5779080  34.1346500
 148.6576990  24.2257680  33.4789480 146.1342340  29.0806860  27.2414050
 145.1932480  29.0957090  27.4161740 146.4486410  28.2942820  27.6874350
 136.1123980  30.7626460  20.8018010 136.8787250  30.6507820  21.3643440
 136.1898670  30.0664430  20.1494780 134.8070740  28.1951530  21.4850900
 134.8874330  27.2479040  21.5968300 135.6990490  28.5258410  21.5911560
 135.6085450  38.3446920  28.5885440 136.3447930  37.7962380  28.8594010
 135.9926370  39.2102930  28.4491430 132.4930930  34.4120490  24.4626950
 131.5670710  34.6541630  24.4532360 132.9587360  35.2394750  24.3411700
 134.6143730  37.5292990  37.7771020 135.4156460  37.8505040  38.1906420
 134.0995550  37.1688570  38.4990930 138.7187760  37.5177230  20.4111010
 139.5116370  37.8066060  19.9592800 138.1992110  37.0869400  19.7323490
 143.4508360  33.6372860  37.7246430 142.8446520  33.6604460  36.9842180
 143.1462470  32.9055900  38.2613680 144.8808730  37.3653150  36.3355840
 145.8330480  37.2811170  36.2856080 144.7336950  38.0294860  37.0089630
 147.7717930  36.7447360  21.8347750 147.4859440  36.3312500  21.0201930
 147.5737480  37.6735070  21.7148270 132.3341540  30.0166450  36.7207070
 132.8380560  29.4373730  37.2923300 131.5948960  30.3006680  37.2583440
 139.2365160  32.7380640  20.2753360 139.1315800  32.1232990  21.0014740
 139.0689380  32.2146530  19.4916370 139.3879480  31.4237440  36.2542590
 138.6225150  31.9922440  36.1697260 139.5695440  31.1313650  35.3610820
 142.4767890  31.8000670  20.8795350 141.9277990  32.2469970  21.5238090
 143.0987150  31.2949920  21.4033020 146.5302830  33.1542770  36.8117610
 147.2712300  33.4918530  36.3085070 145.7675510  33.3234830  36.2587380
 134.3664620  28.1596040  37.6157140 134.4069960  27.8609910  38.5242370
 135.2210120  28.5603650  37.4564660 138.1443010  30.7591590  22.7760650
 138.5659430  30.5931460  23.6192040 138.2693850  29.9491820  22.2815790
 136.3070430  26.7388140  35.5831630 135.7766890  26.2479090  34.9554970
 136.9758500  27.1672340  35.0489560 140.6570650  29.7829200  20.0237750
 141.1776310  29.0678220  19.6578900 141.3039050  30.4215070  20.3238260
 145.2048490  31.2057600  35.3472820 145.6189510  31.3602680  36.1963240
 144.2699490  31.3312820  35.5098600 145.6770660  28.5453760  37.3511970
 146.2591430  27.7906080  37.2632450 145.8532430  29.0761200  36.5743450
 136.7942730  23.7050510  35.6628920 136.6999600  23.0871260  34.9379790
 136.2140120  24.4316800  35.4358830 139.5604170  22.2623750  32.6956310
 139.1121470  22.2848010  31.8501860 138.9269370  21.8642770  33.2926610
 139.9663720  31.1578080  33.3168750 140.3851830  32.0010810  33.1444990
 139.0472350  31.2950120  33.0875530 142.3027620  28.8894260  34.7006590
 142.4223830  28.2935400  35.4401430 143.1621620  28.9263950  34.2807890
 144.6415520  29.4431450  33.2769100 144.1150740  29.9674070  32.6734240
 144.9846860  30.0758840  33.9078830 137.0401910  26.8324820  19.7218810
 136.8390970  25.9692180  20.0832150 136.8693960  26.7458180  18.7840410
 137.8171140  37.4631090  34.4326480 137.2792230  38.1877150  34.1135180
 138.0705100  36.9861430  33.6423820 139.0696390  25.4315610  35.9582410
 139.6596080  25.1231460  36.6460230 138.2516630  24.9595360  36.1142310
 143.8889820  25.0481420  36.1915430 143.2005340  24.3862960  36.1265420
 144.6095840  24.6019690  36.6363890 144.5190220  21.6433050  22.2505690
 144.7992510  20.8000950  22.6065110 143.7455950  21.8756160  22.7644440
 135.8384710  23.9325440  19.7096690 136.1410610  23.9392870  18.8015840
 136.5779300  23.5823300  20.2064350 140.6733350  38.6982300  34.6913130
 140.5992050  39.6017440  34.9985500 139.7712190  38.3794200  34.6635200
 139.0569640  22.8760060  20.6952890 138.7091640  22.1984050  20.1155340
 139.2582410  22.4149570  21.5096280 141.2218680  37.8640810  22.3139490
 142.1169470  38.2025780  22.3358250 141.2536310  37.1420220  21.6863770
 134.8614840  33.2367860  20.5426490 135.2989710  33.7797530  21.1984070
 135.3462570  32.4114810  20.5522830 132.0760640  36.0256890  27.9946750
 132.4063650  35.1577950  27.7625390 132.5051640  36.2315410  28.8251710
 136.6722560  34.3565900  25.6548720 136.3718100  34.2330870  26.5552630
 136.5660050  33.4974490  25.2464450 132.5650850  36.8927480  30.7328380
 132.1281840  37.0728280  31.5652530 133.1328530  37.6502100  30.5910100
 148.2013030  36.3944480  35.0205690 147.6015020  36.4537040  34.2769610
 148.3306930  35.4549460  35.1502540 132.3975280  29.4047710  27.0917260
 131.7424120  29.1359350  26.4476960 133.2353230  29.2952190  26.6419240
 146.8864670  33.1196460  33.1181850 146.0724510  33.5493620  33.3807640
 147.2938870  33.7314870  32.5050900 145.3465720  24.1989000  21.3135750
 145.7650600  24.0119980  20.4732410 145.0401780  23.3468050  21.6238680
 133.4351210  29.7900280  31.6320600 133.8024250  29.7027680  32.5116620
 132.8662030  29.0266830  31.5327460 148.2355070  28.2584660  34.6451070
 148.0041160  28.0297410  33.7449020 148.4959620  29.1784210  34.5995960
 132.9867210  26.7009370  35.5379020 132.0923260  26.6676130  35.8772730
 133.5264760  26.8996160  36.3030270 146.6743140  23.4841090  37.4230770
 147.5513320  23.4924490  37.8064770 146.6863980  22.7471930  36.8123120
 131.6113360  26.6146640  23.0342590 130.7077440  26.8776840  22.8594250
 132.0953980  26.8857810  22.2542550 148.2996130  27.4210500  31.8338340
 147.3498840  27.3874040  31.9483330 148.4809140  28.3310610  31.5988110
 134.1540570  25.6712180  20.9436970 134.8632270  25.2495400  20.4584250
 133.4380510  25.7387410  20.3120320 133.8014730  21.7251510  19.9839620
 134.5242860  22.2660450  20.3020840 134.0739250  21.4514930  19.1081160
 147.6106380  26.5943980  24.2511200 148.1065500  26.3614850  25.0360080
 147.4122450  25.7555820  23.8348840 133.4906920  20.9757700  29.8862240
 134.1383110  20.4255080  29.4457400 133.9108760  21.2300850  30.7078050
 147.3859260  21.1699060  33.2431880 148.0231480  21.7833200  33.6091070
 147.5334150  21.2059720  32.2981110 146.9440720  37.8715060  26.6450120
 147.5399790  37.5499630  25.9684540 147.2018870  37.3986880  27.4363390
 133.2438920  21.1313370  32.6287560 132.8953740  21.5877190  33.3945740
 132.9126620  20.2370500  32.7109990 134.8503290  34.3032970  36.7940750
 134.8072920  33.9325880  37.6755210 134.9814300  35.2410540  36.9342570
 138.5509320  35.8592560  32.3950470 138.3100680  36.1267120  31.5080990
 139.4911960  36.0298290  32.4501330 140.7563740  22.3225250  36.1506980
 140.6952630  22.9147080  36.9002390 141.6964120  22.2151210  36.0057240
 143.3938300  21.9795310  35.7899270 144.0078710  22.2974600  35.1280350
 143.9387860  21.4943900  36.4095130 133.9159560  20.6589570  35.9038330
 134.4642550  20.4777620  35.1404440 133.9814870  19.8683680  36.4394640
 134.6891320  37.2495220  33.9138530 134.0951640  37.1179920  34.6528570
 134.6815160  36.4133360  33.4480630 144.1346340  20.5427450  32.1168560
 143.2606180  20.8762560  31.9141490 144.0257090  20.0700630  32.9420430
 145.0418320  22.7498320  33.5010280 144.7131680  21.9350080  33.1212010
 145.9900620  22.7068130  33.3775970 147.4952930  38.5210360  30.4747850
 147.0355900  39.2726170  30.1005870 146.8665390  37.8016830  30.4162650
 134.3203550  34.6153600  32.8646570 133.5937610  33.9958890  32.7972520
 134.3812700  35.0094210  31.9944650 137.9248650  36.8298600  29.6495980
 138.4413670  36.2185960  29.1244240 138.5746030  37.3327380  30.1406990
 140.6644150  37.7207090  30.4764960 140.9521960  37.4661390  29.5997970
 141.1767370  37.1684450  31.0670530 141.8821160  21.4597290  31.0561470
 141.0992950  21.9342790  31.3358230 141.5884090  20.5552120  30.9474650
 146.4342230  22.1620390  29.1010560 146.8750320  22.1065490  28.2532160
 146.1649820  23.0778400  29.1720740 132.6033550  37.9327990  26.0743330
 132.4355590  37.2998670  26.7725220 131.7368060  38.1387390  25.7237520
 133.2261570  21.7644770  23.5775190 133.9840930  21.8773650  23.0039220
 132.7638740  22.6013970  23.5318620 139.7675380  23.8784040  26.5677500
 138.9549890  23.5040930  26.2273380 140.2717020  23.1229120  26.8698690
 144.2700360  20.5426490  27.8060570 144.8729730  21.1146700  28.2809090
 143.5293350  21.1065930  27.5834470 147.4134960  20.9448050  23.0800850
 147.6085590  21.8431500  23.3468280 146.6264830  20.7135130  23.5733800
 134.2096250  36.6261220  23.5193470 133.6843870  37.0069250  22.8155430
 134.1340830  37.2511990  24.2403180 135.5986720  22.2908820  22.1177160
 136.1279480  21.5038620  21.9885110 136.2315040  22.9700010  22.3512690
 137.7924560  22.0283960  25.1722550 137.1627300  21.3271270  25.3392680
 137.2529700  22.7888090  24.9555710 140.7316510  38.6423190  37.8433160
 141.6583820  38.4067460  37.8869120 140.7166940  39.4695190  37.3619190
 137.9180120  21.3067940  37.6075040 137.6364390  21.8101540  36.8435860
 138.2999820  20.5089690  37.2417170 136.8089220  38.5743600  22.3942720
 137.5408040  38.2902880  21.8466610 137.0682890  38.3356880  23.2842100
 135.9704010  34.6908330  22.3989050 135.3412890  35.1593430  22.9474880
 136.0851840  33.8457550  22.8335240 144.5195580  20.7221520  38.1855510
 144.4061030  21.0416130  39.0807030 145.3365320  21.1234030  37.8892790
 147.2994070  37.8693050  37.6674200 148.0919390  37.3742280  37.4600160
 147.5927220  38.5483190  38.2749810 143.4253730  28.7413990   8.5490250
 143.3447780  27.8268600   8.2781960 143.0118150  29.2381060   7.8429960
 141.5571770  30.5193010  10.4299520 140.7813870  30.0393450  10.7198090
 142.2084700  29.8398660  10.2555680 135.5737600  30.8312820  11.3075280
 134.7422480  30.5761530  11.7071790 136.1818580  30.9023590  12.0433200
 145.5779200  34.9253200   9.2098650 145.1160730  34.1540440   9.5385820
 146.3904750  34.9519270   9.7151100 135.5538860  34.8652910  11.5033300
 135.8566900  33.9750650  11.3243520 136.2982450  35.4223130  11.2755550
 133.9829550  25.7914710   5.0917670 133.0946250  26.1330680   4.9897550
 134.2670740  25.5915030   4.1998500 131.9462560  28.3920360  10.9757370
 132.5178670  27.6242560  10.9761010 131.9464100  28.6909120  10.0663980
 141.8042510  37.2111210   8.8302640 141.1853950  37.6668710   8.2597080
 142.6594290  37.3662670   8.4292340 140.9980760  33.1950200  10.4369680
 140.9289040  32.2540140  10.2758810 141.7600620  33.2851610  11.0092250
 133.1887430  23.8004720  12.7626300 133.0090270  22.9030470  13.0429060
 132.7867510  24.3476590  13.4373250 142.0285930  26.0020580  10.6638610
 142.4050750  25.1292460  10.5512280 141.9305440  26.3379280   9.7729050
 136.1590940  24.3746210   6.1256050 136.2657690  25.2749940   6.4324810
 135.2483300  24.3264180   5.8350700 145.8110050  23.4971020   7.5966950
 146.6319670  23.0067590   7.6392430 145.8444130  24.0868680   8.3498790
 133.8074100  26.2965220  11.3708640 134.4884210  26.5603590  11.9896040
 133.4922150  25.4566090  11.7046650 137.9998670  27.3432580  10.4581230
 138.5076890  27.8413550  11.0986250 138.5311910  26.5667780  10.2820590
 136.2834770  21.9831140  14.7244650 136.2853210  22.5003530  13.9190550
 135.4539080  21.5061320  14.7014580 142.6705860  32.0950450   6.2234550
 142.0523130  32.5599900   5.6597270 143.1829110  32.7877930   6.6404060
 137.5337620  31.6226320  12.9018150 137.2007000  32.2495240  13.5439220
 137.7104300  32.1488200  12.1219820 146.0471530  25.4371400  10.3694490
 145.3427100  25.7256290  10.9497600 146.4083690  26.2471510  10.0094050
 135.9650100  23.6941100  12.7315100 136.3066910  24.5383150  12.4368970
 135.0265910  23.8424840  12.8480440 136.7456720  33.5907120  14.7167330
 137.3630720  34.2658200  14.4351780 135.8849840  33.9995100  14.6254830
 132.0389060  32.7806980   3.5974180 131.6617040  33.2694080   2.8659080
 132.2962130  33.4532260   4.2280710 147.6634310  35.0546530  12.6321970
 146.9797830  35.7245640  12.6238640 148.2028600  35.2527180  11.8666830
 139.6477990  21.1823370   9.0559690 139.9552970  20.6270260   8.3395190
 138.7178690  21.3167830   8.8732680 145.1993050  36.8990660  11.3467150
 145.2120210  36.4952950  10.4789410 144.6468270  37.6737950  11.2428580
 146.4938470  33.6206880   6.4357320 146.3834800  32.6781210   6.5606740
 146.4906720  33.9822520   7.3220080 144.5978490  31.8020500  12.6749760
 145.0147280  31.5880610  11.8403220 145.3218310  32.0593290  13.2458380
 142.0358750  29.2472200   5.7919810 141.1088030  29.1809580   6.0208280
 142.1883570  30.1852330   5.6775050 142.0227830  25.5189200   2.7886970
 141.0831500  25.6803160   2.8739430 142.3411090  26.2374880   2.2422960
 146.0656040  30.8092500   6.2955060 145.4468460  30.4712050   5.6481360
 146.0480490  30.1652260   7.0034250 145.5082600  26.9877040  13.7120870
 145.0953780  27.8130750  13.9660860 144.7758550  26.4022080  13.5197230
 137.6415390  29.7736940   8.5739540 137.2372390  29.0614190   8.0785440
 137.7278510  29.4290180   9.4627580 138.1097090  33.4604500  10.7378750
 137.8125380  32.8549970  10.0586530 139.0596910  33.4981810  10.6268110
 136.3544010  26.5480150  12.3538580 136.9058600  26.6575490  11.5791830
 136.8687520  26.9217750  13.0693810 146.1982700  37.0336370  14.4001850
 145.7213260  37.8408560  14.2074460 145.5144490  36.3814700  14.5528060
 137.2015520  33.1986190  17.3886550 136.3044050  33.4226160  17.6359950
 137.2268390  33.3221130  16.4397950 144.2420740  30.0479310   3.3027810
 144.6814020  29.2101740   3.1565630 144.9549160  30.6808710   3.3891950
 136.0286740  30.0699510  15.9643920 135.8894510  30.9422310  16.3331320
 135.1468100  29.7272320  15.8191860 142.3516120  34.9875380   7.2709050
 142.7912030  35.7299710   6.8564440 142.2903010  35.2301950   8.1948010
 137.8267090  36.0121210  18.1729070 137.7982520  36.4164160  17.3057500
 137.6632060  35.0831570  18.0100670 134.3420020  28.6681920   6.0746190
 134.2217620  29.3944010   5.4627460 134.0320910  27.8984830   5.5974100
 131.9805390  31.8397060  11.8814830 132.0585810  31.9745830  10.9370550
 132.5947070  31.1312950  12.0742950 133.2253020  33.5397250   8.2921010
 132.8181100  33.6811840   7.4374610 134.1166030  33.2557410   8.0892220
 143.0431900  37.6889160  15.1988060 143.5576570  37.5997170  16.0010490
 142.2000980  38.0348860  15.4915970 145.0186300  37.9744500   4.6272060
 144.8587440  37.6847440   5.5253890 144.8533010  37.1984630   4.0917290
 137.4974680  37.7543030   6.4043680 137.3217160  36.8378570   6.1911480
 136.6430420  38.1130320   6.6441480 144.7212430  35.4832060   3.1870060
 144.0277590  35.4809350   2.5272340 145.4635290  35.0591380   2.7564230
 144.2862360  37.1094770   7.2618550 144.7419310  36.3284150   7.5757170
 144.6254880  37.8201590   7.8059730 132.0364910  32.8811230  14.4209290
 132.1995950  32.4116590  13.6028660 132.5017360  32.3734790  15.0858130
 136.8083680  22.0116990   9.4569860 136.3651830  22.7926530   9.1254380
 137.3668670  22.3346880  10.1640800 141.0953490  24.8785510  15.0605180
 140.6332860  25.0868530  15.8725120 140.6931600  24.0644860  14.7575850
 146.0958000  26.0994460  16.1901840 145.2451590  25.8000210  16.5110910
 145.9359790  26.3436470  15.2785660 143.1907710  27.5996210  18.2900630
 143.5161120  26.7659960  17.9502860 143.9788040  28.1224730  18.4378960
 139.9242500  21.6327690   4.3375690 139.2996680  21.6287560   5.0629000
 139.8372620  20.7658650   3.9411660 138.8459580  22.5564320  11.3159460
 139.1431910  23.4627150  11.2351480 139.3945140  22.0683100  10.7019030
 136.5997900  27.1350560   7.1851110 136.3738820  26.9187730   8.0897730
 135.8190430  27.5679020   6.8397080 143.8295660  27.1413930   5.7841760
 143.2304550  27.8649730   5.6005380 144.3775270  27.0790710   5.0018210
 139.0397110  28.0336140  17.8511380 138.9440710  27.0930870  17.7011780
 139.8829090  28.2551210  17.4559450 142.4360530  25.7777470   7.8145040
 142.8290100  26.0949670   7.0013730 142.7977380  24.8989350   7.9289560
 134.1707650  24.4449810  16.0045160 133.7771040  25.2925020  16.2117940
 133.4826050  23.8076180  16.1953800 140.7452700  24.5284780  19.0741900
 140.0551020  24.3356980  19.7087990 141.4885000  24.8119420  19.6066200
 131.4724700  22.3678270  10.0375240 131.1837750  22.9381130  10.7500220
 132.2170460  21.8882720  10.4006470 143.0215670  28.3683220  11.9095820
 142.2896790  28.8770030  12.2585920 142.6240010  27.5513200  11.6084600
 139.4593060  25.0437420  10.3148310 139.4629120  24.6027370   9.4652850
 140.3544180  25.3654750  10.4220130 135.3095440  24.9263910   9.2742520
 134.9695490  25.4039140  10.0309570 134.5472760  24.4729030   8.9143620
 139.5213210  26.0449500   3.3055070 139.6426030  26.0035980   4.2540890
 139.1361720  26.9073650   3.1501800 143.4841580  23.8216900  11.3218760
 143.5014320  24.2725550  12.1660610 143.2357160  22.9222540  11.5352200
 138.5334710  28.3550640   2.7038370 137.9651610  27.9068890   2.0774280
 139.2423710  28.7143420   2.1703520 146.9112330  21.2349080  17.1605140
 147.2358100  20.5038740  17.6863120 146.9468840  20.9162720  16.2586130
 133.6103890  32.2562660  16.5805100 133.2258680  31.6156330  17.1788060
 133.9216080  32.9598780  17.1499830 139.7601030  29.1039200  12.0613720
 140.1271160  28.6297770  12.8075060 139.5706090  29.9780770  12.4022060
 132.6241520  23.8482890   8.1907190 132.3388440  23.4838560   9.0285810
 132.5620380  23.1163350   7.5770330 137.5500400  28.1447840  14.3797930
 137.2457470  29.0239820  14.6048290 138.5046860  28.2047630  14.4155370
 136.0782190  32.3508830   4.9764780 135.3044450  31.8106450   4.8163500
 136.8076820  31.8315440   4.6382540 146.8370170  31.3474190  10.7691170
 147.5569290  31.8429480  10.3787280 146.6351990  30.6692080  10.1245040
 142.2980110  22.7412150   4.9120560 141.4844720  22.2425320   4.8365870
 142.1042060  23.5810400   4.4956910 142.2188970  31.4183250  16.6560170
 142.1526280  30.4978920  16.4017760 141.5894110  31.5158690  17.3704810
 145.0128500  27.1131800   3.2082720 145.9008120  27.4249030   3.0334060
 144.9833590  26.2404050   2.8163300 136.1219590  32.0189210   8.6143590
 136.6398260  31.2157470   8.5600480 135.6703610  31.9568350   9.4560420
 141.0089090  33.2855490   3.8870890 141.3504790  34.0297720   3.3914210
 140.1801800  33.5986610   4.2495720 133.6064130  28.9850580  15.5269290
 133.2479070  29.6504430  16.1142630 133.3118690  28.1534130  15.8981910
 136.8077250  29.4434820  18.4108840 136.5077390  29.5892000  17.5136660
 137.5788490  28.8840110  18.3182230 142.1505700  34.2403820  16.4063970
 142.1650240  33.3084780  16.1882880 141.4430800  34.3263580  17.0453740
 147.2842770  28.4243640   2.6762580 147.2006490  28.8557860   1.8259020
 148.0036960  28.8841990   3.1089400 148.3130020  35.2785900   5.4044710
 147.6706180  34.6241520   5.6788430 147.9260680  35.6840990   4.6285380
 143.8916500  32.6071330   9.2516400 144.2440320  32.0099460   8.5917770
 143.0078830  32.2815560   9.4224650 139.9779780  33.3669020   6.6586810
 140.6650910  33.9138230   7.0394400 139.1912200  33.9109750   6.6936420
 132.1172180  28.9841840   2.1503890 132.9867030  29.2666640   2.4339810
 131.6262500  29.7977710   2.0352700 139.2806990  30.3715050   6.2712170
 139.7369770  31.1820300   6.4972360 138.9295200  30.0538190   7.1030660
 141.5839600  35.8821390  13.5004470 142.2281820  36.0880770  14.1777890
 141.9469040  35.1209790  13.0475320 135.1818770  20.7152700   6.7434690
 135.0533400  20.7070600   7.6919610 134.3580790  21.0535790   6.3925700
 142.8571680  33.8853740  12.2181920 143.4993910  33.1846900  12.3314090
 143.3821030  34.6652180  12.0378810 144.6309300  34.6848640  15.4217980
 144.9665540  35.2715330  16.0995900 143.7109640  34.5541350  15.6515770
 132.4843430  38.1969220   2.7165520 132.8441070  38.7958560   2.0622790
 132.3435770  38.7429110   3.4900550 132.1812700  22.4743820  16.2041390
 131.4671220  22.6740740  16.8094000 132.6007740  21.6983390  16.5756190
 146.2843650  32.0874300   3.6035220 145.9965350  32.5486990   4.3913100
 147.0795820  31.6272070   3.8719440 132.4685290  36.4624080  17.1907920
 132.5776410  35.5218820  17.0503310 131.8165850  36.7278830  16.5421650
 140.4597880  34.7339970  18.5906040 140.1394750  34.0149210  19.1351730
 139.7856240  35.4095040  18.6642100 138.5012050  35.5800420   3.5339190
 138.4922150  36.3130110   2.9183700 137.5810410  35.3332000   3.6266150
 134.1018690  30.8015310   4.2785950 133.4946640  31.5414210   4.2881250
 134.5768040  30.8914670   3.4524150 143.6751480  24.9666130  13.9542840
 144.0432300  24.1461340  14.2822410 142.8149680  25.0268020  14.3698490
 147.0413510  23.9223070   4.7630400 146.4126670  24.0268740   4.0488630
 146.5465430  24.1419850   5.5524280 139.0097540  26.2009020   6.1788280
 138.3013690  26.6695360   6.6201890 139.2942020  25.5431030   6.8133470
 140.6353470  27.6205720  14.1780810 141.1338720  28.0951540  14.8432660
 140.7776420  26.6969240  14.3850840 143.0412970  22.9259680   7.6184070
 142.9180750  22.9445810   6.6693580 143.9897530  22.9738620   7.7382470
 140.1289760  38.1614980   6.8912050 140.3831260  38.1236370   5.9691420
 139.1802240  38.0348310   6.8840300 137.2132560  24.5094100   3.5538990
 138.0623090  24.9464250   3.4879180 136.8463830  24.8214360   4.3811050
 147.8420330  23.8373680  15.0209200 147.3393930  24.5779080  15.3603010
 148.6576990  24.2257680  14.7045990 146.1342340  29.0806860   8.4670560
 145.1932480  29.0957090   8.6418250 146.4486410  28.2942820   8.9130860
 134.8070740  28.1951530   2.7107410 134.8874330  27.2479040   2.8224810
 135.6990490  28.5258410   2.8168070 135.6085450  38.3446920   9.8141950
 136.3447930  37.7962380  10.0850520 135.9926370  39.2102930   9.6747940
 132.4930930  34.4120490   5.6883460 131.5670710  34.6541630   5.6788870
 132.9587360  35.2394750   5.5668210 134.6143730  37.5292990  19.0027530
 135.4156460  37.8505040  19.4162930 134.0995550  37.1688570  19.7247440
 143.4508360  33.6372860  18.9502940 142.8446520  33.6604460  18.2098690
 143.1462470  32.9055900  19.4870190 144.8808730  37.3653150  17.5612350
 145.8330480  37.2811170  17.5112590 144.7336950  38.0294860  18.2346140
 147.7717930  36.7447360   3.0604260 147.4859440  36.3312500   2.2458440
 147.5737480  37.6735070   2.9404780 132.3341540  30.0166450  17.9463580
 132.8380560  29.4373730  18.5179810 131.5948960  30.3006680  18.4839950
 139.3879480  31.4237440  17.4799100 138.6225150  31.9922440  17.3953770
 139.5695440  31.1313650  16.5867330 142.4767890  31.8000670   2.1051860
 141.9277990  32.2469970   2.7494600 143.0987150  31.2949920   2.6289530
 146.5302830  33.1542770  18.0374120 147.2712300  33.4918530  17.5341580
 145.7675510  33.3234830  17.4843890 134.3664620  28.1596040  18.8413650
 134.4069960  27.8609910  19.7498880 135.2210120  28.5603650  18.6821170
 138.1443010  30.7591590   4.0017160 138.5659430  30.5931460   4.8448550
 138.2693850  29.9491820   3.5072300 136.3070430  26.7388140  16.8088140
 135.7766890  26.2479090  16.1811480 136.9758500  27.1672340  16.2746070
 145.2048490  31.2057600  16.5729330 145.6189510  31.3602680  17.4219750
 144.2699490  31.3312820  16.7355110 145.6770660  28.5453760  18.5768480
 146.2591430  27.7906080  18.4888960 145.8532430  29.0761200  17.7999960
 136.7942730  23.7050510  16.8885430 136.6999600  23.0871260  16.1636300
 136.2140120  24.4316800  16.6615340 139.5604170  22.2623750  13.9212820
 139.1121470  22.2848010  13.0758370 138.9269370  21.8642770  14.5183120
 139.9663720  31.1578080  14.5425260 140.3851830  32.0010810  14.3701500
 139.0472350  31.2950120  14.3132040 142.3027620  28.8894260  15.9263100
 142.4223830  28.2935400  16.6657940 143.1621620  28.9263950  15.5064400
 144.6415520  29.4431450  14.5025610 144.1150740  29.9674070  13.8990750
 144.9846860  30.0758840  15.1335340 137.8171140  37.4631090  15.6582990
 137.2792230  38.1877150  15.3391690 138.0705100  36.9861430  14.8680330
 139.0696390  25.4315610  17.1838920 139.6596080  25.1231460  17.8716740
 138.2516630  24.9595360  17.3398820 143.8889820  25.0481420  17.4171940
 143.2005340  24.3862960  17.3521930 144.6095840  24.6019690  17.8620400
 144.5190220  21.6433050   3.4762200 144.7992510  20.8000950   3.8321620
 143.7455950  21.8756160   3.9900950 140.6733350  38.6982300  15.9169640
 140.5992050  39.6017440  16.2242010 139.7712190  38.3794200  15.8891710
 141.2218680  37.8640810   3.5396000 142.1169470  38.2025780   3.5614760
 141.2536310  37.1420220   2.9120280 134.8614840  33.2367860   1.7683000
 135.2989710  33.7797530   2.4240580 135.3462570  32.4114810   1.7779340
 132.0760640  36.0256890   9.2203260 132.4063650  35.1577950   8.9881900
 132.5051640  36.2315410  10.0508220 136.6722560  34.3565900   6.8805230
 136.3718100  34.2330870   7.7809140 136.5660050  33.4974490   6.4720960
 132.5650850  36.8927480  11.9584890 132.1281840  37.0728280  12.7909040
 133.1328530  37.6502100  11.8166610 148.2013030  36.3944480  16.2462200
 147.6015020  36.4537040  15.5026120 148.3306930  35.4549460  16.3759050
 132.3975280  29.4047710   8.3173770 131.7424120  29.1359350   7.6733470
 133.2353230  29.2952190   7.8675750 146.8864670  33.1196460  14.3438360
 146.0724510  33.5493620  14.6064150 147.2938870  33.7314870  13.7307410
 145.3465720  24.1989000   2.5392260 145.7650600  24.0119980   1.6988920
 145.0401780  23.3468050   2.8495190 133.4351210  29.7900280  12.8577110
 133.8024250  29.7027680  13.7373130 132.8662030  29.0266830  12.7583970
 148.2355070  28.2584660  15.8707580 148.0041160  28.0297410  14.9705530
 148.4959620  29.1784210  15.8252470 132.9867210  26.7009370  16.7635530
 132.0923260  26.6676130  17.1029240 133.5264760  26.8996160  17.5286780
 146.6743140  23.4841090  18.6487280 147.5513320  23.4924490  19.0321280
 146.6863980  22.7471930  18.0379630 131.6113360  26.6146640   4.2599100
 130.7077440  26.8776840   4.0850760 132.0953980  26.8857810   3.4799060
 148.2996130  27.4210500  13.0594850 147.3498840  27.3874040  13.1739840
 148.4809140  28.3310610  12.8244620 147.6106380  26.5943980   5.4767710
 148.1065500  26.3614850   6.2616590 147.4122450  25.7555820   5.0605350
 133.4906920  20.9757700  11.1118750 134.1383110  20.4255080  10.6713910
 133.9108760  21.2300850  11.9334560 147.3859260  21.1699060  14.4688390
 148.0231480  21.7833200  14.8347580 147.5334150  21.2059720  13.5237620
 146.9440720  37.8715060   7.8706630 147.5399790  37.5499630   7.1941050
 147.2018870  37.3986880   8.6619900 133.2438920  21.1313370  13.8544070
 132.8953740  21.5877190  14.6202250 132.9126620  20.2370500  13.9366500
 134.8503290  34.3032970  18.0197260 134.8072920  33.9325880  18.9011720
 134.9814300  35.2410540  18.1599080 138.5509320  35.8592560  13.6206980
 138.3100680  36.1267120  12.7337500 139.4911960  36.0298290  13.6757840
 140.7563740  22.3225250  17.3763490 140.6952630  22.9147080  18.1258900
 141.6964120  22.2151210  17.2313750 143.3938300  21.9795310  17.0155780
 144.0078710  22.2974600  16.3536860 143.9387860  21.4943900  17.6351640
 133.9159560  20.6589570  17.1294840 134.4642550  20.4777620  16.3660950
 133.9814870  19.8683680  17.6651150 134.6891320  37.2495220  15.1395040
 134.0951640  37.1179920  15.8785080 134.6815160  36.4133360  14.6737140
 144.1346340  20.5427450  13.3425070 143.2606180  20.8762560  13.1398000
 144.0257090  20.0700630  14.1676940 145.0418320  22.7498320  14.7266790
 144.7131680  21.9350080  14.3468520 145.9900620  22.7068130  14.6032480
 147.4952930  38.5210360  11.7004360 147.0355900  39.2726170  11.3262380
 146.8665390  37.8016830  11.6419160 134.3203550  34.6153600  14.0903080
 133.5937610  33.9958890  14.0229030 134.3812700  35.0094210  13.2201160
 137.9248650  36.8298600  10.8752490 138.4413670  36.2185960  10.3500750
 138.5746030  37.3327380  11.3663500 140.6644150  37.7207090  11.7021470
 140.9521960  37.4661390  10.8254480 141.1767370  37.1684450  12.2927040
 141.8821160  21.4597290  12.2817980 141.0992950  21.9342790  12.5614740
 141.5884090  20.5552120  12.1731160 146.4342230  22.1620390  10.3267070
 146.8750320  22.1065490   9.4788670 146.1649820  23.0778400  10.3977250
 132.6033550  37.9327990   7.2999840 132.4355590  37.2998670   7.9981730
 131.7368060  38.1387390   6.9494030 133.2261570  21.7644770   4.8031700
 133.9840930  21.8773650   4.2295730 132.7638740  22.6013970   4.7575130
 139.7675380  23.8784040   7.7934010 138.9549890  23.5040930   7.4529890
 140.2717020  23.1229120   8.0955200 144.2700360  20.5426490   9.0317080
 144.8729730  21.1146700   9.5065600 143.5293350  21.1065930   8.8090980
 147.4134960  20.9448050   4.3057360 147.6085590  21.8431500   4.5724790
 146.6264830  20.7135130   4.7990310 134.2096250  36.6261220   4.7449980
 133.6843870  37.0069250   4.0411940 134.1340830  37.2511990   5.4659690
 135.5986720  22.2908820   3.3433670 136.1279480  21.5038620   3.2141620
 136.2315040  22.9700010   3.5769200 137.7924560  22.0283960   6.3979060
 137.1627300  21.3271270   6.5649190 137.2529700  22.7888090   6.1812220
 140.7316510  38.6423190  19.0689670 141.6583820  38.4067460  19.1125630
 140.7166940  39.4695190  18.5875700 137.9180120  21.3067940  18.8331550
 137.6364390  21.8101540  18.0692370 138.2999820  20.5089690  18.4673680
 136.8089220  38.5743600   3.6199230 137.5408040  38.2902880   3.0723120
 137.0682890  38.3356880   4.5098610 135.9704010  34.6908330   3.6245560
 135.3412890  35.1593430   4.1731390 136.0851840  33.8457550   4.0591750
 144.5195580  20.7221520  19.4112020 144.4061030  21.0416130  20.3063540
 145.3365320  21.1234030  19.1149300 147.2994070  37.8693050  18.8930710
 148.0919390  37.3742280  18.6856670 147.5927220  38.5483190  19.5006320
 143.4253730   9.9670500 139.9694680 143.3447780   9.0525110 139.6986390
 143.0118150  10.4637570 139.2634390 141.5571770  11.7449520 141.8503950
 140.7813870  11.2649960 142.1402520 142.2084700  11.0655170 141.6760110
 135.5737600  12.0569330 142.7279710 134.7422480  11.8018040 143.1276220
 136.1818580  12.1280100 143.4637630 145.5779200  16.1509710 140.6303080
 145.1160730  15.3796950 140.9590250 146.3904750  16.1775780 141.1355530
 135.5538860  16.0909420 142.9237730 135.8566900  15.2007160 142.7447950
 136.2982450  16.6479640 142.6959980 133.9829550   7.0171220 136.5122100
 133.0946250   7.3587190 136.4101980 134.2670740   6.8171540 135.6202930
 131.9462560   9.6176870 142.3961800 132.5178670   8.8499070 142.3965440
 131.9464100   9.9165630 141.4868410 141.8042510  18.4367720 140.2507070
 141.1853950  18.8925220 139.6801510 142.6594290  18.5919180 139.8496770
 140.9980760  14.4206710 141.8574110 140.9289040  13.4796650 141.6963240
 141.7600620  14.5108120 142.4296680 133.1887430   5.0261230 144.1830730
 133.0090270   4.1286980 144.4633490 132.7867510   5.5733100 144.8577680
 142.0285930   7.2277090 142.0843040 142.4050750   6.3548970 141.9716710
 141.9305440   7.5635790 141.1933480 136.1590940   5.6002720 137.5460480
 136.2657690   6.5006450 137.8529240 135.2483300   5.5520690 137.2555130
 145.8110050   4.7227530 139.0171380 146.6319670   4.2324100 139.0596860
 145.8444130   5.3125190 139.7703220 133.8074100   7.5221730 142.7913070
 134.4884210   7.7860100 143.4100470 133.4922150   6.6822600 143.1251080
 137.9998670   8.5689090 141.8785660 138.5076890   9.0670060 142.5190680
 138.5311910   7.7924290 141.7025020 136.2834770   3.2087650 146.1449080
 136.2853210   3.7260040 145.3394980 135.4539080   2.7317830 146.1219010
 142.6705860  13.3206960 137.6438980 142.0523130  13.7856410 137.0801700
 143.1829110  14.0134440 138.0608490 137.5337620  12.8482830 144.3222580
 137.2007000  13.4751750 144.9643650 137.7104300  13.3744710 143.5424250
 146.0471530   6.6627910 141.7898920 145.3427100   6.9512800 142.3702030
 146.4083690   7.4728020 141.4298480 135.9650100   4.9197610 144.1519530
 136.3066910   5.7639660 143.8573400 135.0265910   5.0681350 144.2684870
 136.7456720  14.8163630 146.1371760 137.3630720  15.4914710 145.8556210
 135.8849840  15.2251610 146.0459260 132.0389060  14.0063490 135.0178610
 131.6617040  14.4950590 134.2863510 132.2962130  14.6788770 135.6485140
 147.6634310  16.2803040 144.0526400 146.9797830  16.9502150 144.0443070
 148.2028600  16.4783690 143.2871260 139.6477990   2.4079880 140.4764120
 139.9552970   1.8526770 139.7599620 138.7178690   2.5424340 140.2937110
 145.1993050  18.1247170 142.7671580 145.2120210  17.7209460 141.8993840
 144.6468270  18.8994460 142.6633010 146.4938470  14.8463390 137.8561750
 146.3834800  13.9037720 137.9811170 146.4906720  15.2079030 138.7424510
 144.5978490  13.0277010 144.0954190 145.0147280  12.8137120 143.2607650
 145.3218310  13.2849800 144.6662810 142.0358750  10.4728710 137.2124240
 141.1088030  10.4066090 137.4412710 142.1883570  11.4108840 137.0979480
 142.0227830   6.7445710 134.2091400 141.0831500   6.9059670 134.2943860
 142.3411090   7.4631390 133.6627390 146.0656040  12.0349010 137.7159490
 145.4468460  11.6968560 137.0685790 146.0480490  11.3908770 138.4238680
 145.5082600   8.2133550 145.1325300 145.0953780   9.0387260 145.3865290
 144.7758550   7.6278590 144.9401660 137.6415390  10.9993450 139.9943970
 137.2372390  10.2870700 139.4989870 137.7278510  10.6546690 140.8832010
 138.1097090  14.6861010 142.1583180 137.8125380  14.0806480 141.4790960
 139.0596910  14.7238320 142.0472540 136.3544010   7.7736660 143.7743010
 136.9058600   7.8832000 142.9996260 136.8687520   8.1474260 144.4898240
 146.1982700  18.2592880 145.8206280 145.7213260  19.0665070 145.6278890
 145.5144490  17.6071210 145.9732490 137.2015520  14.4242700 148.8090980
 136.3044050  14.6482670 149.0564380 137.2268390  14.5477640 147.8602380
 144.2420740  11.2735820 134.7232240 144.6814020  10.4358250 134.5770060
 144.9549160  11.9065220 134.8096380 136.0286740  11.2956020 147.3848350
 135.8894510  12.1678820 147.7535750 135.1468100  10.9528830 147.2396290
 142.3516120  16.2131890 138.6913480 142.7912030  16.9556220 138.2768870
 142.2903010  16.4558460 139.6152440 137.8267090  17.2377720 149.5933500
 137.7982520  17.6420670 148.7261930 137.6632060  16.3088080 149.4305100
 147.8237880   2.5278630 133.0373280 147.5110540   2.6205460 133.9372350
 148.5850350   3.1059660 132.9870710 134.3420020   9.8938430 137.4950620
 134.2217620  10.6200520 136.8831890 134.0320910   9.1241340 137.0178530
 131.9805390  13.0653570 143.3019260 132.0585810  13.2002340 142.3574980
 132.5947070  12.3569460 143.4947380 133.2253020  14.7653760 139.7125440
 132.8181100  14.9068350 138.8579040 134.1166030  14.4813920 139.5096650
 143.0431900  18.9145670 146.6192490 143.5576570  18.8253680 147.4214920
 142.2000980  19.2605370 146.9120400 145.0186300  19.2001010 136.0476490
 144.8587440  18.9103950 136.9458320 144.8533010  18.4241140 135.5121720
 137.4974680  18.9799540 137.8248110 137.3217160  18.0635080 137.6115910
 136.6430420  19.3386830 138.0645910 144.7212430  16.7088570 134.6074490
 144.0277590  16.7065860 133.9476770 145.4635290  16.2847890 134.1768660
 144.2862360  18.3351280 138.6822980 144.7419310  17.5540660 138.9961600
 144.6254880  19.0458100 139.2264160 132.0364910  14.1067740 145.8413720
 132.1995950  13.6373100 145.0233090 132.5017360  13.5991300 146.5062560
 136.8083680   3.2373500 140.8774290 136.3651830   4.0183040 140.5458810
 137.3668670   3.5603390 141.5845230 141.0953490   6.1042020 146.4809610
 140.6332860   6.3125040 147.2929550 140.6931600   5.2901370 146.1780280
 146.0958000   7.3250970 147.6106270 145.2451590   7.0256720 147.9315340
 145.9359790   7.5692980 146.6990090 143.1907710   8.8252720 149.7105060
 143.5161120   7.9916470 149.3707290 143.9788040   9.3481240 149.8583390
 139.9242500   2.8584200 135.7580120 139.2996680   2.8544070 136.4833430
 139.8372620   1.9915160 135.3616090 138.8459580   3.7820830 142.7363890
 139.1431910   4.6883660 142.6555910 139.3945140   3.2939610 142.1223460
 136.5997900   8.3607070 138.6055540 136.3738820   8.1444240 139.5102160
 135.8190430   8.7935530 138.2601510 143.8295660   8.3670440 137.2046190
 143.2304550   9.0906240 137.0209810 144.3775270   8.3047220 136.4222640
 139.0397110   9.2592650 149.2715810 138.9440710   8.3187380 149.1216210
 139.8829090   9.4807720 148.8763880 142.4360530   7.0033980 139.2349470
 142.8290100   7.3206180 138.4218160 142.7977380   6.1245860 139.3493990
 134.1707650   5.6706320 147.4249590 133.7771040   6.5181530 147.6322370
 133.4826050   5.0332690 147.6158230 131.4724700   3.5934780 141.4579670
 131.1837750   4.1637640 142.1704650 132.2170460   3.1139230 141.8210900
 131.6594930   7.5354900 132.6682390 131.5769600   8.4785660 132.8097380
 131.3077990   7.3929810 131.7894740 143.0215670   9.5939730 143.3300250
 142.2896790  10.1026540 143.6790350 142.6240010   8.7769710 143.0289030
 139.4593060   6.2693930 141.7352740 139.4629120   5.8283880 140.8857280
 140.3544180   6.5911260 141.8424560 135.3095440   6.1520420 140.6946950
 134.9695490   6.6295650 141.4514000 134.5472760   5.6985540 140.3348050
 139.5213210   7.2706010 134.7259500 139.6426030   7.2292490 135.6745320
 139.1361720   8.1330160 134.5706230 143.4841580   5.0473410 142.7423190
 143.5014320   5.4982060 143.5865040 143.2357160   4.1479050 142.9556630
 138.5334710   9.5807150 134.1242800 137.9651610   9.1325400 133.4978710
 139.2423710   9.9399930 133.5907950 146.9112330   2.4605590 148.5809570
 147.2358100   1.7295250 149.1067550 146.9468840   2.1419230 147.6790560
 133.6103890  13.4819170 148.0009530 133.2258680  12.8412840 148.5992490
 133.9216080  14.1855290 148.5704260 139.7601030  10.3295710 143.4818150
 140.1271160   9.8554280 144.2279490 139.5706090  11.2037280 143.8226490
 132.6241520   5.0739400 139.6111620 132.3388440   4.7095070 140.4490240
 132.5620380   4.3419860 138.9974760 137.5500400   9.3704350 145.8002360
 137.2457470  10.2496330 146.0252720 138.5046860   9.4304140 145.8359800
 136.0782190  13.5765340 136.3969210 135.3044450  13.0362960 136.2367930
 136.8076820  13.0571950 136.0586970 146.8370170  12.5730700 142.1895600
 147.5569290  13.0685990 141.7991710 146.6351990  11.8948590 141.5449470
 142.2980110   3.9668660 136.3324990 141.4844720   3.4681830 136.2570300
 142.1042060   4.8066910 135.9161340 142.2188970  12.6439760 148.0764600
 142.1526280  11.7235430 147.8222190 141.5894110  12.7415200 148.7909240
 145.0128500   8.3388310 134.6287150 145.9008120   8.6505540 134.4538490
 144.9833590   7.4660560 134.2367730 136.1219590  13.2445720 140.0348020
 136.6398260  12.4413980 139.9804910 135.6703610  13.1824860 140.8764850
 141.0089090  14.5112000 135.3075320 141.3504790  15.2554230 134.8118640
 140.1801800  14.8243120 135.6700150 133.6064130  10.2107090 146.9473720
 133.2479070  10.8760940 147.5347060 133.3118690   9.3790640 147.3186340
 136.8077250  10.6691330 149.8313270 136.5077390  10.8148510 148.9341090
 137.5788490  10.1096620 149.7386660 142.1505700  15.4660330 147.8268400
 142.1650240  14.5341290 147.6087310 141.4430800  15.5520090 148.4658170
 147.2842770   9.6500150 134.0967010 147.2006490  10.0814370 133.2463450
 148.0036960  10.1098500 134.5293830 148.3130020  16.5042410 136.8249140
 147.6706180  15.8498030 137.0992860 147.9260680  16.9097500 136.0489810
 143.8916500  13.8327840 140.6720830 144.2440320  13.2355970 140.0122200
 143.0078830  13.5072070 140.8429080 139.9779780  14.5925530 138.0791240
 140.6650910  15.1394740 138.4598830 139.1912200  15.1366260 138.1140850
 132.1172180  10.2098350 133.5708320 132.9867030  10.4923150 133.8544240
 131.6262500  11.0234220 133.4557130 139.2806990  11.5971560 137.6916600
 139.7369770  12.4076810 137.9176790 138.9295200  11.2794700 138.5235090
 141.5839600  17.1077900 144.9208900 142.2281820  17.3137280 145.5982320
 141.9469040  16.3466300 144.4679750 135.1818770   1.9409210 138.1639120
 135.0533400   1.9327110 139.1124040 134.3580790   2.2792300 137.8130130
 142.8571680  15.1110250 143.6386350 143.4993910  14.4103410 143.7518520
 143.3821030  15.8908690 143.4583240 146.7027400  15.3958870 133.3625490
 146.4764980  14.6789310 133.9550130 146.3123600  15.1471310 132.5247240
 144.6309300  15.9105150 146.8422410 144.9665540  16.4971840 147.5200330
 143.7109640  15.7797860 147.0720200 132.4843430  19.4225730 134.1369950
 132.8441070  20.0215070 133.4827220 132.3435770  19.9685620 134.9104980
 132.1812700   3.7000330 147.6245820 131.4671220   3.8997250 148.2298430
 132.6007740   2.9239900 147.9960620 146.2843650  13.3130810 135.0239650
 145.9965350  13.7743500 135.8117530 147.0795820  12.8528580 135.2923870
 132.4685290  17.6880590 148.6112350 132.5776410  16.7475330 148.4707740
 131.8165850  17.9535340 147.9626080 138.5012050  16.8056930 134.9543620
 138.4922150  17.5386620 134.3388130 137.5810410  16.5588510 135.0470580
 134.1018690  12.0271820 135.6990380 133.4946640  12.7670720 135.7085680
 134.5768040  12.1171180 134.8728580 143.6751480   6.1922640 145.3747270
 144.0432300   5.3717850 145.7026840 142.8149680   6.2524530 145.7902920
 147.0413510   5.1479580 136.1834830 146.4126670   5.2525250 135.4693060
 146.5465430   5.3676360 136.9728710 141.4871650  16.8685170 133.6168810
 141.5883630  16.6649160 132.6870790 140.5873390  16.6143450 133.8216590
 139.0097540   7.4265530 137.5992710 138.3013690   7.8951870 138.0406320
 139.2942020   6.7687540 138.2337900 140.6353470   8.8462230 145.5985240
 141.1338720   9.3208050 146.2637090 140.7776420   7.9225750 145.8055270
 143.0412970   4.1516190 139.0388500 142.9180750   4.1702320 138.0898010
 143.9897530   4.1995130 139.1586900 140.1289760  19.3871490 138.3116480
 140.3831260  19.3492880 137.3895850 139.1802240  19.2604820 138.3044730
 137.2132560   5.7350610 134.9743420 138.0623090   6.1720760 134.9083610
 136.8463830   6.0470870 135.8015480 147.8420330   5.0630190 146.4413630
 147.3393930   5.8035590 146.7807440 148.6576990   5.4514190 146.1250420
 146.1342340  10.3063370 139.8874990 145.1932480  10.3213600 140.0622680
 146.4486410   9.5199330 140.3335290 136.1123980  11.9882970 133.4478950
 136.8787250  11.8764330 134.0104380 136.1898670  11.2920940 132.7955720
 134.8070740   9.4208040 134.1311840 134.8874330   8.4735550 134.2429240
 135.6990490   9.7514920 134.2372500 135.6085450  19.5703430 141.2346380
 136.3447930  19.0218890 141.5054950 135.9926370  20.4359440 141.0952370
 132.4930930  15.6377000 137.1087890 131.5670710  15.8798140 137.0993300
 132.9587360  16.4651260 136.9872640 138.7187760  18.7433740 133.0571950
 139.5116370  19.0322570 132.6053740 138.1992110  18.3125910 132.3784430
 144.8808730  18.5909660 148.9816780 145.8330480  18.5067680 148.9317020
 144.7336950  19.2551370 149.6550570 147.7717930  17.9703870 134.4808690
 147.4859440  17.5569010 133.6662870 147.5737480  18.8991580 134.3609210
 132.3341540  11.2422960 149.3668010 132.8380560  10.6630240 149.9384240
 131.5948960  11.5263190 149.9044380 139.2365160  13.9637150 132.9214300
 139.1315800  13.3489500 133.6475680 139.0689380  13.4403040 132.1377310
 139.3879480  12.6493950 148.9003530 138.6225150  13.2178950 148.8158200
 139.5695440  12.3570160 148.0071760 142.4767890  13.0257180 133.5256290
 141.9277990  13.4726480 134.1699030 143.0987150  12.5206430 134.0493960
 146.5302830  14.3799280 149.4578550 147.2712300  14.7175040 148.9546010
 145.7675510  14.5491340 148.9048320 138.1443010  11.9848100 135.4221590
 138.5659430  11.8187970 136.2652980 138.2693850  11.1748330 134.9276730
 136.3070430   7.9644650 148.2292570 135.7766890   7.4735600 147.6015910
 136.9758500   8.3928850 147.6950500 140.6570650  11.0085710 132.6698690
 141.1776310  10.2934730 132.3039840 141.3039050  11.6471580 132.9699200
 145.2048490  12.4314110 147.9933760 145.6189510  12.5859190 148.8424180
 144.2699490  12.5569330 148.1559540 145.6770660   9.7710270 149.9972910
 146.2591430   9.0162590 149.9093390 145.8532430  10.3017710 149.2204390
 136.7942730   4.9307020 148.3089860 136.6999600   4.3127770 147.5840730
 136.2140120   5.6573310 148.0819770 139.5604170   3.4880260 145.3417250
 139.1121470   3.5104520 144.4962800 138.9269370   3.0899280 145.9387550
 139.9663720  12.3834590 145.9629690 140.3851830  13.2267320 145.7905930
 139.0472350  12.5206630 145.7336470 142.3027620  10.1150770 147.3467530
 142.4223830   9.5191910 148.0862370 143.1621620  10.1520460 146.9268830
 144.6415520  10.6687960 145.9230040 144.1150740  11.1930580 145.3195180
 144.9846860  11.3015350 146.5539770 137.0401910   8.0581330 132.3679750
 136.8390970   7.1948690 132.7293090 136.8693960   7.9714690 131.4301350
 137.8171140  18.6887600 147.0787420 137.2792230  19.4133660 146.7596120
 138.0705100  18.2117940 146.2884760 139.0696390   6.6572120 148.6043350
 139.6596080   6.3487970 149.2921170 138.2516630   6.1851870 148.7603250
 143.8889820   6.2737930 148.8376370 143.2005340   5.6119470 148.7726360
 144.6095840   5.8276200 149.2824830 144.5190220   2.8689560 134.8966630
 144.7992510   2.0257460 135.2526050 143.7455950   3.1012670 135.4105380
 135.8384710   5.1581950 132.3557630 136.1410610   5.1649380 131.4476780
 136.5779300   4.8079810 132.8525290 140.6733350  19.9238810 147.3374070
 140.5992050  20.8273950 147.6446440 139.7712190  19.6050710 147.3096140
 139.0569640   4.1016570 133.3413830 138.7091640   3.4240560 132.7616280
 139.2582410   3.6406080 134.1557220 141.2218680  19.0897320 134.9600430
 142.1169470  19.4282290 134.9819190 141.2536310  18.3676730 134.3324710
 134.8614840  14.4624370 133.1887430 135.2989710  15.0054040 133.8445010
 135.3462570  13.6371320 133.1983770 132.0760640  17.2513400 140.6407690
 132.4063650  16.3834460 140.4086330 132.5051640  17.4571920 141.4712650
 136.6722560  15.5822410 138.3009660 136.3718100  15.4587380 139.2013570
 136.5660050  14.7231000 137.8925390 132.5650850  18.1183990 143.3789320
 132.1281840  18.2984790 144.2113470 133.1328530  18.8758610 143.2371040
 148.2013030  17.6200990 147.6666630 147.6015020  17.6793550 146.9230550
 148.3306930  16.6805970 147.7963480 132.3975280  10.6304220 139.7378200
 131.7424120  10.3615860 139.0937900 133.2353230  10.5208700 139.2880180
 146.8864670  14.3452970 145.7642790 146.0724510  14.7750130 146.0268580
 147.2938870  14.9571380 145.1511840 145.3465720   5.4245510 133.9596690
 145.7650600   5.2376490 133.1193350 145.0401780   4.5724560 134.2699620
 133.4351210  11.0156790 144.2781540 133.8024250  10.9284190 145.1577560
 132.8662030  10.2523340 144.1788400 148.2355070   9.4841170 147.2912010
 148.0041160   9.2553920 146.3909960 148.4959620  10.4040720 147.2456900
 132.9867210   7.9265880 148.1839960 132.0923260   7.8932640 148.5233670
 133.5264760   8.1252670 148.9491210 131.6113360   7.8403150 135.6803530
 130.7077440   8.1033350 135.5055190 132.0953980   8.1114320 134.9003490
 148.2996130   8.6467010 144.4799280 147.3498840   8.6130550 144.5944270
 148.4809140   9.5567120 144.2449050 134.1540570   6.8968690 133.5897910
 134.8632270   6.4751910 133.1045190 133.4380510   6.9643920 132.9581260
 133.8014730   2.9508020 132.6300560 134.5242860   3.4916960 132.9481780
 134.0739250   2.6771440 131.7542100 147.6106380   7.8200490 136.8972140
 148.1065500   7.5871360 137.6821020 147.4122450   6.9812330 136.4809780
 133.4906920   2.2014210 142.5323180 134.1383110   1.6511590 142.0918340
 133.9108760   2.4557360 143.3538990 147.3859260   2.3955570 145.8892820
 148.0231480   3.0089710 146.2552010 147.5334150   2.4316230 144.9442050
 146.9440720  19.0971570 139.2911060 147.5399790  18.7756140 138.6145480
 147.2018870  18.6243390 140.0824330 133.2438920   2.3569880 145.2748500
 132.8953740   2.8133700 146.0406680 132.9126620   1.4627010 145.3570930
 138.5509320  17.0849070 145.0411410 138.3100680  17.3523630 144.1541930
 139.4911960  17.2554800 145.0962270 140.7563740   3.5481760 148.7967920
 140.6952630   4.1403590 149.5463330 141.6964120   3.4407720 148.6518180
 143.3938300   3.2051820 148.4360210 144.0078710   3.5231110 147.7741290
 143.9387860   2.7200410 149.0556070 134.6891320  18.4751730 146.5599470
 134.0951640  18.3436430 147.2989510 134.6815160  17.6389870 146.0941570
 145.0418320   3.9754830 146.1471220 144.7131680   3.1606590 145.7672950
 145.9900620   3.9324640 146.0236910 147.4952930  19.7466870 143.1208790
 147.0355900  20.4982680 142.7466810 146.8665390  19.0273340 143.0623590
 134.3203550  15.8410110 145.5107510 133.5937610  15.2215400 145.4433460
 134.3812700  16.2350720 144.6405590 137.9248650  18.0555110 142.2956920
 138.4413670  17.4442470 141.7705180 138.5746030  18.5583890 142.7867930
 140.6644150  18.9463600 143.1225900 140.9521960  18.6917900 142.2458910
 141.1767370  18.3940960 143.7131470 141.8821160   2.6853800 143.7022410
 141.0992950   3.1599300 143.9819170 141.5884090   1.7808630 143.5935590
 146.4342230   3.3876900 141.7471500 146.8750320   3.3322000 140.8993100
 146.1649820   4.3034910 141.8181680 132.6033550  19.1584500 138.7204270
 132.4355590  18.5255180 139.4186160 131.7368060  19.3643900 138.3698460
 133.2261570   2.9901280 136.2236130 133.9840930   3.1030160 135.6500160
 132.7638740   3.8270480 136.1779560 139.7675380   5.1040550 139.2138440
 138.9549890   4.7297440 138.8734320 140.2717020   4.3485630 139.5159630
 144.2700360   1.7683000 140.4521510 144.8729730   2.3403210 140.9270030
 143.5293350   2.3322440 140.2295410 147.4134960   2.1704560 135.7261790
 147.6085590   3.0688010 135.9929220 146.6264830   1.9391640 136.2194740
 134.2096250  17.8517730 136.1654410 133.6843870  18.2325760 135.4616370
 134.1340830  18.4768500 136.8864120 135.5986720   3.5165330 134.7638100
 136.1279480   2.7295130 134.6346050 136.2315040   4.1956520 134.9973630
 137.7924560   3.2540470 137.8183490 137.1627300   2.5527780 137.9853620
 137.2529700   4.0144600 137.6016650 136.8089220  19.8000110 135.0403660
 137.5408040  19.5159390 134.4927550 137.0682890  19.5613390 135.9303040
 135.9704010  15.9164840 135.0449990 135.3412890  16.3849940 135.5935820
 136.0851840  15.0714060 135.4796180 143.4253730   9.9670500 121.1951190
 143.3447780   9.0525110 120.9242900 143.0118150  10.4637570 120.4890900
 141.5571770  11.7449520 123.0760460 140.7813870  11.2649960 123.3659030
 142.2084700  11.0655170 122.9016620 135.5737600  12.0569330 123.9536220
 134.7422480  11.8018040 124.3532730 136.1818580  12.1280100 124.6894140
 145.5779200  16.1509710 121.8559590 145.1160730  15.3796950 122.1846760
 146.3904750  16.1775780 122.3612040 135.5538860  16.0909420 124.1494240
 135.8566900  15.2007160 123.9704460 136.2982450  16.6479640 123.9216490
 133.9829550   7.0171220 117.7378610 133.0946250   7.3587190 117.6358490
 134.2670740   6.8171540 116.8459440 131.9462560   9.6176870 123.6218310
 132.5178670   8.8499070 123.6221950 131.9464100   9.9165630 122.7124920
 141.8042510  18.4367720 121.4763580 141.1853950  18.8925220 120.9058020
 142.6594290  18.5919180 121.0753280 140.9980760  14.4206710 123.0830620
 140.9289040  13.4796650 122.9219750 141.7600620  14.5108120 123.6553190
 133.1887430   5.0261230 125.4087240 133.0090270   4.1286980 125.6890000
 132.7867510   5.5733100 126.0834190 142.0285930   7.2277090 123.3099550
 142.4050750   6.3548970 123.1973220 141.9305440   7.5635790 122.4189990
 136.1590940   5.6002720 118.7716990 136.2657690   6.5006450 119.0785750
 135.2483300   5.5520690 118.4811640 145.8110050   4.7227530 120.2427890
 146.6319670   4.2324100 120.2853370 145.8444130   5.3125190 120.9959730
 133.8074100   7.5221730 124.0169580 134.4884210   7.7860100 124.6356980
 133.4922150   6.6822600 124.3507590 137.9998670   8.5689090 123.1042170
 138.5076890   9.0670060 123.7447190 138.5311910   7.7924290 122.9281530
 136.2834770   3.2087650 127.3705590 136.2853210   3.7260040 126.5651490
 135.4539080   2.7317830 127.3475520 142.6705860  13.3206960 118.8695490
 142.0523130  13.7856410 118.3058210 143.1829110  14.0134440 119.2865000
 137.5337620  12.8482830 125.5479090 137.2007000  13.4751750 126.1900160
 137.7104300  13.3744710 124.7680760 146.0471530   6.6627910 123.0155430
 145.3427100   6.9512800 123.5958540 146.4083690   7.4728020 122.6554990
 135.9650100   4.9197610 125.3776040 136.3066910   5.7639660 125.0829910
 135.0265910   5.0681350 125.4941380 136.7456720  14.8163630 127.3628270
 137.3630720  15.4914710 127.0812720 135.8849840  15.2251610 127.2715770
 132.0389060  14.0063490 116.2435120 131.6617040  14.4950590 115.5120020
 132.2962130  14.6788770 116.8741650 147.6634310  16.2803040 125.2782910
 146.9797830  16.9502150 125.2699580 148.2028600  16.4783690 124.5127770
 139.6477990   2.4079880 121.7020630 139.9552970   1.8526770 120.9856130
 138.7178690   2.5424340 121.5193620 145.1993050  18.1247170 123.9928090
 145.2120210  17.7209460 123.1250350 144.6468270  18.8994460 123.8889520
 146.4938470  14.8463390 119.0818260 146.3834800  13.9037720 119.2067680
 146.4906720  15.2079030 119.9681020 144.5978490  13.0277010 125.3210700
 145.0147280  12.8137120 124.4864160 145.3218310  13.2849800 125.8919320
 142.0358750  10.4728710 118.4380750 141.1088030  10.4066090 118.6669220
 142.1883570  11.4108840 118.3235990 142.0227830   6.7445710 115.4347910
 141.0831500   6.9059670 115.5200370 142.3411090   7.4631390 114.8883900
 146.0656040  12.0349010 118.9416000 145.4468460  11.6968560 118.2942300
 146.0480490  11.3908770 119.6495190 145.5082600   8.2133550 126.3581810
 145.0953780   9.0387260 126.6121800 144.7758550   7.6278590 126.1658170
 137.6415390  10.9993450 121.2200480 137.2372390  10.2870700 120.7246380
 137.7278510  10.6546690 122.1088520 138.1097090  14.6861010 123.3839690
 137.8125380  14.0806480 122.7047470 139.0596910  14.7238320 123.2729050
 136.3544010   7.7736660 124.9999520 136.9058600   7.8832000 124.2252770
 136.8687520   8.1474260 125.7154750 146.1982700  18.2592880 127.0462790
 145.7213260  19.0665070 126.8535400 145.5144490  17.6071210 127.1989000
 137.2015520  14.4242700 130.0347490 136.3044050  14.6482670 130.2820890
 137.2268390  14.5477640 129.0858890 144.2420740  11.2735820 115.9488750
 144.6814020  10.4358250 115.8026570 144.9549160  11.9065220 116.0352890
 136.0286740  11.2956020 128.6104860 135.8894510  12.1678820 128.9792260
 135.1468100  10.9528830 128.4652800 142.3516120  16.2131890 119.9169990
 142.7912030  16.9556220 119.5025380 142.2903010  16.4558460 120.8408950
 137.8267090  17.2377720 130.8190010 137.7982520  17.6420670 129.9518440
 137.6632060  16.3088080 130.6561610 147.8237880   2.5278630 114.2629790
 147.5110540   2.6205460 115.1628860 148.5850350   3.1059660 114.2127220
 134.3420020   9.8938430 118.7207130 134.2217620  10.6200520 118.1088400
 134.0320910   9.1241340 118.2435040 131.9805390  13.0653570 124.5275770
 132.0585810  13.2002340 123.5831490 132.5947070  12.3569460 124.7203890
 133.2253020  14.7653760 120.9381950 132.8181100  14.9068350 120.0835550
 134.1166030  14.4813920 120.7353160 143.0431900  18.9145670 127.8449000
 143.5576570  18.8253680 128.6471430 142.2000980  19.2605370 128.1376910
 145.0186300  19.2001010 117.2733000 144.8587440  18.9103950 118.1714830
 144.8533010  18.4241140 116.7378230 137.4974680  18.9799540 119.0504620
 137.3217160  18.0635080 118.8372420 136.6430420  19.3386830 119.2902420
 144.7212430  16.7088570 115.8331000 144.0277590  16.7065860 115.1733280
 145.4635290  16.2847890 115.4025170 144.2862360  18.3351280 119.9079490
 144.7419310  17.5540660 120.2218110 144.6254880  19.0458100 120.4520670
 132.0364910  14.1067740 127.0670230 132.1995950  13.6373100 126.2489600
 132.5017360  13.5991300 127.7319070 136.8083680   3.2373500 122.1030800
 136.3651830   4.0183040 121.7715320 137.3668670   3.5603390 122.8101740
 141.0953490   6.1042020 127.7066120 140.6332860   6.3125040 128.5186060
 140.6931600   5.2901370 127.4036790 146.0958000   7.3250970 128.8362780
 145.2451590   7.0256720 129.1571850 145.9359790   7.5692980 127.9246600
 143.1907710   8.8252720 130.9361570 143.5161120   7.9916470 130.5963800
 143.9788040   9.3481240 131.0839900 139.9242500   2.8584200 116.9836630
 139.2996680   2.8544070 117.7089940 139.8372620   1.9915160 116.5872600
 138.8459580   3.7820830 123.9620400 139.1431910   4.6883660 123.8812420
 139.3945140   3.2939610 123.3479970 136.5997900   8.3607070 119.8312050
 136.3738820   8.1444240 120.7358670 135.8190430   8.7935530 119.4858020
 143.8295660   8.3670440 118.4302700 143.2304550   9.0906240 118.2466320
 144.3775270   8.3047220 117.6479150 139.0397110   9.2592650 130.4972320
 138.9440710   8.3187380 130.3472720 139.8829090   9.4807720 130.1020390
 142.4360530   7.0033980 120.4605980 142.8290100   7.3206180 119.6474670
 142.7977380   6.1245860 120.5750500 134.1707650   5.6706320 128.6506100
 133.7771040   6.5181530 128.8578880 133.4826050   5.0332690 128.8414740
 140.7452700   5.7541290 131.7202840 140.0551020   5.5613490 132.3548930
 141.4885000   6.0375930 132.2527140 131.4724700   3.5934780 122.6836180
 131.1837750   4.1637640 123.3961160 132.2170460   3.1139230 123.0467410
 131.6594930   7.5354900 113.8938900 131.5769600   8.4785660 114.0353890
 131.3077990   7.3929810 113.0151250 143.0215670   9.5939730 124.5556760
 142.2896790  10.1026540 124.9046860 142.6240010   8.7769710 124.2545540
 139.4593060   6.2693930 122.9609250 139.4629120   5.8283880 122.1113790
 140.3544180   6.5911260 123.0681070 135.3095440   6.1520420 121.9203460
 134.9695490   6.6295650 122.6770510 134.5472760   5.6985540 121.5604560
 139.5213210   7.2706010 115.9516010 139.6426030   7.2292490 116.9001830
 139.1361720   8.1330160 115.7962740 143.4841580   5.0473410 123.9679700
 143.5014320   5.4982060 124.8121550 143.2357160   4.1479050 124.1813140
 138.5334710   9.5807150 115.3499310 137.9651610   9.1325400 114.7235220
 139.2423710   9.9399930 114.8164460 146.9112330   2.4605590 129.8066080
 147.2358100   1.7295250 130.3324060 146.9468840   2.1419230 128.9047070
 133.6103890  13.4819170 129.2266040 133.2258680  12.8412840 129.8249000
 133.9216080  14.1855290 129.7960770 139.7601030  10.3295710 124.7074660
 140.1271160   9.8554280 125.4536000 139.5706090  11.2037280 125.0483000
 132.6241520   5.0739400 120.8368130 132.3388440   4.7095070 121.6746750
 132.5620380   4.3419860 120.2231270 137.5500400   9.3704350 127.0258870
 137.2457470  10.2496330 127.2509230 138.5046860   9.4304140 127.0616310
 136.0782190  13.5765340 117.6225720 135.3044450  13.0362960 117.4624440
 136.8076820  13.0571950 117.2843480 146.8370170  12.5730700 123.4152110
 147.5569290  13.0685990 123.0248220 146.6351990  11.8948590 122.7705980
 142.2980110   3.9668660 117.5581500 141.4844720   3.4681830 117.4826810
 142.1042060   4.8066910 117.1417850 142.2188970  12.6439760 129.3021110
 142.1526280  11.7235430 129.0478700 141.5894110  12.7415200 130.0165750
 145.0128500   8.3388310 115.8543660 145.9008120   8.6505540 115.6795000
 144.9833590   7.4660560 115.4624240 136.1219590  13.2445720 121.2604530
 136.6398260  12.4413980 121.2061420 135.6703610  13.1824860 122.1021360
 141.0089090  14.5112000 116.5331830 141.3504790  15.2554230 116.0375150
 140.1801800  14.8243120 116.8956660 133.6064130  10.2107090 128.1730230
 133.2479070  10.8760940 128.7603570 133.3118690   9.3790640 128.5442850
 136.8077250  10.6691330 131.0569780 136.5077390  10.8148510 130.1597600
 137.5788490  10.1096620 130.9643170 142.1505700  15.4660330 129.0524910
 142.1650240  14.5341290 128.8343820 141.4430800  15.5520090 129.6914680
 147.2842770   9.6500150 115.3223520 147.2006490  10.0814370 114.4719960
 148.0036960  10.1098500 115.7550340 148.3130020  16.5042410 118.0505650
 147.6706180  15.8498030 118.3249370 147.9260680  16.9097500 117.2746320
 143.8916500  13.8327840 121.8977340 144.2440320  13.2355970 121.2378710
 143.0078830  13.5072070 122.0685590 139.9779780  14.5925530 119.3047750
 140.6650910  15.1394740 119.6855340 139.1912200  15.1366260 119.3397360
 132.1172180  10.2098350 114.7964830 132.9867030  10.4923150 115.0800750
 131.6262500  11.0234220 114.6813640 139.2806990  11.5971560 118.9173110
 139.7369770  12.4076810 119.1433300 138.9295200  11.2794700 119.7491600
 141.5839600  17.1077900 126.1465410 142.2281820  17.3137280 126.8238830
 141.9469040  16.3466300 125.6936260 135.1818770   1.9409210 119.3895630
 135.0533400   1.9327110 120.3380550 134.3580790   2.2792300 119.0386640
 142.8571680  15.1110250 124.8642860 143.4993910  14.4103410 124.9775030
 143.3821030  15.8908690 124.6839750 146.7027400  15.3958870 114.5882000
 146.4764980  14.6789310 115.1806640 146.3123600  15.1471310 113.7503750
 144.6309300  15.9105150 128.0678920 144.9665540  16.4971840 128.7456840
 143.7109640  15.7797860 128.2976710 132.4843430  19.4225730 115.3626460
 132.8441070  20.0215070 114.7083730 132.3435770  19.9685620 116.1361490
 132.1812700   3.7000330 128.8502330 131.4671220   3.8997250 129.4554940
 132.6007740   2.9239900 129.2217130 146.2843650  13.3130810 116.2496160
 145.9965350  13.7743500 117.0374040 147.0795820  12.8528580 116.5180380
 132.4685290  17.6880590 129.8368860 132.5776410  16.7475330 129.6964250
 131.8165850  17.9535340 129.1882590 140.4597880  15.9596480 131.2366980
 140.1394750  15.2405720 131.7812670 139.7856240  16.6351550 131.3103040
 138.5012050  16.8056930 116.1800130 138.4922150  17.5386620 115.5644640
 137.5810410  16.5588510 116.2727090 134.1018690  12.0271820 116.9246890
 133.4946640  12.7670720 116.9342190 134.5768040  12.1171180 116.0985090
 143.6751480   6.1922640 126.6003780 144.0432300   5.3717850 126.9283350
 142.8149680   6.2524530 127.0159430 147.0413510   5.1479580 117.4091340
 146.4126670   5.2525250 116.6949570 146.5465430   5.3676360 118.1985220
 141.4871650  16.8685170 114.8425320 141.5883630  16.6649160 113.9127300
 140.5873390  16.6143450 115.0473100 139.0097540   7.4265530 118.8249220
 138.3013690   7.8951870 119.2662830 139.2942020   6.7687540 119.4594410
 140.6353470   8.8462230 126.8241750 141.1338720   9.3208050 127.4893600
 140.7776420   7.9225750 127.0311780 143.0412970   4.1516190 120.2645010
 142.9180750   4.1702320 119.3154520 143.9897530   4.1995130 120.3843410
 140.1289760  19.3871490 119.5372990 140.3831260  19.3492880 118.6152360
 139.1802240  19.2604820 119.5301240 137.2132560   5.7350610 116.1999930
 138.0623090   6.1720760 116.1340120 136.8463830   6.0470870 117.0271990
 147.8420330   5.0630190 127.6670140 147.3393930   5.8035590 128.0063950
 148.6576990   5.4514190 127.3506930 146.1342340  10.3063370 121.1131500
 145.1932480  10.3213600 121.2879190 146.4486410   9.5199330 121.5591800
 136.1123980  11.9882970 114.6735460 136.8787250  11.8764330 115.2360890
 136.1898670  11.2920940 114.0212230 134.8070740   9.4208040 115.3568350
 134.8874330   8.4735550 115.4685750 135.6990490   9.7514920 115.4629010
 135.6085450  19.5703430 122.4602890 136.3447930  19.0218890 122.7311460
 135.9926370  20.4359440 122.3208880 132.4930930  15.6377000 118.3344400
 131.5670710  15.8798140 118.3249810 132.9587360  16.4651260 118.2129150
 134.6143730  18.7549500 131.6488470 135.4156460  19.0761550 132.0623870
 134.0995550  18.3945080 132.3708380 138.7187760  18.7433740 114.2828460
 139.5116370  19.0322570 113.8310250 138.1992110  18.3125910 113.6040940
 143.4508360  14.8629370 131.5963880 142.8446520  14.8860970 130.8559630
 143.1462470  14.1312410 132.1331130 144.8808730  18.5909660 130.2073290
 145.8330480  18.5067680 130.1573530 144.7336950  19.2551370 130.8807080
 147.7717930  17.9703870 115.7065200 147.4859440  17.5569010 114.8919380
 147.5737480  18.8991580 115.5865720 132.3341540  11.2422960 130.5924520
 132.8380560  10.6630240 131.1640750 131.5948960  11.5263190 131.1300890
 139.2365160  13.9637150 114.1470810 139.1315800  13.3489500 114.8732190
 139.0689380  13.4403040 113.3633820 139.3879480  12.6493950 130.1260040
 138.6225150  13.2178950 130.0414710 139.5695440  12.3570160 129.2328270
 142.4767890  13.0257180 114.7512800 141.9277990  13.4726480 115.3955540
 143.0987150  12.5206430 115.2750470 146.5302830  14.3799280 130.6835060
 147.2712300  14.7175040 130.1802520 145.7675510  14.5491340 130.1304830
 134.3664620   9.3852550 131.4874590 134.4069960   9.0866420 132.3959820
 135.2210120   9.7860160 131.3282110 138.1443010  11.9848100 116.6478100
 138.5659430  11.8187970 117.4909490 138.2693850  11.1748330 116.1533240
 136.3070430   7.9644650 129.4549080 135.7766890   7.4735600 128.8272420
 136.9758500   8.3928850 128.9207010 140.6570650  11.0085710 113.8955200
 141.1776310  10.2934730 113.5296350 141.3039050  11.6471580 114.1955710
 145.2048490  12.4314110 129.2190270 145.6189510  12.5859190 130.0680690
 144.2699490  12.5569330 129.3816050 145.6770660   9.7710270 131.2229420
 146.2591430   9.0162590 131.1349900 145.8532430  10.3017710 130.4460900
 136.7942730   4.9307020 129.5346370 136.6999600   4.3127770 128.8097240
 136.2140120   5.6573310 129.3076280 139.5604170   3.4880260 126.5673760
 139.1121470   3.5104520 125.7219310 138.9269370   3.0899280 127.1644060
 139.9663720  12.3834590 127.1886200 140.3851830  13.2267320 127.0162440
 139.0472350  12.5206630 126.9592980 142.3027620  10.1150770 128.5724040
 142.4223830   9.5191910 129.3118880 143.1621620  10.1520460 128.1525340
 144.6415520  10.6687960 127.1486550 144.1150740  11.1930580 126.5451690
 144.9846860  11.3015350 127.7796280 137.0401910   8.0581330 113.5936260
 136.8390970   7.1948690 113.9549600 136.8693960   7.9714690 112.6557860
 137.8171140  18.6887600 128.3043930 137.2792230  19.4133660 127.9852630
 138.0705100  18.2117940 127.5141270 139.0696390   6.6572120 129.8299860
 139.6596080   6.3487970 130.5177680 138.2516630   6.1851870 129.9859760
 143.8889820   6.2737930 130.0632880 143.2005340   5.6119470 129.9982870
 144.6095840   5.8276200 130.5081340 144.5190220   2.8689560 116.1223140
 144.7992510   2.0257460 116.4782560 143.7455950   3.1012670 116.6361890
 135.8384710   5.1581950 113.5814140 136.1410610   5.1649380 112.6733290
 136.5779300   4.8079810 114.0781800 140.6733350  19.9238810 128.5630580
 140.5992050  20.8273950 128.8702950 139.7712190  19.6050710 128.5352650
 139.0569640   4.1016570 114.5670340 138.7091640   3.4240560 113.9872790
 139.2582410   3.6406080 115.3813730 141.2218680  19.0897320 116.1856940
 142.1169470  19.4282290 116.2075700 141.2536310  18.3676730 115.5581220
 134.8614840  14.4624370 114.4143940 135.2989710  15.0054040 115.0701520
 135.3462570  13.6371320 114.4240280 132.0760640  17.2513400 121.8664200
 132.4063650  16.3834460 121.6342840 132.5051640  17.4571920 122.6969160
 136.6722560  15.5822410 119.5266170 136.3718100  15.4587380 120.4270080
 136.5660050  14.7231000 119.1181900 132.5650850  18.1183990 124.6045830
 132.1281840  18.2984790 125.4369980 133.1328530  18.8758610 124.4627550
 148.2013030  17.6200990 128.8923140 147.6015020  17.6793550 128.1487060
 148.3306930  16.6805970 129.0219990 132.3975280  10.6304220 120.9634710
 131.7424120  10.3615860 120.3194410 133.2353230  10.5208700 120.5136690
 146.8864670  14.3452970 126.9899300 146.0724510  14.7750130 127.2525090
 147.2938870  14.9571380 126.3768350 145.3465720   5.4245510 115.1853200
 145.7650600   5.2376490 114.3449860 145.0401780   4.5724560 115.4956130
 133.4351210  11.0156790 125.5038050 133.8024250  10.9284190 126.3834070
 132.8662030  10.2523340 125.4044910 148.2355070   9.4841170 128.5168520
 148.0041160   9.2553920 127.6166470 148.4959620  10.4040720 128.4713410
 132.9867210   7.9265880 129.4096470 132.0923260   7.8932640 129.7490180
 133.5264760   8.1252670 130.1747720 146.6743140   4.7097600 131.2948220
 147.5513320   4.7181000 131.6782220 146.6863980   3.9728440 130.6840570
 131.6113360   7.8403150 116.9060040 130.7077440   8.1033350 116.7311700
 132.0953980   8.1114320 116.1260000 148.2996130   8.6467010 125.7055790
 147.3498840   8.6130550 125.8200780 148.4809140   9.5567120 125.4705560
 134.1540570   6.8968690 114.8154420 134.8632270   6.4751910 114.3301700
 133.4380510   6.9643920 114.1837770 133.8014730   2.9508020 113.8557070
 134.5242860   3.4916960 114.1738290 134.0739250   2.6771440 112.9798610
 147.6106380   7.8200490 118.1228650 148.1065500   7.5871360 118.9077530
 147.4122450   6.9812330 117.7066290 133.4906920   2.2014210 123.7579690
 134.1383110   1.6511590 123.3174850 133.9108760   2.4557360 124.5795500
 147.3859260   2.3955570 127.1149330 148.0231480   3.0089710 127.4808520
 147.5334150   2.4316230 126.1698560 146.9440720  19.0971570 120.5167570
 147.5399790  18.7756140 119.8401990 147.2018870  18.6243390 121.3080840
 133.2438920   2.3569880 126.5005010 132.8953740   2.8133700 127.2663190
 132.9126620   1.4627010 126.5827440 134.8503290  15.5289480 130.6658200
 134.8072920  15.1582390 131.5472660 134.9814300  16.4667050 130.8060020
 138.5509320  17.0849070 126.2667920 138.3100680  17.3523630 125.3798440
 139.4911960  17.2554800 126.3218780 140.7563740   3.5481760 130.0224430
 140.6952630   4.1403590 130.7719840 141.6964120   3.4407720 129.8774690
 143.3938300   3.2051820 129.6616720 144.0078710   3.5231110 128.9997800
 143.9387860   2.7200410 130.2812580 134.6891320  18.4751730 127.7855980
 134.0951640  18.3436430 128.5246020 134.6815160  17.6389870 127.3198080
 145.0418320   3.9754830 127.3727730 144.7131680   3.1606590 126.9929460
 145.9900620   3.9324640 127.2493420 147.4952930  19.7466870 124.3465300
 147.0355900  20.4982680 123.9723320 146.8665390  19.0273340 124.2880100
 134.3203550  15.8410110 126.7364020 133.5937610  15.2215400 126.6689970
 134.3812700  16.2350720 125.8662100 137.9248650  18.0555110 123.5213430
 138.4413670  17.4442470 122.9961690 138.5746030  18.5583890 124.0124440
 140.6644150  18.9463600 124.3482410 140.9521960  18.6917900 123.4715420
 141.1767370  18.3940960 124.9387980 141.8821160   2.6853800 124.9278920
 141.0992950   3.1599300 125.2075680 141.5884090   1.7808630 124.8192100
 146.4342230   3.3876900 122.9728010 146.8750320   3.3322000 122.1249610
 146.1649820   4.3034910 123.0438190 132.6033550  19.1584500 119.9460780
 132.4355590  18.5255180 120.6442670 131.7368060  19.3643900 119.5954970
 133.2261570   2.9901280 117.4492640 133.9840930   3.1030160 116.8756670
 132.7638740   3.8270480 117.4036070 139.7675380   5.1040550 120.4394950
 138.9549890   4.7297440 120.0990830 140.2717020   4.3485630 120.7416140
 144.2700360   1.7683000 121.6778020 144.8729730   2.3403210 122.1526540
 143.5293350   2.3322440 121.4551920 147.4134960   2.1704560 116.9518300
 147.6085590   3.0688010 117.2185730 146.6264830   1.9391640 117.4451250
 134.2096250  17.8517730 117.3910920 133.6843870  18.2325760 116.6872880
 134.1340830  18.4768500 118.1120630 135.5986720   3.5165330 115.9894610
 136.1279480   2.7295130 115.8602560 136.2315040   4.1956520 116.2230140
 137.7924560   3.2540470 119.0440000 137.1627300   2.5527780 119.2110130
 137.2529700   4.0144600 118.8273160 140.7316510  19.8679700 131.7150610
 141.6583820  19.6323970 131.7586570 140.7166940  20.6951700 131.2336640
 137.9180120   2.5324450 131.4792490 137.6364390   3.0358050 130.7153310
 138.2999820   1.7346200 131.1134620 136.8089220  19.8000110 116.2660170
 137.5408040  19.5159390 115.7184060 137.0682890  19.5613390 117.1559550
 135.9704010  15.9164840 116.2706500 135.3412890  16.3849940 116.8192330
 136.0851840  15.0714060 116.7052690 144.5195580   1.9478030 132.0572960
 144.4061030   2.2672640 132.9524480 145.3365320   2.3490540 131.7610240
 147.2994070  19.0949560 131.5391650 148.0919390  18.5998790 131.3317610
 147.5927220  19.7739700 132.1467260 143.4253730   9.9670500 102.4207700
 143.3447780   9.0525110 102.1499410 143.0118150  10.4637570 101.7147410
 141.5571770  11.7449520 104.3016970 140.7813870  11.2649960 104.5915540
 142.2084700  11.0655170 104.1273130 135.5737600  12.0569330 105.1792730
 134.7422480  11.8018040 105.5789240 136.1818580  12.1280100 105.9150650
 145.5779200  16.1509710 103.0816100 145.1160730  15.3796950 103.4103270
 146.3904750  16.1775780 103.5868550 135.5538860  16.0909420 105.3750750
 135.8566900  15.2007160 105.1960970 136.2982450  16.6479640 105.1473000
 133.9829550   7.0171220  98.9635120 133.0946250   7.3587190  98.8615000
 134.2670740   6.8171540  98.0715950 131.9462560   9.6176870 104.8474820
 132.5178670   8.8499070 104.8478460 131.9464100   9.9165630 103.9381430
 141.8042510  18.4367720 102.7020090 141.1853950  18.8925220 102.1314530
 142.6594290  18.5919180 102.3009790 140.9980760  14.4206710 104.3087130
 140.9289040  13.4796650 104.1476260 141.7600620  14.5108120 104.8809700
 133.1887430   5.0261230 106.6343750 133.0090270   4.1286980 106.9146510
 132.7867510   5.5733100 107.3090700 142.0285930   7.2277090 104.5356060
 142.4050750   6.3548970 104.4229730 141.9305440   7.5635790 103.6446500
 136.1590940   5.6002720  99.9973500 136.2657690   6.5006450 100.3042260
 135.2483300   5.5520690  99.7068150 145.8110050   4.7227530 101.4684400
 146.6319670   4.2324100 101.5109880 145.8444130   5.3125190 102.2216240
 133.8074100   7.5221730 105.2426090 134.4884210   7.7860100 105.8613490
 133.4922150   6.6822600 105.5764100 137.9998670   8.5689090 104.3298680
 138.5076890   9.0670060 104.9703700 138.5311910   7.7924290 104.1538040
 136.2834770   3.2087650 108.5962100 136.2853210   3.7260040 107.7908000
 135.4539080   2.7317830 108.5732030 142.6705860  13.3206960 100.0952000
 142.0523130  13.7856410  99.5314720 143.1829110  14.0134440 100.5121510
 137.5337620  12.8482830 106.7735600 137.2007000  13.4751750 107.4156670
 137.7104300  13.3744710 105.9937270 146.0471530   6.6627910 104.2411940
 145.3427100   6.9512800 104.8215050 146.4083690   7.4728020 103.8811500
 135.9650100   4.9197610 106.6032550 136.3066910   5.7639660 106.3086420
 135.0265910   5.0681350 106.7197890 136.7456720  14.8163630 108.5884780
 137.3630720  15.4914710 108.3069230 135.8849840  15.2251610 108.4972280
 132.0389060  14.0063490  97.4691630 131.6617040  14.4950590  96.7376530
 132.2962130  14.6788770  98.0998160 147.6634310  16.2803040 106.5039420
 146.9797830  16.9502150 106.4956090 148.2028600  16.4783690 105.7384280
 139.6477990   2.4079880 102.9277140 139.9552970   1.8526770 102.2112640
 138.7178690   2.5424340 102.7450130 145.1993050  18.1247170 105.2184600
 145.2120210  17.7209460 104.3506860 144.6468270  18.8994460 105.1146030
 146.4938470  14.8463390 100.3074770 146.3834800  13.9037720 100.4324190
 146.4906720  15.2079030 101.1937530 144.5978490  13.0277010 106.5467210
 145.0147280  12.8137120 105.7120670 145.3218310  13.2849800 107.1175830
 142.0358750  10.4728710  99.6637260 141.1088030  10.4066090  99.8925730
 142.1883570  11.4108840  99.5492500 142.0227830   6.7445710  96.6604420
 141.0831500   6.9059670  96.7456880 142.3411090   7.4631390  96.1140410
 146.0656040  12.0349010 100.1672510 145.4468460  11.6968560  99.5198810
 146.0480490  11.3908770 100.8751700 145.5082600   8.2133550 107.5838320
 145.0953780   9.0387260 107.8378310 144.7758550   7.6278590 107.3914680
 137.6415390  10.9993450 102.4456990 137.2372390  10.2870700 101.9502890
 137.7278510  10.6546690 103.3345030 138.1097090  14.6861010 104.6096200
 137.8125380  14.0806480 103.9303980 139.0596910  14.7238320 104.4985560
 136.3544010   7.7736660 106.2256030 136.9058600   7.8832000 105.4509280
 136.8687520   8.1474260 106.9411260 146.1982700  18.2592880 108.2719300
 145.7213260  19.0665070 108.0791910 145.5144490  17.6071210 108.4245510
 137.2015520  14.4242700 111.2604000 136.3044050  14.6482670 111.5077400
 137.2268390  14.5477640 110.3115400 144.2420740  11.2735820  97.1745260
 144.6814020  10.4358250  97.0283080 144.9549160  11.9065220  97.2609400
 136.0286740  11.2956020 109.8361370 135.8894510  12.1678820 110.2048770
 135.1468100  10.9528830 109.6909310 142.3516120  16.2131890 101.1426500
 142.7912030  16.9556220 100.7281890 142.2903010  16.4558460 102.0665460
 137.8267090  17.2377720 112.0446520 137.7982520  17.6420670 111.1774950
 137.6632060  16.3088080 111.8818120 147.8237880   2.5278630  95.4886300
 147.5110540   2.6205460  96.3885370 148.5850350   3.1059660  95.4383730
 134.3420020   9.8938430  99.9463640 134.2217620  10.6200520  99.3344910
 134.0320910   9.1241340  99.4691550 131.9805390  13.0653570 105.7532280
 132.0585810  13.2002340 104.8088000 132.5947070  12.3569460 105.9460400
 133.2253020  14.7653760 102.1638460 132.8181100  14.9068350 101.3092060
 134.1166030  14.4813920 101.9609670 143.0431900  18.9145670 109.0705510
 143.5576570  18.8253680 109.8727940 142.2000980  19.2605370 109.3633420
 145.0186300  19.2001010  98.4989510 144.8587440  18.9103950  99.3971340
 144.8533010  18.4241140  97.9634740 137.4974680  18.9799540 100.2761130
 137.3217160  18.0635080 100.0628930 136.6430420  19.3386830 100.5158930
 144.7212430  16.7088570  97.0587510 144.0277590  16.7065860  96.3989790
 145.4635290  16.2847890  96.6281680 144.2862360  18.3351280 101.1336000
 144.7419310  17.5540660 101.4474620 144.6254880  19.0458100 101.6777180
 132.0364910  14.1067740 108.2926740 132.1995950  13.6373100 107.4746110
 132.5017360  13.5991300 108.9575580 136.8083680   3.2373500 103.3287310
 136.3651830   4.0183040 102.9971830 137.3668670   3.5603390 104.0358250
 141.0953490   6.1042020 108.9322630 140.6332860   6.3125040 109.7442570
 140.6931600   5.2901370 108.6293300 146.0958000   7.3250970 110.0619290
 145.2451590   7.0256720 110.3828360 145.9359790   7.5692980 109.1503110
 143.1907710   8.8252720 112.1618080 143.5161120   7.9916470 111.8220310
 143.9788040   9.3481240 112.3096410 139.9242500   2.8584200  98.2093140
 139.2996680   2.8544070  98.9346450 139.8372620   1.9915160  97.8129110
 138.8459580   3.7820830 105.1876910 139.1431910   4.6883660 105.1068930
 139.3945140   3.2939610 104.5736480 136.5997900   8.3607070 101.0568560
 136.3738820   8.1444240 101.9615180 135.8190430   8.7935530 100.7114530
 143.8295660   8.3670440  99.6559210 143.2304550   9.0906240  99.4722830
 144.3775270   8.3047220  98.8735660 139.0397110   9.2592650 111.7228830
 138.9440710   8.3187380 111.5729230 139.8829090   9.4807720 111.3276900
 142.4360530   7.0033980 101.6862490 142.8290100   7.3206180 100.8731180
 142.7977380   6.1245860 101.8007010 134.1707650   5.6706320 109.8762610
 133.7771040   6.5181530 110.0835390 133.4826050   5.0332690 110.0671250
 140.7452700   5.7541290 112.9459350 140.0551020   5.5613490 113.5805440
 141.4885000   6.0375930 113.4783650 131.4724700   3.5934780 103.9092690
 131.1837750   4.1637640 104.6217670 132.2170460   3.1139230 104.2723920
 131.6594930   7.5354900  95.1195410 131.5769600   8.4785660  95.2610400
 131.3077990   7.3929810  94.2407760 143.0215670   9.5939730 105.7813270
 142.2896790  10.1026540 106.1303370 142.6240010   8.7769710 105.4802050
 139.4593060   6.2693930 104.1865760 139.4629120   5.8283880 103.3370300
 140.3544180   6.5911260 104.2937580 135.3095440   6.1520420 103.1459970
 134.9695490   6.6295650 103.9027020 134.5472760   5.6985540 102.7861070
 139.5213210   7.2706010  97.1772520 139.6426030   7.2292490  98.1258340
 139.1361720   8.1330160  97.0219250 143.4841580   5.0473410 105.1936210
 143.5014320   5.4982060 106.0378060 143.2357160   4.1479050 105.4069650
 138.5334710   9.5807150  96.5755820 137.9651610   9.1325400  95.9491730
 139.2423710   9.9399930  96.0420970 146.9112330   2.4605590 111.0322590
 147.2358100   1.7295250 111.5580570 146.9468840   2.1419230 110.1303580
 133.6103890  13.4819170 110.4522550 133.2258680  12.8412840 111.0505510
 133.9216080  14.1855290 111.0217280 139.7601030  10.3295710 105.9331170
 140.1271160   9.8554280 106.6792510 139.5706090  11.2037280 106.2739510
 132.6241520   5.0739400 102.0624640 132.3388440   4.7095070 102.9003260
 132.5620380   4.3419860 101.4487780 137.5500400   9.3704350 108.2515380
 137.2457470  10.2496330 108.4765740 138.5046860   9.4304140 108.2872820
 136.0782190  13.5765340  98.8482230 135.3044450  13.0362960  98.6880950
 136.8076820  13.0571950  98.5099990 146.8370170  12.5730700 104.6408620
 147.5569290  13.0685990 104.2504730 146.6351990  11.8948590 103.9962490
 142.2980110   3.9668660  98.7838010 141.4844720   3.4681830  98.7083320
 142.1042060   4.8066910  98.3674360 142.2188970  12.6439760 110.5277620
 142.1526280  11.7235430 110.2735210 141.5894110  12.7415200 111.2422260
 145.0128500   8.3388310  97.0800170 145.9008120   8.6505540  96.9051510
 144.9833590   7.4660560  96.6880750 136.1219590  13.2445720 102.4861040
 136.6398260  12.4413980 102.4317930 135.6703610  13.1824860 103.3277870
 141.0089090  14.5112000  97.7588340 141.3504790  15.2554230  97.2631660
 140.1801800  14.8243120  98.1213170 133.6064130  10.2107090 109.3986740
 133.2479070  10.8760940 109.9860080 133.3118690   9.3790640 109.7699360
 136.8077250  10.6691330 112.2826290 136.5077390  10.8148510 111.3854110
 137.5788490  10.1096620 112.1899680 142.1505700  15.4660330 110.2781420
 142.1650240  14.5341290 110.0600330 141.4430800  15.5520090 110.9171190
 147.2842770   9.6500150  96.5480030 147.2006490  10.0814370  95.6976470
 148.0036960  10.1098500  96.9806850 148.3130020  16.5042410  99.2762160
 147.6706180  15.8498030  99.5505880 147.9260680  16.9097500  98.5002830
 143.8916500  13.8327840 103.1233850 144.2440320  13.2355970 102.4635220
 143.0078830  13.5072070 103.2942100 139.9779780  14.5925530 100.5304260
 140.6650910  15.1394740 100.9111850 139.1912200  15.1366260 100.5653870
 132.1172180  10.2098350  96.0221340 132.9867030  10.4923150  96.3057260
 131.6262500  11.0234220  95.9070150 139.2806990  11.5971560 100.1429620
 139.7369770  12.4076810 100.3689810 138.9295200  11.2794700 100.9748110
 141.5839600  17.1077900 107.3721920 142.2281820  17.3137280 108.0495340
 141.9469040  16.3466300 106.9192770 135.1818770   1.9409210 100.6152140
 135.0533400   1.9327110 101.5637060 134.3580790   2.2792300 100.2643150
 142.8571680  15.1110250 106.0899370 143.4993910  14.4103410 106.2031540
 143.3821030  15.8908690 105.9096260 146.7027400  15.3958870  95.8138510
 146.4764980  14.6789310  96.4063150 146.3123600  15.1471310  94.9760260
 144.6309300  15.9105150 109.2935430 144.9665540  16.4971840 109.9713350
 143.7109640  15.7797860 109.5233220 132.4843430  19.4225730  96.5882970
 132.8441070  20.0215070  95.9340240 132.3435770  19.9685620  97.3618000
 132.1812700   3.7000330 110.0758840 131.4671220   3.8997250 110.6811450
 132.6007740   2.9239900 110.4473640 146.2843650  13.3130810  97.4752670
 145.9965350  13.7743500  98.2630550 147.0795820  12.8528580  97.7436890
 132.4685290  17.6880590 111.0625370 132.5776410  16.7475330 110.9220760
 131.8165850  17.9535340 110.4139100 140.4597880  15.9596480 112.4623490
 140.1394750  15.2405720 113.0069180 139.7856240  16.6351550 112.5359550
 138.5012050  16.8056930  97.4056640 138.4922150  17.5386620  96.7901150
 137.5810410  16.5588510  97.4983600 134.1018690  12.0271820  98.1503400
 133.4946640  12.7670720  98.1598700 134.5768040  12.1171180  97.3241600
 143.6751480   6.1922640 107.8260290 144.0432300   5.3717850 108.1539860
 142.8149680   6.2524530 108.2415940 147.0413510   5.1479580  98.6347850
 146.4126670   5.2525250  97.9206080 146.5465430   5.3676360  99.4241730
 141.4871650  16.8685170  96.0681830 141.5883630  16.6649160  95.1383810
 140.5873390  16.6143450  96.2729610 139.0097540   7.4265530 100.0505730
 138.3013690   7.8951870 100.4919340 139.2942020   6.7687540 100.6850920
 140.6353470   8.8462230 108.0498260 141.1338720   9.3208050 108.7150110
 140.7776420   7.9225750 108.2568290 143.0412970   4.1516190 101.4901520
 142.9180750   4.1702320 100.5411030 143.9897530   4.1995130 101.6099920
 140.1289760  19.3871490 100.7629500 140.3831260  19.3492880  99.8408870
 139.1802240  19.2604820 100.7557750 137.2132560   5.7350610  97.4256440
 138.0623090   6.1720760  97.3596630 136.8463830   6.0470870  98.2528500
 147.8420330   5.0630190 108.8926650 147.3393930   5.8035590 109.2320460
 148.6576990   5.4514190 108.5763440 146.1342340  10.3063370 102.3388010
 145.1932480  10.3213600 102.5135700 146.4486410   9.5199330 102.7848310
 136.1123980  11.9882970  95.8991970 136.8787250  11.8764330  96.4617400
 136.1898670  11.2920940  95.2468740 134.8070740   9.4208040  96.5824860
 134.8874330   8.4735550  96.6942260 135.6990490   9.7514920  96.6885520
 135.6085450  19.5703430 103.6859400 136.3447930  19.0218890 103.9567970
 135.9926370  20.4359440 103.5465390 132.4930930  15.6377000  99.5600910
 131.5670710  15.8798140  99.5506320 132.9587360  16.4651260  99.4385660
 134.6143730  18.7549500 112.8744980 135.4156460  19.0761550 113.2880380
 134.0995550  18.3945080 113.5964890 138.7187760  18.7433740  95.5084970
 139.5116370  19.0322570  95.0566760 138.1992110  18.3125910  94.8297450
 143.4508360  14.8629370 112.8220390 142.8446520  14.8860970 112.0816140
 143.1462470  14.1312410 113.3587640 144.8808730  18.5909660 111.4329800
 145.8330480  18.5067680 111.3830040 144.7336950  19.2551370 112.1063590
 147.7717930  17.9703870  96.9321710 147.4859440  17.5569010  96.1175890
 147.5737480  18.8991580  96.8122230 132.3341540  11.2422960 111.8181030
 132.8380560  10.6630240 112.3897260 131.5948960  11.5263190 112.3557400
 139.2365160  13.9637150  95.3727320 139.1315800  13.3489500  96.0988700
 139.0689380  13.4403040  94.5890330 139.3879480  12.6493950 111.3516550
 138.6225150  13.2178950 111.2671220 139.5695440  12.3570160 110.4584780
 142.4767890  13.0257180  95.9769310 141.9277990  13.4726480  96.6212050
 143.0987150  12.5206430  96.5006980 146.5302830  14.3799280 111.9091570
 147.2712300  14.7175040 111.4059030 145.7675510  14.5491340 111.3561340
 134.3664620   9.3852550 112.7131100 134.4069960   9.0866420 113.6216330
 135.2210120   9.7860160 112.5538620 138.1443010  11.9848100  97.8734610
 138.5659430  11.8187970  98.7166000 138.2693850  11.1748330  97.3789750
 136.3070430   7.9644650 110.6805590 135.7766890   7.4735600 110.0528930
 136.9758500   8.3928850 110.1463520 140.6570650  11.0085710  95.1211710
 141.1776310  10.2934730  94.7552860 141.3039050  11.6471580  95.4212220
 145.2048490  12.4314110 110.4446780 145.6189510  12.5859190 111.2937200
 144.2699490  12.5569330 110.6072560 145.6770660   9.7710270 112.4485930
 146.2591430   9.0162590 112.3606410 145.8532430  10.3017710 111.6717410
 136.7942730   4.9307020 110.7602880 136.6999600   4.3127770 110.0353750
 136.2140120   5.6573310 110.5332790 139.5604170   3.4880260 107.7930270
 139.1121470   3.5104520 106.9475820 138.9269370   3.0899280 108.3900570
 139.9663720  12.3834590 108.4142710 140.3851830  13.2267320 108.2418950
 139.0472350  12.5206630 108.1849490 142.3027620  10.1150770 109.7980550
 142.4223830   9.5191910 110.5375390 143.1621620  10.1520460 109.3781850
 144.6415520  10.6687960 108.3743060 144.1150740  11.1930580 107.7708200
 144.9846860  11.3015350 109.0052790 137.0401910   8.0581330  94.8192770
 136.8390970   7.1948690  95.1806110 136.8693960   7.9714690  93.8814370
 137.8171140  18.6887600 109.5300440 137.2792230  19.4133660 109.2109140
 138.0705100  18.2117940 108.7397780 139.0696390   6.6572120 111.0556370
 139.6596080   6.3487970 111.7434190 138.2516630   6.1851870 111.2116270
 143.8889820   6.2737930 111.2889390 143.2005340   5.6119470 111.2239380
 144.6095840   5.8276200 111.7337850 144.5190220   2.8689560  97.3479650
 144.7992510   2.0257460  97.7039070 143.7455950   3.1012670  97.8618400
 135.8384710   5.1581950  94.8070650 136.1410610   5.1649380  93.8989800
 136.5779300   4.8079810  95.3038310 140.6733350  19.9238810 109.7887090
 140.5992050  20.8273950 110.0959460 139.7712190  19.6050710 109.7609160
 139.0569640   4.1016570  95.7926850 138.7091640   3.4240560  95.2129300
 139.2582410   3.6406080  96.6070240 141.2218680  19.0897320  97.4113450
 142.1169470  19.4282290  97.4332210 141.2536310  18.3676730  96.7837730
 134.8614840  14.4624370  95.6400450 135.2989710  15.0054040  96.2958030
 135.3462570  13.6371320  95.6496790 132.0760640  17.2513400 103.0920710
 132.4063650  16.3834460 102.8599350 132.5051640  17.4571920 103.9225670
 136.6722560  15.5822410 100.7522680 136.3718100  15.4587380 101.6526590
 136.5660050  14.7231000 100.3438410 132.5650850  18.1183990 105.8302340
 132.1281840  18.2984790 106.6626490 133.1328530  18.8758610 105.6884060
 148.2013030  17.6200990 110.1179650 147.6015020  17.6793550 109.3743570
 148.3306930  16.6805970 110.2476500 132.3975280  10.6304220 102.1891220
 131.7424120  10.3615860 101.5450920 133.2353230  10.5208700 101.7393200
 146.8864670  14.3452970 108.2155810 146.0724510  14.7750130 108.4781600
 147.2938870  14.9571380 107.6024860 145.3465720   5.4245510  96.4109710
 145.7650600   5.2376490  95.5706370 145.0401780   4.5724560  96.7212640
 133.4351210  11.0156790 106.7294560 133.8024250  10.9284190 107.6090580
 132.8662030  10.2523340 106.6301420 148.2355070   9.4841170 109.7425030
 148.0041160   9.2553920 108.8422980 148.4959620  10.4040720 109.6969920
 132.9867210   7.9265880 110.6352980 132.0923260   7.8932640 110.9746690
 133.5264760   8.1252670 111.4004230 146.6743140   4.7097600 112.5204730
 147.5513320   4.7181000 112.9038730 146.6863980   3.9728440 111.9097080
 131.6113360   7.8403150  98.1316550 130.7077440   8.1033350  97.9568210
 132.0953980   8.1114320  97.3516510 148.2996130   8.6467010 106.9312300
 147.3498840   8.6130550 107.0457290 148.4809140   9.5567120 106.6962070
 134.1540570   6.8968690  96.0410930 134.8632270   6.4751910  95.5558210
 133.4380510   6.9643920  95.4094280 133.8014730   2.9508020  95.0813580
 134.5242860   3.4916960  95.3994800 134.0739250   2.6771440  94.2055120
 147.6106380   7.8200490  99.3485160 148.1065500   7.5871360 100.1334040
 147.4122450   6.9812330  98.9322800 133.4906920   2.2014210 104.9836200
 134.1383110   1.6511590 104.5431360 133.9108760   2.4557360 105.8052010
 147.3859260   2.3955570 108.3405840 148.0231480   3.0089710 108.7065030
 147.5334150   2.4316230 107.3955070 146.9440720  19.0971570 101.7424080
 147.5399790  18.7756140 101.0658500 147.2018870  18.6243390 102.5337350
 133.2438920   2.3569880 107.7261520 132.8953740   2.8133700 108.4919700
 132.9126620   1.4627010 107.8083950 134.8503290  15.5289480 111.8914710
 134.8072920  15.1582390 112.7729170 134.9814300  16.4667050 112.0316530
 138.5509320  17.0849070 107.4924430 138.3100680  17.3523630 106.6054950
 139.4911960  17.2554800 107.5475290 140.7563740   3.5481760 111.2480940
 140.6952630   4.1403590 111.9976350 141.6964120   3.4407720 111.1031200
 143.3938300   3.2051820 110.8873230 144.0078710   3.5231110 110.2254310
 143.9387860   2.7200410 111.5069090 134.6891320  18.4751730 109.0112490
 134.0951640  18.3436430 109.7502530 134.6815160  17.6389870 108.5454590
 145.0418320   3.9754830 108.5984240 144.7131680   3.1606590 108.2185970
 145.9900620   3.9324640 108.4749930 147.4952930  19.7466870 105.5721810
 147.0355900  20.4982680 105.1979830 146.8665390  19.0273340 105.5136610
 134.3203550  15.8410110 107.9620530 133.5937610  15.2215400 107.8946480
 134.3812700  16.2350720 107.0918610 137.9248650  18.0555110 104.7469940
 138.4413670  17.4442470 104.2218200 138.5746030  18.5583890 105.2380950
 140.6644150  18.9463600 105.5738920 140.9521960  18.6917900 104.6971930
 141.1767370  18.3940960 106.1644490 141.8821160   2.6853800 106.1535430
 141.0992950   3.1599300 106.4332190 141.5884090   1.7808630 106.0448610
 146.4342230   3.3876900 104.1984520 146.8750320   3.3322000 103.3506120
 146.1649820   4.3034910 104.2694700 132.6033550  19.1584500 101.1717290
 132.4355590  18.5255180 101.8699180 131.7368060  19.3643900 100.8211480
 133.2261570   2.9901280  98.6749150 133.9840930   3.1030160  98.1013180
 132.7638740   3.8270480  98.6292580 139.7675380   5.1040550 101.6651460
 138.9549890   4.7297440 101.3247340 140.2717020   4.3485630 101.9672650
 144.2700360   1.7683000 102.9034530 144.8729730   2.3403210 103.3783050
 143.5293350   2.3322440 102.6808430 147.4134960   2.1704560  98.1774810
 147.6085590   3.0688010  98.4442240 146.6264830   1.9391640  98.6707760
 134.2096250  17.8517730  98.6167430 133.6843870  18.2325760  97.9129390
 134.1340830  18.4768500  99.3377140 135.5986720   3.5165330  97.2151120
 136.1279480   2.7295130  97.0859070 136.2315040   4.1956520  97.4486650
 137.7924560   3.2540470 100.2696510 137.1627300   2.5527780 100.4366640
 137.2529700   4.0144600 100.0529670 140.7316510  19.8679700 112.9407120
 141.6583820  19.6323970 112.9843080 140.7166940  20.6951700 112.4593150
 137.9180120   2.5324450 112.7049000 137.6364390   3.0358050 111.9409820
 138.2999820   1.7346200 112.3391130 136.8089220  19.8000110  97.4916680
 137.5408040  19.5159390  96.9440570 137.0682890  19.5613390  98.3816060
 135.9704010  15.9164840  97.4963010 135.3412890  16.3849940  98.0448840
 136.0851840  15.0714060  97.9309200 144.5195580   1.9478030 113.2829470
 144.4061030   2.2672640 114.1780990 145.3365320   2.3490540 112.9866750
 147.2994070  19.0949560 112.7648160 148.0919390  18.5998790 112.5574120
 147.5927220  19.7739700 113.3723770 143.4253730   9.9670500  83.6464210
 143.3447780   9.0525110  83.3755920 143.0118150  10.4637570  82.9403920
 141.5571770  11.7449520  85.5273480 140.7813870  11.2649960  85.8172050
 142.2084700  11.0655170  85.3529640 135.5737600  12.0569330  86.4049240
 134.7422480  11.8018040  86.8045750 136.1818580  12.1280100  87.1407160
 145.5779200  16.1509710  84.3072610 145.1160730  15.3796950  84.6359780
 146.3904750  16.1775780  84.8125060 135.5538860  16.0909420  86.6007260
 135.8566900  15.2007160  86.4217480 136.2982450  16.6479640  86.3729510
 133.9829550   7.0171220  80.1891630 133.0946250   7.3587190  80.0871510
 134.2670740   6.8171540  79.2972460 131.9462560   9.6176870  86.0731330
 132.5178670   8.8499070  86.0734970 131.9464100   9.9165630  85.1637940
 141.8042510  18.4367720  83.9276600 141.1853950  18.8925220  83.3571040
 142.6594290  18.5919180  83.5266300 140.9980760  14.4206710  85.5343640
 140.9289040  13.4796650  85.3732770 141.7600620  14.5108120  86.1066210
 133.1887430   5.0261230  87.8600260 133.0090270   4.1286980  88.1403020
 132.7867510   5.5733100  88.5347210 142.0285930   7.2277090  85.7612570
 142.4050750   6.3548970  85.6486240 141.9305440   7.5635790  84.8703010
 136.1590940   5.6002720  81.2230010 136.2657690   6.5006450  81.5298770
 135.2483300   5.5520690  80.9324660 145.8110050   4.7227530  82.6940910
 146.6319670   4.2324100  82.7366390 145.8444130   5.3125190  83.4472750
 133.8074100   7.5221730  86.4682600 134.4884210   7.7860100  87.0870000
 133.4922150   6.6822600  86.8020610 137.9998670   8.5689090  85.5555190
 138.5076890   9.0670060  86.1960210 138.5311910   7.7924290  85.3794550
 136.2834770   3.2087650  89.8218610 136.2853210   3.7260040  89.0164510
 135.4539080   2.7317830  89.7988540 142.6705860  13.3206960  81.3208510
 142.0523130  13.7856410  80.7571230 143.1829110  14.0134440  81.7378020
 137.5337620  12.8482830  87.9992110 137.2007000  13.4751750  88.6413180
 137.7104300  13.3744710  87.2193780 146.0471530   6.6627910  85.4668450
 145.3427100   6.9512800  86.0471560 146.4083690   7.4728020  85.1068010
 135.9650100   4.9197610  87.8289060 136.3066910   5.7639660  87.5342930
 135.0265910   5.0681350  87.9454400 136.7456720  14.8163630  89.8141290
 137.3630720  15.4914710  89.5325740 135.8849840  15.2251610  89.7228790
 132.0389060  14.0063490  78.6948140 131.6617040  14.4950590  77.9633040
 132.2962130  14.6788770  79.3254670 147.6634310  16.2803040  87.7295930
 146.9797830  16.9502150  87.7212600 148.2028600  16.4783690  86.9640790
 139.6477990   2.4079880  84.1533650 139.9552970   1.8526770  83.4369150
 138.7178690   2.5424340  83.9706640 145.1993050  18.1247170  86.4441110
 145.2120210  17.7209460  85.5763370 144.6468270  18.8994460  86.3402540
 146.4938470  14.8463390  81.5331280 146.3834800  13.9037720  81.6580700
 146.4906720  15.2079030  82.4194040 144.5978490  13.0277010  87.7723720
 145.0147280  12.8137120  86.9377180 145.3218310  13.2849800  88.3432340
 142.0358750  10.4728710  80.8893770 141.1088030  10.4066090  81.1182240
 142.1883570  11.4108840  80.7749010 142.0227830   6.7445710  77.8860930
 141.0831500   6.9059670  77.9713390 142.3411090   7.4631390  77.3396920
 146.0656040  12.0349010  81.3929020 145.4468460  11.6968560  80.7455320
 146.0480490  11.3908770  82.1008210 145.5082600   8.2133550  88.8094830
 145.0953780   9.0387260  89.0634820 144.7758550   7.6278590  88.6171190
 137.6415390  10.9993450  83.6713500 137.2372390  10.2870700  83.1759400
 137.7278510  10.6546690  84.5601540 138.1097090  14.6861010  85.8352710
 137.8125380  14.0806480  85.1560490 139.0596910  14.7238320  85.7242070
 136.3544010   7.7736660  87.4512540 136.9058600   7.8832000  86.6765790
 136.8687520   8.1474260  88.1667770 146.1982700  18.2592880  89.4975810
 145.7213260  19.0665070  89.3048420 145.5144490  17.6071210  89.6502020
 137.2015520  14.4242700  92.4860510 136.3044050  14.6482670  92.7333910
 137.2268390  14.5477640  91.5371910 144.2420740  11.2735820  78.4001770
 144.6814020  10.4358250  78.2539590 144.9549160  11.9065220  78.4865910
 136.0286740  11.2956020  91.0617880 135.8894510  12.1678820  91.4305280
 135.1468100  10.9528830  90.9165820 142.3516120  16.2131890  82.3683010
 142.7912030  16.9556220  81.9538400 142.2903010  16.4558460  83.2921970
 137.8267090  17.2377720  93.2703030 137.7982520  17.6420670  92.4031460
 137.6632060  16.3088080  93.1074630 147.8237880   2.5278630  76.7142810
 147.5110540   2.6205460  77.6141880 148.5850350   3.1059660  76.6640240
 134.3420020   9.8938430  81.1720150 134.2217620  10.6200520  80.5601420
 134.0320910   9.1241340  80.6948060 131.9805390  13.0653570  86.9788790
 132.0585810  13.2002340  86.0344510 132.5947070  12.3569460  87.1716910
 133.2253020  14.7653760  83.3894970 132.8181100  14.9068350  82.5348570
 134.1166030  14.4813920  83.1866180 143.0431900  18.9145670  90.2962020
 143.5576570  18.8253680  91.0984450 142.2000980  19.2605370  90.5889930
 145.0186300  19.2001010  79.7246020 144.8587440  18.9103950  80.6227850
 144.8533010  18.4241140  79.1891250 137.4974680  18.9799540  81.5017640
 137.3217160  18.0635080  81.2885440 136.6430420  19.3386830  81.7415440
 144.7212430  16.7088570  78.2844020 144.0277590  16.7065860  77.6246300
 145.4635290  16.2847890  77.8538190 144.2862360  18.3351280  82.3592510
 144.7419310  17.5540660  82.6731130 144.6254880  19.0458100  82.9033690
 132.0364910  14.1067740  89.5183250 132.1995950  13.6373100  88.7002620
 132.5017360  13.5991300  90.1832090 136.8083680   3.2373500  84.5543820
 136.3651830   4.0183040  84.2228340 137.3668670   3.5603390  85.2614760
 141.0953490   6.1042020  90.1579140 140.6332860   6.3125040  90.9699080
 140.6931600   5.2901370  89.8549810 146.0958000   7.3250970  91.2875800
 145.2451590   7.0256720  91.6084870 145.9359790   7.5692980  90.3759620
 143.1907710   8.8252720  93.3874590 143.5161120   7.9916470  93.0476820
 143.9788040   9.3481240  93.5352920 139.9242500   2.8584200  79.4349650
 139.2996680   2.8544070  80.1602960 139.8372620   1.9915160  79.0385620
 138.8459580   3.7820830  86.4133420 139.1431910   4.6883660  86.3325440
 139.3945140   3.2939610  85.7992990 136.5997900   8.3607070  82.2825070
 136.3738820   8.1444240  83.1871690 135.8190430   8.7935530  81.9371040
 143.8295660   8.3670440  80.8815720 143.2304550   9.0906240  80.6979340
 144.3775270   8.3047220  80.0992170 139.0397110   9.2592650  92.9485340
 138.9440710   8.3187380  92.7985740 139.8829090   9.4807720  92.5533410
 142.4360530   7.0033980  82.9119000 142.8290100   7.3206180  82.0987690
 142.7977380   6.1245860  83.0263520 134.1707650   5.6706320  91.1019120
 133.7771040   6.5181530  91.3091900 133.4826050   5.0332690  91.2927760
 140.7452700   5.7541290  94.1715860 140.0551020   5.5613490  94.8061950
 141.4885000   6.0375930  94.7040160 131.4724700   3.5934780  85.1349200
 131.1837750   4.1637640  85.8474180 132.2170460   3.1139230  85.4980430
 131.6594930   7.5354900  76.3451920 131.5769600   8.4785660  76.4866910
 131.3077990   7.3929810  75.4664270 143.0215670   9.5939730  87.0069780
 142.2896790  10.1026540  87.3559880 142.6240010   8.7769710  86.7058560
 139.4593060   6.2693930  85.4122270 139.4629120   5.8283880  84.5626810
 140.3544180   6.5911260  85.5194090 135.3095440   6.1520420  84.3716480
 134.9695490   6.6295650  85.1283530 134.5472760   5.6985540  84.0117580
 139.5213210   7.2706010  78.4029030 139.6426030   7.2292490  79.3514850
 139.1361720   8.1330160  78.2475760 143.4841580   5.0473410  86.4192720
 143.5014320   5.4982060  87.2634570 143.2357160   4.1479050  86.6326160
 138.5334710   9.5807150  77.8012330 137.9651610   9.1325400  77.1748240
 139.2423710   9.9399930  77.2677480 146.9112330   2.4605590  92.2579100
 147.2358100   1.7295250  92.7837080 146.9468840   2.1419230  91.3560090
 133.6103890  13.4819170  91.6779060 133.2258680  12.8412840  92.2762020
 133.9216080  14.1855290  92.2473790 139.7601030  10.3295710  87.1587680
 140.1271160   9.8554280  87.9049020 139.5706090  11.2037280  87.4996020
 132.6241520   5.0739400  83.2881150 132.3388440   4.7095070  84.1259770
 132.5620380   4.3419860  82.6744290 137.5500400   9.3704350  89.4771890
 137.2457470  10.2496330  89.7022250 138.5046860   9.4304140  89.5129330
 136.0782190  13.5765340  80.0738740 135.3044450  13.0362960  79.9137460
 136.8076820  13.0571950  79.7356500 146.8370170  12.5730700  85.8665130
 147.5569290  13.0685990  85.4761240 146.6351990  11.8948590  85.2219000
 142.2980110   3.9668660  80.0094520 141.4844720   3.4681830  79.9339830
 142.1042060   4.8066910  79.5930870 142.2188970  12.6439760  91.7534130
 142.1526280  11.7235430  91.4991720 141.5894110  12.7415200  92.4678770
 145.0128500   8.3388310  78.3056680 145.9008120   8.6505540  78.1308020
 144.9833590   7.4660560  77.9137260 136.1219590  13.2445720  83.7117550
 136.6398260  12.4413980  83.6574440 135.6703610  13.1824860  84.5534380
 141.0089090  14.5112000  78.9844850 141.3504790  15.2554230  78.4888170
 140.1801800  14.8243120  79.3469680 133.6064130  10.2107090  90.6243250
 133.2479070  10.8760940  91.2116590 133.3118690   9.3790640  90.9955870
 136.8077250  10.6691330  93.5082800 136.5077390  10.8148510  92.6110620
 137.5788490  10.1096620  93.4156190 142.1505700  15.4660330  91.5037930
 142.1650240  14.5341290  91.2856840 141.4430800  15.5520090  92.1427700
 147.2842770   9.6500150  77.7736540 147.2006490  10.0814370  76.9232980
 148.0036960  10.1098500  78.2063360 148.3130020  16.5042410  80.5018670
 147.6706180  15.8498030  80.7762390 147.9260680  16.9097500  79.7259340
 143.8916500  13.8327840  84.3490360 144.2440320  13.2355970  83.6891730
 143.0078830  13.5072070  84.5198610 139.9779780  14.5925530  81.7560770
 140.6650910  15.1394740  82.1368360 139.1912200  15.1366260  81.7910380
 132.1172180  10.2098350  77.2477850 132.9867030  10.4923150  77.5313770
 131.6262500  11.0234220  77.1326660 139.2806990  11.5971560  81.3686130
 139.7369770  12.4076810  81.5946320 138.9295200  11.2794700  82.2004620
 141.5839600  17.1077900  88.5978430 142.2281820  17.3137280  89.2751850
 141.9469040  16.3466300  88.1449280 135.1818770   1.9409210  81.8408650
 135.0533400   1.9327110  82.7893570 134.3580790   2.2792300  81.4899660
 142.8571680  15.1110250  87.3155880 143.4993910  14.4103410  87.4288050
 143.3821030  15.8908690  87.1352770 146.7027400  15.3958870  77.0395020
 146.4764980  14.6789310  77.6319660 146.3123600  15.1471310  76.2016770
 144.6309300  15.9105150  90.5191940 144.9665540  16.4971840  91.1969860
 143.7109640  15.7797860  90.7489730 132.4843430  19.4225730  77.8139480
 132.8441070  20.0215070  77.1596750 132.3435770  19.9685620  78.5874510
 132.1812700   3.7000330  91.3015350 131.4671220   3.8997250  91.9067960
 132.6007740   2.9239900  91.6730150 146.2843650  13.3130810  78.7009180
 145.9965350  13.7743500  79.4887060 147.0795820  12.8528580  78.9693400
 132.4685290  17.6880590  92.2881880 132.5776410  16.7475330  92.1477270
 131.8165850  17.9535340  91.6395610 140.4597880  15.9596480  93.6880000
 140.1394750  15.2405720  94.2325690 139.7856240  16.6351550  93.7616060
 138.5012050  16.8056930  78.6313150 138.4922150  17.5386620  78.0157660
 137.5810410  16.5588510  78.7240110 134.1018690  12.0271820  79.3759910
 133.4946640  12.7670720  79.3855210 134.5768040  12.1171180  78.5498110
 143.6751480   6.1922640  89.0516800 144.0432300   5.3717850  89.3796370
 142.8149680   6.2524530  89.4672450 147.0413510   5.1479580  79.8604360
 146.4126670   5.2525250  79.1462590 146.5465430   5.3676360  80.6498240
 141.4871650  16.8685170  77.2938340 141.5883630  16.6649160  76.3640320
 140.5873390  16.6143450  77.4986120 139.0097540   7.4265530  81.2762240
 138.3013690   7.8951870  81.7175850 139.2942020   6.7687540  81.9107430
 140.6353470   8.8462230  89.2754770 141.1338720   9.3208050  89.9406620
 140.7776420   7.9225750  89.4824800 143.0412970   4.1516190  82.7158030
 142.9180750   4.1702320  81.7667540 143.9897530   4.1995130  82.8356430
 140.1289760  19.3871490  81.9886010 140.3831260  19.3492880  81.0665380
 139.1802240  19.2604820  81.9814260 137.2132560   5.7350610  78.6512950
 138.0623090   6.1720760  78.5853140 136.8463830   6.0470870  79.4785010
 147.8420330   5.0630190  90.1183160 147.3393930   5.8035590  90.4576970
 148.6576990   5.4514190  89.8019950 146.1342340  10.3063370  83.5644520
 145.1932480  10.3213600  83.7392210 146.4486410   9.5199330  84.0104820
 136.1123980  11.9882970  77.1248480 136.8787250  11.8764330  77.6873910
 136.1898670  11.2920940  76.4725250 134.8070740   9.4208040  77.8081370
 134.8874330   8.4735550  77.9198770 135.6990490   9.7514920  77.9142030
 135.6085450  19.5703430  84.9115910 136.3447930  19.0218890  85.1824480
 135.9926370  20.4359440  84.7721900 132.4930930  15.6377000  80.7857420
 131.5670710  15.8798140  80.7762830 132.9587360  16.4651260  80.6642170
 134.6143730  18.7549500  94.1001490 135.4156460  19.0761550  94.5136890
 134.0995550  18.3945080  94.8221400 138.7187760  18.7433740  76.7341480
 139.5116370  19.0322570  76.2823270 138.1992110  18.3125910  76.0553960
 143.4508360  14.8629370  94.0476900 142.8446520  14.8860970  93.3072650
 143.1462470  14.1312410  94.5844150 144.8808730  18.5909660  92.6586310
 145.8330480  18.5067680  92.6086550 144.7336950  19.2551370  93.3320100
 147.7717930  17.9703870  78.1578220 147.4859440  17.5569010  77.3432400
 147.5737480  18.8991580  78.0378740 132.3341540  11.2422960  93.0437540
 132.8380560  10.6630240  93.6153770 131.5948960  11.5263190  93.5813910
 139.2365160  13.9637150  76.5983830 139.1315800  13.3489500  77.3245210
 139.0689380  13.4403040  75.8146840 139.3879480  12.6493950  92.5773060
 138.6225150  13.2178950  92.4927730 139.5695440  12.3570160  91.6841290
 142.4767890  13.0257180  77.2025820 141.9277990  13.4726480  77.8468560
 143.0987150  12.5206430  77.7263490 146.5302830  14.3799280  93.1348080
 147.2712300  14.7175040  92.6315540 145.7675510  14.5491340  92.5817850
 134.3664620   9.3852550  93.9387610 134.4069960   9.0866420  94.8472840
 135.2210120   9.7860160  93.7795130 138.1443010  11.9848100  79.0991120
 138.5659430  11.8187970  79.9422510 138.2693850  11.1748330  78.6046260
 136.3070430   7.9644650  91.9062100 135.7766890   7.4735600  91.2785440
 136.9758500   8.3928850  91.3720030 140.6570650  11.0085710  76.3468220
 141.1776310  10.2934730  75.9809370 141.3039050  11.6471580  76.6468730
 145.2048490  12.4314110  91.6703290 145.6189510  12.5859190  92.5193710
 144.2699490  12.5569330  91.8329070 145.6770660   9.7710270  93.6742440
 146.2591430   9.0162590  93.5862920 145.8532430  10.3017710  92.8973920
 136.7942730   4.9307020  91.9859390 136.6999600   4.3127770  91.2610260
 136.2140120   5.6573310  91.7589300 139.5604170   3.4880260  89.0186780
 139.1121470   3.5104520  88.1732330 138.9269370   3.0899280  89.6157080
 139.9663720  12.3834590  89.6399220 140.3851830  13.2267320  89.4675460
 139.0472350  12.5206630  89.4106000 142.3027620  10.1150770  91.0237060
 142.4223830   9.5191910  91.7631900 143.1621620  10.1520460  90.6038360
 144.6415520  10.6687960  89.5999570 144.1150740  11.1930580  88.9964710
 144.9846860  11.3015350  90.2309300 137.0401910   8.0581330  76.0449280
 136.8390970   7.1948690  76.4062620 136.8693960   7.9714690  75.1070880
 137.8171140  18.6887600  90.7556950 137.2792230  19.4133660  90.4365650
 138.0705100  18.2117940  89.9654290 139.0696390   6.6572120  92.2812880
 139.6596080   6.3487970  92.9690700 138.2516630   6.1851870  92.4372780
 143.8889820   6.2737930  92.5145900 143.2005340   5.6119470  92.4495890
 144.6095840   5.8276200  92.9594360 144.5190220   2.8689560  78.5736160
 144.7992510   2.0257460  78.9295580 143.7455950   3.1012670  79.0874910
 135.8384710   5.1581950  76.0327160 136.1410610   5.1649380  75.1246310
 136.5779300   4.8079810  76.5294820 140.6733350  19.9238810  91.0143600
 140.5992050  20.8273950  91.3215970 139.7712190  19.6050710  90.9865670
 139.0569640   4.1016570  77.0183360 138.7091640   3.4240560  76.4385810
 139.2582410   3.6406080  77.8326750 141.2218680  19.0897320  78.6369960
 142.1169470  19.4282290  78.6588720 141.2536310  18.3676730  78.0094240
 134.8614840  14.4624370  76.8656960 135.2989710  15.0054040  77.5214540
 135.3462570  13.6371320  76.8753300 132.0760640  17.2513400  84.3177220
 132.4063650  16.3834460  84.0855860 132.5051640  17.4571920  85.1482180
 136.6722560  15.5822410  81.9779190 136.3718100  15.4587380  82.8783100
 136.5660050  14.7231000  81.5694920 132.5650850  18.1183990  87.0558850
 132.1281840  18.2984790  87.8883000 133.1328530  18.8758610  86.9140570
 148.2013030  17.6200990  91.3436160 147.6015020  17.6793550  90.6000080
 148.3306930  16.6805970  91.4733010 132.3975280  10.6304220  83.4147730
 131.7424120  10.3615860  82.7707430 133.2353230  10.5208700  82.9649710
 146.8864670  14.3452970  89.4412320 146.0724510  14.7750130  89.7038110
 147.2938870  14.9571380  88.8281370 145.3465720   5.4245510  77.6366220
 145.7650600   5.2376490  76.7962880 145.0401780   4.5724560  77.9469150
 133.4351210  11.0156790  87.9551070 133.8024250  10.9284190  88.8347090
 132.8662030  10.2523340  87.8557930 148.2355070   9.4841170  90.9681540
 148.0041160   9.2553920  90.0679490 148.4959620  10.4040720  90.9226430
 132.9867210   7.9265880  91.8609490 132.0923260   7.8932640  92.2003200
 133.5264760   8.1252670  92.6260740 146.6743140   4.7097600  93.7461240
 147.5513320   4.7181000  94.1295240 146.6863980   3.9728440  93.1353590
 131.6113360   7.8403150  79.3573060 130.7077440   8.1033350  79.1824720
 132.0953980   8.1114320  78.5773020 148.2996130   8.6467010  88.1568810
 147.3498840   8.6130550  88.2713800 148.4809140   9.5567120  87.9218580
 134.1540570   6.8968690  77.2667440 134.8632270   6.4751910  76.7814720
 133.4380510   6.9643920  76.6350790 133.8014730   2.9508020  76.3070090
 134.5242860   3.4916960  76.6251310 134.0739250   2.6771440  75.4311630
 147.6106380   7.8200490  80.5741670 148.1065500   7.5871360  81.3590550
 147.4122450   6.9812330  80.1579310 133.4906920   2.2014210  86.2092710
 134.1383110   1.6511590  85.7687870 133.9108760   2.4557360  87.0308520
 147.3859260   2.3955570  89.5662350 148.0231480   3.0089710  89.9321540
 147.5334150   2.4316230  88.6211580 146.9440720  19.0971570  82.9680590
 147.5399790  18.7756140  82.2915010 147.2018870  18.6243390  83.7593860
 133.2438920   2.3569880  88.9518030 132.8953740   2.8133700  89.7176210
 132.9126620   1.4627010  89.0340460 134.8503290  15.5289480  93.1171220
 134.8072920  15.1582390  93.9985680 134.9814300  16.4667050  93.2573040
 138.5509320  17.0849070  88.7180940 138.3100680  17.3523630  87.8311460
 139.4911960  17.2554800  88.7731800 140.7563740   3.5481760  92.4737450
 140.6952630   4.1403590  93.2232860 141.6964120   3.4407720  92.3287710
 143.3938300   3.2051820  92.1129740 144.0078710   3.5231110  91.4510820
 143.9387860   2.7200410  92.7325600 134.6891320  18.4751730  90.2369000
 134.0951640  18.3436430  90.9759040 134.6815160  17.6389870  89.7711100
 145.0418320   3.9754830  89.8240750 144.7131680   3.1606590  89.4442480
 145.9900620   3.9324640  89.7006440 147.4952930  19.7466870  86.7978320
 147.0355900  20.4982680  86.4236340 146.8665390  19.0273340  86.7393120
 134.3203550  15.8410110  89.1877040 133.5937610  15.2215400  89.1202990
 134.3812700  16.2350720  88.3175120 137.9248650  18.0555110  85.9726450
 138.4413670  17.4442470  85.4474710 138.5746030  18.5583890  86.4637460
 140.6644150  18.9463600  86.7995430 140.9521960  18.6917900  85.9228440
 141.1767370  18.3940960  87.3901000 141.8821160   2.6853800  87.3791940
 141.0992950   3.1599300  87.6588700 141.5884090   1.7808630  87.2705120
 146.4342230   3.3876900  85.4241030 146.8750320   3.3322000  84.5762630
 146.1649820   4.3034910  85.4951210 132.6033550  19.1584500  82.3973800
 132.4355590  18.5255180  83.0955690 131.7368060  19.3643900  82.0467990
 133.2261570   2.9901280  79.9005660 133.9840930   3.1030160  79.3269690
 132.7638740   3.8270480  79.8549090 139.7675380   5.1040550  82.8907970
 138.9549890   4.7297440  82.5503850 140.2717020   4.3485630  83.1929160
 144.2700360   1.7683000  84.1291040 144.8729730   2.3403210  84.6039560
 143.5293350   2.3322440  83.9064940 147.4134960   2.1704560  79.4031320
 147.6085590   3.0688010  79.6698750 146.6264830   1.9391640  79.8964270
 134.2096250  17.8517730  79.8423940 133.6843870  18.2325760  79.1385900
 134.1340830  18.4768500  80.5633650 135.5986720   3.5165330  78.4407630
 136.1279480   2.7295130  78.3115580 136.2315040   4.1956520  78.6743160
 137.7924560   3.2540470  81.4953020 137.1627300   2.5527780  81.6623150
 137.2529700   4.0144600  81.2786180 140.7316510  19.8679700  94.1663630
 141.6583820  19.6323970  94.2099590 140.7166940  20.6951700  93.6849660
 137.9180120   2.5324450  93.9305510 137.6364390   3.0358050  93.1666330
 138.2999820   1.7346200  93.5647640 136.8089220  19.8000110  78.7173190
 137.5408040  19.5159390  78.1697080 137.0682890  19.5613390  79.6072570
 135.9704010  15.9164840  78.7219520 135.3412890  16.3849940  79.2705350
 136.0851840  15.0714060  79.1565710 144.5195580   1.9478030  94.5085980
 144.4061030   2.2672640  95.4037500 145.3365320   2.3490540  94.2123260
 147.2994070  19.0949560  93.9904670 148.0919390  18.5998790  93.7830630
 147.5927220  19.7739700  94.5980280 143.4253730   9.9670500  64.8720720
 143.3447780   9.0525110  64.6012430 143.0118150  10.4637570  64.1660430
 141.5571770  11.7449520  66.7529990 140.7813870  11.2649960  67.0428560
 142.2084700  11.0655170  66.5786150 135.5737600  12.0569330  67.6305750
 134.7422480  11.8018040  68.0302260 136.1818580  12.1280100  68.3663670
 145.5779200  16.1509710  65.5329120 145.1160730  15.3796950  65.8616290
 146.3904750  16.1775780  66.0381570 135.5538860  16.0909420  67.8263770
 135.8566900  15.2007160  67.6473990 136.2982450  16.6479640  67.5986020
 133.9829550   7.0171220  61.4148140 133.0946250   7.3587190  61.3128020
 134.2670740   6.8171540  60.5228970 131.9462560   9.6176870  67.2987840
 132.5178670   8.8499070  67.2991480 131.9464100   9.9165630  66.3894450
 141.8042510  18.4367720  65.1533110 141.1853950  18.8925220  64.5827550
 142.6594290  18.5919180  64.7522810 140.9980760  14.4206710  66.7600150
 140.9289040  13.4796650  66.5989280 141.7600620  14.5108120  67.3322720
 133.1887430   5.0261230  69.0856770 133.0090270   4.1286980  69.3659530
 132.7867510   5.5733100  69.7603720 142.0285930   7.2277090  66.9869080
 142.4050750   6.3548970  66.8742750 141.9305440   7.5635790  66.0959520
 136.1590940   5.6002720  62.4486520 136.2657690   6.5006450  62.7555280
 135.2483300   5.5520690  62.1581170 145.8110050   4.7227530  63.9197420
 146.6319670   4.2324100  63.9622900 145.8444130   5.3125190  64.6729260
 133.8074100   7.5221730  67.6939110 134.4884210   7.7860100  68.3126510
 133.4922150   6.6822600  68.0277120 137.9998670   8.5689090  66.7811700
 138.5076890   9.0670060  67.4216720 138.5311910   7.7924290  66.6051060
 136.2834770   3.2087650  71.0475120 136.2853210   3.7260040  70.2421020
 135.4539080   2.7317830  71.0245050 142.6705860  13.3206960  62.5465020
 142.0523130  13.7856410  61.9827740 143.1829110  14.0134440  62.9634530
 137.5337620  12.8482830  69.2248620 137.2007000  13.4751750  69.8669690
 137.7104300  13.3744710  68.4450290 146.0471530   6.6627910  66.6924960
 145.3427100   6.9512800  67.2728070 146.4083690   7.4728020  66.3324520
 135.9650100   4.9197610  69.0545570 136.3066910   5.7639660  68.7599440
 135.0265910   5.0681350  69.1710910 136.7456720  14.8163630  71.0397800
 137.3630720  15.4914710  70.7582250 135.8849840  15.2251610  70.9485300
 132.0389060  14.0063490  59.9204650 131.6617040  14.4950590  59.1889550
 132.2962130  14.6788770  60.5511180 147.6634310  16.2803040  68.9552440
 146.9797830  16.9502150  68.9469110 148.2028600  16.4783690  68.1897300
 139.6477990   2.4079880  65.3790160 139.9552970   1.8526770  64.6625660
 138.7178690   2.5424340  65.1963150 145.1993050  18.1247170  67.6697620
 145.2120210  17.7209460  66.8019880 144.6468270  18.8994460  67.5659050
 146.4938470  14.8463390  62.7587790 146.3834800  13.9037720  62.8837210
 146.4906720  15.2079030  63.6450550 144.5978490  13.0277010  68.9980230
 145.0147280  12.8137120  68.1633690 145.3218310  13.2849800  69.5688850
 142.0358750  10.4728710  62.1150280 141.1088030  10.4066090  62.3438750
 142.1883570  11.4108840  62.0005520 142.0227830   6.7445710  59.1117440
 141.0831500   6.9059670  59.1969900 142.3411090   7.4631390  58.5653430
 146.0656040  12.0349010  62.6185530 145.4468460  11.6968560  61.9711830
 146.0480490  11.3908770  63.3264720 145.5082600   8.2133550  70.0351340
 145.0953780   9.0387260  70.2891330 144.7758550   7.6278590  69.8427700
 137.6415390  10.9993450  64.8970010 137.2372390  10.2870700  64.4015910
 137.7278510  10.6546690  65.7858050 138.1097090  14.6861010  67.0609220
 137.8125380  14.0806480  66.3817000 139.0596910  14.7238320  66.9498580
 136.3544010   7.7736660  68.6769050 136.9058600   7.8832000  67.9022300
 136.8687520   8.1474260  69.3924280 146.1982700  18.2592880  70.7232320
 145.7213260  19.0665070  70.5304930 145.5144490  17.6071210  70.8758530
 137.2015520  14.4242700  73.7117020 136.3044050  14.6482670  73.9590420
 137.2268390  14.5477640  72.7628420 144.2420740  11.2735820  59.6258280
 144.6814020  10.4358250  59.4796100 144.9549160  11.9065220  59.7122420
 136.0286740  11.2956020  72.2874390 135.8894510  12.1678820  72.6561790
 135.1468100  10.9528830  72.1422330 142.3516120  16.2131890  63.5939520
 142.7912030  16.9556220  63.1794910 142.2903010  16.4558460  64.5178480
 137.8267090  17.2377720  74.4959540 137.7982520  17.6420670  73.6287970
 137.6632060  16.3088080  74.3331140 147.8237880   2.5278630  57.9399320
 147.5110540   2.6205460  58.8398390 148.5850350   3.1059660  57.8896750
 134.3420020   9.8938430  62.3976660 134.2217620  10.6200520  61.7857930
 134.0320910   9.1241340  61.9204570 131.9805390  13.0653570  68.2045300
 132.0585810  13.2002340  67.2601020 132.5947070  12.3569460  68.3973420
 133.2253020  14.7653760  64.6151480 132.8181100  14.9068350  63.7605080
 134.1166030  14.4813920  64.4122690 143.0431900  18.9145670  71.5218530
 143.5576570  18.8253680  72.3240960 142.2000980  19.2605370  71.8146440
 145.0186300  19.2001010  60.9502530 144.8587440  18.9103950  61.8484360
 144.8533010  18.4241140  60.4147760 137.4974680  18.9799540  62.7274150
 137.3217160  18.0635080  62.5141950 136.6430420  19.3386830  62.9671950
 144.7212430  16.7088570  59.5100530 144.0277590  16.7065860  58.8502810
 145.4635290  16.2847890  59.0794700 144.2862360  18.3351280  63.5849020
 144.7419310  17.5540660  63.8987640 144.6254880  19.0458100  64.1290200
 132.0364910  14.1067740  70.7439760 132.1995950  13.6373100  69.9259130
 132.5017360  13.5991300  71.4088600 136.8083680   3.2373500  65.7800330
 136.3651830   4.0183040  65.4484850 137.3668670   3.5603390  66.4871270
 141.0953490   6.1042020  71.3835650 140.6332860   6.3125040  72.1955590
 140.6931600   5.2901370  71.0806320 146.0958000   7.3250970  72.5132310
 145.2451590   7.0256720  72.8341380 145.9359790   7.5692980  71.6016130
 143.1907710   8.8252720  74.6131100 143.5161120   7.9916470  74.2733330
 143.9788040   9.3481240  74.7609430 139.9242500   2.8584200  60.6606160
 139.2996680   2.8544070  61.3859470 139.8372620   1.9915160  60.2642130
 138.8459580   3.7820830  67.6389930 139.1431910   4.6883660  67.5581950
 139.3945140   3.2939610  67.0249500 136.5997900   8.3607070  63.5081580
 136.3738820   8.1444240  64.4128200 135.8190430   8.7935530  63.1627550
 143.8295660   8.3670440  62.1072230 143.2304550   9.0906240  61.9235850
 144.3775270   8.3047220  61.3248680 139.0397110   9.2592650  74.1741850
 138.9440710   8.3187380  74.0242250 139.8829090   9.4807720  73.7789920
 142.4360530   7.0033980  64.1375510 142.8290100   7.3206180  63.3244200
 142.7977380   6.1245860  64.2520030 134.1707650   5.6706320  72.3275630
 133.7771040   6.5181530  72.5348410 133.4826050   5.0332690  72.5184270
 140.7452700   5.7541290  75.3972370 140.0551020   5.5613490  76.0318460
 141.4885000   6.0375930  75.9296670 131.4724700   3.5934780  66.3605710
 131.1837750   4.1637640  67.0730690 132.2170460   3.1139230  66.7236940
 131.6594930   7.5354900  57.5708430 131.5769600   8.4785660  57.7123420
 131.3077990   7.3929810  56.6920780 143.0215670   9.5939730  68.2326290
 142.2896790  10.1026540  68.5816390 142.6240010   8.7769710  67.9315070
 139.4593060   6.2693930  66.6378780 139.4629120   5.8283880  65.7883320
 140.3544180   6.5911260  66.7450600 135.3095440   6.1520420  65.5972990
 134.9695490   6.6295650  66.3540040 134.5472760   5.6985540  65.2374090
 139.5213210   7.2706010  59.6285540 139.6426030   7.2292490  60.5771360
 139.1361720   8.1330160  59.4732270 143.4841580   5.0473410  67.6449230
 143.5014320   5.4982060  68.4891080 143.2357160   4.1479050  67.8582670
 138.5334710   9.5807150  59.0268840 137.9651610   9.1325400  58.4004750
 139.2423710   9.9399930  58.4933990 146.9112330   2.4605590  73.4835610
 147.2358100   1.7295250  74.0093590 146.9468840   2.1419230  72.5816600
 133.6103890  13.4819170  72.9035570 133.2258680  12.8412840  73.5018530
 133.9216080  14.1855290  73.4730300 139.7601030  10.3295710  68.3844190
 140.1271160   9.8554280  69.1305530 139.5706090  11.2037280  68.7252530
 132.6241520   5.0739400  64.5137660 132.3388440   4.7095070  65.3516280
 132.5620380   4.3419860  63.9000800 137.5500400   9.3704350  70.7028400
 137.2457470  10.2496330  70.9278760 138.5046860   9.4304140  70.7385840
 136.0782190  13.5765340  61.2995250 135.3044450  13.0362960  61.1393970
 136.8076820  13.0571950  60.9613010 146.8370170  12.5730700  67.0921640
 147.5569290  13.0685990  66.7017750 146.6351990  11.8948590  66.4475510
 142.2980110   3.9668660  61.2351030 141.4844720   3.4681830  61.1596340
 142.1042060   4.8066910  60.8187380 142.2188970  12.6439760  72.9790640
 142.1526280  11.7235430  72.7248230 141.5894110  12.7415200  73.6935280
 145.0128500   8.3388310  59.5313190 145.9008120   8.6505540  59.3564530
 144.9833590   7.4660560  59.1393770 136.1219590  13.2445720  64.9374060
 136.6398260  12.4413980  64.8830950 135.6703610  13.1824860  65.7790890
 141.0089090  14.5112000  60.2101360 141.3504790  15.2554230  59.7144680
 140.1801800  14.8243120  60.5726190 133.6064130  10.2107090  71.8499760
 133.2479070  10.8760940  72.4373100 133.3118690   9.3790640  72.2212380
 136.8077250  10.6691330  74.7339310 136.5077390  10.8148510  73.8367130
 137.5788490  10.1096620  74.6412700 142.1505700  15.4660330  72.7294440
 142.1650240  14.5341290  72.5113350 141.4430800  15.5520090  73.3684210
 147.2842770   9.6500150  58.9993050 147.2006490  10.0814370  58.1489490
 148.0036960  10.1098500  59.4319870 148.3130020  16.5042410  61.7275180
 147.6706180  15.8498030  62.0018900 147.9260680  16.9097500  60.9515850
 143.8916500  13.8327840  65.5746870 144.2440320  13.2355970  64.9148240
 143.0078830  13.5072070  65.7455120 139.9779780  14.5925530  62.9817280
 140.6650910  15.1394740  63.3624870 139.1912200  15.1366260  63.0166890
 132.1172180  10.2098350  58.4734360 132.9867030  10.4923150  58.7570280
 131.6262500  11.0234220  58.3583170 139.2806990  11.5971560  62.5942640
 139.7369770  12.4076810  62.8202830 138.9295200  11.2794700  63.4261130
 141.5839600  17.1077900  69.8234940 142.2281820  17.3137280  70.5008360
 141.9469040  16.3466300  69.3705790 135.1818770   1.9409210  63.0665160
 135.0533400   1.9327110  64.0150080 134.3580790   2.2792300  62.7156170
 142.8571680  15.1110250  68.5412390 143.4993910  14.4103410  68.6544560
 143.3821030  15.8908690  68.3609280 146.7027400  15.3958870  58.2651530
 146.4764980  14.6789310  58.8576170 146.3123600  15.1471310  57.4273280
 144.6309300  15.9105150  71.7448450 144.9665540  16.4971840  72.4226370
 143.7109640  15.7797860  71.9746240 132.4843430  19.4225730  59.0395990
 132.8441070  20.0215070  58.3853260 132.3435770  19.9685620  59.8131020
 132.1812700   3.7000330  72.5271860 131.4671220   3.8997250  73.1324470
 132.6007740   2.9239900  72.8986660 146.2843650  13.3130810  59.9265690
 145.9965350  13.7743500  60.7143570 147.0795820  12.8528580  60.1949910
 132.4685290  17.6880590  73.5138390 132.5776410  16.7475330  73.3733780
 131.8165850  17.9535340  72.8652120 140.4597880  15.9596480  74.9136510
 140.1394750  15.2405720  75.4582200 139.7856240  16.6351550  74.9872570
 138.5012050  16.8056930  59.8569660 138.4922150  17.5386620  59.2414170
 137.5810410  16.5588510  59.9496620 134.1018690  12.0271820  60.6016420
 133.4946640  12.7670720  60.6111720 134.5768040  12.1171180  59.7754620
 143.6751480   6.1922640  70.2773310 144.0432300   5.3717850  70.6052880
 142.8149680   6.2524530  70.6928960 147.0413510   5.1479580  61.0860870
 146.4126670   5.2525250  60.3719100 146.5465430   5.3676360  61.8754750
 141.4871650  16.8685170  58.5194850 141.5883630  16.6649160  57.5896830
 140.5873390  16.6143450  58.7242630 139.0097540   7.4265530  62.5018750
 138.3013690   7.8951870  62.9432360 139.2942020   6.7687540  63.1363940
 140.6353470   8.8462230  70.5011280 141.1338720   9.3208050  71.1663130
 140.7776420   7.9225750  70.7081310 143.0412970   4.1516190  63.9414540
 142.9180750   4.1702320  62.9924050 143.9897530   4.1995130  64.0612940
 140.1289760  19.3871490  63.2142520 140.3831260  19.3492880  62.2921890
 139.1802240  19.2604820  63.2070770 137.2132560   5.7350610  59.8769460
 138.0623090   6.1720760  59.8109650 136.8463830   6.0470870  60.7041520
 147.8420330   5.0630190  71.3439670 147.3393930   5.8035590  71.6833480
 148.6576990   5.4514190  71.0276460 146.1342340  10.3063370  64.7901030
 145.1932480  10.3213600  64.9648720 146.4486410   9.5199330  65.2361330
 136.1123980  11.9882970  58.3504990 136.8787250  11.8764330  58.9130420
 136.1898670  11.2920940  57.6981760 134.8070740   9.4208040  59.0337880
 134.8874330   8.4735550  59.1455280 135.6990490   9.7514920  59.1398540
 135.6085450  19.5703430  66.1372420 136.3447930  19.0218890  66.4080990
 135.9926370  20.4359440  65.9978410 132.4930930  15.6377000  62.0113930
 131.5670710  15.8798140  62.0019340 132.9587360  16.4651260  61.8898680
 134.6143730  18.7549500  75.3258000 135.4156460  19.0761550  75.7393400
 134.0995550  18.3945080  76.0477910 138.7187760  18.7433740  57.9597990
 139.5116370  19.0322570  57.5079780 138.1992110  18.3125910  57.2810470
 143.4508360  14.8629370  75.2733410 142.8446520  14.8860970  74.5329160
 143.1462470  14.1312410  75.8100660 144.8808730  18.5909660  73.8842820
 145.8330480  18.5067680  73.8343060 144.7336950  19.2551370  74.5576610
 147.7717930  17.9703870  59.3834730 147.4859440  17.5569010  58.5688910
 147.5737480  18.8991580  59.2635250 132.3341540  11.2422960  74.2694050
 132.8380560  10.6630240  74.8410280 131.5948960  11.5263190  74.8070420
 139.2365160  13.9637150  57.8240340 139.1315800  13.3489500  58.5501720
 139.0689380  13.4403040  57.0403350 139.3879480  12.6493950  73.8029570
 138.6225150  13.2178950  73.7184240 139.5695440  12.3570160  72.9097800
 142.4767890  13.0257180  58.4282330 141.9277990  13.4726480  59.0725070
 143.0987150  12.5206430  58.9520000 146.5302830  14.3799280  74.3604590
 147.2712300  14.7175040  73.8572050 145.7675510  14.5491340  73.8074360
 134.3664620   9.3852550  75.1644120 134.4069960   9.0866420  76.0729350
 135.2210120   9.7860160  75.0051640 138.1443010  11.9848100  60.3247630
 138.5659430  11.8187970  61.1679020 138.2693850  11.1748330  59.8302770
 136.3070430   7.9644650  73.1318610 135.7766890   7.4735600  72.5041950
 136.9758500   8.3928850  72.5976540 140.6570650  11.0085710  57.5724730
 141.1776310  10.2934730  57.2065880 141.3039050  11.6471580  57.8725240
 145.2048490  12.4314110  72.8959800 145.6189510  12.5859190  73.7450220
 144.2699490  12.5569330  73.0585580 145.6770660   9.7710270  74.8998950
 146.2591430   9.0162590  74.8119430 145.8532430  10.3017710  74.1230430
 136.7942730   4.9307020  73.2115900 136.6999600   4.3127770  72.4866770
 136.2140120   5.6573310  72.9845810 139.5604170   3.4880260  70.2443290
 139.1121470   3.5104520  69.3988840 138.9269370   3.0899280  70.8413590
 139.9663720  12.3834590  70.8655730 140.3851830  13.2267320  70.6931970
 139.0472350  12.5206630  70.6362510 142.3027620  10.1150770  72.2493570
 142.4223830   9.5191910  72.9888410 143.1621620  10.1520460  71.8294870
 144.6415520  10.6687960  70.8256080 144.1150740  11.1930580  70.2221220
 144.9846860  11.3015350  71.4565810 137.0401910   8.0581330  57.2705790
 136.8390970   7.1948690  57.6319130 136.8693960   7.9714690  56.3327390
 137.8171140  18.6887600  71.9813460 137.2792230  19.4133660  71.6622160
 138.0705100  18.2117940  71.1910800 139.0696390   6.6572120  73.5069390
 139.6596080   6.3487970  74.1947210 138.2516630   6.1851870  73.6629290
 143.8889820   6.2737930  73.7402410 143.2005340   5.6119470  73.6752400
 144.6095840   5.8276200  74.1850870 144.5190220   2.8689560  59.7992670
 144.7992510   2.0257460  60.1552090 143.7455950   3.1012670  60.3131420
 135.8384710   5.1581950  57.2583670 136.1410610   5.1649380  56.3502820
 136.5779300   4.8079810  57.7551330 140.6733350  19.9238810  72.2400110
 140.5992050  20.8273950  72.5472480 139.7712190  19.6050710  72.2122180
 139.0569640   4.1016570  58.2439870 138.7091640   3.4240560  57.6642320
 139.2582410   3.6406080  59.0583260 141.2218680  19.0897320  59.8626470
 142.1169470  19.4282290  59.8845230 141.2536310  18.3676730  59.2350750
 134.8614840  14.4624370  58.0913470 135.2989710  15.0054040  58.7471050
 135.3462570  13.6371320  58.1009810 132.0760640  17.2513400  65.5433730
 132.4063650  16.3834460  65.3112370 132.5051640  17.4571920  66.3738690
 136.6722560  15.5822410  63.2035700 136.3718100  15.4587380  64.1039610
 136.5660050  14.7231000  62.7951430 132.5650850  18.1183990  68.2815360
 132.1281840  18.2984790  69.1139510 133.1328530  18.8758610  68.1397080
 148.2013030  17.6200990  72.5692670 147.6015020  17.6793550  71.8256590
 148.3306930  16.6805970  72.6989520 132.3975280  10.6304220  64.6404240
 131.7424120  10.3615860  63.9963940 133.2353230  10.5208700  64.1906220
 146.8864670  14.3452970  70.6668830 146.0724510  14.7750130  70.9294620
 147.2938870  14.9571380  70.0537880 145.3465720   5.4245510  58.8622730
 145.7650600   5.2376490  58.0219390 145.0401780   4.5724560  59.1725660
 133.4351210  11.0156790  69.1807580 133.8024250  10.9284190  70.0603600
 132.8662030  10.2523340  69.0814440 148.2355070   9.4841170  72.1938050
 148.0041160   9.2553920  71.2936000 148.4959620  10.4040720  72.1482940
 132.9867210   7.9265880  73.0866000 132.0923260   7.8932640  73.4259710
 133.5264760   8.1252670  73.8517250 146.6743140   4.7097600  74.9717750
 147.5513320   4.7181000  75.3551750 146.6863980   3.9728440  74.3610100
 131.6113360   7.8403150  60.5829570 130.7077440   8.1033350  60.4081230
 132.0953980   8.1114320  59.8029530 148.2996130   8.6467010  69.3825320
 147.3498840   8.6130550  69.4970310 148.4809140   9.5567120  69.1475090
 134.1540570   6.8968690  58.4923950 134.8632270   6.4751910  58.0071230
 133.4380510   6.9643920  57.8607300 133.8014730   2.9508020  57.5326600
 134.5242860   3.4916960  57.8507820 134.0739250   2.6771440  56.6568140
 147.6106380   7.8200490  61.7998180 148.1065500   7.5871360  62.5847060
 147.4122450   6.9812330  61.3835820 133.4906920   2.2014210  67.4349220
 134.1383110   1.6511590  66.9944380 133.9108760   2.4557360  68.2565030
 147.3859260   2.3955570  70.7918860 148.0231480   3.0089710  71.1578050
 147.5334150   2.4316230  69.8468090 146.9440720  19.0971570  64.1937100
 147.5399790  18.7756140  63.5171520 147.2018870  18.6243390  64.9850370
 133.2438920   2.3569880  70.1774540 132.8953740   2.8133700  70.9432720
 132.9126620   1.4627010  70.2596970 134.8503290  15.5289480  74.3427730
 134.8072920  15.1582390  75.2242190 134.9814300  16.4667050  74.4829550
 138.5509320  17.0849070  69.9437450 138.3100680  17.3523630  69.0567970
 139.4911960  17.2554800  69.9988310 140.7563740   3.5481760  73.6993960
 140.6952630   4.1403590  74.4489370 141.6964120   3.4407720  73.5544220
 143.3938300   3.2051820  73.3386250 144.0078710   3.5231110  72.6767330
 143.9387860   2.7200410  73.9582110 134.6891320  18.4751730  71.4625510
 134.0951640  18.3436430  72.2015550 134.6815160  17.6389870  70.9967610
 145.0418320   3.9754830  71.0497260 144.7131680   3.1606590  70.6698990
 145.9900620   3.9324640  70.9262950 147.4952930  19.7466870  68.0234830
 147.0355900  20.4982680  67.6492850 146.8665390  19.0273340  67.9649630
 134.3203550  15.8410110  70.4133550 133.5937610  15.2215400  70.3459500
 134.3812700  16.2350720  69.5431630 137.9248650  18.0555110  67.1982960
 138.4413670  17.4442470  66.6731220 138.5746030  18.5583890  67.6893970
 140.6644150  18.9463600  68.0251940 140.9521960  18.6917900  67.1484950
 141.1767370  18.3940960  68.6157510 141.8821160   2.6853800  68.6048450
 141.0992950   3.1599300  68.8845210 141.5884090   1.7808630  68.4961630
 146.4342230   3.3876900  66.6497540 146.8750320   3.3322000  65.8019140
 146.1649820   4.3034910  66.7207720 132.6033550  19.1584500  63.6230310
 132.4355590  18.5255180  64.3212200 131.7368060  19.3643900  63.2724500
 133.2261570   2.9901280  61.1262170 133.9840930   3.1030160  60.5526200
 132.7638740   3.8270480  61.0805600 139.7675380   5.1040550  64.1164480
 138.9549890   4.7297440  63.7760360 140.2717020   4.3485630  64.4185670
 144.2700360   1.7683000  65.3547550 144.8729730   2.3403210  65.8296070
 143.5293350   2.3322440  65.1321450 147.4134960   2.1704560  60.6287830
 147.6085590   3.0688010  60.8955260 146.6264830   1.9391640  61.1220780
 134.2096250  17.8517730  61.0680450 133.6843870  18.2325760  60.3642410
 134.1340830  18.4768500  61.7890160 135.5986720   3.5165330  59.6664140
 136.1279480   2.7295130  59.5372090 136.2315040   4.1956520  59.8999670
 137.7924560   3.2540470  62.7209530 137.1627300   2.5527780  62.8879660
 137.2529700   4.0144600  62.5042690 140.7316510  19.8679700  75.3920140
 141.6583820  19.6323970  75.4356100 140.7166940  20.6951700  74.9106170
 137.9180120   2.5324450  75.1562020 137.6364390   3.0358050  74.3922840
 138.2999820   1.7346200  74.7904150 136.8089220  19.8000110  59.9429700
 137.5408040  19.5159390  59.3953590 137.0682890  19.5613390  60.8329080
 135.9704010  15.9164840  59.9476030 135.3412890  16.3849940  60.4961860
 136.0851840  15.0714060  60.3822220 144.5195580   1.9478030  75.7342490
 144.4061030   2.2672640  76.6294010 145.3365320   2.3490540  75.4379770
 147.2994070  19.0949560  75.2161180 148.0919390  18.5998790  75.0087140
 147.5927220  19.7739700  75.8236790 143.4253730   9.9670500  46.0977230
 143.3447780   9.0525110  45.8268940 143.0118150  10.4637570  45.3916940
 141.5571770  11.7449520  47.9786500 140.7813870  11.2649960  48.2685070
 142.2084700  11.0655170  47.8042660 135.5737600  12.0569330  48.8562260
 134.7422480  11.8018040  49.2558770 136.1818580  12.1280100  49.5920180
 145.5779200  16.1509710  46.7585630 145.1160730  15.3796950  47.0872800
 146.3904750  16.1775780  47.2638080 135.5538860  16.0909420  49.0520280
 135.8566900  15.2007160  48.8730500 136.2982450  16.6479640  48.8242530
 133.9829550   7.0171220  42.6404650 133.0946250   7.3587190  42.5384530
 134.2670740   6.8171540  41.7485480 131.9462560   9.6176870  48.5244350
 132.5178670   8.8499070  48.5247990 131.9464100   9.9165630  47.6150960
 141.8042510  18.4367720  46.3789620 141.1853950  18.8925220  45.8084060
 142.6594290  18.5919180  45.9779320 140.9980760  14.4206710  47.9856660
 140.9289040  13.4796650  47.8245790 141.7600620  14.5108120  48.5579230
 133.1887430   5.0261230  50.3113280 133.0090270   4.1286980  50.5916040
 132.7867510   5.5733100  50.9860230 142.0285930   7.2277090  48.2125590
 142.4050750   6.3548970  48.0999260 141.9305440   7.5635790  47.3216030
 136.1590940   5.6002720  43.6743030 136.2657690   6.5006450  43.9811790
 135.2483300   5.5520690  43.3837680 145.8110050   4.7227530  45.1453930
 146.6319670   4.2324100  45.1879410 145.8444130   5.3125190  45.8985770
 133.8074100   7.5221730  48.9195620 134.4884210   7.7860100  49.5383020
 133.4922150   6.6822600  49.2533630 137.9998670   8.5689090  48.0068210
 138.5076890   9.0670060  48.6473230 138.5311910   7.7924290  47.8307570
 136.2834770   3.2087650  52.2731630 136.2853210   3.7260040  51.4677530
 135.4539080   2.7317830  52.2501560 142.6705860  13.3206960  43.7721530
 142.0523130  13.7856410  43.2084250 143.1829110  14.0134440  44.1891040
 137.5337620  12.8482830  50.4505130 137.2007000  13.4751750  51.0926200
 137.7104300  13.3744710  49.6706800 146.0471530   6.6627910  47.9181470
 145.3427100   6.9512800  48.4984580 146.4083690   7.4728020  47.5581030
 135.9650100   4.9197610  50.2802080 136.3066910   5.7639660  49.9855950
 135.0265910   5.0681350  50.3967420 136.7456720  14.8163630  52.2654310
 137.3630720  15.4914710  51.9838760 135.8849840  15.2251610  52.1741810
 132.0389060  14.0063490  41.1461160 131.6617040  14.4950590  40.4146060
 132.2962130  14.6788770  41.7767690 147.6634310  16.2803040  50.1808950
 146.9797830  16.9502150  50.1725620 148.2028600  16.4783690  49.4153810
 139.6477990   2.4079880  46.6046670 139.9552970   1.8526770  45.8882170
 138.7178690   2.5424340  46.4219660 145.1993050  18.1247170  48.8954130
 145.2120210  17.7209460  48.0276390 144.6468270  18.8994460  48.7915560
 146.4938470  14.8463390  43.9844300 146.3834800  13.9037720  44.1093720
 146.4906720  15.2079030  44.8707060 144.5978490  13.0277010  50.2236740
 145.0147280  12.8137120  49.3890200 145.3218310  13.2849800  50.7945360
 142.0358750  10.4728710  43.3406790 141.1088030  10.4066090  43.5695260
 142.1883570  11.4108840  43.2262030 142.0227830   6.7445710  40.3373950
 141.0831500   6.9059670  40.4226410 142.3411090   7.4631390  39.7909940
 146.0656040  12.0349010  43.8442040 145.4468460  11.6968560  43.1968340
 146.0480490  11.3908770  44.5521230 145.5082600   8.2133550  51.2607850
 145.0953780   9.0387260  51.5147840 144.7758550   7.6278590  51.0684210
 137.6415390  10.9993450  46.1226520 137.2372390  10.2870700  45.6272420
 137.7278510  10.6546690  47.0114560 138.1097090  14.6861010  48.2865730
 137.8125380  14.0806480  47.6073510 139.0596910  14.7238320  48.1755090
 136.3544010   7.7736660  49.9025560 136.9058600   7.8832000  49.1278810
 136.8687520   8.1474260  50.6180790 146.1982700  18.2592880  51.9488830
 145.7213260  19.0665070  51.7561440 145.5144490  17.6071210  52.1015040
 137.2015520  14.4242700  54.9373530 136.3044050  14.6482670  55.1846930
 137.2268390  14.5477640  53.9884930 144.2420740  11.2735820  40.8514790
 144.6814020  10.4358250  40.7052610 144.9549160  11.9065220  40.9378930
 136.0286740  11.2956020  53.5130900 135.8894510  12.1678820  53.8818300
 135.1468100  10.9528830  53.3678840 142.3516120  16.2131890  44.8196030
 142.7912030  16.9556220  44.4051420 142.2903010  16.4558460  45.7434990
 137.8267090  17.2377720  55.7216050 137.7982520  17.6420670  54.8544480
 137.6632060  16.3088080  55.5587650 147.8237880   2.5278630  39.1655830
 147.5110540   2.6205460  40.0654900 148.5850350   3.1059660  39.1153260
 134.3420020   9.8938430  43.6233170 134.2217620  10.6200520  43.0114440
 134.0320910   9.1241340  43.1461080 131.9805390  13.0653570  49.4301810
 132.0585810  13.2002340  48.4857530 132.5947070  12.3569460  49.6229930
 133.2253020  14.7653760  45.8407990 132.8181100  14.9068350  44.9861590
 134.1166030  14.4813920  45.6379200 143.0431900  18.9145670  52.7475040
 143.5576570  18.8253680  53.5497470 142.2000980  19.2605370  53.0402950
 145.0186300  19.2001010  42.1759040 144.8587440  18.9103950  43.0740870
 144.8533010  18.4241140  41.6404270 137.4974680  18.9799540  43.9530660
 137.3217160  18.0635080  43.7398460 136.6430420  19.3386830  44.1928460
 144.7212430  16.7088570  40.7357040 144.0277590  16.7065860  40.0759320
 145.4635290  16.2847890  40.3051210 144.2862360  18.3351280  44.8105530
 144.7419310  17.5540660  45.1244150 144.6254880  19.0458100  45.3546710
 132.0364910  14.1067740  51.9696270 132.1995950  13.6373100  51.1515640
 132.5017360  13.5991300  52.6345110 136.8083680   3.2373500  47.0056840
 136.3651830   4.0183040  46.6741360 137.3668670   3.5603390  47.7127780
 141.0953490   6.1042020  52.6092160 140.6332860   6.3125040  53.4212100
 140.6931600   5.2901370  52.3062830 146.0958000   7.3250970  53.7388820
 145.2451590   7.0256720  54.0597890 145.9359790   7.5692980  52.8272640
 143.1907710   8.8252720  55.8387610 143.5161120   7.9916470  55.4989840
 143.9788040   9.3481240  55.9865940 139.9242500   2.8584200  41.8862670
 139.2996680   2.8544070  42.6115980 139.8372620   1.9915160  41.4898640
 138.8459580   3.7820830  48.8646440 139.1431910   4.6883660  48.7838460
 139.3945140   3.2939610  48.2506010 136.5997900   8.3607070  44.7338090
 136.3738820   8.1444240  45.6384710 135.8190430   8.7935530  44.3884060
 143.8295660   8.3670440  43.3328740 143.2304550   9.0906240  43.1492360
 144.3775270   8.3047220  42.5505190 139.0397110   9.2592650  55.3998360
 138.9440710   8.3187380  55.2498760 139.8829090   9.4807720  55.0046430
 142.4360530   7.0033980  45.3632020 142.8290100   7.3206180  44.5500710
 142.7977380   6.1245860  45.4776540 134.1707650   5.6706320  53.5532140
 133.7771040   6.5181530  53.7604920 133.4826050   5.0332690  53.7440780
 140.7452700   5.7541290  56.6228880 140.0551020   5.5613490  57.2574970
 141.4885000   6.0375930  57.1553180 131.4724700   3.5934780  47.5862220
 131.1837750   4.1637640  48.2987200 132.2170460   3.1139230  47.9493450
 131.6594930   7.5354900  38.7964940 131.5769600   8.4785660  38.9379930
 131.3077990   7.3929810  37.9177290 143.0215670   9.5939730  49.4582800
 142.2896790  10.1026540  49.8072900 142.6240010   8.7769710  49.1571580
 139.4593060   6.2693930  47.8635290 139.4629120   5.8283880  47.0139830
 140.3544180   6.5911260  47.9707110 135.3095440   6.1520420  46.8229500
 134.9695490   6.6295650  47.5796550 134.5472760   5.6985540  46.4630600
 139.5213210   7.2706010  40.8542050 139.6426030   7.2292490  41.8027870
 139.1361720   8.1330160  40.6988780 143.4841580   5.0473410  48.8705740
 143.5014320   5.4982060  49.7147590 143.2357160   4.1479050  49.0839180
 138.5334710   9.5807150  40.2525350 137.9651610   9.1325400  39.6261260
 139.2423710   9.9399930  39.7190500 146.9112330   2.4605590  54.7092120
 147.2358100   1.7295250  55.2350100 146.9468840   2.1419230  53.8073110
 133.6103890  13.4819170  54.1292080 133.2258680  12.8412840  54.7275040
 133.9216080  14.1855290  54.6986810 139.7601030  10.3295710  49.6100700
 140.1271160   9.8554280  50.3562040 139.5706090  11.2037280  49.9509040
 132.6241520   5.0739400  45.7394170 132.3388440   4.7095070  46.5772790
 132.5620380   4.3419860  45.1257310 137.5500400   9.3704350  51.9284910
 137.2457470  10.2496330  52.1535270 138.5046860   9.4304140  51.9642350
 136.0782190  13.5765340  42.5251760 135.3044450  13.0362960  42.3650480
 136.8076820  13.0571950  42.1869520 146.8370170  12.5730700  48.3178150
 147.5569290  13.0685990  47.9274260 146.6351990  11.8948590  47.6732020
 142.2980110   3.9668660  42.4607540 141.4844720   3.4681830  42.3852850
 142.1042060   4.8066910  42.0443890 142.2188970  12.6439760  54.2047150
 142.1526280  11.7235430  53.9504740 141.5894110  12.7415200  54.9191790
 145.0128500   8.3388310  40.7569700 145.9008120   8.6505540  40.5821040
 144.9833590   7.4660560  40.3650280 136.1219590  13.2445720  46.1630570
 136.6398260  12.4413980  46.1087460 135.6703610  13.1824860  47.0047400
 141.0089090  14.5112000  41.4357870 141.3504790  15.2554230  40.9401190
 140.1801800  14.8243120  41.7982700 133.6064130  10.2107090  53.0756270
 133.2479070  10.8760940  53.6629610 133.3118690   9.3790640  53.4468890
 136.8077250  10.6691330  55.9595820 136.5077390  10.8148510  55.0623640
 137.5788490  10.1096620  55.8669210 142.1505700  15.4660330  53.9550950
 142.1650240  14.5341290  53.7369860 141.4430800  15.5520090  54.5940720
 147.2842770   9.6500150  40.2249560 147.2006490  10.0814370  39.3746000
 148.0036960  10.1098500  40.6576380 148.3130020  16.5042410  42.9531690
 147.6706180  15.8498030  43.2275410 147.9260680  16.9097500  42.1772360
 143.8916500  13.8327840  46.8003380 144.2440320  13.2355970  46.1404750
 143.0078830  13.5072070  46.9711630 139.9779780  14.5925530  44.2073790
 140.6650910  15.1394740  44.5881380 139.1912200  15.1366260  44.2423400
 132.1172180  10.2098350  39.6990870 132.9867030  10.4923150  39.9826790
 131.6262500  11.0234220  39.5839680 139.2806990  11.5971560  43.8199150
 139.7369770  12.4076810  44.0459340 138.9295200  11.2794700  44.6517640
 141.5839600  17.1077900  51.0491450 142.2281820  17.3137280  51.7264870
 141.9469040  16.3466300  50.5962300 135.1818770   1.9409210  44.2921670
 135.0533400   1.9327110  45.2406590 134.3580790   2.2792300  43.9412680
 142.8571680  15.1110250  49.7668900 143.4993910  14.4103410  49.8801070
 143.3821030  15.8908690  49.5865790 146.7027400  15.3958870  39.4908040
 146.4764980  14.6789310  40.0832680 146.3123600  15.1471310  38.6529790
 144.6309300  15.9105150  52.9704960 144.9665540  16.4971840  53.6482880
 143.7109640  15.7797860  53.2002750 132.4843430  19.4225730  40.2652500
 132.8441070  20.0215070  39.6109770 132.3435770  19.9685620  41.0387530
 132.1812700   3.7000330  53.7528370 131.4671220   3.8997250  54.3580980
 132.6007740   2.9239900  54.1243170 146.2843650  13.3130810  41.1522200
 145.9965350  13.7743500  41.9400080 147.0795820  12.8528580  41.4206420
 132.4685290  17.6880590  54.7394900 132.5776410  16.7475330  54.5990290
 131.8165850  17.9535340  54.0908630 140.4597880  15.9596480  56.1393020
 140.1394750  15.2405720  56.6838710 139.7856240  16.6351550  56.2129080
 138.5012050  16.8056930  41.0826170 138.4922150  17.5386620  40.4670680
 137.5810410  16.5588510  41.1753130 134.1018690  12.0271820  41.8272930
 133.4946640  12.7670720  41.8368230 134.5768040  12.1171180  41.0011130
 143.6751480   6.1922640  51.5029820 144.0432300   5.3717850  51.8309390
 142.8149680   6.2524530  51.9185470 147.0413510   5.1479580  42.3117380
 146.4126670   5.2525250  41.5975610 146.5465430   5.3676360  43.1011260
 141.4871650  16.8685170  39.7451360 141.5883630  16.6649160  38.8153340
 140.5873390  16.6143450  39.9499140 139.0097540   7.4265530  43.7275260
 138.3013690   7.8951870  44.1688870 139.2942020   6.7687540  44.3620450
 140.6353470   8.8462230  51.7267790 141.1338720   9.3208050  52.3919640
 140.7776420   7.9225750  51.9337820 143.0412970   4.1516190  45.1671050
 142.9180750   4.1702320  44.2180560 143.9897530   4.1995130  45.2869450
 140.1289760  19.3871490  44.4399030 140.3831260  19.3492880  43.5178400
 139.1802240  19.2604820  44.4327280 137.2132560   5.7350610  41.1025970
 138.0623090   6.1720760  41.0366160 136.8463830   6.0470870  41.9298030
 147.8420330   5.0630190  52.5696180 147.3393930   5.8035590  52.9089990
 148.6576990   5.4514190  52.2532970 146.1342340  10.3063370  46.0157540
 145.1932480  10.3213600  46.1905230 146.4486410   9.5199330  46.4617840
 136.1123980  11.9882970  39.5761500 136.8787250  11.8764330  40.1386930
 136.1898670  11.2920940  38.9238270 134.8070740   9.4208040  40.2594390
 134.8874330   8.4735550  40.3711790 135.6990490   9.7514920  40.3655050
 135.6085450  19.5703430  47.3628930 136.3447930  19.0218890  47.6337500
 135.9926370  20.4359440  47.2234920 132.4930930  15.6377000  43.2370440
 131.5670710  15.8798140  43.2275850 132.9587360  16.4651260  43.1155190
 134.6143730  18.7549500  56.5514510 135.4156460  19.0761550  56.9649910
 134.0995550  18.3945080  57.2734420 138.7187760  18.7433740  39.1854500
 139.5116370  19.0322570  38.7336290 138.1992110  18.3125910  38.5066980
 143.4508360  14.8629370  56.4989920 142.8446520  14.8860970  55.7585670
 143.1462470  14.1312410  57.0357170 144.8808730  18.5909660  55.1099330
 145.8330480  18.5067680  55.0599570 144.7336950  19.2551370  55.7833120
 147.7717930  17.9703870  40.6091240 147.4859440  17.5569010  39.7945420
 147.5737480  18.8991580  40.4891760 132.3341540  11.2422960  55.4950560
 132.8380560  10.6630240  56.0666790 131.5948960  11.5263190  56.0326930
 139.2365160  13.9637150  39.0496850 139.1315800  13.3489500  39.7758230
 139.0689380  13.4403040  38.2659860 139.3879480  12.6493950  55.0286080
 138.6225150  13.2178950  54.9440750 139.5695440  12.3570160  54.1354310
 142.4767890  13.0257180  39.6538840 141.9277990  13.4726480  40.2981580
 143.0987150  12.5206430  40.1776510 146.5302830  14.3799280  55.5861100
 147.2712300  14.7175040  55.0828560 145.7675510  14.5491340  55.0330870
 134.3664620   9.3852550  56.3900630 134.4069960   9.0866420  57.2985860
 135.2210120   9.7860160  56.2308150 138.1443010  11.9848100  41.5504140
 138.5659430  11.8187970  42.3935530 138.2693850  11.1748330  41.0559280
 136.3070430   7.9644650  54.3575120 135.7766890   7.4735600  53.7298460
 136.9758500   8.3928850  53.8233050 140.6570650  11.0085710  38.7981240
 141.1776310  10.2934730  38.4322390 141.3039050  11.6471580  39.0981750
 145.2048490  12.4314110  54.1216310 145.6189510  12.5859190  54.9706730
 144.2699490  12.5569330  54.2842090 145.6770660   9.7710270  56.1255460
 146.2591430   9.0162590  56.0375940 145.8532430  10.3017710  55.3486940
 136.7942730   4.9307020  54.4372410 136.6999600   4.3127770  53.7123280
 136.2140120   5.6573310  54.2102320 139.5604170   3.4880260  51.4699800
 139.1121470   3.5104520  50.6245350 138.9269370   3.0899280  52.0670100
 139.9663720  12.3834590  52.0912240 140.3851830  13.2267320  51.9188480
 139.0472350  12.5206630  51.8619020 142.3027620  10.1150770  53.4750080
 142.4223830   9.5191910  54.2144920 143.1621620  10.1520460  53.0551380
 144.6415520  10.6687960  52.0512590 144.1150740  11.1930580  51.4477730
 144.9846860  11.3015350  52.6822320 137.0401910   8.0581330  38.4962300
 136.8390970   7.1948690  38.8575640 136.8693960   7.9714690  37.5583900
 137.8171140  18.6887600  53.2069970 137.2792230  19.4133660  52.8878670
 138.0705100  18.2117940  52.4167310 139.0696390   6.6572120  54.7325900
 139.6596080   6.3487970  55.4203720 138.2516630   6.1851870  54.8885800
 143.8889820   6.2737930  54.9658920 143.2005340   5.6119470  54.9008910
 144.6095840   5.8276200  55.4107380 144.5190220   2.8689560  41.0249180
 144.7992510   2.0257460  41.3808600 143.7455950   3.1012670  41.5387930
 135.8384710   5.1581950  38.4840180 136.1410610   5.1649380  37.5759330
 136.5779300   4.8079810  38.9807840 140.6733350  19.9238810  53.4656620
 140.5992050  20.8273950  53.7728990 139.7712190  19.6050710  53.4378690
 139.0569640   4.1016570  39.4696380 138.7091640   3.4240560  38.8898830
 139.2582410   3.6406080  40.2839770 141.2218680  19.0897320  41.0882980
 142.1169470  19.4282290  41.1101740 141.2536310  18.3676730  40.4607260
 134.8614840  14.4624370  39.3169980 135.2989710  15.0054040  39.9727560
 135.3462570  13.6371320  39.3266320 132.0760640  17.2513400  46.7690240
 132.4063650  16.3834460  46.5368880 132.5051640  17.4571920  47.5995200
 136.6722560  15.5822410  44.4292210 136.3718100  15.4587380  45.3296120
 136.5660050  14.7231000  44.0207940 132.5650850  18.1183990  49.5071870
 132.1281840  18.2984790  50.3396020 133.1328530  18.8758610  49.3653590
 148.2013030  17.6200990  53.7949180 147.6015020  17.6793550  53.0513100
 148.3306930  16.6805970  53.9246030 132.3975280  10.6304220  45.8660750
 131.7424120  10.3615860  45.2220450 133.2353230  10.5208700  45.4162730
 146.8864670  14.3452970  51.8925340 146.0724510  14.7750130  52.1551130
 147.2938870  14.9571380  51.2794390 145.3465720   5.4245510  40.0879240
 145.7650600   5.2376490  39.2475900 145.0401780   4.5724560  40.3982170
 133.4351210  11.0156790  50.4064090 133.8024250  10.9284190  51.2860110
 132.8662030  10.2523340  50.3070950 148.2355070   9.4841170  53.4194560
 148.0041160   9.2553920  52.5192510 148.4959620  10.4040720  53.3739450
 132.9867210   7.9265880  54.3122510 132.0923260   7.8932640  54.6516220
 133.5264760   8.1252670  55.0773760 146.6743140   4.7097600  56.1974260
 147.5513320   4.7181000  56.5808260 146.6863980   3.9728440  55.5866610
 131.6113360   7.8403150  41.8086080 130.7077440   8.1033350  41.6337740
 132.0953980   8.1114320  41.0286040 148.2996130   8.6467010  50.6081830
 147.3498840   8.6130550  50.7226820 148.4809140   9.5567120  50.3731600
 134.1540570   6.8968690  39.7180460 134.8632270   6.4751910  39.2327740
 133.4380510   6.9643920  39.0863810 133.8014730   2.9508020  38.7583110
 134.5242860   3.4916960  39.0764330 134.0739250   2.6771440  37.8824650
 147.6106380   7.8200490  43.0254690 148.1065500   7.5871360  43.8103570
 147.4122450   6.9812330  42.6092330 133.4906920   2.2014210  48.6605730
 134.1383110   1.6511590  48.2200890 133.9108760   2.4557360  49.4821540
 147.3859260   2.3955570  52.0175370 148.0231480   3.0089710  52.3834560
 147.5334150   2.4316230  51.0724600 146.9440720  19.0971570  45.4193610
 147.5399790  18.7756140  44.7428030 147.2018870  18.6243390  46.2106880
 133.2438920   2.3569880  51.4031050 132.8953740   2.8133700  52.1689230
 132.9126620   1.4627010  51.4853480 134.8503290  15.5289480  55.5684240
 134.8072920  15.1582390  56.4498700 134.9814300  16.4667050  55.7086060
 138.5509320  17.0849070  51.1693960 138.3100680  17.3523630  50.2824480
 139.4911960  17.2554800  51.2244820 140.7563740   3.5481760  54.9250470
 140.6952630   4.1403590  55.6745880 141.6964120   3.4407720  54.7800730
 143.3938300   3.2051820  54.5642760 144.0078710   3.5231110  53.9023840
 143.9387860   2.7200410  55.1838620 134.6891320  18.4751730  52.6882020
 134.0951640  18.3436430  53.4272060 134.6815160  17.6389870  52.2224120
 145.0418320   3.9754830  52.2753770 144.7131680   3.1606590  51.8955500
 145.9900620   3.9324640  52.1519460 147.4952930  19.7466870  49.2491340
 147.0355900  20.4982680  48.8749360 146.8665390  19.0273340  49.1906140
 134.3203550  15.8410110  51.6390060 133.5937610  15.2215400  51.5716010
 134.3812700  16.2350720  50.7688140 137.9248650  18.0555110  48.4239470
 138.4413670  17.4442470  47.8987730 138.5746030  18.5583890  48.9150480
 140.6644150  18.9463600  49.2508450 140.9521960  18.6917900  48.3741460
 141.1767370  18.3940960  49.8414020 141.8821160   2.6853800  49.8304960
 141.0992950   3.1599300  50.1101720 141.5884090   1.7808630  49.7218140
 146.4342230   3.3876900  47.8754050 146.8750320   3.3322000  47.0275650
 146.1649820   4.3034910  47.9464230 132.6033550  19.1584500  44.8486820
 132.4355590  18.5255180  45.5468710 131.7368060  19.3643900  44.4981010
 133.2261570   2.9901280  42.3518680 133.9840930   3.1030160  41.7782710
 132.7638740   3.8270480  42.3062110 139.7675380   5.1040550  45.3420990
 138.9549890   4.7297440  45.0016870 140.2717020   4.3485630  45.6442180
 144.2700360   1.7683000  46.5804060 144.8729730   2.3403210  47.0552580
 143.5293350   2.3322440  46.3577960 147.4134960   2.1704560  41.8544340
 147.6085590   3.0688010  42.1211770 146.6264830   1.9391640  42.3477290
 134.2096250  17.8517730  42.2936960 133.6843870  18.2325760  41.5898920
 134.1340830  18.4768500  43.0146670 135.5986720   3.5165330  40.8920650
 136.1279480   2.7295130  40.7628600 136.2315040   4.1956520  41.1256180
 137.7924560   3.2540470  43.9466040 137.1627300   2.5527780  44.1136170
 137.2529700   4.0144600  43.7299200 140.7316510  19.8679700  56.6176650
 141.6583820  19.6323970  56.6612610 140.7166940  20.6951700  56.1362680
 137.9180120   2.5324450  56.3818530 137.6364390   3.0358050  55.6179350
 138.2999820   1.7346200  56.0160660 136.8089220  19.8000110  41.1686210
 137.5408040  19.5159390  40.6210100 137.0682890  19.5613390  42.0585590
 135.9704010  15.9164840  41.1732540 135.3412890  16.3849940  41.7218370
 136.0851840  15.0714060  41.6078730 144.5195580   1.9478030  56.9599000
 144.4061030   2.2672640  57.8550520 145.3365320   2.3490540  56.6636280
 147.2994070  19.0949560  56.4417690 148.0919390  18.5998790  56.2343650
 147.5927220  19.7739700  57.0493300 143.4253730   9.9670500  27.3233740
 143.3447780   9.0525110  27.0525450 143.0118150  10.4637570  26.6173450
 141.5571770  11.7449520  29.2043010 140.7813870  11.2649960  29.4941580
 142.2084700  11.0655170  29.0299170 135.5737600  12.0569330  30.0818770
 134.7422480  11.8018040  30.4815280 136.1818580  12.1280100  30.8176690
 145.5779200  16.1509710  27.9842140 145.1160730  15.3796950  28.3129310
 146.3904750  16.1775780  28.4894590 135.5538860  16.0909420  30.2776790
 135.8566900  15.2007160  30.0987010 136.2982450  16.6479640  30.0499040
 133.9829550   7.0171220  23.8661160 133.0946250   7.3587190  23.7641040
 134.2670740   6.8171540  22.9741990 131.9462560   9.6176870  29.7500860
 132.5178670   8.8499070  29.7504500 131.9464100   9.9165630  28.8407470
 141.8042510  18.4367720  27.6046130 141.1853950  18.8925220  27.0340570
 142.6594290  18.5919180  27.2035830 140.9980760  14.4206710  29.2113170
 140.9289040  13.4796650  29.0502300 141.7600620  14.5108120  29.7835740
 133.1887430   5.0261230  31.5369790 133.0090270   4.1286980  31.8172550
 132.7867510   5.5733100  32.2116740 142.0285930   7.2277090  29.4382100
 142.4050750   6.3548970  29.3255770 141.9305440   7.5635790  28.5472540
 136.1590940   5.6002720  24.8999540 136.2657690   6.5006450  25.2068300
 135.2483300   5.5520690  24.6094190 145.8110050   4.7227530  26.3710440
 146.6319670   4.2324100  26.4135920 145.8444130   5.3125190  27.1242280
 133.8074100   7.5221730  30.1452130 134.4884210   7.7860100  30.7639530
 133.4922150   6.6822600  30.4790140 137.9998670   8.5689090  29.2324720
 138.5076890   9.0670060  29.8729740 138.5311910   7.7924290  29.0564080
 136.2834770   3.2087650  33.4988140 136.2853210   3.7260040  32.6934040
 135.4539080   2.7317830  33.4758070 142.6705860  13.3206960  24.9978040
 142.0523130  13.7856410  24.4340760 143.1829110  14.0134440  25.4147550
 137.5337620  12.8482830  31.6761640 137.2007000  13.4751750  32.3182710
 137.7104300  13.3744710  30.8963310 146.0471530   6.6627910  29.1437980
 145.3427100   6.9512800  29.7241090 146.4083690   7.4728020  28.7837540
 135.9650100   4.9197610  31.5058590 136.3066910   5.7639660  31.2112460
 135.0265910   5.0681350  31.6223930 136.7456720  14.8163630  33.4910820
 137.3630720  15.4914710  33.2095270 135.8849840  15.2251610  33.3998320
 132.0389060  14.0063490  22.3717670 131.6617040  14.4950590  21.6402570
 132.2962130  14.6788770  23.0024200 147.6634310  16.2803040  31.4065460
 146.9797830  16.9502150  31.3982130 148.2028600  16.4783690  30.6410320
 139.6477990   2.4079880  27.8303180 139.9552970   1.8526770  27.1138680
 138.7178690   2.5424340  27.6476170 145.1993050  18.1247170  30.1210640
 145.2120210  17.7209460  29.2532900 144.6468270  18.8994460  30.0172070
 146.4938470  14.8463390  25.2100810 146.3834800  13.9037720  25.3350230
 146.4906720  15.2079030  26.0963570 144.5978490  13.0277010  31.4493250
 145.0147280  12.8137120  30.6146710 145.3218310  13.2849800  32.0201870
 142.0358750  10.4728710  24.5663300 141.1088030  10.4066090  24.7951770
 142.1883570  11.4108840  24.4518540 142.0227830   6.7445710  21.5630460
 141.0831500   6.9059670  21.6482920 142.3411090   7.4631390  21.0166450
 146.0656040  12.0349010  25.0698550 145.4468460  11.6968560  24.4224850
 146.0480490  11.3908770  25.7777740 145.5082600   8.2133550  32.4864360
 145.0953780   9.0387260  32.7404350 144.7758550   7.6278590  32.2940720
 137.6415390  10.9993450  27.3483030 137.2372390  10.2870700  26.8528930
 137.7278510  10.6546690  28.2371070 138.1097090  14.6861010  29.5122240
 137.8125380  14.0806480  28.8330020 139.0596910  14.7238320  29.4011600
 136.3544010   7.7736660  31.1282070 136.9058600   7.8832000  30.3535320
 136.8687520   8.1474260  31.8437300 146.1982700  18.2592880  33.1745340
 145.7213260  19.0665070  32.9817950 145.5144490  17.6071210  33.3271550
 137.2015520  14.4242700  36.1630040 136.3044050  14.6482670  36.4103440
 137.2268390  14.5477640  35.2141440 144.2420740  11.2735820  22.0771300
 144.6814020  10.4358250  21.9309120 144.9549160  11.9065220  22.1635440
 136.0286740  11.2956020  34.7387410 135.8894510  12.1678820  35.1074810
 135.1468100  10.9528830  34.5935350 142.3516120  16.2131890  26.0452540
 142.7912030  16.9556220  25.6307930 142.2903010  16.4558460  26.9691500
 137.8267090  17.2377720  36.9472560 137.7982520  17.6420670  36.0800990
 137.6632060  16.3088080  36.7844160 147.8237880   2.5278630  20.3912340
 147.5110540   2.6205460  21.2911410 148.5850350   3.1059660  20.3409770
 134.3420020   9.8938430  24.8489680 134.2217620  10.6200520  24.2370950
 134.0320910   9.1241340  24.3717590 131.9805390  13.0653570  30.6558320
 132.0585810  13.2002340  29.7114040 132.5947070  12.3569460  30.8486440
 133.2253020  14.7653760  27.0664500 132.8181100  14.9068350  26.2118100
 134.1166030  14.4813920  26.8635710 143.0431900  18.9145670  33.9731550
 143.5576570  18.8253680  34.7753980 142.2000980  19.2605370  34.2659460
 145.0186300  19.2001010  23.4015550 144.8587440  18.9103950  24.2997380
 144.8533010  18.4241140  22.8660780 137.4974680  18.9799540  25.1787170
 137.3217160  18.0635080  24.9654970 136.6430420  19.3386830  25.4184970
 144.7212430  16.7088570  21.9613550 144.0277590  16.7065860  21.3015830
 145.4635290  16.2847890  21.5307720 144.2862360  18.3351280  26.0362040
 144.7419310  17.5540660  26.3500660 144.6254880  19.0458100  26.5803220
 132.0364910  14.1067740  33.1952780 132.1995950  13.6373100  32.3772150
 132.5017360  13.5991300  33.8601620 136.8083680   3.2373500  28.2313350
 136.3651830   4.0183040  27.8997870 137.3668670   3.5603390  28.9384290
 141.0953490   6.1042020  33.8348670 140.6332860   6.3125040  34.6468610
 140.6931600   5.2901370  33.5319340 146.0958000   7.3250970  34.9645330
 145.2451590   7.0256720  35.2854400 145.9359790   7.5692980  34.0529150
 143.1907710   8.8252720  37.0644120 143.5161120   7.9916470  36.7246350
 143.9788040   9.3481240  37.2122450 139.9242500   2.8584200  23.1119180
 139.2996680   2.8544070  23.8372490 139.8372620   1.9915160  22.7155150
 138.8459580   3.7820830  30.0902950 139.1431910   4.6883660  30.0094970
 139.3945140   3.2939610  29.4762520 136.5997900   8.3607070  25.9594600
 136.3738820   8.1444240  26.8641220 135.8190430   8.7935530  25.6140570
 143.8295660   8.3670440  24.5585250 143.2304550   9.0906240  24.3748870
 144.3775270   8.3047220  23.7761700 139.0397110   9.2592650  36.6254870
 138.9440710   8.3187380  36.4755270 139.8829090   9.4807720  36.2302940
 142.4360530   7.0033980  26.5888530 142.8290100   7.3206180  25.7757220
 142.7977380   6.1245860  26.7033050 134.1707650   5.6706320  34.7788650
 133.7771040   6.5181530  34.9861430 133.4826050   5.0332690  34.9697290
 140.7452700   5.7541290  37.8485390 140.0551020   5.5613490  38.4831480
 141.4885000   6.0375930  38.3809690 131.4724700   3.5934780  28.8118730
 131.1837750   4.1637640  29.5243710 132.2170460   3.1139230  29.1749960
 131.6594930   7.5354900  20.0221450 131.5769600   8.4785660  20.1636440
 131.3077990   7.3929810  19.1433800 143.0215670   9.5939730  30.6839310
 142.2896790  10.1026540  31.0329410 142.6240010   8.7769710  30.3828090
 139.4593060   6.2693930  29.0891800 139.4629120   5.8283880  28.2396340
 140.3544180   6.5911260  29.1963620 135.3095440   6.1520420  28.0486010
 134.9695490   6.6295650  28.8053060 134.5472760   5.6985540  27.6887110
 139.5213210   7.2706010  22.0798560 139.6426030   7.2292490  23.0284380
 139.1361720   8.1330160  21.9245290 143.4841580   5.0473410  30.0962250
 143.5014320   5.4982060  30.9404100 143.2357160   4.1479050  30.3095690
 138.5334710   9.5807150  21.4781860 137.9651610   9.1325400  20.8517770
 139.2423710   9.9399930  20.9447010 146.9112330   2.4605590  35.9348630
 147.2358100   1.7295250  36.4606610 146.9468840   2.1419230  35.0329620
 133.6103890  13.4819170  35.3548590 133.2258680  12.8412840  35.9531550
 133.9216080  14.1855290  35.9243320 139.7601030  10.3295710  30.8357210
 140.1271160   9.8554280  31.5818550 139.5706090  11.2037280  31.1765550
 132.6241520   5.0739400  26.9650680 132.3388440   4.7095070  27.8029300
 132.5620380   4.3419860  26.3513820 137.5500400   9.3704350  33.1541420
 137.2457470  10.2496330  33.3791780 138.5046860   9.4304140  33.1898860
 136.0782190  13.5765340  23.7508270 135.3044450  13.0362960  23.5906990
 136.8076820  13.0571950  23.4126030 146.8370170  12.5730700  29.5434660
 147.5569290  13.0685990  29.1530770 146.6351990  11.8948590  28.8988530
 142.2980110   3.9668660  23.6864050 141.4844720   3.4681830  23.6109360
 142.1042060   4.8066910  23.2700400 142.2188970  12.6439760  35.4303660
 142.1526280  11.7235430  35.1761250 141.5894110  12.7415200  36.1448300
 145.0128500   8.3388310  21.9826210 145.9008120   8.6505540  21.8077550
 144.9833590   7.4660560  21.5906790 136.1219590  13.2445720  27.3887080
 136.6398260  12.4413980  27.3343970 135.6703610  13.1824860  28.2303910
 141.0089090  14.5112000  22.6614380 141.3504790  15.2554230  22.1657700
 140.1801800  14.8243120  23.0239210 133.6064130  10.2107090  34.3012780
 133.2479070  10.8760940  34.8886120 133.3118690   9.3790640  34.6725400
 136.8077250  10.6691330  37.1852330 136.5077390  10.8148510  36.2880150
 137.5788490  10.1096620  37.0925720 142.1505700  15.4660330  35.1807460
 142.1650240  14.5341290  34.9626370 141.4430800  15.5520090  35.8197230
 147.2842770   9.6500150  21.4506070 147.2006490  10.0814370  20.6002510
 148.0036960  10.1098500  21.8832890 148.3130020  16.5042410  24.1788200
 147.6706180  15.8498030  24.4531920 147.9260680  16.9097500  23.4028870
 143.8916500  13.8327840  28.0259890 144.2440320  13.2355970  27.3661260
 143.0078830  13.5072070  28.1968140 139.9779780  14.5925530  25.4330300
 140.6650910  15.1394740  25.8137890 139.1912200  15.1366260  25.4679910
 132.1172180  10.2098350  20.9247380 132.9867030  10.4923150  21.2083300
 131.6262500  11.0234220  20.8096190 139.2806990  11.5971560  25.0455660
 139.7369770  12.4076810  25.2715850 138.9295200  11.2794700  25.8774150
 141.5839600  17.1077900  32.2747960 142.2281820  17.3137280  32.9521380
 141.9469040  16.3466300  31.8218810 135.1818770   1.9409210  25.5178180
 135.0533400   1.9327110  26.4663100 134.3580790   2.2792300  25.1669190
 142.8571680  15.1110250  30.9925410 143.4993910  14.4103410  31.1057580
 143.3821030  15.8908690  30.8122300 146.7027400  15.3958870  20.7164550
 146.4764980  14.6789310  21.3089190 146.3123600  15.1471310  19.8786300
 144.6309300  15.9105150  34.1961470 144.9665540  16.4971840  34.8739390
 143.7109640  15.7797860  34.4259260 132.4843430  19.4225730  21.4909010
 132.8441070  20.0215070  20.8366280 132.3435770  19.9685620  22.2644040
 132.1812700   3.7000330  34.9784880 131.4671220   3.8997250  35.5837490
 132.6007740   2.9239900  35.3499680 146.2843650  13.3130810  22.3778710
 145.9965350  13.7743500  23.1656590 147.0795820  12.8528580  22.6462930
 132.4685290  17.6880590  35.9651410 132.5776410  16.7475330  35.8246800
 131.8165850  17.9535340  35.3165140 140.4597880  15.9596480  37.3649530
 140.1394750  15.2405720  37.9095220 139.7856240  16.6351550  37.4385590
 138.5012050  16.8056930  22.3082680 138.4922150  17.5386620  21.6927190
 137.5810410  16.5588510  22.4009640 134.1018690  12.0271820  23.0529440
 133.4946640  12.7670720  23.0624740 134.5768040  12.1171180  22.2267640
 143.6751480   6.1922640  32.7286330 144.0432300   5.3717850  33.0565900
 142.8149680   6.2524530  33.1441980 147.0413510   5.1479580  23.5373890
 146.4126670   5.2525250  22.8232120 146.5465430   5.3676360  24.3267770
 141.4871650  16.8685170  20.9707870 141.5883630  16.6649160  20.0409850
 140.5873390  16.6143450  21.1755650 139.0097540   7.4265530  24.9531770
 138.3013690   7.8951870  25.3945380 139.2942020   6.7687540  25.5876960
 140.6353470   8.8462230  32.9524300 141.1338720   9.3208050  33.6176150
 140.7776420   7.9225750  33.1594330 143.0412970   4.1516190  26.3927560
 142.9180750   4.1702320  25.4437070 143.9897530   4.1995130  26.5125960
 140.1289760  19.3871490  25.6655540 140.3831260  19.3492880  24.7434910
 139.1802240  19.2604820  25.6583790 137.2132560   5.7350610  22.3282480
 138.0623090   6.1720760  22.2622670 136.8463830   6.0470870  23.1554540
 147.8420330   5.0630190  33.7952690 147.3393930   5.8035590  34.1346500
 148.6576990   5.4514190  33.4789480 146.1342340  10.3063370  27.2414050
 145.1932480  10.3213600  27.4161740 146.4486410   9.5199330  27.6874350
 136.1123980  11.9882970  20.8018010 136.8787250  11.8764330  21.3643440
 136.1898670  11.2920940  20.1494780 134.8070740   9.4208040  21.4850900
 134.8874330   8.4735550  21.5968300 135.6990490   9.7514920  21.5911560
 135.6085450  19.5703430  28.5885440 136.3447930  19.0218890  28.8594010
 135.9926370  20.4359440  28.4491430 132.4930930  15.6377000  24.4626950
 131.5670710  15.8798140  24.4532360 132.9587360  16.4651260  24.3411700
 134.6143730  18.7549500  37.7771020 135.4156460  19.0761550  38.1906420
 134.0995550  18.3945080  38.4990930 138.7187760  18.7433740  20.4111010
 139.5116370  19.0322570  19.9592800 138.1992110  18.3125910  19.7323490
 143.4508360  14.8629370  37.7246430 142.8446520  14.8860970  36.9842180
 143.1462470  14.1312410  38.2613680 144.8808730  18.5909660  36.3355840
 145.8330480  18.5067680  36.2856080 144.7336950  19.2551370  37.0089630
 147.7717930  17.9703870  21.8347750 147.4859440  17.5569010  21.0201930
 147.5737480  18.8991580  21.7148270 132.3341540  11.2422960  36.7207070
 132.8380560  10.6630240  37.2923300 131.5948960  11.5263190  37.2583440
 139.2365160  13.9637150  20.2753360 139.1315800  13.3489500  21.0014740
 139.0689380  13.4403040  19.4916370 139.3879480  12.6493950  36.2542590
 138.6225150  13.2178950  36.1697260 139.5695440  12.3570160  35.3610820
 142.4767890  13.0257180  20.8795350 141.9277990  13.4726480  21.5238090
 143.0987150  12.5206430  21.4033020 146.5302830  14.3799280  36.8117610
 147.2712300  14.7175040  36.3085070 145.7675510  14.5491340  36.2587380
 134.3664620   9.3852550  37.6157140 134.4069960   9.0866420  38.5242370
 135.2210120   9.7860160  37.4564660 138.1443010  11.9848100  22.7760650
 138.5659430  11.8187970  23.6192040 138.2693850  11.1748330  22.2815790
 136.3070430   7.9644650  35.5831630 135.7766890   7.4735600  34.9554970
 136.9758500   8.3928850  35.0489560 140.6570650  11.0085710  20.0237750
 141.1776310  10.2934730  19.6578900 141.3039050  11.6471580  20.3238260
 145.2048490  12.4314110  35.3472820 145.6189510  12.5859190  36.1963240
 144.2699490  12.5569330  35.5098600 145.6770660   9.7710270  37.3511970
 146.2591430   9.0162590  37.2632450 145.8532430  10.3017710  36.5743450
 136.7942730   4.9307020  35.6628920 136.6999600   4.3127770  34.9379790
 136.2140120   5.6573310  35.4358830 139.5604170   3.4880260  32.6956310
 139.1121470   3.5104520  31.8501860 138.9269370   3.0899280  33.2926610
 139.9663720  12.3834590  33.3168750 140.3851830  13.2267320  33.1444990
 139.0472350  12.5206630  33.0875530 142.3027620  10.1150770  34.7006590
 142.4223830   9.5191910  35.4401430 143.1621620  10.1520460  34.2807890
 144.6415520  10.6687960  33.2769100 144.1150740  11.1930580  32.6734240
 144.9846860  11.3015350  33.9078830 137.0401910   8.0581330  19.7218810
 136.8390970   7.1948690  20.0832150 136.8693960   7.9714690  18.7840410
 137.8171140  18.6887600  34.4326480 137.2792230  19.4133660  34.1135180
 138.0705100  18.2117940  33.6423820 139.0696390   6.6572120  35.9582410
 139.6596080   6.3487970  36.6460230 138.2516630   6.1851870  36.1142310
 143.8889820   6.2737930  36.1915430 143.2005340   5.6119470  36.1265420
 144.6095840   5.8276200  36.6363890 144.5190220   2.8689560  22.2505690
 144.7992510   2.0257460  22.6065110 143.7455950   3.1012670  22.7644440
 135.8384710   5.1581950  19.7096690 136.1410610   5.1649380  18.8015840
 136.5779300   4.8079810  20.2064350 140.6733350  19.9238810  34.6913130
 140.5992050  20.8273950  34.9985500 139.7712190  19.6050710  34.6635200
 139.0569640   4.1016570  20.6952890 138.7091640   3.4240560  20.1155340
 139.2582410   3.6406080  21.5096280 141.2218680  19.0897320  22.3139490
 142.1169470  19.4282290  22.3358250 141.2536310  18.3676730  21.6863770
 134.8614840  14.4624370  20.5426490 135.2989710  15.0054040  21.1984070
 135.3462570  13.6371320  20.5522830 132.0760640  17.2513400  27.9946750
 132.4063650  16.3834460  27.7625390 132.5051640  17.4571920  28.8251710
 136.6722560  15.5822410  25.6548720 136.3718100  15.4587380  26.5552630
 136.5660050  14.7231000  25.2464450 132.5650850  18.1183990  30.7328380
 132.1281840  18.2984790  31.5652530 133.1328530  18.8758610  30.5910100
 148.2013030  17.6200990  35.0205690 147.6015020  17.6793550  34.2769610
 148.3306930  16.6805970  35.1502540 132.3975280  10.6304220  27.0917260
 131.7424120  10.3615860  26.4476960 133.2353230  10.5208700  26.6419240
 146.8864670  14.3452970  33.1181850 146.0724510  14.7750130  33.3807640
 147.2938870  14.9571380  32.5050900 145.3465720   5.4245510  21.3135750
 145.7650600   5.2376490  20.4732410 145.0401780   4.5724560  21.6238680
 133.4351210  11.0156790  31.6320600 133.8024250  10.9284190  32.5116620
 132.8662030  10.2523340  31.5327460 148.2355070   9.4841170  34.6451070
 148.0041160   9.2553920  33.7449020 148.4959620  10.4040720  34.5995960
 132.9867210   7.9265880  35.5379020 132.0923260   7.8932640  35.8772730
 133.5264760   8.1252670  36.3030270 146.6743140   4.7097600  37.4230770
 147.5513320   4.7181000  37.8064770 146.6863980   3.9728440  36.8123120
 131.6113360   7.8403150  23.0342590 130.7077440   8.1033350  22.8594250
 132.0953980   8.1114320  22.2542550 148.2996130   8.6467010  31.8338340
 147.3498840   8.6130550  31.9483330 148.4809140   9.5567120  31.5988110
 134.1540570   6.8968690  20.9436970 134.8632270   6.4751910  20.4584250
 133.4380510   6.9643920  20.3120320 133.8014730   2.9508020  19.9839620
 134.5242860   3.4916960  20.3020840 134.0739250   2.6771440  19.1081160
 147.6106380   7.8200490  24.2511200 148.1065500   7.5871360  25.0360080
 147.4122450   6.9812330  23.8348840 133.4906920   2.2014210  29.8862240
 134.1383110   1.6511590  29.4457400 133.9108760   2.4557360  30.7078050
 147.3859260   2.3955570  33.2431880 148.0231480   3.0089710  33.6091070
 147.5334150   2.4316230  32.2981110 146.9440720  19.0971570  26.6450120
 147.5399790  18.7756140  25.9684540 147.2018870  18.6243390  27.4363390
 133.2438920   2.3569880  32.6287560 132.8953740   2.8133700  33.3945740
 132.9126620   1.4627010  32.7109990 134.8503290  15.5289480  36.7940750
 134.8072920  15.1582390  37.6755210 134.9814300  16.4667050  36.9342570
 138.5509320  17.0849070  32.3950470 138.3100680  17.3523630  31.5080990
 139.4911960  17.2554800  32.4501330 140.7563740   3.5481760  36.1506980
 140.6952630   4.1403590  36.9002390 141.6964120   3.4407720  36.0057240
 143.3938300   3.2051820  35.7899270 144.0078710   3.5231110  35.1280350
 143.9387860   2.7200410  36.4095130 134.6891320  18.4751730  33.9138530
 134.0951640  18.3436430  34.6528570 134.6815160  17.6389870  33.4480630
 145.0418320   3.9754830  33.5010280 144.7131680   3.1606590  33.1212010
 145.9900620   3.9324640  33.3775970 147.4952930  19.7466870  30.4747850
 147.0355900  20.4982680  30.1005870 146.8665390  19.0273340  30.4162650
 134.3203550  15.8410110  32.8646570 133.5937610  15.2215400  32.7972520
 134.3812700  16.2350720  31.9944650 137.9248650  18.0555110  29.6495980
 138.4413670  17.4442470  29.1244240 138.5746030  18.5583890  30.1406990
 140.6644150  18.9463600  30.4764960 140.9521960  18.6917900  29.5997970
 141.1767370  18.3940960  31.0670530 141.8821160   2.6853800  31.0561470
 141.0992950   3.1599300  31.3358230 141.5884090   1.7808630  30.9474650
 146.4342230   3.3876900  29.1010560 146.8750320   3.3322000  28.2532160
 146.1649820   4.3034910  29.1720740 132.6033550  19.1584500  26.0743330
 132.4355590  18.5255180  26.7725220 131.7368060  19.3643900  25.7237520
 133.2261570   2.9901280  23.5775190 133.9840930   3.1030160  23.0039220
 132.7638740   3.8270480  23.5318620 139.7675380   5.1040550  26.5677500
 138.9549890   4.7297440  26.2273380 140.2717020   4.3485630  26.8698690
 144.2700360   1.7683000  27.8060570 144.8729730   2.3403210  28.2809090
 143.5293350   2.3322440  27.5834470 147.4134960   2.1704560  23.0800850
 147.6085590   3.0688010  23.3468280 146.6264830   1.9391640  23.5733800
 134.2096250  17.8517730  23.5193470 133.6843870  18.2325760  22.8155430
 134.1340830  18.4768500  24.2403180 135.5986720   3.5165330  22.1177160
 136.1279480   2.7295130  21.9885110 136.2315040   4.1956520  22.3512690
 137.7924560   3.2540470  25.1722550 137.1627300   2.5527780  25.3392680
 137.2529700   4.0144600  24.9555710 140.7316510  19.8679700  37.8433160
 141.6583820  19.6323970  37.8869120 140.7166940  20.6951700  37.3619190
 137.9180120   2.5324450  37.6075040 137.6364390   3.0358050  36.8435860
 138.2999820   1.7346200  37.2417170 136.8089220  19.8000110  22.3942720
 137.5408040  19.5159390  21.8466610 137.0682890  19.5613390  23.2842100
 135.9704010  15.9164840  22.3989050 135.3412890  16.3849940  22.9474880
 136.0851840  15.0714060  22.8335240 144.5195580   1.9478030  38.1855510
 144.4061030   2.2672640  39.0807030 145.3365320   2.3490540  37.8892790
 147.2994070  19.0949560  37.6674200 148.0919390  18.5998790  37.4600160
 147.5927220  19.7739700  38.2749810 143.4253730   9.9670500   8.5490250
 143.3447780   9.0525110   8.2781960 143.0118150  10.4637570   7.8429960
 141.5571770  11.7449520  10.4299520 140.7813870  11.2649960  10.7198090
 142.2084700  11.0655170  10.2555680 135.5737600  12.0569330  11.3075280
 134.7422480  11.8018040  11.7071790 136.1818580  12.1280100  12.0433200
 145.5779200  16.1509710   9.2098650 145.1160730  15.3796950   9.5385820
 146.3904750  16.1775780   9.7151100 135.5538860  16.0909420  11.5033300
 135.8566900  15.2007160  11.3243520 136.2982450  16.6479640  11.2755550
 133.9829550   7.0171220   5.0917670 133.0946250   7.3587190   4.9897550
 134.2670740   6.8171540   4.1998500 131.9462560   9.6176870  10.9757370
 132.5178670   8.8499070  10.9761010 131.9464100   9.9165630  10.0663980
 141.8042510  18.4367720   8.8302640 141.1853950  18.8925220   8.2597080
 142.6594290  18.5919180   8.4292340 140.9980760  14.4206710  10.4369680
 140.9289040  13.4796650  10.2758810 141.7600620  14.5108120  11.0092250
 133.1887430   5.0261230  12.7626300 133.0090270   4.1286980  13.0429060
 132.7867510   5.5733100  13.4373250 142.0285930   7.2277090  10.6638610
 142.4050750   6.3548970  10.5512280 141.9305440   7.5635790   9.7729050
 136.1590940   5.6002720   6.1256050 136.2657690   6.5006450   6.4324810
 135.2483300   5.5520690   5.8350700 145.8110050   4.7227530   7.5966950
 146.6319670   4.2324100   7.6392430 145.8444130   5.3125190   8.3498790
 133.8074100   7.5221730  11.3708640 134.4884210   7.7860100  11.9896040
 133.4922150   6.6822600  11.7046650 137.9998670   8.5689090  10.4581230
 138.5076890   9.0670060  11.0986250 138.5311910   7.7924290  10.2820590
 136.2834770   3.2087650  14.7244650 136.2853210   3.7260040  13.9190550
 135.4539080   2.7317830  14.7014580 142.6705860  13.3206960   6.2234550
 142.0523130  13.7856410   5.6597270 143.1829110  14.0134440   6.6404060
 137.5337620  12.8482830  12.9018150 137.2007000  13.4751750  13.5439220
 137.7104300  13.3744710  12.1219820 146.0471530   6.6627910  10.3694490
 145.3427100   6.9512800  10.9497600 146.4083690   7.4728020  10.0094050
 135.9650100   4.9197610  12.7315100 136.3066910   5.7639660  12.4368970
 135.0265910   5.0681350  12.8480440 136.7456720  14.8163630  14.7167330
 137.3630720  15.4914710  14.4351780 135.8849840  15.2251610  14.6254830
 132.0389060  14.0063490   3.5974180 131.6617040  14.4950590   2.8659080
 132.2962130  14.6788770   4.2280710 147.6634310  16.2803040  12.6321970
 146.9797830  16.9502150  12.6238640 148.2028600  16.4783690  11.8666830
 139.6477990   2.4079880   9.0559690 139.9552970   1.8526770   8.3395190
 138.7178690   2.5424340   8.8732680 145.1993050  18.1247170  11.3467150
 145.2120210  17.7209460  10.4789410 144.6468270  18.8994460  11.2428580
 146.4938470  14.8463390   6.4357320 146.3834800  13.9037720   6.5606740
 146.4906720  15.2079030   7.3220080 144.5978490  13.0277010  12.6749760
 145.0147280  12.8137120  11.8403220 145.3218310  13.2849800  13.2458380
 142.0358750  10.4728710   5.7919810 141.1088030  10.4066090   6.0208280
 142.1883570  11.4108840   5.6775050 142.0227830   6.7445710   2.7886970
 141.0831500   6.9059670   2.8739430 142.3411090   7.4631390   2.2422960
 146.0656040  12.0349010   6.2955060 145.4468460  11.6968560   5.6481360
 146.0480490  11.3908770   7.0034250 145.5082600   8.2133550  13.7120870
 145.0953780   9.0387260  13.9660860 144.7758550   7.6278590  13.5197230
 137.6415390  10.9993450   8.5739540 137.2372390  10.2870700   8.0785440
 137.7278510  10.6546690   9.4627580 138.1097090  14.6861010  10.7378750
 137.8125380  14.0806480  10.0586530 139.0596910  14.7238320  10.6268110
 136.3544010   7.7736660  12.3538580 136.9058600   7.8832000  11.5791830
 136.8687520   8.1474260  13.0693810 146.1982700  18.2592880  14.4001850
 145.7213260  19.0665070  14.2074460 145.5144490  17.6071210  14.5528060
 137.2015520  14.4242700  17.3886550 136.3044050  14.6482670  17.6359950
 137.2268390  14.5477640  16.4397950 144.2420740  11.2735820   3.3027810
 144.6814020  10.4358250   3.1565630 144.9549160  11.9065220   3.3891950
 136.0286740  11.2956020  15.9643920 135.8894510  12.1678820  16.3331320
 135.1468100  10.9528830  15.8191860 142.3516120  16.2131890   7.2709050
 142.7912030  16.9556220   6.8564440 142.2903010  16.4558460   8.1948010
 137.8267090  17.2377720  18.1729070 137.7982520  17.6420670  17.3057500
 137.6632060  16.3088080  18.0100670 134.3420020   9.8938430   6.0746190
 134.2217620  10.6200520   5.4627460 134.0320910   9.1241340   5.5974100
 131.9805390  13.0653570  11.8814830 132.0585810  13.2002340  10.9370550
 132.5947070  12.3569460  12.0742950 133.2253020  14.7653760   8.2921010
 132.8181100  14.9068350   7.4374610 134.1166030  14.4813920   8.0892220
 143.0431900  18.9145670  15.1988060 143.5576570  18.8253680  16.0010490
 142.2000980  19.2605370  15.4915970 145.0186300  19.2001010   4.6272060
 144.8587440  18.9103950   5.5253890 144.8533010  18.4241140   4.0917290
 137.4974680  18.9799540   6.4043680 137.3217160  18.0635080   6.1911480
 136.6430420  19.3386830   6.6441480 144.7212430  16.7088570   3.1870060
 144.0277590  16.7065860   2.5272340 145.4635290  16.2847890   2.7564230
 144.2862360  18.3351280   7.2618550 144.7419310  17.5540660   7.5757170
 144.6254880  19.0458100   7.8059730 132.0364910  14.1067740  14.4209290
 132.1995950  13.6373100  13.6028660 132.5017360  13.5991300  15.0858130
 136.8083680   3.2373500   9.4569860 136.3651830   4.0183040   9.1254380
 137.3668670   3.5603390  10.1640800 141.0953490   6.1042020  15.0605180
 140.6332860   6.3125040  15.8725120 140.6931600   5.2901370  14.7575850
 146.0958000   7.3250970  16.1901840 145.2451590   7.0256720  16.5110910
 145.9359790   7.5692980  15.2785660 143.1907710   8.8252720  18.2900630
 143.5161120   7.9916470  17.9502860 143.9788040   9.3481240  18.4378960
 139.9242500   2.8584200   4.3375690 139.2996680   2.8544070   5.0629000
 139.8372620   1.9915160   3.9411660 138.8459580   3.7820830  11.3159460
 139.1431910   4.6883660  11.2351480 139.3945140   3.2939610  10.7019030
 136.5997900   8.3607070   7.1851110 136.3738820   8.1444240   8.0897730
 135.8190430   8.7935530   6.8397080 143.8295660   8.3670440   5.7841760
 143.2304550   9.0906240   5.6005380 144.3775270   8.3047220   5.0018210
 139.0397110   9.2592650  17.8511380 138.9440710   8.3187380  17.7011780
 139.8829090   9.4807720  17.4559450 142.4360530   7.0033980   7.8145040
 142.8290100   7.3206180   7.0013730 142.7977380   6.1245860   7.9289560
 134.1707650   5.6706320  16.0045160 133.7771040   6.5181530  16.2117940
 133.4826050   5.0332690  16.1953800 140.7452700   5.7541290  19.0741900
 140.0551020   5.5613490  19.7087990 141.4885000   6.0375930  19.6066200
 131.4724700   3.5934780  10.0375240 131.1837750   4.1637640  10.7500220
 132.2170460   3.1139230  10.4006470 143.0215670   9.5939730  11.9095820
 142.2896790  10.1026540  12.2585920 142.6240010   8.7769710  11.6084600
 139.4593060   6.2693930  10.3148310 139.4629120   5.8283880   9.4652850
 140.3544180   6.5911260  10.4220130 135.3095440   6.1520420   9.2742520
 134.9695490   6.6295650  10.0309570 134.5472760   5.6985540   8.9143620
 139.5213210   7.2706010   3.3055070 139.6426030   7.2292490   4.2540890
 139.1361720   8.1330160   3.1501800 143.4841580   5.0473410  11.3218760
 143.5014320   5.4982060  12.1660610 143.2357160   4.1479050  11.5352200
 138.5334710   9.5807150   2.7038370 137.9651610   9.1325400   2.0774280
 139.2423710   9.9399930   2.1703520 146.9112330   2.4605590  17.1605140
 147.2358100   1.7295250  17.6863120 146.9468840   2.1419230  16.2586130
 133.6103890  13.4819170  16.5805100 133.2258680  12.8412840  17.1788060
 133.9216080  14.1855290  17.1499830 139.7601030  10.3295710  12.0613720
 140.1271160   9.8554280  12.8075060 139.5706090  11.2037280  12.4022060
 132.6241520   5.0739400   8.1907190 132.3388440   4.7095070   9.0285810
 132.5620380   4.3419860   7.5770330 137.5500400   9.3704350  14.3797930
 137.2457470  10.2496330  14.6048290 138.5046860   9.4304140  14.4155370
 136.0782190  13.5765340   4.9764780 135.3044450  13.0362960   4.8163500
 136.8076820  13.0571950   4.6382540 146.8370170  12.5730700  10.7691170
 147.5569290  13.0685990  10.3787280 146.6351990  11.8948590  10.1245040
 142.2980110   3.9668660   4.9120560 141.4844720   3.4681830   4.8365870
 142.1042060   4.8066910   4.4956910 142.2188970  12.6439760  16.6560170
 142.1526280  11.7235430  16.4017760 141.5894110  12.7415200  17.3704810
 145.0128500   8.3388310   3.2082720 145.9008120   8.6505540   3.0334060
 144.9833590   7.4660560   2.8163300 136.1219590  13.2445720   8.6143590
 136.6398260  12.4413980   8.5600480 135.6703610  13.1824860   9.4560420
 141.0089090  14.5112000   3.8870890 141.3504790  15.2554230   3.3914210
 140.1801800  14.8243120   4.2495720 133.6064130  10.2107090  15.5269290
 133.2479070  10.8760940  16.1142630 133.3118690   9.3790640  15.8981910
 136.8077250  10.6691330  18.4108840 136.5077390  10.8148510  17.5136660
 137.5788490  10.1096620  18.3182230 142.1505700  15.4660330  16.4063970
 142.1650240  14.5341290  16.1882880 141.4430800  15.5520090  17.0453740
 147.2842770   9.6500150   2.6762580 147.2006490  10.0814370   1.8259020
 148.0036960  10.1098500   3.1089400 148.3130020  16.5042410   5.4044710
 147.6706180  15.8498030   5.6788430 147.9260680  16.9097500   4.6285380
 143.8916500  13.8327840   9.2516400 144.2440320  13.2355970   8.5917770
 143.0078830  13.5072070   9.4224650 139.9779780  14.5925530   6.6586810
 140.6650910  15.1394740   7.0394400 139.1912200  15.1366260   6.6936420
 132.1172180  10.2098350   2.1503890 132.9867030  10.4923150   2.4339810
 131.6262500  11.0234220   2.0352700 139.2806990  11.5971560   6.2712170
 139.7369770  12.4076810   6.4972360 138.9295200  11.2794700   7.1030660
 141.5839600  17.1077900  13.5004470 142.2281820  17.3137280  14.1777890
 141.9469040  16.3466300  13.0475320 135.1818770   1.9409210   6.7434690
 135.0533400   1.9327110   7.6919610 134.3580790   2.2792300   6.3925700
 142.8571680  15.1110250  12.2181920 143.4993910  14.4103410  12.3314090
 143.3821030  15.8908690  12.0378810 144.6309300  15.9105150  15.4217980
 144.9665540  16.4971840  16.0995900 143.7109640  15.7797860  15.6515770
 132.4843430  19.4225730   2.7165520 132.8441070  20.0215070   2.0622790
 132.3435770  19.9685620   3.4900550 132.1812700   3.7000330  16.2041390
 131.4671220   3.8997250  16.8094000 132.6007740   2.9239900  16.5756190
 146.2843650  13.3130810   3.6035220 145.9965350  13.7743500   4.3913100
 147.0795820  12.8528580   3.8719440 132.4685290  17.6880590  17.1907920
 132.5776410  16.7475330  17.0503310 131.8165850  17.9535340  16.5421650
 140.4597880  15.9596480  18.5906040 140.1394750  15.2405720  19.1351730
 139.7856240  16.6351550  18.6642100 138.5012050  16.8056930   3.5339190
 138.4922150  17.5386620   2.9183700 137.5810410  16.5588510   3.6266150
 134.1018690  12.0271820   4.2785950 133.4946640  12.7670720   4.2881250
 134.5768040  12.1171180   3.4524150 143.6751480   6.1922640  13.9542840
 144.0432300   5.3717850  14.2822410 142.8149680   6.2524530  14.3698490
 147.0413510   5.1479580   4.7630400 146.4126670   5.2525250   4.0488630
 146.5465430   5.3676360   5.5524280 139.0097540   7.4265530   6.1788280
 138.3013690   7.8951870   6.6201890 139.2942020   6.7687540   6.8133470
 140.6353470   8.8462230  14.1780810 141.1338720   9.3208050  14.8432660
 140.7776420   7.9225750  14.3850840 143.0412970   4.1516190   7.6184070
 142.9180750   4.1702320   6.6693580 143.9897530   4.1995130   7.7382470
 140.1289760  19.3871490   6.8912050 140.3831260  19.3492880   5.9691420
 139.1802240  19.2604820   6.8840300 137.2132560   5.7350610   3.5538990
 138.0623090   6.1720760   3.4879180 136.8463830   6.0470870   4.3811050
 147.8420330   5.0630190  15.0209200 147.3393930   5.8035590  15.3603010
 148.6576990   5.4514190  14.7045990 146.1342340  10.3063370   8.4670560
 145.1932480  10.3213600   8.6418250 146.4486410   9.5199330   8.9130860
 134.8070740   9.4208040   2.7107410 134.8874330   8.4735550   2.8224810
 135.6990490   9.7514920   2.8168070 135.6085450  19.5703430   9.8141950
 136.3447930  19.0218890  10.0850520 135.9926370  20.4359440   9.6747940
 132.4930930  15.6377000   5.6883460 131.5670710  15.8798140   5.6788870
 132.9587360  16.4651260   5.5668210 134.6143730  18.7549500  19.0027530
 135.4156460  19.0761550  19.4162930 134.0995550  18.3945080  19.7247440
 143.4508360  14.8629370  18.9502940 142.8446520  14.8860970  18.2098690
 143.1462470  14.1312410  19.4870190 144.8808730  18.5909660  17.5612350
 145.8330480  18.5067680  17.5112590 144.7336950  19.2551370  18.2346140
 147.7717930  17.9703870   3.0604260 147.4859440  17.5569010   2.2458440
 147.5737480  18.8991580   2.9404780 132.3341540  11.2422960  17.9463580
 132.8380560  10.6630240  18.5179810 131.5948960  11.5263190  18.4839950
 139.3879480  12.6493950  17.4799100 138.6225150  13.2178950  17.3953770
 139.5695440  12.3570160  16.5867330 142.4767890  13.0257180   2.1051860
 141.9277990  13.4726480   2.7494600 143.0987150  12.5206430   2.6289530
 146.5302830  14.3799280  18.0374120 147.2712300  14.7175040  17.5341580
 145.7675510  14.5491340  17.4843890 134.3664620   9.3852550  18.8413650
 134.4069960   9.0866420  19.7498880 135.2210120   9.7860160  18.6821170
 138.1443010  11.9848100   4.0017160 138.5659430  11.8187970   4.8448550
 138.2693850  11.1748330   3.5072300 136.3070430   7.9644650  16.8088140
 135.7766890   7.4735600  16.1811480 136.9758500   8.3928850  16.2746070
 145.2048490  12.4314110  16.5729330 145.6189510  12.5859190  17.4219750
 144.2699490  12.5569330  16.7355110 145.6770660   9.7710270  18.5768480
 146.2591430   9.0162590  18.4888960 145.8532430  10.3017710  17.7999960
 136.7942730   4.9307020  16.8885430 136.6999600   4.3127770  16.1636300
 136.2140120   5.6573310  16.6615340 139.5604170   3.4880260  13.9212820
 139.1121470   3.5104520  13.0758370 138.9269370   3.0899280  14.5183120
 139.9663720  12.3834590  14.5425260 140.3851830  13.2267320  14.3701500
 139.0472350  12.5206630  14.3132040 142.3027620  10.1150770  15.9263100
 142.4223830   9.5191910  16.6657940 143.1621620  10.1520460  15.5064400
 144.6415520  10.6687960  14.5025610 144.1150740  11.1930580  13.8990750
 144.9846860  11.3015350  15.1335340 137.8171140  18.6887600  15.6582990
 137.2792230  19.4133660  15.3391690 138.0705100  18.2117940  14.8680330
 139.0696390   6.6572120  17.1838920 139.6596080   6.3487970  17.8716740
 138.2516630   6.1851870  17.3398820 143.8889820   6.2737930  17.4171940
 143.2005340   5.6119470  17.3521930 144.6095840   5.8276200  17.8620400
 144.5190220   2.8689560   3.4762200 144.7992510   2.0257460   3.8321620
 143.7455950   3.1012670   3.9900950 140.6733350  19.9238810  15.9169640
 140.5992050  20.8273950  16.2242010 139.7712190  19.6050710  15.8891710
 141.2218680  19.0897320   3.5396000 142.1169470  19.4282290   3.5614760
 141.2536310  18.3676730   2.9120280 134.8614840  14.4624370   1.7683000
 135.2989710  15.0054040   2.4240580 135.3462570  13.6371320   1.7779340
 132.0760640  17.2513400   9.2203260 132.4063650  16.3834460   8.9881900
 132.5051640  17.4571920  10.0508220 136.6722560  15.5822410   6.8805230
 136.3718100  15.4587380   7.7809140 136.5660050  14.7231000   6.4720960
 132.5650850  18.1183990  11.9584890 132.1281840  18.2984790  12.7909040
 133.1328530  18.8758610  11.8166610 148.2013030  17.6200990  16.2462200
 147.6015020  17.6793550  15.5026120 148.3306930  16.6805970  16.3759050
 132.3975280  10.6304220   8.3173770 131.7424120  10.3615860   7.6733470
 133.2353230  10.5208700   7.8675750 146.8864670  14.3452970  14.3438360
 146.0724510  14.7750130  14.6064150 147.2938870  14.9571380  13.7307410
 145.3465720   5.4245510   2.5392260 145.7650600   5.2376490   1.6988920
 145.0401780   4.5724560   2.8495190 133.4351210  11.0156790  12.8577110
 133.8024250  10.9284190  13.7373130 132.8662030  10.2523340  12.7583970
 148.2355070   9.4841170  15.8707580 148.0041160   9.2553920  14.9705530
 148.4959620  10.4040720  15.8252470 132.9867210   7.9265880  16.7635530
 132.0923260   7.8932640  17.1029240 133.5264760   8.1252670  17.5286780
 146.6743140   4.7097600  18.6487280 147.5513320   4.7181000  19.0321280
 146.6863980   3.9728440  18.0379630 131.6113360   7.8403150   4.2599100
 130.7077440   8.1033350   4.0850760 132.0953980   8.1114320   3.4799060
 148.2996130   8.6467010  13.0594850 147.3498840   8.6130550  13.1739840
 148.4809140   9.5567120  12.8244620 147.6106380   7.8200490   5.4767710
 148.1065500   7.5871360   6.2616590 147.4122450   6.9812330   5.0605350
 133.4906920   2.2014210  11.1118750 134.1383110   1.6511590  10.6713910
 133.9108760   2.4557360  11.9334560 147.3859260   2.3955570  14.4688390
 148.0231480   3.0089710  14.8347580 147.5334150   2.4316230  13.5237620
 146.9440720  19.0971570   7.8706630 147.5399790  18.7756140   7.1941050
 147.2018870  18.6243390   8.6619900 133.2438920   2.3569880  13.8544070
 132.8953740   2.8133700  14.6202250 132.9126620   1.4627010  13.9366500
 134.8503290  15.5289480  18.0197260 134.8072920  15.1582390  18.9011720
 134.9814300  16.4667050  18.1599080 138.5509320  17.0849070  13.6206980
 138.3100680  17.3523630  12.7337500 139.4911960  17.2554800  13.6757840
 140.7563740   3.5481760  17.3763490 140.6952630   4.1403590  18.1258900
 141.6964120   3.4407720  17.2313750 143.3938300   3.2051820  17.0155780
 144.0078710   3.5231110  16.3536860 143.9387860   2.7200410  17.6351640
 134.6891320  18.4751730  15.1395040 134.0951640  18.3436430  15.8785080
 134.6815160  17.6389870  14.6737140 145.0418320   3.9754830  14.7266790
 144.7131680   3.1606590  14.3468520 145.9900620   3.9324640  14.6032480
 147.4952930  19.7466870  11.7004360 147.0355900  20.4982680  11.3262380
 146.8665390  19.0273340  11.6419160 134.3203550  15.8410110  14.0903080
 133.5937610  15.2215400  14.0229030 134.3812700  16.2350720  13.2201160
 137.9248650  18.0555110  10.8752490 138.4413670  17.4442470  10.3500750
 138.5746030  18.5583890  11.3663500 140.6644150  18.9463600  11.7021470
 140.9521960  18.6917900  10.8254480 141.1767370  18.3940960  12.2927040
 141.8821160   2.6853800  12.2817980 141.0992950   3.1599300  12.5614740
 141.5884090   1.7808630  12.1731160 146.4342230   3.3876900  10.3267070
 146.8750320   3.3322000   9.4788670 146.1649820   4.3034910  10.3977250
 132.6033550  19.1584500   7.2999840 132.4355590  18.5255180   7.9981730
 131.7368060  19.3643900   6.9494030 133.2261570   2.9901280   4.8031700
 133.9840930   3.1030160   4.2295730 132.7638740   3.8270480   4.7575130
 139.7675380   5.1040550   7.7934010 138.9549890   4.7297440   7.4529890
 140.2717020   4.3485630   8.0955200 144.2700360   1.7683000   9.0317080
 144.8729730   2.3403210   9.5065600 143.5293350   2.3322440   8.8090980
 147.4134960   2.1704560   4.3057360 147.6085590   3.0688010   4.5724790
 146.6264830   1.9391640   4.7990310 134.2096250  17.8517730   4.7449980
 133.6843870  18.2325760   4.0411940 134.1340830  18.4768500   5.4659690
 135.5986720   3.5165330   3.3433670 136.1279480   2.7295130   3.2141620
 136.2315040   4.1956520   3.5769200 137.7924560   3.2540470   6.3979060
 137.1627300   2.5527780   6.5649190 137.2529700   4.0144600   6.1812220
 140.7316510  19.8679700  19.0689670 141.6583820  19.6323970  19.1125630
 140.7166940  20.6951700  18.5875700 137.9180120   2.5324450  18.8331550
 137.6364390   3.0358050  18.0692370 138.2999820   1.7346200  18.4673680
 136.8089220  19.8000110   3.6199230 137.5408040  19.5159390   3.0723120
 137.0682890  19.5613390   4.5098610 135.9704010  15.9164840   3.6245560
 135.3412890  16.3849940   4.1731390 136.0851840  15.0714060   4.0591750
 144.5195580   1.9478030  19.4112020 144.4061030   2.2672640  20.3063540
 145.3365320   2.3490540  19.1149300 147.2994070  19.0949560  18.8930710
 148.0919390  18.5998790  18.6856670 147.5927220  19.7739700  19.5006320
 124.6510240 141.3874930 139.9694680 124.5704290 140.4729540 139.6986390
 124.2374660 141.8842000 139.2634390 122.7828280 143.1653950 141.8503950
 122.0070380 142.6854390 142.1402520 123.4341210 142.4859600 141.6760110
 116.7994110 143.4773760 142.7279710 115.9678990 143.2222470 143.1276220
 117.4075090 143.5484530 143.4637630 126.8035710 147.5714140 140.6303080
 126.3417240 146.8001380 140.9590250 127.6161260 147.5980210 141.1355530
 116.7795370 147.5113850 142.9237730 117.0823410 146.6211590 142.7447950
 117.5238960 148.0684070 142.6959980 115.2086060 138.4375650 136.5122100
 114.3202760 138.7791620 136.4101980 115.4927250 138.2375970 135.6202930
 113.1719070 141.0381300 142.3961800 113.7435180 140.2703500 142.3965440
 113.1720610 141.3370060 141.4868410 123.0299020 149.8572150 140.2507070
 122.4110460 150.3129650 139.6801510 123.8850800 150.0123610 139.8496770
 122.2237270 145.8411140 141.8574110 122.1545550 144.9001080 141.6963240
 122.9857130 145.9312550 142.4296680 114.4143940 136.4465660 144.1830730
 114.2346780 135.5491410 144.4633490 114.0124020 136.9937530 144.8577680
 123.2542440 138.6481520 142.0843040 123.6307260 137.7753400 141.9716710
 123.1561950 138.9840220 141.1933480 117.3847450 137.0207150 137.5460480
 117.4914200 137.9210880 137.8529240 116.4739810 136.9725120 137.2555130
 127.0366560 136.1431960 139.0171380 127.8576180 135.6528530 139.0596860
 127.0700640 136.7329620 139.7703220 115.0330610 138.9426160 142.7913070
 115.7140720 139.2064530 143.4100470 114.7178660 138.1027030 143.1251080
 119.2255180 139.9893520 141.8785660 119.7333400 140.4874490 142.5190680
 119.7568420 139.2128720 141.7025020 131.3266110 138.1598710 145.5815010
 130.6218280 138.5480420 145.0630120 131.5924030 138.8549000 146.1835940
 117.5091280 134.6292080 146.1449080 117.5109720 135.1464470 145.3394980
 116.6795590 134.1522260 146.1219010 123.8962370 144.7411390 137.6438980
 123.2779640 145.2060840 137.0801700 124.4085620 145.4338870 138.0608490
 118.7594130 144.2687260 144.3222580 118.4263510 144.8956180 144.9643650
 118.9360810 144.7949140 143.5424250 127.2728040 138.0832340 141.7898920
 126.5683610 138.3717230 142.3702030 127.6340200 138.8932450 141.4298480
 117.1906610 136.3402040 144.1519530 117.5323420 137.1844090 143.8573400
 116.2522420 136.4885780 144.2684870 117.9713230 146.2368060 146.1371760
 118.5887230 146.9119140 145.8556210 117.1106350 146.6456040 146.0459260
 113.2645570 145.4267920 135.0178610 112.8873550 145.9155020 134.2863510
 113.5218640 146.0993200 135.6485140 128.8890820 147.7007470 144.0526400
 128.2054340 148.3706580 144.0443070 129.4285110 147.8988120 143.2871260
 130.3414960 137.5287130 142.1808130 129.3939870 137.5626110 142.3123560
 130.6664950 138.3426080 142.5657490 120.8734500 133.8284310 140.4764120
 121.1809480 133.2731200 139.7599620 119.9435200 133.9628770 140.2937110
 126.4249560 149.5451600 142.7671580 126.4376720 149.1413890 141.8993840
 125.8724780 150.3198890 142.6633010 127.7194980 146.2667820 137.8561750
 127.6091310 145.3242150 137.9811170 127.7163230 146.6283460 138.7424510
 125.8235000 144.4481440 144.0954190 126.2403790 144.2341550 143.2607650
 126.5474820 144.7054230 144.6662810 123.2615260 141.8933140 137.2124240
 122.3344540 141.8270520 137.4412710 123.4140080 142.8313270 137.0979480
 123.2484340 138.1650140 134.2091400 122.3088010 138.3264100 134.2943860
 123.5667600 138.8835820 133.6627390 129.7697100 142.8468660 144.1870430
 128.9415730 142.9161750 143.7120560 130.3647580 143.4322970 143.7186260
 127.2912550 143.4553440 137.7159490 126.6724970 143.1172990 137.0685790
 127.2737000 142.8113200 138.4238680 126.7339110 139.6337980 145.1325300
 126.3210290 140.4591690 145.3865290 126.0015060 139.0483020 144.9401660
 118.8671900 142.4197880 139.9943970 118.4628900 141.7075130 139.4989870
 118.9535020 142.0751120 140.8832010 119.3353600 146.1065440 142.1583180
 119.0381890 145.5010910 141.4790960 120.2853420 146.1442750 142.0472540
 117.5800520 139.1941090 143.7743010 118.1315110 139.3036430 142.9996260
 118.0944030 139.5678690 144.4898240 127.4239210 149.6797310 145.8206280
 126.9469770 150.4869500 145.6278890 126.7401000 149.0275640 145.9732490
 118.4272030 145.8447130 148.8090980 117.5300560 146.0687100 149.0564380
 118.4524900 145.9682070 147.8602380 125.4677250 142.6940250 134.7232240
 125.9070530 141.8562680 134.5770060 126.1805670 143.3269650 134.8096380
 117.2543250 142.7160450 147.3848350 117.1151020 143.5883250 147.7535750
 116.3724610 142.3733260 147.2396290 123.5772630 147.6336320 138.6913480
 124.0168540 148.3760650 138.2768870 123.5159520 147.8762890 139.6152440
 119.0523600 148.6582150 149.5933500 119.0239030 149.0625100 148.7261930
 118.8888570 147.7292510 149.4305100 129.0494390 133.9483060 133.0373280
 128.7367050 134.0409890 133.9372350 129.8106860 134.5264090 132.9870710
 115.5676530 141.3142860 137.4950620 115.4474130 142.0404950 136.8831890
 115.2577420 140.5445770 137.0178530 113.2061900 144.4858000 143.3019260
 113.2842320 144.6206770 142.3574980 113.8203580 143.7773890 143.4947380
 114.4509530 146.1858190 139.7125440 114.0437610 146.3272780 138.8579040
 115.3422540 145.9018350 139.5096650 130.4071670 146.6322100 148.0497680
 130.5334730 146.3933980 147.1314860 130.4493050 145.8006640 148.5219760
 124.2688410 150.3350100 146.6192490 124.7833080 150.2458110 147.4214920
 123.4257490 150.6809800 146.9120400 126.2442810 150.6205440 136.0476490
 126.0843950 150.3308380 136.9458320 126.0789520 149.8445570 135.5121720
 118.7231190 150.4003970 137.8248110 118.5473670 149.4839510 137.6115910
 117.8686930 150.7591260 138.0645910 125.9468940 148.1293000 134.6074490
 125.2534100 148.1270290 133.9476770 126.6891800 147.7052320 134.1768660
 125.5118870 149.7555710 138.6822980 125.9675820 148.9745090 138.9961600
 125.8511390 150.4662530 139.2264160 130.2595680 138.6854560 149.0147420
 129.6439950 139.1934230 148.4862880 129.9392100 137.7852890 148.9573360
 113.2621420 145.5272170 145.8413720 113.4252460 145.0577530 145.0233090
 113.7273870 145.0195730 146.5062560 118.0340190 134.6577930 140.8774290
 117.5908340 135.4387470 140.5458810 118.5925180 134.9807820 141.5845230
 122.3210000 137.5246450 146.4809610 121.8589370 137.7329470 147.2929550
 121.9188110 136.7105800 146.1780280 127.3214510 138.7455400 147.6106270
 126.4708100 138.4461150 147.9315340 127.1616300 138.9897410 146.6990090
 124.4164220 140.2457150 149.7105060 124.7417630 139.4120900 149.3707290
 125.2044550 140.7685670 149.8583390 121.1499010 134.2788630 135.7580120
 120.5253190 134.2748500 136.4833430 121.0629130 133.4119590 135.3616090
 120.0716090 135.2025260 142.7363890 120.3688420 136.1088090 142.6555910
 120.6201650 134.7144040 142.1223460 117.8254410 139.7811500 138.6055540
 117.5995330 139.5648670 139.5102160 117.0446940 140.2139960 138.2601510
 125.0552170 139.7874870 137.2046190 124.4561060 140.5110670 137.0209810
 125.6031780 139.7251650 136.4222640 120.2653620 140.6797080 149.2715810
 120.1697220 139.7391810 149.1216210 121.1085600 140.9012150 148.8763880
 123.6617040 138.4238410 139.2349470 124.0546610 138.7410610 138.4218160
 124.0233890 137.5450290 139.3493990 115.3964160 137.0910750 147.4249590
 115.0027550 137.9385960 147.6322370 114.7082560 136.4537120 147.6158230
 112.6981210 135.0139210 141.4579670 112.4094260 135.5842070 142.1704650
 113.4426970 134.5343660 141.8210900 112.8851440 138.9559330 132.6682390
 112.8026110 139.8990090 132.8097380 112.5334500 138.8134240 131.7894740
 124.2472180 141.0144160 143.3300250 123.5153300 141.5230970 143.6790350
 123.8496520 140.1974140 143.0289030 120.6849570 137.6898360 141.7352740
 120.6885630 137.2488310 140.8857280 121.5800690 138.0115690 141.8424560
 116.5351950 137.5724850 140.6946950 116.1952000 138.0500080 141.4514000
 115.7729270 137.1189970 140.3348050 120.7469720 138.6910440 134.7259500
 120.8682540 138.6496920 135.6745320 120.3618230 139.5534590 134.5706230
 124.7098090 136.4677840 142.7423190 124.7270830 136.9186490 143.5865040
 124.4613670 135.5683480 142.9556630 119.7591220 141.0011580 134.1242800
 119.1908120 140.5529830 133.4978710 120.4680220 141.3604360 133.5907950
 128.1368840 133.8810020 148.5809570 128.4614610 133.1499680 149.1067550
 128.1725350 133.5623660 147.6790560 114.8360400 144.9023600 148.0009530
 114.4515190 144.2617270 148.5992490 115.1472590 145.6059720 148.5704260
 120.9857540 141.7500140 143.4818150 121.3527670 141.2758710 144.2279490
 120.7962600 142.6241710 143.8226490 113.8498030 136.4943830 139.6111620
 113.5644950 136.1299500 140.4490240 113.7876890 135.7624290 138.9974760
 118.7756910 140.7908780 145.8002360 118.4713980 141.6700760 146.0252720
 119.7303370 140.8508570 145.8359800 117.3038700 144.9969770 136.3969210
 116.5300960 144.4567390 136.2367930 118.0333330 144.4776380 136.0586970
 128.0626680 143.9935130 142.1895600 128.7825800 144.4890420 141.7991710
 127.8608500 143.3153020 141.5449470 123.5236620 135.3873090 136.3324990
 122.7101230 134.8886260 136.2570300 123.3298570 136.2271340 135.9161340
 123.4445480 144.0644190 148.0764600 123.3782790 143.1439860 147.8222190
 122.8150620 144.1619630 148.7909240 126.2385010 139.7592740 134.6287150
 127.1264630 140.0709970 134.4538490 126.2090100 138.8864990 134.2367730
 117.3476100 144.6650150 140.0348020 117.8654770 143.8618410 139.9804910
 116.8960120 144.6029290 140.8764850 122.2345600 145.9316430 135.3075320
 122.5761300 146.6758660 134.8118640 121.4058310 146.2447550 135.6700150
 114.8320640 141.6311520 146.9473720 114.4735580 142.2965370 147.5347060
 114.5375200 140.7995070 147.3186340 118.0333760 142.0895760 149.8313270
 117.7333900 142.2352940 148.9341090 118.8045000 141.5301050 149.7386660
 123.3762210 146.8864760 147.8268400 123.3906750 145.9545720 147.6087310
 122.6687310 146.9724520 148.4658170 128.5099280 141.0704580 134.0967010
 128.4263000 141.5018800 133.2463450 129.2293470 141.5302930 134.5293830
 129.5873420 143.5272100 147.1736980 128.8621610 144.1200880 146.9766370
 130.1148880 143.5195640 146.3750350 129.5386530 147.9246840 136.8249140
 128.8962690 147.2702460 137.0992860 129.1517190 148.3301930 136.0489810
 125.1173010 145.2532270 140.6720830 125.4696830 144.6560400 140.0122200
 124.2335340 144.9276500 140.8429080 121.2036290 146.0129960 138.0791240
 121.8907420 146.5599170 138.4598830 120.4168710 146.5570690 138.1140850
 113.3428690 141.6302780 133.5708320 114.2123540 141.9127580 133.8544240
 112.8519010 142.4438650 133.4557130 120.5063500 143.0175990 137.6916600
 120.9626280 143.8281240 137.9176790 120.1551710 142.6999130 138.5235090
 122.8096110 148.5282330 144.9208900 123.4538330 148.7341710 145.5982320
 123.1725550 147.7670730 144.4679750 116.4075280 133.3613640 138.1639120
 116.2789910 133.3531540 139.1124040 115.5837300 133.6996730 137.8130130
 124.0828190 146.5314680 143.6386350 124.7250420 145.8307840 143.7518520
 124.6077540 147.3113120 143.4583240 127.9283910 146.8163300 133.3625490
 127.7021490 146.0993740 133.9550130 127.5380110 146.5675740 132.5247240
 125.8565810 147.3309580 146.8422410 126.1922050 147.9176270 147.5200330
 124.9366150 147.2002290 147.0720200 113.7099940 150.8430160 134.1369950
 114.0697580 151.4419500 133.4827220 113.5692280 151.3890050 134.9104980
 113.4069210 135.1204760 147.6245820 112.6927730 135.3201680 148.2298430
 113.8264250 134.3444330 147.9960620 127.5100160 144.7335240 135.0239650
 127.2221860 145.1947930 135.8117530 128.3052330 144.2733010 135.2923870
 113.6941800 149.1085020 148.6112350 113.8032920 148.1679760 148.4707740
 113.0422360 149.3739770 147.9626080 119.7268560 148.2261360 134.9543620
 119.7178660 148.9591050 134.3388130 118.8066920 147.9792940 135.0470580
 115.3275200 143.4476250 135.6990380 114.7203150 144.1875150 135.7085680
 115.8024550 143.5375610 134.8728580 124.9007990 137.6127070 145.3747270
 125.2688810 136.7922280 145.7026840 124.0406190 137.6728960 145.7902920
 128.2670020 136.5684010 136.1834830 127.6383180 136.6729680 135.4693060
 127.7721940 136.7880790 136.9728710 122.7128160 148.2889600 133.6168810
 122.8140140 148.0853590 132.6870790 121.8129900 148.0347880 133.8216590
 120.2354050 138.8469960 137.5992710 119.5270200 139.3156300 138.0406320
 120.5198530 138.1891970 138.2337900 121.8609980 140.2666660 145.5985240
 122.3595230 140.7412480 146.2637090 122.0032930 139.3430180 145.8055270
 124.2669480 135.5720620 139.0388500 124.1437260 135.5906750 138.0898010
 125.2154040 135.6199560 139.1586900 121.3546270 150.8075920 138.3116480
 121.6087770 150.7697310 137.3895850 120.4058750 150.6809250 138.3044730
 118.4389070 137.1555040 134.9743420 119.2879600 137.5925190 134.9083610
 118.0720340 137.4675300 135.8015480 129.0676840 136.4834620 146.4413630
 128.5650440 137.2240020 146.7807440 129.8833500 136.8718620 146.1250420
 127.3598850 141.7267800 139.8874990 126.4188990 141.7418030 140.0622680
 127.6742920 140.9403760 140.3335290 117.3380490 143.4087400 133.4478950
 118.1043760 143.2968760 134.0104380 117.4155180 142.7125370 132.7955720
 116.0327250 140.8412470 134.1311840 116.1130840 139.8939980 134.2429240
 116.9247000 141.1719350 134.2372500 129.3624430 148.8976650 141.5629250
 129.4871850 149.7207820 142.0353060 130.2289990 148.6867380 141.2153400
 113.7187440 147.0581430 137.1087890 112.7927220 147.3002570 137.0993300
 114.1843870 147.8855690 136.9872640 119.9444270 150.1638170 133.0571950
 120.7372880 150.4527000 132.6053740 119.4248620 149.7330340 132.3784430
 126.1065240 150.0114090 148.9816780 127.0586990 149.9272110 148.9317020
 125.9593460 150.6755800 149.6550570 128.9974440 149.3908300 134.4808690
 128.7115950 148.9773440 133.6662870 128.7993990 150.3196010 134.3609210
 113.5598050 142.6627390 149.3668010 114.0637070 142.0834670 149.9384240
 112.8205470 142.9467620 149.9044380 120.4621670 145.3841580 132.9214300
 120.3572310 144.7693930 133.6475680 120.2945890 144.8607470 132.1377310
 120.6135990 144.0698380 148.9003530 119.8481660 144.6383380 148.8158200
 120.7951950 143.7774590 148.0071760 123.7024400 144.4461610 133.5256290
 123.1534500 144.8930910 134.1699030 124.3243660 143.9410860 134.0493960
 127.7559340 145.8003710 149.4578550 128.4968810 146.1379470 148.9546010
 126.9932020 145.9695770 148.9048320 119.3699520 143.4052530 135.4221590
 119.7915940 143.2392400 136.2652980 119.4950360 142.5952760 134.9276730
 117.5326940 139.3849080 148.2292570 117.0023400 138.8940030 147.6015910
 118.2015010 139.8133280 147.6950500 121.8827160 142.4290140 132.6698690
 122.4032820 141.7139160 132.3039840 122.5295560 143.0676010 132.9699200
 126.4305000 143.8518540 147.9933760 126.8446020 144.0063620 148.8424180
 125.4956000 143.9773760 148.1559540 126.9027170 141.1914700 149.9972910
 127.4847940 140.4367020 149.9093390 127.0788940 141.7222140 149.2204390
 118.0199240 136.3511450 148.3089860 117.9256110 135.7332200 147.5840730
 117.4396630 137.0777740 148.0819770 120.7860680 134.9084690 145.3417250
 120.3377980 134.9308950 144.4962800 120.1525880 134.5103710 145.9387550
 121.1920230 143.8039020 145.9629690 121.6108340 144.6471750 145.7905930
 120.2728860 143.9411060 145.7336470 123.5284130 141.5355200 147.3467530
 123.6480340 140.9396340 148.0862370 124.3878130 141.5724890 146.9268830
 125.8672030 142.0892390 145.9230040 125.3407250 142.6135010 145.3195180
 126.2103370 142.7219780 146.5539770 118.2658420 139.4785760 132.3679750
 118.0647480 138.6153120 132.7293090 118.0950470 139.3919120 131.4301350
 119.0427650 150.1092030 147.0787420 118.5048740 150.8338090 146.7596120
 119.2961610 149.6322370 146.2884760 120.2952900 138.0776550 148.6043350
 120.8852590 137.7692400 149.2921170 119.4773140 137.6056300 148.7603250
 125.1146330 137.6942360 148.8376370 124.4261850 137.0323900 148.7726360
 125.8352350 137.2480630 149.2824830 125.7446730 134.2893990 134.8966630
 126.0249020 133.4461890 135.2526050 124.9712460 134.5217100 135.4105380
 117.0641220 136.5786380 132.3557630 117.3667120 136.5853810 131.4476780
 117.8035810 136.2284240 132.8525290 120.2826150 135.5221000 133.3413830
 119.9348150 134.8444990 132.7616280 120.4838920 135.0610510 134.1557220
 122.4475190 150.5101750 134.9600430 123.3425980 150.8486720 134.9819190
 122.4792820 149.7881160 134.3324710 116.0871350 145.8828800 133.1887430
 116.5246220 146.4258470 133.8445010 116.5719080 145.0575750 133.1983770
 113.3017150 148.6717830 140.6407690 113.6320160 147.8038890 140.4086330
 113.7308150 148.8776350 141.4712650 117.8979070 147.0026840 138.3009660
 117.5974610 146.8791810 139.2013570 117.7916560 146.1435430 137.8925390
 113.7907360 149.5388420 143.3789320 113.3538350 149.7189220 144.2113470
 114.3585040 150.2963040 143.2371040 129.4269540 149.0405420 147.6666630
 128.8271530 149.0997980 146.9230550 129.5563440 148.1010400 147.7963480
 130.6670990 146.7823240 133.0036340 129.8363950 146.8499890 133.4743570
 130.8442820 147.6727360 132.7003200 130.1227450 143.5270720 135.5070540
 130.8846360 144.0967370 135.6130230 130.1381820 142.9597920 136.2778850
 113.6231790 142.0508650 139.7378200 112.9680630 141.7820290 139.0937900
 114.4609740 141.9413130 139.2880180 131.1287420 144.3820820 140.3512470
 131.4996250 143.5988140 139.9448440 131.7689350 145.0709920 140.1729770
 128.1121180 145.7657400 145.7642790 127.2981020 146.1954560 146.0268580
 128.5195380 146.3775810 145.1511840 130.1746620 143.8205090 132.6643060
 130.4495460 144.7283970 132.5362280 129.9857360 143.7567620 133.6005050
 126.5722230 136.8449940 133.9596690 126.9907110 136.6580920 133.1193350
 126.2658290 135.9928990 134.2699620 130.0711960 141.7574080 137.6572490
 129.6955560 140.9902010 137.2253780 129.3415080 142.1396780 138.1447420
 114.6607720 142.4361220 144.2781540 115.0280760 142.3488620 145.1577560
 114.0918540 141.6727770 144.1788400 129.4611580 140.9045600 147.2912010
 129.2297670 140.6758350 146.3909960 129.7216130 141.8245150 147.2456900
 114.2123720 139.3470310 148.1839960 113.3179770 139.3137070 148.5233670
 114.7521270 139.5457100 148.9491210 112.8369870 139.2607580 135.6803530
 111.9333950 139.5237780 135.5055190 113.3210490 139.5318750 134.9003490
 129.3462920 139.9831570 140.9579730 129.8700400 139.4894220 140.3269900
 129.9322340 140.1181930 141.7027300 129.5252640 140.0671440 144.4799280
 128.5755350 140.0334980 144.5944270 129.7065650 140.9771550 144.2449050
 115.3797080 138.3173120 133.5897910 116.0888780 137.8956340 133.1045190
 114.6637020 138.3848350 132.9581260 115.0271240 134.3712450 132.6300560
 115.7499370 134.9121390 132.9481780 115.2995760 134.0975870 131.7542100
 128.8362890 139.2404920 136.8972140 129.3322010 139.0075790 137.6821020
 128.6378960 138.4016760 136.4809780 114.7163430 133.6218640 142.5323180
 115.3639620 133.0716020 142.0918340 115.1365270 133.8761790 143.3538990
 130.2650050 137.8765870 139.4309820 130.1549330 137.7221910 140.3692090
 131.0257640 137.3486810 139.1885230 128.6115770 133.8160000 145.8892820
 129.2487990 134.4294140 146.2552010 128.7590660 133.8520660 144.9442050
 131.1540320 135.7073790 132.6715960 132.0789630 135.5754970 132.4634250
 131.1316110 135.7866610 133.6252410 131.2278810 136.4784450 135.2972670
 130.4330310 136.4129570 135.8265580 131.4322090 137.4135090 135.2858020
 128.1697230 150.5176000 139.2911060 128.7656300 150.1960570 138.6145480
 128.4275380 150.0447820 140.0824330 114.4695430 133.7774310 145.2748500
 114.1210250 134.2338130 146.0406680 114.1383130 132.8831440 145.3570930
 119.7765830 148.5053500 145.0411410 119.5357190 148.7728060 144.1541930
 120.7168470 148.6759230 145.0962270 121.9820250 134.9686190 148.7967920
 121.9209140 135.5608020 149.5463330 122.9220630 134.8612150 148.6518180
 124.6194810 134.6256250 148.4360210 125.2335220 134.9435540 147.7741290
 125.1644370 134.1404840 149.0556070 131.0369990 150.5247880 145.8422050
 130.5428270 150.9216750 145.1249180 130.4283280 149.8997090 146.2359330
 115.1416070 133.3050510 148.5499270 115.6899060 133.1238560 147.7865380
 115.2071380 132.5144620 149.0855580 115.9147830 149.8956160 146.5599470
 115.3208150 149.7640860 147.2989510 115.9071670 149.0594300 146.0941570
 125.3602850 133.1888390 144.7629500 124.4862690 133.5223500 144.5602430
 125.2513600 132.7161570 145.5881370 126.2674830 135.3959260 146.1471220
 125.9388190 134.5811020 145.7672950 127.2157130 135.3529070 146.0236910
 115.5460060 147.2614540 145.5107510 114.8194120 146.6419830 145.4433460
 115.6069210 147.6555150 144.6405590 119.1505160 149.4759540 142.2956920
 119.6670180 148.8646900 141.7705180 119.8002540 149.9788320 142.7867930
 121.8900660 150.3668030 143.1225900 122.1778470 150.1122330 142.2458910
 122.4023880 149.8145390 143.7131470 123.1077670 134.1058230 143.7022410
 122.3249460 134.5803730 143.9819170 122.8140600 133.2013060 143.5935590
 127.6598740 134.8081330 141.7471500 128.1006830 134.7526430 140.8993100
 127.3906330 135.7239340 141.8181680 129.5237310 134.4396570 139.7580320
 129.4625710 133.4957790 139.6111340 130.3029340 134.5476660 140.3033780
 113.8290060 150.5788930 138.7204270 113.6612100 149.9459610 139.4186160
 112.9624570 150.7848330 138.3698460 114.4518080 134.4105710 136.2236130
 115.2097440 134.5234590 135.6500160 113.9895250 135.2474910 136.1779560
 120.9931890 136.5244980 139.2138440 120.1806400 136.1501870 138.8734320
 121.4973530 135.7690060 139.5159630 125.4956870 133.1887430 140.4521510
 126.0986240 133.7607640 140.9270030 124.7549860 133.7526870 140.2295410
 128.6391470 133.5908990 135.7261790 128.8342100 134.4892440 135.9929220
 127.8521340 133.3596070 136.2194740 115.4352760 149.2722160 136.1654410
 114.9100380 149.6530190 135.4616370 115.3597340 149.8972930 136.8864120
 116.8243230 134.9369760 134.7638100 117.3535990 134.1499560 134.6346050
 117.4571550 135.6160950 134.9973630 119.0181070 134.6744900 137.8183490
 118.3883810 133.9732210 137.9853620 118.4786210 135.4349030 137.6016650
 130.1918080 150.8309700 137.4868350 130.3670270 150.1447440 136.8429270
 129.4939650 151.3556750 137.0945020 118.0345730 151.2204540 135.0403660
 118.7664550 150.9363820 134.4927550 118.2939400 150.9817820 135.9303040
 117.1960520 147.3369270 135.0449990 116.5669400 147.8054370 135.5935820
 117.3108350 146.4918490 135.4796180 124.6510240 141.3874930 121.1951190
 124.5704290 140.4729540 120.9242900 124.2374660 141.8842000 120.4890900
 122.7828280 143.1653950 123.0760460 122.0070380 142.6854390 123.3659030
 123.4341210 142.4859600 122.9016620 116.7994110 143.4773760 123.9536220
 115.9678990 143.2222470 124.3532730 117.4075090 143.5484530 124.6894140
 126.8035710 147.5714140 121.8559590 126.3417240 146.8001380 122.1846760
 127.6161260 147.5980210 122.3612040 116.7795370 147.5113850 124.1494240
 117.0823410 146.6211590 123.9704460 117.5238960 148.0684070 123.9216490
 115.2086060 138.4375650 117.7378610 114.3202760 138.7791620 117.6358490
 115.4927250 138.2375970 116.8459440 113.1719070 141.0381300 123.6218310
 113.7435180 140.2703500 123.6221950 113.1720610 141.3370060 122.7124920
 123.0299020 149.8572150 121.4763580 122.4110460 150.3129650 120.9058020
 123.8850800 150.0123610 121.0753280 122.2237270 145.8411140 123.0830620
 122.1545550 144.9001080 122.9219750 122.9857130 145.9312550 123.6553190
 114.4143940 136.4465660 125.4087240 114.2346780 135.5491410 125.6890000
 114.0124020 136.9937530 126.0834190 123.2542440 138.6481520 123.3099550
 123.6307260 137.7753400 123.1973220 123.1561950 138.9840220 122.4189990
 117.3847450 137.0207150 118.7716990 117.4914200 137.9210880 119.0785750
 116.4739810 136.9725120 118.4811640 127.0366560 136.1431960 120.2427890
 127.8576180 135.6528530 120.2853370 127.0700640 136.7329620 120.9959730
 115.0330610 138.9426160 124.0169580 115.7140720 139.2064530 124.6356980
 114.7178660 138.1027030 124.3507590 119.2255180 139.9893520 123.1042170
 119.7333400 140.4874490 123.7447190 119.7568420 139.2128720 122.9281530
 131.3266110 138.1598710 126.8071520 130.6218280 138.5480420 126.2886630
 131.5924030 138.8549000 127.4092450 117.5091280 134.6292080 127.3705590
 117.5109720 135.1464470 126.5651490 116.6795590 134.1522260 127.3475520
 123.8962370 144.7411390 118.8695490 123.2779640 145.2060840 118.3058210
 124.4085620 145.4338870 119.2865000 118.7594130 144.2687260 125.5479090
 118.4263510 144.8956180 126.1900160 118.9360810 144.7949140 124.7680760
 127.2728040 138.0832340 123.0155430 126.5683610 138.3717230 123.5958540
 127.6340200 138.8932450 122.6554990 117.1906610 136.3402040 125.3776040
 117.5323420 137.1844090 125.0829910 116.2522420 136.4885780 125.4941380
 117.9713230 146.2368060 127.3628270 118.5887230 146.9119140 127.0812720
 117.1106350 146.6456040 127.2715770 113.2645570 145.4267920 116.2435120
 112.8873550 145.9155020 115.5120020 113.5218640 146.0993200 116.8741650
 128.8890820 147.7007470 125.2782910 128.2054340 148.3706580 125.2699580
 129.4285110 147.8988120 124.5127770 130.3414960 137.5287130 123.4064640
 129.3939870 137.5626110 123.5380070 130.6664950 138.3426080 123.7914000
 120.8734500 133.8284310 121.7020630 121.1809480 133.2731200 120.9856130
 119.9435200 133.9628770 121.5193620 126.4249560 149.5451600 123.9928090
 126.4376720 149.1413890 123.1250350 125.8724780 150.3198890 123.8889520
 127.7194980 146.2667820 119.0818260 127.6091310 145.3242150 119.2067680
 127.7163230 146.6283460 119.9681020 125.8235000 144.4481440 125.3210700
 126.2403790 144.2341550 124.4864160 126.5474820 144.7054230 125.8919320
 123.2615260 141.8933140 118.4380750 122.3344540 141.8270520 118.6669220
 123.4140080 142.8313270 118.3235990 123.2484340 138.1650140 115.4347910
 122.3088010 138.3264100 115.5200370 123.5667600 138.8835820 114.8883900
 129.7697100 142.8468660 125.4126940 128.9415730 142.9161750 124.9377070
 130.3647580 143.4322970 124.9442770 127.2912550 143.4553440 118.9416000
 126.6724970 143.1172990 118.2942300 127.2737000 142.8113200 119.6495190
 126.7339110 139.6337980 126.3581810 126.3210290 140.4591690 126.6121800
 126.0015060 139.0483020 126.1658170 118.8671900 142.4197880 121.2200480
 118.4628900 141.7075130 120.7246380 118.9535020 142.0751120 122.1088520
 119.3353600 146.1065440 123.3839690 119.0381890 145.5010910 122.7047470
 120.2853420 146.1442750 123.2729050 117.5800520 139.1941090 124.9999520
 118.1315110 139.3036430 124.2252770 118.0944030 139.5678690 125.7154750
 127.4239210 149.6797310 127.0462790 126.9469770 150.4869500 126.8535400
 126.7401000 149.0275640 127.1989000 118.4272030 145.8447130 130.0347490
 117.5300560 146.0687100 130.2820890 118.4524900 145.9682070 129.0858890
 125.4677250 142.6940250 115.9488750 125.9070530 141.8562680 115.8026570
 126.1805670 143.3269650 116.0352890 117.2543250 142.7160450 128.6104860
 117.1151020 143.5883250 128.9792260 116.3724610 142.3733260 128.4652800
 123.5772630 147.6336320 119.9169990 124.0168540 148.3760650 119.5025380
 123.5159520 147.8762890 120.8408950 119.0523600 148.6582150 130.8190010
 119.0239030 149.0625100 129.9518440 118.8888570 147.7292510 130.6561610
 129.0494390 133.9483060 114.2629790 128.7367050 134.0409890 115.1628860
 129.8106860 134.5264090 114.2127220 115.5676530 141.3142860 118.7207130
 115.4474130 142.0404950 118.1088400 115.2577420 140.5445770 118.2435040
 131.0038420 149.4409250 132.1154180 131.4798140 149.9192140 132.7943260
 131.6245580 149.3726740 131.3899680 113.2061900 144.4858000 124.5275770
 113.2842320 144.6206770 123.5831490 113.8203580 143.7773890 124.7203890
 114.4509530 146.1858190 120.9381950 114.0437610 146.3272780 120.0835550
 115.3422540 145.9018350 120.7353160 130.4071670 146.6322100 129.2754190
 130.5334730 146.3933980 128.3571370 130.4493050 145.8006640 129.7476270
 124.2688410 150.3350100 127.8449000 124.7833080 150.2458110 128.6471430
 123.4257490 150.6809800 128.1376910 126.2442810 150.6205440 117.2733000
 126.0843950 150.3308380 118.1714830 126.0789520 149.8445570 116.7378230
 118.7231190 150.4003970 119.0504620 118.5473670 149.4839510 118.8372420
 117.8686930 150.7591260 119.2902420 125.9468940 148.1293000 115.8331000
 125.2534100 148.1270290 115.1733280 126.6891800 147.7052320 115.4025170
 125.5118870 149.7555710 119.9079490 125.9675820 148.9745090 120.2218110
 125.8511390 150.4662530 120.4520670 130.2595680 138.6854560 130.2403930
 129.6439950 139.1934230 129.7119390 129.9392100 137.7852890 130.1829870
 113.2621420 145.5272170 127.0670230 113.4252460 145.0577530 126.2489600
 113.7273870 145.0195730 127.7319070 118.0340190 134.6577930 122.1030800
 117.5908340 135.4387470 121.7715320 118.5925180 134.9807820 122.8101740
 122.3210000 137.5246450 127.7066120 121.8589370 137.7329470 128.5186060
 121.9188110 136.7105800 127.4036790 127.3214510 138.7455400 128.8362780
 126.4708100 138.4461150 129.1571850 127.1616300 138.9897410 127.9246600
 124.4164220 140.2457150 130.9361570 124.7417630 139.4120900 130.5963800
 125.2044550 140.7685670 131.0839900 121.1499010 134.2788630 116.9836630
 120.5253190 134.2748500 117.7089940 121.0629130 133.4119590 116.5872600
 120.0716090 135.2025260 123.9620400 120.3688420 136.1088090 123.8812420
 120.6201650 134.7144040 123.3479970 117.8254410 139.7811500 119.8312050
 117.5995330 139.5648670 120.7358670 117.0446940 140.2139960 119.4858020
 125.0552170 139.7874870 118.4302700 124.4561060 140.5110670 118.2466320
 125.6031780 139.7251650 117.6479150 120.2653620 140.6797080 130.4972320
 120.1697220 139.7391810 130.3472720 121.1085600 140.9012150 130.1020390
 123.6617040 138.4238410 120.4605980 124.0546610 138.7410610 119.6474670
 124.0233890 137.5450290 120.5750500 115.3964160 137.0910750 128.6506100
 115.0027550 137.9385960 128.8578880 114.7082560 136.4537120 128.8414740
 121.9709210 137.1745720 131.7202840 121.2807530 136.9817920 132.3548930
 122.7141510 137.4580360 132.2527140 112.6981210 135.0139210 122.6836180
 112.4094260 135.5842070 123.3961160 113.4426970 134.5343660 123.0467410
 112.8851440 138.9559330 113.8938900 112.8026110 139.8990090 114.0353890
 112.5334500 138.8134240 113.0151250 124.2472180 141.0144160 124.5556760
 123.5153300 141.5230970 124.9046860 123.8496520 140.1974140 124.2545540
 120.6849570 137.6898360 122.9609250 120.6885630 137.2488310 122.1113790
 121.5800690 138.0115690 123.0681070 116.5351950 137.5724850 121.9203460
 116.1952000 138.0500080 122.6770510 115.7729270 137.1189970 121.5604560
 120.7469720 138.6910440 115.9516010 120.8682540 138.6496920 116.9001830
 120.3618230 139.5534590 115.7962740 124.7098090 136.4677840 123.9679700
 124.7270830 136.9186490 124.8121550 124.4613670 135.5683480 124.1813140
 119.7591220 141.0011580 115.3499310 119.1908120 140.5529830 114.7235220
 120.4680220 141.3604360 114.8164460 128.1368840 133.8810020 129.8066080
 128.4614610 133.1499680 130.3324060 128.1725350 133.5623660 128.9047070
 114.8360400 144.9023600 129.2266040 114.4515190 144.2617270 129.8249000
 115.1472590 145.6059720 129.7960770 120.9857540 141.7500140 124.7074660
 121.3527670 141.2758710 125.4536000 120.7962600 142.6241710 125.0483000
 113.8498030 136.4943830 120.8368130 113.5644950 136.1299500 121.6746750
 113.7876890 135.7624290 120.2231270 118.7756910 140.7908780 127.0258870
 118.4713980 141.6700760 127.2509230 119.7303370 140.8508570 127.0616310
 117.3038700 144.9969770 117.6225720 116.5300960 144.4567390 117.4624440
 118.0333330 144.4776380 117.2843480 128.0626680 143.9935130 123.4152110
 128.7825800 144.4890420 123.0248220 127.8608500 143.3153020 122.7705980
 123.5236620 135.3873090 117.5581500 122.7101230 134.8886260 117.4826810
 123.3298570 136.2271340 117.1417850 123.4445480 144.0644190 129.3021110
 123.3782790 143.1439860 129.0478700 122.8150620 144.1619630 130.0165750
 126.2385010 139.7592740 115.8543660 127.1264630 140.0709970 115.6795000
 126.2090100 138.8864990 115.4624240 117.3476100 144.6650150 121.2604530
 117.8654770 143.8618410 121.2061420 116.8960120 144.6029290 122.1021360
 122.2345600 145.9316430 116.5331830 122.5761300 146.6758660 116.0375150
 121.4058310 146.2447550 116.8956660 114.8320640 141.6311520 128.1730230
 114.4735580 142.2965370 128.7603570 114.5375200 140.7995070 128.5442850
 118.0333760 142.0895760 131.0569780 117.7333900 142.2352940 130.1597600
 118.8045000 141.5301050 130.9643170 123.3762210 146.8864760 129.0524910
 123.3906750 145.9545720 128.8343820 122.6687310 146.9724520 129.6914680
 128.5099280 141.0704580 115.3223520 128.4263000 141.5018800 114.4719960
 129.2293470 141.5302930 115.7550340 129.5873420 143.5272100 128.3993490
 128.8621610 144.1200880 128.2022880 130.1148880 143.5195640 127.6006860
 129.5386530 147.9246840 118.0505650 128.8962690 147.2702460 118.3249370
 129.1517190 148.3301930 117.2746320 125.1173010 145.2532270 121.8977340
 125.4696830 144.6560400 121.2378710 124.2335340 144.9276500 122.0685590
 121.2036290 146.0129960 119.3047750 121.8907420 146.5599170 119.6855340
 120.4168710 146.5570690 119.3397360 113.3428690 141.6302780 114.7964830
 114.2123540 141.9127580 115.0800750 112.8519010 142.4438650 114.6813640
 120.5063500 143.0175990 118.9173110 120.9626280 143.8281240 119.1433300
 120.1551710 142.6999130 119.7491600 122.8096110 148.5282330 126.1465410
 123.4538330 148.7341710 126.8238830 123.1725550 147.7670730 125.6936260
 116.4075280 133.3613640 119.3895630 116.2789910 133.3531540 120.3380550
 115.5837300 133.6996730 119.0386640 124.0828190 146.5314680 124.8642860
 124.7250420 145.8307840 124.9775030 124.6077540 147.3113120 124.6839750
 127.9283910 146.8163300 114.5882000 127.7021490 146.0993740 115.1806640
 127.5380110 146.5675740 113.7503750 125.8565810 147.3309580 128.0678920
 126.1922050 147.9176270 128.7456840 124.9366150 147.2002290 128.2976710
 113.7099940 150.8430160 115.3626460 114.0697580 151.4419500 114.7083730
 113.5692280 151.3890050 116.1361490 113.4069210 135.1204760 128.8502330
 112.6927730 135.3201680 129.4554940 113.8264250 134.3444330 129.2217130
 127.5100160 144.7335240 116.2496160 127.2221860 145.1947930 117.0374040
 128.3052330 144.2733010 116.5180380 113.6941800 149.1085020 129.8368860
 113.8032920 148.1679760 129.6964250 113.0422360 149.3739770 129.1882590
 121.6854390 147.3800910 131.2366980 121.3651260 146.6610150 131.7812670
 121.0112750 148.0555980 131.3103040 119.7268560 148.2261360 116.1800130
 119.7178660 148.9591050 115.5644640 118.8066920 147.9792940 116.2727090
 115.3275200 143.4476250 116.9246890 114.7203150 144.1875150 116.9342190
 115.8024550 143.5375610 116.0985090 124.9007990 137.6127070 126.6003780
 125.2688810 136.7922280 126.9283350 124.0406190 137.6728960 127.0159430
 128.2670020 136.5684010 117.4091340 127.6383180 136.6729680 116.6949570
 127.7721940 136.7880790 118.1985220 122.7128160 148.2889600 114.8425320
 122.8140140 148.0853590 113.9127300 121.8129900 148.0347880 115.0473100
 120.2354050 138.8469960 118.8249220 119.5270200 139.3156300 119.2662830
 120.5198530 138.1891970 119.4594410 121.8609980 140.2666660 126.8241750
 122.3595230 140.7412480 127.4893600 122.0032930 139.3430180 127.0311780
 124.2669480 135.5720620 120.2645010 124.1437260 135.5906750 119.3154520
 125.2154040 135.6199560 120.3843410 121.3546270 150.8075920 119.5372990
 121.6087770 150.7697310 118.6152360 120.4058750 150.6809250 119.5301240
 118.4389070 137.1555040 116.1999930 119.2879600 137.5925190 116.1340120
 118.0720340 137.4675300 117.0271990 129.0676840 136.4834620 127.6670140
 128.5650440 137.2240020 128.0063950 129.8833500 136.8718620 127.3506930
 127.3598850 141.7267800 121.1131500 126.4188990 141.7418030 121.2879190
 127.6742920 140.9403760 121.5591800 117.3380490 143.4087400 114.6735460
 118.1043760 143.2968760 115.2360890 117.4155180 142.7125370 114.0212230
 116.0327250 140.8412470 115.3568350 116.1130840 139.8939980 115.4685750
 116.9247000 141.1719350 115.4629010 129.3624430 148.8976650 122.7885760
 129.4871850 149.7207820 123.2609570 130.2289990 148.6867380 122.4409910
 113.7187440 147.0581430 118.3344400 112.7927220 147.3002570 118.3249810
 114.1843870 147.8855690 118.2129150 115.8400240 150.1753930 131.6488470
 116.6412970 150.4965980 132.0623870 115.3252060 149.8149510 132.3708380
 119.9444270 150.1638170 114.2828460 120.7372880 150.4527000 113.8310250
 119.4248620 149.7330340 113.6040940 124.6764870 146.2833800 131.5963880
 124.0703030 146.3065400 130.8559630 124.3718980 145.5516840 132.1331130
 126.1065240 150.0114090 130.2073290 127.0586990 149.9272110 130.1573530
 125.9593460 150.6755800 130.8807080 128.9974440 149.3908300 115.7065200
 128.7115950 148.9773440 114.8919380 128.7993990 150.3196010 115.5865720
 113.5598050 142.6627390 130.5924520 114.0637070 142.0834670 131.1640750
 112.8205470 142.9467620 131.1300890 120.4621670 145.3841580 114.1470810
 120.3572310 144.7693930 114.8732190 120.2945890 144.8607470 113.3633820
 120.6135990 144.0698380 130.1260040 119.8481660 144.6383380 130.0414710
 120.7951950 143.7774590 129.2328270 123.7024400 144.4461610 114.7512800
 123.1534500 144.8930910 115.3955540 124.3243660 143.9410860 115.2750470
 127.7559340 145.8003710 130.6835060 128.4968810 146.1379470 130.1802520
 126.9932020 145.9695770 130.1304830 115.5921130 140.8056980 131.4874590
 115.6326470 140.5070850 132.3959820 116.4466630 141.2064590 131.3282110
 119.3699520 143.4052530 116.6478100 119.7915940 143.2392400 117.4909490
 119.4950360 142.5952760 116.1533240 117.5326940 139.3849080 129.4549080
 117.0023400 138.8940030 128.8272420 118.2015010 139.8133280 128.9207010
 121.8827160 142.4290140 113.8955200 122.4032820 141.7139160 113.5296350
 122.5295560 143.0676010 114.1955710 126.4305000 143.8518540 129.2190270
 126.8446020 144.0063620 130.0680690 125.4956000 143.9773760 129.3816050
 126.9027170 141.1914700 131.2229420 127.4847940 140.4367020 131.1349900
 127.0788940 141.7222140 130.4460900 118.0199240 136.3511450 129.5346370
 117.9256110 135.7332200 128.8097240 117.4396630 137.0777740 129.3076280
 120.7860680 134.9084690 126.5673760 120.3377980 134.9308950 125.7219310
 120.1525880 134.5103710 127.1644060 121.1920230 143.8039020 127.1886200
 121.6108340 144.6471750 127.0162440 120.2728860 143.9411060 126.9592980
 123.5284130 141.5355200 128.5724040 123.6480340 140.9396340 129.3118880
 124.3878130 141.5724890 128.1525340 125.8672030 142.0892390 127.1486550
 125.3407250 142.6135010 126.5451690 126.2103370 142.7219780 127.7796280
 118.2658420 139.4785760 113.5936260 118.0647480 138.6153120 113.9549600
 118.0950470 139.3919120 112.6557860 119.0427650 150.1092030 128.3043930
 118.5048740 150.8338090 127.9852630 119.2961610 149.6322370 127.5141270
 120.2952900 138.0776550 129.8299860 120.8852590 137.7692400 130.5177680
 119.4773140 137.6056300 129.9859760 125.1146330 137.6942360 130.0632880
 124.4261850 137.0323900 129.9982870 125.8352350 137.2480630 130.5081340
 125.7446730 134.2893990 116.1223140 126.0249020 133.4461890 116.4782560
 124.9712460 134.5217100 116.6361890 117.0641220 136.5786380 113.5814140
 117.3667120 136.5853810 112.6733290 117.8035810 136.2284240 114.0781800
 120.2826150 135.5221000 114.5670340 119.9348150 134.8444990 113.9872790
 120.4838920 135.0610510 115.3813730 122.4475190 150.5101750 116.1856940
 123.3425980 150.8486720 116.2075700 122.4792820 149.7881160 115.5581220
 116.0871350 145.8828800 114.4143940 116.5246220 146.4258470 115.0701520
 116.5719080 145.0575750 114.4240280 113.3017150 148.6717830 121.8664200
 113.6320160 147.8038890 121.6342840 113.7308150 148.8776350 122.6969160
 117.8979070 147.0026840 119.5266170 117.5974610 146.8791810 120.4270080
 117.7916560 146.1435430 119.1181900 113.7907360 149.5388420 124.6045830
 113.3538350 149.7189220 125.4369980 114.3585040 150.2963040 124.4627550
 129.4269540 149.0405420 128.8923140 128.8271530 149.0997980 128.1487060
 129.5563440 148.1010400 129.0219990 130.6670990 146.7823240 114.2292850
 129.8363950 146.8499890 114.7000080 130.8442820 147.6727360 113.9259710
 130.1227450 143.5270720 116.7327050 130.8846360 144.0967370 116.8386740
 130.1381820 142.9597920 117.5035360 113.6231790 142.0508650 120.9634710
 112.9680630 141.7820290 120.3194410 114.4609740 141.9413130 120.5136690
 131.1287420 144.3820820 121.5768980 131.4996250 143.5988140 121.1704950
 131.7689350 145.0709920 121.3986280 128.1121180 145.7657400 126.9899300
 127.2981020 146.1954560 127.2525090 128.5195380 146.3775810 126.3768350
 130.1746620 143.8205090 113.8899570 130.4495460 144.7283970 113.7618790
 129.9857360 143.7567620 114.8261560 126.5722230 136.8449940 115.1853200
 126.9907110 136.6580920 114.3449860 126.2658290 135.9928990 115.4956130
 130.0711960 141.7574080 118.8829000 129.6955560 140.9902010 118.4510290
 129.3415080 142.1396780 119.3703930 114.6607720 142.4361220 125.5038050
 115.0280760 142.3488620 126.3834070 114.0918540 141.6727770 125.4044910
 129.4611580 140.9045600 128.5168520 129.2297670 140.6758350 127.6166470
 129.7216130 141.8245150 128.4713410 114.2123720 139.3470310 129.4096470
 113.3179770 139.3137070 129.7490180 114.7521270 139.5457100 130.1747720
 127.8999650 136.1302030 131.2948220 128.7769830 136.1385430 131.6782220
 127.9120490 135.3932870 130.6840570 112.8369870 139.2607580 116.9060040
 111.9333950 139.5237780 116.7311700 113.3210490 139.5318750 116.1260000
 129.3462920 139.9831570 122.1836240 129.8700400 139.4894220 121.5526410
 129.9322340 140.1181930 122.9283810 129.5252640 140.0671440 125.7055790
 128.5755350 140.0334980 125.8200780 129.7065650 140.9771550 125.4705560
 115.3797080 138.3173120 114.8154420 116.0888780 137.8956340 114.3301700
 114.6637020 138.3848350 114.1837770 115.0271240 134.3712450 113.8557070
 115.7499370 134.9121390 114.1738290 115.2995760 134.0975870 112.9798610
 128.8362890 139.2404920 118.1228650 129.3322010 139.0075790 118.9077530
 128.6378960 138.4016760 117.7066290 114.7163430 133.6218640 123.7579690
 115.3639620 133.0716020 123.3174850 115.1365270 133.8761790 124.5795500
 130.2650050 137.8765870 120.6566330 130.1549330 137.7221910 121.5948600
 131.0257640 137.3486810 120.4141740 128.6115770 133.8160000 127.1149330
 129.2487990 134.4294140 127.4808520 128.7590660 133.8520660 126.1698560
 131.1540320 135.7073790 113.8972470 132.0789630 135.5754970 113.6890760
 131.1316110 135.7866610 114.8508920 131.2278810 136.4784450 116.5229180
 130.4330310 136.4129570 117.0522090 131.4322090 137.4135090 116.5114530
 128.1697230 150.5176000 120.5167570 128.7656300 150.1960570 119.8401990
 128.4275380 150.0447820 121.3080840 114.4695430 133.7774310 126.5005010
 114.1210250 134.2338130 127.2663190 114.1383130 132.8831440 126.5827440
 116.0759800 146.9493910 130.6658200 116.0329430 146.5786820 131.5472660
 116.2070810 147.8871480 130.8060020 119.7765830 148.5053500 126.2667920
 119.5357190 148.7728060 125.3798440 120.7168470 148.6759230 126.3218780
 121.9820250 134.9686190 130.0224430 121.9209140 135.5608020 130.7719840
 122.9220630 134.8612150 129.8774690 124.6194810 134.6256250 129.6616720
 125.2335220 134.9435540 128.9997800 125.1644370 134.1404840 130.2812580
 131.0369990 150.5247880 127.0678560 130.5428270 150.9216750 126.3505690
 130.4283280 149.8997090 127.4615840 115.1416070 133.3050510 129.7755780
 115.6899060 133.1238560 129.0121890 115.2071380 132.5144620 130.3112090
 115.9147830 149.8956160 127.7855980 115.3208150 149.7640860 128.5246020
 115.9071670 149.0594300 127.3198080 125.3602850 133.1888390 125.9886010
 124.4862690 133.5223500 125.7858940 125.2513600 132.7161570 126.8137880
 126.2674830 135.3959260 127.3727730 125.9388190 134.5811020 126.9929460
 127.2157130 135.3529070 127.2493420 115.5460060 147.2614540 126.7364020
 114.8194120 146.6419830 126.6689970 115.6069210 147.6555150 125.8662100
 119.1505160 149.4759540 123.5213430 119.6670180 148.8646900 122.9961690
 119.8002540 149.9788320 124.0124440 121.8900660 150.3668030 124.3482410
 122.1778470 150.1122330 123.4715420 122.4023880 149.8145390 124.9387980
 123.1077670 134.1058230 124.9278920 122.3249460 134.5803730 125.2075680
 122.8140600 133.2013060 124.8192100 127.6598740 134.8081330 122.9728010
 128.1006830 134.7526430 122.1249610 127.3906330 135.7239340 123.0438190
 129.5237310 134.4396570 120.9836830 129.4625710 133.4957790 120.8367850
 130.3029340 134.5476660 121.5290290 113.8290060 150.5788930 119.9460780
 113.6612100 149.9459610 120.6442670 112.9624570 150.7848330 119.5954970
 114.4518080 134.4105710 117.4492640 115.2097440 134.5234590 116.8756670
 113.9895250 135.2474910 117.4036070 120.9931890 136.5244980 120.4394950
 120.1806400 136.1501870 120.0990830 121.4973530 135.7690060 120.7416140
 125.4956870 133.1887430 121.6778020 126.0986240 133.7607640 122.1526540
 124.7549860 133.7526870 121.4551920 128.6391470 133.5908990 116.9518300
 128.8342100 134.4892440 117.2185730 127.8521340 133.3596070 117.4451250
 115.4352760 149.2722160 117.3910920 114.9100380 149.6530190 116.6872880
 115.3597340 149.8972930 118.1120630 116.8243230 134.9369760 115.9894610
 117.3535990 134.1499560 115.8602560 117.4571550 135.6160950 116.2230140
 119.0181070 134.6744900 119.0440000 118.3883810 133.9732210 119.2110130
 118.4786210 135.4349030 118.8273160 130.1918080 150.8309700 118.7124860
 130.3670270 150.1447440 118.0685780 129.4939650 151.3556750 118.3201530
 119.1436630 133.9528880 131.4792490 118.8620900 134.4562480 130.7153310
 119.5256330 133.1550630 131.1134620 118.0345730 151.2204540 116.2660170
 118.7664550 150.9363820 115.7184060 118.2939400 150.9817820 117.1559550
 117.1960520 147.3369270 116.2706500 116.5669400 147.8054370 116.8192330
 117.3108350 146.4918490 116.7052690 125.7452090 133.3682460 132.0572960
 125.6317540 133.6877070 132.9524480 126.5621830 133.7694970 131.7610240
 128.5250580 150.5153990 131.5391650 129.3175900 150.0203220 131.3317610
 128.8183730 151.1944130 132.1467260 124.6510240 141.3874930 102.4207700
 124.5704290 140.4729540 102.1499410 124.2374660 141.8842000 101.7147410
 122.7828280 143.1653950 104.3016970 122.0070380 142.6854390 104.5915540
 123.4341210 142.4859600 104.1273130 116.7994110 143.4773760 105.1792730
 115.9678990 143.2222470 105.5789240 117.4075090 143.5484530 105.9150650
 126.8035710 147.5714140 103.0816100 126.3417240 146.8001380 103.4103270
 127.6161260 147.5980210 103.5868550 116.7795370 147.5113850 105.3750750
 117.0823410 146.6211590 105.1960970 117.5238960 148.0684070 105.1473000
 115.2086060 138.4375650  98.9635120 114.3202760 138.7791620  98.8615000
 115.4927250 138.2375970  98.0715950 113.1719070 141.0381300 104.8474820
 113.7435180 140.2703500 104.8478460 113.1720610 141.3370060 103.9381430
 123.0299020 149.8572150 102.7020090 122.4110460 150.3129650 102.1314530
 123.8850800 150.0123610 102.3009790 122.2237270 145.8411140 104.3087130
 122.1545550 144.9001080 104.1476260 122.9857130 145.9312550 104.8809700
 114.4143940 136.4465660 106.6343750 114.2346780 135.5491410 106.9146510
 114.0124020 136.9937530 107.3090700 123.2542440 138.6481520 104.5356060
 123.6307260 137.7753400 104.4229730 123.1561950 138.9840220 103.6446500
 117.3847450 137.0207150  99.9973500 117.4914200 137.9210880 100.3042260
 116.4739810 136.9725120  99.7068150 127.0366560 136.1431960 101.4684400
 127.8576180 135.6528530 101.5109880 127.0700640 136.7329620 102.2216240
 115.0330610 138.9426160 105.2426090 115.7140720 139.2064530 105.8613490
 114.7178660 138.1027030 105.5764100 119.2255180 139.9893520 104.3298680
 119.7333400 140.4874490 104.9703700 119.7568420 139.2128720 104.1538040
 131.3266110 138.1598710 108.0328030 130.6218280 138.5480420 107.5143140
 131.5924030 138.8549000 108.6348960 117.5091280 134.6292080 108.5962100
 117.5109720 135.1464470 107.7908000 116.6795590 134.1522260 108.5732030
 123.8962370 144.7411390 100.0952000 123.2779640 145.2060840  99.5314720
 124.4085620 145.4338870 100.5121510 118.7594130 144.2687260 106.7735600
 118.4263510 144.8956180 107.4156670 118.9360810 144.7949140 105.9937270
 127.2728040 138.0832340 104.2411940 126.5683610 138.3717230 104.8215050
 127.6340200 138.8932450 103.8811500 117.1906610 136.3402040 106.6032550
 117.5323420 137.1844090 106.3086420 116.2522420 136.4885780 106.7197890
 117.9713230 146.2368060 108.5884780 118.5887230 146.9119140 108.3069230
 117.1106350 146.6456040 108.4972280 113.2645570 145.4267920  97.4691630
 112.8873550 145.9155020  96.7376530 113.5218640 146.0993200  98.0998160
 128.8890820 147.7007470 106.5039420 128.2054340 148.3706580 106.4956090
 129.4285110 147.8988120 105.7384280 130.3414960 137.5287130 104.6321150
 129.3939870 137.5626110 104.7636580 130.6664950 138.3426080 105.0170510
 120.8734500 133.8284310 102.9277140 121.1809480 133.2731200 102.2112640
 119.9435200 133.9628770 102.7450130 126.4249560 149.5451600 105.2184600
 126.4376720 149.1413890 104.3506860 125.8724780 150.3198890 105.1146030
 127.7194980 146.2667820 100.3074770 127.6091310 145.3242150 100.4324190
 127.7163230 146.6283460 101.1937530 125.8235000 144.4481440 106.5467210
 126.2403790 144.2341550 105.7120670 126.5474820 144.7054230 107.1175830
 123.2615260 141.8933140  99.6637260 122.3344540 141.8270520  99.8925730
 123.4140080 142.8313270  99.5492500 123.2484340 138.1650140  96.6604420
 122.3088010 138.3264100  96.7456880 123.5667600 138.8835820  96.1140410
 129.7697100 142.8468660 106.6383450 128.9415730 142.9161750 106.1633580
 130.3647580 143.4322970 106.1699280 127.2912550 143.4553440 100.1672510
 126.6724970 143.1172990  99.5198810 127.2737000 142.8113200 100.8751700
 126.7339110 139.6337980 107.5838320 126.3210290 140.4591690 107.8378310
 126.0015060 139.0483020 107.3914680 118.8671900 142.4197880 102.4456990
 118.4628900 141.7075130 101.9502890 118.9535020 142.0751120 103.3345030
 119.3353600 146.1065440 104.6096200 119.0381890 145.5010910 103.9303980
 120.2853420 146.1442750 104.4985560 117.5800520 139.1941090 106.2256030
 118.1315110 139.3036430 105.4509280 118.0944030 139.5678690 106.9411260
 127.4239210 149.6797310 108.2719300 126.9469770 150.4869500 108.0791910
 126.7401000 149.0275640 108.4245510 118.4272030 145.8447130 111.2604000
 117.5300560 146.0687100 111.5077400 118.4524900 145.9682070 110.3115400
 125.4677250 142.6940250  97.1745260 125.9070530 141.8562680  97.0283080
 126.1805670 143.3269650  97.2609400 117.2543250 142.7160450 109.8361370
 117.1151020 143.5883250 110.2048770 116.3724610 142.3733260 109.6909310
 123.5772630 147.6336320 101.1426500 124.0168540 148.3760650 100.7281890
 123.5159520 147.8762890 102.0665460 119.0523600 148.6582150 112.0446520
 119.0239030 149.0625100 111.1774950 118.8888570 147.7292510 111.8818120
 129.0494390 133.9483060  95.4886300 128.7367050 134.0409890  96.3885370
 129.8106860 134.5264090  95.4383730 115.5676530 141.3142860  99.9463640
 115.4474130 142.0404950  99.3344910 115.2577420 140.5445770  99.4691550
 131.0038420 149.4409250 113.3410690 131.4798140 149.9192140 114.0199770
 131.6245580 149.3726740 112.6156190 113.2061900 144.4858000 105.7532280
 113.2842320 144.6206770 104.8088000 113.8203580 143.7773890 105.9460400
 114.4509530 146.1858190 102.1638460 114.0437610 146.3272780 101.3092060
 115.3422540 145.9018350 101.9609670 130.4071670 146.6322100 110.5010700
 130.5334730 146.3933980 109.5827880 130.4493050 145.8006640 110.9732780
 124.2688410 150.3350100 109.0705510 124.7833080 150.2458110 109.8727940
 123.4257490 150.6809800 109.3633420 126.2442810 150.6205440  98.4989510
 126.0843950 150.3308380  99.3971340 126.0789520 149.8445570  97.9634740
 118.7231190 150.4003970 100.2761130 118.5473670 149.4839510 100.0628930
 117.8686930 150.7591260 100.5158930 125.9468940 148.1293000  97.0587510
 125.2534100 148.1270290  96.3989790 126.6891800 147.7052320  96.6281680
 125.5118870 149.7555710 101.1336000 125.9675820 148.9745090 101.4474620
 125.8511390 150.4662530 101.6777180 130.2595680 138.6854560 111.4660440
 129.6439950 139.1934230 110.9375900 129.9392100 137.7852890 111.4086380
 113.2621420 145.5272170 108.2926740 113.4252460 145.0577530 107.4746110
 113.7273870 145.0195730 108.9575580 118.0340190 134.6577930 103.3287310
 117.5908340 135.4387470 102.9971830 118.5925180 134.9807820 104.0358250
 122.3210000 137.5246450 108.9322630 121.8589370 137.7329470 109.7442570
 121.9188110 136.7105800 108.6293300 127.3214510 138.7455400 110.0619290
 126.4708100 138.4461150 110.3828360 127.1616300 138.9897410 109.1503110
 124.4164220 140.2457150 112.1618080 124.7417630 139.4120900 111.8220310
 125.2044550 140.7685670 112.3096410 121.1499010 134.2788630  98.2093140
 120.5253190 134.2748500  98.9346450 121.0629130 133.4119590  97.8129110
 120.0716090 135.2025260 105.1876910 120.3688420 136.1088090 105.1068930
 120.6201650 134.7144040 104.5736480 117.8254410 139.7811500 101.0568560
 117.5995330 139.5648670 101.9615180 117.0446940 140.2139960 100.7114530
 125.0552170 139.7874870  99.6559210 124.4561060 140.5110670  99.4722830
 125.6031780 139.7251650  98.8735660 120.2653620 140.6797080 111.7228830
 120.1697220 139.7391810 111.5729230 121.1085600 140.9012150 111.3276900
 123.6617040 138.4238410 101.6862490 124.0546610 138.7410610 100.8731180
 124.0233890 137.5450290 101.8007010 115.3964160 137.0910750 109.8762610
 115.0027550 137.9385960 110.0835390 114.7082560 136.4537120 110.0671250
 121.9709210 137.1745720 112.9459350 121.2807530 136.9817920 113.5805440
 122.7141510 137.4580360 113.4783650 112.6981210 135.0139210 103.9092690
 112.4094260 135.5842070 104.6217670 113.4426970 134.5343660 104.2723920
 112.8851440 138.9559330  95.1195410 112.8026110 139.8990090  95.2610400
 112.5334500 138.8134240  94.2407760 124.2472180 141.0144160 105.7813270
 123.5153300 141.5230970 106.1303370 123.8496520 140.1974140 105.4802050
 120.6849570 137.6898360 104.1865760 120.6885630 137.2488310 103.3370300
 121.5800690 138.0115690 104.2937580 116.5351950 137.5724850 103.1459970
 116.1952000 138.0500080 103.9027020 115.7729270 137.1189970 102.7861070
 120.7469720 138.6910440  97.1772520 120.8682540 138.6496920  98.1258340
 120.3618230 139.5534590  97.0219250 124.7098090 136.4677840 105.1936210
 124.7270830 136.9186490 106.0378060 124.4613670 135.5683480 105.4069650
 119.7591220 141.0011580  96.5755820 119.1908120 140.5529830  95.9491730
 120.4680220 141.3604360  96.0420970 128.1368840 133.8810020 111.0322590
 128.4614610 133.1499680 111.5580570 128.1725350 133.5623660 110.1303580
 114.8360400 144.9023600 110.4522550 114.4515190 144.2617270 111.0505510
 115.1472590 145.6059720 111.0217280 120.9857540 141.7500140 105.9331170
 121.3527670 141.2758710 106.6792510 120.7962600 142.6241710 106.2739510
 113.8498030 136.4943830 102.0624640 113.5644950 136.1299500 102.9003260
 113.7876890 135.7624290 101.4487780 118.7756910 140.7908780 108.2515380
 118.4713980 141.6700760 108.4765740 119.7303370 140.8508570 108.2872820
 117.3038700 144.9969770  98.8482230 116.5300960 144.4567390  98.6880950
 118.0333330 144.4776380  98.5099990 128.0626680 143.9935130 104.6408620
 128.7825800 144.4890420 104.2504730 127.8608500 143.3153020 103.9962490
 123.5236620 135.3873090  98.7838010 122.7101230 134.8886260  98.7083320
 123.3298570 136.2271340  98.3674360 123.4445480 144.0644190 110.5277620
 123.3782790 143.1439860 110.2735210 122.8150620 144.1619630 111.2422260
 126.2385010 139.7592740  97.0800170 127.1264630 140.0709970  96.9051510
 126.2090100 138.8864990  96.6880750 117.3476100 144.6650150 102.4861040
 117.8654770 143.8618410 102.4317930 116.8960120 144.6029290 103.3277870
 122.2345600 145.9316430  97.7588340 122.5761300 146.6758660  97.2631660
 121.4058310 146.2447550  98.1213170 114.8320640 141.6311520 109.3986740
 114.4735580 142.2965370 109.9860080 114.5375200 140.7995070 109.7699360
 118.0333760 142.0895760 112.2826290 117.7333900 142.2352940 111.3854110
 118.8045000 141.5301050 112.1899680 123.3762210 146.8864760 110.2781420
 123.3906750 145.9545720 110.0600330 122.6687310 146.9724520 110.9171190
 128.5099280 141.0704580  96.5480030 128.4263000 141.5018800  95.6976470
 129.2293470 141.5302930  96.9806850 129.5873420 143.5272100 109.6250000
 128.8621610 144.1200880 109.4279390 130.1148880 143.5195640 108.8263370
 129.5386530 147.9246840  99.2762160 128.8962690 147.2702460  99.5505880
 129.1517190 148.3301930  98.5002830 125.1173010 145.2532270 103.1233850
 125.4696830 144.6560400 102.4635220 124.2335340 144.9276500 103.2942100
 121.2036290 146.0129960 100.5304260 121.8907420 146.5599170 100.9111850
 120.4168710 146.5570690 100.5653870 113.3428690 141.6302780  96.0221340
 114.2123540 141.9127580  96.3057260 112.8519010 142.4438650  95.9070150
 120.5063500 143.0175990 100.1429620 120.9626280 143.8281240 100.3689810
 120.1551710 142.6999130 100.9748110 122.8096110 148.5282330 107.3721920
 123.4538330 148.7341710 108.0495340 123.1725550 147.7670730 106.9192770
 116.4075280 133.3613640 100.6152140 116.2789910 133.3531540 101.5637060
 115.5837300 133.6996730 100.2643150 124.0828190 146.5314680 106.0899370
 124.7250420 145.8307840 106.2031540 124.6077540 147.3113120 105.9096260
 127.9283910 146.8163300  95.8138510 127.7021490 146.0993740  96.4063150
 127.5380110 146.5675740  94.9760260 125.8565810 147.3309580 109.2935430
 126.1922050 147.9176270 109.9713350 124.9366150 147.2002290 109.5233220
 113.7099940 150.8430160  96.5882970 114.0697580 151.4419500  95.9340240
 113.5692280 151.3890050  97.3618000 113.4069210 135.1204760 110.0758840
 112.6927730 135.3201680 110.6811450 113.8264250 134.3444330 110.4473640
 127.5100160 144.7335240  97.4752670 127.2221860 145.1947930  98.2630550
 128.3052330 144.2733010  97.7436890 113.6941800 149.1085020 111.0625370
 113.8032920 148.1679760 110.9220760 113.0422360 149.3739770 110.4139100
 121.6854390 147.3800910 112.4623490 121.3651260 146.6610150 113.0069180
 121.0112750 148.0555980 112.5359550 119.7268560 148.2261360  97.4056640
 119.7178660 148.9591050  96.7901150 118.8066920 147.9792940  97.4983600
 115.3275200 143.4476250  98.1503400 114.7203150 144.1875150  98.1598700
 115.8024550 143.5375610  97.3241600 124.9007990 137.6127070 107.8260290
 125.2688810 136.7922280 108.1539860 124.0406190 137.6728960 108.2415940
 128.2670020 136.5684010  98.6347850 127.6383180 136.6729680  97.9206080
 127.7721940 136.7880790  99.4241730 122.7128160 148.2889600  96.0681830
 122.8140140 148.0853590  95.1383810 121.8129900 148.0347880  96.2729610
 120.2354050 138.8469960 100.0505730 119.5270200 139.3156300 100.4919340
 120.5198530 138.1891970 100.6850920 121.8609980 140.2666660 108.0498260
 122.3595230 140.7412480 108.7150110 122.0032930 139.3430180 108.2568290
 124.2669480 135.5720620 101.4901520 124.1437260 135.5906750 100.5411030
 125.2154040 135.6199560 101.6099920 121.3546270 150.8075920 100.7629500
 121.6087770 150.7697310  99.8408870 120.4058750 150.6809250 100.7557750
 118.4389070 137.1555040  97.4256440 119.2879600 137.5925190  97.3596630
 118.0720340 137.4675300  98.2528500 129.0676840 136.4834620 108.8926650
 128.5650440 137.2240020 109.2320460 129.8833500 136.8718620 108.5763440
 127.3598850 141.7267800 102.3388010 126.4188990 141.7418030 102.5135700
 127.6742920 140.9403760 102.7848310 117.3380490 143.4087400  95.8991970
 118.1043760 143.2968760  96.4617400 117.4155180 142.7125370  95.2468740
 116.0327250 140.8412470  96.5824860 116.1130840 139.8939980  96.6942260
 116.9247000 141.1719350  96.6885520 129.3624430 148.8976650 104.0142270
 129.4871850 149.7207820 104.4866080 130.2289990 148.6867380 103.6666420
 113.7187440 147.0581430  99.5600910 112.7927220 147.3002570  99.5506320
 114.1843870 147.8855690  99.4385660 115.8400240 150.1753930 112.8744980
 116.6412970 150.4965980 113.2880380 115.3252060 149.8149510 113.5964890
 119.9444270 150.1638170  95.5084970 120.7372880 150.4527000  95.0566760
 119.4248620 149.7330340  94.8297450 124.6764870 146.2833800 112.8220390
 124.0703030 146.3065400 112.0816140 124.3718980 145.5516840 113.3587640
 126.1065240 150.0114090 111.4329800 127.0586990 149.9272110 111.3830040
 125.9593460 150.6755800 112.1063590 128.9974440 149.3908300  96.9321710
 128.7115950 148.9773440  96.1175890 128.7993990 150.3196010  96.8122230
 113.5598050 142.6627390 111.8181030 114.0637070 142.0834670 112.3897260
 112.8205470 142.9467620 112.3557400 120.4621670 145.3841580  95.3727320
 120.3572310 144.7693930  96.0988700 120.2945890 144.8607470  94.5890330
 120.6135990 144.0698380 111.3516550 119.8481660 144.6383380 111.2671220
 120.7951950 143.7774590 110.4584780 123.7024400 144.4461610  95.9769310
 123.1534500 144.8930910  96.6212050 124.3243660 143.9410860  96.5006980
 127.7559340 145.8003710 111.9091570 128.4968810 146.1379470 111.4059030
 126.9932020 145.9695770 111.3561340 115.5921130 140.8056980 112.7131100
 115.6326470 140.5070850 113.6216330 116.4466630 141.2064590 112.5538620
 119.3699520 143.4052530  97.8734610 119.7915940 143.2392400  98.7166000
 119.4950360 142.5952760  97.3789750 117.5326940 139.3849080 110.6805590
 117.0023400 138.8940030 110.0528930 118.2015010 139.8133280 110.1463520
 121.8827160 142.4290140  95.1211710 122.4032820 141.7139160  94.7552860
 122.5295560 143.0676010  95.4212220 126.4305000 143.8518540 110.4446780
 126.8446020 144.0063620 111.2937200 125.4956000 143.9773760 110.6072560
 126.9027170 141.1914700 112.4485930 127.4847940 140.4367020 112.3606410
 127.0788940 141.7222140 111.6717410 118.0199240 136.3511450 110.7602880
 117.9256110 135.7332200 110.0353750 117.4396630 137.0777740 110.5332790
 120.7860680 134.9084690 107.7930270 120.3377980 134.9308950 106.9475820
 120.1525880 134.5103710 108.3900570 121.1920230 143.8039020 108.4142710
 121.6108340 144.6471750 108.2418950 120.2728860 143.9411060 108.1849490
 123.5284130 141.5355200 109.7980550 123.6480340 140.9396340 110.5375390
 124.3878130 141.5724890 109.3781850 125.8672030 142.0892390 108.3743060
 125.3407250 142.6135010 107.7708200 126.2103370 142.7219780 109.0052790
 118.2658420 139.4785760  94.8192770 118.0647480 138.6153120  95.1806110
 118.0950470 139.3919120  93.8814370 119.0427650 150.1092030 109.5300440
 118.5048740 150.8338090 109.2109140 119.2961610 149.6322370 108.7397780
 120.2952900 138.0776550 111.0556370 120.8852590 137.7692400 111.7434190
 119.4773140 137.6056300 111.2116270 125.1146330 137.6942360 111.2889390
 124.4261850 137.0323900 111.2239380 125.8352350 137.2480630 111.7337850
 125.7446730 134.2893990  97.3479650 126.0249020 133.4461890  97.7039070
 124.9712460 134.5217100  97.8618400 117.0641220 136.5786380  94.8070650
 117.3667120 136.5853810  93.8989800 117.8035810 136.2284240  95.3038310
 120.2826150 135.5221000  95.7926850 119.9348150 134.8444990  95.2129300
 120.4838920 135.0610510  96.6070240 122.4475190 150.5101750  97.4113450
 123.3425980 150.8486720  97.4332210 122.4792820 149.7881160  96.7837730
 116.0871350 145.8828800  95.6400450 116.5246220 146.4258470  96.2958030
 116.5719080 145.0575750  95.6496790 113.3017150 148.6717830 103.0920710
 113.6320160 147.8038890 102.8599350 113.7308150 148.8776350 103.9225670
 117.8979070 147.0026840 100.7522680 117.5974610 146.8791810 101.6526590
 117.7916560 146.1435430 100.3438410 113.7907360 149.5388420 105.8302340
 113.3538350 149.7189220 106.6626490 114.3585040 150.2963040 105.6884060
 129.4269540 149.0405420 110.1179650 128.8271530 149.0997980 109.3743570
 129.5563440 148.1010400 110.2476500 130.6670990 146.7823240  95.4549360
 129.8363950 146.8499890  95.9256590 130.8442820 147.6727360  95.1516220
 130.1227450 143.5270720  97.9583560 130.8846360 144.0967370  98.0643250
 130.1381820 142.9597920  98.7291870 113.6231790 142.0508650 102.1891220
 112.9680630 141.7820290 101.5450920 114.4609740 141.9413130 101.7393200
 131.1287420 144.3820820 102.8025490 131.4996250 143.5988140 102.3961460
 131.7689350 145.0709920 102.6242790 128.1121180 145.7657400 108.2155810
 127.2981020 146.1954560 108.4781600 128.5195380 146.3775810 107.6024860
 130.1746620 143.8205090  95.1156080 130.4495460 144.7283970  94.9875300
 129.9857360 143.7567620  96.0518070 126.5722230 136.8449940  96.4109710
 126.9907110 136.6580920  95.5706370 126.2658290 135.9928990  96.7212640
 130.0711960 141.7574080 100.1085510 129.6955560 140.9902010  99.6766800
 129.3415080 142.1396780 100.5960440 114.6607720 142.4361220 106.7294560
 115.0280760 142.3488620 107.6090580 114.0918540 141.6727770 106.6301420
 129.4611580 140.9045600 109.7425030 129.2297670 140.6758350 108.8422980
 129.7216130 141.8245150 109.6969920 114.2123720 139.3470310 110.6352980
 113.3179770 139.3137070 110.9746690 114.7521270 139.5457100 111.4004230
 127.8999650 136.1302030 112.5204730 128.7769830 136.1385430 112.9038730
 127.9120490 135.3932870 111.9097080 112.8369870 139.2607580  98.1316550
 111.9333950 139.5237780  97.9568210 113.3210490 139.5318750  97.3516510
 129.3462920 139.9831570 103.4092750 129.8700400 139.4894220 102.7782920
 129.9322340 140.1181930 104.1540320 129.5252640 140.0671440 106.9312300
 128.5755350 140.0334980 107.0457290 129.7065650 140.9771550 106.6962070
 115.3797080 138.3173120  96.0410930 116.0888780 137.8956340  95.5558210
 114.6637020 138.3848350  95.4094280 115.0271240 134.3712450  95.0813580
 115.7499370 134.9121390  95.3994800 115.2995760 134.0975870  94.2055120
 128.8362890 139.2404920  99.3485160 129.3322010 139.0075790 100.1334040
 128.6378960 138.4016760  98.9322800 114.7163430 133.6218640 104.9836200
 115.3639620 133.0716020 104.5431360 115.1365270 133.8761790 105.8052010
 130.2650050 137.8765870 101.8822840 130.1549330 137.7221910 102.8205110
 131.0257640 137.3486810 101.6398250 128.6115770 133.8160000 108.3405840
 129.2487990 134.4294140 108.7065030 128.7590660 133.8520660 107.3955070
 131.1540320 135.7073790  95.1228980 132.0789630 135.5754970  94.9147270
 131.1316110 135.7866610  96.0765430 131.2278810 136.4784450  97.7485690
 130.4330310 136.4129570  98.2778600 131.4322090 137.4135090  97.7371040
 128.1697230 150.5176000 101.7424080 128.7656300 150.1960570 101.0658500
 128.4275380 150.0447820 102.5337350 114.4695430 133.7774310 107.7261520
 114.1210250 134.2338130 108.4919700 114.1383130 132.8831440 107.8083950
 116.0759800 146.9493910 111.8914710 116.0329430 146.5786820 112.7729170
 116.2070810 147.8871480 112.0316530 119.7765830 148.5053500 107.4924430
 119.5357190 148.7728060 106.6054950 120.7168470 148.6759230 107.5475290
 121.9820250 134.9686190 111.2480940 121.9209140 135.5608020 111.9976350
 122.9220630 134.8612150 111.1031200 124.6194810 134.6256250 110.8873230
 125.2335220 134.9435540 110.2254310 125.1644370 134.1404840 111.5069090
 131.0369990 150.5247880 108.2935070 130.5428270 150.9216750 107.5762200
 130.4283280 149.8997090 108.6872350 115.1416070 133.3050510 111.0012290
 115.6899060 133.1238560 110.2378400 115.2071380 132.5144620 111.5368600
 115.9147830 149.8956160 109.0112490 115.3208150 149.7640860 109.7502530
 115.9071670 149.0594300 108.5454590 125.3602850 133.1888390 107.2142520
 124.4862690 133.5223500 107.0115450 125.2513600 132.7161570 108.0394390
 126.2674830 135.3959260 108.5984240 125.9388190 134.5811020 108.2185970
 127.2157130 135.3529070 108.4749930 115.5460060 147.2614540 107.9620530
 114.8194120 146.6419830 107.8946480 115.6069210 147.6555150 107.0918610
 119.1505160 149.4759540 104.7469940 119.6670180 148.8646900 104.2218200
 119.8002540 149.9788320 105.2380950 121.8900660 150.3668030 105.5738920
 122.1778470 150.1122330 104.6971930 122.4023880 149.8145390 106.1644490
 123.1077670 134.1058230 106.1535430 122.3249460 134.5803730 106.4332190
 122.8140600 133.2013060 106.0448610 127.6598740 134.8081330 104.1984520
 128.1006830 134.7526430 103.3506120 127.3906330 135.7239340 104.2694700
 129.5237310 134.4396570 102.2093340 129.4625710 133.4957790 102.0624360
 130.3029340 134.5476660 102.7546800 113.8290060 150.5788930 101.1717290
 113.6612100 149.9459610 101.8699180 112.9624570 150.7848330 100.8211480
 114.4518080 134.4105710  98.6749150 115.2097440 134.5234590  98.1013180
 113.9895250 135.2474910  98.6292580 120.9931890 136.5244980 101.6651460
 120.1806400 136.1501870 101.3247340 121.4973530 135.7690060 101.9672650
 125.4956870 133.1887430 102.9034530 126.0986240 133.7607640 103.3783050
 124.7549860 133.7526870 102.6808430 128.6391470 133.5908990  98.1774810
 128.8342100 134.4892440  98.4442240 127.8521340 133.3596070  98.6707760
 115.4352760 149.2722160  98.6167430 114.9100380 149.6530190  97.9129390
 115.3597340 149.8972930  99.3377140 116.8243230 134.9369760  97.2151120
 117.3535990 134.1499560  97.0859070 117.4571550 135.6160950  97.4486650
 119.0181070 134.6744900 100.2696510 118.3883810 133.9732210 100.4366640
 118.4786210 135.4349030 100.0529670 130.1918080 150.8309700  99.9381370
 130.3670270 150.1447440  99.2942290 129.4939650 151.3556750  99.5458040
 119.1436630 133.9528880 112.7049000 118.8620900 134.4562480 111.9409820
 119.5256330 133.1550630 112.3391130 118.0345730 151.2204540  97.4916680
 118.7664550 150.9363820  96.9440570 118.2939400 150.9817820  98.3816060
 117.1960520 147.3369270  97.4963010 116.5669400 147.8054370  98.0448840
 117.3108350 146.4918490  97.9309200 125.7452090 133.3682460 113.2829470
 125.6317540 133.6877070 114.1780990 126.5621830 133.7694970 112.9866750
 128.5250580 150.5153990 112.7648160 129.3175900 150.0203220 112.5574120
 128.8183730 151.1944130 113.3723770 124.6510240 141.3874930  83.6464210
 124.5704290 140.4729540  83.3755920 124.2374660 141.8842000  82.9403920
 122.7828280 143.1653950  85.5273480 122.0070380 142.6854390  85.8172050
 123.4341210 142.4859600  85.3529640 116.7994110 143.4773760  86.4049240
 115.9678990 143.2222470  86.8045750 117.4075090 143.5484530  87.1407160
 126.8035710 147.5714140  84.3072610 126.3417240 146.8001380  84.6359780
 127.6161260 147.5980210  84.8125060 116.7795370 147.5113850  86.6007260
 117.0823410 146.6211590  86.4217480 117.5238960 148.0684070  86.3729510
 115.2086060 138.4375650  80.1891630 114.3202760 138.7791620  80.0871510
 115.4927250 138.2375970  79.2972460 113.1719070 141.0381300  86.0731330
 113.7435180 140.2703500  86.0734970 113.1720610 141.3370060  85.1637940
 123.0299020 149.8572150  83.9276600 122.4110460 150.3129650  83.3571040
 123.8850800 150.0123610  83.5266300 122.2237270 145.8411140  85.5343640
 122.1545550 144.9001080  85.3732770 122.9857130 145.9312550  86.1066210
 114.4143940 136.4465660  87.8600260 114.2346780 135.5491410  88.1403020
 114.0124020 136.9937530  88.5347210 123.2542440 138.6481520  85.7612570
 123.6307260 137.7753400  85.6486240 123.1561950 138.9840220  84.8703010
 117.3847450 137.0207150  81.2230010 117.4914200 137.9210880  81.5298770
 116.4739810 136.9725120  80.9324660 127.0366560 136.1431960  82.6940910
 127.8576180 135.6528530  82.7366390 127.0700640 136.7329620  83.4472750
 115.0330610 138.9426160  86.4682600 115.7140720 139.2064530  87.0870000
 114.7178660 138.1027030  86.8020610 119.2255180 139.9893520  85.5555190
 119.7333400 140.4874490  86.1960210 119.7568420 139.2128720  85.3794550
 131.3266110 138.1598710  89.2584540 130.6218280 138.5480420  88.7399650
 131.5924030 138.8549000  89.8605470 117.5091280 134.6292080  89.8218610
 117.5109720 135.1464470  89.0164510 116.6795590 134.1522260  89.7988540
 123.8962370 144.7411390  81.3208510 123.2779640 145.2060840  80.7571230
 124.4085620 145.4338870  81.7378020 118.7594130 144.2687260  87.9992110
 118.4263510 144.8956180  88.6413180 118.9360810 144.7949140  87.2193780
 127.2728040 138.0832340  85.4668450 126.5683610 138.3717230  86.0471560
 127.6340200 138.8932450  85.1068010 117.1906610 136.3402040  87.8289060
 117.5323420 137.1844090  87.5342930 116.2522420 136.4885780  87.9454400
 117.9713230 146.2368060  89.8141290 118.5887230 146.9119140  89.5325740
 117.1106350 146.6456040  89.7228790 113.2645570 145.4267920  78.6948140
 112.8873550 145.9155020  77.9633040 113.5218640 146.0993200  79.3254670
 128.8890820 147.7007470  87.7295930 128.2054340 148.3706580  87.7212600
 129.4285110 147.8988120  86.9640790 130.3414960 137.5287130  85.8577660
 129.3939870 137.5626110  85.9893090 130.6664950 138.3426080  86.2427020
 120.8734500 133.8284310  84.1533650 121.1809480 133.2731200  83.4369150
 119.9435200 133.9628770  83.9706640 126.4249560 149.5451600  86.4441110
 126.4376720 149.1413890  85.5763370 125.8724780 150.3198890  86.3402540
 127.7194980 146.2667820  81.5331280 127.6091310 145.3242150  81.6580700
 127.7163230 146.6283460  82.4194040 125.8235000 144.4481440  87.7723720
 126.2403790 144.2341550  86.9377180 126.5474820 144.7054230  88.3432340
 123.2615260 141.8933140  80.8893770 122.3344540 141.8270520  81.1182240
 123.4140080 142.8313270  80.7749010 123.2484340 138.1650140  77.8860930
 122.3088010 138.3264100  77.9713390 123.5667600 138.8835820  77.3396920
 129.7697100 142.8468660  87.8639960 128.9415730 142.9161750  87.3890090
 130.3647580 143.4322970  87.3955790 127.2912550 143.4553440  81.3929020
 126.6724970 143.1172990  80.7455320 127.2737000 142.8113200  82.1008210
 126.7339110 139.6337980  88.8094830 126.3210290 140.4591690  89.0634820
 126.0015060 139.0483020  88.6171190 118.8671900 142.4197880  83.6713500
 118.4628900 141.7075130  83.1759400 118.9535020 142.0751120  84.5601540
 119.3353600 146.1065440  85.8352710 119.0381890 145.5010910  85.1560490
 120.2853420 146.1442750  85.7242070 117.5800520 139.1941090  87.4512540
 118.1315110 139.3036430  86.6765790 118.0944030 139.5678690  88.1667770
 127.4239210 149.6797310  89.4975810 126.9469770 150.4869500  89.3048420
 126.7401000 149.0275640  89.6502020 118.4272030 145.8447130  92.4860510
 117.5300560 146.0687100  92.7333910 118.4524900 145.9682070  91.5371910
 125.4677250 142.6940250  78.4001770 125.9070530 141.8562680  78.2539590
 126.1805670 143.3269650  78.4865910 117.2543250 142.7160450  91.0617880
 117.1151020 143.5883250  91.4305280 116.3724610 142.3733260  90.9165820
 123.5772630 147.6336320  82.3683010 124.0168540 148.3760650  81.9538400
 123.5159520 147.8762890  83.2921970 119.0523600 148.6582150  93.2703030
 119.0239030 149.0625100  92.4031460 118.8888570 147.7292510  93.1074630
 129.0494390 133.9483060  76.7142810 128.7367050 134.0409890  77.6141880
 129.8106860 134.5264090  76.6640240 115.5676530 141.3142860  81.1720150
 115.4474130 142.0404950  80.5601420 115.2577420 140.5445770  80.6948060
 131.0038420 149.4409250  94.5667200 131.4798140 149.9192140  95.2456280
 131.6245580 149.3726740  93.8412700 113.2061900 144.4858000  86.9788790
 113.2842320 144.6206770  86.0344510 113.8203580 143.7773890  87.1716910
 114.4509530 146.1858190  83.3894970 114.0437610 146.3272780  82.5348570
 115.3422540 145.9018350  83.1866180 130.4071670 146.6322100  91.7267210
 130.5334730 146.3933980  90.8084390 130.4493050 145.8006640  92.1989290
 124.2688410 150.3350100  90.2962020 124.7833080 150.2458110  91.0984450
 123.4257490 150.6809800  90.5889930 126.2442810 150.6205440  79.7246020
 126.0843950 150.3308380  80.6227850 126.0789520 149.8445570  79.1891250
 118.7231190 150.4003970  81.5017640 118.5473670 149.4839510  81.2885440
 117.8686930 150.7591260  81.7415440 125.9468940 148.1293000  78.2844020
 125.2534100 148.1270290  77.6246300 126.6891800 147.7052320  77.8538190
 125.5118870 149.7555710  82.3592510 125.9675820 148.9745090  82.6731130
 125.8511390 150.4662530  82.9033690 130.2595680 138.6854560  92.6916950
 129.6439950 139.1934230  92.1632410 129.9392100 137.7852890  92.6342890
 113.2621420 145.5272170  89.5183250 113.4252460 145.0577530  88.7002620
 113.7273870 145.0195730  90.1832090 118.0340190 134.6577930  84.5543820
 117.5908340 135.4387470  84.2228340 118.5925180 134.9807820  85.2614760
 122.3210000 137.5246450  90.1579140 121.8589370 137.7329470  90.9699080
 121.9188110 136.7105800  89.8549810 127.3214510 138.7455400  91.2875800
 126.4708100 138.4461150  91.6084870 127.1616300 138.9897410  90.3759620
 124.4164220 140.2457150  93.3874590 124.7417630 139.4120900  93.0476820
 125.2044550 140.7685670  93.5352920 121.1499010 134.2788630  79.4349650
 120.5253190 134.2748500  80.1602960 121.0629130 133.4119590  79.0385620
 120.0716090 135.2025260  86.4133420 120.3688420 136.1088090  86.3325440
 120.6201650 134.7144040  85.7992990 117.8254410 139.7811500  82.2825070
 117.5995330 139.5648670  83.1871690 117.0446940 140.2139960  81.9371040
 125.0552170 139.7874870  80.8815720 124.4561060 140.5110670  80.6979340
 125.6031780 139.7251650  80.0992170 120.2653620 140.6797080  92.9485340
 120.1697220 139.7391810  92.7985740 121.1085600 140.9012150  92.5533410
 123.6617040 138.4238410  82.9119000 124.0546610 138.7410610  82.0987690
 124.0233890 137.5450290  83.0263520 115.3964160 137.0910750  91.1019120
 115.0027550 137.9385960  91.3091900 114.7082560 136.4537120  91.2927760
 121.9709210 137.1745720  94.1715860 121.2807530 136.9817920  94.8061950
 122.7141510 137.4580360  94.7040160 112.6981210 135.0139210  85.1349200
 112.4094260 135.5842070  85.8474180 113.4426970 134.5343660  85.4980430
 112.8851440 138.9559330  76.3451920 112.8026110 139.8990090  76.4866910
 112.5334500 138.8134240  75.4664270 124.2472180 141.0144160  87.0069780
 123.5153300 141.5230970  87.3559880 123.8496520 140.1974140  86.7058560
 120.6849570 137.6898360  85.4122270 120.6885630 137.2488310  84.5626810
 121.5800690 138.0115690  85.5194090 116.5351950 137.5724850  84.3716480
 116.1952000 138.0500080  85.1283530 115.7729270 137.1189970  84.0117580
 120.7469720 138.6910440  78.4029030 120.8682540 138.6496920  79.3514850
 120.3618230 139.5534590  78.2475760 124.7098090 136.4677840  86.4192720
 124.7270830 136.9186490  87.2634570 124.4613670 135.5683480  86.6326160
 119.7591220 141.0011580  77.8012330 119.1908120 140.5529830  77.1748240
 120.4680220 141.3604360  77.2677480 128.1368840 133.8810020  92.2579100
 128.4614610 133.1499680  92.7837080 128.1725350 133.5623660  91.3560090
 114.8360400 144.9023600  91.6779060 114.4515190 144.2617270  92.2762020
 115.1472590 145.6059720  92.2473790 120.9857540 141.7500140  87.1587680
 121.3527670 141.2758710  87.9049020 120.7962600 142.6241710  87.4996020
 113.8498030 136.4943830  83.2881150 113.5644950 136.1299500  84.1259770
 113.7876890 135.7624290  82.6744290 118.7756910 140.7908780  89.4771890
 118.4713980 141.6700760  89.7022250 119.7303370 140.8508570  89.5129330
 117.3038700 144.9969770  80.0738740 116.5300960 144.4567390  79.9137460
 118.0333330 144.4776380  79.7356500 128.0626680 143.9935130  85.8665130
 128.7825800 144.4890420  85.4761240 127.8608500 143.3153020  85.2219000
 123.5236620 135.3873090  80.0094520 122.7101230 134.8886260  79.9339830
 123.3298570 136.2271340  79.5930870 123.4445480 144.0644190  91.7534130
 123.3782790 143.1439860  91.4991720 122.8150620 144.1619630  92.4678770
 126.2385010 139.7592740  78.3056680 127.1264630 140.0709970  78.1308020
 126.2090100 138.8864990  77.9137260 117.3476100 144.6650150  83.7117550
 117.8654770 143.8618410  83.6574440 116.8960120 144.6029290  84.5534380
 122.2345600 145.9316430  78.9844850 122.5761300 146.6758660  78.4888170
 121.4058310 146.2447550  79.3469680 114.8320640 141.6311520  90.6243250
 114.4735580 142.2965370  91.2116590 114.5375200 140.7995070  90.9955870
 118.0333760 142.0895760  93.5082800 117.7333900 142.2352940  92.6110620
 118.8045000 141.5301050  93.4156190 123.3762210 146.8864760  91.5037930
 123.3906750 145.9545720  91.2856840 122.6687310 146.9724520  92.1427700
 128.5099280 141.0704580  77.7736540 128.4263000 141.5018800  76.9232980
 129.2293470 141.5302930  78.2063360 129.5873420 143.5272100  90.8506510
 128.8621610 144.1200880  90.6535900 130.1148880 143.5195640  90.0519880
 129.5386530 147.9246840  80.5018670 128.8962690 147.2702460  80.7762390
 129.1517190 148.3301930  79.7259340 125.1173010 145.2532270  84.3490360
 125.4696830 144.6560400  83.6891730 124.2335340 144.9276500  84.5198610
 121.2036290 146.0129960  81.7560770 121.8907420 146.5599170  82.1368360
 120.4168710 146.5570690  81.7910380 113.3428690 141.6302780  77.2477850
 114.2123540 141.9127580  77.5313770 112.8519010 142.4438650  77.1326660
 120.5063500 143.0175990  81.3686130 120.9626280 143.8281240  81.5946320
 120.1551710 142.6999130  82.2004620 122.8096110 148.5282330  88.5978430
 123.4538330 148.7341710  89.2751850 123.1725550 147.7670730  88.1449280
 116.4075280 133.3613640  81.8408650 116.2789910 133.3531540  82.7893570
 115.5837300 133.6996730  81.4899660 124.0828190 146.5314680  87.3155880
 124.7250420 145.8307840  87.4288050 124.6077540 147.3113120  87.1352770
 127.9283910 146.8163300  77.0395020 127.7021490 146.0993740  77.6319660
 127.5380110 146.5675740  76.2016770 125.8565810 147.3309580  90.5191940
 126.1922050 147.9176270  91.1969860 124.9366150 147.2002290  90.7489730
 113.7099940 150.8430160  77.8139480 114.0697580 151.4419500  77.1596750
 113.5692280 151.3890050  78.5874510 113.4069210 135.1204760  91.3015350
 112.6927730 135.3201680  91.9067960 113.8264250 134.3444330  91.6730150
 127.5100160 144.7335240  78.7009180 127.2221860 145.1947930  79.4887060
 128.3052330 144.2733010  78.9693400 113.6941800 149.1085020  92.2881880
 113.8032920 148.1679760  92.1477270 113.0422360 149.3739770  91.6395610
 121.6854390 147.3800910  93.6880000 121.3651260 146.6610150  94.2325690
 121.0112750 148.0555980  93.7616060 119.7268560 148.2261360  78.6313150
 119.7178660 148.9591050  78.0157660 118.8066920 147.9792940  78.7240110
 115.3275200 143.4476250  79.3759910 114.7203150 144.1875150  79.3855210
 115.8024550 143.5375610  78.5498110 124.9007990 137.6127070  89.0516800
 125.2688810 136.7922280  89.3796370 124.0406190 137.6728960  89.4672450
 128.2670020 136.5684010  79.8604360 127.6383180 136.6729680  79.1462590
 127.7721940 136.7880790  80.6498240 122.7128160 148.2889600  77.2938340
 122.8140140 148.0853590  76.3640320 121.8129900 148.0347880  77.4986120
 120.2354050 138.8469960  81.2762240 119.5270200 139.3156300  81.7175850
 120.5198530 138.1891970  81.9107430 121.8609980 140.2666660  89.2754770
 122.3595230 140.7412480  89.9406620 122.0032930 139.3430180  89.4824800
 124.2669480 135.5720620  82.7158030 124.1437260 135.5906750  81.7667540
 125.2154040 135.6199560  82.8356430 121.3546270 150.8075920  81.9886010
 121.6087770 150.7697310  81.0665380 120.4058750 150.6809250  81.9814260
 118.4389070 137.1555040  78.6512950 119.2879600 137.5925190  78.5853140
 118.0720340 137.4675300  79.4785010 129.0676840 136.4834620  90.1183160
 128.5650440 137.2240020  90.4576970 129.8833500 136.8718620  89.8019950
 127.3598850 141.7267800  83.5644520 126.4188990 141.7418030  83.7392210
 127.6742920 140.9403760  84.0104820 117.3380490 143.4087400  77.1248480
 118.1043760 143.2968760  77.6873910 117.4155180 142.7125370  76.4725250
 116.0327250 140.8412470  77.8081370 116.1130840 139.8939980  77.9198770
 116.9247000 141.1719350  77.9142030 129.3624430 148.8976650  85.2398780
 129.4871850 149.7207820  85.7122590 130.2289990 148.6867380  84.8922930
 113.7187440 147.0581430  80.7857420 112.7927220 147.3002570  80.7762830
 114.1843870 147.8855690  80.6642170 115.8400240 150.1753930  94.1001490
 116.6412970 150.4965980  94.5136890 115.3252060 149.8149510  94.8221400
 119.9444270 150.1638170  76.7341480 120.7372880 150.4527000  76.2823270
 119.4248620 149.7330340  76.0553960 124.6764870 146.2833800  94.0476900
 124.0703030 146.3065400  93.3072650 124.3718980 145.5516840  94.5844150
 126.1065240 150.0114090  92.6586310 127.0586990 149.9272110  92.6086550
 125.9593460 150.6755800  93.3320100 128.9974440 149.3908300  78.1578220
 128.7115950 148.9773440  77.3432400 128.7993990 150.3196010  78.0378740
 113.5598050 142.6627390  93.0437540 114.0637070 142.0834670  93.6153770
 112.8205470 142.9467620  93.5813910 120.4621670 145.3841580  76.5983830
 120.3572310 144.7693930  77.3245210 120.2945890 144.8607470  75.8146840
 120.6135990 144.0698380  92.5773060 119.8481660 144.6383380  92.4927730
 120.7951950 143.7774590  91.6841290 123.7024400 144.4461610  77.2025820
 123.1534500 144.8930910  77.8468560 124.3243660 143.9410860  77.7263490
 127.7559340 145.8003710  93.1348080 128.4968810 146.1379470  92.6315540
 126.9932020 145.9695770  92.5817850 115.5921130 140.8056980  93.9387610
 115.6326470 140.5070850  94.8472840 116.4466630 141.2064590  93.7795130
 119.3699520 143.4052530  79.0991120 119.7915940 143.2392400  79.9422510
 119.4950360 142.5952760  78.6046260 117.5326940 139.3849080  91.9062100
 117.0023400 138.8940030  91.2785440 118.2015010 139.8133280  91.3720030
 121.8827160 142.4290140  76.3468220 122.4032820 141.7139160  75.9809370
 122.5295560 143.0676010  76.6468730 126.4305000 143.8518540  91.6703290
 126.8446020 144.0063620  92.5193710 125.4956000 143.9773760  91.8329070
 126.9027170 141.1914700  93.6742440 127.4847940 140.4367020  93.5862920
 127.0788940 141.7222140  92.8973920 118.0199240 136.3511450  91.9859390
 117.9256110 135.7332200  91.2610260 117.4396630 137.0777740  91.7589300
 120.7860680 134.9084690  89.0186780 120.3377980 134.9308950  88.1732330
 120.1525880 134.5103710  89.6157080 121.1920230 143.8039020  89.6399220
 121.6108340 144.6471750  89.4675460 120.2728860 143.9411060  89.4106000
 123.5284130 141.5355200  91.0237060 123.6480340 140.9396340  91.7631900
 124.3878130 141.5724890  90.6038360 125.8672030 142.0892390  89.5999570
 125.3407250 142.6135010  88.9964710 126.2103370 142.7219780  90.2309300
 118.2658420 139.4785760  76.0449280 118.0647480 138.6153120  76.4062620
 118.0950470 139.3919120  75.1070880 119.0427650 150.1092030  90.7556950
 118.5048740 150.8338090  90.4365650 119.2961610 149.6322370  89.9654290
 120.2952900 138.0776550  92.2812880 120.8852590 137.7692400  92.9690700
 119.4773140 137.6056300  92.4372780 125.1146330 137.6942360  92.5145900
 124.4261850 137.0323900  92.4495890 125.8352350 137.2480630  92.9594360
 125.7446730 134.2893990  78.5736160 126.0249020 133.4461890  78.9295580
 124.9712460 134.5217100  79.0874910 117.0641220 136.5786380  76.0327160
 117.3667120 136.5853810  75.1246310 117.8035810 136.2284240  76.5294820
 120.2826150 135.5221000  77.0183360 119.9348150 134.8444990  76.4385810
 120.4838920 135.0610510  77.8326750 122.4475190 150.5101750  78.6369960
 123.3425980 150.8486720  78.6588720 122.4792820 149.7881160  78.0094240
 116.0871350 145.8828800  76.8656960 116.5246220 146.4258470  77.5214540
 116.5719080 145.0575750  76.8753300 113.3017150 148.6717830  84.3177220
 113.6320160 147.8038890  84.0855860 113.7308150 148.8776350  85.1482180
 117.8979070 147.0026840  81.9779190 117.5974610 146.8791810  82.8783100
 117.7916560 146.1435430  81.5694920 113.7907360 149.5388420  87.0558850
 113.3538350 149.7189220  87.8883000 114.3585040 150.2963040  86.9140570
 129.4269540 149.0405420  91.3436160 128.8271530 149.0997980  90.6000080
 129.5563440 148.1010400  91.4733010 130.6670990 146.7823240  76.6805870
 129.8363950 146.8499890  77.1513100 130.8442820 147.6727360  76.3772730
 130.1227450 143.5270720  79.1840070 130.8846360 144.0967370  79.2899760
 130.1381820 142.9597920  79.9548380 113.6231790 142.0508650  83.4147730
 112.9680630 141.7820290  82.7707430 114.4609740 141.9413130  82.9649710
 131.1287420 144.3820820  84.0282000 131.4996250 143.5988140  83.6217970
 131.7689350 145.0709920  83.8499300 128.1121180 145.7657400  89.4412320
 127.2981020 146.1954560  89.7038110 128.5195380 146.3775810  88.8281370
 130.1746620 143.8205090  76.3412590 130.4495460 144.7283970  76.2131810
 129.9857360 143.7567620  77.2774580 126.5722230 136.8449940  77.6366220
 126.9907110 136.6580920  76.7962880 126.2658290 135.9928990  77.9469150
 130.0711960 141.7574080  81.3342020 129.6955560 140.9902010  80.9023310
 129.3415080 142.1396780  81.8216950 114.6607720 142.4361220  87.9551070
 115.0280760 142.3488620  88.8347090 114.0918540 141.6727770  87.8557930
 129.4611580 140.9045600  90.9681540 129.2297670 140.6758350  90.0679490
 129.7216130 141.8245150  90.9226430 114.2123720 139.3470310  91.8609490
 113.3179770 139.3137070  92.2003200 114.7521270 139.5457100  92.6260740
 127.8999650 136.1302030  93.7461240 128.7769830 136.1385430  94.1295240
 127.9120490 135.3932870  93.1353590 112.8369870 139.2607580  79.3573060
 111.9333950 139.5237780  79.1824720 113.3210490 139.5318750  78.5773020
 129.3462920 139.9831570  84.6349260 129.8700400 139.4894220  84.0039430
 129.9322340 140.1181930  85.3796830 129.5252640 140.0671440  88.1568810
 128.5755350 140.0334980  88.2713800 129.7065650 140.9771550  87.9218580
 115.3797080 138.3173120  77.2667440 116.0888780 137.8956340  76.7814720
 114.6637020 138.3848350  76.6350790 115.0271240 134.3712450  76.3070090
 115.7499370 134.9121390  76.6251310 115.2995760 134.0975870  75.4311630
 128.8362890 139.2404920  80.5741670 129.3322010 139.0075790  81.3590550
 128.6378960 138.4016760  80.1579310 114.7163430 133.6218640  86.2092710
 115.3639620 133.0716020  85.7687870 115.1365270 133.8761790  87.0308520
 130.2650050 137.8765870  83.1079350 130.1549330 137.7221910  84.0461620
 131.0257640 137.3486810  82.8654760 128.6115770 133.8160000  89.5662350
 129.2487990 134.4294140  89.9321540 128.7590660 133.8520660  88.6211580
 131.1540320 135.7073790  76.3485490 132.0789630 135.5754970  76.1403780
 131.1316110 135.7866610  77.3021940 131.2278810 136.4784450  78.9742200
 130.4330310 136.4129570  79.5035110 131.4322090 137.4135090  78.9627550
 128.1697230 150.5176000  82.9680590 128.7656300 150.1960570  82.2915010
 128.4275380 150.0447820  83.7593860 114.4695430 133.7774310  88.9518030
 114.1210250 134.2338130  89.7176210 114.1383130 132.8831440  89.0340460
 116.0759800 146.9493910  93.1171220 116.0329430 146.5786820  93.9985680
 116.2070810 147.8871480  93.2573040 119.7765830 148.5053500  88.7180940
 119.5357190 148.7728060  87.8311460 120.7168470 148.6759230  88.7731800
 121.9820250 134.9686190  92.4737450 121.9209140 135.5608020  93.2232860
 122.9220630 134.8612150  92.3287710 124.6194810 134.6256250  92.1129740
 125.2335220 134.9435540  91.4510820 125.1644370 134.1404840  92.7325600
 131.0369990 150.5247880  89.5191580 130.5428270 150.9216750  88.8018710
 130.4283280 149.8997090  89.9128860 115.1416070 133.3050510  92.2268800
 115.6899060 133.1238560  91.4634910 115.2071380 132.5144620  92.7625110
 115.9147830 149.8956160  90.2369000 115.3208150 149.7640860  90.9759040
 115.9071670 149.0594300  89.7711100 125.3602850 133.1888390  88.4399030
 124.4862690 133.5223500  88.2371960 125.2513600 132.7161570  89.2650900
 126.2674830 135.3959260  89.8240750 125.9388190 134.5811020  89.4442480
 127.2157130 135.3529070  89.7006440 115.5460060 147.2614540  89.1877040
 114.8194120 146.6419830  89.1202990 115.6069210 147.6555150  88.3175120
 119.1505160 149.4759540  85.9726450 119.6670180 148.8646900  85.4474710
 119.8002540 149.9788320  86.4637460 121.8900660 150.3668030  86.7995430
 122.1778470 150.1122330  85.9228440 122.4023880 149.8145390  87.3901000
 123.1077670 134.1058230  87.3791940 122.3249460 134.5803730  87.6588700
 122.8140600 133.2013060  87.2705120 127.6598740 134.8081330  85.4241030
 128.1006830 134.7526430  84.5762630 127.3906330 135.7239340  85.4951210
 129.5237310 134.4396570  83.4349850 129.4625710 133.4957790  83.2880870
 130.3029340 134.5476660  83.9803310 113.8290060 150.5788930  82.3973800
 113.6612100 149.9459610  83.0955690 112.9624570 150.7848330  82.0467990
 114.4518080 134.4105710  79.9005660 115.2097440 134.5234590  79.3269690
 113.9895250 135.2474910  79.8549090 120.9931890 136.5244980  82.8907970
 120.1806400 136.1501870  82.5503850 121.4973530 135.7690060  83.1929160
 125.4956870 133.1887430  84.1291040 126.0986240 133.7607640  84.6039560
 124.7549860 133.7526870  83.9064940 128.6391470 133.5908990  79.4031320
 128.8342100 134.4892440  79.6698750 127.8521340 133.3596070  79.8964270
 115.4352760 149.2722160  79.8423940 114.9100380 149.6530190  79.1385900
 115.3597340 149.8972930  80.5633650 116.8243230 134.9369760  78.4407630
 117.3535990 134.1499560  78.3115580 117.4571550 135.6160950  78.6743160
 119.0181070 134.6744900  81.4953020 118.3883810 133.9732210  81.6623150
 118.4786210 135.4349030  81.2786180 130.1918080 150.8309700  81.1637880
 130.3670270 150.1447440  80.5198800 129.4939650 151.3556750  80.7714550
 119.1436630 133.9528880  93.9305510 118.8620900 134.4562480  93.1666330
 119.5256330 133.1550630  93.5647640 118.0345730 151.2204540  78.7173190
 118.7664550 150.9363820  78.1697080 118.2939400 150.9817820  79.6072570
 117.1960520 147.3369270  78.7219520 116.5669400 147.8054370  79.2705350
 117.3108350 146.4918490  79.1565710 125.7452090 133.3682460  94.5085980
 125.6317540 133.6877070  95.4037500 126.5621830 133.7694970  94.2123260
 128.5250580 150.5153990  93.9904670 129.3175900 150.0203220  93.7830630
 128.8183730 151.1944130  94.5980280 124.6510240 141.3874930  64.8720720
 124.5704290 140.4729540  64.6012430 124.2374660 141.8842000  64.1660430
 122.7828280 143.1653950  66.7529990 122.0070380 142.6854390  67.0428560
 123.4341210 142.4859600  66.5786150 116.7994110 143.4773760  67.6305750
 115.9678990 143.2222470  68.0302260 117.4075090 143.5484530  68.3663670
 126.8035710 147.5714140  65.5329120 126.3417240 146.8001380  65.8616290
 127.6161260 147.5980210  66.0381570 116.7795370 147.5113850  67.8263770
 117.0823410 146.6211590  67.6473990 117.5238960 148.0684070  67.5986020
 115.2086060 138.4375650  61.4148140 114.3202760 138.7791620  61.3128020
 115.4927250 138.2375970  60.5228970 113.1719070 141.0381300  67.2987840
 113.7435180 140.2703500  67.2991480 113.1720610 141.3370060  66.3894450
 123.0299020 149.8572150  65.1533110 122.4110460 150.3129650  64.5827550
 123.8850800 150.0123610  64.7522810 122.2237270 145.8411140  66.7600150
 122.1545550 144.9001080  66.5989280 122.9857130 145.9312550  67.3322720
 114.4143940 136.4465660  69.0856770 114.2346780 135.5491410  69.3659530
 114.0124020 136.9937530  69.7603720 123.2542440 138.6481520  66.9869080
 123.6307260 137.7753400  66.8742750 123.1561950 138.9840220  66.0959520
 117.3847450 137.0207150  62.4486520 117.4914200 137.9210880  62.7555280
 116.4739810 136.9725120  62.1581170 127.0366560 136.1431960  63.9197420
 127.8576180 135.6528530  63.9622900 127.0700640 136.7329620  64.6729260
 115.0330610 138.9426160  67.6939110 115.7140720 139.2064530  68.3126510
 114.7178660 138.1027030  68.0277120 119.2255180 139.9893520  66.7811700
 119.7333400 140.4874490  67.4216720 119.7568420 139.2128720  66.6051060
 131.3266110 138.1598710  70.4841050 130.6218280 138.5480420  69.9656160
 131.5924030 138.8549000  71.0861980 117.5091280 134.6292080  71.0475120
 117.5109720 135.1464470  70.2421020 116.6795590 134.1522260  71.0245050
 123.8962370 144.7411390  62.5465020 123.2779640 145.2060840  61.9827740
 124.4085620 145.4338870  62.9634530 118.7594130 144.2687260  69.2248620
 118.4263510 144.8956180  69.8669690 118.9360810 144.7949140  68.4450290
 127.2728040 138.0832340  66.6924960 126.5683610 138.3717230  67.2728070
 127.6340200 138.8932450  66.3324520 117.1906610 136.3402040  69.0545570
 117.5323420 137.1844090  68.7599440 116.2522420 136.4885780  69.1710910
 117.9713230 146.2368060  71.0397800 118.5887230 146.9119140  70.7582250
 117.1106350 146.6456040  70.9485300 113.2645570 145.4267920  59.9204650
 112.8873550 145.9155020  59.1889550 113.5218640 146.0993200  60.5511180
 128.8890820 147.7007470  68.9552440 128.2054340 148.3706580  68.9469110
 129.4285110 147.8988120  68.1897300 130.3414960 137.5287130  67.0834170
 129.3939870 137.5626110  67.2149600 130.6664950 138.3426080  67.4683530
 120.8734500 133.8284310  65.3790160 121.1809480 133.2731200  64.6625660
 119.9435200 133.9628770  65.1963150 126.4249560 149.5451600  67.6697620
 126.4376720 149.1413890  66.8019880 125.8724780 150.3198890  67.5659050
 127.7194980 146.2667820  62.7587790 127.6091310 145.3242150  62.8837210
 127.7163230 146.6283460  63.6450550 125.8235000 144.4481440  68.9980230
 126.2403790 144.2341550  68.1633690 126.5474820 144.7054230  69.5688850
 123.2615260 141.8933140  62.1150280 122.3344540 141.8270520  62.3438750
 123.4140080 142.8313270  62.0005520 123.2484340 138.1650140  59.1117440
 122.3088010 138.3264100  59.1969900 123.5667600 138.8835820  58.5653430
 129.7697100 142.8468660  69.0896470 128.9415730 142.9161750  68.6146600
 130.3647580 143.4322970  68.6212300 127.2912550 143.4553440  62.6185530
 126.6724970 143.1172990  61.9711830 127.2737000 142.8113200  63.3264720
 126.7339110 139.6337980  70.0351340 126.3210290 140.4591690  70.2891330
 126.0015060 139.0483020  69.8427700 118.8671900 142.4197880  64.8970010
 118.4628900 141.7075130  64.4015910 118.9535020 142.0751120  65.7858050
 119.3353600 146.1065440  67.0609220 119.0381890 145.5010910  66.3817000
 120.2853420 146.1442750  66.9498580 117.5800520 139.1941090  68.6769050
 118.1315110 139.3036430  67.9022300 118.0944030 139.5678690  69.3924280
 127.4239210 149.6797310  70.7232320 126.9469770 150.4869500  70.5304930
 126.7401000 149.0275640  70.8758530 118.4272030 145.8447130  73.7117020
 117.5300560 146.0687100  73.9590420 118.4524900 145.9682070  72.7628420
 125.4677250 142.6940250  59.6258280 125.9070530 141.8562680  59.4796100
 126.1805670 143.3269650  59.7122420 117.2543250 142.7160450  72.2874390
 117.1151020 143.5883250  72.6561790 116.3724610 142.3733260  72.1422330
 123.5772630 147.6336320  63.5939520 124.0168540 148.3760650  63.1794910
 123.5159520 147.8762890  64.5178480 119.0523600 148.6582150  74.4959540
 119.0239030 149.0625100  73.6287970 118.8888570 147.7292510  74.3331140
 129.0494390 133.9483060  57.9399320 128.7367050 134.0409890  58.8398390
 129.8106860 134.5264090  57.8896750 115.5676530 141.3142860  62.3976660
 115.4474130 142.0404950  61.7857930 115.2577420 140.5445770  61.9204570
 131.0038420 149.4409250  75.7923710 131.4798140 149.9192140  76.4712790
 131.6245580 149.3726740  75.0669210 113.2061900 144.4858000  68.2045300
 113.2842320 144.6206770  67.2601020 113.8203580 143.7773890  68.3973420
 114.4509530 146.1858190  64.6151480 114.0437610 146.3272780  63.7605080
 115.3422540 145.9018350  64.4122690 130.4071670 146.6322100  72.9523720
 130.5334730 146.3933980  72.0340900 130.4493050 145.8006640  73.4245800
 124.2688410 150.3350100  71.5218530 124.7833080 150.2458110  72.3240960
 123.4257490 150.6809800  71.8146440 126.2442810 150.6205440  60.9502530
 126.0843950 150.3308380  61.8484360 126.0789520 149.8445570  60.4147760
 118.7231190 150.4003970  62.7274150 118.5473670 149.4839510  62.5141950
 117.8686930 150.7591260  62.9671950 125.9468940 148.1293000  59.5100530
 125.2534100 148.1270290  58.8502810 126.6891800 147.7052320  59.0794700
 125.5118870 149.7555710  63.5849020 125.9675820 148.9745090  63.8987640
 125.8511390 150.4662530  64.1290200 130.2595680 138.6854560  73.9173460
 129.6439950 139.1934230  73.3888920 129.9392100 137.7852890  73.8599400
 113.2621420 145.5272170  70.7439760 113.4252460 145.0577530  69.9259130
 113.7273870 145.0195730  71.4088600 118.0340190 134.6577930  65.7800330
 117.5908340 135.4387470  65.4484850 118.5925180 134.9807820  66.4871270
 122.3210000 137.5246450  71.3835650 121.8589370 137.7329470  72.1955590
 121.9188110 136.7105800  71.0806320 127.3214510 138.7455400  72.5132310
 126.4708100 138.4461150  72.8341380 127.1616300 138.9897410  71.6016130
 124.4164220 140.2457150  74.6131100 124.7417630 139.4120900  74.2733330
 125.2044550 140.7685670  74.7609430 121.1499010 134.2788630  60.6606160
 120.5253190 134.2748500  61.3859470 121.0629130 133.4119590  60.2642130
 120.0716090 135.2025260  67.6389930 120.3688420 136.1088090  67.5581950
 120.6201650 134.7144040  67.0249500 117.8254410 139.7811500  63.5081580
 117.5995330 139.5648670  64.4128200 117.0446940 140.2139960  63.1627550
 125.0552170 139.7874870  62.1072230 124.4561060 140.5110670  61.9235850
 125.6031780 139.7251650  61.3248680 120.2653620 140.6797080  74.1741850
 120.1697220 139.7391810  74.0242250 121.1085600 140.9012150  73.7789920
 123.6617040 138.4238410  64.1375510 124.0546610 138.7410610  63.3244200
 124.0233890 137.5450290  64.2520030 115.3964160 137.0910750  72.3275630
 115.0027550 137.9385960  72.5348410 114.7082560 136.4537120  72.5184270
 121.9709210 137.1745720  75.3972370 121.2807530 136.9817920  76.0318460
 122.7141510 137.4580360  75.9296670 112.6981210 135.0139210  66.3605710
 112.4094260 135.5842070  67.0730690 113.4426970 134.5343660  66.7236940
 112.8851440 138.9559330  57.5708430 112.8026110 139.8990090  57.7123420
 112.5334500 138.8134240  56.6920780 124.2472180 141.0144160  68.2326290
 123.5153300 141.5230970  68.5816390 123.8496520 140.1974140  67.9315070
 120.6849570 137.6898360  66.6378780 120.6885630 137.2488310  65.7883320
 121.5800690 138.0115690  66.7450600 116.5351950 137.5724850  65.5972990
 116.1952000 138.0500080  66.3540040 115.7729270 137.1189970  65.2374090
 120.7469720 138.6910440  59.6285540 120.8682540 138.6496920  60.5771360
 120.3618230 139.5534590  59.4732270 124.7098090 136.4677840  67.6449230
 124.7270830 136.9186490  68.4891080 124.4613670 135.5683480  67.8582670
 119.7591220 141.0011580  59.0268840 119.1908120 140.5529830  58.4004750
 120.4680220 141.3604360  58.4933990 128.1368840 133.8810020  73.4835610
 128.4614610 133.1499680  74.0093590 128.1725350 133.5623660  72.5816600
 114.8360400 144.9023600  72.9035570 114.4515190 144.2617270  73.5018530
 115.1472590 145.6059720  73.4730300 120.9857540 141.7500140  68.3844190
 121.3527670 141.2758710  69.1305530 120.7962600 142.6241710  68.7252530
 113.8498030 136.4943830  64.5137660 113.5644950 136.1299500  65.3516280
 113.7876890 135.7624290  63.9000800 118.7756910 140.7908780  70.7028400
 118.4713980 141.6700760  70.9278760 119.7303370 140.8508570  70.7385840
 117.3038700 144.9969770  61.2995250 116.5300960 144.4567390  61.1393970
 118.0333330 144.4776380  60.9613010 128.0626680 143.9935130  67.0921640
 128.7825800 144.4890420  66.7017750 127.8608500 143.3153020  66.4475510
 123.5236620 135.3873090  61.2351030 122.7101230 134.8886260  61.1596340
 123.3298570 136.2271340  60.8187380 123.4445480 144.0644190  72.9790640
 123.3782790 143.1439860  72.7248230 122.8150620 144.1619630  73.6935280
 126.2385010 139.7592740  59.5313190 127.1264630 140.0709970  59.3564530
 126.2090100 138.8864990  59.1393770 117.3476100 144.6650150  64.9374060
 117.8654770 143.8618410  64.8830950 116.8960120 144.6029290  65.7790890
 122.2345600 145.9316430  60.2101360 122.5761300 146.6758660  59.7144680
 121.4058310 146.2447550  60.5726190 114.8320640 141.6311520  71.8499760
 114.4735580 142.2965370  72.4373100 114.5375200 140.7995070  72.2212380
 118.0333760 142.0895760  74.7339310 117.7333900 142.2352940  73.8367130
 118.8045000 141.5301050  74.6412700 123.3762210 146.8864760  72.7294440
 123.3906750 145.9545720  72.5113350 122.6687310 146.9724520  73.3684210
 128.5099280 141.0704580  58.9993050 128.4263000 141.5018800  58.1489490
 129.2293470 141.5302930  59.4319870 129.5873420 143.5272100  72.0763020
 128.8621610 144.1200880  71.8792410 130.1148880 143.5195640  71.2776390
 129.5386530 147.9246840  61.7275180 128.8962690 147.2702460  62.0018900
 129.1517190 148.3301930  60.9515850 125.1173010 145.2532270  65.5746870
 125.4696830 144.6560400  64.9148240 124.2335340 144.9276500  65.7455120
 121.2036290 146.0129960  62.9817280 121.8907420 146.5599170  63.3624870
 120.4168710 146.5570690  63.0166890 113.3428690 141.6302780  58.4734360
 114.2123540 141.9127580  58.7570280 112.8519010 142.4438650  58.3583170
 120.5063500 143.0175990  62.5942640 120.9626280 143.8281240  62.8202830
 120.1551710 142.6999130  63.4261130 122.8096110 148.5282330  69.8234940
 123.4538330 148.7341710  70.5008360 123.1725550 147.7670730  69.3705790
 116.4075280 133.3613640  63.0665160 116.2789910 133.3531540  64.0150080
 115.5837300 133.6996730  62.7156170 124.0828190 146.5314680  68.5412390
 124.7250420 145.8307840  68.6544560 124.6077540 147.3113120  68.3609280
 127.9283910 146.8163300  58.2651530 127.7021490 146.0993740  58.8576170
 127.5380110 146.5675740  57.4273280 125.8565810 147.3309580  71.7448450
 126.1922050 147.9176270  72.4226370 124.9366150 147.2002290  71.9746240
 113.7099940 150.8430160  59.0395990 114.0697580 151.4419500  58.3853260
 113.5692280 151.3890050  59.8131020 113.4069210 135.1204760  72.5271860
 112.6927730 135.3201680  73.1324470 113.8264250 134.3444330  72.8986660
 127.5100160 144.7335240  59.9265690 127.2221860 145.1947930  60.7143570
 128.3052330 144.2733010  60.1949910 113.6941800 149.1085020  73.5138390
 113.8032920 148.1679760  73.3733780 113.0422360 149.3739770  72.8652120
 121.6854390 147.3800910  74.9136510 121.3651260 146.6610150  75.4582200
 121.0112750 148.0555980  74.9872570 119.7268560 148.2261360  59.8569660
 119.7178660 148.9591050  59.2414170 118.8066920 147.9792940  59.9496620
 115.3275200 143.4476250  60.6016420 114.7203150 144.1875150  60.6111720
 115.8024550 143.5375610  59.7754620 124.9007990 137.6127070  70.2773310
 125.2688810 136.7922280  70.6052880 124.0406190 137.6728960  70.6928960
 128.2670020 136.5684010  61.0860870 127.6383180 136.6729680  60.3719100
 127.7721940 136.7880790  61.8754750 122.7128160 148.2889600  58.5194850
 122.8140140 148.0853590  57.5896830 121.8129900 148.0347880  58.7242630
 120.2354050 138.8469960  62.5018750 119.5270200 139.3156300  62.9432360
 120.5198530 138.1891970  63.1363940 121.8609980 140.2666660  70.5011280
 122.3595230 140.7412480  71.1663130 122.0032930 139.3430180  70.7081310
 124.2669480 135.5720620  63.9414540 124.1437260 135.5906750  62.9924050
 125.2154040 135.6199560  64.0612940 121.3546270 150.8075920  63.2142520
 121.6087770 150.7697310  62.2921890 120.4058750 150.6809250  63.2070770
 118.4389070 137.1555040  59.8769460 119.2879600 137.5925190  59.8109650
 118.0720340 137.4675300  60.7041520 129.0676840 136.4834620  71.3439670
 128.5650440 137.2240020  71.6833480 129.8833500 136.8718620  71.0276460
 127.3598850 141.7267800  64.7901030 126.4188990 141.7418030  64.9648720
 127.6742920 140.9403760  65.2361330 117.3380490 143.4087400  58.3504990
 118.1043760 143.2968760  58.9130420 117.4155180 142.7125370  57.6981760
 116.0327250 140.8412470  59.0337880 116.1130840 139.8939980  59.1455280
 116.9247000 141.1719350  59.1398540 129.3624430 148.8976650  66.4655290
 129.4871850 149.7207820  66.9379100 130.2289990 148.6867380  66.1179440
 113.7187440 147.0581430  62.0113930 112.7927220 147.3002570  62.0019340
 114.1843870 147.8855690  61.8898680 115.8400240 150.1753930  75.3258000
 116.6412970 150.4965980  75.7393400 115.3252060 149.8149510  76.0477910
 119.9444270 150.1638170  57.9597990 120.7372880 150.4527000  57.5079780
 119.4248620 149.7330340  57.2810470 124.6764870 146.2833800  75.2733410
 124.0703030 146.3065400  74.5329160 124.3718980 145.5516840  75.8100660
 126.1065240 150.0114090  73.8842820 127.0586990 149.9272110  73.8343060
 125.9593460 150.6755800  74.5576610 128.9974440 149.3908300  59.3834730
 128.7115950 148.9773440  58.5688910 128.7993990 150.3196010  59.2635250
 113.5598050 142.6627390  74.2694050 114.0637070 142.0834670  74.8410280
 112.8205470 142.9467620  74.8070420 120.4621670 145.3841580  57.8240340
 120.3572310 144.7693930  58.5501720 120.2945890 144.8607470  57.0403350
 120.6135990 144.0698380  73.8029570 119.8481660 144.6383380  73.7184240
 120.7951950 143.7774590  72.9097800 123.7024400 144.4461610  58.4282330
 123.1534500 144.8930910  59.0725070 124.3243660 143.9410860  58.9520000
 127.7559340 145.8003710  74.3604590 128.4968810 146.1379470  73.8572050
 126.9932020 145.9695770  73.8074360 115.5921130 140.8056980  75.1644120
 115.6326470 140.5070850  76.0729350 116.4466630 141.2064590  75.0051640
 119.3699520 143.4052530  60.3247630 119.7915940 143.2392400  61.1679020
 119.4950360 142.5952760  59.8302770 117.5326940 139.3849080  73.1318610
 117.0023400 138.8940030  72.5041950 118.2015010 139.8133280  72.5976540
 121.8827160 142.4290140  57.5724730 122.4032820 141.7139160  57.2065880
 122.5295560 143.0676010  57.8725240 126.4305000 143.8518540  72.8959800
 126.8446020 144.0063620  73.7450220 125.4956000 143.9773760  73.0585580
 126.9027170 141.1914700  74.8998950 127.4847940 140.4367020  74.8119430
 127.0788940 141.7222140  74.1230430 118.0199240 136.3511450  73.2115900
 117.9256110 135.7332200  72.4866770 117.4396630 137.0777740  72.9845810
 120.7860680 134.9084690  70.2443290 120.3377980 134.9308950  69.3988840
 120.1525880 134.5103710  70.8413590 121.1920230 143.8039020  70.8655730
 121.6108340 144.6471750  70.6931970 120.2728860 143.9411060  70.6362510
 123.5284130 141.5355200  72.2493570 123.6480340 140.9396340  72.9888410
 124.3878130 141.5724890  71.8294870 125.8672030 142.0892390  70.8256080
 125.3407250 142.6135010  70.2221220 126.2103370 142.7219780  71.4565810
 118.2658420 139.4785760  57.2705790 118.0647480 138.6153120  57.6319130
 118.0950470 139.3919120  56.3327390 119.0427650 150.1092030  71.9813460
 118.5048740 150.8338090  71.6622160 119.2961610 149.6322370  71.1910800
 120.2952900 138.0776550  73.5069390 120.8852590 137.7692400  74.1947210
 119.4773140 137.6056300  73.6629290 125.1146330 137.6942360  73.7402410
 124.4261850 137.0323900  73.6752400 125.8352350 137.2480630  74.1850870
 125.7446730 134.2893990  59.7992670 126.0249020 133.4461890  60.1552090
 124.9712460 134.5217100  60.3131420 117.0641220 136.5786380  57.2583670
 117.3667120 136.5853810  56.3502820 117.8035810 136.2284240  57.7551330
 120.2826150 135.5221000  58.2439870 119.9348150 134.8444990  57.6642320
 120.4838920 135.0610510  59.0583260 122.4475190 150.5101750  59.8626470
 123.3425980 150.8486720  59.8845230 122.4792820 149.7881160  59.2350750
 116.0871350 145.8828800  58.0913470 116.5246220 146.4258470  58.7471050
 116.5719080 145.0575750  58.1009810 113.3017150 148.6717830  65.5433730
 113.6320160 147.8038890  65.3112370 113.7308150 148.8776350  66.3738690
 117.8979070 147.0026840  63.2035700 117.5974610 146.8791810  64.1039610
 117.7916560 146.1435430  62.7951430 113.7907360 149.5388420  68.2815360
 113.3538350 149.7189220  69.1139510 114.3585040 150.2963040  68.1397080
 129.4269540 149.0405420  72.5692670 128.8271530 149.0997980  71.8256590
 129.5563440 148.1010400  72.6989520 130.6670990 146.7823240  57.9062380
 129.8363950 146.8499890  58.3769610 130.8442820 147.6727360  57.6029240
 130.1227450 143.5270720  60.4096580 130.8846360 144.0967370  60.5156270
 130.1381820 142.9597920  61.1804890 113.6231790 142.0508650  64.6404240
 112.9680630 141.7820290  63.9963940 114.4609740 141.9413130  64.1906220
 131.1287420 144.3820820  65.2538510 131.4996250 143.5988140  64.8474480
 131.7689350 145.0709920  65.0755810 128.1121180 145.7657400  70.6668830
 127.2981020 146.1954560  70.9294620 128.5195380 146.3775810  70.0537880
 130.1746620 143.8205090  57.5669100 130.4495460 144.7283970  57.4388320
 129.9857360 143.7567620  58.5031090 126.5722230 136.8449940  58.8622730
 126.9907110 136.6580920  58.0219390 126.2658290 135.9928990  59.1725660
 130.0711960 141.7574080  62.5598530 129.6955560 140.9902010  62.1279820
 129.3415080 142.1396780  63.0473460 114.6607720 142.4361220  69.1807580
 115.0280760 142.3488620  70.0603600 114.0918540 141.6727770  69.0814440
 129.4611580 140.9045600  72.1938050 129.2297670 140.6758350  71.2936000
 129.7216130 141.8245150  72.1482940 114.2123720 139.3470310  73.0866000
 113.3179770 139.3137070  73.4259710 114.7521270 139.5457100  73.8517250
 127.8999650 136.1302030  74.9717750 128.7769830 136.1385430  75.3551750
 127.9120490 135.3932870  74.3610100 112.8369870 139.2607580  60.5829570
 111.9333950 139.5237780  60.4081230 113.3210490 139.5318750  59.8029530
 129.3462920 139.9831570  65.8605770 129.8700400 139.4894220  65.2295940
 129.9322340 140.1181930  66.6053340 129.5252640 140.0671440  69.3825320
 128.5755350 140.0334980  69.4970310 129.7065650 140.9771550  69.1475090
 115.3797080 138.3173120  58.4923950 116.0888780 137.8956340  58.0071230
 114.6637020 138.3848350  57.8607300 115.0271240 134.3712450  57.5326600
 115.7499370 134.9121390  57.8507820 115.2995760 134.0975870  56.6568140
 128.8362890 139.2404920  61.7998180 129.3322010 139.0075790  62.5847060
 128.6378960 138.4016760  61.3835820 114.7163430 133.6218640  67.4349220
 115.3639620 133.0716020  66.9944380 115.1365270 133.8761790  68.2565030
 130.2650050 137.8765870  64.3335860 130.1549330 137.7221910  65.2718130
 131.0257640 137.3486810  64.0911270 128.6115770 133.8160000  70.7918860
 129.2487990 134.4294140  71.1578050 128.7590660 133.8520660  69.8468090
 131.1540320 135.7073790  57.5742000 132.0789630 135.5754970  57.3660290
 131.1316110 135.7866610  58.5278450 131.2278810 136.4784450  60.1998710
 130.4330310 136.4129570  60.7291620 131.4322090 137.4135090  60.1884060
 128.1697230 150.5176000  64.1937100 128.7656300 150.1960570  63.5171520
 128.4275380 150.0447820  64.9850370 114.4695430 133.7774310  70.1774540
 114.1210250 134.2338130  70.9432720 114.1383130 132.8831440  70.2596970
 116.0759800 146.9493910  74.3427730 116.0329430 146.5786820  75.2242190
 116.2070810 147.8871480  74.4829550 119.7765830 148.5053500  69.9437450
 119.5357190 148.7728060  69.0567970 120.7168470 148.6759230  69.9988310
 121.9820250 134.9686190  73.6993960 121.9209140 135.5608020  74.4489370
 122.9220630 134.8612150  73.5544220 124.6194810 134.6256250  73.3386250
 125.2335220 134.9435540  72.6767330 125.1644370 134.1404840  73.9582110
 131.0369990 150.5247880  70.7448090 130.5428270 150.9216750  70.0275220
 130.4283280 149.8997090  71.1385370 115.1416070 133.3050510  73.4525310
 115.6899060 133.1238560  72.6891420 115.2071380 132.5144620  73.9881620
 115.9147830 149.8956160  71.4625510 115.3208150 149.7640860  72.2015550
 115.9071670 149.0594300  70.9967610 125.3602850 133.1888390  69.6655540
 124.4862690 133.5223500  69.4628470 125.2513600 132.7161570  70.4907410
 126.2674830 135.3959260  71.0497260 125.9388190 134.5811020  70.6698990
 127.2157130 135.3529070  70.9262950 115.5460060 147.2614540  70.4133550
 114.8194120 146.6419830  70.3459500 115.6069210 147.6555150  69.5431630
 119.1505160 149.4759540  67.1982960 119.6670180 148.8646900  66.6731220
 119.8002540 149.9788320  67.6893970 121.8900660 150.3668030  68.0251940
 122.1778470 150.1122330  67.1484950 122.4023880 149.8145390  68.6157510
 123.1077670 134.1058230  68.6048450 122.3249460 134.5803730  68.8845210
 122.8140600 133.2013060  68.4961630 127.6598740 134.8081330  66.6497540
 128.1006830 134.7526430  65.8019140 127.3906330 135.7239340  66.7207720
 129.5237310 134.4396570  64.6606360 129.4625710 133.4957790  64.5137380
 130.3029340 134.5476660  65.2059820 113.8290060 150.5788930  63.6230310
 113.6612100 149.9459610  64.3212200 112.9624570 150.7848330  63.2724500
 114.4518080 134.4105710  61.1262170 115.2097440 134.5234590  60.5526200
 113.9895250 135.2474910  61.0805600 120.9931890 136.5244980  64.1164480
 120.1806400 136.1501870  63.7760360 121.4973530 135.7690060  64.4185670
 125.4956870 133.1887430  65.3547550 126.0986240 133.7607640  65.8296070
 124.7549860 133.7526870  65.1321450 128.6391470 133.5908990  60.6287830
 128.8342100 134.4892440  60.8955260 127.8521340 133.3596070  61.1220780
 115.4352760 149.2722160  61.0680450 114.9100380 149.6530190  60.3642410
 115.3597340 149.8972930  61.7890160 116.8243230 134.9369760  59.6664140
 117.3535990 134.1499560  59.5372090 117.4571550 135.6160950  59.8999670
 119.0181070 134.6744900  62.7209530 118.3883810 133.9732210  62.8879660
 118.4786210 135.4349030  62.5042690 130.1918080 150.8309700  62.3894390
 130.3670270 150.1447440  61.7455310 129.4939650 151.3556750  61.9971060
 119.1436630 133.9528880  75.1562020 118.8620900 134.4562480  74.3922840
 119.5256330 133.1550630  74.7904150 118.0345730 151.2204540  59.9429700
 118.7664550 150.9363820  59.3953590 118.2939400 150.9817820  60.8329080
 117.1960520 147.3369270  59.9476030 116.5669400 147.8054370  60.4961860
 117.3108350 146.4918490  60.3822220 125.7452090 133.3682460  75.7342490
 125.6317540 133.6877070  76.6294010 126.5621830 133.7694970  75.4379770
 128.5250580 150.5153990  75.2161180 129.3175900 150.0203220  75.0087140
 128.8183730 151.1944130  75.8236790 124.6510240 141.3874930  46.0977230
 124.5704290 140.4729540  45.8268940 124.2374660 141.8842000  45.3916940
 122.7828280 143.1653950  47.9786500 122.0070380 142.6854390  48.2685070
 123.4341210 142.4859600  47.8042660 116.7994110 143.4773760  48.8562260
 115.9678990 143.2222470  49.2558770 117.4075090 143.5484530  49.5920180
 126.8035710 147.5714140  46.7585630 126.3417240 146.8001380  47.0872800
 127.6161260 147.5980210  47.2638080 116.7795370 147.5113850  49.0520280
 117.0823410 146.6211590  48.8730500 117.5238960 148.0684070  48.8242530
 115.2086060 138.4375650  42.6404650 114.3202760 138.7791620  42.5384530
 115.4927250 138.2375970  41.7485480 113.1719070 141.0381300  48.5244350
 113.7435180 140.2703500  48.5247990 113.1720610 141.3370060  47.6150960
 123.0299020 149.8572150  46.3789620 122.4110460 150.3129650  45.8084060
 123.8850800 150.0123610  45.9779320 122.2237270 145.8411140  47.9856660
 122.1545550 144.9001080  47.8245790 122.9857130 145.9312550  48.5579230
 114.4143940 136.4465660  50.3113280 114.2346780 135.5491410  50.5916040
 114.0124020 136.9937530  50.9860230 123.2542440 138.6481520  48.2125590
 123.6307260 137.7753400  48.0999260 123.1561950 138.9840220  47.3216030
 117.3847450 137.0207150  43.6743030 117.4914200 137.9210880  43.9811790
 116.4739810 136.9725120  43.3837680 127.0366560 136.1431960  45.1453930
 127.8576180 135.6528530  45.1879410 127.0700640 136.7329620  45.8985770
 115.0330610 138.9426160  48.9195620 115.7140720 139.2064530  49.5383020
 114.7178660 138.1027030  49.2533630 119.2255180 139.9893520  48.0068210
 119.7333400 140.4874490  48.6473230 119.7568420 139.2128720  47.8307570
 131.3266110 138.1598710  51.7097560 130.6218280 138.5480420  51.1912670
 131.5924030 138.8549000  52.3118490 117.5091280 134.6292080  52.2731630
 117.5109720 135.1464470  51.4677530 116.6795590 134.1522260  52.2501560
 123.8962370 144.7411390  43.7721530 123.2779640 145.2060840  43.2084250
 124.4085620 145.4338870  44.1891040 118.7594130 144.2687260  50.4505130
 118.4263510 144.8956180  51.0926200 118.9360810 144.7949140  49.6706800
 127.2728040 138.0832340  47.9181470 126.5683610 138.3717230  48.4984580
 127.6340200 138.8932450  47.5581030 117.1906610 136.3402040  50.2802080
 117.5323420 137.1844090  49.9855950 116.2522420 136.4885780  50.3967420
 117.9713230 146.2368060  52.2654310 118.5887230 146.9119140  51.9838760
 117.1106350 146.6456040  52.1741810 113.2645570 145.4267920  41.1461160
 112.8873550 145.9155020  40.4146060 113.5218640 146.0993200  41.7767690
 128.8890820 147.7007470  50.1808950 128.2054340 148.3706580  50.1725620
 129.4285110 147.8988120  49.4153810 130.3414960 137.5287130  48.3090680
 129.3939870 137.5626110  48.4406110 130.6664950 138.3426080  48.6940040
 120.8734500 133.8284310  46.6046670 121.1809480 133.2731200  45.8882170
 119.9435200 133.9628770  46.4219660 126.4249560 149.5451600  48.8954130
 126.4376720 149.1413890  48.0276390 125.8724780 150.3198890  48.7915560
 127.7194980 146.2667820  43.9844300 127.6091310 145.3242150  44.1093720
 127.7163230 146.6283460  44.8707060 125.8235000 144.4481440  50.2236740
 126.2403790 144.2341550  49.3890200 126.5474820 144.7054230  50.7945360
 123.2615260 141.8933140  43.3406790 122.3344540 141.8270520  43.5695260
 123.4140080 142.8313270  43.2262030 123.2484340 138.1650140  40.3373950
 122.3088010 138.3264100  40.4226410 123.5667600 138.8835820  39.7909940
 129.7697100 142.8468660  50.3152980 128.9415730 142.9161750  49.8403110
 130.3647580 143.4322970  49.8468810 127.2912550 143.4553440  43.8442040
 126.6724970 143.1172990  43.1968340 127.2737000 142.8113200  44.5521230
 126.7339110 139.6337980  51.2607850 126.3210290 140.4591690  51.5147840
 126.0015060 139.0483020  51.0684210 118.8671900 142.4197880  46.1226520
 118.4628900 141.7075130  45.6272420 118.9535020 142.0751120  47.0114560
 119.3353600 146.1065440  48.2865730 119.0381890 145.5010910  47.6073510
 120.2853420 146.1442750  48.1755090 117.5800520 139.1941090  49.9025560
 118.1315110 139.3036430  49.1278810 118.0944030 139.5678690  50.6180790
 127.4239210 149.6797310  51.9488830 126.9469770 150.4869500  51.7561440
 126.7401000 149.0275640  52.1015040 118.4272030 145.8447130  54.9373530
 117.5300560 146.0687100  55.1846930 118.4524900 145.9682070  53.9884930
 125.4677250 142.6940250  40.8514790 125.9070530 141.8562680  40.7052610
 126.1805670 143.3269650  40.9378930 117.2543250 142.7160450  53.5130900
 117.1151020 143.5883250  53.8818300 116.3724610 142.3733260  53.3678840
 123.5772630 147.6336320  44.8196030 124.0168540 148.3760650  44.4051420
 123.5159520 147.8762890  45.7434990 119.0523600 148.6582150  55.7216050
 119.0239030 149.0625100  54.8544480 118.8888570 147.7292510  55.5587650
 129.0494390 133.9483060  39.1655830 128.7367050 134.0409890  40.0654900
 129.8106860 134.5264090  39.1153260 115.5676530 141.3142860  43.6233170
 115.4474130 142.0404950  43.0114440 115.2577420 140.5445770  43.1461080
 131.0038420 149.4409250  57.0180220 131.4798140 149.9192140  57.6969300
 131.6245580 149.3726740  56.2925720 113.2061900 144.4858000  49.4301810
 113.2842320 144.6206770  48.4857530 113.8203580 143.7773890  49.6229930
 114.4509530 146.1858190  45.8407990 114.0437610 146.3272780  44.9861590
 115.3422540 145.9018350  45.6379200 130.4071670 146.6322100  54.1780230
 130.5334730 146.3933980  53.2597410 130.4493050 145.8006640  54.6502310
 124.2688410 150.3350100  52.7475040 124.7833080 150.2458110  53.5497470
 123.4257490 150.6809800  53.0402950 126.2442810 150.6205440  42.1759040
 126.0843950 150.3308380  43.0740870 126.0789520 149.8445570  41.6404270
 118.7231190 150.4003970  43.9530660 118.5473670 149.4839510  43.7398460
 117.8686930 150.7591260  44.1928460 125.9468940 148.1293000  40.7357040
 125.2534100 148.1270290  40.0759320 126.6891800 147.7052320  40.3051210
 125.5118870 149.7555710  44.8105530 125.9675820 148.9745090  45.1244150
 125.8511390 150.4662530  45.3546710 130.2595680 138.6854560  55.1429970
 129.6439950 139.1934230  54.6145430 129.9392100 137.7852890  55.0855910
 113.2621420 145.5272170  51.9696270 113.4252460 145.0577530  51.1515640
 113.7273870 145.0195730  52.6345110 118.0340190 134.6577930  47.0056840
 117.5908340 135.4387470  46.6741360 118.5925180 134.9807820  47.7127780
 122.3210000 137.5246450  52.6092160 121.8589370 137.7329470  53.4212100
 121.9188110 136.7105800  52.3062830 127.3214510 138.7455400  53.7388820
 126.4708100 138.4461150  54.0597890 127.1616300 138.9897410  52.8272640
 124.4164220 140.2457150  55.8387610 124.7417630 139.4120900  55.4989840
 125.2044550 140.7685670  55.9865940 121.1499010 134.2788630  41.8862670
 120.5253190 134.2748500  42.6115980 121.0629130 133.4119590  41.4898640
 120.0716090 135.2025260  48.8646440 120.3688420 136.1088090  48.7838460
 120.6201650 134.7144040  48.2506010 117.8254410 139.7811500  44.7338090
 117.5995330 139.5648670  45.6384710 117.0446940 140.2139960  44.3884060
 125.0552170 139.7874870  43.3328740 124.4561060 140.5110670  43.1492360
 125.6031780 139.7251650  42.5505190 120.2653620 140.6797080  55.3998360
 120.1697220 139.7391810  55.2498760 121.1085600 140.9012150  55.0046430
 123.6617040 138.4238410  45.3632020 124.0546610 138.7410610  44.5500710
 124.0233890 137.5450290  45.4776540 115.3964160 137.0910750  53.5532140
 115.0027550 137.9385960  53.7604920 114.7082560 136.4537120  53.7440780
 121.9709210 137.1745720  56.6228880 121.2807530 136.9817920  57.2574970
 122.7141510 137.4580360  57.1553180 112.6981210 135.0139210  47.5862220
 112.4094260 135.5842070  48.2987200 113.4426970 134.5343660  47.9493450
 112.8851440 138.9559330  38.7964940 112.8026110 139.8990090  38.9379930
 112.5334500 138.8134240  37.9177290 124.2472180 141.0144160  49.4582800
 123.5153300 141.5230970  49.8072900 123.8496520 140.1974140  49.1571580
 120.6849570 137.6898360  47.8635290 120.6885630 137.2488310  47.0139830
 121.5800690 138.0115690  47.9707110 116.5351950 137.5724850  46.8229500
 116.1952000 138.0500080  47.5796550 115.7729270 137.1189970  46.4630600
 120.7469720 138.6910440  40.8542050 120.8682540 138.6496920  41.8027870
 120.3618230 139.5534590  40.6988780 124.7098090 136.4677840  48.8705740
 124.7270830 136.9186490  49.7147590 124.4613670 135.5683480  49.0839180
 119.7591220 141.0011580  40.2525350 119.1908120 140.5529830  39.6261260
 120.4680220 141.3604360  39.7190500 128.1368840 133.8810020  54.7092120
 128.4614610 133.1499680  55.2350100 128.1725350 133.5623660  53.8073110
 114.8360400 144.9023600  54.1292080 114.4515190 144.2617270  54.7275040
 115.1472590 145.6059720  54.6986810 120.9857540 141.7500140  49.6100700
 121.3527670 141.2758710  50.3562040 120.7962600 142.6241710  49.9509040
 113.8498030 136.4943830  45.7394170 113.5644950 136.1299500  46.5772790
 113.7876890 135.7624290  45.1257310 118.7756910 140.7908780  51.9284910
 118.4713980 141.6700760  52.1535270 119.7303370 140.8508570  51.9642350
 117.3038700 144.9969770  42.5251760 116.5300960 144.4567390  42.3650480
 118.0333330 144.4776380  42.1869520 128.0626680 143.9935130  48.3178150
 128.7825800 144.4890420  47.9274260 127.8608500 143.3153020  47.6732020
 123.5236620 135.3873090  42.4607540 122.7101230 134.8886260  42.3852850
 123.3298570 136.2271340  42.0443890 123.4445480 144.0644190  54.2047150
 123.3782790 143.1439860  53.9504740 122.8150620 144.1619630  54.9191790
 126.2385010 139.7592740  40.7569700 127.1264630 140.0709970  40.5821040
 126.2090100 138.8864990  40.3650280 117.3476100 144.6650150  46.1630570
 117.8654770 143.8618410  46.1087460 116.8960120 144.6029290  47.0047400
 122.2345600 145.9316430  41.4357870 122.5761300 146.6758660  40.9401190
 121.4058310 146.2447550  41.7982700 114.8320640 141.6311520  53.0756270
 114.4735580 142.2965370  53.6629610 114.5375200 140.7995070  53.4468890
 118.0333760 142.0895760  55.9595820 117.7333900 142.2352940  55.0623640
 118.8045000 141.5301050  55.8669210 123.3762210 146.8864760  53.9550950
 123.3906750 145.9545720  53.7369860 122.6687310 146.9724520  54.5940720
 128.5099280 141.0704580  40.2249560 128.4263000 141.5018800  39.3746000
 129.2293470 141.5302930  40.6576380 129.5873420 143.5272100  53.3019530
 128.8621610 144.1200880  53.1048920 130.1148880 143.5195640  52.5032900
 129.5386530 147.9246840  42.9531690 128.8962690 147.2702460  43.2275410
 129.1517190 148.3301930  42.1772360 125.1173010 145.2532270  46.8003380
 125.4696830 144.6560400  46.1404750 124.2335340 144.9276500  46.9711630
 121.2036290 146.0129960  44.2073790 121.8907420 146.5599170  44.5881380
 120.4168710 146.5570690  44.2423400 113.3428690 141.6302780  39.6990870
 114.2123540 141.9127580  39.9826790 112.8519010 142.4438650  39.5839680
 120.5063500 143.0175990  43.8199150 120.9626280 143.8281240  44.0459340
 120.1551710 142.6999130  44.6517640 122.8096110 148.5282330  51.0491450
 123.4538330 148.7341710  51.7264870 123.1725550 147.7670730  50.5962300
 116.4075280 133.3613640  44.2921670 116.2789910 133.3531540  45.2406590
 115.5837300 133.6996730  43.9412680 124.0828190 146.5314680  49.7668900
 124.7250420 145.8307840  49.8801070 124.6077540 147.3113120  49.5865790
 127.9283910 146.8163300  39.4908040 127.7021490 146.0993740  40.0832680
 127.5380110 146.5675740  38.6529790 125.8565810 147.3309580  52.9704960
 126.1922050 147.9176270  53.6482880 124.9366150 147.2002290  53.2002750
 113.7099940 150.8430160  40.2652500 114.0697580 151.4419500  39.6109770
 113.5692280 151.3890050  41.0387530 113.4069210 135.1204760  53.7528370
 112.6927730 135.3201680  54.3580980 113.8264250 134.3444330  54.1243170
 127.5100160 144.7335240  41.1522200 127.2221860 145.1947930  41.9400080
 128.3052330 144.2733010  41.4206420 113.6941800 149.1085020  54.7394900
 113.8032920 148.1679760  54.5990290 113.0422360 149.3739770  54.0908630
 121.6854390 147.3800910  56.1393020 121.3651260 146.6610150  56.6838710
 121.0112750 148.0555980  56.2129080 119.7268560 148.2261360  41.0826170
 119.7178660 148.9591050  40.4670680 118.8066920 147.9792940  41.1753130
 115.3275200 143.4476250  41.8272930 114.7203150 144.1875150  41.8368230
 115.8024550 143.5375610  41.0011130 124.9007990 137.6127070  51.5029820
 125.2688810 136.7922280  51.8309390 124.0406190 137.6728960  51.9185470
 128.2670020 136.5684010  42.3117380 127.6383180 136.6729680  41.5975610
 127.7721940 136.7880790  43.1011260 122.7128160 148.2889600  39.7451360
 122.8140140 148.0853590  38.8153340 121.8129900 148.0347880  39.9499140
 120.2354050 138.8469960  43.7275260 119.5270200 139.3156300  44.1688870
 120.5198530 138.1891970  44.3620450 121.8609980 140.2666660  51.7267790
 122.3595230 140.7412480  52.3919640 122.0032930 139.3430180  51.9337820
 124.2669480 135.5720620  45.1671050 124.1437260 135.5906750  44.2180560
 125.2154040 135.6199560  45.2869450 121.3546270 150.8075920  44.4399030
 121.6087770 150.7697310  43.5178400 120.4058750 150.6809250  44.4327280
 118.4389070 137.1555040  41.1025970 119.2879600 137.5925190  41.0366160
 118.0720340 137.4675300  41.9298030 129.0676840 136.4834620  52.5696180
 128.5650440 137.2240020  52.9089990 129.8833500 136.8718620  52.2532970
 127.3598850 141.7267800  46.0157540 126.4188990 141.7418030  46.1905230
 127.6742920 140.9403760  46.4617840 117.3380490 143.4087400  39.5761500
 118.1043760 143.2968760  40.1386930 117.4155180 142.7125370  38.9238270
 116.0327250 140.8412470  40.2594390 116.1130840 139.8939980  40.3711790
 116.9247000 141.1719350  40.3655050 129.3624430 148.8976650  47.6911800
 129.4871850 149.7207820  48.1635610 130.2289990 148.6867380  47.3435950
 113.7187440 147.0581430  43.2370440 112.7927220 147.3002570  43.2275850
 114.1843870 147.8855690  43.1155190 115.8400240 150.1753930  56.5514510
 116.6412970 150.4965980  56.9649910 115.3252060 149.8149510  57.2734420
 119.9444270 150.1638170  39.1854500 120.7372880 150.4527000  38.7336290
 119.4248620 149.7330340  38.5066980 124.6764870 146.2833800  56.4989920
 124.0703030 146.3065400  55.7585670 124.3718980 145.5516840  57.0357170
 126.1065240 150.0114090  55.1099330 127.0586990 149.9272110  55.0599570
 125.9593460 150.6755800  55.7833120 128.9974440 149.3908300  40.6091240
 128.7115950 148.9773440  39.7945420 128.7993990 150.3196010  40.4891760
 113.5598050 142.6627390  55.4950560 114.0637070 142.0834670  56.0666790
 112.8205470 142.9467620  56.0326930 120.4621670 145.3841580  39.0496850
 120.3572310 144.7693930  39.7758230 120.2945890 144.8607470  38.2659860
 120.6135990 144.0698380  55.0286080 119.8481660 144.6383380  54.9440750
 120.7951950 143.7774590  54.1354310 123.7024400 144.4461610  39.6538840
 123.1534500 144.8930910  40.2981580 124.3243660 143.9410860  40.1776510
 127.7559340 145.8003710  55.5861100 128.4968810 146.1379470  55.0828560
 126.9932020 145.9695770  55.0330870 115.5921130 140.8056980  56.3900630
 115.6326470 140.5070850  57.2985860 116.4466630 141.2064590  56.2308150
 119.3699520 143.4052530  41.5504140 119.7915940 143.2392400  42.3935530
 119.4950360 142.5952760  41.0559280 117.5326940 139.3849080  54.3575120
 117.0023400 138.8940030  53.7298460 118.2015010 139.8133280  53.8233050
 121.8827160 142.4290140  38.7981240 122.4032820 141.7139160  38.4322390
 122.5295560 143.0676010  39.0981750 126.4305000 143.8518540  54.1216310
 126.8446020 144.0063620  54.9706730 125.4956000 143.9773760  54.2842090
 126.9027170 141.1914700  56.1255460 127.4847940 140.4367020  56.0375940
 127.0788940 141.7222140  55.3486940 118.0199240 136.3511450  54.4372410
 117.9256110 135.7332200  53.7123280 117.4396630 137.0777740  54.2102320
 120.7860680 134.9084690  51.4699800 120.3377980 134.9308950  50.6245350
 120.1525880 134.5103710  52.0670100 121.1920230 143.8039020  52.0912240
 121.6108340 144.6471750  51.9188480 120.2728860 143.9411060  51.8619020
 123.5284130 141.5355200  53.4750080 123.6480340 140.9396340  54.2144920
 124.3878130 141.5724890  53.0551380 125.8672030 142.0892390  52.0512590
 125.3407250 142.6135010  51.4477730 126.2103370 142.7219780  52.6822320
 118.2658420 139.4785760  38.4962300 118.0647480 138.6153120  38.8575640
 118.0950470 139.3919120  37.5583900 119.0427650 150.1092030  53.2069970
 118.5048740 150.8338090  52.8878670 119.2961610 149.6322370  52.4167310
 120.2952900 138.0776550  54.7325900 120.8852590 137.7692400  55.4203720
 119.4773140 137.6056300  54.8885800 125.1146330 137.6942360  54.9658920
 124.4261850 137.0323900  54.9008910 125.8352350 137.2480630  55.4107380
 125.7446730 134.2893990  41.0249180 126.0249020 133.4461890  41.3808600
 124.9712460 134.5217100  41.5387930 117.0641220 136.5786380  38.4840180
 117.3667120 136.5853810  37.5759330 117.8035810 136.2284240  38.9807840
 120.2826150 135.5221000  39.4696380 119.9348150 134.8444990  38.8898830
 120.4838920 135.0610510  40.2839770 122.4475190 150.5101750  41.0882980
 123.3425980 150.8486720  41.1101740 122.4792820 149.7881160  40.4607260
 116.0871350 145.8828800  39.3169980 116.5246220 146.4258470  39.9727560
 116.5719080 145.0575750  39.3266320 113.3017150 148.6717830  46.7690240
 113.6320160 147.8038890  46.5368880 113.7308150 148.8776350  47.5995200
 117.8979070 147.0026840  44.4292210 117.5974610 146.8791810  45.3296120
 117.7916560 146.1435430  44.0207940 113.7907360 149.5388420  49.5071870
 113.3538350 149.7189220  50.3396020 114.3585040 150.2963040  49.3653590
 129.4269540 149.0405420  53.7949180 128.8271530 149.0997980  53.0513100
 129.5563440 148.1010400  53.9246030 130.6670990 146.7823240  39.1318890
 129.8363950 146.8499890  39.6026120 130.8442820 147.6727360  38.8285750
 130.1227450 143.5270720  41.6353090 130.8846360 144.0967370  41.7412780
 130.1381820 142.9597920  42.4061400 113.6231790 142.0508650  45.8660750
 112.9680630 141.7820290  45.2220450 114.4609740 141.9413130  45.4162730
 131.1287420 144.3820820  46.4795020 131.4996250 143.5988140  46.0730990
 131.7689350 145.0709920  46.3012320 128.1121180 145.7657400  51.8925340
 127.2981020 146.1954560  52.1551130 128.5195380 146.3775810  51.2794390
 130.1746620 143.8205090  38.7925610 130.4495460 144.7283970  38.6644830
 129.9857360 143.7567620  39.7287600 126.5722230 136.8449940  40.0879240
 126.9907110 136.6580920  39.2475900 126.2658290 135.9928990  40.3982170
 130.0711960 141.7574080  43.7855040 129.6955560 140.9902010  43.3536330
 129.3415080 142.1396780  44.2729970 114.6607720 142.4361220  50.4064090
 115.0280760 142.3488620  51.2860110 114.0918540 141.6727770  50.3070950
 129.4611580 140.9045600  53.4194560 129.2297670 140.6758350  52.5192510
 129.7216130 141.8245150  53.3739450 114.2123720 139.3470310  54.3122510
 113.3179770 139.3137070  54.6516220 114.7521270 139.5457100  55.0773760
 127.8999650 136.1302030  56.1974260 128.7769830 136.1385430  56.5808260
 127.9120490 135.3932870  55.5866610 112.8369870 139.2607580  41.8086080
 111.9333950 139.5237780  41.6337740 113.3210490 139.5318750  41.0286040
 129.3462920 139.9831570  47.0862280 129.8700400 139.4894220  46.4552450
 129.9322340 140.1181930  47.8309850 129.5252640 140.0671440  50.6081830
 128.5755350 140.0334980  50.7226820 129.7065650 140.9771550  50.3731600
 115.3797080 138.3173120  39.7180460 116.0888780 137.8956340  39.2327740
 114.6637020 138.3848350  39.0863810 115.0271240 134.3712450  38.7583110
 115.7499370 134.9121390  39.0764330 115.2995760 134.0975870  37.8824650
 128.8362890 139.2404920  43.0254690 129.3322010 139.0075790  43.8103570
 128.6378960 138.4016760  42.6092330 114.7163430 133.6218640  48.6605730
 115.3639620 133.0716020  48.2200890 115.1365270 133.8761790  49.4821540
 130.2650050 137.8765870  45.5592370 130.1549330 137.7221910  46.4974640
 131.0257640 137.3486810  45.3167780 128.6115770 133.8160000  52.0175370
 129.2487990 134.4294140  52.3834560 128.7590660 133.8520660  51.0724600
 131.1540320 135.7073790  38.7998510 132.0789630 135.5754970  38.5916800
 131.1316110 135.7866610  39.7534960 131.2278810 136.4784450  41.4255220
 130.4330310 136.4129570  41.9548130 131.4322090 137.4135090  41.4140570
 128.1697230 150.5176000  45.4193610 128.7656300 150.1960570  44.7428030
 128.4275380 150.0447820  46.2106880 114.4695430 133.7774310  51.4031050
 114.1210250 134.2338130  52.1689230 114.1383130 132.8831440  51.4853480
 116.0759800 146.9493910  55.5684240 116.0329430 146.5786820  56.4498700
 116.2070810 147.8871480  55.7086060 119.7765830 148.5053500  51.1693960
 119.5357190 148.7728060  50.2824480 120.7168470 148.6759230  51.2244820
 121.9820250 134.9686190  54.9250470 121.9209140 135.5608020  55.6745880
 122.9220630 134.8612150  54.7800730 124.6194810 134.6256250  54.5642760
 125.2335220 134.9435540  53.9023840 125.1644370 134.1404840  55.1838620
 131.0369990 150.5247880  51.9704600 130.5428270 150.9216750  51.2531730
 130.4283280 149.8997090  52.3641880 115.1416070 133.3050510  54.6781820
 115.6899060 133.1238560  53.9147930 115.2071380 132.5144620  55.2138130
 115.9147830 149.8956160  52.6882020 115.3208150 149.7640860  53.4272060
 115.9071670 149.0594300  52.2224120 125.3602850 133.1888390  50.8912050
 124.4862690 133.5223500  50.6884980 125.2513600 132.7161570  51.7163920
 126.2674830 135.3959260  52.2753770 125.9388190 134.5811020  51.8955500
 127.2157130 135.3529070  52.1519460 115.5460060 147.2614540  51.6390060
 114.8194120 146.6419830  51.5716010 115.6069210 147.6555150  50.7688140
 119.1505160 149.4759540  48.4239470 119.6670180 148.8646900  47.8987730
 119.8002540 149.9788320  48.9150480 121.8900660 150.3668030  49.2508450
 122.1778470 150.1122330  48.3741460 122.4023880 149.8145390  49.8414020
 123.1077670 134.1058230  49.8304960 122.3249460 134.5803730  50.1101720
 122.8140600 133.2013060  49.7218140 127.6598740 134.8081330  47.8754050
 128.1006830 134.7526430  47.0275650 127.3906330 135.7239340  47.9464230
 129.5237310 134.4396570  45.8862870 129.4625710 133.4957790  45.7393890
 130.3029340 134.5476660  46.4316330 113.8290060 150.5788930  44.8486820
 113.6612100 149.9459610  45.5468710 112.9624570 150.7848330  44.4981010
 114.4518080 134.4105710  42.3518680 115.2097440 134.5234590  41.7782710
 113.9895250 135.2474910  42.3062110 120.9931890 136.5244980  45.3420990
 120.1806400 136.1501870  45.0016870 121.4973530 135.7690060  45.6442180
 125.4956870 133.1887430  46.5804060 126.0986240 133.7607640  47.0552580
 124.7549860 133.7526870  46.3577960 128.6391470 133.5908990  41.8544340
 128.8342100 134.4892440  42.1211770 127.8521340 133.3596070  42.3477290
 115.4352760 149.2722160  42.2936960 114.9100380 149.6530190  41.5898920
 115.3597340 149.8972930  43.0146670 116.8243230 134.9369760  40.8920650
 117.3535990 134.1499560  40.7628600 117.4571550 135.6160950  41.1256180
 119.0181070 134.6744900  43.9466040 118.3883810 133.9732210  44.1136170
 118.4786210 135.4349030  43.7299200 130.1918080 150.8309700  43.6150900
 130.3670270 150.1447440  42.9711820 129.4939650 151.3556750  43.2227570
 119.1436630 133.9528880  56.3818530 118.8620900 134.4562480  55.6179350
 119.5256330 133.1550630  56.0160660 118.0345730 151.2204540  41.1686210
 118.7664550 150.9363820  40.6210100 118.2939400 150.9817820  42.0585590
 117.1960520 147.3369270  41.1732540 116.5669400 147.8054370  41.7218370
 117.3108350 146.4918490  41.6078730 125.7452090 133.3682460  56.9599000
 125.6317540 133.6877070  57.8550520 126.5621830 133.7694970  56.6636280
 128.5250580 150.5153990  56.4417690 129.3175900 150.0203220  56.2343650
 128.8183730 151.1944130  57.0493300 124.6510240 141.3874930  27.3233740
 124.5704290 140.4729540  27.0525450 124.2374660 141.8842000  26.6173450
 122.7828280 143.1653950  29.2043010 122.0070380 142.6854390  29.4941580
 123.4341210 142.4859600  29.0299170 116.7994110 143.4773760  30.0818770
 115.9678990 143.2222470  30.4815280 117.4075090 143.5484530  30.8176690
 126.8035710 147.5714140  27.9842140 126.3417240 146.8001380  28.3129310
 127.6161260 147.5980210  28.4894590 116.7795370 147.5113850  30.2776790
 117.0823410 146.6211590  30.0987010 117.5238960 148.0684070  30.0499040
 115.2086060 138.4375650  23.8661160 114.3202760 138.7791620  23.7641040
 115.4927250 138.2375970  22.9741990 113.1719070 141.0381300  29.7500860
 113.7435180 140.2703500  29.7504500 113.1720610 141.3370060  28.8407470
 123.0299020 149.8572150  27.6046130 122.4110460 150.3129650  27.0340570
 123.8850800 150.0123610  27.2035830 122.2237270 145.8411140  29.2113170
 122.1545550 144.9001080  29.0502300 122.9857130 145.9312550  29.7835740
 114.4143940 136.4465660  31.5369790 114.2346780 135.5491410  31.8172550
 114.0124020 136.9937530  32.2116740 123.2542440 138.6481520  29.4382100
 123.6307260 137.7753400  29.3255770 123.1561950 138.9840220  28.5472540
 117.3847450 137.0207150  24.8999540 117.4914200 137.9210880  25.2068300
 116.4739810 136.9725120  24.6094190 127.0366560 136.1431960  26.3710440
 127.8576180 135.6528530  26.4135920 127.0700640 136.7329620  27.1242280
 115.0330610 138.9426160  30.1452130 115.7140720 139.2064530  30.7639530
 114.7178660 138.1027030  30.4790140 119.2255180 139.9893520  29.2324720
 119.7333400 140.4874490  29.8729740 119.7568420 139.2128720  29.0564080
 131.3266110 138.1598710  32.9354070 130.6218280 138.5480420  32.4169180
 131.5924030 138.8549000  33.5375000 117.5091280 134.6292080  33.4988140
 117.5109720 135.1464470  32.6934040 116.6795590 134.1522260  33.4758070
 123.8962370 144.7411390  24.9978040 123.2779640 145.2060840  24.4340760
 124.4085620 145.4338870  25.4147550 118.7594130 144.2687260  31.6761640
 118.4263510 144.8956180  32.3182710 118.9360810 144.7949140  30.8963310
 127.2728040 138.0832340  29.1437980 126.5683610 138.3717230  29.7241090
 127.6340200 138.8932450  28.7837540 117.1906610 136.3402040  31.5058590
 117.5323420 137.1844090  31.2112460 116.2522420 136.4885780  31.6223930
 117.9713230 146.2368060  33.4910820 118.5887230 146.9119140  33.2095270
 117.1106350 146.6456040  33.3998320 113.2645570 145.4267920  22.3717670
 112.8873550 145.9155020  21.6402570 113.5218640 146.0993200  23.0024200
 128.8890820 147.7007470  31.4065460 128.2054340 148.3706580  31.3982130
 129.4285110 147.8988120  30.6410320 130.3414960 137.5287130  29.5347190
 129.3939870 137.5626110  29.6662620 130.6664950 138.3426080  29.9196550
 120.8734500 133.8284310  27.8303180 121.1809480 133.2731200  27.1138680
 119.9435200 133.9628770  27.6476170 126.4249560 149.5451600  30.1210640
 126.4376720 149.1413890  29.2532900 125.8724780 150.3198890  30.0172070
 127.7194980 146.2667820  25.2100810 127.6091310 145.3242150  25.3350230
 127.7163230 146.6283460  26.0963570 125.8235000 144.4481440  31.4493250
 126.2403790 144.2341550  30.6146710 126.5474820 144.7054230  32.0201870
 123.2615260 141.8933140  24.5663300 122.3344540 141.8270520  24.7951770
 123.4140080 142.8313270  24.4518540 123.2484340 138.1650140  21.5630460
 122.3088010 138.3264100  21.6482920 123.5667600 138.8835820  21.0166450
 129.7697100 142.8468660  31.5409490 128.9415730 142.9161750  31.0659620
 130.3647580 143.4322970  31.0725320 127.2912550 143.4553440  25.0698550
 126.6724970 143.1172990  24.4224850 127.2737000 142.8113200  25.7777740
 126.7339110 139.6337980  32.4864360 126.3210290 140.4591690  32.7404350
 126.0015060 139.0483020  32.2940720 118.8671900 142.4197880  27.3483030
 118.4628900 141.7075130  26.8528930 118.9535020 142.0751120  28.2371070
 119.3353600 146.1065440  29.5122240 119.0381890 145.5010910  28.8330020
 120.2853420 146.1442750  29.4011600 117.5800520 139.1941090  31.1282070
 118.1315110 139.3036430  30.3535320 118.0944030 139.5678690  31.8437300
 127.4239210 149.6797310  33.1745340 126.9469770 150.4869500  32.9817950
 126.7401000 149.0275640  33.3271550 118.4272030 145.8447130  36.1630040
 117.5300560 146.0687100  36.4103440 118.4524900 145.9682070  35.2141440
 125.4677250 142.6940250  22.0771300 125.9070530 141.8562680  21.9309120
 126.1805670 143.3269650  22.1635440 117.2543250 142.7160450  34.7387410
 117.1151020 143.5883250  35.1074810 116.3724610 142.3733260  34.5935350
 123.5772630 147.6336320  26.0452540 124.0168540 148.3760650  25.6307930
 123.5159520 147.8762890  26.9691500 119.0523600 148.6582150  36.9472560
 119.0239030 149.0625100  36.0800990 118.8888570 147.7292510  36.7844160
 129.0494390 133.9483060  20.3912340 128.7367050 134.0409890  21.2911410
 129.8106860 134.5264090  20.3409770 115.5676530 141.3142860  24.8489680
 115.4474130 142.0404950  24.2370950 115.2577420 140.5445770  24.3717590
 131.0038420 149.4409250  38.2436730 131.4798140 149.9192140  38.9225810
 131.6245580 149.3726740  37.5182230 113.2061900 144.4858000  30.6558320
 113.2842320 144.6206770  29.7114040 113.8203580 143.7773890  30.8486440
 114.4509530 146.1858190  27.0664500 114.0437610 146.3272780  26.2118100
 115.3422540 145.9018350  26.8635710 130.4071670 146.6322100  35.4036740
 130.5334730 146.3933980  34.4853920 130.4493050 145.8006640  35.8758820
 124.2688410 150.3350100  33.9731550 124.7833080 150.2458110  34.7753980
 123.4257490 150.6809800  34.2659460 126.2442810 150.6205440  23.4015550
 126.0843950 150.3308380  24.2997380 126.0789520 149.8445570  22.8660780
 118.7231190 150.4003970  25.1787170 118.5473670 149.4839510  24.9654970
 117.8686930 150.7591260  25.4184970 125.9468940 148.1293000  21.9613550
 125.2534100 148.1270290  21.3015830 126.6891800 147.7052320  21.5307720
 125.5118870 149.7555710  26.0362040 125.9675820 148.9745090  26.3500660
 125.8511390 150.4662530  26.5803220 130.2595680 138.6854560  36.3686480
 129.6439950 139.1934230  35.8401940 129.9392100 137.7852890  36.3112420
 113.2621420 145.5272170  33.1952780 113.4252460 145.0577530  32.3772150
 113.7273870 145.0195730  33.8601620 118.0340190 134.6577930  28.2313350
 117.5908340 135.4387470  27.8997870 118.5925180 134.9807820  28.9384290
 122.3210000 137.5246450  33.8348670 121.8589370 137.7329470  34.6468610
 121.9188110 136.7105800  33.5319340 127.3214510 138.7455400  34.9645330
 126.4708100 138.4461150  35.2854400 127.1616300 138.9897410  34.0529150
 124.4164220 140.2457150  37.0644120 124.7417630 139.4120900  36.7246350
 125.2044550 140.7685670  37.2122450 121.1499010 134.2788630  23.1119180
 120.5253190 134.2748500  23.8372490 121.0629130 133.4119590  22.7155150
 120.0716090 135.2025260  30.0902950 120.3688420 136.1088090  30.0094970
 120.6201650 134.7144040  29.4762520 117.8254410 139.7811500  25.9594600
 117.5995330 139.5648670  26.8641220 117.0446940 140.2139960  25.6140570
 125.0552170 139.7874870  24.5585250 124.4561060 140.5110670  24.3748870
 125.6031780 139.7251650  23.7761700 120.2653620 140.6797080  36.6254870
 120.1697220 139.7391810  36.4755270 121.1085600 140.9012150  36.2302940
 123.6617040 138.4238410  26.5888530 124.0546610 138.7410610  25.7757220
 124.0233890 137.5450290  26.7033050 115.3964160 137.0910750  34.7788650
 115.0027550 137.9385960  34.9861430 114.7082560 136.4537120  34.9697290
 121.9709210 137.1745720  37.8485390 121.2807530 136.9817920  38.4831480
 122.7141510 137.4580360  38.3809690 112.6981210 135.0139210  28.8118730
 112.4094260 135.5842070  29.5243710 113.4426970 134.5343660  29.1749960
 112.8851440 138.9559330  20.0221450 112.8026110 139.8990090  20.1636440
 112.5334500 138.8134240  19.1433800 124.2472180 141.0144160  30.6839310
 123.5153300 141.5230970  31.0329410 123.8496520 140.1974140  30.3828090
 120.6849570 137.6898360  29.0891800 120.6885630 137.2488310  28.2396340
 121.5800690 138.0115690  29.1963620 116.5351950 137.5724850  28.0486010
 116.1952000 138.0500080  28.8053060 115.7729270 137.1189970  27.6887110
 120.7469720 138.6910440  22.0798560 120.8682540 138.6496920  23.0284380
 120.3618230 139.5534590  21.9245290 124.7098090 136.4677840  30.0962250
 124.7270830 136.9186490  30.9404100 124.4613670 135.5683480  30.3095690
 119.7591220 141.0011580  21.4781860 119.1908120 140.5529830  20.8517770
 120.4680220 141.3604360  20.9447010 128.1368840 133.8810020  35.9348630
 128.4614610 133.1499680  36.4606610 128.1725350 133.5623660  35.0329620
 114.8360400 144.9023600  35.3548590 114.4515190 144.2617270  35.9531550
 115.1472590 145.6059720  35.9243320 120.9857540 141.7500140  30.8357210
 121.3527670 141.2758710  31.5818550 120.7962600 142.6241710  31.1765550
 113.8498030 136.4943830  26.9650680 113.5644950 136.1299500  27.8029300
 113.7876890 135.7624290  26.3513820 118.7756910 140.7908780  33.1541420
 118.4713980 141.6700760  33.3791780 119.7303370 140.8508570  33.1898860
 117.3038700 144.9969770  23.7508270 116.5300960 144.4567390  23.5906990
 118.0333330 144.4776380  23.4126030 128.0626680 143.9935130  29.5434660
 128.7825800 144.4890420  29.1530770 127.8608500 143.3153020  28.8988530
 123.5236620 135.3873090  23.6864050 122.7101230 134.8886260  23.6109360
 123.3298570 136.2271340  23.2700400 123.4445480 144.0644190  35.4303660
 123.3782790 143.1439860  35.1761250 122.8150620 144.1619630  36.1448300
 126.2385010 139.7592740  21.9826210 127.1264630 140.0709970  21.8077550
 126.2090100 138.8864990  21.5906790 117.3476100 144.6650150  27.3887080
 117.8654770 143.8618410  27.3343970 116.8960120 144.6029290  28.2303910
 122.2345600 145.9316430  22.6614380 122.5761300 146.6758660  22.1657700
 121.4058310 146.2447550  23.0239210 114.8320640 141.6311520  34.3012780
 114.4735580 142.2965370  34.8886120 114.5375200 140.7995070  34.6725400
 118.0333760 142.0895760  37.1852330 117.7333900 142.2352940  36.2880150
 118.8045000 141.5301050  37.0925720 123.3762210 146.8864760  35.1807460
 123.3906750 145.9545720  34.9626370 122.6687310 146.9724520  35.8197230
 128.5099280 141.0704580  21.4506070 128.4263000 141.5018800  20.6002510
 129.2293470 141.5302930  21.8832890 129.5873420 143.5272100  34.5276040
 128.8621610 144.1200880  34.3305430 130.1148880 143.5195640  33.7289410
 129.5386530 147.9246840  24.1788200 128.8962690 147.2702460  24.4531920
 129.1517190 148.3301930  23.4028870 125.1173010 145.2532270  28.0259890
 125.4696830 144.6560400  27.3661260 124.2335340 144.9276500  28.1968140
 121.2036290 146.0129960  25.4330300 121.8907420 146.5599170  25.8137890
 120.4168710 146.5570690  25.4679910 113.3428690 141.6302780  20.9247380
 114.2123540 141.9127580  21.2083300 112.8519010 142.4438650  20.8096190
 120.5063500 143.0175990  25.0455660 120.9626280 143.8281240  25.2715850
 120.1551710 142.6999130  25.8774150 122.8096110 148.5282330  32.2747960
 123.4538330 148.7341710  32.9521380 123.1725550 147.7670730  31.8218810
 116.4075280 133.3613640  25.5178180 116.2789910 133.3531540  26.4663100
 115.5837300 133.6996730  25.1669190 124.0828190 146.5314680  30.9925410
 124.7250420 145.8307840  31.1057580 124.6077540 147.3113120  30.8122300
 127.9283910 146.8163300  20.7164550 127.7021490 146.0993740  21.3089190
 127.5380110 146.5675740  19.8786300 125.8565810 147.3309580  34.1961470
 126.1922050 147.9176270  34.8739390 124.9366150 147.2002290  34.4259260
 113.7099940 150.8430160  21.4909010 114.0697580 151.4419500  20.8366280
 113.5692280 151.3890050  22.2644040 113.4069210 135.1204760  34.9784880
 112.6927730 135.3201680  35.5837490 113.8264250 134.3444330  35.3499680
 127.5100160 144.7335240  22.3778710 127.2221860 145.1947930  23.1656590
 128.3052330 144.2733010  22.6462930 113.6941800 149.1085020  35.9651410
 113.8032920 148.1679760  35.8246800 113.0422360 149.3739770  35.3165140
 121.6854390 147.3800910  37.3649530 121.3651260 146.6610150  37.9095220
 121.0112750 148.0555980  37.4385590 119.7268560 148.2261360  22.3082680
 119.7178660 148.9591050  21.6927190 118.8066920 147.9792940  22.4009640
 115.3275200 143.4476250  23.0529440 114.7203150 144.1875150  23.0624740
 115.8024550 143.5375610  22.2267640 124.9007990 137.6127070  32.7286330
 125.2688810 136.7922280  33.0565900 124.0406190 137.6728960  33.1441980
 128.2670020 136.5684010  23.5373890 127.6383180 136.6729680  22.8232120
 127.7721940 136.7880790  24.3267770 122.7128160 148.2889600  20.9707870
 122.8140140 148.0853590  20.0409850 121.8129900 148.0347880  21.1755650
 120.2354050 138.8469960  24.9531770 119.5270200 139.3156300  25.3945380
 120.5198530 138.1891970  25.5876960 121.8609980 140.2666660  32.9524300
 122.3595230 140.7412480  33.6176150 122.0032930 139.3430180  33.1594330
 124.2669480 135.5720620  26.3927560 124.1437260 135.5906750  25.4437070
 125.2154040 135.6199560  26.5125960 121.3546270 150.8075920  25.6655540
 121.6087770 150.7697310  24.7434910 120.4058750 150.6809250  25.6583790
 118.4389070 137.1555040  22.3282480 119.2879600 137.5925190  22.2622670
 118.0720340 137.4675300  23.1554540 129.0676840 136.4834620  33.7952690
 128.5650440 137.2240020  34.1346500 129.8833500 136.8718620  33.4789480
 127.3598850 141.7267800  27.2414050 126.4188990 141.7418030  27.4161740
 127.6742920 140.9403760  27.6874350 117.3380490 143.4087400  20.8018010
 118.1043760 143.2968760  21.3643440 117.4155180 142.7125370  20.1494780
 116.0327250 140.8412470  21.4850900 116.1130840 139.8939980  21.5968300
 116.9247000 141.1719350  21.5911560 129.3624430 148.8976650  28.9168310
 129.4871850 149.7207820  29.3892120 130.2289990 148.6867380  28.5692460
 113.7187440 147.0581430  24.4626950 112.7927220 147.3002570  24.4532360
 114.1843870 147.8855690  24.3411700 115.8400240 150.1753930  37.7771020
 116.6412970 150.4965980  38.1906420 115.3252060 149.8149510  38.4990930
 119.9444270 150.1638170  20.4111010 120.7372880 150.4527000  19.9592800
 119.4248620 149.7330340  19.7323490 124.6764870 146.2833800  37.7246430
 124.0703030 146.3065400  36.9842180 124.3718980 145.5516840  38.2613680
 126.1065240 150.0114090  36.3355840 127.0586990 149.9272110  36.2856080
 125.9593460 150.6755800  37.0089630 128.9974440 149.3908300  21.8347750
 128.7115950 148.9773440  21.0201930 128.7993990 150.3196010  21.7148270
 113.5598050 142.6627390  36.7207070 114.0637070 142.0834670  37.2923300
 112.8205470 142.9467620  37.2583440 120.4621670 145.3841580  20.2753360
 120.3572310 144.7693930  21.0014740 120.2945890 144.8607470  19.4916370
 120.6135990 144.0698380  36.2542590 119.8481660 144.6383380  36.1697260
 120.7951950 143.7774590  35.3610820 123.7024400 144.4461610  20.8795350
 123.1534500 144.8930910  21.5238090 124.3243660 143.9410860  21.4033020
 127.7559340 145.8003710  36.8117610 128.4968810 146.1379470  36.3085070
 126.9932020 145.9695770  36.2587380 115.5921130 140.8056980  37.6157140
 115.6326470 140.5070850  38.5242370 116.4466630 141.2064590  37.4564660
 119.3699520 143.4052530  22.7760650 119.7915940 143.2392400  23.6192040
 119.4950360 142.5952760  22.2815790 117.5326940 139.3849080  35.5831630
 117.0023400 138.8940030  34.9554970 118.2015010 139.8133280  35.0489560
 121.8827160 142.4290140  20.0237750 122.4032820 141.7139160  19.6578900
 122.5295560 143.0676010  20.3238260 126.4305000 143.8518540  35.3472820
 126.8446020 144.0063620  36.1963240 125.4956000 143.9773760  35.5098600
 126.9027170 141.1914700  37.3511970 127.4847940 140.4367020  37.2632450
 127.0788940 141.7222140  36.5743450 118.0199240 136.3511450  35.6628920
 117.9256110 135.7332200  34.9379790 117.4396630 137.0777740  35.4358830
 120.7860680 134.9084690  32.6956310 120.3377980 134.9308950  31.8501860
 120.1525880 134.5103710  33.2926610 121.1920230 143.8039020  33.3168750
 121.6108340 144.6471750  33.1444990 120.2728860 143.9411060  33.0875530
 123.5284130 141.5355200  34.7006590 123.6480340 140.9396340  35.4401430
 124.3878130 141.5724890  34.2807890 125.8672030 142.0892390  33.2769100
 125.3407250 142.6135010  32.6734240 126.2103370 142.7219780  33.9078830
 118.2658420 139.4785760  19.7218810 118.0647480 138.6153120  20.0832150
 118.0950470 139.3919120  18.7840410 119.0427650 150.1092030  34.4326480
 118.5048740 150.8338090  34.1135180 119.2961610 149.6322370  33.6423820
 120.2952900 138.0776550  35.9582410 120.8852590 137.7692400  36.6460230
 119.4773140 137.6056300  36.1142310 125.1146330 137.6942360  36.1915430
 124.4261850 137.0323900  36.1265420 125.8352350 137.2480630  36.6363890
 125.7446730 134.2893990  22.2505690 126.0249020 133.4461890  22.6065110
 124.9712460 134.5217100  22.7644440 117.0641220 136.5786380  19.7096690
 117.3667120 136.5853810  18.8015840 117.8035810 136.2284240  20.2064350
 120.2826150 135.5221000  20.6952890 119.9348150 134.8444990  20.1155340
 120.4838920 135.0610510  21.5096280 122.4475190 150.5101750  22.3139490
 123.3425980 150.8486720  22.3358250 122.4792820 149.7881160  21.6863770
 116.0871350 145.8828800  20.5426490 116.5246220 146.4258470  21.1984070
 116.5719080 145.0575750  20.5522830 113.3017150 148.6717830  27.9946750
 113.6320160 147.8038890  27.7625390 113.7308150 148.8776350  28.8251710
 117.8979070 147.0026840  25.6548720 117.5974610 146.8791810  26.5552630
 117.7916560 146.1435430  25.2464450 113.7907360 149.5388420  30.7328380
 113.3538350 149.7189220  31.5652530 114.3585040 150.2963040  30.5910100
 129.4269540 149.0405420  35.0205690 128.8271530 149.0997980  34.2769610
 129.5563440 148.1010400  35.1502540 130.6670990 146.7823240  20.3575400
 129.8363950 146.8499890  20.8282630 130.8442820 147.6727360  20.0542260
 130.1227450 143.5270720  22.8609600 130.8846360 144.0967370  22.9669290
 130.1381820 142.9597920  23.6317910 113.6231790 142.0508650  27.0917260
 112.9680630 141.7820290  26.4476960 114.4609740 141.9413130  26.6419240
 131.1287420 144.3820820  27.7051530 131.4996250 143.5988140  27.2987500
 131.7689350 145.0709920  27.5268830 128.1121180 145.7657400  33.1181850
 127.2981020 146.1954560  33.3807640 128.5195380 146.3775810  32.5050900
 130.1746620 143.8205090  20.0182120 130.4495460 144.7283970  19.8901340
 129.9857360 143.7567620  20.9544110 126.5722230 136.8449940  21.3135750
 126.9907110 136.6580920  20.4732410 126.2658290 135.9928990  21.6238680
 130.0711960 141.7574080  25.0111550 129.6955560 140.9902010  24.5792840
 129.3415080 142.1396780  25.4986480 114.6607720 142.4361220  31.6320600
 115.0280760 142.3488620  32.5116620 114.0918540 141.6727770  31.5327460
 129.4611580 140.9045600  34.6451070 129.2297670 140.6758350  33.7449020
 129.7216130 141.8245150  34.5995960 114.2123720 139.3470310  35.5379020
 113.3179770 139.3137070  35.8772730 114.7521270 139.5457100  36.3030270
 127.8999650 136.1302030  37.4230770 128.7769830 136.1385430  37.8064770
 127.9120490 135.3932870  36.8123120 112.8369870 139.2607580  23.0342590
 111.9333950 139.5237780  22.8594250 113.3210490 139.5318750  22.2542550
 129.3462920 139.9831570  28.3118790 129.8700400 139.4894220  27.6808960
 129.9322340 140.1181930  29.0566360 129.5252640 140.0671440  31.8338340
 128.5755350 140.0334980  31.9483330 129.7065650 140.9771550  31.5988110
 115.3797080 138.3173120  20.9436970 116.0888780 137.8956340  20.4584250
 114.6637020 138.3848350  20.3120320 115.0271240 134.3712450  19.9839620
 115.7499370 134.9121390  20.3020840 115.2995760 134.0975870  19.1081160
 128.8362890 139.2404920  24.2511200 129.3322010 139.0075790  25.0360080
 128.6378960 138.4016760  23.8348840 114.7163430 133.6218640  29.8862240
 115.3639620 133.0716020  29.4457400 115.1365270 133.8761790  30.7078050
 130.2650050 137.8765870  26.7848880 130.1549330 137.7221910  27.7231150
 131.0257640 137.3486810  26.5424290 128.6115770 133.8160000  33.2431880
 129.2487990 134.4294140  33.6091070 128.7590660 133.8520660  32.2981110
 131.1540320 135.7073790  20.0255020 132.0789630 135.5754970  19.8173310
 131.1316110 135.7866610  20.9791470 131.2278810 136.4784450  22.6511730
 130.4330310 136.4129570  23.1804640 131.4322090 137.4135090  22.6397080
 128.1697230 150.5176000  26.6450120 128.7656300 150.1960570  25.9684540
 128.4275380 150.0447820  27.4363390 114.4695430 133.7774310  32.6287560
 114.1210250 134.2338130  33.3945740 114.1383130 132.8831440  32.7109990
 116.0759800 146.9493910  36.7940750 116.0329430 146.5786820  37.6755210
 116.2070810 147.8871480  36.9342570 119.7765830 148.5053500  32.3950470
 119.5357190 148.7728060  31.5080990 120.7168470 148.6759230  32.4501330
 121.9820250 134.9686190  36.1506980 121.9209140 135.5608020  36.9002390
 122.9220630 134.8612150  36.0057240 124.6194810 134.6256250  35.7899270
 125.2335220 134.9435540  35.1280350 125.1644370 134.1404840  36.4095130
 131.0369990 150.5247880  33.1961110 130.5428270 150.9216750  32.4788240
 130.4283280 149.8997090  33.5898390 115.1416070 133.3050510  35.9038330
 115.6899060 133.1238560  35.1404440 115.2071380 132.5144620  36.4394640
 115.9147830 149.8956160  33.9138530 115.3208150 149.7640860  34.6528570
 115.9071670 149.0594300  33.4480630 125.3602850 133.1888390  32.1168560
 124.4862690 133.5223500  31.9141490 125.2513600 132.7161570  32.9420430
 126.2674830 135.3959260  33.5010280 125.9388190 134.5811020  33.1212010
 127.2157130 135.3529070  33.3775970 115.5460060 147.2614540  32.8646570
 114.8194120 146.6419830  32.7972520 115.6069210 147.6555150  31.9944650
 119.1505160 149.4759540  29.6495980 119.6670180 148.8646900  29.1244240
 119.8002540 149.9788320  30.1406990 121.8900660 150.3668030  30.4764960
 122.1778470 150.1122330  29.5997970 122.4023880 149.8145390  31.0670530
 123.1077670 134.1058230  31.0561470 122.3249460 134.5803730  31.3358230
 122.8140600 133.2013060  30.9474650 127.6598740 134.8081330  29.1010560
 128.1006830 134.7526430  28.2532160 127.3906330 135.7239340  29.1720740
 129.5237310 134.4396570  27.1119380 129.4625710 133.4957790  26.9650400
 130.3029340 134.5476660  27.6572840 113.8290060 150.5788930  26.0743330
 113.6612100 149.9459610  26.7725220 112.9624570 150.7848330  25.7237520
 114.4518080 134.4105710  23.5775190 115.2097440 134.5234590  23.0039220
 113.9895250 135.2474910  23.5318620 120.9931890 136.5244980  26.5677500
 120.1806400 136.1501870  26.2273380 121.4973530 135.7690060  26.8698690
 125.4956870 133.1887430  27.8060570 126.0986240 133.7607640  28.2809090
 124.7549860 133.7526870  27.5834470 128.6391470 133.5908990  23.0800850
 128.8342100 134.4892440  23.3468280 127.8521340 133.3596070  23.5733800
 115.4352760 149.2722160  23.5193470 114.9100380 149.6530190  22.8155430
 115.3597340 149.8972930  24.2403180 116.8243230 134.9369760  22.1177160
 117.3535990 134.1499560  21.9885110 117.4571550 135.6160950  22.3512690
 119.0181070 134.6744900  25.1722550 118.3883810 133.9732210  25.3392680
 118.4786210 135.4349030  24.9555710 130.1918080 150.8309700  24.8407410
 130.3670270 150.1447440  24.1968330 129.4939650 151.3556750  24.4484080
 119.1436630 133.9528880  37.6075040 118.8620900 134.4562480  36.8435860
 119.5256330 133.1550630  37.2417170 118.0345730 151.2204540  22.3942720
 118.7664550 150.9363820  21.8466610 118.2939400 150.9817820  23.2842100
 117.1960520 147.3369270  22.3989050 116.5669400 147.8054370  22.9474880
 117.3108350 146.4918490  22.8335240 125.7452090 133.3682460  38.1855510
 125.6317540 133.6877070  39.0807030 126.5621830 133.7694970  37.8892790
 128.5250580 150.5153990  37.6674200 129.3175900 150.0203220  37.4600160
 128.8183730 151.1944130  38.2749810 124.6510240 141.3874930   8.5490250
 124.5704290 140.4729540   8.2781960 124.2374660 141.8842000   7.8429960
 122.7828280 143.1653950  10.4299520 122.0070380 142.6854390  10.7198090
 123.4341210 142.4859600  10.2555680 116.7994110 143.4773760  11.3075280
 115.9678990 143.2222470  11.7071790 117.4075090 143.5484530  12.0433200
 126.8035710 147.5714140   9.2098650 126.3417240 146.8001380   9.5385820
 127.6161260 147.5980210   9.7151100 116.7795370 147.5113850  11.5033300
 117.0823410 146.6211590  11.3243520 117.5238960 148.0684070  11.2755550
 115.2086060 138.4375650   5.0917670 114.3202760 138.7791620   4.9897550
 115.4927250 138.2375970   4.1998500 113.1719070 141.0381300  10.9757370
 113.7435180 140.2703500  10.9761010 113.1720610 141.3370060  10.0663980
 123.0299020 149.8572150   8.8302640 122.4110460 150.3129650   8.2597080
 123.8850800 150.0123610   8.4292340 122.2237270 145.8411140  10.4369680
 122.1545550 144.9001080  10.2758810 122.9857130 145.9312550  11.0092250
 114.4143940 136.4465660  12.7626300 114.2346780 135.5491410  13.0429060
 114.0124020 136.9937530  13.4373250 123.2542440 138.6481520  10.6638610
 123.6307260 137.7753400  10.5512280 123.1561950 138.9840220   9.7729050
 117.3847450 137.0207150   6.1256050 117.4914200 137.9210880   6.4324810
 116.4739810 136.9725120   5.8350700 127.0366560 136.1431960   7.5966950
 127.8576180 135.6528530   7.6392430 127.0700640 136.7329620   8.3498790
 115.0330610 138.9426160  11.3708640 115.7140720 139.2064530  11.9896040
 114.7178660 138.1027030  11.7046650 119.2255180 139.9893520  10.4581230
 119.7333400 140.4874490  11.0986250 119.7568420 139.2128720  10.2820590
 131.3266110 138.1598710  14.1610580 130.6218280 138.5480420  13.6425690
 131.5924030 138.8549000  14.7631510 117.5091280 134.6292080  14.7244650
 117.5109720 135.1464470  13.9190550 116.6795590 134.1522260  14.7014580
 123.8962370 144.7411390   6.2234550 123.2779640 145.2060840   5.6597270
 124.4085620 145.4338870   6.6404060 118.7594130 144.2687260  12.9018150
 118.4263510 144.8956180  13.5439220 118.9360810 144.7949140  12.1219820
 127.2728040 138.0832340  10.3694490 126.5683610 138.3717230  10.9497600
 127.6340200 138.8932450  10.0094050 117.1906610 136.3402040  12.7315100
 117.5323420 137.1844090  12.4368970 116.2522420 136.4885780  12.8480440
 117.9713230 146.2368060  14.7167330 118.5887230 146.9119140  14.4351780
 117.1106350 146.6456040  14.6254830 113.2645570 145.4267920   3.5974180
 112.8873550 145.9155020   2.8659080 113.5218640 146.0993200   4.2280710
 128.8890820 147.7007470  12.6321970 128.2054340 148.3706580  12.6238640
 129.4285110 147.8988120  11.8666830 130.3414960 137.5287130  10.7603700
 129.3939870 137.5626110  10.8919130 130.6664950 138.3426080  11.1453060
 120.8734500 133.8284310   9.0559690 121.1809480 133.2731200   8.3395190
 119.9435200 133.9628770   8.8732680 126.4249560 149.5451600  11.3467150
 126.4376720 149.1413890  10.4789410 125.8724780 150.3198890  11.2428580
 127.7194980 146.2667820   6.4357320 127.6091310 145.3242150   6.5606740
 127.7163230 146.6283460   7.3220080 125.8235000 144.4481440  12.6749760
 126.2403790 144.2341550  11.8403220 126.5474820 144.7054230  13.2458380
 123.2615260 141.8933140   5.7919810 122.3344540 141.8270520   6.0208280
 123.4140080 142.8313270   5.6775050 123.2484340 138.1650140   2.7886970
 122.3088010 138.3264100   2.8739430 123.5667600 138.8835820   2.2422960
 129.7697100 142.8468660  12.7666000 128.9415730 142.9161750  12.2916130
 130.3647580 143.4322970  12.2981830 127.2912550 143.4553440   6.2955060
 126.6724970 143.1172990   5.6481360 127.2737000 142.8113200   7.0034250
 126.7339110 139.6337980  13.7120870 126.3210290 140.4591690  13.9660860
 126.0015060 139.0483020  13.5197230 118.8671900 142.4197880   8.5739540
 118.4628900 141.7075130   8.0785440 118.9535020 142.0751120   9.4627580
 119.3353600 146.1065440  10.7378750 119.0381890 145.5010910  10.0586530
 120.2853420 146.1442750  10.6268110 117.5800520 139.1941090  12.3538580
 118.1315110 139.3036430  11.5791830 118.0944030 139.5678690  13.0693810
 127.4239210 149.6797310  14.4001850 126.9469770 150.4869500  14.2074460
 126.7401000 149.0275640  14.5528060 118.4272030 145.8447130  17.3886550
 117.5300560 146.0687100  17.6359950 118.4524900 145.9682070  16.4397950
 125.4677250 142.6940250   3.3027810 125.9070530 141.8562680   3.1565630
 126.1805670 143.3269650   3.3891950 117.2543250 142.7160450  15.9643920
 117.1151020 143.5883250  16.3331320 116.3724610 142.3733260  15.8191860
 123.5772630 147.6336320   7.2709050 124.0168540 148.3760650   6.8564440
 123.5159520 147.8762890   8.1948010 119.0523600 148.6582150  18.1729070
 119.0239030 149.0625100  17.3057500 118.8888570 147.7292510  18.0100670
 115.5676530 141.3142860   6.0746190 115.4474130 142.0404950   5.4627460
 115.2577420 140.5445770   5.5974100 131.0038420 149.4409250  19.4693240
 131.4798140 149.9192140  20.1482320 131.6245580 149.3726740  18.7438740
 113.2061900 144.4858000  11.8814830 113.2842320 144.6206770  10.9370550
 113.8203580 143.7773890  12.0742950 114.4509530 146.1858190   8.2921010
 114.0437610 146.3272780   7.4374610 115.3422540 145.9018350   8.0892220
 130.4071670 146.6322100  16.6293250 130.5334730 146.3933980  15.7110430
 130.4493050 145.8006640  17.1015330 124.2688410 150.3350100  15.1988060
 124.7833080 150.2458110  16.0010490 123.4257490 150.6809800  15.4915970
 126.2442810 150.6205440   4.6272060 126.0843950 150.3308380   5.5253890
 126.0789520 149.8445570   4.0917290 118.7231190 150.4003970   6.4043680
 118.5473670 149.4839510   6.1911480 117.8686930 150.7591260   6.6441480
 125.9468940 148.1293000   3.1870060 125.2534100 148.1270290   2.5272340
 126.6891800 147.7052320   2.7564230 125.5118870 149.7555710   7.2618550
 125.9675820 148.9745090   7.5757170 125.8511390 150.4662530   7.8059730
 130.2595680 138.6854560  17.5942990 129.6439950 139.1934230  17.0658450
 129.9392100 137.7852890  17.5368930 113.2621420 145.5272170  14.4209290
 113.4252460 145.0577530  13.6028660 113.7273870 145.0195730  15.0858130
 118.0340190 134.6577930   9.4569860 117.5908340 135.4387470   9.1254380
 118.5925180 134.9807820  10.1640800 122.3210000 137.5246450  15.0605180
 121.8589370 137.7329470  15.8725120 121.9188110 136.7105800  14.7575850
 127.3214510 138.7455400  16.1901840 126.4708100 138.4461150  16.5110910
 127.1616300 138.9897410  15.2785660 124.4164220 140.2457150  18.2900630
 124.7417630 139.4120900  17.9502860 125.2044550 140.7685670  18.4378960
 121.1499010 134.2788630   4.3375690 120.5253190 134.2748500   5.0629000
 121.0629130 133.4119590   3.9411660 120.0716090 135.2025260  11.3159460
 120.3688420 136.1088090  11.2351480 120.6201650 134.7144040  10.7019030
 117.8254410 139.7811500   7.1851110 117.5995330 139.5648670   8.0897730
 117.0446940 140.2139960   6.8397080 125.0552170 139.7874870   5.7841760
 124.4561060 140.5110670   5.6005380 125.6031780 139.7251650   5.0018210
 120.2653620 140.6797080  17.8511380 120.1697220 139.7391810  17.7011780
 121.1085600 140.9012150  17.4559450 123.6617040 138.4238410   7.8145040
 124.0546610 138.7410610   7.0013730 124.0233890 137.5450290   7.9289560
 115.3964160 137.0910750  16.0045160 115.0027550 137.9385960  16.2117940
 114.7082560 136.4537120  16.1953800 121.9709210 137.1745720  19.0741900
 121.2807530 136.9817920  19.7087990 122.7141510 137.4580360  19.6066200
 112.6981210 135.0139210  10.0375240 112.4094260 135.5842070  10.7500220
 113.4426970 134.5343660  10.4006470 124.2472180 141.0144160  11.9095820
 123.5153300 141.5230970  12.2585920 123.8496520 140.1974140  11.6084600
 120.6849570 137.6898360  10.3148310 120.6885630 137.2488310   9.4652850
 121.5800690 138.0115690  10.4220130 116.5351950 137.5724850   9.2742520
 116.1952000 138.0500080  10.0309570 115.7729270 137.1189970   8.9143620
 120.7469720 138.6910440   3.3055070 120.8682540 138.6496920   4.2540890
 120.3618230 139.5534590   3.1501800 124.7098090 136.4677840  11.3218760
 124.7270830 136.9186490  12.1660610 124.4613670 135.5683480  11.5352200
 119.7591220 141.0011580   2.7038370 119.1908120 140.5529830   2.0774280
 120.4680220 141.3604360   2.1703520 128.1368840 133.8810020  17.1605140
 128.4614610 133.1499680  17.6863120 128.1725350 133.5623660  16.2586130
 114.8360400 144.9023600  16.5805100 114.4515190 144.2617270  17.1788060
 115.1472590 145.6059720  17.1499830 120.9857540 141.7500140  12.0613720
 121.3527670 141.2758710  12.8075060 120.7962600 142.6241710  12.4022060
 113.8498030 136.4943830   8.1907190 113.5644950 136.1299500   9.0285810
 113.7876890 135.7624290   7.5770330 118.7756910 140.7908780  14.3797930
 118.4713980 141.6700760  14.6048290 119.7303370 140.8508570  14.4155370
 117.3038700 144.9969770   4.9764780 116.5300960 144.4567390   4.8163500
 118.0333330 144.4776380   4.6382540 128.0626680 143.9935130  10.7691170
 128.7825800 144.4890420  10.3787280 127.8608500 143.3153020  10.1245040
 123.5236620 135.3873090   4.9120560 122.7101230 134.8886260   4.8365870
 123.3298570 136.2271340   4.4956910 123.4445480 144.0644190  16.6560170
 123.3782790 143.1439860  16.4017760 122.8150620 144.1619630  17.3704810
 126.2385010 139.7592740   3.2082720 127.1264630 140.0709970   3.0334060
 126.2090100 138.8864990   2.8163300 117.3476100 144.6650150   8.6143590
 117.8654770 143.8618410   8.5600480 116.8960120 144.6029290   9.4560420
 122.2345600 145.9316430   3.8870890 122.5761300 146.6758660   3.3914210
 121.4058310 146.2447550   4.2495720 114.8320640 141.6311520  15.5269290
 114.4735580 142.2965370  16.1142630 114.5375200 140.7995070  15.8981910
 118.0333760 142.0895760  18.4108840 117.7333900 142.2352940  17.5136660
 118.8045000 141.5301050  18.3182230 123.3762210 146.8864760  16.4063970
 123.3906750 145.9545720  16.1882880 122.6687310 146.9724520  17.0453740
 128.5099280 141.0704580   2.6762580 128.4263000 141.5018800   1.8259020
 129.2293470 141.5302930   3.1089400 129.5873420 143.5272100  15.7532550
 128.8621610 144.1200880  15.5561940 130.1148880 143.5195640  14.9545920
 129.5386530 147.9246840   5.4044710 128.8962690 147.2702460   5.6788430
 129.1517190 148.3301930   4.6285380 125.1173010 145.2532270   9.2516400
 125.4696830 144.6560400   8.5917770 124.2335340 144.9276500   9.4224650
 121.2036290 146.0129960   6.6586810 121.8907420 146.5599170   7.0394400
 120.4168710 146.5570690   6.6936420 113.3428690 141.6302780   2.1503890
 114.2123540 141.9127580   2.4339810 112.8519010 142.4438650   2.0352700
 120.5063500 143.0175990   6.2712170 120.9626280 143.8281240   6.4972360
 120.1551710 142.6999130   7.1030660 122.8096110 148.5282330  13.5004470
 123.4538330 148.7341710  14.1777890 123.1725550 147.7670730  13.0475320
 116.4075280 133.3613640   6.7434690 116.2789910 133.3531540   7.6919610
 115.5837300 133.6996730   6.3925700 124.0828190 146.5314680  12.2181920
 124.7250420 145.8307840  12.3314090 124.6077540 147.3113120  12.0378810
 125.8565810 147.3309580  15.4217980 126.1922050 147.9176270  16.0995900
 124.9366150 147.2002290  15.6515770 113.7099940 150.8430160   2.7165520
 114.0697580 151.4419500   2.0622790 113.5692280 151.3890050   3.4900550
 113.4069210 135.1204760  16.2041390 112.6927730 135.3201680  16.8094000
 113.8264250 134.3444330  16.5756190 127.5100160 144.7335240   3.6035220
 127.2221860 145.1947930   4.3913100 128.3052330 144.2733010   3.8719440
 113.6941800 149.1085020  17.1907920 113.8032920 148.1679760  17.0503310
 113.0422360 149.3739770  16.5421650 121.6854390 147.3800910  18.5906040
 121.3651260 146.6610150  19.1351730 121.0112750 148.0555980  18.6642100
 119.7268560 148.2261360   3.5339190 119.7178660 148.9591050   2.9183700
 118.8066920 147.9792940   3.6266150 115.3275200 143.4476250   4.2785950
 114.7203150 144.1875150   4.2881250 115.8024550 143.5375610   3.4524150
 124.9007990 137.6127070  13.9542840 125.2688810 136.7922280  14.2822410
 124.0406190 137.6728960  14.3698490 128.2670020 136.5684010   4.7630400
 127.6383180 136.6729680   4.0488630 127.7721940 136.7880790   5.5524280
 120.2354050 138.8469960   6.1788280 119.5270200 139.3156300   6.6201890
 120.5198530 138.1891970   6.8133470 121.8609980 140.2666660  14.1780810
 122.3595230 140.7412480  14.8432660 122.0032930 139.3430180  14.3850840
 124.2669480 135.5720620   7.6184070 124.1437260 135.5906750   6.6693580
 125.2154040 135.6199560   7.7382470 121.3546270 150.8075920   6.8912050
 121.6087770 150.7697310   5.9691420 120.4058750 150.6809250   6.8840300
 118.4389070 137.1555040   3.5538990 119.2879600 137.5925190   3.4879180
 118.0720340 137.4675300   4.3811050 129.0676840 136.4834620  15.0209200
 128.5650440 137.2240020  15.3603010 129.8833500 136.8718620  14.7045990
 127.3598850 141.7267800   8.4670560 126.4188990 141.7418030   8.6418250
 127.6742920 140.9403760   8.9130860 116.0327250 140.8412470   2.7107410
 116.1130840 139.8939980   2.8224810 116.9247000 141.1719350   2.8168070
 129.3624430 148.8976650  10.1424820 129.4871850 149.7207820  10.6148630
 130.2289990 148.6867380   9.7948970 113.7187440 147.0581430   5.6883460
 112.7927220 147.3002570   5.6788870 114.1843870 147.8855690   5.5668210
 115.8400240 150.1753930  19.0027530 116.6412970 150.4965980  19.4162930
 115.3252060 149.8149510  19.7247440 124.6764870 146.2833800  18.9502940
 124.0703030 146.3065400  18.2098690 124.3718980 145.5516840  19.4870190
 126.1065240 150.0114090  17.5612350 127.0586990 149.9272110  17.5112590
 125.9593460 150.6755800  18.2346140 128.9974440 149.3908300   3.0604260
 128.7115950 148.9773440   2.2458440 128.7993990 150.3196010   2.9404780
 113.5598050 142.6627390  17.9463580 114.0637070 142.0834670  18.5179810
 112.8205470 142.9467620  18.4839950 120.6135990 144.0698380  17.4799100
 119.8481660 144.6383380  17.3953770 120.7951950 143.7774590  16.5867330
 123.7024400 144.4461610   2.1051860 123.1534500 144.8930910   2.7494600
 124.3243660 143.9410860   2.6289530 127.7559340 145.8003710  18.0374120
 128.4968810 146.1379470  17.5341580 126.9932020 145.9695770  17.4843890
 115.5921130 140.8056980  18.8413650 115.6326470 140.5070850  19.7498880
 116.4466630 141.2064590  18.6821170 119.3699520 143.4052530   4.0017160
 119.7915940 143.2392400   4.8448550 119.4950360 142.5952760   3.5072300
 117.5326940 139.3849080  16.8088140 117.0023400 138.8940030  16.1811480
 118.2015010 139.8133280  16.2746070 126.4305000 143.8518540  16.5729330
 126.8446020 144.0063620  17.4219750 125.4956000 143.9773760  16.7355110
 126.9027170 141.1914700  18.5768480 127.4847940 140.4367020  18.4888960
 127.0788940 141.7222140  17.7999960 118.0199240 136.3511450  16.8885430
 117.9256110 135.7332200  16.1636300 117.4396630 137.0777740  16.6615340
 120.7860680 134.9084690  13.9212820 120.3377980 134.9308950  13.0758370
 120.1525880 134.5103710  14.5183120 121.1920230 143.8039020  14.5425260
 121.6108340 144.6471750  14.3701500 120.2728860 143.9411060  14.3132040
 123.5284130 141.5355200  15.9263100 123.6480340 140.9396340  16.6657940
 124.3878130 141.5724890  15.5064400 125.8672030 142.0892390  14.5025610
 125.3407250 142.6135010  13.8990750 126.2103370 142.7219780  15.1335340
 119.0427650 150.1092030  15.6582990 118.5048740 150.8338090  15.3391690
 119.2961610 149.6322370  14.8680330 120.2952900 138.0776550  17.1838920
 120.8852590 137.7692400  17.8716740 119.4773140 137.6056300  17.3398820
 125.1146330 137.6942360  17.4171940 124.4261850 137.0323900  17.3521930
 125.8352350 137.2480630  17.8620400 125.7446730 134.2893990   3.4762200
 126.0249020 133.4461890   3.8321620 124.9712460 134.5217100   3.9900950
 122.4475190 150.5101750   3.5396000 123.3425980 150.8486720   3.5614760
 122.4792820 149.7881160   2.9120280 116.0871350 145.8828800   1.7683000
 116.5246220 146.4258470   2.4240580 116.5719080 145.0575750   1.7779340
 113.3017150 148.6717830   9.2203260 113.6320160 147.8038890   8.9881900
 113.7308150 148.8776350  10.0508220 117.8979070 147.0026840   6.8805230
 117.5974610 146.8791810   7.7809140 117.7916560 146.1435430   6.4720960
 113.7907360 149.5388420  11.9584890 113.3538350 149.7189220  12.7909040
 114.3585040 150.2963040  11.8166610 129.4269540 149.0405420  16.2462200
 128.8271530 149.0997980  15.5026120 129.5563440 148.1010400  16.3759050
 130.1227450 143.5270720   4.0866110 130.8846360 144.0967370   4.1925800
 130.1381820 142.9597920   4.8574420 113.6231790 142.0508650   8.3173770
 112.9680630 141.7820290   7.6733470 114.4609740 141.9413130   7.8675750
 131.1287420 144.3820820   8.9308040 131.4996250 143.5988140   8.5244010
 131.7689350 145.0709920   8.7525340 128.1121180 145.7657400  14.3438360
 127.2981020 146.1954560  14.6064150 128.5195380 146.3775810  13.7307410
 126.5722230 136.8449940   2.5392260 126.9907110 136.6580920   1.6988920
 126.2658290 135.9928990   2.8495190 130.0711960 141.7574080   6.2368060
 129.6955560 140.9902010   5.8049350 129.3415080 142.1396780   6.7242990
 114.6607720 142.4361220  12.8577110 115.0280760 142.3488620  13.7373130
 114.0918540 141.6727770  12.7583970 129.4611580 140.9045600  15.8707580
 129.2297670 140.6758350  14.9705530 129.7216130 141.8245150  15.8252470
 114.2123720 139.3470310  16.7635530 113.3179770 139.3137070  17.1029240
 114.7521270 139.5457100  17.5286780 127.8999650 136.1302030  18.6487280
 128.7769830 136.1385430  19.0321280 127.9120490 135.3932870  18.0379630
 112.8369870 139.2607580   4.2599100 111.9333950 139.5237780   4.0850760
 113.3210490 139.5318750   3.4799060 129.3462920 139.9831570   9.5375300
 129.8700400 139.4894220   8.9065470 129.9322340 140.1181930  10.2822870
 129.5252640 140.0671440  13.0594850 128.5755350 140.0334980  13.1739840
 129.7065650 140.9771550  12.8244620 128.8362890 139.2404920   5.4767710
 129.3322010 139.0075790   6.2616590 128.6378960 138.4016760   5.0605350
 114.7163430 133.6218640  11.1118750 115.3639620 133.0716020  10.6713910
 115.1365270 133.8761790  11.9334560 130.2650050 137.8765870   8.0105390
 130.1549330 137.7221910   8.9487660 131.0257640 137.3486810   7.7680800
 128.6115770 133.8160000  14.4688390 129.2487990 134.4294140  14.8347580
 128.7590660 133.8520660  13.5237620 131.2278810 136.4784450   3.8768240
 130.4330310 136.4129570   4.4061150 131.4322090 137.4135090   3.8653590
 128.1697230 150.5176000   7.8706630 128.7656300 150.1960570   7.1941050
 128.4275380 150.0447820   8.6619900 114.4695430 133.7774310  13.8544070
 114.1210250 134.2338130  14.6202250 114.1383130 132.8831440  13.9366500
 116.0759800 146.9493910  18.0197260 116.0329430 146.5786820  18.9011720
 116.2070810 147.8871480  18.1599080 119.7765830 148.5053500  13.6206980
 119.5357190 148.7728060  12.7337500 120.7168470 148.6759230  13.6757840
 121.9820250 134.9686190  17.3763490 121.9209140 135.5608020  18.1258900
 122.9220630 134.8612150  17.2313750 124.6194810 134.6256250  17.0155780
 125.2335220 134.9435540  16.3536860 125.1644370 134.1404840  17.6351640
 131.0369990 150.5247880  14.4217620 130.5428270 150.9216750  13.7044750
 130.4283280 149.8997090  14.8154900 115.1416070 133.3050510  17.1294840
 115.6899060 133.1238560  16.3660950 115.2071380 132.5144620  17.6651150
 115.9147830 149.8956160  15.1395040 115.3208150 149.7640860  15.8785080
 115.9071670 149.0594300  14.6737140 125.3602850 133.1888390  13.3425070
 124.4862690 133.5223500  13.1398000 125.2513600 132.7161570  14.1676940
 126.2674830 135.3959260  14.7266790 125.9388190 134.5811020  14.3468520
 127.2157130 135.3529070  14.6032480 115.5460060 147.2614540  14.0903080
 114.8194120 146.6419830  14.0229030 115.6069210 147.6555150  13.2201160
 119.1505160 149.4759540  10.8752490 119.6670180 148.8646900  10.3500750
 119.8002540 149.9788320  11.3663500 121.8900660 150.3668030  11.7021470
 122.1778470 150.1122330  10.8254480 122.4023880 149.8145390  12.2927040
 123.1077670 134.1058230  12.2817980 122.3249460 134.5803730  12.5614740
 122.8140600 133.2013060  12.1731160 127.6598740 134.8081330  10.3267070
 128.1006830 134.7526430   9.4788670 127.3906330 135.7239340  10.3977250
 129.5237310 134.4396570   8.3375890 129.4625710 133.4957790   8.1906910
 130.3029340 134.5476660   8.8829350 113.8290060 150.5788930   7.2999840
 113.6612100 149.9459610   7.9981730 112.9624570 150.7848330   6.9494030
 114.4518080 134.4105710   4.8031700 115.2097440 134.5234590   4.2295730
 113.9895250 135.2474910   4.7575130 120.9931890 136.5244980   7.7934010
 120.1806400 136.1501870   7.4529890 121.4973530 135.7690060   8.0955200
 125.4956870 133.1887430   9.0317080 126.0986240 133.7607640   9.5065600
 124.7549860 133.7526870   8.8090980 128.6391470 133.5908990   4.3057360
 128.8342100 134.4892440   4.5724790 127.8521340 133.3596070   4.7990310
 115.4352760 149.2722160   4.7449980 114.9100380 149.6530190   4.0411940
 115.3597340 149.8972930   5.4659690 116.8243230 134.9369760   3.3433670
 117.3535990 134.1499560   3.2141620 117.4571550 135.6160950   3.5769200
 119.0181070 134.6744900   6.3979060 118.3883810 133.9732210   6.5649190
 118.4786210 135.4349030   6.1812220 130.1918080 150.8309700   6.0663920
 130.3670270 150.1447440   5.4224840 129.4939650 151.3556750   5.6740590
 119.1436630 133.9528880  18.8331550 118.8620900 134.4562480  18.0692370
 119.5256330 133.1550630  18.4673680 118.0345730 151.2204540   3.6199230
 118.7664550 150.9363820   3.0723120 118.2939400 150.9817820   4.5098610
 117.1960520 147.3369270   3.6245560 116.5669400 147.8054370   4.1731390
 117.3108350 146.4918490   4.0591750 125.7452090 133.3682460  19.4112020
 125.6317540 133.6877070  20.3063540 126.5621830 133.7694970  19.1149300
 128.5250580 150.5153990  18.8930710 129.3175900 150.0203220  18.6856670
 128.8183730 151.1944130  19.5006320 124.6510240 122.6131440 139.9694680
 124.5704290 121.6986050 139.6986390 124.2374660 123.1098510 139.2634390
 122.7828280 124.3910460 141.8503950 122.0070380 123.9110900 142.1402520
 123.4341210 123.7116110 141.6760110 116.7994110 124.7030270 142.7279710
 115.9678990 124.4478980 143.1276220 117.4075090 124.7741040 143.4637630
 126.8035710 128.7970650 140.6303080 126.3417240 128.0257890 140.9590250
 127.6161260 128.8236720 141.1355530 116.7795370 128.7370360 142.9237730
 117.0823410 127.8468100 142.7447950 117.5238960 129.2940580 142.6959980
 115.2086060 119.6632160 136.5122100 114.3202760 120.0048130 136.4101980
 115.4927250 119.4632480 135.6202930 113.1719070 122.2637810 142.3961800
 113.7435180 121.4960010 142.3965440 113.1720610 122.5626570 141.4868410
 123.0299020 131.0828660 140.2507070 122.4110460 131.5386160 139.6801510
 123.8850800 131.2380120 139.8496770 122.2237270 127.0667650 141.8574110
 122.1545550 126.1257590 141.6963240 122.9857130 127.1569060 142.4296680
 114.4143940 117.6722170 144.1830730 114.2346780 116.7747920 144.4633490
 114.0124020 118.2194040 144.8577680 123.2542440 119.8738030 142.0843040
 123.6307260 119.0009910 141.9716710 123.1561950 120.2096730 141.1933480
 117.3847450 118.2463660 137.5460480 117.4914200 119.1467390 137.8529240
 116.4739810 118.1981630 137.2555130 127.0366560 117.3688470 139.0171380
 127.8576180 116.8785040 139.0596860 127.0700640 117.9586130 139.7703220
 115.0330610 120.1682670 142.7913070 115.7140720 120.4321040 143.4100470
 114.7178660 119.3283540 143.1251080 119.2255180 121.2150030 141.8785660
 119.7333400 121.7131000 142.5190680 119.7568420 120.4385230 141.7025020
 131.3266110 119.3855220 145.5815010 130.6218280 119.7736930 145.0630120
 131.5924030 120.0805510 146.1835940 117.5091280 115.8548590 146.1449080
 117.5109720 116.3720980 145.3394980 116.6795590 115.3778770 146.1219010
 123.8962370 125.9667900 137.6438980 123.2779640 126.4317350 137.0801700
 124.4085620 126.6595380 138.0608490 118.7594130 125.4943770 144.3222580
 118.4263510 126.1212690 144.9643650 118.9360810 126.0205650 143.5424250
 127.2728040 119.3088850 141.7898920 126.5683610 119.5973740 142.3702030
 127.6340200 120.1188960 141.4298480 117.1906610 117.5658550 144.1519530
 117.5323420 118.4100600 143.8573400 116.2522420 117.7142290 144.2684870
 117.9713230 127.4624570 146.1371760 118.5887230 128.1375650 145.8556210
 117.1106350 127.8712550 146.0459260 113.2645570 126.6524430 135.0178610
 112.8873550 127.1411530 134.2863510 113.5218640 127.3249710 135.6485140
 128.8890820 128.9263980 144.0526400 128.2054340 129.5963090 144.0443070
 129.4285110 129.1244630 143.2871260 130.3414960 118.7543640 142.1808130
 129.3939870 118.7882620 142.3123560 130.6664950 119.5682590 142.5657490
 120.8734500 115.0540820 140.4764120 121.1809480 114.4987710 139.7599620
 119.9435200 115.1885280 140.2937110 126.4249560 130.7708110 142.7671580
 126.4376720 130.3670400 141.8993840 125.8724780 131.5455400 142.6633010
 127.7194980 127.4924330 137.8561750 127.6091310 126.5498660 137.9811170
 127.7163230 127.8539970 138.7424510 125.8235000 125.6737950 144.0954190
 126.2403790 125.4598060 143.2607650 126.5474820 125.9310740 144.6662810
 123.2615260 123.1189650 137.2124240 122.3344540 123.0527030 137.4412710
 123.4140080 124.0569780 137.0979480 123.2484340 119.3906650 134.2091400
 122.3088010 119.5520610 134.2943860 123.5667600 120.1092330 133.6627390
 129.7697100 124.0725170 144.1870430 128.9415730 124.1418260 143.7120560
 130.3647580 124.6579480 143.7186260 127.2912550 124.6809950 137.7159490
 126.6724970 124.3429500 137.0685790 127.2737000 124.0369710 138.4238680
 126.7339110 120.8594490 145.1325300 126.3210290 121.6848200 145.3865290
 126.0015060 120.2739530 144.9401660 118.8671900 123.6454390 139.9943970
 118.4628900 122.9331640 139.4989870 118.9535020 123.3007630 140.8832010
 119.3353600 127.3321950 142.1583180 119.0381890 126.7267420 141.4790960
 120.2853420 127.3699260 142.0472540 117.5800520 120.4197600 143.7743010
 118.1315110 120.5292940 142.9996260 118.0944030 120.7935200 144.4898240
 127.4239210 130.9053820 145.8206280 126.9469770 131.7126010 145.6278890
 126.7401000 130.2532150 145.9732490 118.4272030 127.0703640 148.8090980
 117.5300560 127.2943610 149.0564380 118.4524900 127.1938580 147.8602380
 125.4677250 123.9196760 134.7232240 125.9070530 123.0819190 134.5770060
 126.1805670 124.5526160 134.8096380 117.2543250 123.9416960 147.3848350
 117.1151020 124.8139760 147.7535750 116.3724610 123.5989770 147.2396290
 123.5772630 128.8592830 138.6913480 124.0168540 129.6017160 138.2768870
 123.5159520 129.1019400 139.6152440 119.0523600 129.8838660 149.5933500
 119.0239030 130.2881610 148.7261930 118.8888570 128.9549020 149.4305100
 129.0494390 115.1739570 133.0373280 128.7367050 115.2666400 133.9372350
 129.8106860 115.7520600 132.9870710 115.5676530 122.5399370 137.4950620
 115.4474130 123.2661460 136.8831890 115.2577420 121.7702280 137.0178530
 113.2061900 125.7114510 143.3019260 113.2842320 125.8463280 142.3574980
 113.8203580 125.0030400 143.4947380 114.4509530 127.4114700 139.7125440
 114.0437610 127.5529290 138.8579040 115.3422540 127.1274860 139.5096650
 130.4071670 127.8578610 148.0497680 130.5334730 127.6190490 147.1314860
 130.4493050 127.0263150 148.5219760 124.2688410 131.5606610 146.6192490
 124.7833080 131.4714620 147.4214920 123.4257490 131.9066310 146.9120400
 126.2442810 131.8461950 136.0476490 126.0843950 131.5564890 136.9458320
 126.0789520 131.0702080 135.5121720 118.7231190 131.6260480 137.8248110
 118.5473670 130.7096020 137.6115910 117.8686930 131.9847770 138.0645910
 125.9468940 129.3549510 134.6074490 125.2534100 129.3526800 133.9476770
 126.6891800 128.9308830 134.1768660 125.5118870 130.9812220 138.6822980
 125.9675820 130.2001600 138.9961600 125.8511390 131.6919040 139.2264160
 130.2595680 119.9111070 149.0147420 129.6439950 120.4190740 148.4862880
 129.9392100 119.0109400 148.9573360 113.2621420 126.7528680 145.8413720
 113.4252460 126.2834040 145.0233090 113.7273870 126.2452240 146.5062560
 118.0340190 115.8834440 140.8774290 117.5908340 116.6643980 140.5458810
 118.5925180 116.2064330 141.5845230 122.3210000 118.7502960 146.4809610
 121.8589370 118.9585980 147.2929550 121.9188110 117.9362310 146.1780280
 127.3214510 119.9711910 147.6106270 126.4708100 119.6717660 147.9315340
 127.1616300 120.2153920 146.6990090 124.4164220 121.4713660 149.7105060
 124.7417630 120.6377410 149.3707290 125.2044550 121.9942180 149.8583390
 121.1499010 115.5045140 135.7580120 120.5253190 115.5005010 136.4833430
 121.0629130 114.6376100 135.3616090 120.0716090 116.4281770 142.7363890
 120.3688420 117.3344600 142.6555910 120.6201650 115.9400550 142.1223460
 117.8254410 121.0068010 138.6055540 117.5995330 120.7905180 139.5102160
 117.0446940 121.4396470 138.2601510 125.0552170 121.0131380 137.2046190
 124.4561060 121.7367180 137.0209810 125.6031780 120.9508160 136.4222640
 120.2653620 121.9053590 149.2715810 120.1697220 120.9648320 149.1216210
 121.1085600 122.1268660 148.8763880 123.6617040 119.6494920 139.2349470
 124.0546610 119.9667120 138.4218160 124.0233890 118.7706800 139.3493990
 115.3964160 118.3167260 147.4249590 115.0027550 119.1642470 147.6322370
 114.7082560 117.6793630 147.6158230 112.6981210 116.2395720 141.4579670
 112.4094260 116.8098580 142.1704650 113.4426970 115.7600170 141.8210900
 112.8851440 120.1815840 132.6682390 112.8026110 121.1246600 132.8097380
 112.5334500 120.0390750 131.7894740 124.2472180 122.2400670 143.3300250
 123.5153300 122.7487480 143.6790350 123.8496520 121.4230650 143.0289030
 120.6849570 118.9154870 141.7352740 120.6885630 118.4744820 140.8857280
 121.5800690 119.2372200 141.8424560 116.5351950 118.7981360 140.6946950
 116.1952000 119.2756590 141.4514000 115.7729270 118.3446480 140.3348050
 120.7469720 119.9166950 134.7259500 120.8682540 119.8753430 135.6745320
 120.3618230 120.7791100 134.5706230 124.7098090 117.6934350 142.7423190
 124.7270830 118.1443000 143.5865040 124.4613670 116.7939990 142.9556630
 119.7591220 122.2268090 134.1242800 119.1908120 121.7786340 133.4978710
 120.4680220 122.5860870 133.5907950 128.1368840 115.1066530 148.5809570
 128.4614610 114.3756190 149.1067550 128.1725350 114.7880170 147.6790560
 114.8360400 126.1280110 148.0009530 114.4515190 125.4873780 148.5992490
 115.1472590 126.8316230 148.5704260 120.9857540 122.9756650 143.4818150
 121.3527670 122.5015220 144.2279490 120.7962600 123.8498220 143.8226490
 113.8498030 117.7200340 139.6111620 113.5644950 117.3556010 140.4490240
 113.7876890 116.9880800 138.9974760 118.7756910 122.0165290 145.8002360
 118.4713980 122.8957270 146.0252720 119.7303370 122.0765080 145.8359800
 117.3038700 126.2226280 136.3969210 116.5300960 125.6823900 136.2367930
 118.0333330 125.7032890 136.0586970 128.0626680 125.2191640 142.1895600
 128.7825800 125.7146930 141.7991710 127.8608500 124.5409530 141.5449470
 123.5236620 116.6129600 136.3324990 122.7101230 116.1142770 136.2570300
 123.3298570 117.4527850 135.9161340 123.4445480 125.2900700 148.0764600
 123.3782790 124.3696370 147.8222190 122.8150620 125.3876140 148.7909240
 126.2385010 120.9849250 134.6287150 127.1264630 121.2966480 134.4538490
 126.2090100 120.1121500 134.2367730 117.3476100 125.8906660 140.0348020
 117.8654770 125.0874920 139.9804910 116.8960120 125.8285800 140.8764850
 122.2345600 127.1572940 135.3075320 122.5761300 127.9015170 134.8118640
 121.4058310 127.4704060 135.6700150 114.8320640 122.8568030 146.9473720
 114.4735580 123.5221880 147.5347060 114.5375200 122.0251580 147.3186340
 118.0333760 123.3152270 149.8313270 117.7333900 123.4609450 148.9341090
 118.8045000 122.7557560 149.7386660 123.3762210 128.1121270 147.8268400
 123.3906750 127.1802230 147.6087310 122.6687310 128.1981030 148.4658170
 128.5099280 122.2961090 134.0967010 128.4263000 122.7275310 133.2463450
 129.2293470 122.7559440 134.5293830 129.5873420 124.7528610 147.1736980
 128.8621610 125.3457390 146.9766370 130.1148880 124.7452150 146.3750350
 129.5386530 129.1503350 136.8249140 128.8962690 128.4958970 137.0992860
 129.1517190 129.5558440 136.0489810 125.1173010 126.4788780 140.6720830
 125.4696830 125.8816910 140.0122200 124.2335340 126.1533010 140.8429080
 121.2036290 127.2386470 138.0791240 121.8907420 127.7855680 138.4598830
 120.4168710 127.7827200 138.1140850 113.3428690 122.8559290 133.5708320
 114.2123540 123.1384090 133.8544240 112.8519010 123.6695160 133.4557130
 120.5063500 124.2432500 137.6916600 120.9626280 125.0537750 137.9176790
 120.1551710 123.9255640 138.5235090 122.8096110 129.7538840 144.9208900
 123.4538330 129.9598220 145.5982320 123.1725550 128.9927240 144.4679750
 116.4075280 114.5870150 138.1639120 116.2789910 114.5788050 139.1124040
 115.5837300 114.9253240 137.8130130 124.0828190 127.7571190 143.6386350
 124.7250420 127.0564350 143.7518520 124.6077540 128.5369630 143.4583240
 127.9283910 128.0419810 133.3625490 127.7021490 127.3250250 133.9550130
 127.5380110 127.7932250 132.5247240 125.8565810 128.5566090 146.8422410
 126.1922050 129.1432780 147.5200330 124.9366150 128.4258800 147.0720200
 113.7099940 132.0686670 134.1369950 114.0697580 132.6676010 133.4827220
 113.5692280 132.6146560 134.9104980 113.4069210 116.3461270 147.6245820
 112.6927730 116.5458190 148.2298430 113.8264250 115.5700840 147.9960620
 127.5100160 125.9591750 135.0239650 127.2221860 126.4204440 135.8117530
 128.3052330 125.4989520 135.2923870 113.6941800 130.3341530 148.6112350
 113.8032920 129.3936270 148.4707740 113.0422360 130.5996280 147.9626080
 119.7268560 129.4517870 134.9543620 119.7178660 130.1847560 134.3388130
 118.8066920 129.2049450 135.0470580 115.3275200 124.6732760 135.6990380
 114.7203150 125.4131660 135.7085680 115.8024550 124.7632120 134.8728580
 124.9007990 118.8383580 145.3747270 125.2688810 118.0178790 145.7026840
 124.0406190 118.8985470 145.7902920 128.2670020 117.7940520 136.1834830
 127.6383180 117.8986190 135.4693060 127.7721940 118.0137300 136.9728710
 122.7128160 129.5146110 133.6168810 122.8140140 129.3110100 132.6870790
 121.8129900 129.2604390 133.8216590 120.2354050 120.0726470 137.5992710
 119.5270200 120.5412810 138.0406320 120.5198530 119.4148480 138.2337900
 121.8609980 121.4923170 145.5985240 122.3595230 121.9668990 146.2637090
 122.0032930 120.5686690 145.8055270 124.2669480 116.7977130 139.0388500
 124.1437260 116.8163260 138.0898010 125.2154040 116.8456070 139.1586900
 121.3546270 132.0332430 138.3116480 121.6087770 131.9953820 137.3895850
 120.4058750 131.9065760 138.3044730 118.4389070 118.3811550 134.9743420
 119.2879600 118.8181700 134.9083610 118.0720340 118.6931810 135.8015480
 129.0676840 117.7091130 146.4413630 128.5650440 118.4496530 146.7807440
 129.8833500 118.0975130 146.1250420 127.3598850 122.9524310 139.8874990
 126.4188990 122.9674540 140.0622680 127.6742920 122.1660270 140.3335290
 117.3380490 124.6343910 133.4478950 118.1043760 124.5225270 134.0104380
 117.4155180 123.9381880 132.7955720 116.0327250 122.0668980 134.1311840
 116.1130840 121.1196490 134.2429240 116.9247000 122.3975860 134.2372500
 129.3624430 130.1233160 141.5629250 129.4871850 130.9464330 142.0353060
 130.2289990 129.9123890 141.2153400 116.8341960 132.2164370 141.2346380
 117.5704440 131.6679830 141.5054950 117.2182880 133.0820380 141.0952370
 113.7187440 128.2837940 137.1087890 112.7927220 128.5259080 137.0993300
 114.1843870 129.1112200 136.9872640 119.9444270 131.3894680 133.0571950
 120.7372880 131.6783510 132.6053740 119.4248620 130.9586850 132.3784430
 126.1065240 131.2370600 148.9816780 127.0586990 131.1528620 148.9317020
 125.9593460 131.9012310 149.6550570 128.9974440 130.6164810 134.4808690
 128.7115950 130.2029950 133.6662870 128.7993990 131.5452520 134.3609210
 113.5598050 123.8883900 149.3668010 114.0637070 123.3091180 149.9384240
 112.8205470 124.1724130 149.9044380 120.4621670 126.6098090 132.9214300
 120.3572310 125.9950440 133.6475680 120.2945890 126.0863980 132.1377310
 120.6135990 125.2954890 148.9003530 119.8481660 125.8639890 148.8158200
 120.7951950 125.0031100 148.0071760 123.7024400 125.6718120 133.5256290
 123.1534500 126.1187420 134.1699030 124.3243660 125.1667370 134.0493960
 127.7559340 127.0260220 149.4578550 128.4968810 127.3635980 148.9546010
 126.9932020 127.1952280 148.9048320 119.3699520 124.6309040 135.4221590
 119.7915940 124.4648910 136.2652980 119.4950360 123.8209270 134.9276730
 117.5326940 120.6105590 148.2292570 117.0023400 120.1196540 147.6015910
 118.2015010 121.0389790 147.6950500 121.8827160 123.6546650 132.6698690
 122.4032820 122.9395670 132.3039840 122.5295560 124.2932520 132.9699200
 126.4305000 125.0775050 147.9933760 126.8446020 125.2320130 148.8424180
 125.4956000 125.2030270 148.1559540 126.9027170 122.4171210 149.9972910
 127.4847940 121.6623530 149.9093390 127.0788940 122.9478650 149.2204390
 118.0199240 117.5767960 148.3089860 117.9256110 116.9588710 147.5840730
 117.4396630 118.3034250 148.0819770 120.7860680 116.1341200 145.3417250
 120.3377980 116.1565460 144.4962800 120.1525880 115.7360220 145.9387550
 121.1920230 125.0295530 145.9629690 121.6108340 125.8728260 145.7905930
 120.2728860 125.1667570 145.7336470 123.5284130 122.7611710 147.3467530
 123.6480340 122.1652850 148.0862370 124.3878130 122.7981400 146.9268830
 125.8672030 123.3148900 145.9230040 125.3407250 123.8391520 145.3195180
 126.2103370 123.9476290 146.5539770 118.2658420 120.7042270 132.3679750
 118.0647480 119.8409630 132.7293090 118.0950470 120.6175630 131.4301350
 119.0427650 131.3348540 147.0787420 118.5048740 132.0594600 146.7596120
 119.2961610 130.8578880 146.2884760 120.2952900 119.3033060 148.6043350
 120.8852590 118.9948910 149.2921170 119.4773140 118.8312810 148.7603250
 125.1146330 118.9198870 148.8376370 124.4261850 118.2580410 148.7726360
 125.8352350 118.4737140 149.2824830 125.7446730 115.5150500 134.8966630
 126.0249020 114.6718400 135.2526050 124.9712460 115.7473610 135.4105380
 117.0641220 117.8042890 132.3557630 117.3667120 117.8110320 131.4476780
 117.8035810 117.4540750 132.8525290 121.8989860 132.5699750 147.3374070
 121.8248560 133.4734890 147.6446440 120.9968700 132.2511650 147.3096140
 120.2826150 116.7477510 133.3413830 119.9348150 116.0701500 132.7616280
 120.4838920 116.2867020 134.1557220 122.4475190 131.7358260 134.9600430
 123.3425980 132.0743230 134.9819190 122.4792820 131.0137670 134.3324710
 116.0871350 127.1085310 133.1887430 116.5246220 127.6514980 133.8445010
 116.5719080 126.2832260 133.1983770 113.3017150 129.8974340 140.6407690
 113.6320160 129.0295400 140.4086330 113.7308150 130.1032860 141.4712650
 117.8979070 128.2283350 138.3009660 117.5974610 128.1048320 139.2013570
 117.7916560 127.3691940 137.8925390 113.7907360 130.7644930 143.3789320
 113.3538350 130.9445730 144.2113470 114.3585040 131.5219550 143.2371040
 129.4269540 130.2661930 147.6666630 128.8271530 130.3254490 146.9230550
 129.5563440 129.3266910 147.7963480 130.6670990 128.0079750 133.0036340
 129.8363950 128.0756400 133.4743570 130.8442820 128.8983870 132.7003200
 130.1227450 124.7527230 135.5070540 130.8846360 125.3223880 135.6130230
 130.1381820 124.1854430 136.2778850 113.6231790 123.2765160 139.7378200
 112.9680630 123.0076800 139.0937900 114.4609740 123.1669640 139.2880180
 131.1287420 125.6077330 140.3512470 131.4996250 124.8244650 139.9448440
 131.7689350 126.2966430 140.1729770 128.1121180 126.9913910 145.7642790
 127.2981020 127.4211070 146.0268580 128.5195380 127.6032320 145.1511840
 130.1746620 125.0461600 132.6643060 130.4495460 125.9540480 132.5362280
 129.9857360 124.9824130 133.6005050 126.5722230 118.0706450 133.9596690
 126.9907110 117.8837430 133.1193350 126.2658290 117.2185500 134.2699620
 130.0711960 122.9830590 137.6572490 129.6955560 122.2158520 137.2253780
 129.3415080 123.3653290 138.1447420 114.6607720 123.6617730 144.2781540
 115.0280760 123.5745130 145.1577560 114.0918540 122.8984280 144.1788400
 129.4611580 122.1302110 147.2912010 129.2297670 121.9014860 146.3909960
 129.7216130 123.0501660 147.2456900 114.2123720 120.5726820 148.1839960
 113.3179770 120.5393580 148.5233670 114.7521270 120.7713610 148.9491210
 112.8369870 120.4864090 135.6803530 111.9333950 120.7494290 135.5055190
 113.3210490 120.7575260 134.9003490 129.3462920 121.2088080 140.9579730
 129.8700400 120.7150730 140.3269900 129.9322340 121.3438440 141.7027300
 129.5252640 121.2927950 144.4799280 128.5755350 121.2591490 144.5944270
 129.7065650 122.2028060 144.2449050 115.3797080 119.5429630 133.5897910
 116.0888780 119.1212850 133.1045190 114.6637020 119.6104860 132.9581260
 115.0271240 115.5968960 132.6300560 115.7499370 116.1377900 132.9481780
 115.2995760 115.3232380 131.7542100 128.8362890 120.4661430 136.8972140
 129.3322010 120.2332300 137.6821020 128.6378960 119.6273270 136.4809780
 114.7163430 114.8475150 142.5323180 115.3639620 114.2972530 142.0918340
 115.1365270 115.1018300 143.3538990 130.2650050 119.1022380 139.4309820
 130.1549330 118.9478420 140.3692090 131.0257640 118.5743320 139.1885230
 128.6115770 115.0416510 145.8892820 129.2487990 115.6550650 146.2552010
 128.7590660 115.0777170 144.9442050 131.1540320 116.9330300 132.6715960
 132.0789630 116.8011480 132.4634250 131.1316110 117.0123120 133.6252410
 131.2278810 117.7040960 135.2972670 130.4330310 117.6386080 135.8265580
 131.4322090 118.6391600 135.2858020 128.1697230 131.7432510 139.2911060
 128.7656300 131.4217080 138.6145480 128.4275380 131.2704330 140.0824330
 114.4695430 115.0030820 145.2748500 114.1210250 115.4594640 146.0406680
 114.1383130 114.1087950 145.3570930 119.7765830 129.7310010 145.0411410
 119.5357190 129.9984570 144.1541930 120.7168470 129.9015740 145.0962270
 121.9820250 116.1942700 148.7967920 121.9209140 116.7864530 149.5463330
 122.9220630 116.0868660 148.6518180 124.6194810 115.8512760 148.4360210
 125.2335220 116.1692050 147.7741290 125.1644370 115.3661350 149.0556070
 131.0369990 131.7504390 145.8422050 130.5428270 132.1473260 145.1249180
 130.4283280 131.1253600 146.2359330 115.1416070 114.5307020 148.5499270
 115.6899060 114.3495070 147.7865380 115.2071380 113.7401130 149.0855580
 115.9147830 131.1212670 146.5599470 115.3208150 130.9897370 147.2989510
 115.9071670 130.2850810 146.0941570 125.3602850 114.4144900 144.7629500
 124.4862690 114.7480010 144.5602430 125.2513600 113.9418080 145.5881370
 126.2674830 116.6215770 146.1471220 125.9388190 115.8067530 145.7672950
 127.2157130 116.5785580 146.0236910 128.7209440 132.3927810 143.1208790
 128.2612410 133.1443620 142.7466810 128.0921900 131.6734280 143.0623590
 115.5460060 128.4871050 145.5107510 114.8194120 127.8676340 145.4433460
 115.6069210 128.8811660 144.6405590 119.1505160 130.7016050 142.2956920
 119.6670180 130.0903410 141.7705180 119.8002540 131.2044830 142.7867930
 121.8900660 131.5924540 143.1225900 122.1778470 131.3378840 142.2458910
 122.4023880 131.0401900 143.7131470 123.1077670 115.3314740 143.7022410
 122.3249460 115.8060240 143.9819170 122.8140600 114.4269570 143.5935590
 127.6598740 116.0337840 141.7471500 128.1006830 115.9782940 140.8993100
 127.3906330 116.9495850 141.8181680 129.5237310 115.6653080 139.7580320
 129.4625710 114.7214300 139.6111340 130.3029340 115.7733170 140.3033780
 113.8290060 131.8045440 138.7204270 113.6612100 131.1716120 139.4186160
 112.9624570 132.0104840 138.3698460 114.4518080 115.6362220 136.2236130
 115.2097440 115.7491100 135.6500160 113.9895250 116.4731420 136.1779560
 120.9931890 117.7501490 139.2138440 120.1806400 117.3758380 138.8734320
 121.4973530 116.9946570 139.5159630 125.4956870 114.4143940 140.4521510
 126.0986240 114.9864150 140.9270030 124.7549860 114.9783380 140.2295410
 128.6391470 114.8165500 135.7261790 128.8342100 115.7148950 135.9929220
 127.8521340 114.5852580 136.2194740 115.4352760 130.4978670 136.1654410
 114.9100380 130.8786700 135.4616370 115.3597340 131.1229440 136.8864120
 116.8243230 116.1626270 134.7638100 117.3535990 115.3756070 134.6346050
 117.4571550 116.8417460 134.9973630 119.0181070 115.9001410 137.8183490
 118.3883810 115.1988720 137.9853620 118.4786210 116.6605540 137.6016650
 130.1918080 132.0566210 137.4868350 130.3670270 131.3703950 136.8429270
 129.4939650 132.5813260 137.0945020 118.0345730 132.4461050 135.0403660
 118.7664550 132.1620330 134.4927550 118.2939400 132.2074330 135.9303040
 117.1960520 128.5625780 135.0449990 116.5669400 129.0310880 135.5935820
 117.3108350 127.7175000 135.4796180 124.6510240 122.6131440 121.1951190
 124.5704290 121.6986050 120.9242900 124.2374660 123.1098510 120.4890900
 122.7828280 124.3910460 123.0760460 122.0070380 123.9110900 123.3659030
 123.4341210 123.7116110 122.9016620 116.7994110 124.7030270 123.9536220
 115.9678990 124.4478980 124.3532730 117.4075090 124.7741040 124.6894140
 126.8035710 128.7970650 121.8559590 126.3417240 128.0257890 122.1846760
 127.6161260 128.8236720 122.3612040 116.7795370 128.7370360 124.1494240
 117.0823410 127.8468100 123.9704460 117.5238960 129.2940580 123.9216490
 115.2086060 119.6632160 117.7378610 114.3202760 120.0048130 117.6358490
 115.4927250 119.4632480 116.8459440 113.1719070 122.2637810 123.6218310
 113.7435180 121.4960010 123.6221950 113.1720610 122.5626570 122.7124920
 123.0299020 131.0828660 121.4763580 122.4110460 131.5386160 120.9058020
 123.8850800 131.2380120 121.0753280 122.2237270 127.0667650 123.0830620
 122.1545550 126.1257590 122.9219750 122.9857130 127.1569060 123.6553190
 114.4143940 117.6722170 125.4087240 114.2346780 116.7747920 125.6890000
 114.0124020 118.2194040 126.0834190 123.2542440 119.8738030 123.3099550
 123.6307260 119.0009910 123.1973220 123.1561950 120.2096730 122.4189990
 117.3847450 118.2463660 118.7716990 117.4914200 119.1467390 119.0785750
 116.4739810 118.1981630 118.4811640 127.0366560 117.3688470 120.2427890
 127.8576180 116.8785040 120.2853370 127.0700640 117.9586130 120.9959730
 115.0330610 120.1682670 124.0169580 115.7140720 120.4321040 124.6356980
 114.7178660 119.3283540 124.3507590 119.2255180 121.2150030 123.1042170
 119.7333400 121.7131000 123.7447190 119.7568420 120.4385230 122.9281530
 131.3266110 119.3855220 126.8071520 130.6218280 119.7736930 126.2886630
 131.5924030 120.0805510 127.4092450 117.5091280 115.8548590 127.3705590
 117.5109720 116.3720980 126.5651490 116.6795590 115.3778770 127.3475520
 123.8962370 125.9667900 118.8695490 123.2779640 126.4317350 118.3058210
 124.4085620 126.6595380 119.2865000 118.7594130 125.4943770 125.5479090
 118.4263510 126.1212690 126.1900160 118.9360810 126.0205650 124.7680760
 127.2728040 119.3088850 123.0155430 126.5683610 119.5973740 123.5958540
 127.6340200 120.1188960 122.6554990 117.1906610 117.5658550 125.3776040
 117.5323420 118.4100600 125.0829910 116.2522420 117.7142290 125.4941380
 117.9713230 127.4624570 127.3628270 118.5887230 128.1375650 127.0812720
 117.1106350 127.8712550 127.2715770 113.2645570 126.6524430 116.2435120
 112.8873550 127.1411530 115.5120020 113.5218640 127.3249710 116.8741650
 128.8890820 128.9263980 125.2782910 128.2054340 129.5963090 125.2699580
 129.4285110 129.1244630 124.5127770 130.3414960 118.7543640 123.4064640
 129.3939870 118.7882620 123.5380070 130.6664950 119.5682590 123.7914000
 120.8734500 115.0540820 121.7020630 121.1809480 114.4987710 120.9856130
 119.9435200 115.1885280 121.5193620 126.4249560 130.7708110 123.9928090
 126.4376720 130.3670400 123.1250350 125.8724780 131.5455400 123.8889520
 127.7194980 127.4924330 119.0818260 127.6091310 126.5498660 119.2067680
 127.7163230 127.8539970 119.9681020 125.8235000 125.6737950 125.3210700
 126.2403790 125.4598060 124.4864160 126.5474820 125.9310740 125.8919320
 123.2615260 123.1189650 118.4380750 122.3344540 123.0527030 118.6669220
 123.4140080 124.0569780 118.3235990 123.2484340 119.3906650 115.4347910
 122.3088010 119.5520610 115.5200370 123.5667600 120.1092330 114.8883900
 129.7697100 124.0725170 125.4126940 128.9415730 124.1418260 124.9377070
 130.3647580 124.6579480 124.9442770 127.2912550 124.6809950 118.9416000
 126.6724970 124.3429500 118.2942300 127.2737000 124.0369710 119.6495190
 126.7339110 120.8594490 126.3581810 126.3210290 121.6848200 126.6121800
 126.0015060 120.2739530 126.1658170 118.8671900 123.6454390 121.2200480
 118.4628900 122.9331640 120.7246380 118.9535020 123.3007630 122.1088520
 119.3353600 127.3321950 123.3839690 119.0381890 126.7267420 122.7047470
 120.2853420 127.3699260 123.2729050 117.5800520 120.4197600 124.9999520
 118.1315110 120.5292940 124.2252770 118.0944030 120.7935200 125.7154750
 127.4239210 130.9053820 127.0462790 126.9469770 131.7126010 126.8535400
 126.7401000 130.2532150 127.1989000 118.4272030 127.0703640 130.0347490
 117.5300560 127.2943610 130.2820890 118.4524900 127.1938580 129.0858890
 125.4677250 123.9196760 115.9488750 125.9070530 123.0819190 115.8026570
 126.1805670 124.5526160 116.0352890 117.2543250 123.9416960 128.6104860
 117.1151020 124.8139760 128.9792260 116.3724610 123.5989770 128.4652800
 123.5772630 128.8592830 119.9169990 124.0168540 129.6017160 119.5025380
 123.5159520 129.1019400 120.8408950 119.0523600 129.8838660 130.8190010
 119.0239030 130.2881610 129.9518440 118.8888570 128.9549020 130.6561610
 129.0494390 115.1739570 114.2629790 128.7367050 115.2666400 115.1628860
 129.8106860 115.7520600 114.2127220 115.5676530 122.5399370 118.7207130
 115.4474130 123.2661460 118.1088400 115.2577420 121.7702280 118.2435040
 131.0038420 130.6665760 132.1154180 131.4798140 131.1448650 132.7943260
 131.6245580 130.5983250 131.3899680 113.2061900 125.7114510 124.5275770
 113.2842320 125.8463280 123.5831490 113.8203580 125.0030400 124.7203890
 114.4509530 127.4114700 120.9381950 114.0437610 127.5529290 120.0835550
 115.3422540 127.1274860 120.7353160 130.4071670 127.8578610 129.2754190
 130.5334730 127.6190490 128.3571370 130.4493050 127.0263150 129.7476270
 124.2688410 131.5606610 127.8449000 124.7833080 131.4714620 128.6471430
 123.4257490 131.9066310 128.1376910 126.2442810 131.8461950 117.2733000
 126.0843950 131.5564890 118.1714830 126.0789520 131.0702080 116.7378230
 118.7231190 131.6260480 119.0504620 118.5473670 130.7096020 118.8372420
 117.8686930 131.9847770 119.2902420 125.9468940 129.3549510 115.8331000
 125.2534100 129.3526800 115.1733280 126.6891800 128.9308830 115.4025170
 125.5118870 130.9812220 119.9079490 125.9675820 130.2001600 120.2218110
 125.8511390 131.6919040 120.4520670 130.2595680 119.9111070 130.2403930
 129.6439950 120.4190740 129.7119390 129.9392100 119.0109400 130.1829870
 113.2621420 126.7528680 127.0670230 113.4252460 126.2834040 126.2489600
 113.7273870 126.2452240 127.7319070 118.0340190 115.8834440 122.1030800
 117.5908340 116.6643980 121.7715320 118.5925180 116.2064330 122.8101740
 122.3210000 118.7502960 127.7066120 121.8589370 118.9585980 128.5186060
 121.9188110 117.9362310 127.4036790 127.3214510 119.9711910 128.8362780
 126.4708100 119.6717660 129.1571850 127.1616300 120.2153920 127.9246600
 124.4164220 121.4713660 130.9361570 124.7417630 120.6377410 130.5963800
 125.2044550 121.9942180 131.0839900 121.1499010 115.5045140 116.9836630
 120.5253190 115.5005010 117.7089940 121.0629130 114.6376100 116.5872600
 120.0716090 116.4281770 123.9620400 120.3688420 117.3344600 123.8812420
 120.6201650 115.9400550 123.3479970 117.8254410 121.0068010 119.8312050
 117.5995330 120.7905180 120.7358670 117.0446940 121.4396470 119.4858020
 125.0552170 121.0131380 118.4302700 124.4561060 121.7367180 118.2466320
 125.6031780 120.9508160 117.6479150 120.2653620 121.9053590 130.4972320
 120.1697220 120.9648320 130.3472720 121.1085600 122.1268660 130.1020390
 123.6617040 119.6494920 120.4605980 124.0546610 119.9667120 119.6474670
 124.0233890 118.7706800 120.5750500 115.3964160 118.3167260 128.6506100
 115.0027550 119.1642470 128.8578880 114.7082560 117.6793630 128.8414740
 121.9709210 118.4002230 131.7202840 121.2807530 118.2074430 132.3548930
 122.7141510 118.6836870 132.2527140 112.6981210 116.2395720 122.6836180
 112.4094260 116.8098580 123.3961160 113.4426970 115.7600170 123.0467410
 112.8851440 120.1815840 113.8938900 112.8026110 121.1246600 114.0353890
 112.5334500 120.0390750 113.0151250 124.2472180 122.2400670 124.5556760
 123.5153300 122.7487480 124.9046860 123.8496520 121.4230650 124.2545540
 120.6849570 118.9154870 122.9609250 120.6885630 118.4744820 122.1113790
 121.5800690 119.2372200 123.0681070 116.5351950 118.7981360 121.9203460
 116.1952000 119.2756590 122.6770510 115.7729270 118.3446480 121.5604560
 120.7469720 119.9166950 115.9516010 120.8682540 119.8753430 116.9001830
 120.3618230 120.7791100 115.7962740 124.7098090 117.6934350 123.9679700
 124.7270830 118.1443000 124.8121550 124.4613670 116.7939990 124.1813140
 119.7591220 122.2268090 115.3499310 119.1908120 121.7786340 114.7235220
 120.4680220 122.5860870 114.8164460 128.1368840 115.1066530 129.8066080
 128.4614610 114.3756190 130.3324060 128.1725350 114.7880170 128.9047070
 114.8360400 126.1280110 129.2266040 114.4515190 125.4873780 129.8249000
 115.1472590 126.8316230 129.7960770 120.9857540 122.9756650 124.7074660
 121.3527670 122.5015220 125.4536000 120.7962600 123.8498220 125.0483000
 113.8498030 117.7200340 120.8368130 113.5644950 117.3556010 121.6746750
 113.7876890 116.9880800 120.2231270 118.7756910 122.0165290 127.0258870
 118.4713980 122.8957270 127.2509230 119.7303370 122.0765080 127.0616310
 117.3038700 126.2226280 117.6225720 116.5300960 125.6823900 117.4624440
 118.0333330 125.7032890 117.2843480 128.0626680 125.2191640 123.4152110
 128.7825800 125.7146930 123.0248220 127.8608500 124.5409530 122.7705980
 123.5236620 116.6129600 117.5581500 122.7101230 116.1142770 117.4826810
 123.3298570 117.4527850 117.1417850 123.4445480 125.2900700 129.3021110
 123.3782790 124.3696370 129.0478700 122.8150620 125.3876140 130.0165750
 126.2385010 120.9849250 115.8543660 127.1264630 121.2966480 115.6795000
 126.2090100 120.1121500 115.4624240 117.3476100 125.8906660 121.2604530
 117.8654770 125.0874920 121.2061420 116.8960120 125.8285800 122.1021360
 122.2345600 127.1572940 116.5331830 122.5761300 127.9015170 116.0375150
 121.4058310 127.4704060 116.8956660 114.8320640 122.8568030 128.1730230
 114.4735580 123.5221880 128.7603570 114.5375200 122.0251580 128.5442850
 118.0333760 123.3152270 131.0569780 117.7333900 123.4609450 130.1597600
 118.8045000 122.7557560 130.9643170 123.3762210 128.1121270 129.0524910
 123.3906750 127.1802230 128.8343820 122.6687310 128.1981030 129.6914680
 128.5099280 122.2961090 115.3223520 128.4263000 122.7275310 114.4719960
 129.2293470 122.7559440 115.7550340 129.5873420 124.7528610 128.3993490
 128.8621610 125.3457390 128.2022880 130.1148880 124.7452150 127.6006860
 129.5386530 129.1503350 118.0505650 128.8962690 128.4958970 118.3249370
 129.1517190 129.5558440 117.2746320 125.1173010 126.4788780 121.8977340
 125.4696830 125.8816910 121.2378710 124.2335340 126.1533010 122.0685590
 121.2036290 127.2386470 119.3047750 121.8907420 127.7855680 119.6855340
 120.4168710 127.7827200 119.3397360 113.3428690 122.8559290 114.7964830
 114.2123540 123.1384090 115.0800750 112.8519010 123.6695160 114.6813640
 120.5063500 124.2432500 118.9173110 120.9626280 125.0537750 119.1433300
 120.1551710 123.9255640 119.7491600 122.8096110 129.7538840 126.1465410
 123.4538330 129.9598220 126.8238830 123.1725550 128.9927240 125.6936260
 116.4075280 114.5870150 119.3895630 116.2789910 114.5788050 120.3380550
 115.5837300 114.9253240 119.0386640 124.0828190 127.7571190 124.8642860
 124.7250420 127.0564350 124.9775030 124.6077540 128.5369630 124.6839750
 127.9283910 128.0419810 114.5882000 127.7021490 127.3250250 115.1806640
 127.5380110 127.7932250 113.7503750 125.8565810 128.5566090 128.0678920
 126.1922050 129.1432780 128.7456840 124.9366150 128.4258800 128.2976710
 113.7099940 132.0686670 115.3626460 114.0697580 132.6676010 114.7083730
 113.5692280 132.6146560 116.1361490 113.4069210 116.3461270 128.8502330
 112.6927730 116.5458190 129.4554940 113.8264250 115.5700840 129.2217130
 127.5100160 125.9591750 116.2496160 127.2221860 126.4204440 117.0374040
 128.3052330 125.4989520 116.5180380 113.6941800 130.3341530 129.8368860
 113.8032920 129.3936270 129.6964250 113.0422360 130.5996280 129.1882590
 121.6854390 128.6057420 131.2366980 121.3651260 127.8866660 131.7812670
 121.0112750 129.2812490 131.3103040 119.7268560 129.4517870 116.1800130
 119.7178660 130.1847560 115.5644640 118.8066920 129.2049450 116.2727090
 115.3275200 124.6732760 116.9246890 114.7203150 125.4131660 116.9342190
 115.8024550 124.7632120 116.0985090 124.9007990 118.8383580 126.6003780
 125.2688810 118.0178790 126.9283350 124.0406190 118.8985470 127.0159430
 128.2670020 117.7940520 117.4091340 127.6383180 117.8986190 116.6949570
 127.7721940 118.0137300 118.1985220 122.7128160 129.5146110 114.8425320
 122.8140140 129.3110100 113.9127300 121.8129900 129.2604390 115.0473100
 120.2354050 120.0726470 118.8249220 119.5270200 120.5412810 119.2662830
 120.5198530 119.4148480 119.4594410 121.8609980 121.4923170 126.8241750
 122.3595230 121.9668990 127.4893600 122.0032930 120.5686690 127.0311780
 124.2669480 116.7977130 120.2645010 124.1437260 116.8163260 119.3154520
 125.2154040 116.8456070 120.3843410 121.3546270 132.0332430 119.5372990
 121.6087770 131.9953820 118.6152360 120.4058750 131.9065760 119.5301240
 118.4389070 118.3811550 116.1999930 119.2879600 118.8181700 116.1340120
 118.0720340 118.6931810 117.0271990 129.0676840 117.7091130 127.6670140
 128.5650440 118.4496530 128.0063950 129.8833500 118.0975130 127.3506930
 127.3598850 122.9524310 121.1131500 126.4188990 122.9674540 121.2879190
 127.6742920 122.1660270 121.5591800 117.3380490 124.6343910 114.6735460
 118.1043760 124.5225270 115.2360890 117.4155180 123.9381880 114.0212230
 116.0327250 122.0668980 115.3568350 116.1130840 121.1196490 115.4685750
 116.9247000 122.3975860 115.4629010 129.3624430 130.1233160 122.7885760
 129.4871850 130.9464330 123.2609570 130.2289990 129.9123890 122.4409910
 116.8341960 132.2164370 122.4602890 117.5704440 131.6679830 122.7311460
 117.2182880 133.0820380 122.3208880 113.7187440 128.2837940 118.3344400
 112.7927220 128.5259080 118.3249810 114.1843870 129.1112200 118.2129150
 115.8400240 131.4010440 131.6488470 116.6412970 131.7222490 132.0623870
 115.3252060 131.0406020 132.3708380 119.9444270 131.3894680 114.2828460
 120.7372880 131.6783510 113.8310250 119.4248620 130.9586850 113.6040940
 124.6764870 127.5090310 131.5963880 124.0703030 127.5321910 130.8559630
 124.3718980 126.7773350 132.1331130 126.1065240 131.2370600 130.2073290
 127.0586990 131.1528620 130.1573530 125.9593460 131.9012310 130.8807080
 128.9974440 130.6164810 115.7065200 128.7115950 130.2029950 114.8919380
 128.7993990 131.5452520 115.5865720 113.5598050 123.8883900 130.5924520
 114.0637070 123.3091180 131.1640750 112.8205470 124.1724130 131.1300890
 120.4621670 126.6098090 114.1470810 120.3572310 125.9950440 114.8732190
 120.2945890 126.0863980 113.3633820 120.6135990 125.2954890 130.1260040
 119.8481660 125.8639890 130.0414710 120.7951950 125.0031100 129.2328270
 123.7024400 125.6718120 114.7512800 123.1534500 126.1187420 115.3955540
 124.3243660 125.1667370 115.2750470 127.7559340 127.0260220 130.6835060
 128.4968810 127.3635980 130.1802520 126.9932020 127.1952280 130.1304830
 115.5921130 122.0313490 131.4874590 115.6326470 121.7327360 132.3959820
 116.4466630 122.4321100 131.3282110 119.3699520 124.6309040 116.6478100
 119.7915940 124.4648910 117.4909490 119.4950360 123.8209270 116.1533240
 117.5326940 120.6105590 129.4549080 117.0023400 120.1196540 128.8272420
 118.2015010 121.0389790 128.9207010 121.8827160 123.6546650 113.8955200
 122.4032820 122.9395670 113.5296350 122.5295560 124.2932520 114.1955710
 126.4305000 125.0775050 129.2190270 126.8446020 125.2320130 130.0680690
 125.4956000 125.2030270 129.3816050 126.9027170 122.4171210 131.2229420
 127.4847940 121.6623530 131.1349900 127.0788940 122.9478650 130.4460900
 118.0199240 117.5767960 129.5346370 117.9256110 116.9588710 128.8097240
 117.4396630 118.3034250 129.3076280 120.7860680 116.1341200 126.5673760
 120.3377980 116.1565460 125.7219310 120.1525880 115.7360220 127.1644060
 121.1920230 125.0295530 127.1886200 121.6108340 125.8728260 127.0162440
 120.2728860 125.1667570 126.9592980 123.5284130 122.7611710 128.5724040
 123.6480340 122.1652850 129.3118880 124.3878130 122.7981400 128.1525340
 125.8672030 123.3148900 127.1486550 125.3407250 123.8391520 126.5451690
 126.2103370 123.9476290 127.7796280 118.2658420 120.7042270 113.5936260
 118.0647480 119.8409630 113.9549600 118.0950470 120.6175630 112.6557860
 119.0427650 131.3348540 128.3043930 118.5048740 132.0594600 127.9852630
 119.2961610 130.8578880 127.5141270 120.2952900 119.3033060 129.8299860
 120.8852590 118.9948910 130.5177680 119.4773140 118.8312810 129.9859760
 125.1146330 118.9198870 130.0632880 124.4261850 118.2580410 129.9982870
 125.8352350 118.4737140 130.5081340 125.7446730 115.5150500 116.1223140
 126.0249020 114.6718400 116.4782560 124.9712460 115.7473610 116.6361890
 117.0641220 117.8042890 113.5814140 117.3667120 117.8110320 112.6733290
 117.8035810 117.4540750 114.0781800 121.8989860 132.5699750 128.5630580
 121.8248560 133.4734890 128.8702950 120.9968700 132.2511650 128.5352650
 120.2826150 116.7477510 114.5670340 119.9348150 116.0701500 113.9872790
 120.4838920 116.2867020 115.3813730 122.4475190 131.7358260 116.1856940
 123.3425980 132.0743230 116.2075700 122.4792820 131.0137670 115.5581220
 116.0871350 127.1085310 114.4143940 116.5246220 127.6514980 115.0701520
 116.5719080 126.2832260 114.4240280 113.3017150 129.8974340 121.8664200
 113.6320160 129.0295400 121.6342840 113.7308150 130.1032860 122.6969160
 117.8979070 128.2283350 119.5266170 117.5974610 128.1048320 120.4270080
 117.7916560 127.3691940 119.1181900 113.7907360 130.7644930 124.6045830
 113.3538350 130.9445730 125.4369980 114.3585040 131.5219550 124.4627550
 129.4269540 130.2661930 128.8923140 128.8271530 130.3254490 128.1487060
 129.5563440 129.3266910 129.0219990 130.6670990 128.0079750 114.2292850
 129.8363950 128.0756400 114.7000080 130.8442820 128.8983870 113.9259710
 130.1227450 124.7527230 116.7327050 130.8846360 125.3223880 116.8386740
 130.1381820 124.1854430 117.5035360 113.6231790 123.2765160 120.9634710
 112.9680630 123.0076800 120.3194410 114.4609740 123.1669640 120.5136690
 131.1287420 125.6077330 121.5768980 131.4996250 124.8244650 121.1704950
 131.7689350 126.2966430 121.3986280 128.1121180 126.9913910 126.9899300
 127.2981020 127.4211070 127.2525090 128.5195380 127.6032320 126.3768350
 130.1746620 125.0461600 113.8899570 130.4495460 125.9540480 113.7618790
 129.9857360 124.9824130 114.8261560 126.5722230 118.0706450 115.1853200
 126.9907110 117.8837430 114.3449860 126.2658290 117.2185500 115.4956130
 130.0711960 122.9830590 118.8829000 129.6955560 122.2158520 118.4510290
 129.3415080 123.3653290 119.3703930 114.6607720 123.6617730 125.5038050
 115.0280760 123.5745130 126.3834070 114.0918540 122.8984280 125.4044910
 129.4611580 122.1302110 128.5168520 129.2297670 121.9014860 127.6166470
 129.7216130 123.0501660 128.4713410 114.2123720 120.5726820 129.4096470
 113.3179770 120.5393580 129.7490180 114.7521270 120.7713610 130.1747720
 127.8999650 117.3558540 131.2948220 128.7769830 117.3641940 131.6782220
 127.9120490 116.6189380 130.6840570 112.8369870 120.4864090 116.9060040
 111.9333950 120.7494290 116.7311700 113.3210490 120.7575260 116.1260000
 129.3462920 121.2088080 122.1836240 129.8700400 120.7150730 121.5526410
 129.9322340 121.3438440 122.9283810 129.5252640 121.2927950 125.7055790
 128.5755350 121.2591490 125.8200780 129.7065650 122.2028060 125.4705560
 115.3797080 119.5429630 114.8154420 116.0888780 119.1212850 114.3301700
 114.6637020 119.6104860 114.1837770 115.0271240 115.5968960 113.8557070
 115.7499370 116.1377900 114.1738290 115.2995760 115.3232380 112.9798610
 128.8362890 120.4661430 118.1228650 129.3322010 120.2332300 118.9077530
 128.6378960 119.6273270 117.7066290 114.7163430 114.8475150 123.7579690
 115.3639620 114.2972530 123.3174850 115.1365270 115.1018300 124.5795500
 130.2650050 119.1022380 120.6566330 130.1549330 118.9478420 121.5948600
 131.0257640 118.5743320 120.4141740 128.6115770 115.0416510 127.1149330
 129.2487990 115.6550650 127.4808520 128.7590660 115.0777170 126.1698560
 131.1540320 116.9330300 113.8972470 132.0789630 116.8011480 113.6890760
 131.1316110 117.0123120 114.8508920 131.2278810 117.7040960 116.5229180
 130.4330310 117.6386080 117.0522090 131.4322090 118.6391600 116.5114530
 128.1697230 131.7432510 120.5167570 128.7656300 131.4217080 119.8401990
 128.4275380 131.2704330 121.3080840 114.4695430 115.0030820 126.5005010
 114.1210250 115.4594640 127.2663190 114.1383130 114.1087950 126.5827440
 116.0759800 128.1750420 130.6658200 116.0329430 127.8043330 131.5472660
 116.2070810 129.1127990 130.8060020 119.7765830 129.7310010 126.2667920
 119.5357190 129.9984570 125.3798440 120.7168470 129.9015740 126.3218780
 121.9820250 116.1942700 130.0224430 121.9209140 116.7864530 130.7719840
 122.9220630 116.0868660 129.8774690 124.6194810 115.8512760 129.6616720
 125.2335220 116.1692050 128.9997800 125.1644370 115.3661350 130.2812580
 131.0369990 131.7504390 127.0678560 130.5428270 132.1473260 126.3505690
 130.4283280 131.1253600 127.4615840 115.1416070 114.5307020 129.7755780
 115.6899060 114.3495070 129.0121890 115.2071380 113.7401130 130.3112090
 115.9147830 131.1212670 127.7855980 115.3208150 130.9897370 128.5246020
 115.9071670 130.2850810 127.3198080 125.3602850 114.4144900 125.9886010
 124.4862690 114.7480010 125.7858940 125.2513600 113.9418080 126.8137880
 126.2674830 116.6215770 127.3727730 125.9388190 115.8067530 126.9929460
 127.2157130 116.5785580 127.2493420 128.7209440 132.3927810 124.3465300
 128.2612410 133.1443620 123.9723320 128.0921900 131.6734280 124.2880100
 115.5460060 128.4871050 126.7364020 114.8194120 127.8676340 126.6689970
 115.6069210 128.8811660 125.8662100 119.1505160 130.7016050 123.5213430
 119.6670180 130.0903410 122.9961690 119.8002540 131.2044830 124.0124440
 121.8900660 131.5924540 124.3482410 122.1778470 131.3378840 123.4715420
 122.4023880 131.0401900 124.9387980 123.1077670 115.3314740 124.9278920
 122.3249460 115.8060240 125.2075680 122.8140600 114.4269570 124.8192100
 127.6598740 116.0337840 122.9728010 128.1006830 115.9782940 122.1249610
 127.3906330 116.9495850 123.0438190 129.5237310 115.6653080 120.9836830
 129.4625710 114.7214300 120.8367850 130.3029340 115.7733170 121.5290290
 113.8290060 131.8045440 119.9460780 113.6612100 131.1716120 120.6442670
 112.9624570 132.0104840 119.5954970 114.4518080 115.6362220 117.4492640
 115.2097440 115.7491100 116.8756670 113.9895250 116.4731420 117.4036070
 120.9931890 117.7501490 120.4394950 120.1806400 117.3758380 120.0990830
 121.4973530 116.9946570 120.7416140 125.4956870 114.4143940 121.6778020
 126.0986240 114.9864150 122.1526540 124.7549860 114.9783380 121.4551920
 128.6391470 114.8165500 116.9518300 128.8342100 115.7148950 117.2185730
 127.8521340 114.5852580 117.4451250 115.4352760 130.4978670 117.3910920
 114.9100380 130.8786700 116.6872880 115.3597340 131.1229440 118.1120630
 116.8243230 116.1626270 115.9894610 117.3535990 115.3756070 115.8602560
 117.4571550 116.8417460 116.2230140 119.0181070 115.9001410 119.0440000
 118.3883810 115.1988720 119.2110130 118.4786210 116.6605540 118.8273160
 121.9573020 132.5140640 131.7150610 122.8840330 132.2784910 131.7586570
 121.9423450 133.3412640 131.2336640 130.1918080 132.0566210 118.7124860
 130.3670270 131.3703950 118.0685780 129.4939650 132.5813260 118.3201530
 119.1436630 115.1785390 131.4792490 118.8620900 115.6818990 130.7153310
 119.5256330 114.3807140 131.1134620 118.0345730 132.4461050 116.2660170
 118.7664550 132.1620330 115.7184060 118.2939400 132.2074330 117.1559550
 117.1960520 128.5625780 116.2706500 116.5669400 129.0310880 116.8192330
 117.3108350 127.7175000 116.7052690 125.7452090 114.5938970 132.0572960
 125.6317540 114.9133580 132.9524480 126.5621830 114.9951480 131.7610240
 128.5250580 131.7410500 131.5391650 129.3175900 131.2459730 131.3317610
 128.8183730 132.4200640 132.1467260 124.6510240 122.6131440 102.4207700
 124.5704290 121.6986050 102.1499410 124.2374660 123.1098510 101.7147410
 122.7828280 124.3910460 104.3016970 122.0070380 123.9110900 104.5915540
 123.4341210 123.7116110 104.1273130 116.7994110 124.7030270 105.1792730
 115.9678990 124.4478980 105.5789240 117.4075090 124.7741040 105.9150650
 126.8035710 128.7970650 103.0816100 126.3417240 128.0257890 103.4103270
 127.6161260 128.8236720 103.5868550 116.7795370 128.7370360 105.3750750
 117.0823410 127.8468100 105.1960970 117.5238960 129.2940580 105.1473000
 115.2086060 119.6632160  98.9635120 114.3202760 120.0048130  98.8615000
 115.4927250 119.4632480  98.0715950 113.1719070 122.2637810 104.8474820
 113.7435180 121.4960010 104.8478460 113.1720610 122.5626570 103.9381430
 123.0299020 131.0828660 102.7020090 122.4110460 131.5386160 102.1314530
 123.8850800 131.2380120 102.3009790 122.2237270 127.0667650 104.3087130
 122.1545550 126.1257590 104.1476260 122.9857130 127.1569060 104.8809700
 114.4143940 117.6722170 106.6343750 114.2346780 116.7747920 106.9146510
 114.0124020 118.2194040 107.3090700 123.2542440 119.8738030 104.5356060
 123.6307260 119.0009910 104.4229730 123.1561950 120.2096730 103.6446500
 117.3847450 118.2463660  99.9973500 117.4914200 119.1467390 100.3042260
 116.4739810 118.1981630  99.7068150 127.0366560 117.3688470 101.4684400
 127.8576180 116.8785040 101.5109880 127.0700640 117.9586130 102.2216240
 115.0330610 120.1682670 105.2426090 115.7140720 120.4321040 105.8613490
 114.7178660 119.3283540 105.5764100 119.2255180 121.2150030 104.3298680
 119.7333400 121.7131000 104.9703700 119.7568420 120.4385230 104.1538040
 131.3266110 119.3855220 108.0328030 130.6218280 119.7736930 107.5143140
 131.5924030 120.0805510 108.6348960 117.5091280 115.8548590 108.5962100
 117.5109720 116.3720980 107.7908000 116.6795590 115.3778770 108.5732030
 123.8962370 125.9667900 100.0952000 123.2779640 126.4317350  99.5314720
 124.4085620 126.6595380 100.5121510 118.7594130 125.4943770 106.7735600
 118.4263510 126.1212690 107.4156670 118.9360810 126.0205650 105.9937270
 127.2728040 119.3088850 104.2411940 126.5683610 119.5973740 104.8215050
 127.6340200 120.1188960 103.8811500 117.1906610 117.5658550 106.6032550
 117.5323420 118.4100600 106.3086420 116.2522420 117.7142290 106.7197890
 117.9713230 127.4624570 108.5884780 118.5887230 128.1375650 108.3069230
 117.1106350 127.8712550 108.4972280 113.2645570 126.6524430  97.4691630
 112.8873550 127.1411530  96.7376530 113.5218640 127.3249710  98.0998160
 128.8890820 128.9263980 106.5039420 128.2054340 129.5963090 106.4956090
 129.4285110 129.1244630 105.7384280 130.3414960 118.7543640 104.6321150
 129.3939870 118.7882620 104.7636580 130.6664950 119.5682590 105.0170510
 120.8734500 115.0540820 102.9277140 121.1809480 114.4987710 102.2112640
 119.9435200 115.1885280 102.7450130 126.4249560 130.7708110 105.2184600
 126.4376720 130.3670400 104.3506860 125.8724780 131.5455400 105.1146030
 127.7194980 127.4924330 100.3074770 127.6091310 126.5498660 100.4324190
 127.7163230 127.8539970 101.1937530 125.8235000 125.6737950 106.5467210
 126.2403790 125.4598060 105.7120670 126.5474820 125.9310740 107.1175830
 123.2615260 123.1189650  99.6637260 122.3344540 123.0527030  99.8925730
 123.4140080 124.0569780  99.5492500 123.2484340 119.3906650  96.6604420
 122.3088010 119.5520610  96.7456880 123.5667600 120.1092330  96.1140410
 129.7697100 124.0725170 106.6383450 128.9415730 124.1418260 106.1633580
 130.3647580 124.6579480 106.1699280 127.2912550 124.6809950 100.1672510
 126.6724970 124.3429500  99.5198810 127.2737000 124.0369710 100.8751700
 126.7339110 120.8594490 107.5838320 126.3210290 121.6848200 107.8378310
 126.0015060 120.2739530 107.3914680 118.8671900 123.6454390 102.4456990
 118.4628900 122.9331640 101.9502890 118.9535020 123.3007630 103.3345030
 119.3353600 127.3321950 104.6096200 119.0381890 126.7267420 103.9303980
 120.2853420 127.3699260 104.4985560 117.5800520 120.4197600 106.2256030
 118.1315110 120.5292940 105.4509280 118.0944030 120.7935200 106.9411260
 127.4239210 130.9053820 108.2719300 126.9469770 131.7126010 108.0791910
 126.7401000 130.2532150 108.4245510 118.4272030 127.0703640 111.2604000
 117.5300560 127.2943610 111.5077400 118.4524900 127.1938580 110.3115400
 125.4677250 123.9196760  97.1745260 125.9070530 123.0819190  97.0283080
 126.1805670 124.5526160  97.2609400 117.2543250 123.9416960 109.8361370
 117.1151020 124.8139760 110.2048770 116.3724610 123.5989770 109.6909310
 123.5772630 128.8592830 101.1426500 124.0168540 129.6017160 100.7281890
 123.5159520 129.1019400 102.0665460 119.0523600 129.8838660 112.0446520
 119.0239030 130.2881610 111.1774950 118.8888570 128.9549020 111.8818120
 129.0494390 115.1739570  95.4886300 128.7367050 115.2666400  96.3885370
 129.8106860 115.7520600  95.4383730 115.5676530 122.5399370  99.9463640
 115.4474130 123.2661460  99.3344910 115.2577420 121.7702280  99.4691550
 131.0038420 130.6665760 113.3410690 131.4798140 131.1448650 114.0199770
 131.6245580 130.5983250 112.6156190 113.2061900 125.7114510 105.7532280
 113.2842320 125.8463280 104.8088000 113.8203580 125.0030400 105.9460400
 114.4509530 127.4114700 102.1638460 114.0437610 127.5529290 101.3092060
 115.3422540 127.1274860 101.9609670 130.4071670 127.8578610 110.5010700
 130.5334730 127.6190490 109.5827880 130.4493050 127.0263150 110.9732780
 124.2688410 131.5606610 109.0705510 124.7833080 131.4714620 109.8727940
 123.4257490 131.9066310 109.3633420 126.2442810 131.8461950  98.4989510
 126.0843950 131.5564890  99.3971340 126.0789520 131.0702080  97.9634740
 118.7231190 131.6260480 100.2761130 118.5473670 130.7096020 100.0628930
 117.8686930 131.9847770 100.5158930 125.9468940 129.3549510  97.0587510
 125.2534100 129.3526800  96.3989790 126.6891800 128.9308830  96.6281680
 125.5118870 130.9812220 101.1336000 125.9675820 130.2001600 101.4474620
 125.8511390 131.6919040 101.6777180 130.2595680 119.9111070 111.4660440
 129.6439950 120.4190740 110.9375900 129.9392100 119.0109400 111.4086380
 113.2621420 126.7528680 108.2926740 113.4252460 126.2834040 107.4746110
 113.7273870 126.2452240 108.9575580 118.0340190 115.8834440 103.3287310
 117.5908340 116.6643980 102.9971830 118.5925180 116.2064330 104.0358250
 122.3210000 118.7502960 108.9322630 121.8589370 118.9585980 109.7442570
 121.9188110 117.9362310 108.6293300 127.3214510 119.9711910 110.0619290
 126.4708100 119.6717660 110.3828360 127.1616300 120.2153920 109.1503110
 124.4164220 121.4713660 112.1618080 124.7417630 120.6377410 111.8220310
 125.2044550 121.9942180 112.3096410 120.0716090 116.4281770 105.1876910
 120.3688420 117.3344600 105.1068930 120.6201650 115.9400550 104.5736480
 117.8254410 121.0068010 101.0568560 117.5995330 120.7905180 101.9615180
 117.0446940 121.4396470 100.7114530 125.0552170 121.0131380  99.6559210
 124.4561060 121.7367180  99.4722830 125.6031780 120.9508160  98.8735660
 120.2653620 121.9053590 111.7228830 120.1697220 120.9648320 111.5729230
 121.1085600 122.1268660 111.3276900 123.6617040 119.6494920 101.6862490
 124.0546610 119.9667120 100.8731180 124.0233890 118.7706800 101.8007010
 115.3964160 118.3167260 109.8762610 115.0027550 119.1642470 110.0835390
 114.7082560 117.6793630 110.0671250 121.9709210 118.4002230 112.9459350
 121.2807530 118.2074430 113.5805440 122.7141510 118.6836870 113.4783650
 112.6981210 116.2395720 103.9092690 112.4094260 116.8098580 104.6217670
 113.4426970 115.7600170 104.2723920 112.8851440 120.1815840  95.1195410
 112.8026110 121.1246600  95.2610400 112.5334500 120.0390750  94.2407760
 124.2472180 122.2400670 105.7813270 123.5153300 122.7487480 106.1303370
 123.8496520 121.4230650 105.4802050 120.6849570 118.9154870 104.1865760
 120.6885630 118.4744820 103.3370300 121.5800690 119.2372200 104.2937580
 116.5351950 118.7981360 103.1459970 116.1952000 119.2756590 103.9027020
 115.7729270 118.3446480 102.7861070 120.7469720 119.9166950  97.1772520
 120.8682540 119.8753430  98.1258340 120.3618230 120.7791100  97.0219250
 124.7098090 117.6934350 105.1936210 124.7270830 118.1443000 106.0378060
 124.4613670 116.7939990 105.4069650 119.7591220 122.2268090  96.5755820
 119.1908120 121.7786340  95.9491730 120.4680220 122.5860870  96.0420970
 128.1368840 115.1066530 111.0322590 128.4614610 114.3756190 111.5580570
 128.1725350 114.7880170 110.1303580 114.8360400 126.1280110 110.4522550
 114.4515190 125.4873780 111.0505510 115.1472590 126.8316230 111.0217280
 120.9857540 122.9756650 105.9331170 121.3527670 122.5015220 106.6792510
 120.7962600 123.8498220 106.2739510 113.8498030 117.7200340 102.0624640
 113.5644950 117.3556010 102.9003260 113.7876890 116.9880800 101.4487780
 118.7756910 122.0165290 108.2515380 118.4713980 122.8957270 108.4765740
 119.7303370 122.0765080 108.2872820 117.3038700 126.2226280  98.8482230
 116.5300960 125.6823900  98.6880950 118.0333330 125.7032890  98.5099990
 128.0626680 125.2191640 104.6408620 128.7825800 125.7146930 104.2504730
 127.8608500 124.5409530 103.9962490 123.5236620 116.6129600  98.7838010
 122.7101230 116.1142770  98.7083320 123.3298570 117.4527850  98.3674360
 123.4445480 125.2900700 110.5277620 123.3782790 124.3696370 110.2735210
 122.8150620 125.3876140 111.2422260 126.2385010 120.9849250  97.0800170
 127.1264630 121.2966480  96.9051510 126.2090100 120.1121500  96.6880750
 117.3476100 125.8906660 102.4861040 117.8654770 125.0874920 102.4317930
 116.8960120 125.8285800 103.3277870 122.2345600 127.1572940  97.7588340
 122.5761300 127.9015170  97.2631660 121.4058310 127.4704060  98.1213170
 114.8320640 122.8568030 109.3986740 114.4735580 123.5221880 109.9860080
 114.5375200 122.0251580 109.7699360 118.0333760 123.3152270 112.2826290
 117.7333900 123.4609450 111.3854110 118.8045000 122.7557560 112.1899680
 123.3762210 128.1121270 110.2781420 123.3906750 127.1802230 110.0600330
 122.6687310 128.1981030 110.9171190 128.5099280 122.2961090  96.5480030
 128.4263000 122.7275310  95.6976470 129.2293470 122.7559440  96.9806850
 129.5873420 124.7528610 109.6250000 128.8621610 125.3457390 109.4279390
 130.1148880 124.7452150 108.8263370 129.5386530 129.1503350  99.2762160
 128.8962690 128.4958970  99.5505880 129.1517190 129.5558440  98.5002830
 125.1173010 126.4788780 103.1233850 125.4696830 125.8816910 102.4635220
 124.2335340 126.1533010 103.2942100 121.2036290 127.2386470 100.5304260
 121.8907420 127.7855680 100.9111850 120.4168710 127.7827200 100.5653870
 113.3428690 122.8559290  96.0221340 114.2123540 123.1384090  96.3057260
 112.8519010 123.6695160  95.9070150 120.5063500 124.2432500 100.1429620
 120.9626280 125.0537750 100.3689810 120.1551710 123.9255640 100.9748110
 122.8096110 129.7538840 107.3721920 123.4538330 129.9598220 108.0495340
 123.1725550 128.9927240 106.9192770 124.0828190 127.7571190 106.0899370
 124.7250420 127.0564350 106.2031540 124.6077540 128.5369630 105.9096260
 127.9283910 128.0419810  95.8138510 127.7021490 127.3250250  96.4063150
 127.5380110 127.7932250  94.9760260 125.8565810 128.5566090 109.2935430
 126.1922050 129.1432780 109.9713350 124.9366150 128.4258800 109.5233220
 113.7099940 132.0686670  96.5882970 114.0697580 132.6676010  95.9340240
 113.5692280 132.6146560  97.3618000 113.4069210 116.3461270 110.0758840
 112.6927730 116.5458190 110.6811450 113.8264250 115.5700840 110.4473640
 127.5100160 125.9591750  97.4752670 127.2221860 126.4204440  98.2630550
 128.3052330 125.4989520  97.7436890 113.6941800 130.3341530 111.0625370
 113.8032920 129.3936270 110.9220760 113.0422360 130.5996280 110.4139100
 121.6854390 128.6057420 112.4623490 121.3651260 127.8866660 113.0069180
 121.0112750 129.2812490 112.5359550 119.7268560 129.4517870  97.4056640
 119.7178660 130.1847560  96.7901150 118.8066920 129.2049450  97.4983600
 115.3275200 124.6732760  98.1503400 114.7203150 125.4131660  98.1598700
 115.8024550 124.7632120  97.3241600 124.9007990 118.8383580 107.8260290
 125.2688810 118.0178790 108.1539860 124.0406190 118.8985470 108.2415940
 128.2670020 117.7940520  98.6347850 127.6383180 117.8986190  97.9206080
 127.7721940 118.0137300  99.4241730 122.7128160 129.5146110  96.0681830
 122.8140140 129.3110100  95.1383810 121.8129900 129.2604390  96.2729610
 120.2354050 120.0726470 100.0505730 119.5270200 120.5412810 100.4919340
 120.5198530 119.4148480 100.6850920 121.8609980 121.4923170 108.0498260
 122.3595230 121.9668990 108.7150110 122.0032930 120.5686690 108.2568290
 124.2669480 116.7977130 101.4901520 124.1437260 116.8163260 100.5411030
 125.2154040 116.8456070 101.6099920 121.3546270 132.0332430 100.7629500
 121.6087770 131.9953820  99.8408870 120.4058750 131.9065760 100.7557750
 118.4389070 118.3811550  97.4256440 119.2879600 118.8181700  97.3596630
 118.0720340 118.6931810  98.2528500 129.0676840 117.7091130 108.8926650
 128.5650440 118.4496530 109.2320460 129.8833500 118.0975130 108.5763440
 127.3598850 122.9524310 102.3388010 126.4188990 122.9674540 102.5135700
 127.6742920 122.1660270 102.7848310 117.3380490 124.6343910  95.8991970
 118.1043760 124.5225270  96.4617400 117.4155180 123.9381880  95.2468740
 116.0327250 122.0668980  96.5824860 116.1130840 121.1196490  96.6942260
 116.9247000 122.3975860  96.6885520 129.3624430 130.1233160 104.0142270
 129.4871850 130.9464330 104.4866080 130.2289990 129.9123890 103.6666420
 116.8341960 132.2164370 103.6859400 117.5704440 131.6679830 103.9567970
 117.2182880 133.0820380 103.5465390 113.7187440 128.2837940  99.5600910
 112.7927220 128.5259080  99.5506320 114.1843870 129.1112200  99.4385660
 115.8400240 131.4010440 112.8744980 116.6412970 131.7222490 113.2880380
 115.3252060 131.0406020 113.5964890 119.9444270 131.3894680  95.5084970
 120.7372880 131.6783510  95.0566760 119.4248620 130.9586850  94.8297450
 124.6764870 127.5090310 112.8220390 124.0703030 127.5321910 112.0816140
 124.3718980 126.7773350 113.3587640 126.1065240 131.2370600 111.4329800
 127.0586990 131.1528620 111.3830040 125.9593460 131.9012310 112.1063590
 128.9974440 130.6164810  96.9321710 128.7115950 130.2029950  96.1175890
 128.7993990 131.5452520  96.8122230 113.5598050 123.8883900 111.8181030
 114.0637070 123.3091180 112.3897260 112.8205470 124.1724130 112.3557400
 120.4621670 126.6098090  95.3727320 120.3572310 125.9950440  96.0988700
 120.2945890 126.0863980  94.5890330 120.6135990 125.2954890 111.3516550
 119.8481660 125.8639890 111.2671220 120.7951950 125.0031100 110.4584780
 123.7024400 125.6718120  95.9769310 123.1534500 126.1187420  96.6212050
 124.3243660 125.1667370  96.5006980 127.7559340 127.0260220 111.9091570
 128.4968810 127.3635980 111.4059030 126.9932020 127.1952280 111.3561340
 115.5921130 122.0313490 112.7131100 115.6326470 121.7327360 113.6216330
 116.4466630 122.4321100 112.5538620 119.3699520 124.6309040  97.8734610
 119.7915940 124.4648910  98.7166000 119.4950360 123.8209270  97.3789750
 117.5326940 120.6105590 110.6805590 117.0023400 120.1196540 110.0528930
 118.2015010 121.0389790 110.1463520 121.8827160 123.6546650  95.1211710
 122.4032820 122.9395670  94.7552860 122.5295560 124.2932520  95.4212220
 126.4305000 125.0775050 110.4446780 126.8446020 125.2320130 111.2937200
 125.4956000 125.2030270 110.6072560 126.9027170 122.4171210 112.4485930
 127.4847940 121.6623530 112.3606410 127.0788940 122.9478650 111.6717410
 118.0199240 117.5767960 110.7602880 117.9256110 116.9588710 110.0353750
 117.4396630 118.3034250 110.5332790 120.7860680 116.1341200 107.7930270
 120.3377980 116.1565460 106.9475820 120.1525880 115.7360220 108.3900570
 121.1920230 125.0295530 108.4142710 121.6108340 125.8728260 108.2418950
 120.2728860 125.1667570 108.1849490 123.5284130 122.7611710 109.7980550
 123.6480340 122.1652850 110.5375390 124.3878130 122.7981400 109.3781850
 125.8672030 123.3148900 108.3743060 125.3407250 123.8391520 107.7708200
 126.2103370 123.9476290 109.0052790 118.2658420 120.7042270  94.8192770
 118.0647480 119.8409630  95.1806110 118.0950470 120.6175630  93.8814370
 119.0427650 131.3348540 109.5300440 118.5048740 132.0594600 109.2109140
 119.2961610 130.8578880 108.7397780 120.2952900 119.3033060 111.0556370
 120.8852590 118.9948910 111.7434190 119.4773140 118.8312810 111.2116270
 125.1146330 118.9198870 111.2889390 124.4261850 118.2580410 111.2239380
 125.8352350 118.4737140 111.7337850 125.7446730 115.5150500  97.3479650
 126.0249020 114.6718400  97.7039070 124.9712460 115.7473610  97.8618400
 117.0641220 117.8042890  94.8070650 117.3667120 117.8110320  93.8989800
 117.8035810 117.4540750  95.3038310 121.8989860 132.5699750 109.7887090
 121.8248560 133.4734890 110.0959460 120.9968700 132.2511650 109.7609160
 120.2826150 116.7477510  95.7926850 119.9348150 116.0701500  95.2129300
 120.4838920 116.2867020  96.6070240 122.4475190 131.7358260  97.4113450
 123.3425980 132.0743230  97.4332210 122.4792820 131.0137670  96.7837730
 116.0871350 127.1085310  95.6400450 116.5246220 127.6514980  96.2958030
 116.5719080 126.2832260  95.6496790 113.3017150 129.8974340 103.0920710
 113.6320160 129.0295400 102.8599350 113.7308150 130.1032860 103.9225670
 117.8979070 128.2283350 100.7522680 117.5974610 128.1048320 101.6526590
 117.7916560 127.3691940 100.3438410 113.7907360 130.7644930 105.8302340
 113.3538350 130.9445730 106.6626490 114.3585040 131.5219550 105.6884060
 129.4269540 130.2661930 110.1179650 128.8271530 130.3254490 109.3743570
 129.5563440 129.3266910 110.2476500 130.6670990 128.0079750  95.4549360
 129.8363950 128.0756400  95.9256590 130.8442820 128.8983870  95.1516220
 130.1227450 124.7527230  97.9583560 130.8846360 125.3223880  98.0643250
 130.1381820 124.1854430  98.7291870 113.6231790 123.2765160 102.1891220
 112.9680630 123.0076800 101.5450920 114.4609740 123.1669640 101.7393200
 131.1287420 125.6077330 102.8025490 131.4996250 124.8244650 102.3961460
 131.7689350 126.2966430 102.6242790 128.1121180 126.9913910 108.2155810
 127.2981020 127.4211070 108.4781600 128.5195380 127.6032320 107.6024860
 130.1746620 125.0461600  95.1156080 130.4495460 125.9540480  94.9875300
 129.9857360 124.9824130  96.0518070 126.5722230 118.0706450  96.4109710
 126.9907110 117.8837430  95.5706370 126.2658290 117.2185500  96.7212640
 130.0711960 122.9830590 100.1085510 129.6955560 122.2158520  99.6766800
 129.3415080 123.3653290 100.5960440 114.6607720 123.6617730 106.7294560
 115.0280760 123.5745130 107.6090580 114.0918540 122.8984280 106.6301420
 129.4611580 122.1302110 109.7425030 129.2297670 121.9014860 108.8422980
 129.7216130 123.0501660 109.6969920 114.2123720 120.5726820 110.6352980
 113.3179770 120.5393580 110.9746690 114.7521270 120.7713610 111.4004230
 127.8999650 117.3558540 112.5204730 128.7769830 117.3641940 112.9038730
 127.9120490 116.6189380 111.9097080 112.8369870 120.4864090  98.1316550
 111.9333950 120.7494290  97.9568210 113.3210490 120.7575260  97.3516510
 129.3462920 121.2088080 103.4092750 129.8700400 120.7150730 102.7782920
 129.9322340 121.3438440 104.1540320 129.5252640 121.2927950 106.9312300
 128.5755350 121.2591490 107.0457290 129.7065650 122.2028060 106.6962070
 115.3797080 119.5429630  96.0410930 116.0888780 119.1212850  95.5558210
 114.6637020 119.6104860  95.4094280 115.0271240 115.5968960  95.0813580
 115.7499370 116.1377900  95.3994800 115.2995760 115.3232380  94.2055120
 128.8362890 120.4661430  99.3485160 129.3322010 120.2332300 100.1334040
 128.6378960 119.6273270  98.9322800 114.7163430 114.8475150 104.9836200
 115.3639620 114.2972530 104.5431360 115.1365270 115.1018300 105.8052010
 130.2650050 119.1022380 101.8822840 130.1549330 118.9478420 102.8205110
 131.0257640 118.5743320 101.6398250 128.6115770 115.0416510 108.3405840
 129.2487990 115.6550650 108.7065030 128.7590660 115.0777170 107.3955070
 131.1540320 116.9330300  95.1228980 132.0789630 116.8011480  94.9147270
 131.1316110 117.0123120  96.0765430 131.2278810 117.7040960  97.7485690
 130.4330310 117.6386080  98.2778600 131.4322090 118.6391600  97.7371040
 128.1697230 131.7432510 101.7424080 128.7656300 131.4217080 101.0658500
 128.4275380 131.2704330 102.5337350 114.4695430 115.0030820 107.7261520
 114.1210250 115.4594640 108.4919700 114.1383130 114.1087950 107.8083950
 116.0759800 128.1750420 111.8914710 116.0329430 127.8043330 112.7729170
 116.2070810 129.1127990 112.0316530 119.7765830 129.7310010 107.4924430
 119.5357190 129.9984570 106.6054950 120.7168470 129.9015740 107.5475290
 121.9820250 116.1942700 111.2480940 121.9209140 116.7864530 111.9976350
 122.9220630 116.0868660 111.1031200 124.6194810 115.8512760 110.8873230
 125.2335220 116.1692050 110.2254310 125.1644370 115.3661350 111.5069090
 131.0369990 131.7504390 108.2935070 130.5428270 132.1473260 107.5762200
 130.4283280 131.1253600 108.6872350 115.1416070 114.5307020 111.0012290
 115.6899060 114.3495070 110.2378400 115.2071380 113.7401130 111.5368600
 115.9147830 131.1212670 109.0112490 115.3208150 130.9897370 109.7502530
 115.9071670 130.2850810 108.5454590 125.3602850 114.4144900 107.2142520
 124.4862690 114.7480010 107.0115450 125.2513600 113.9418080 108.0394390
 126.2674830 116.6215770 108.5984240 125.9388190 115.8067530 108.2185970
 127.2157130 116.5785580 108.4749930 128.7209440 132.3927810 105.5721810
 128.2612410 133.1443620 105.1979830 128.0921900 131.6734280 105.5136610
 115.5460060 128.4871050 107.9620530 114.8194120 127.8676340 107.8946480
 115.6069210 128.8811660 107.0918610 119.1505160 130.7016050 104.7469940
 119.6670180 130.0903410 104.2218200 119.8002540 131.2044830 105.2380950
 121.8900660 131.5924540 105.5738920 122.1778470 131.3378840 104.6971930
 122.4023880 131.0401900 106.1644490 123.1077670 115.3314740 106.1535430
 122.3249460 115.8060240 106.4332190 122.8140600 114.4269570 106.0448610
 127.6598740 116.0337840 104.1984520 128.1006830 115.9782940 103.3506120
 127.3906330 116.9495850 104.2694700 129.5237310 115.6653080 102.2093340
 129.4625710 114.7214300 102.0624360 130.3029340 115.7733170 102.7546800
 113.8290060 131.8045440 101.1717290 113.6612100 131.1716120 101.8699180
 112.9624570 132.0104840 100.8211480 114.4518080 115.6362220  98.6749150
 115.2097440 115.7491100  98.1013180 113.9895250 116.4731420  98.6292580
 120.9931890 117.7501490 101.6651460 120.1806400 117.3758380 101.3247340
 121.4973530 116.9946570 101.9672650 125.4956870 114.4143940 102.9034530
 126.0986240 114.9864150 103.3783050 124.7549860 114.9783380 102.6808430
 128.6391470 114.8165500  98.1774810 128.8342100 115.7148950  98.4442240
 127.8521340 114.5852580  98.6707760 115.4352760 130.4978670  98.6167430
 114.9100380 130.8786700  97.9129390 115.3597340 131.1229440  99.3377140
 116.8243230 116.1626270  97.2151120 117.3535990 115.3756070  97.0859070
 117.4571550 116.8417460  97.4486650 119.0181070 115.9001410 100.2696510
 118.3883810 115.1988720 100.4366640 118.4786210 116.6605540 100.0529670
 121.9573020 132.5140640 112.9407120 122.8840330 132.2784910 112.9843080
 121.9423450 133.3412640 112.4593150 130.1918080 132.0566210  99.9381370
 130.3670270 131.3703950  99.2942290 129.4939650 132.5813260  99.5458040
 119.1436630 115.1785390 112.7049000 118.8620900 115.6818990 111.9409820
 119.5256330 114.3807140 112.3391130 118.0345730 132.4461050  97.4916680
 118.7664550 132.1620330  96.9440570 118.2939400 132.2074330  98.3816060
 117.1960520 128.5625780  97.4963010 116.5669400 129.0310880  98.0448840
 117.3108350 127.7175000  97.9309200 125.7452090 114.5938970 113.2829470
 125.6317540 114.9133580 114.1780990 126.5621830 114.9951480 112.9866750
 128.5250580 131.7410500 112.7648160 129.3175900 131.2459730 112.5574120
 128.8183730 132.4200640 113.3723770 124.6510240 122.6131440  83.6464210
 124.5704290 121.6986050  83.3755920 124.2374660 123.1098510  82.9403920
 122.7828280 124.3910460  85.5273480 122.0070380 123.9110900  85.8172050
 123.4341210 123.7116110  85.3529640 116.7994110 124.7030270  86.4049240
 115.9678990 124.4478980  86.8045750 117.4075090 124.7741040  87.1407160
 126.8035710 128.7970650  84.3072610 126.3417240 128.0257890  84.6359780
 127.6161260 128.8236720  84.8125060 116.7795370 128.7370360  86.6007260
 117.0823410 127.8468100  86.4217480 117.5238960 129.2940580  86.3729510
 115.2086060 119.6632160  80.1891630 114.3202760 120.0048130  80.0871510
 115.4927250 119.4632480  79.2972460 123.0299020 131.0828660  83.9276600
 122.4110460 131.5386160  83.3571040 123.8850800 131.2380120  83.5266300
 122.2237270 127.0667650  85.5343640 122.1545550 126.1257590  85.3732770
 122.9857130 127.1569060  86.1066210 114.4143940 117.6722170  87.8600260
 114.2346780 116.7747920  88.1403020 114.0124020 118.2194040  88.5347210
 123.2542440 119.8738030  85.7612570 123.6307260 119.0009910  85.6486240
 123.1561950 120.2096730  84.8703010 117.3847450 118.2463660  81.2230010
 117.4914200 119.1467390  81.5298770 116.4739810 118.1981630  80.9324660
 127.0366560 117.3688470  82.6940910 127.8576180 116.8785040  82.7366390
 127.0700640 117.9586130  83.4472750 115.0330610 120.1682670  86.4682600
 115.7140720 120.4321040  87.0870000 114.7178660 119.3283540  86.8020610
 119.2255180 121.2150030  85.5555190 119.7333400 121.7131000  86.1960210
 119.7568420 120.4385230  85.3794550 131.3266110 119.3855220  89.2584540
 130.6218280 119.7736930  88.7399650 131.5924030 120.0805510  89.8605470
 117.5091280 115.8548590  89.8218610 117.5109720 116.3720980  89.0164510
 116.6795590 115.3778770  89.7988540 123.8962370 125.9667900  81.3208510
 123.2779640 126.4317350  80.7571230 124.4085620 126.6595380  81.7378020
 118.7594130 125.4943770  87.9992110 118.4263510 126.1212690  88.6413180
 118.9360810 126.0205650  87.2193780 127.2728040 119.3088850  85.4668450
 126.5683610 119.5973740  86.0471560 127.6340200 120.1188960  85.1068010
 117.1906610 117.5658550  87.8289060 117.5323420 118.4100600  87.5342930
 116.2522420 117.7142290  87.9454400 117.9713230 127.4624570  89.8141290
 118.5887230 128.1375650  89.5325740 117.1106350 127.8712550  89.7228790
 128.8890820 128.9263980  87.7295930 128.2054340 129.5963090  87.7212600
 129.4285110 129.1244630  86.9640790 130.3414960 118.7543640  85.8577660
 129.3939870 118.7882620  85.9893090 130.6664950 119.5682590  86.2427020
 120.8734500 115.0540820  84.1533650 121.1809480 114.4987710  83.4369150
 119.9435200 115.1885280  83.9706640 126.4249560 130.7708110  86.4441110
 126.4376720 130.3670400  85.5763370 125.8724780 131.5455400  86.3402540
 127.7194980 127.4924330  81.5331280 127.6091310 126.5498660  81.6580700
 127.7163230 127.8539970  82.4194040 125.8235000 125.6737950  87.7723720
 126.2403790 125.4598060  86.9377180 126.5474820 125.9310740  88.3432340
 123.2615260 123.1189650  80.8893770 122.3344540 123.0527030  81.1182240
 123.4140080 124.0569780  80.7749010 123.2484340 119.3906650  77.8860930
 122.3088010 119.5520610  77.9713390 123.5667600 120.1092330  77.3396920
 129.7697100 124.0725170  87.8639960 128.9415730 124.1418260  87.3890090
 130.3647580 124.6579480  87.3955790 127.2912550 124.6809950  81.3929020
 126.6724970 124.3429500  80.7455320 127.2737000 124.0369710  82.1008210
 126.7339110 120.8594490  88.8094830 126.3210290 121.6848200  89.0634820
 126.0015060 120.2739530  88.6171190 118.8671900 123.6454390  83.6713500
 118.4628900 122.9331640  83.1759400 118.9535020 123.3007630  84.5601540
 119.3353600 127.3321950  85.8352710 119.0381890 126.7267420  85.1560490
 120.2853420 127.3699260  85.7242070 117.5800520 120.4197600  87.4512540
 118.1315110 120.5292940  86.6765790 118.0944030 120.7935200  88.1667770
 127.4239210 130.9053820  89.4975810 126.9469770 131.7126010  89.3048420
 126.7401000 130.2532150  89.6502020 118.4272030 127.0703640  92.4860510
 117.5300560 127.2943610  92.7333910 118.4524900 127.1938580  91.5371910
 125.4677250 123.9196760  78.4001770 125.9070530 123.0819190  78.2539590
 126.1805670 124.5526160  78.4865910 117.2543250 123.9416960  91.0617880
 117.1151020 124.8139760  91.4305280 116.3724610 123.5989770  90.9165820
 123.5772630 128.8592830  82.3683010 124.0168540 129.6017160  81.9538400
 123.5159520 129.1019400  83.2921970 119.0523600 129.8838660  93.2703030
 119.0239030 130.2881610  92.4031460 118.8888570 128.9549020  93.1074630
 129.0494390 115.1739570  76.7142810 128.7367050 115.2666400  77.6141880
 129.8106860 115.7520600  76.6640240 115.5676530 122.5399370  81.1720150
 115.4474130 123.2661460  80.5601420 115.2577420 121.7702280  80.6948060
 131.0038420 130.6665760  94.5667200 131.4798140 131.1448650  95.2456280
 131.6245580 130.5983250  93.8412700 130.4071670 127.8578610  91.7267210
 130.5334730 127.6190490  90.8084390 130.4493050 127.0263150  92.1989290
 124.2688410 131.5606610  90.2962020 124.7833080 131.4714620  91.0984450
 123.4257490 131.9066310  90.5889930 126.2442810 131.8461950  79.7246020
 126.0843950 131.5564890  80.6227850 126.0789520 131.0702080  79.1891250
 118.7231190 131.6260480  81.5017640 118.5473670 130.7096020  81.2885440
 117.8686930 131.9847770  81.7415440 125.9468940 129.3549510  78.2844020
 125.2534100 129.3526800  77.6246300 126.6891800 128.9308830  77.8538190
 125.5118870 130.9812220  82.3592510 125.9675820 130.2001600  82.6731130
 125.8511390 131.6919040  82.9033690 130.2595680 119.9111070  92.6916950
 129.6439950 120.4190740  92.1632410 129.9392100 119.0109400  92.6342890
 113.2621420 126.7528680  89.5183250 113.4252460 126.2834040  88.7002620
 113.7273870 126.2452240  90.1832090 118.0340190 115.8834440  84.5543820
 117.5908340 116.6643980  84.2228340 118.5925180 116.2064330  85.2614760
 122.3210000 118.7502960  90.1579140 121.8589370 118.9585980  90.9699080
 121.9188110 117.9362310  89.8549810 127.3214510 119.9711910  91.2875800
 126.4708100 119.6717660  91.6084870 127.1616300 120.2153920  90.3759620
 124.4164220 121.4713660  93.3874590 124.7417630 120.6377410  93.0476820
 125.2044550 121.9942180  93.5352920 121.1499010 115.5045140  79.4349650
 120.5253190 115.5005010  80.1602960 121.0629130 114.6376100  79.0385620
 120.0716090 116.4281770  86.4133420 120.3688420 117.3344600  86.3325440
 120.6201650 115.9400550  85.7992990 117.8254410 121.0068010  82.2825070
 117.5995330 120.7905180  83.1871690 117.0446940 121.4396470  81.9371040
 125.0552170 121.0131380  80.8815720 124.4561060 121.7367180  80.6979340
 125.6031780 120.9508160  80.0992170 120.2653620 121.9053590  92.9485340
 120.1697220 120.9648320  92.7985740 121.1085600 122.1268660  92.5533410
 123.6617040 119.6494920  82.9119000 124.0546610 119.9667120  82.0987690
 124.0233890 118.7706800  83.0263520 115.3964160 118.3167260  91.1019120
 115.0027550 119.1642470  91.3091900 114.7082560 117.6793630  91.2927760
 121.9709210 118.4002230  94.1715860 121.2807530 118.2074430  94.8061950
 122.7141510 118.6836870  94.7040160 112.6981210 116.2395720  85.1349200
 112.4094260 116.8098580  85.8474180 113.4426970 115.7600170  85.4980430
 112.8851440 120.1815840  76.3451920 112.8026110 121.1246600  76.4866910
 112.5334500 120.0390750  75.4664270 124.2472180 122.2400670  87.0069780
 123.5153300 122.7487480  87.3559880 123.8496520 121.4230650  86.7058560
 120.6849570 118.9154870  85.4122270 120.6885630 118.4744820  84.5626810
 121.5800690 119.2372200  85.5194090 116.5351950 118.7981360  84.3716480
 116.1952000 119.2756590  85.1283530 115.7729270 118.3446480  84.0117580
 120.7469720 119.9166950  78.4029030 120.8682540 119.8753430  79.3514850
 120.3618230 120.7791100  78.2475760 124.7098090 117.6934350  86.4192720
 124.7270830 118.1443000  87.2634570 124.4613670 116.7939990  86.6326160
 119.7591220 122.2268090  77.8012330 119.1908120 121.7786340  77.1748240
 120.4680220 122.5860870  77.2677480 128.1368840 115.1066530  92.2579100
 128.4614610 114.3756190  92.7837080 128.1725350 114.7880170  91.3560090
 114.8360400 126.1280110  91.6779060 114.4515190 125.4873780  92.2762020
 115.1472590 126.8316230  92.2473790 120.9857540 122.9756650  87.1587680
 121.3527670 122.5015220  87.9049020 120.7962600 123.8498220  87.4996020
 113.8498030 117.7200340  83.2881150 113.5644950 117.3556010  84.1259770
 113.7876890 116.9880800  82.6744290 118.7756910 122.0165290  89.4771890
 118.4713980 122.8957270  89.7022250 119.7303370 122.0765080  89.5129330
 117.3038700 126.2226280  80.0738740 116.5300960 125.6823900  79.9137460
 118.0333330 125.7032890  79.7356500 128.0626680 125.2191640  85.8665130
 128.7825800 125.7146930  85.4761240 127.8608500 124.5409530  85.2219000
 123.5236620 116.6129600  80.0094520 122.7101230 116.1142770  79.9339830
 123.3298570 117.4527850  79.5930870 123.4445480 125.2900700  91.7534130
 123.3782790 124.3696370  91.4991720 122.8150620 125.3876140  92.4678770
 126.2385010 120.9849250  78.3056680 127.1264630 121.2966480  78.1308020
 126.2090100 120.1121500  77.9137260 117.3476100 125.8906660  83.7117550
 117.8654770 125.0874920  83.6574440 116.8960120 125.8285800  84.5534380
 122.2345600 127.1572940  78.9844850 122.5761300 127.9015170  78.4888170
 121.4058310 127.4704060  79.3469680 114.8320640 122.8568030  90.6243250
 114.4735580 123.5221880  91.2116590 114.5375200 122.0251580  90.9955870
 118.0333760 123.3152270  93.5082800 117.7333900 123.4609450  92.6110620
 118.8045000 122.7557560  93.4156190 123.3762210 128.1121270  91.5037930
 123.3906750 127.1802230  91.2856840 122.6687310 128.1981030  92.1427700
 128.5099280 122.2961090  77.7736540 128.4263000 122.7275310  76.9232980
 129.2293470 122.7559440  78.2063360 129.5873420 124.7528610  90.8506510
 128.8621610 125.3457390  90.6535900 130.1148880 124.7452150  90.0519880
 129.5386530 129.1503350  80.5018670 128.8962690 128.4958970  80.7762390
 129.1517190 129.5558440  79.7259340 125.1173010 126.4788780  84.3490360
 125.4696830 125.8816910  83.6891730 124.2335340 126.1533010  84.5198610
 121.2036290 127.2386470  81.7560770 121.8907420 127.7855680  82.1368360
 120.4168710 127.7827200  81.7910380 120.5063500 124.2432500  81.3686130
 120.9626280 125.0537750  81.5946320 120.1551710 123.9255640  82.2004620
 122.8096110 129.7538840  88.5978430 123.4538330 129.9598220  89.2751850
 123.1725550 128.9927240  88.1449280 116.4075280 114.5870150  81.8408650
 116.2789910 114.5788050  82.7893570 115.5837300 114.9253240  81.4899660
 124.0828190 127.7571190  87.3155880 124.7250420 127.0564350  87.4288050
 124.6077540 128.5369630  87.1352770 127.9283910 128.0419810  77.0395020
 127.7021490 127.3250250  77.6319660 127.5380110 127.7932250  76.2016770
 125.8565810 128.5566090  90.5191940 126.1922050 129.1432780  91.1969860
 124.9366150 128.4258800  90.7489730 113.7099940 132.0686670  77.8139480
 114.0697580 132.6676010  77.1596750 113.5692280 132.6146560  78.5874510
 113.4069210 116.3461270  91.3015350 112.6927730 116.5458190  91.9067960
 113.8264250 115.5700840  91.6730150 127.5100160 125.9591750  78.7009180
 127.2221860 126.4204440  79.4887060 128.3052330 125.4989520  78.9693400
 113.6941800 130.3341530  92.2881880 113.8032920 129.3936270  92.1477270
 113.0422360 130.5996280  91.6395610 121.6854390 128.6057420  93.6880000
 121.3651260 127.8866660  94.2325690 121.0112750 129.2812490  93.7616060
 119.7268560 129.4517870  78.6313150 119.7178660 130.1847560  78.0157660
 118.8066920 129.2049450  78.7240110 115.3275200 124.6732760  79.3759910
 114.7203150 125.4131660  79.3855210 115.8024550 124.7632120  78.5498110
 124.9007990 118.8383580  89.0516800 125.2688810 118.0178790  89.3796370
 124.0406190 118.8985470  89.4672450 128.2670020 117.7940520  79.8604360
 127.6383180 117.8986190  79.1462590 127.7721940 118.0137300  80.6498240
 122.7128160 129.5146110  77.2938340 122.8140140 129.3110100  76.3640320
 121.8129900 129.2604390  77.4986120 120.2354050 120.0726470  81.2762240
 119.5270200 120.5412810  81.7175850 120.5198530 119.4148480  81.9107430
 121.8609980 121.4923170  89.2754770 122.3595230 121.9668990  89.9406620
 122.0032930 120.5686690  89.4824800 124.2669480 116.7977130  82.7158030
 124.1437260 116.8163260  81.7667540 125.2154040 116.8456070  82.8356430
 121.3546270 132.0332430  81.9886010 121.6087770 131.9953820  81.0665380
 120.4058750 131.9065760  81.9814260 118.4389070 118.3811550  78.6512950
 119.2879600 118.8181700  78.5853140 118.0720340 118.6931810  79.4785010
 129.0676840 117.7091130  90.1183160 128.5650440 118.4496530  90.4576970
 129.8833500 118.0975130  89.8019950 127.3598850 122.9524310  83.5644520
 126.4188990 122.9674540  83.7392210 127.6742920 122.1660270  84.0104820
 117.3380490 124.6343910  77.1248480 118.1043760 124.5225270  77.6873910
 117.4155180 123.9381880  76.4725250 116.0327250 122.0668980  77.8081370
 116.1130840 121.1196490  77.9198770 116.9247000 122.3975860  77.9142030
 129.3624430 130.1233160  85.2398780 129.4871850 130.9464330  85.7122590
 130.2289990 129.9123890  84.8922930 116.8341960 132.2164370  84.9115910
 117.5704440 131.6679830  85.1824480 117.2182880 133.0820380  84.7721900
 113.7187440 128.2837940  80.7857420 112.7927220 128.5259080  80.7762830
 114.1843870 129.1112200  80.6642170 115.8400240 131.4010440  94.1001490
 116.6412970 131.7222490  94.5136890 115.3252060 131.0406020  94.8221400
 119.9444270 131.3894680  76.7341480 120.7372880 131.6783510  76.2823270
 119.4248620 130.9586850  76.0553960 124.6764870 127.5090310  94.0476900
 124.0703030 127.5321910  93.3072650 124.3718980 126.7773350  94.5844150
 126.1065240 131.2370600  92.6586310 127.0586990 131.1528620  92.6086550
 125.9593460 131.9012310  93.3320100 128.9974440 130.6164810  78.1578220
 128.7115950 130.2029950  77.3432400 128.7993990 131.5452520  78.0378740
 113.5598050 123.8883900  93.0437540 114.0637070 123.3091180  93.6153770
 112.8205470 124.1724130  93.5813910 120.4621670 126.6098090  76.5983830
 120.3572310 125.9950440  77.3245210 120.2945890 126.0863980  75.8146840
 120.6135990 125.2954890  92.5773060 119.8481660 125.8639890  92.4927730
 120.7951950 125.0031100  91.6841290 123.7024400 125.6718120  77.2025820
 123.1534500 126.1187420  77.8468560 124.3243660 125.1667370  77.7263490
 127.7559340 127.0260220  93.1348080 128.4968810 127.3635980  92.6315540
 126.9932020 127.1952280  92.5817850 115.5921130 122.0313490  93.9387610
 115.6326470 121.7327360  94.8472840 116.4466630 122.4321100  93.7795130
 119.3699520 124.6309040  79.0991120 119.7915940 124.4648910  79.9422510
 119.4950360 123.8209270  78.6046260 117.5326940 120.6105590  91.9062100
 117.0023400 120.1196540  91.2785440 118.2015010 121.0389790  91.3720030
 121.8827160 123.6546650  76.3468220 122.4032820 122.9395670  75.9809370
 122.5295560 124.2932520  76.6468730 126.4305000 125.0775050  91.6703290
 126.8446020 125.2320130  92.5193710 125.4956000 125.2030270  91.8329070
 126.9027170 122.4171210  93.6742440 127.4847940 121.6623530  93.5862920
 127.0788940 122.9478650  92.8973920 118.0199240 117.5767960  91.9859390
 117.9256110 116.9588710  91.2610260 117.4396630 118.3034250  91.7589300
 120.7860680 116.1341200  89.0186780 120.3377980 116.1565460  88.1732330
 120.1525880 115.7360220  89.6157080 121.1920230 125.0295530  89.6399220
 121.6108340 125.8728260  89.4675460 120.2728860 125.1667570  89.4106000
 123.5284130 122.7611710  91.0237060 123.6480340 122.1652850  91.7631900
 124.3878130 122.7981400  90.6038360 125.8672030 123.3148900  89.5999570
 125.3407250 123.8391520  88.9964710 126.2103370 123.9476290  90.2309300
 118.2658420 120.7042270  76.0449280 118.0647480 119.8409630  76.4062620
 118.0950470 120.6175630  75.1070880 119.0427650 131.3348540  90.7556950
 118.5048740 132.0594600  90.4365650 119.2961610 130.8578880  89.9654290
 120.2952900 119.3033060  92.2812880 120.8852590 118.9948910  92.9690700
 119.4773140 118.8312810  92.4372780 125.1146330 118.9198870  92.5145900
 124.4261850 118.2580410  92.4495890 125.8352350 118.4737140  92.9594360
 125.7446730 115.5150500  78.5736160 126.0249020 114.6718400  78.9295580
 124.9712460 115.7473610  79.0874910 117.0641220 117.8042890  76.0327160
 117.3667120 117.8110320  75.1246310 117.8035810 117.4540750  76.5294820
 121.8989860 132.5699750  91.0143600 121.8248560 133.4734890  91.3215970
 120.9968700 132.2511650  90.9865670 120.2826150 116.7477510  77.0183360
 119.9348150 116.0701500  76.4385810 120.4838920 116.2867020  77.8326750
 122.4475190 131.7358260  78.6369960 123.3425980 132.0743230  78.6588720
 122.4792820 131.0137670  78.0094240 113.3017150 129.8974340  84.3177220
 113.6320160 129.0295400  84.0855860 113.7308150 130.1032860  85.1482180
 117.8979070 128.2283350  81.9779190 117.5974610 128.1048320  82.8783100
 117.7916560 127.3691940  81.5694920 113.7907360 130.7644930  87.0558850
 113.3538350 130.9445730  87.8883000 114.3585040 131.5219550  86.9140570
 129.4269540 130.2661930  91.3436160 128.8271530 130.3254490  90.6000080
 129.5563440 129.3266910  91.4733010 130.6670990 128.0079750  76.6805870
 129.8363950 128.0756400  77.1513100 130.8442820 128.8983870  76.3772730
 130.1227450 124.7527230  79.1840070 130.8846360 125.3223880  79.2899760
 130.1381820 124.1854430  79.9548380 131.1287420 125.6077330  84.0282000
 131.4996250 124.8244650  83.6217970 131.7689350 126.2966430  83.8499300
 128.1121180 126.9913910  89.4412320 127.2981020 127.4211070  89.7038110
 128.5195380 127.6032320  88.8281370 130.1746620 125.0461600  76.3412590
 130.4495460 125.9540480  76.2131810 129.9857360 124.9824130  77.2774580
 126.5722230 118.0706450  77.6366220 126.9907110 117.8837430  76.7962880
 126.2658290 117.2185500  77.9469150 130.0711960 122.9830590  81.3342020
 129.6955560 122.2158520  80.9023310 129.3415080 123.3653290  81.8216950
 114.6607720 123.6617730  87.9551070 115.0280760 123.5745130  88.8347090
 114.0918540 122.8984280  87.8557930 129.4611580 122.1302110  90.9681540
 129.2297670 121.9014860  90.0679490 129.7216130 123.0501660  90.9226430
 114.2123720 120.5726820  91.8609490 113.3179770 120.5393580  92.2003200
 114.7521270 120.7713610  92.6260740 127.8999650 117.3558540  93.7461240
 128.7769830 117.3641940  94.1295240 127.9120490 116.6189380  93.1353590
 129.3462920 121.2088080  84.6349260 129.8700400 120.7150730  84.0039430
 129.9322340 121.3438440  85.3796830 129.5252640 121.2927950  88.1568810
 128.5755350 121.2591490  88.2713800 129.7065650 122.2028060  87.9218580
 115.3797080 119.5429630  77.2667440 116.0888780 119.1212850  76.7814720
 114.6637020 119.6104860  76.6350790 115.0271240 115.5968960  76.3070090
 115.7499370 116.1377900  76.6251310 115.2995760 115.3232380  75.4311630
 128.8362890 120.4661430  80.5741670 129.3322010 120.2332300  81.3590550
 128.6378960 119.6273270  80.1579310 114.7163430 114.8475150  86.2092710
 115.3639620 114.2972530  85.7687870 115.1365270 115.1018300  87.0308520
 130.2650050 119.1022380  83.1079350 130.1549330 118.9478420  84.0461620
 131.0257640 118.5743320  82.8654760 128.6115770 115.0416510  89.5662350
 129.2487990 115.6550650  89.9321540 128.7590660 115.0777170  88.6211580
 131.1540320 116.9330300  76.3485490 132.0789630 116.8011480  76.1403780
 131.1316110 117.0123120  77.3021940 131.2278810 117.7040960  78.9742200
 130.4330310 117.6386080  79.5035110 131.4322090 118.6391600  78.9627550
 128.1697230 131.7432510  82.9680590 128.7656300 131.4217080  82.2915010
 128.4275380 131.2704330  83.7593860 114.4695430 115.0030820  88.9518030
 114.1210250 115.4594640  89.7176210 114.1383130 114.1087950  89.0340460
 116.0759800 128.1750420  93.1171220 116.0329430 127.8043330  93.9985680
 116.2070810 129.1127990  93.2573040 119.7765830 129.7310010  88.7180940
 119.5357190 129.9984570  87.8311460 120.7168470 129.9015740  88.7731800
 121.9820250 116.1942700  92.4737450 121.9209140 116.7864530  93.2232860
 122.9220630 116.0868660  92.3287710 124.6194810 115.8512760  92.1129740
 125.2335220 116.1692050  91.4510820 125.1644370 115.3661350  92.7325600
 131.0369990 131.7504390  89.5191580 130.5428270 132.1473260  88.8018710
 130.4283280 131.1253600  89.9128860 115.1416070 114.5307020  92.2268800
 115.6899060 114.3495070  91.4634910 115.2071380 113.7401130  92.7625110
 115.9147830 131.1212670  90.2369000 115.3208150 130.9897370  90.9759040
 115.9071670 130.2850810  89.7711100 126.2674830 116.6215770  89.8240750
 125.9388190 115.8067530  89.4442480 127.2157130 116.5785580  89.7006440
 128.7209440 132.3927810  86.7978320 128.2612410 133.1443620  86.4236340
 128.0921900 131.6734280  86.7393120 115.5460060 128.4871050  89.1877040
 114.8194120 127.8676340  89.1202990 115.6069210 128.8811660  88.3175120
 119.1505160 130.7016050  85.9726450 119.6670180 130.0903410  85.4474710
 119.8002540 131.2044830  86.4637460 121.8900660 131.5924540  86.7995430
 122.1778470 131.3378840  85.9228440 122.4023880 131.0401900  87.3901000
 123.1077670 115.3314740  87.3791940 122.3249460 115.8060240  87.6588700
 122.8140600 114.4269570  87.2705120 127.6598740 116.0337840  85.4241030
 128.1006830 115.9782940  84.5762630 127.3906330 116.9495850  85.4951210
 129.5237310 115.6653080  83.4349850 129.4625710 114.7214300  83.2880870
 130.3029340 115.7733170  83.9803310 113.8290060 131.8045440  82.3973800
 113.6612100 131.1716120  83.0955690 112.9624570 132.0104840  82.0467990
 114.4518080 115.6362220  79.9005660 115.2097440 115.7491100  79.3269690
 113.9895250 116.4731420  79.8549090 120.9931890 117.7501490  82.8907970
 120.1806400 117.3758380  82.5503850 121.4973530 116.9946570  83.1929160
 125.4956870 114.4143940  84.1291040 126.0986240 114.9864150  84.6039560
 124.7549860 114.9783380  83.9064940 128.6391470 114.8165500  79.4031320
 128.8342100 115.7148950  79.6698750 127.8521340 114.5852580  79.8964270
 115.4352760 130.4978670  79.8423940 114.9100380 130.8786700  79.1385900
 115.3597340 131.1229440  80.5633650 116.8243230 116.1626270  78.4407630
 117.3535990 115.3756070  78.3115580 117.4571550 116.8417460  78.6743160
 119.0181070 115.9001410  81.4953020 118.3883810 115.1988720  81.6623150
 118.4786210 116.6605540  81.2786180 121.9573020 132.5140640  94.1663630
 122.8840330 132.2784910  94.2099590 121.9423450 133.3412640  93.6849660
 130.1918080 132.0566210  81.1637880 130.3670270 131.3703950  80.5198800
 129.4939650 132.5813260  80.7714550 119.1436630 115.1785390  93.9305510
 118.8620900 115.6818990  93.1666330 119.5256330 114.3807140  93.5647640
 118.0345730 132.4461050  78.7173190 118.7664550 132.1620330  78.1697080
 118.2939400 132.2074330  79.6072570 117.1960520 128.5625780  78.7219520
 116.5669400 129.0310880  79.2705350 117.3108350 127.7175000  79.1565710
 125.7452090 114.5938970  94.5085980 125.6317540 114.9133580  95.4037500
 126.5621830 114.9951480  94.2123260 128.5250580 131.7410500  93.9904670
 129.3175900 131.2459730  93.7830630 128.8183730 132.4200640  94.5980280
 124.6510240 122.6131440  64.8720720 124.5704290 121.6986050  64.6012430
 124.2374660 123.1098510  64.1660430 122.7828280 124.3910460  66.7529990
 122.0070380 123.9110900  67.0428560 123.4341210 123.7116110  66.5786150
 116.7994110 124.7030270  67.6305750 115.9678990 124.4478980  68.0302260
 117.4075090 124.7741040  68.3663670 126.8035710 128.7970650  65.5329120
 126.3417240 128.0257890  65.8616290 127.6161260 128.8236720  66.0381570
 116.7795370 128.7370360  67.8263770 117.0823410 127.8468100  67.6473990
 117.5238960 129.2940580  67.5986020 113.1719070 122.2637810  67.2987840
 113.7435180 121.4960010  67.2991480 113.1720610 122.5626570  66.3894450
 123.0299020 131.0828660  65.1533110 122.4110460 131.5386160  64.5827550
 123.8850800 131.2380120  64.7522810 122.2237270 127.0667650  66.7600150
 122.1545550 126.1257590  66.5989280 122.9857130 127.1569060  67.3322720
 114.4143940 117.6722170  69.0856770 114.2346780 116.7747920  69.3659530
 114.0124020 118.2194040  69.7603720 123.2542440 119.8738030  66.9869080
 123.6307260 119.0009910  66.8742750 123.1561950 120.2096730  66.0959520
 117.3847450 118.2463660  62.4486520 117.4914200 119.1467390  62.7555280
 116.4739810 118.1981630  62.1581170 127.0366560 117.3688470  63.9197420
 127.8576180 116.8785040  63.9622900 127.0700640 117.9586130  64.6729260
 115.0330610 120.1682670  67.6939110 115.7140720 120.4321040  68.3126510
 114.7178660 119.3283540  68.0277120 119.2255180 121.2150030  66.7811700
 119.7333400 121.7131000  67.4216720 119.7568420 120.4385230  66.6051060
 131.3266110 119.3855220  70.4841050 130.6218280 119.7736930  69.9656160
 131.5924030 120.0805510  71.0861980 117.5091280 115.8548590  71.0475120
 117.5109720 116.3720980  70.2421020 116.6795590 115.3778770  71.0245050
 123.8962370 125.9667900  62.5465020 123.2779640 126.4317350  61.9827740
 124.4085620 126.6595380  62.9634530 118.7594130 125.4943770  69.2248620
 118.4263510 126.1212690  69.8669690 118.9360810 126.0205650  68.4450290
 127.2728040 119.3088850  66.6924960 126.5683610 119.5973740  67.2728070
 127.6340200 120.1188960  66.3324520 117.1906610 117.5658550  69.0545570
 117.5323420 118.4100600  68.7599440 116.2522420 117.7142290  69.1710910
 117.9713230 127.4624570  71.0397800 118.5887230 128.1375650  70.7582250
 117.1106350 127.8712550  70.9485300 113.2645570 126.6524430  59.9204650
 112.8873550 127.1411530  59.1889550 113.5218640 127.3249710  60.5511180
 128.8890820 128.9263980  68.9552440 128.2054340 129.5963090  68.9469110
 129.4285110 129.1244630  68.1897300 130.3414960 118.7543640  67.0834170
 129.3939870 118.7882620  67.2149600 130.6664950 119.5682590  67.4683530
 120.8734500 115.0540820  65.3790160 121.1809480 114.4987710  64.6625660
 119.9435200 115.1885280  65.1963150 126.4249560 130.7708110  67.6697620
 126.4376720 130.3670400  66.8019880 125.8724780 131.5455400  67.5659050
 127.7194980 127.4924330  62.7587790 127.6091310 126.5498660  62.8837210
 127.7163230 127.8539970  63.6450550 125.8235000 125.6737950  68.9980230
 126.2403790 125.4598060  68.1633690 126.5474820 125.9310740  69.5688850
 123.2615260 123.1189650  62.1150280 122.3344540 123.0527030  62.3438750
 123.4140080 124.0569780  62.0005520 123.2484340 119.3906650  59.1117440
 122.3088010 119.5520610  59.1969900 123.5667600 120.1092330  58.5653430
 129.7697100 124.0725170  69.0896470 128.9415730 124.1418260  68.6146600
 130.3647580 124.6579480  68.6212300 127.2912550 124.6809950  62.6185530
 126.6724970 124.3429500  61.9711830 127.2737000 124.0369710  63.3264720
 126.7339110 120.8594490  70.0351340 126.3210290 121.6848200  70.2891330
 126.0015060 120.2739530  69.8427700 118.8671900 123.6454390  64.8970010
 118.4628900 122.9331640  64.4015910 118.9535020 123.3007630  65.7858050
 119.3353600 127.3321950  67.0609220 119.0381890 126.7267420  66.3817000
 120.2853420 127.3699260  66.9498580 117.5800520 120.4197600  68.6769050
 118.1315110 120.5292940  67.9022300 118.0944030 120.7935200  69.3924280
 127.4239210 130.9053820  70.7232320 126.9469770 131.7126010  70.5304930
 126.7401000 130.2532150  70.8758530 118.4272030 127.0703640  73.7117020
 117.5300560 127.2943610  73.9590420 118.4524900 127.1938580  72.7628420
 125.4677250 123.9196760  59.6258280 125.9070530 123.0819190  59.4796100
 126.1805670 124.5526160  59.7122420 117.2543250 123.9416960  72.2874390
 117.1151020 124.8139760  72.6561790 116.3724610 123.5989770  72.1422330
 123.5772630 128.8592830  63.5939520 124.0168540 129.6017160  63.1794910
 123.5159520 129.1019400  64.5178480 119.0523600 129.8838660  74.4959540
 119.0239030 130.2881610  73.6287970 118.8888570 128.9549020  74.3331140
 129.0494390 115.1739570  57.9399320 128.7367050 115.2666400  58.8398390
 129.8106860 115.7520600  57.8896750 115.5676530 122.5399370  62.3976660
 115.4474130 123.2661460  61.7857930 115.2577420 121.7702280  61.9204570
 131.0038420 130.6665760  75.7923710 131.4798140 131.1448650  76.4712790
 131.6245580 130.5983250  75.0669210 113.2061900 125.7114510  68.2045300
 113.2842320 125.8463280  67.2601020 113.8203580 125.0030400  68.3973420
 114.4509530 127.4114700  64.6151480 114.0437610 127.5529290  63.7605080
 115.3422540 127.1274860  64.4122690 130.4071670 127.8578610  72.9523720
 130.5334730 127.6190490  72.0340900 130.4493050 127.0263150  73.4245800
 124.2688410 131.5606610  71.5218530 124.7833080 131.4714620  72.3240960
 123.4257490 131.9066310  71.8146440 126.2442810 131.8461950  60.9502530
 126.0843950 131.5564890  61.8484360 126.0789520 131.0702080  60.4147760
 118.7231190 131.6260480  62.7274150 118.5473670 130.7096020  62.5141950
 117.8686930 131.9847770  62.9671950 125.9468940 129.3549510  59.5100530
 125.2534100 129.3526800  58.8502810 126.6891800 128.9308830  59.0794700
 125.5118870 130.9812220  63.5849020 125.9675820 130.2001600  63.8987640
 125.8511390 131.6919040  64.1290200 130.2595680 119.9111070  73.9173460
 129.6439950 120.4190740  73.3888920 129.9392100 119.0109400  73.8599400
 113.2621420 126.7528680  70.7439760 113.4252460 126.2834040  69.9259130
 113.7273870 126.2452240  71.4088600 118.0340190 115.8834440  65.7800330
 117.5908340 116.6643980  65.4484850 118.5925180 116.2064330  66.4871270
 122.3210000 118.7502960  71.3835650 121.8589370 118.9585980  72.1955590
 121.9188110 117.9362310  71.0806320 127.3214510 119.9711910  72.5132310
 126.4708100 119.6717660  72.8341380 127.1616300 120.2153920  71.6016130
 124.4164220 121.4713660  74.6131100 124.7417630 120.6377410  74.2733330
 125.2044550 121.9942180  74.7609430 121.1499010 115.5045140  60.6606160
 120.5253190 115.5005010  61.3859470 121.0629130 114.6376100  60.2642130
 120.0716090 116.4281770  67.6389930 120.3688420 117.3344600  67.5581950
 120.6201650 115.9400550  67.0249500 117.8254410 121.0068010  63.5081580
 117.5995330 120.7905180  64.4128200 117.0446940 121.4396470  63.1627550
 125.0552170 121.0131380  62.1072230 124.4561060 121.7367180  61.9235850
 125.6031780 120.9508160  61.3248680 120.2653620 121.9053590  74.1741850
 120.1697220 120.9648320  74.0242250 121.1085600 122.1268660  73.7789920
 123.6617040 119.6494920  64.1375510 124.0546610 119.9667120  63.3244200
 124.0233890 118.7706800  64.2520030 115.3964160 118.3167260  72.3275630
 115.0027550 119.1642470  72.5348410 114.7082560 117.6793630  72.5184270
 121.9709210 118.4002230  75.3972370 121.2807530 118.2074430  76.0318460
 122.7141510 118.6836870  75.9296670 124.2472180 122.2400670  68.2326290
 123.5153300 122.7487480  68.5816390 123.8496520 121.4230650  67.9315070
 120.6849570 118.9154870  66.6378780 120.6885630 118.4744820  65.7883320
 121.5800690 119.2372200  66.7450600 116.5351950 118.7981360  65.5972990
 116.1952000 119.2756590  66.3540040 115.7729270 118.3446480  65.2374090
 120.7469720 119.9166950  59.6285540 120.8682540 119.8753430  60.5771360
 120.3618230 120.7791100  59.4732270 124.7098090 117.6934350  67.6449230
 124.7270830 118.1443000  68.4891080 124.4613670 116.7939990  67.8582670
 119.7591220 122.2268090  59.0268840 119.1908120 121.7786340  58.4004750
 120.4680220 122.5860870  58.4933990 128.1368840 115.1066530  73.4835610
 128.4614610 114.3756190  74.0093590 128.1725350 114.7880170  72.5816600
 120.9857540 122.9756650  68.3844190 121.3527670 122.5015220  69.1305530
 120.7962600 123.8498220  68.7252530 118.7756910 122.0165290  70.7028400
 118.4713980 122.8957270  70.9278760 119.7303370 122.0765080  70.7385840
 117.3038700 126.2226280  61.2995250 116.5300960 125.6823900  61.1393970
 118.0333330 125.7032890  60.9613010 128.0626680 125.2191640  67.0921640
 128.7825800 125.7146930  66.7017750 127.8608500 124.5409530  66.4475510
 123.5236620 116.6129600  61.2351030 122.7101230 116.1142770  61.1596340
 123.3298570 117.4527850  60.8187380 123.4445480 125.2900700  72.9790640
 123.3782790 124.3696370  72.7248230 122.8150620 125.3876140  73.6935280
 126.2385010 120.9849250  59.5313190 127.1264630 121.2966480  59.3564530
 126.2090100 120.1121500  59.1393770 117.3476100 125.8906660  64.9374060
 117.8654770 125.0874920  64.8830950 116.8960120 125.8285800  65.7790890
 122.2345600 127.1572940  60.2101360 122.5761300 127.9015170  59.7144680
 121.4058310 127.4704060  60.5726190 118.0333760 123.3152270  74.7339310
 117.7333900 123.4609450  73.8367130 118.8045000 122.7557560  74.6412700
 123.3762210 128.1121270  72.7294440 123.3906750 127.1802230  72.5113350
 122.6687310 128.1981030  73.3684210 128.5099280 122.2961090  58.9993050
 128.4263000 122.7275310  58.1489490 129.2293470 122.7559440  59.4319870
 129.5873420 124.7528610  72.0763020 128.8621610 125.3457390  71.8792410
 130.1148880 124.7452150  71.2776390 129.5386530 129.1503350  61.7275180
 128.8962690 128.4958970  62.0018900 129.1517190 129.5558440  60.9515850
 125.1173010 126.4788780  65.5746870 125.4696830 125.8816910  64.9148240
 124.2335340 126.1533010  65.7455120 121.2036290 127.2386470  62.9817280
 121.8907420 127.7855680  63.3624870 120.4168710 127.7827200  63.0166890
 120.5063500 124.2432500  62.5942640 120.9626280 125.0537750  62.8202830
 120.1551710 123.9255640  63.4261130 122.8096110 129.7538840  69.8234940
 123.4538330 129.9598220  70.5008360 123.1725550 128.9927240  69.3705790
 116.4075280 114.5870150  63.0665160 116.2789910 114.5788050  64.0150080
 115.5837300 114.9253240  62.7156170 124.0828190 127.7571190  68.5412390
 124.7250420 127.0564350  68.6544560 124.6077540 128.5369630  68.3609280
 127.9283910 128.0419810  58.2651530 127.7021490 127.3250250  58.8576170
 127.5380110 127.7932250  57.4273280 125.8565810 128.5566090  71.7448450
 126.1922050 129.1432780  72.4226370 124.9366150 128.4258800  71.9746240
 113.7099940 132.0686670  59.0395990 114.0697580 132.6676010  58.3853260
 113.5692280 132.6146560  59.8131020 113.4069210 116.3461270  72.5271860
 112.6927730 116.5458190  73.1324470 113.8264250 115.5700840  72.8986660
 127.5100160 125.9591750  59.9265690 127.2221860 126.4204440  60.7143570
 128.3052330 125.4989520  60.1949910 113.6941800 130.3341530  73.5138390
 113.8032920 129.3936270  73.3733780 113.0422360 130.5996280  72.8652120
 121.6854390 128.6057420  74.9136510 121.3651260 127.8866660  75.4582200
 121.0112750 129.2812490  74.9872570 119.7268560 129.4517870  59.8569660
 119.7178660 130.1847560  59.2414170 118.8066920 129.2049450  59.9496620
 115.3275200 124.6732760  60.6016420 114.7203150 125.4131660  60.6111720
 115.8024550 124.7632120  59.7754620 124.9007990 118.8383580  70.2773310
 125.2688810 118.0178790  70.6052880 124.0406190 118.8985470  70.6928960
 128.2670020 117.7940520  61.0860870 127.6383180 117.8986190  60.3719100
 127.7721940 118.0137300  61.8754750 122.7128160 129.5146110  58.5194850
 122.8140140 129.3110100  57.5896830 121.8129900 129.2604390  58.7242630
 120.2354050 120.0726470  62.5018750 119.5270200 120.5412810  62.9432360
 120.5198530 119.4148480  63.1363940 121.8609980 121.4923170  70.5011280
 122.3595230 121.9668990  71.1663130 122.0032930 120.5686690  70.7081310
 124.2669480 116.7977130  63.9414540 124.1437260 116.8163260  62.9924050
 125.2154040 116.8456070  64.0612940 121.3546270 132.0332430  63.2142520
 121.6087770 131.9953820  62.2921890 120.4058750 131.9065760  63.2070770
 118.4389070 118.3811550  59.8769460 119.2879600 118.8181700  59.8109650
 118.0720340 118.6931810  60.7041520 129.0676840 117.7091130  71.3439670
 128.5650440 118.4496530  71.6833480 129.8833500 118.0975130  71.0276460
 127.3598850 122.9524310  64.7901030 126.4188990 122.9674540  64.9648720
 127.6742920 122.1660270  65.2361330 117.3380490 124.6343910  58.3504990
 118.1043760 124.5225270  58.9130420 117.4155180 123.9381880  57.6981760
 129.3624430 130.1233160  66.4655290 129.4871850 130.9464330  66.9379100
 130.2289990 129.9123890  66.1179440 116.8341960 132.2164370  66.1372420
 117.5704440 131.6679830  66.4080990 117.2182880 133.0820380  65.9978410
 113.7187440 128.2837940  62.0113930 112.7927220 128.5259080  62.0019340
 114.1843870 129.1112200  61.8898680 115.8400240 131.4010440  75.3258000
 116.6412970 131.7222490  75.7393400 115.3252060 131.0406020  76.0477910
 119.9444270 131.3894680  57.9597990 120.7372880 131.6783510  57.5079780
 119.4248620 130.9586850  57.2810470 124.6764870 127.5090310  75.2733410
 124.0703030 127.5321910  74.5329160 124.3718980 126.7773350  75.8100660
 126.1065240 131.2370600  73.8842820 127.0586990 131.1528620  73.8343060
 125.9593460 131.9012310  74.5576610 128.9974440 130.6164810  59.3834730
 128.7115950 130.2029950  58.5688910 128.7993990 131.5452520  59.2635250
 120.4621670 126.6098090  57.8240340 120.3572310 125.9950440  58.5501720
 120.2945890 126.0863980  57.0403350 120.6135990 125.2954890  73.8029570
 119.8481660 125.8639890  73.7184240 120.7951950 125.0031100  72.9097800
 123.7024400 125.6718120  58.4282330 123.1534500 126.1187420  59.0725070
 124.3243660 125.1667370  58.9520000 127.7559340 127.0260220  74.3604590
 128.4968810 127.3635980  73.8572050 126.9932020 127.1952280  73.8074360
 119.3699520 124.6309040  60.3247630 119.7915940 124.4648910  61.1679020
 119.4950360 123.8209270  59.8302770 117.5326940 120.6105590  73.1318610
 117.0023400 120.1196540  72.5041950 118.2015010 121.0389790  72.5976540
 121.8827160 123.6546650  57.5724730 122.4032820 122.9395670  57.2065880
 122.5295560 124.2932520  57.8725240 126.4305000 125.0775050  72.8959800
 126.8446020 125.2320130  73.7450220 125.4956000 125.2030270  73.0585580
 126.9027170 122.4171210  74.8998950 127.4847940 121.6623530  74.8119430
 127.0788940 122.9478650  74.1230430 118.0199240 117.5767960  73.2115900
 117.9256110 116.9588710  72.4866770 117.4396630 118.3034250  72.9845810
 120.7860680 116.1341200  70.2443290 120.3377980 116.1565460  69.3988840
 120.1525880 115.7360220  70.8413590 121.1920230 125.0295530  70.8655730
 121.6108340 125.8728260  70.6931970 120.2728860 125.1667570  70.6362510
 123.5284130 122.7611710  72.2493570 123.6480340 122.1652850  72.9888410
 124.3878130 122.7981400  71.8294870 125.8672030 123.3148900  70.8256080
 125.3407250 123.8391520  70.2221220 126.2103370 123.9476290  71.4565810
 118.2658420 120.7042270  57.2705790 118.0647480 119.8409630  57.6319130
 118.0950470 120.6175630  56.3327390 119.0427650 131.3348540  71.9813460
 118.5048740 132.0594600  71.6622160 119.2961610 130.8578880  71.1910800
 120.2952900 119.3033060  73.5069390 120.8852590 118.9948910  74.1947210
 119.4773140 118.8312810  73.6629290 125.1146330 118.9198870  73.7402410
 124.4261850 118.2580410  73.6752400 125.8352350 118.4737140  74.1850870
 125.7446730 115.5150500  59.7992670 126.0249020 114.6718400  60.1552090
 124.9712460 115.7473610  60.3131420 117.0641220 117.8042890  57.2583670
 117.3667120 117.8110320  56.3502820 117.8035810 117.4540750  57.7551330
 121.8989860 132.5699750  72.2400110 121.8248560 133.4734890  72.5472480
 120.9968700 132.2511650  72.2122180 122.4475190 131.7358260  59.8626470
 123.3425980 132.0743230  59.8845230 122.4792820 131.0137670  59.2350750
 116.0871350 127.1085310  58.0913470 116.5246220 127.6514980  58.7471050
 116.5719080 126.2832260  58.1009810 113.3017150 129.8974340  65.5433730
 113.6320160 129.0295400  65.3112370 113.7308150 130.1032860  66.3738690
 117.8979070 128.2283350  63.2035700 117.5974610 128.1048320  64.1039610
 117.7916560 127.3691940  62.7951430 113.7907360 130.7644930  68.2815360
 113.3538350 130.9445730  69.1139510 114.3585040 131.5219550  68.1397080
 129.4269540 130.2661930  72.5692670 128.8271530 130.3254490  71.8256590
 129.5563440 129.3266910  72.6989520 130.6670990 128.0079750  57.9062380
 129.8363950 128.0756400  58.3769610 130.8442820 128.8983870  57.6029240
 130.1227450 124.7527230  60.4096580 130.8846360 125.3223880  60.5156270
 130.1381820 124.1854430  61.1804890 113.6231790 123.2765160  64.6404240
 112.9680630 123.0076800  63.9963940 114.4609740 123.1669640  64.1906220
 131.1287420 125.6077330  65.2538510 131.4996250 124.8244650  64.8474480
 131.7689350 126.2966430  65.0755810 128.1121180 126.9913910  70.6668830
 127.2981020 127.4211070  70.9294620 128.5195380 127.6032320  70.0537880
 130.1746620 125.0461600  57.5669100 130.4495460 125.9540480  57.4388320
 129.9857360 124.9824130  58.5031090 126.5722230 118.0706450  58.8622730
 126.9907110 117.8837430  58.0219390 126.2658290 117.2185500  59.1725660
 130.0711960 122.9830590  62.5598530 129.6955560 122.2158520  62.1279820
 129.3415080 123.3653290  63.0473460 114.6607720 123.6617730  69.1807580
 115.0280760 123.5745130  70.0603600 114.0918540 122.8984280  69.0814440
 129.4611580 122.1302110  72.1938050 129.2297670 121.9014860  71.2936000
 129.7216130 123.0501660  72.1482940 114.2123720 120.5726820  73.0866000
 113.3179770 120.5393580  73.4259710 114.7521270 120.7713610  73.8517250
 127.8999650 117.3558540  74.9717750 128.7769830 117.3641940  75.3551750
 127.9120490 116.6189380  74.3610100 129.3462920 121.2088080  65.8605770
 129.8700400 120.7150730  65.2295940 129.9322340 121.3438440  66.6053340
 129.5252640 121.2927950  69.3825320 128.5755350 121.2591490  69.4970310
 129.7065650 122.2028060  69.1475090 115.0271240 115.5968960  57.5326600
 115.7499370 116.1377900  57.8507820 115.2995760 115.3232380  56.6568140
 128.8362890 120.4661430  61.7998180 129.3322010 120.2332300  62.5847060
 128.6378960 119.6273270  61.3835820 114.7163430 114.8475150  67.4349220
 115.3639620 114.2972530  66.9944380 115.1365270 115.1018300  68.2565030
 130.2650050 119.1022380  64.3335860 130.1549330 118.9478420  65.2718130
 131.0257640 118.5743320  64.0911270 128.6115770 115.0416510  70.7918860
 129.2487990 115.6550650  71.1578050 128.7590660 115.0777170  69.8468090
 131.1540320 116.9330300  57.5742000 132.0789630 116.8011480  57.3660290
 131.1316110 117.0123120  58.5278450 131.2278810 117.7040960  60.1998710
 130.4330310 117.6386080  60.7291620 131.4322090 118.6391600  60.1884060
 128.1697230 131.7432510  64.1937100 128.7656300 131.4217080  63.5171520
 128.4275380 131.2704330  64.9850370 114.4695430 115.0030820  70.1774540
 114.1210250 115.4594640  70.9432720 114.1383130 114.1087950  70.2596970
 116.0759800 128.1750420  74.3427730 116.0329430 127.8043330  75.2242190
 116.2070810 129.1127990  74.4829550 119.7765830 129.7310010  69.9437450
 119.5357190 129.9984570  69.0567970 120.7168470 129.9015740  69.9988310
 121.9820250 116.1942700  73.6993960 121.9209140 116.7864530  74.4489370
 122.9220630 116.0868660  73.5544220 124.6194810 115.8512760  73.3386250
 125.2335220 116.1692050  72.6767330 125.1644370 115.3661350  73.9582110
 131.0369990 131.7504390  70.7448090 130.5428270 132.1473260  70.0275220
 130.4283280 131.1253600  71.1385370 115.1416070 114.5307020  73.4525310
 115.6899060 114.3495070  72.6891420 115.2071380 113.7401130  73.9881620
 115.9147830 131.1212670  71.4625510 115.3208150 130.9897370  72.2015550
 115.9071670 130.2850810  70.9967610 125.3602850 114.4144900  69.6655540
 124.4862690 114.7480010  69.4628470 125.2513600 113.9418080  70.4907410
 126.2674830 116.6215770  71.0497260 125.9388190 115.8067530  70.6698990
 127.2157130 116.5785580  70.9262950 128.7209440 132.3927810  68.0234830
 128.2612410 133.1443620  67.6492850 128.0921900 131.6734280  67.9649630
 115.5460060 128.4871050  70.4133550 114.8194120 127.8676340  70.3459500
 115.6069210 128.8811660  69.5431630 119.1505160 130.7016050  67.1982960
 119.6670180 130.0903410  66.6731220 119.8002540 131.2044830  67.6893970
 121.8900660 131.5924540  68.0251940 122.1778470 131.3378840  67.1484950
 122.4023880 131.0401900  68.6157510 123.1077670 115.3314740  68.6048450
 122.3249460 115.8060240  68.8845210 122.8140600 114.4269570  68.4961630
 127.6598740 116.0337840  66.6497540 128.1006830 115.9782940  65.8019140
 127.3906330 116.9495850  66.7207720 129.5237310 115.6653080  64.6606360
 129.4625710 114.7214300  64.5137380 130.3029340 115.7733170  65.2059820
 113.8290060 131.8045440  63.6230310 113.6612100 131.1716120  64.3212200
 112.9624570 132.0104840  63.2724500 114.4518080 115.6362220  61.1262170
 115.2097440 115.7491100  60.5526200 113.9895250 116.4731420  61.0805600
 120.9931890 117.7501490  64.1164480 120.1806400 117.3758380  63.7760360
 121.4973530 116.9946570  64.4185670 125.4956870 114.4143940  65.3547550
 126.0986240 114.9864150  65.8296070 124.7549860 114.9783380  65.1321450
 128.6391470 114.8165500  60.6287830 128.8342100 115.7148950  60.8955260
 127.8521340 114.5852580  61.1220780 115.4352760 130.4978670  61.0680450
 114.9100380 130.8786700  60.3642410 115.3597340 131.1229440  61.7890160
 116.8243230 116.1626270  59.6664140 117.3535990 115.3756070  59.5372090
 117.4571550 116.8417460  59.8999670 119.0181070 115.9001410  62.7209530
 118.3883810 115.1988720  62.8879660 118.4786210 116.6605540  62.5042690
 121.9573020 132.5140640  75.3920140 122.8840330 132.2784910  75.4356100
 121.9423450 133.3412640  74.9106170 130.1918080 132.0566210  62.3894390
 130.3670270 131.3703950  61.7455310 129.4939650 132.5813260  61.9971060
 119.1436630 115.1785390  75.1562020 118.8620900 115.6818990  74.3922840
 119.5256330 114.3807140  74.7904150 118.0345730 132.4461050  59.9429700
 118.7664550 132.1620330  59.3953590 118.2939400 132.2074330  60.8329080
 117.1960520 128.5625780  59.9476030 116.5669400 129.0310880  60.4961860
 117.3108350 127.7175000  60.3822220 125.7452090 114.5938970  75.7342490
 125.6317540 114.9133580  76.6294010 126.5621830 114.9951480  75.4379770
 128.5250580 131.7410500  75.2161180 129.3175900 131.2459730  75.0087140
 128.8183730 132.4200640  75.8236790 124.6510240 122.6131440  46.0977230
 124.5704290 121.6986050  45.8268940 124.2374660 123.1098510  45.3916940
 122.7828280 124.3910460  47.9786500 122.0070380 123.9110900  48.2685070
 123.4341210 123.7116110  47.8042660 116.7994110 124.7030270  48.8562260
 115.9678990 124.4478980  49.2558770 117.4075090 124.7741040  49.5920180
 126.8035710 128.7970650  46.7585630 126.3417240 128.0257890  47.0872800
 127.6161260 128.8236720  47.2638080 116.7795370 128.7370360  49.0520280
 117.0823410 127.8468100  48.8730500 117.5238960 129.2940580  48.8242530
 115.2086060 119.6632160  42.6404650 114.3202760 120.0048130  42.5384530
 115.4927250 119.4632480  41.7485480 113.1719070 122.2637810  48.5244350
 113.7435180 121.4960010  48.5247990 113.1720610 122.5626570  47.6150960
 123.0299020 131.0828660  46.3789620 122.4110460 131.5386160  45.8084060
 123.8850800 131.2380120  45.9779320 122.2237270 127.0667650  47.9856660
 122.1545550 126.1257590  47.8245790 122.9857130 127.1569060  48.5579230
 123.2542440 119.8738030  48.2125590 123.6307260 119.0009910  48.0999260
 123.1561950 120.2096730  47.3216030 117.3847450 118.2463660  43.6743030
 117.4914200 119.1467390  43.9811790 116.4739810 118.1981630  43.3837680
 127.0366560 117.3688470  45.1453930 127.8576180 116.8785040  45.1879410
 127.0700640 117.9586130  45.8985770 115.0330610 120.1682670  48.9195620
 115.7140720 120.4321040  49.5383020 114.7178660 119.3283540  49.2533630
 119.2255180 121.2150030  48.0068210 119.7333400 121.7131000  48.6473230
 119.7568420 120.4385230  47.8307570 131.3266110 119.3855220  51.7097560
 130.6218280 119.7736930  51.1912670 131.5924030 120.0805510  52.3118490
 123.8962370 125.9667900  43.7721530 123.2779640 126.4317350  43.2084250
 124.4085620 126.6595380  44.1891040 118.7594130 125.4943770  50.4505130
 118.4263510 126.1212690  51.0926200 118.9360810 126.0205650  49.6706800
 127.2728040 119.3088850  47.9181470 126.5683610 119.5973740  48.4984580
 127.6340200 120.1188960  47.5581030 117.9713230 127.4624570  52.2654310
 118.5887230 128.1375650  51.9838760 117.1106350 127.8712550  52.1741810
 113.2645570 126.6524430  41.1461160 112.8873550 127.1411530  40.4146060
 113.5218640 127.3249710  41.7767690 128.8890820 128.9263980  50.1808950
 128.2054340 129.5963090  50.1725620 129.4285110 129.1244630  49.4153810
 130.3414960 118.7543640  48.3090680 129.3939870 118.7882620  48.4406110
 130.6664950 119.5682590  48.6940040 120.8734500 115.0540820  46.6046670
 121.1809480 114.4987710  45.8882170 119.9435200 115.1885280  46.4219660
 126.4249560 130.7708110  48.8954130 126.4376720 130.3670400  48.0276390
 125.8724780 131.5455400  48.7915560 127.7194980 127.4924330  43.9844300
 127.6091310 126.5498660  44.1093720 127.7163230 127.8539970  44.8707060
 125.8235000 125.6737950  50.2236740 126.2403790 125.4598060  49.3890200
 126.5474820 125.9310740  50.7945360 123.2615260 123.1189650  43.3406790
 122.3344540 123.0527030  43.5695260 123.4140080 124.0569780  43.2262030
 123.2484340 119.3906650  40.3373950 122.3088010 119.5520610  40.4226410
 123.5667600 120.1092330  39.7909940 129.7697100 124.0725170  50.3152980
 128.9415730 124.1418260  49.8403110 130.3647580 124.6579480  49.8468810
 127.2912550 124.6809950  43.8442040 126.6724970 124.3429500  43.1968340
 127.2737000 124.0369710  44.5521230 126.7339110 120.8594490  51.2607850
 126.3210290 121.6848200  51.5147840 126.0015060 120.2739530  51.0684210
 118.8671900 123.6454390  46.1226520 118.4628900 122.9331640  45.6272420
 118.9535020 123.3007630  47.0114560 119.3353600 127.3321950  48.2865730
 119.0381890 126.7267420  47.6073510 120.2853420 127.3699260  48.1755090
 117.5800520 120.4197600  49.9025560 118.1315110 120.5292940  49.1278810
 118.0944030 120.7935200  50.6180790 127.4239210 130.9053820  51.9488830
 126.9469770 131.7126010  51.7561440 126.7401000 130.2532150  52.1015040
 118.4272030 127.0703640  54.9373530 117.5300560 127.2943610  55.1846930
 118.4524900 127.1938580  53.9884930 125.4677250 123.9196760  40.8514790
 125.9070530 123.0819190  40.7052610 126.1805670 124.5526160  40.9378930
 117.2543250 123.9416960  53.5130900 117.1151020 124.8139760  53.8818300
 116.3724610 123.5989770  53.3678840 123.5772630 128.8592830  44.8196030
 124.0168540 129.6017160  44.4051420 123.5159520 129.1019400  45.7434990
 119.0523600 129.8838660  55.7216050 119.0239030 130.2881610  54.8544480
 118.8888570 128.9549020  55.5587650 129.0494390 115.1739570  39.1655830
 128.7367050 115.2666400  40.0654900 129.8106860 115.7520600  39.1153260
 115.5676530 122.5399370  43.6233170 115.4474130 123.2661460  43.0114440
 115.2577420 121.7702280  43.1461080 131.0038420 130.6665760  57.0180220
 131.4798140 131.1448650  57.6969300 131.6245580 130.5983250  56.2925720
 113.2061900 125.7114510  49.4301810 113.2842320 125.8463280  48.4857530
 113.8203580 125.0030400  49.6229930 114.4509530 127.4114700  45.8407990
 114.0437610 127.5529290  44.9861590 115.3422540 127.1274860  45.6379200
 130.4071670 127.8578610  54.1780230 130.5334730 127.6190490  53.2597410
 130.4493050 127.0263150  54.6502310 124.2688410 131.5606610  52.7475040
 124.7833080 131.4714620  53.5497470 123.4257490 131.9066310  53.0402950
 126.2442810 131.8461950  42.1759040 126.0843950 131.5564890  43.0740870
 126.0789520 131.0702080  41.6404270 118.7231190 131.6260480  43.9530660
 118.5473670 130.7096020  43.7398460 117.8686930 131.9847770  44.1928460
 125.9468940 129.3549510  40.7357040 125.2534100 129.3526800  40.0759320
 126.6891800 128.9308830  40.3051210 125.5118870 130.9812220  44.8105530
 125.9675820 130.2001600  45.1244150 125.8511390 131.6919040  45.3546710
 130.2595680 119.9111070  55.1429970 129.6439950 120.4190740  54.6145430
 129.9392100 119.0109400  55.0855910 113.2621420 126.7528680  51.9696270
 113.4252460 126.2834040  51.1515640 113.7273870 126.2452240  52.6345110
 122.3210000 118.7502960  52.6092160 121.8589370 118.9585980  53.4212100
 121.9188110 117.9362310  52.3062830 127.3214510 119.9711910  53.7388820
 126.4708100 119.6717660  54.0597890 127.1616300 120.2153920  52.8272640
 124.4164220 121.4713660  55.8387610 124.7417630 120.6377410  55.4989840
 125.2044550 121.9942180  55.9865940 121.1499010 115.5045140  41.8862670
 120.5253190 115.5005010  42.6115980 121.0629130 114.6376100  41.4898640
 117.8254410 121.0068010  44.7338090 117.5995330 120.7905180  45.6384710
 117.0446940 121.4396470  44.3884060 125.0552170 121.0131380  43.3328740
 124.4561060 121.7367180  43.1492360 125.6031780 120.9508160  42.5505190
 120.2653620 121.9053590  55.3998360 120.1697220 120.9648320  55.2498760
 121.1085600 122.1268660  55.0046430 123.6617040 119.6494920  45.3632020
 124.0546610 119.9667120  44.5500710 124.0233890 118.7706800  45.4776540
 115.3964160 118.3167260  53.5532140 115.0027550 119.1642470  53.7604920
 114.7082560 117.6793630  53.7440780 121.9709210 118.4002230  56.6228880
 121.2807530 118.2074430  57.2574970 122.7141510 118.6836870  57.1553180
 112.8851440 120.1815840  38.7964940 112.8026110 121.1246600  38.9379930
 112.5334500 120.0390750  37.9177290 124.2472180 122.2400670  49.4582800
 123.5153300 122.7487480  49.8072900 123.8496520 121.4230650  49.1571580
 120.6849570 118.9154870  47.8635290 120.6885630 118.4744820  47.0139830
 121.5800690 119.2372200  47.9707110 120.7469720 119.9166950  40.8542050
 120.8682540 119.8753430  41.8027870 120.3618230 120.7791100  40.6988780
 124.7098090 117.6934350  48.8705740 124.7270830 118.1443000  49.7147590
 124.4613670 116.7939990  49.0839180 119.7591220 122.2268090  40.2525350
 119.1908120 121.7786340  39.6261260 120.4680220 122.5860870  39.7190500
 128.1368840 115.1066530  54.7092120 128.4614610 114.3756190  55.2350100
 128.1725350 114.7880170  53.8073110 114.8360400 126.1280110  54.1292080
 114.4515190 125.4873780  54.7275040 115.1472590 126.8316230  54.6986810
 120.9857540 122.9756650  49.6100700 121.3527670 122.5015220  50.3562040
 120.7962600 123.8498220  49.9509040 113.8498030 117.7200340  45.7394170
 113.5644950 117.3556010  46.5772790 113.7876890 116.9880800  45.1257310
 118.7756910 122.0165290  51.9284910 118.4713980 122.8957270  52.1535270
 119.7303370 122.0765080  51.9642350 117.3038700 126.2226280  42.5251760
 116.5300960 125.6823900  42.3650480 118.0333330 125.7032890  42.1869520
 128.0626680 125.2191640  48.3178150 128.7825800 125.7146930  47.9274260
 127.8608500 124.5409530  47.6732020 123.5236620 116.6129600  42.4607540
 122.7101230 116.1142770  42.3852850 123.3298570 117.4527850  42.0443890
 123.4445480 125.2900700  54.2047150 123.3782790 124.3696370  53.9504740
 122.8150620 125.3876140  54.9191790 126.2385010 120.9849250  40.7569700
 127.1264630 121.2966480  40.5821040 126.2090100 120.1121500  40.3650280
 117.3476100 125.8906660  46.1630570 117.8654770 125.0874920  46.1087460
 116.8960120 125.8285800  47.0047400 122.2345600 127.1572940  41.4357870
 122.5761300 127.9015170  40.9401190 121.4058310 127.4704060  41.7982700
 114.8320640 122.8568030  53.0756270 114.4735580 123.5221880  53.6629610
 114.5375200 122.0251580  53.4468890 118.0333760 123.3152270  55.9595820
 117.7333900 123.4609450  55.0623640 118.8045000 122.7557560  55.8669210
 123.3762210 128.1121270  53.9550950 123.3906750 127.1802230  53.7369860
 122.6687310 128.1981030  54.5940720 128.5099280 122.2961090  40.2249560
 128.4263000 122.7275310  39.3746000 129.2293470 122.7559440  40.6576380
 129.5873420 124.7528610  53.3019530 128.8621610 125.3457390  53.1048920
 130.1148880 124.7452150  52.5032900 129.5386530 129.1503350  42.9531690
 128.8962690 128.4958970  43.2275410 129.1517190 129.5558440  42.1772360
 125.1173010 126.4788780  46.8003380 125.4696830 125.8816910  46.1404750
 124.2335340 126.1533010  46.9711630 121.2036290 127.2386470  44.2073790
 121.8907420 127.7855680  44.5881380 120.4168710 127.7827200  44.2423400
 113.3428690 122.8559290  39.6990870 114.2123540 123.1384090  39.9826790
 112.8519010 123.6695160  39.5839680 120.5063500 124.2432500  43.8199150
 120.9626280 125.0537750  44.0459340 120.1551710 123.9255640  44.6517640
 122.8096110 129.7538840  51.0491450 123.4538330 129.9598220  51.7264870
 123.1725550 128.9927240  50.5962300 124.0828190 127.7571190  49.7668900
 124.7250420 127.0564350  49.8801070 124.6077540 128.5369630  49.5865790
 127.9283910 128.0419810  39.4908040 127.7021490 127.3250250  40.0832680
 127.5380110 127.7932250  38.6529790 125.8565810 128.5566090  52.9704960
 126.1922050 129.1432780  53.6482880 124.9366150 128.4258800  53.2002750
 113.7099940 132.0686670  40.2652500 114.0697580 132.6676010  39.6109770
 113.5692280 132.6146560  41.0387530 127.5100160 125.9591750  41.1522200
 127.2221860 126.4204440  41.9400080 128.3052330 125.4989520  41.4206420
 113.6941800 130.3341530  54.7394900 113.8032920 129.3936270  54.5990290
 113.0422360 130.5996280  54.0908630 121.6854390 128.6057420  56.1393020
 121.3651260 127.8866660  56.6838710 121.0112750 129.2812490  56.2129080
 119.7268560 129.4517870  41.0826170 119.7178660 130.1847560  40.4670680
 118.8066920 129.2049450  41.1753130 115.3275200 124.6732760  41.8272930
 114.7203150 125.4131660  41.8368230 115.8024550 124.7632120  41.0011130
 124.9007990 118.8383580  51.5029820 125.2688810 118.0178790  51.8309390
 124.0406190 118.8985470  51.9185470 128.2670020 117.7940520  42.3117380
 127.6383180 117.8986190  41.5975610 127.7721940 118.0137300  43.1011260
 122.7128160 129.5146110  39.7451360 122.8140140 129.3110100  38.8153340
 121.8129900 129.2604390  39.9499140 120.2354050 120.0726470  43.7275260
 119.5270200 120.5412810  44.1688870 120.5198530 119.4148480  44.3620450
 121.8609980 121.4923170  51.7267790 122.3595230 121.9668990  52.3919640
 122.0032930 120.5686690  51.9337820 124.2669480 116.7977130  45.1671050
 124.1437260 116.8163260  44.2180560 125.2154040 116.8456070  45.2869450
 121.3546270 132.0332430  44.4399030 121.6087770 131.9953820  43.5178400
 120.4058750 131.9065760  44.4327280 118.4389070 118.3811550  41.1025970
 119.2879600 118.8181700  41.0366160 118.0720340 118.6931810  41.9298030
 129.0676840 117.7091130  52.5696180 128.5650440 118.4496530  52.9089990
 129.8833500 118.0975130  52.2532970 127.3598850 122.9524310  46.0157540
 126.4188990 122.9674540  46.1905230 127.6742920 122.1660270  46.4617840
 117.3380490 124.6343910  39.5761500 118.1043760 124.5225270  40.1386930
 117.4155180 123.9381880  38.9238270 116.0327250 122.0668980  40.2594390
 116.1130840 121.1196490  40.3711790 116.9247000 122.3975860  40.3655050
 129.3624430 130.1233160  47.6911800 129.4871850 130.9464330  48.1635610
 130.2289990 129.9123890  47.3435950 116.8341960 132.2164370  47.3628930
 117.5704440 131.6679830  47.6337500 117.2182880 133.0820380  47.2234920
 113.7187440 128.2837940  43.2370440 112.7927220 128.5259080  43.2275850
 114.1843870 129.1112200  43.1155190 115.8400240 131.4010440  56.5514510
 116.6412970 131.7222490  56.9649910 115.3252060 131.0406020  57.2734420
 119.9444270 131.3894680  39.1854500 120.7372880 131.6783510  38.7336290
 119.4248620 130.9586850  38.5066980 124.6764870 127.5090310  56.4989920
 124.0703030 127.5321910  55.7585670 124.3718980 126.7773350  57.0357170
 126.1065240 131.2370600  55.1099330 127.0586990 131.1528620  55.0599570
 125.9593460 131.9012310  55.7833120 128.9974440 130.6164810  40.6091240
 128.7115950 130.2029950  39.7945420 128.7993990 131.5452520  40.4891760
 120.4621670 126.6098090  39.0496850 120.3572310 125.9950440  39.7758230
 120.2945890 126.0863980  38.2659860 120.6135990 125.2954890  55.0286080
 119.8481660 125.8639890  54.9440750 120.7951950 125.0031100  54.1354310
 123.7024400 125.6718120  39.6538840 123.1534500 126.1187420  40.2981580
 124.3243660 125.1667370  40.1776510 127.7559340 127.0260220  55.5861100
 128.4968810 127.3635980  55.0828560 126.9932020 127.1952280  55.0330870
 119.3699520 124.6309040  41.5504140 119.7915940 124.4648910  42.3935530
 119.4950360 123.8209270  41.0559280 117.5326940 120.6105590  54.3575120
 117.0023400 120.1196540  53.7298460 118.2015010 121.0389790  53.8233050
 121.8827160 123.6546650  38.7981240 122.4032820 122.9395670  38.4322390
 122.5295560 124.2932520  39.0981750 126.4305000 125.0775050  54.1216310
 126.8446020 125.2320130  54.9706730 125.4956000 125.2030270  54.2842090
 126.9027170 122.4171210  56.1255460 127.4847940 121.6623530  56.0375940
 127.0788940 122.9478650  55.3486940 118.0199240 117.5767960  54.4372410
 117.9256110 116.9588710  53.7123280 117.4396630 118.3034250  54.2102320
 120.7860680 116.1341200  51.4699800 120.3377980 116.1565460  50.6245350
 120.1525880 115.7360220  52.0670100 121.1920230 125.0295530  52.0912240
 121.6108340 125.8728260  51.9188480 120.2728860 125.1667570  51.8619020
 123.5284130 122.7611710  53.4750080 123.6480340 122.1652850  54.2144920
 124.3878130 122.7981400  53.0551380 125.8672030 123.3148900  52.0512590
 125.3407250 123.8391520  51.4477730 126.2103370 123.9476290  52.6822320
 118.2658420 120.7042270  38.4962300 118.0647480 119.8409630  38.8575640
 118.0950470 120.6175630  37.5583900 119.0427650 131.3348540  53.2069970
 118.5048740 132.0594600  52.8878670 119.2961610 130.8578880  52.4167310
 120.2952900 119.3033060  54.7325900 120.8852590 118.9948910  55.4203720
 119.4773140 118.8312810  54.8885800 125.1146330 118.9198870  54.9658920
 124.4261850 118.2580410  54.9008910 125.8352350 118.4737140  55.4107380
 125.7446730 115.5150500  41.0249180 126.0249020 114.6718400  41.3808600
 124.9712460 115.7473610  41.5387930 117.0641220 117.8042890  38.4840180
 117.3667120 117.8110320  37.5759330 117.8035810 117.4540750  38.9807840
 121.8989860 132.5699750  53.4656620 121.8248560 133.4734890  53.7728990
 120.9968700 132.2511650  53.4378690 120.2826150 116.7477510  39.4696380
 119.9348150 116.0701500  38.8898830 120.4838920 116.2867020  40.2839770
 122.4475190 131.7358260  41.0882980 123.3425980 132.0743230  41.1101740
 122.4792820 131.0137670  40.4607260 116.0871350 127.1085310  39.3169980
 116.5246220 127.6514980  39.9727560 116.5719080 126.2832260  39.3266320
 113.3017150 129.8974340  46.7690240 113.6320160 129.0295400  46.5368880
 113.7308150 130.1032860  47.5995200 117.8979070 128.2283350  44.4292210
 117.5974610 128.1048320  45.3296120 117.7916560 127.3691940  44.0207940
 113.7907360 130.7644930  49.5071870 113.3538350 130.9445730  50.3396020
 114.3585040 131.5219550  49.3653590 129.4269540 130.2661930  53.7949180
 128.8271530 130.3254490  53.0513100 129.5563440 129.3266910  53.9246030
 130.6670990 128.0079750  39.1318890 129.8363950 128.0756400  39.6026120
 130.8442820 128.8983870  38.8285750 130.1227450 124.7527230  41.6353090
 130.8846360 125.3223880  41.7412780 130.1381820 124.1854430  42.4061400
 113.6231790 123.2765160  45.8660750 112.9680630 123.0076800  45.2220450
 114.4609740 123.1669640  45.4162730 131.1287420 125.6077330  46.4795020
 131.4996250 124.8244650  46.0730990 131.7689350 126.2966430  46.3012320
 128.1121180 126.9913910  51.8925340 127.2981020 127.4211070  52.1551130
 128.5195380 127.6032320  51.2794390 130.1746620 125.0461600  38.7925610
 130.4495460 125.9540480  38.6644830 129.9857360 124.9824130  39.7287600
 126.5722230 118.0706450  40.0879240 126.9907110 117.8837430  39.2475900
 126.2658290 117.2185500  40.3982170 130.0711960 122.9830590  43.7855040
 129.6955560 122.2158520  43.3536330 129.3415080 123.3653290  44.2729970
 114.6607720 123.6617730  50.4064090 115.0280760 123.5745130  51.2860110
 114.0918540 122.8984280  50.3070950 129.4611580 122.1302110  53.4194560
 129.2297670 121.9014860  52.5192510 129.7216130 123.0501660  53.3739450
 127.8999650 117.3558540  56.1974260 128.7769830 117.3641940  56.5808260
 127.9120490 116.6189380  55.5866610 112.8369870 120.4864090  41.8086080
 111.9333950 120.7494290  41.6337740 113.3210490 120.7575260  41.0286040
 129.3462920 121.2088080  47.0862280 129.8700400 120.7150730  46.4552450
 129.9322340 121.3438440  47.8309850 129.5252640 121.2927950  50.6081830
 128.5755350 121.2591490  50.7226820 129.7065650 122.2028060  50.3731600
 115.3797080 119.5429630  39.7180460 116.0888780 119.1212850  39.2327740
 114.6637020 119.6104860  39.0863810 115.0271240 115.5968960  38.7583110
 115.7499370 116.1377900  39.0764330 115.2995760 115.3232380  37.8824650
 128.8362890 120.4661430  43.0254690 129.3322010 120.2332300  43.8103570
 128.6378960 119.6273270  42.6092330 130.2650050 119.1022380  45.5592370
 130.1549330 118.9478420  46.4974640 131.0257640 118.5743320  45.3167780
 128.6115770 115.0416510  52.0175370 129.2487990 115.6550650  52.3834560
 128.7590660 115.0777170  51.0724600 131.1540320 116.9330300  38.7998510
 132.0789630 116.8011480  38.5916800 131.1316110 117.0123120  39.7534960
 131.2278810 117.7040960  41.4255220 130.4330310 117.6386080  41.9548130
 131.4322090 118.6391600  41.4140570 128.1697230 131.7432510  45.4193610
 128.7656300 131.4217080  44.7428030 128.4275380 131.2704330  46.2106880
 116.0759800 128.1750420  55.5684240 116.0329430 127.8043330  56.4498700
 116.2070810 129.1127990  55.7086060 119.7765830 129.7310010  51.1693960
 119.5357190 129.9984570  50.2824480 120.7168470 129.9015740  51.2244820
 121.9820250 116.1942700  54.9250470 121.9209140 116.7864530  55.6745880
 122.9220630 116.0868660  54.7800730 124.6194810 115.8512760  54.5642760
 125.2335220 116.1692050  53.9023840 125.1644370 115.3661350  55.1838620
 131.0369990 131.7504390  51.9704600 130.5428270 132.1473260  51.2531730
 130.4283280 131.1253600  52.3641880 115.9147830 131.1212670  52.6882020
 115.3208150 130.9897370  53.4272060 115.9071670 130.2850810  52.2224120
 125.3602850 114.4144900  50.8912050 124.4862690 114.7480010  50.6884980
 125.2513600 113.9418080  51.7163920 126.2674830 116.6215770  52.2753770
 125.9388190 115.8067530  51.8955500 127.2157130 116.5785580  52.1519460
 128.7209440 132.3927810  49.2491340 128.2612410 133.1443620  48.8749360
 128.0921900 131.6734280  49.1906140 115.5460060 128.4871050  51.6390060
 114.8194120 127.8676340  51.5716010 115.6069210 128.8811660  50.7688140
 119.1505160 130.7016050  48.4239470 119.6670180 130.0903410  47.8987730
 119.8002540 131.2044830  48.9150480 121.8900660 131.5924540  49.2508450
 122.1778470 131.3378840  48.3741460 122.4023880 131.0401900  49.8414020
 123.1077670 115.3314740  49.8304960 122.3249460 115.8060240  50.1101720
 122.8140600 114.4269570  49.7218140 127.6598740 116.0337840  47.8754050
 128.1006830 115.9782940  47.0275650 127.3906330 116.9495850  47.9464230
 129.5237310 115.6653080  45.8862870 129.4625710 114.7214300  45.7393890
 130.3029340 115.7733170  46.4316330 113.8290060 131.8045440  44.8486820
 113.6612100 131.1716120  45.5468710 112.9624570 132.0104840  44.4981010
 114.4518080 115.6362220  42.3518680 115.2097440 115.7491100  41.7782710
 113.9895250 116.4731420  42.3062110 120.9931890 117.7501490  45.3420990
 120.1806400 117.3758380  45.0016870 121.4973530 116.9946570  45.6442180
 125.4956870 114.4143940  46.5804060 126.0986240 114.9864150  47.0552580
 124.7549860 114.9783380  46.3577960 128.6391470 114.8165500  41.8544340
 128.8342100 115.7148950  42.1211770 127.8521340 114.5852580  42.3477290
 115.4352760 130.4978670  42.2936960 114.9100380 130.8786700  41.5898920
 115.3597340 131.1229440  43.0146670 116.8243230 116.1626270  40.8920650
 117.3535990 115.3756070  40.7628600 117.4571550 116.8417460  41.1256180
 119.0181070 115.9001410  43.9466040 118.3883810 115.1988720  44.1136170
 118.4786210 116.6605540  43.7299200 121.9573020 132.5140640  56.6176650
 122.8840330 132.2784910  56.6612610 121.9423450 133.3412640  56.1362680
 130.1918080 132.0566210  43.6150900 130.3670270 131.3703950  42.9711820
 129.4939650 132.5813260  43.2227570 118.0345730 132.4461050  41.1686210
 118.7664550 132.1620330  40.6210100 118.2939400 132.2074330  42.0585590
 117.1960520 128.5625780  41.1732540 116.5669400 129.0310880  41.7218370
 117.3108350 127.7175000  41.6078730 125.7452090 114.5938970  56.9599000
 125.6317540 114.9133580  57.8550520 126.5621830 114.9951480  56.6636280
 128.5250580 131.7410500  56.4417690 129.3175900 131.2459730  56.2343650
 128.8183730 132.4200640  57.0493300 124.6510240 122.6131440  27.3233740
 124.5704290 121.6986050  27.0525450 124.2374660 123.1098510  26.6173450
 122.7828280 124.3910460  29.2043010 122.0070380 123.9110900  29.4941580
 123.4341210 123.7116110  29.0299170 116.7994110 124.7030270  30.0818770
 115.9678990 124.4478980  30.4815280 117.4075090 124.7741040  30.8176690
 126.8035710 128.7970650  27.9842140 126.3417240 128.0257890  28.3129310
 127.6161260 128.8236720  28.4894590 116.7795370 128.7370360  30.2776790
 117.0823410 127.8468100  30.0987010 117.5238960 129.2940580  30.0499040
 115.2086060 119.6632160  23.8661160 114.3202760 120.0048130  23.7641040
 115.4927250 119.4632480  22.9741990 113.1719070 122.2637810  29.7500860
 113.7435180 121.4960010  29.7504500 113.1720610 122.5626570  28.8407470
 123.0299020 131.0828660  27.6046130 122.4110460 131.5386160  27.0340570
 123.8850800 131.2380120  27.2035830 122.2237270 127.0667650  29.2113170
 122.1545550 126.1257590  29.0502300 122.9857130 127.1569060  29.7835740
 114.4143940 117.6722170  31.5369790 114.2346780 116.7747920  31.8172550
 114.0124020 118.2194040  32.2116740 123.2542440 119.8738030  29.4382100
 123.6307260 119.0009910  29.3255770 123.1561950 120.2096730  28.5472540
 117.3847450 118.2463660  24.8999540 117.4914200 119.1467390  25.2068300
 116.4739810 118.1981630  24.6094190 127.0366560 117.3688470  26.3710440
 127.8576180 116.8785040  26.4135920 127.0700640 117.9586130  27.1242280
 115.0330610 120.1682670  30.1452130 115.7140720 120.4321040  30.7639530
 114.7178660 119.3283540  30.4790140 119.2255180 121.2150030  29.2324720
 119.7333400 121.7131000  29.8729740 119.7568420 120.4385230  29.0564080
 131.3266110 119.3855220  32.9354070 130.6218280 119.7736930  32.4169180
 131.5924030 120.0805510  33.5375000 117.5091280 115.8548590  33.4988140
 117.5109720 116.3720980  32.6934040 116.6795590 115.3778770  33.4758070
 123.8962370 125.9667900  24.9978040 123.2779640 126.4317350  24.4340760
 124.4085620 126.6595380  25.4147550 118.7594130 125.4943770  31.6761640
 118.4263510 126.1212690  32.3182710 118.9360810 126.0205650  30.8963310
 127.2728040 119.3088850  29.1437980 126.5683610 119.5973740  29.7241090
 127.6340200 120.1188960  28.7837540 117.1906610 117.5658550  31.5058590
 117.5323420 118.4100600  31.2112460 116.2522420 117.7142290  31.6223930
 117.9713230 127.4624570  33.4910820 118.5887230 128.1375650  33.2095270
 117.1106350 127.8712550  33.3998320 113.2645570 126.6524430  22.3717670
 112.8873550 127.1411530  21.6402570 113.5218640 127.3249710  23.0024200
 128.8890820 128.9263980  31.4065460 128.2054340 129.5963090  31.3982130
 129.4285110 129.1244630  30.6410320 130.3414960 118.7543640  29.5347190
 129.3939870 118.7882620  29.6662620 130.6664950 119.5682590  29.9196550
 120.8734500 115.0540820  27.8303180 121.1809480 114.4987710  27.1138680
 119.9435200 115.1885280  27.6476170 126.4249560 130.7708110  30.1210640
 126.4376720 130.3670400  29.2532900 125.8724780 131.5455400  30.0172070
 127.7194980 127.4924330  25.2100810 127.6091310 126.5498660  25.3350230
 127.7163230 127.8539970  26.0963570 125.8235000 125.6737950  31.4493250
 126.2403790 125.4598060  30.6146710 126.5474820 125.9310740  32.0201870
 123.2615260 123.1189650  24.5663300 122.3344540 123.0527030  24.7951770
 123.4140080 124.0569780  24.4518540 123.2484340 119.3906650  21.5630460
 122.3088010 119.5520610  21.6482920 123.5667600 120.1092330  21.0166450
 129.7697100 124.0725170  31.5409490 128.9415730 124.1418260  31.0659620
 130.3647580 124.6579480  31.0725320 127.2912550 124.6809950  25.0698550
 126.6724970 124.3429500  24.4224850 127.2737000 124.0369710  25.7777740
 126.7339110 120.8594490  32.4864360 126.3210290 121.6848200  32.7404350
 126.0015060 120.2739530  32.2940720 118.8671900 123.6454390  27.3483030
 118.4628900 122.9331640  26.8528930 118.9535020 123.3007630  28.2371070
 119.3353600 127.3321950  29.5122240 119.0381890 126.7267420  28.8330020
 120.2853420 127.3699260  29.4011600 117.5800520 120.4197600  31.1282070
 118.1315110 120.5292940  30.3535320 118.0944030 120.7935200  31.8437300
 127.4239210 130.9053820  33.1745340 126.9469770 131.7126010  32.9817950
 126.7401000 130.2532150  33.3271550 118.4272030 127.0703640  36.1630040
 117.5300560 127.2943610  36.4103440 118.4524900 127.1938580  35.2141440
 125.4677250 123.9196760  22.0771300 125.9070530 123.0819190  21.9309120
 126.1805670 124.5526160  22.1635440 117.2543250 123.9416960  34.7387410
 117.1151020 124.8139760  35.1074810 116.3724610 123.5989770  34.5935350
 123.5772630 128.8592830  26.0452540 124.0168540 129.6017160  25.6307930
 123.5159520 129.1019400  26.9691500 119.0523600 129.8838660  36.9472560
 119.0239030 130.2881610  36.0800990 118.8888570 128.9549020  36.7844160
 129.0494390 115.1739570  20.3912340 128.7367050 115.2666400  21.2911410
 129.8106860 115.7520600  20.3409770 115.5676530 122.5399370  24.8489680
 115.4474130 123.2661460  24.2370950 115.2577420 121.7702280  24.3717590
 131.0038420 130.6665760  38.2436730 131.4798140 131.1448650  38.9225810
 131.6245580 130.5983250  37.5182230 113.2061900 125.7114510  30.6558320
 113.2842320 125.8463280  29.7114040 113.8203580 125.0030400  30.8486440
 114.4509530 127.4114700  27.0664500 114.0437610 127.5529290  26.2118100
 115.3422540 127.1274860  26.8635710 130.4071670 127.8578610  35.4036740
 130.5334730 127.6190490  34.4853920 130.4493050 127.0263150  35.8758820
 124.2688410 131.5606610  33.9731550 124.7833080 131.4714620  34.7753980
 123.4257490 131.9066310  34.2659460 126.2442810 131.8461950  23.4015550
 126.0843950 131.5564890  24.2997380 126.0789520 131.0702080  22.8660780
 118.7231190 131.6260480  25.1787170 118.5473670 130.7096020  24.9654970
 117.8686930 131.9847770  25.4184970 125.9468940 129.3549510  21.9613550
 125.2534100 129.3526800  21.3015830 126.6891800 128.9308830  21.5307720
 125.5118870 130.9812220  26.0362040 125.9675820 130.2001600  26.3500660
 125.8511390 131.6919040  26.5803220 130.2595680 119.9111070  36.3686480
 129.6439950 120.4190740  35.8401940 129.9392100 119.0109400  36.3112420
 113.2621420 126.7528680  33.1952780 113.4252460 126.2834040  32.3772150
 113.7273870 126.2452240  33.8601620 118.0340190 115.8834440  28.2313350
 117.5908340 116.6643980  27.8997870 118.5925180 116.2064330  28.9384290
 122.3210000 118.7502960  33.8348670 121.8589370 118.9585980  34.6468610
 121.9188110 117.9362310  33.5319340 127.3214510 119.9711910  34.9645330
 126.4708100 119.6717660  35.2854400 127.1616300 120.2153920  34.0529150
 124.4164220 121.4713660  37.0644120 124.7417630 120.6377410  36.7246350
 125.2044550 121.9942180  37.2122450 121.1499010 115.5045140  23.1119180
 120.5253190 115.5005010  23.8372490 121.0629130 114.6376100  22.7155150
 120.0716090 116.4281770  30.0902950 120.3688420 117.3344600  30.0094970
 120.6201650 115.9400550  29.4762520 117.8254410 121.0068010  25.9594600
 117.5995330 120.7905180  26.8641220 117.0446940 121.4396470  25.6140570
 125.0552170 121.0131380  24.5585250 124.4561060 121.7367180  24.3748870
 125.6031780 120.9508160  23.7761700 120.2653620 121.9053590  36.6254870
 120.1697220 120.9648320  36.4755270 121.1085600 122.1268660  36.2302940
 123.6617040 119.6494920  26.5888530 124.0546610 119.9667120  25.7757220
 124.0233890 118.7706800  26.7033050 115.3964160 118.3167260  34.7788650
 115.0027550 119.1642470  34.9861430 114.7082560 117.6793630  34.9697290
 121.9709210 118.4002230  37.8485390 121.2807530 118.2074430  38.4831480
 122.7141510 118.6836870  38.3809690 112.6981210 116.2395720  28.8118730
 112.4094260 116.8098580  29.5243710 113.4426970 115.7600170  29.1749960
 112.8851440 120.1815840  20.0221450 112.8026110 121.1246600  20.1636440
 112.5334500 120.0390750  19.1433800 124.2472180 122.2400670  30.6839310
 123.5153300 122.7487480  31.0329410 123.8496520 121.4230650  30.3828090
 120.6849570 118.9154870  29.0891800 120.6885630 118.4744820  28.2396340
 121.5800690 119.2372200  29.1963620 116.5351950 118.7981360  28.0486010
 116.1952000 119.2756590  28.8053060 115.7729270 118.3446480  27.6887110
 120.7469720 119.9166950  22.0798560 120.8682540 119.8753430  23.0284380
 120.3618230 120.7791100  21.9245290 124.7098090 117.6934350  30.0962250
 124.7270830 118.1443000  30.9404100 124.4613670 116.7939990  30.3095690
 119.7591220 122.2268090  21.4781860 119.1908120 121.7786340  20.8517770
 120.4680220 122.5860870  20.9447010 128.1368840 115.1066530  35.9348630
 128.4614610 114.3756190  36.4606610 128.1725350 114.7880170  35.0329620
 114.8360400 126.1280110  35.3548590 114.4515190 125.4873780  35.9531550
 115.1472590 126.8316230  35.9243320 120.9857540 122.9756650  30.8357210
 121.3527670 122.5015220  31.5818550 120.7962600 123.8498220  31.1765550
 113.8498030 117.7200340  26.9650680 113.5644950 117.3556010  27.8029300
 113.7876890 116.9880800  26.3513820 118.7756910 122.0165290  33.1541420
 118.4713980 122.8957270  33.3791780 119.7303370 122.0765080  33.1898860
 117.3038700 126.2226280  23.7508270 116.5300960 125.6823900  23.5906990
 118.0333330 125.7032890  23.4126030 128.0626680 125.2191640  29.5434660
 128.7825800 125.7146930  29.1530770 127.8608500 124.5409530  28.8988530
 123.5236620 116.6129600  23.6864050 122.7101230 116.1142770  23.6109360
 123.3298570 117.4527850  23.2700400 123.4445480 125.2900700  35.4303660
 123.3782790 124.3696370  35.1761250 122.8150620 125.3876140  36.1448300
 126.2385010 120.9849250  21.9826210 127.1264630 121.2966480  21.8077550
 126.2090100 120.1121500  21.5906790 117.3476100 125.8906660  27.3887080
 117.8654770 125.0874920  27.3343970 116.8960120 125.8285800  28.2303910
 122.2345600 127.1572940  22.6614380 122.5761300 127.9015170  22.1657700
 121.4058310 127.4704060  23.0239210 114.8320640 122.8568030  34.3012780
 114.4735580 123.5221880  34.8886120 114.5375200 122.0251580  34.6725400
 118.0333760 123.3152270  37.1852330 117.7333900 123.4609450  36.2880150
 118.8045000 122.7557560  37.0925720 123.3762210 128.1121270  35.1807460
 123.3906750 127.1802230  34.9626370 122.6687310 128.1981030  35.8197230
 128.5099280 122.2961090  21.4506070 128.4263000 122.7275310  20.6002510
 129.2293470 122.7559440  21.8832890 129.5873420 124.7528610  34.5276040
 128.8621610 125.3457390  34.3305430 130.1148880 124.7452150  33.7289410
 129.5386530 129.1503350  24.1788200 128.8962690 128.4958970  24.4531920
 129.1517190 129.5558440  23.4028870 125.1173010 126.4788780  28.0259890
 125.4696830 125.8816910  27.3661260 124.2335340 126.1533010  28.1968140
 121.2036290 127.2386470  25.4330300 121.8907420 127.7855680  25.8137890
 120.4168710 127.7827200  25.4679910 113.3428690 122.8559290  20.9247380
 114.2123540 123.1384090  21.2083300 112.8519010 123.6695160  20.8096190
 120.5063500 124.2432500  25.0455660 120.9626280 125.0537750  25.2715850
 120.1551710 123.9255640  25.8774150 122.8096110 129.7538840  32.2747960
 123.4538330 129.9598220  32.9521380 123.1725550 128.9927240  31.8218810
 116.4075280 114.5870150  25.5178180 116.2789910 114.5788050  26.4663100
 115.5837300 114.9253240  25.1669190 124.0828190 127.7571190  30.9925410
 124.7250420 127.0564350  31.1057580 124.6077540 128.5369630  30.8122300
 127.9283910 128.0419810  20.7164550 127.7021490 127.3250250  21.3089190
 127.5380110 127.7932250  19.8786300 125.8565810 128.5566090  34.1961470
 126.1922050 129.1432780  34.8739390 124.9366150 128.4258800  34.4259260
 113.7099940 132.0686670  21.4909010 114.0697580 132.6676010  20.8366280
 113.5692280 132.6146560  22.2644040 113.4069210 116.3461270  34.9784880
 112.6927730 116.5458190  35.5837490 113.8264250 115.5700840  35.3499680
 127.5100160 125.9591750  22.3778710 127.2221860 126.4204440  23.1656590
 128.3052330 125.4989520  22.6462930 113.6941800 130.3341530  35.9651410
 113.8032920 129.3936270  35.8246800 113.0422360 130.5996280  35.3165140
 121.6854390 128.6057420  37.3649530 121.3651260 127.8866660  37.9095220
 121.0112750 129.2812490  37.4385590 119.7268560 129.4517870  22.3082680
 119.7178660 130.1847560  21.6927190 118.8066920 129.2049450  22.4009640
 115.3275200 124.6732760  23.0529440 114.7203150 125.4131660  23.0624740
 115.8024550 124.7632120  22.2267640 124.9007990 118.8383580  32.7286330
 125.2688810 118.0178790  33.0565900 124.0406190 118.8985470  33.1441980
 128.2670020 117.7940520  23.5373890 127.6383180 117.8986190  22.8232120
 127.7721940 118.0137300  24.3267770 122.7128160 129.5146110  20.9707870
 122.8140140 129.3110100  20.0409850 121.8129900 129.2604390  21.1755650
 120.2354050 120.0726470  24.9531770 119.5270200 120.5412810  25.3945380
 120.5198530 119.4148480  25.5876960 121.8609980 121.4923170  32.9524300
 122.3595230 121.9668990  33.6176150 122.0032930 120.5686690  33.1594330
 124.2669480 116.7977130  26.3927560 124.1437260 116.8163260  25.4437070
 125.2154040 116.8456070  26.5125960 121.3546270 132.0332430  25.6655540
 121.6087770 131.9953820  24.7434910 120.4058750 131.9065760  25.6583790
 118.4389070 118.3811550  22.3282480 119.2879600 118.8181700  22.2622670
 118.0720340 118.6931810  23.1554540 129.0676840 117.7091130  33.7952690
 128.5650440 118.4496530  34.1346500 129.8833500 118.0975130  33.4789480
 127.3598850 122.9524310  27.2414050 126.4188990 122.9674540  27.4161740
 127.6742920 122.1660270  27.6874350 117.3380490 124.6343910  20.8018010
 118.1043760 124.5225270  21.3643440 117.4155180 123.9381880  20.1494780
 116.0327250 122.0668980  21.4850900 116.1130840 121.1196490  21.5968300
 116.9247000 122.3975860  21.5911560 129.3624430 130.1233160  28.9168310
 129.4871850 130.9464330  29.3892120 130.2289990 129.9123890  28.5692460
 116.8341960 132.2164370  28.5885440 117.5704440 131.6679830  28.8594010
 117.2182880 133.0820380  28.4491430 113.7187440 128.2837940  24.4626950
 112.7927220 128.5259080  24.4532360 114.1843870 129.1112200  24.3411700
 115.8400240 131.4010440  37.7771020 116.6412970 131.7222490  38.1906420
 115.3252060 131.0406020  38.4990930 119.9444270 131.3894680  20.4111010
 120.7372880 131.6783510  19.9592800 119.4248620 130.9586850  19.7323490
 124.6764870 127.5090310  37.7246430 124.0703030 127.5321910  36.9842180
 124.3718980 126.7773350  38.2613680 126.1065240 131.2370600  36.3355840
 127.0586990 131.1528620  36.2856080 125.9593460 131.9012310  37.0089630
 128.9974440 130.6164810  21.8347750 128.7115950 130.2029950  21.0201930
 128.7993990 131.5452520  21.7148270 113.5598050 123.8883900  36.7207070
 114.0637070 123.3091180  37.2923300 112.8205470 124.1724130  37.2583440
 120.4621670 126.6098090  20.2753360 120.3572310 125.9950440  21.0014740
 120.2945890 126.0863980  19.4916370 120.6135990 125.2954890  36.2542590
 119.8481660 125.8639890  36.1697260 120.7951950 125.0031100  35.3610820
 123.7024400 125.6718120  20.8795350 123.1534500 126.1187420  21.5238090
 124.3243660 125.1667370  21.4033020 127.7559340 127.0260220  36.8117610
 128.4968810 127.3635980  36.3085070 126.9932020 127.1952280  36.2587380
 115.5921130 122.0313490  37.6157140 115.6326470 121.7327360  38.5242370
 116.4466630 122.4321100  37.4564660 119.3699520 124.6309040  22.7760650
 119.7915940 124.4648910  23.6192040 119.4950360 123.8209270  22.2815790
 117.5326940 120.6105590  35.5831630 117.0023400 120.1196540  34.9554970
 118.2015010 121.0389790  35.0489560 121.8827160 123.6546650  20.0237750
 122.4032820 122.9395670  19.6578900 122.5295560 124.2932520  20.3238260
 126.4305000 125.0775050  35.3472820 126.8446020 125.2320130  36.1963240
 125.4956000 125.2030270  35.5098600 126.9027170 122.4171210  37.3511970
 127.4847940 121.6623530  37.2632450 127.0788940 122.9478650  36.5743450
 118.0199240 117.5767960  35.6628920 117.9256110 116.9588710  34.9379790
 117.4396630 118.3034250  35.4358830 120.7860680 116.1341200  32.6956310
 120.3377980 116.1565460  31.8501860 120.1525880 115.7360220  33.2926610
 121.1920230 125.0295530  33.3168750 121.6108340 125.8728260  33.1444990
 120.2728860 125.1667570  33.0875530 123.5284130 122.7611710  34.7006590
 123.6480340 122.1652850  35.4401430 124.3878130 122.7981400  34.2807890
 125.8672030 123.3148900  33.2769100 125.3407250 123.8391520  32.6734240
 126.2103370 123.9476290  33.9078830 118.2658420 120.7042270  19.7218810
 118.0647480 119.8409630  20.0832150 118.0950470 120.6175630  18.7840410
 119.0427650 131.3348540  34.4326480 118.5048740 132.0594600  34.1135180
 119.2961610 130.8578880  33.6423820 120.2952900 119.3033060  35.9582410
 120.8852590 118.9948910  36.6460230 119.4773140 118.8312810  36.1142310
 125.1146330 118.9198870  36.1915430 124.4261850 118.2580410  36.1265420
 125.8352350 118.4737140  36.6363890 125.7446730 115.5150500  22.2505690
 126.0249020 114.6718400  22.6065110 124.9712460 115.7473610  22.7644440
 117.0641220 117.8042890  19.7096690 117.3667120 117.8110320  18.8015840
 117.8035810 117.4540750  20.2064350 121.8989860 132.5699750  34.6913130
 121.8248560 133.4734890  34.9985500 120.9968700 132.2511650  34.6635200
 120.2826150 116.7477510  20.6952890 119.9348150 116.0701500  20.1155340
 120.4838920 116.2867020  21.5096280 122.4475190 131.7358260  22.3139490
 123.3425980 132.0743230  22.3358250 122.4792820 131.0137670  21.6863770
 116.0871350 127.1085310  20.5426490 116.5246220 127.6514980  21.1984070
 116.5719080 126.2832260  20.5522830 113.3017150 129.8974340  27.9946750
 113.6320160 129.0295400  27.7625390 113.7308150 130.1032860  28.8251710
 117.8979070 128.2283350  25.6548720 117.5974610 128.1048320  26.5552630
 117.7916560 127.3691940  25.2464450 113.7907360 130.7644930  30.7328380
 113.3538350 130.9445730  31.5652530 114.3585040 131.5219550  30.5910100
 129.4269540 130.2661930  35.0205690 128.8271530 130.3254490  34.2769610
 129.5563440 129.3266910  35.1502540 130.6670990 128.0079750  20.3575400
 129.8363950 128.0756400  20.8282630 130.8442820 128.8983870  20.0542260
 130.1227450 124.7527230  22.8609600 130.8846360 125.3223880  22.9669290
 130.1381820 124.1854430  23.6317910 113.6231790 123.2765160  27.0917260
 112.9680630 123.0076800  26.4476960 114.4609740 123.1669640  26.6419240
 131.1287420 125.6077330  27.7051530 131.4996250 124.8244650  27.2987500
 131.7689350 126.2966430  27.5268830 128.1121180 126.9913910  33.1181850
 127.2981020 127.4211070  33.3807640 128.5195380 127.6032320  32.5050900
 130.1746620 125.0461600  20.0182120 130.4495460 125.9540480  19.8901340
 129.9857360 124.9824130  20.9544110 126.5722230 118.0706450  21.3135750
 126.9907110 117.8837430  20.4732410 126.2658290 117.2185500  21.6238680
 130.0711960 122.9830590  25.0111550 129.6955560 122.2158520  24.5792840
 129.3415080 123.3653290  25.4986480 114.6607720 123.6617730  31.6320600
 115.0280760 123.5745130  32.5116620 114.0918540 122.8984280  31.5327460
 129.4611580 122.1302110  34.6451070 129.2297670 121.9014860  33.7449020
 129.7216130 123.0501660  34.5995960 114.2123720 120.5726820  35.5379020
 113.3179770 120.5393580  35.8772730 114.7521270 120.7713610  36.3030270
 127.8999650 117.3558540  37.4230770 128.7769830 117.3641940  37.8064770
 127.9120490 116.6189380  36.8123120 112.8369870 120.4864090  23.0342590
 111.9333950 120.7494290  22.8594250 113.3210490 120.7575260  22.2542550
 129.3462920 121.2088080  28.3118790 129.8700400 120.7150730  27.6808960
 129.9322340 121.3438440  29.0566360 129.5252640 121.2927950  31.8338340
 128.5755350 121.2591490  31.9483330 129.7065650 122.2028060  31.5988110
 115.3797080 119.5429630  20.9436970 116.0888780 119.1212850  20.4584250
 114.6637020 119.6104860  20.3120320 115.0271240 115.5968960  19.9839620
 115.7499370 116.1377900  20.3020840 115.2995760 115.3232380  19.1081160
 128.8362890 120.4661430  24.2511200 129.3322010 120.2332300  25.0360080
 128.6378960 119.6273270  23.8348840 114.7163430 114.8475150  29.8862240
 115.3639620 114.2972530  29.4457400 115.1365270 115.1018300  30.7078050
 130.2650050 119.1022380  26.7848880 130.1549330 118.9478420  27.7231150
 131.0257640 118.5743320  26.5424290 128.6115770 115.0416510  33.2431880
 129.2487990 115.6550650  33.6091070 128.7590660 115.0777170  32.2981110
 131.1540320 116.9330300  20.0255020 132.0789630 116.8011480  19.8173310
 131.1316110 117.0123120  20.9791470 131.2278810 117.7040960  22.6511730
 130.4330310 117.6386080  23.1804640 131.4322090 118.6391600  22.6397080
 128.1697230 131.7432510  26.6450120 128.7656300 131.4217080  25.9684540
 128.4275380 131.2704330  27.4363390 114.4695430 115.0030820  32.6287560
 114.1210250 115.4594640  33.3945740 114.1383130 114.1087950  32.7109990
 116.0759800 128.1750420  36.7940750 116.0329430 127.8043330  37.6755210
 116.2070810 129.1127990  36.9342570 119.7765830 129.7310010  32.3950470
 119.5357190 129.9984570  31.5080990 120.7168470 129.9015740  32.4501330
 121.9820250 116.1942700  36.1506980 121.9209140 116.7864530  36.9002390
 122.9220630 116.0868660  36.0057240 124.6194810 115.8512760  35.7899270
 125.2335220 116.1692050  35.1280350 125.1644370 115.3661350  36.4095130
 131.0369990 131.7504390  33.1961110 130.5428270 132.1473260  32.4788240
 130.4283280 131.1253600  33.5898390 115.1416070 114.5307020  35.9038330
 115.6899060 114.3495070  35.1404440 115.2071380 113.7401130  36.4394640
 115.9147830 131.1212670  33.9138530 115.3208150 130.9897370  34.6528570
 115.9071670 130.2850810  33.4480630 125.3602850 114.4144900  32.1168560
 124.4862690 114.7480010  31.9141490 125.2513600 113.9418080  32.9420430
 126.2674830 116.6215770  33.5010280 125.9388190 115.8067530  33.1212010
 127.2157130 116.5785580  33.3775970 128.7209440 132.3927810  30.4747850
 128.2612410 133.1443620  30.1005870 128.0921900 131.6734280  30.4162650
 115.5460060 128.4871050  32.8646570 114.8194120 127.8676340  32.7972520
 115.6069210 128.8811660  31.9944650 119.1505160 130.7016050  29.6495980
 119.6670180 130.0903410  29.1244240 119.8002540 131.2044830  30.1406990
 121.8900660 131.5924540  30.4764960 122.1778470 131.3378840  29.5997970
 122.4023880 131.0401900  31.0670530 123.1077670 115.3314740  31.0561470
 122.3249460 115.8060240  31.3358230 122.8140600 114.4269570  30.9474650
 127.6598740 116.0337840  29.1010560 128.1006830 115.9782940  28.2532160
 127.3906330 116.9495850  29.1720740 129.5237310 115.6653080  27.1119380
 129.4625710 114.7214300  26.9650400 130.3029340 115.7733170  27.6572840
 113.8290060 131.8045440  26.0743330 113.6612100 131.1716120  26.7725220
 112.9624570 132.0104840  25.7237520 114.4518080 115.6362220  23.5775190
 115.2097440 115.7491100  23.0039220 113.9895250 116.4731420  23.5318620
 120.9931890 117.7501490  26.5677500 120.1806400 117.3758380  26.2273380
 121.4973530 116.9946570  26.8698690 125.4956870 114.4143940  27.8060570
 126.0986240 114.9864150  28.2809090 124.7549860 114.9783380  27.5834470
 128.6391470 114.8165500  23.0800850 128.8342100 115.7148950  23.3468280
 127.8521340 114.5852580  23.5733800 115.4352760 130.4978670  23.5193470
 114.9100380 130.8786700  22.8155430 115.3597340 131.1229440  24.2403180
 116.8243230 116.1626270  22.1177160 117.3535990 115.3756070  21.9885110
 117.4571550 116.8417460  22.3512690 119.0181070 115.9001410  25.1722550
 118.3883810 115.1988720  25.3392680 118.4786210 116.6605540  24.9555710
 121.9573020 132.5140640  37.8433160 122.8840330 132.2784910  37.8869120
 121.9423450 133.3412640  37.3619190 130.1918080 132.0566210  24.8407410
 130.3670270 131.3703950  24.1968330 129.4939650 132.5813260  24.4484080
 119.1436630 115.1785390  37.6075040 118.8620900 115.6818990  36.8435860
 119.5256330 114.3807140  37.2417170 118.0345730 132.4461050  22.3942720
 118.7664550 132.1620330  21.8466610 118.2939400 132.2074330  23.2842100
 117.1960520 128.5625780  22.3989050 116.5669400 129.0310880  22.9474880
 117.3108350 127.7175000  22.8335240 125.7452090 114.5938970  38.1855510
 125.6317540 114.9133580  39.0807030 126.5621830 114.9951480  37.8892790
 128.5250580 131.7410500  37.6674200 129.3175900 131.2459730  37.4600160
 128.8183730 132.4200640  38.2749810 124.6510240 122.6131440   8.5490250
 124.5704290 121.6986050   8.2781960 124.2374660 123.1098510   7.8429960
 122.7828280 124.3910460  10.4299520 122.0070380 123.9110900  10.7198090
 123.4341210 123.7116110  10.2555680 116.7994110 124.7030270  11.3075280
 115.9678990 124.4478980  11.7071790 117.4075090 124.7741040  12.0433200
 126.8035710 128.7970650   9.2098650 126.3417240 128.0257890   9.5385820
 127.6161260 128.8236720   9.7151100 116.7795370 128.7370360  11.5033300
 117.0823410 127.8468100  11.3243520 117.5238960 129.2940580  11.2755550
 115.2086060 119.6632160   5.0917670 114.3202760 120.0048130   4.9897550
 115.4927250 119.4632480   4.1998500 113.1719070 122.2637810  10.9757370
 113.7435180 121.4960010  10.9761010 113.1720610 122.5626570  10.0663980
 123.0299020 131.0828660   8.8302640 122.4110460 131.5386160   8.2597080
 123.8850800 131.2380120   8.4292340 122.2237270 127.0667650  10.4369680
 122.1545550 126.1257590  10.2758810 122.9857130 127.1569060  11.0092250
 114.4143940 117.6722170  12.7626300 114.2346780 116.7747920  13.0429060
 114.0124020 118.2194040  13.4373250 123.2542440 119.8738030  10.6638610
 123.6307260 119.0009910  10.5512280 123.1561950 120.2096730   9.7729050
 117.3847450 118.2463660   6.1256050 117.4914200 119.1467390   6.4324810
 116.4739810 118.1981630   5.8350700 127.0366560 117.3688470   7.5966950
 127.8576180 116.8785040   7.6392430 127.0700640 117.9586130   8.3498790
 115.0330610 120.1682670  11.3708640 115.7140720 120.4321040  11.9896040
 114.7178660 119.3283540  11.7046650 119.2255180 121.2150030  10.4581230
 119.7333400 121.7131000  11.0986250 119.7568420 120.4385230  10.2820590
 131.3266110 119.3855220  14.1610580 130.6218280 119.7736930  13.6425690
 131.5924030 120.0805510  14.7631510 117.5091280 115.8548590  14.7244650
 117.5109720 116.3720980  13.9190550 116.6795590 115.3778770  14.7014580
 123.8962370 125.9667900   6.2234550 123.2779640 126.4317350   5.6597270
 124.4085620 126.6595380   6.6404060 118.7594130 125.4943770  12.9018150
 118.4263510 126.1212690  13.5439220 118.9360810 126.0205650  12.1219820
 127.2728040 119.3088850  10.3694490 126.5683610 119.5973740  10.9497600
 127.6340200 120.1188960  10.0094050 117.1906610 117.5658550  12.7315100
 117.5323420 118.4100600  12.4368970 116.2522420 117.7142290  12.8480440
 117.9713230 127.4624570  14.7167330 118.5887230 128.1375650  14.4351780
 117.1106350 127.8712550  14.6254830 113.2645570 126.6524430   3.5974180
 112.8873550 127.1411530   2.8659080 113.5218640 127.3249710   4.2280710
 128.8890820 128.9263980  12.6321970 128.2054340 129.5963090  12.6238640
 129.4285110 129.1244630  11.8666830 130.3414960 118.7543640  10.7603700
 129.3939870 118.7882620  10.8919130 130.6664950 119.5682590  11.1453060
 120.8734500 115.0540820   9.0559690 121.1809480 114.4987710   8.3395190
 119.9435200 115.1885280   8.8732680 126.4249560 130.7708110  11.3467150
 126.4376720 130.3670400  10.4789410 125.8724780 131.5455400  11.2428580
 127.7194980 127.4924330   6.4357320 127.6091310 126.5498660   6.5606740
 127.7163230 127.8539970   7.3220080 125.8235000 125.6737950  12.6749760
 126.2403790 125.4598060  11.8403220 126.5474820 125.9310740  13.2458380
 123.2615260 123.1189650   5.7919810 122.3344540 123.0527030   6.0208280
 123.4140080 124.0569780   5.6775050 123.2484340 119.3906650   2.7886970
 122.3088010 119.5520610   2.8739430 123.5667600 120.1092330   2.2422960
 129.7697100 124.0725170  12.7666000 128.9415730 124.1418260  12.2916130
 130.3647580 124.6579480  12.2981830 127.2912550 124.6809950   6.2955060
 126.6724970 124.3429500   5.6481360 127.2737000 124.0369710   7.0034250
 126.7339110 120.8594490  13.7120870 126.3210290 121.6848200  13.9660860
 126.0015060 120.2739530  13.5197230 118.8671900 123.6454390   8.5739540
 118.4628900 122.9331640   8.0785440 118.9535020 123.3007630   9.4627580
 119.3353600 127.3321950  10.7378750 119.0381890 126.7267420  10.0586530
 120.2853420 127.3699260  10.6268110 117.5800520 120.4197600  12.3538580
 118.1315110 120.5292940  11.5791830 118.0944030 120.7935200  13.0693810
 127.4239210 130.9053820  14.4001850 126.9469770 131.7126010  14.2074460
 126.7401000 130.2532150  14.5528060 118.4272030 127.0703640  17.3886550
 117.5300560 127.2943610  17.6359950 118.4524900 127.1938580  16.4397950
 125.4677250 123.9196760   3.3027810 125.9070530 123.0819190   3.1565630
 126.1805670 124.5526160   3.3891950 117.2543250 123.9416960  15.9643920
 117.1151020 124.8139760  16.3331320 116.3724610 123.5989770  15.8191860
 123.5772630 128.8592830   7.2709050 124.0168540 129.6017160   6.8564440
 123.5159520 129.1019400   8.1948010 119.0523600 129.8838660  18.1729070
 119.0239030 130.2881610  17.3057500 118.8888570 128.9549020  18.0100670
 115.5676530 122.5399370   6.0746190 115.4474130 123.2661460   5.4627460
 115.2577420 121.7702280   5.5974100 131.0038420 130.6665760  19.4693240
 131.4798140 131.1448650  20.1482320 131.6245580 130.5983250  18.7438740
 113.2061900 125.7114510  11.8814830 113.2842320 125.8463280  10.9370550
 113.8203580 125.0030400  12.0742950 114.4509530 127.4114700   8.2921010
 114.0437610 127.5529290   7.4374610 115.3422540 127.1274860   8.0892220
 130.4071670 127.8578610  16.6293250 130.5334730 127.6190490  15.7110430
 130.4493050 127.0263150  17.1015330 124.2688410 131.5606610  15.1988060
 124.7833080 131.4714620  16.0010490 123.4257490 131.9066310  15.4915970
 126.2442810 131.8461950   4.6272060 126.0843950 131.5564890   5.5253890
 126.0789520 131.0702080   4.0917290 118.7231190 131.6260480   6.4043680
 118.5473670 130.7096020   6.1911480 117.8686930 131.9847770   6.6441480
 125.9468940 129.3549510   3.1870060 125.2534100 129.3526800   2.5272340
 126.6891800 128.9308830   2.7564230 125.5118870 130.9812220   7.2618550
 125.9675820 130.2001600   7.5757170 125.8511390 131.6919040   7.8059730
 130.2595680 119.9111070  17.5942990 129.6439950 120.4190740  17.0658450
 129.9392100 119.0109400  17.5368930 113.2621420 126.7528680  14.4209290
 113.4252460 126.2834040  13.6028660 113.7273870 126.2452240  15.0858130
 118.0340190 115.8834440   9.4569860 117.5908340 116.6643980   9.1254380
 118.5925180 116.2064330  10.1640800 122.3210000 118.7502960  15.0605180
 121.8589370 118.9585980  15.8725120 121.9188110 117.9362310  14.7575850
 127.3214510 119.9711910  16.1901840 126.4708100 119.6717660  16.5110910
 127.1616300 120.2153920  15.2785660 124.4164220 121.4713660  18.2900630
 124.7417630 120.6377410  17.9502860 125.2044550 121.9942180  18.4378960
 121.1499010 115.5045140   4.3375690 120.5253190 115.5005010   5.0629000
 121.0629130 114.6376100   3.9411660 120.0716090 116.4281770  11.3159460
 120.3688420 117.3344600  11.2351480 120.6201650 115.9400550  10.7019030
 117.8254410 121.0068010   7.1851110 117.5995330 120.7905180   8.0897730
 117.0446940 121.4396470   6.8397080 125.0552170 121.0131380   5.7841760
 124.4561060 121.7367180   5.6005380 125.6031780 120.9508160   5.0018210
 120.2653620 121.9053590  17.8511380 120.1697220 120.9648320  17.7011780
 121.1085600 122.1268660  17.4559450 123.6617040 119.6494920   7.8145040
 124.0546610 119.9667120   7.0013730 124.0233890 118.7706800   7.9289560
 115.3964160 118.3167260  16.0045160 115.0027550 119.1642470  16.2117940
 114.7082560 117.6793630  16.1953800 121.9709210 118.4002230  19.0741900
 121.2807530 118.2074430  19.7087990 122.7141510 118.6836870  19.6066200
 112.6981210 116.2395720  10.0375240 112.4094260 116.8098580  10.7500220
 113.4426970 115.7600170  10.4006470 124.2472180 122.2400670  11.9095820
 123.5153300 122.7487480  12.2585920 123.8496520 121.4230650  11.6084600
 120.6849570 118.9154870  10.3148310 120.6885630 118.4744820   9.4652850
 121.5800690 119.2372200  10.4220130 116.5351950 118.7981360   9.2742520
 116.1952000 119.2756590  10.0309570 115.7729270 118.3446480   8.9143620
 120.7469720 119.9166950   3.3055070 120.8682540 119.8753430   4.2540890
 120.3618230 120.7791100   3.1501800 124.7098090 117.6934350  11.3218760
 124.7270830 118.1443000  12.1660610 124.4613670 116.7939990  11.5352200
 119.7591220 122.2268090   2.7038370 119.1908120 121.7786340   2.0774280
 120.4680220 122.5860870   2.1703520 128.1368840 115.1066530  17.1605140
 128.4614610 114.3756190  17.6863120 128.1725350 114.7880170  16.2586130
 114.8360400 126.1280110  16.5805100 114.4515190 125.4873780  17.1788060
 115.1472590 126.8316230  17.1499830 120.9857540 122.9756650  12.0613720
 121.3527670 122.5015220  12.8075060 120.7962600 123.8498220  12.4022060
 113.8498030 117.7200340   8.1907190 113.5644950 117.3556010   9.0285810
 113.7876890 116.9880800   7.5770330 118.7756910 122.0165290  14.3797930
 118.4713980 122.8957270  14.6048290 119.7303370 122.0765080  14.4155370
 117.3038700 126.2226280   4.9764780 116.5300960 125.6823900   4.8163500
 118.0333330 125.7032890   4.6382540 128.0626680 125.2191640  10.7691170
 128.7825800 125.7146930  10.3787280 127.8608500 124.5409530  10.1245040
 123.5236620 116.6129600   4.9120560 122.7101230 116.1142770   4.8365870
 123.3298570 117.4527850   4.4956910 123.4445480 125.2900700  16.6560170
 123.3782790 124.3696370  16.4017760 122.8150620 125.3876140  17.3704810
 126.2385010 120.9849250   3.2082720 127.1264630 121.2966480   3.0334060
 126.2090100 120.1121500   2.8163300 117.3476100 125.8906660   8.6143590
 117.8654770 125.0874920   8.5600480 116.8960120 125.8285800   9.4560420
 122.2345600 127.1572940   3.8870890 122.5761300 127.9015170   3.3914210
 121.4058310 127.4704060   4.2495720 114.8320640 122.8568030  15.5269290
 114.4735580 123.5221880  16.1142630 114.5375200 122.0251580  15.8981910
 118.0333760 123.3152270  18.4108840 117.7333900 123.4609450  17.5136660
 118.8045000 122.7557560  18.3182230 123.3762210 128.1121270  16.4063970
 123.3906750 127.1802230  16.1882880 122.6687310 128.1981030  17.0453740
 128.5099280 122.2961090   2.6762580 128.4263000 122.7275310   1.8259020
 129.2293470 122.7559440   3.1089400 129.5873420 124.7528610  15.7532550
 128.8621610 125.3457390  15.5561940 130.1148880 124.7452150  14.9545920
 129.5386530 129.1503350   5.4044710 128.8962690 128.4958970   5.6788430
 129.1517190 129.5558440   4.6285380 125.1173010 126.4788780   9.2516400
 125.4696830 125.8816910   8.5917770 124.2335340 126.1533010   9.4224650
 121.2036290 127.2386470   6.6586810 121.8907420 127.7855680   7.0394400
 120.4168710 127.7827200   6.6936420 113.3428690 122.8559290   2.1503890
 114.2123540 123.1384090   2.4339810 112.8519010 123.6695160   2.0352700
 120.5063500 124.2432500   6.2712170 120.9626280 125.0537750   6.4972360
 120.1551710 123.9255640   7.1030660 122.8096110 129.7538840  13.5004470
 123.4538330 129.9598220  14.1777890 123.1725550 128.9927240  13.0475320
 116.4075280 114.5870150   6.7434690 116.2789910 114.5788050   7.6919610
 115.5837300 114.9253240   6.3925700 124.0828190 127.7571190  12.2181920
 124.7250420 127.0564350  12.3314090 124.6077540 128.5369630  12.0378810
 125.8565810 128.5566090  15.4217980 126.1922050 129.1432780  16.0995900
 124.9366150 128.4258800  15.6515770 113.7099940 132.0686670   2.7165520
 114.0697580 132.6676010   2.0622790 113.5692280 132.6146560   3.4900550
 113.4069210 116.3461270  16.2041390 112.6927730 116.5458190  16.8094000
 113.8264250 115.5700840  16.5756190 127.5100160 125.9591750   3.6035220
 127.2221860 126.4204440   4.3913100 128.3052330 125.4989520   3.8719440
 113.6941800 130.3341530  17.1907920 113.8032920 129.3936270  17.0503310
 113.0422360 130.5996280  16.5421650 121.6854390 128.6057420  18.5906040
 121.3651260 127.8866660  19.1351730 121.0112750 129.2812490  18.6642100
 119.7268560 129.4517870   3.5339190 119.7178660 130.1847560   2.9183700
 118.8066920 129.2049450   3.6266150 115.3275200 124.6732760   4.2785950
 114.7203150 125.4131660   4.2881250 115.8024550 124.7632120   3.4524150
 124.9007990 118.8383580  13.9542840 125.2688810 118.0178790  14.2822410
 124.0406190 118.8985470  14.3698490 128.2670020 117.7940520   4.7630400
 127.6383180 117.8986190   4.0488630 127.7721940 118.0137300   5.5524280
 120.2354050 120.0726470   6.1788280 119.5270200 120.5412810   6.6201890
 120.5198530 119.4148480   6.8133470 121.8609980 121.4923170  14.1780810
 122.3595230 121.9668990  14.8432660 122.0032930 120.5686690  14.3850840
 124.2669480 116.7977130   7.6184070 124.1437260 116.8163260   6.6693580
 125.2154040 116.8456070   7.7382470 121.3546270 132.0332430   6.8912050
 121.6087770 131.9953820   5.9691420 120.4058750 131.9065760   6.8840300
 118.4389070 118.3811550   3.5538990 119.2879600 118.8181700   3.4879180
 118.0720340 118.6931810   4.3811050 129.0676840 117.7091130  15.0209200
 128.5650440 118.4496530  15.3603010 129.8833500 118.0975130  14.7045990
 127.3598850 122.9524310   8.4670560 126.4188990 122.9674540   8.6418250
 127.6742920 122.1660270   8.9130860 116.0327250 122.0668980   2.7107410
 116.1130840 121.1196490   2.8224810 116.9247000 122.3975860   2.8168070
 129.3624430 130.1233160  10.1424820 129.4871850 130.9464330  10.6148630
 130.2289990 129.9123890   9.7948970 116.8341960 132.2164370   9.8141950
 117.5704440 131.6679830  10.0850520 117.2182880 133.0820380   9.6747940
 113.7187440 128.2837940   5.6883460 112.7927220 128.5259080   5.6788870
 114.1843870 129.1112200   5.5668210 115.8400240 131.4010440  19.0027530
 116.6412970 131.7222490  19.4162930 115.3252060 131.0406020  19.7247440
 124.6764870 127.5090310  18.9502940 124.0703030 127.5321910  18.2098690
 124.3718980 126.7773350  19.4870190 126.1065240 131.2370600  17.5612350
 127.0586990 131.1528620  17.5112590 125.9593460 131.9012310  18.2346140
 128.9974440 130.6164810   3.0604260 128.7115950 130.2029950   2.2458440
 128.7993990 131.5452520   2.9404780 113.5598050 123.8883900  17.9463580
 114.0637070 123.3091180  18.5179810 112.8205470 124.1724130  18.4839950
 120.6135990 125.2954890  17.4799100 119.8481660 125.8639890  17.3953770
 120.7951950 125.0031100  16.5867330 123.7024400 125.6718120   2.1051860
 123.1534500 126.1187420   2.7494600 124.3243660 125.1667370   2.6289530
 127.7559340 127.0260220  18.0374120 128.4968810 127.3635980  17.5341580
 126.9932020 127.1952280  17.4843890 115.5921130 122.0313490  18.8413650
 115.6326470 121.7327360  19.7498880 116.4466630 122.4321100  18.6821170
 119.3699520 124.6309040   4.0017160 119.7915940 124.4648910   4.8448550
 119.4950360 123.8209270   3.5072300 117.5326940 120.6105590  16.8088140
 117.0023400 120.1196540  16.1811480 118.2015010 121.0389790  16.2746070
 126.4305000 125.0775050  16.5729330 126.8446020 125.2320130  17.4219750
 125.4956000 125.2030270  16.7355110 126.9027170 122.4171210  18.5768480
 127.4847940 121.6623530  18.4888960 127.0788940 122.9478650  17.7999960
 118.0199240 117.5767960  16.8885430 117.9256110 116.9588710  16.1636300
 117.4396630 118.3034250  16.6615340 120.7860680 116.1341200  13.9212820
 120.3377980 116.1565460  13.0758370 120.1525880 115.7360220  14.5183120
 121.1920230 125.0295530  14.5425260 121.6108340 125.8728260  14.3701500
 120.2728860 125.1667570  14.3132040 123.5284130 122.7611710  15.9263100
 123.6480340 122.1652850  16.6657940 124.3878130 122.7981400  15.5064400
 125.8672030 123.3148900  14.5025610 125.3407250 123.8391520  13.8990750
 126.2103370 123.9476290  15.1335340 119.0427650 131.3348540  15.6582990
 118.5048740 132.0594600  15.3391690 119.2961610 130.8578880  14.8680330
 120.2952900 119.3033060  17.1838920 120.8852590 118.9948910  17.8716740
 119.4773140 118.8312810  17.3398820 125.1146330 118.9198870  17.4171940
 124.4261850 118.2580410  17.3521930 125.8352350 118.4737140  17.8620400
 125.7446730 115.5150500   3.4762200 126.0249020 114.6718400   3.8321620
 124.9712460 115.7473610   3.9900950 121.8989860 132.5699750  15.9169640
 121.8248560 133.4734890  16.2242010 120.9968700 132.2511650  15.8891710
 122.4475190 131.7358260   3.5396000 123.3425980 132.0743230   3.5614760
 122.4792820 131.0137670   2.9120280 116.0871350 127.1085310   1.7683000
 116.5246220 127.6514980   2.4240580 116.5719080 126.2832260   1.7779340
 113.3017150 129.8974340   9.2203260 113.6320160 129.0295400   8.9881900
 113.7308150 130.1032860  10.0508220 117.8979070 128.2283350   6.8805230
 117.5974610 128.1048320   7.7809140 117.7916560 127.3691940   6.4720960
 113.7907360 130.7644930  11.9584890 113.3538350 130.9445730  12.7909040
 114.3585040 131.5219550  11.8166610 129.4269540 130.2661930  16.2462200
 128.8271530 130.3254490  15.5026120 129.5563440 129.3266910  16.3759050
 130.1227450 124.7527230   4.0866110 130.8846360 125.3223880   4.1925800
 130.1381820 124.1854430   4.8574420 113.6231790 123.2765160   8.3173770
 112.9680630 123.0076800   7.6733470 114.4609740 123.1669640   7.8675750
 131.1287420 125.6077330   8.9308040 131.4996250 124.8244650   8.5244010
 131.7689350 126.2966430   8.7525340 128.1121180 126.9913910  14.3438360
 127.2981020 127.4211070  14.6064150 128.5195380 127.6032320  13.7307410
 126.5722230 118.0706450   2.5392260 126.9907110 117.8837430   1.6988920
 126.2658290 117.2185500   2.8495190 130.0711960 122.9830590   6.2368060
 129.6955560 122.2158520   5.8049350 129.3415080 123.3653290   6.7242990
 114.6607720 123.6617730  12.8577110 115.0280760 123.5745130  13.7373130
 114.0918540 122.8984280  12.7583970 129.4611580 122.1302110  15.8707580
 129.2297670 121.9014860  14.9705530 129.7216130 123.0501660  15.8252470
 114.2123720 120.5726820  16.7635530 113.3179770 120.5393580  17.1029240
 114.7521270 120.7713610  17.5286780 127.8999650 117.3558540  18.6487280
 128.7769830 117.3641940  19.0321280 127.9120490 116.6189380  18.0379630
 112.8369870 120.4864090   4.2599100 111.9333950 120.7494290   4.0850760
 113.3210490 120.7575260   3.4799060 129.3462920 121.2088080   9.5375300
 129.8700400 120.7150730   8.9065470 129.9322340 121.3438440  10.2822870
 129.5252640 121.2927950  13.0594850 128.5755350 121.2591490  13.1739840
 129.7065650 122.2028060  12.8244620 128.8362890 120.4661430   5.4767710
 129.3322010 120.2332300   6.2616590 128.6378960 119.6273270   5.0605350
 114.7163430 114.8475150  11.1118750 115.3639620 114.2972530  10.6713910
 115.1365270 115.1018300  11.9334560 130.2650050 119.1022380   8.0105390
 130.1549330 118.9478420   8.9487660 131.0257640 118.5743320   7.7680800
 128.6115770 115.0416510  14.4688390 129.2487990 115.6550650  14.8347580
 128.7590660 115.0777170  13.5237620 131.2278810 117.7040960   3.8768240
 130.4330310 117.6386080   4.4061150 131.4322090 118.6391600   3.8653590
 128.1697230 131.7432510   7.8706630 128.7656300 131.4217080   7.1941050
 128.4275380 131.2704330   8.6619900 114.4695430 115.0030820  13.8544070
 114.1210250 115.4594640  14.6202250 114.1383130 114.1087950  13.9366500
 116.0759800 128.1750420  18.0197260 116.0329430 127.8043330  18.9011720
 116.2070810 129.1127990  18.1599080 119.7765830 129.7310010  13.6206980
 119.5357190 129.9984570  12.7337500 120.7168470 129.9015740  13.6757840
 121.9820250 116.1942700  17.3763490 121.9209140 116.7864530  18.1258900
 122.9220630 116.0868660  17.2313750 124.6194810 115.8512760  17.0155780
 125.2335220 116.1692050  16.3536860 125.1644370 115.3661350  17.6351640
 131.0369990 131.7504390  14.4217620 130.5428270 132.1473260  13.7044750
 130.4283280 131.1253600  14.8154900 115.1416070 114.5307020  17.1294840
 115.6899060 114.3495070  16.3660950 115.2071380 113.7401130  17.6651150
 115.9147830 131.1212670  15.1395040 115.3208150 130.9897370  15.8785080
 115.9071670 130.2850810  14.6737140 125.3602850 114.4144900  13.3425070
 124.4862690 114.7480010  13.1398000 125.2513600 113.9418080  14.1676940
 126.2674830 116.6215770  14.7266790 125.9388190 115.8067530  14.3468520
 127.2157130 116.5785580  14.6032480 128.7209440 132.3927810  11.7004360
 128.2612410 133.1443620  11.3262380 128.0921900 131.6734280  11.6419160
 115.5460060 128.4871050  14.0903080 114.8194120 127.8676340  14.0229030
 115.6069210 128.8811660  13.2201160 119.1505160 130.7016050  10.8752490
 119.6670180 130.0903410  10.3500750 119.8002540 131.2044830  11.3663500
 121.8900660 131.5924540  11.7021470 122.1778470 131.3378840  10.8254480
 122.4023880 131.0401900  12.2927040 123.1077670 115.3314740  12.2817980
 122.3249460 115.8060240  12.5614740 122.8140600 114.4269570  12.1731160
 127.6598740 116.0337840  10.3267070 128.1006830 115.9782940   9.4788670
 127.3906330 116.9495850  10.3977250 129.5237310 115.6653080   8.3375890
 129.4625710 114.7214300   8.1906910 130.3029340 115.7733170   8.8829350
 113.8290060 131.8045440   7.2999840 113.6612100 131.1716120   7.9981730
 112.9624570 132.0104840   6.9494030 114.4518080 115.6362220   4.8031700
 115.2097440 115.7491100   4.2295730 113.9895250 116.4731420   4.7575130
 120.9931890 117.7501490   7.7934010 120.1806400 117.3758380   7.4529890
 121.4973530 116.9946570   8.0955200 125.4956870 114.4143940   9.0317080
 126.0986240 114.9864150   9.5065600 124.7549860 114.9783380   8.8090980
 128.6391470 114.8165500   4.3057360 128.8342100 115.7148950   4.5724790
 127.8521340 114.5852580   4.7990310 115.4352760 130.4978670   4.7449980
 114.9100380 130.8786700   4.0411940 115.3597340 131.1229440   5.4659690
 116.8243230 116.1626270   3.3433670 117.3535990 115.3756070   3.2141620
 117.4571550 116.8417460   3.5769200 119.0181070 115.9001410   6.3979060
 118.3883810 115.1988720   6.5649190 118.4786210 116.6605540   6.1812220
 121.9573020 132.5140640  19.0689670 122.8840330 132.2784910  19.1125630
 121.9423450 133.3412640  18.5875700 130.1918080 132.0566210   6.0663920
 130.3670270 131.3703950   5.4224840 129.4939650 132.5813260   5.6740590
 119.1436630 115.1785390  18.8331550 118.8620900 115.6818990  18.0692370
 119.5256330 114.3807140  18.4673680 118.0345730 132.4461050   3.6199230
 118.7664550 132.1620330   3.0723120 118.2939400 132.2074330   4.5098610
 117.1960520 128.5625780   3.6245560 116.5669400 129.0310880   4.1731390
 117.3108350 127.7175000   4.0591750 125.7452090 114.5938970  19.4112020
 125.6317540 114.9133580  20.3063540 126.5621830 114.9951480  19.1149300
 128.5250580 131.7410500  18.8930710 129.3175900 131.2459730  18.6856670
 128.8183730 132.4200640  19.5006320 124.6510240 103.8387950 139.9694680
 124.5704290 102.9242560 139.6986390 124.2374660 104.3355020 139.2634390
 122.7828280 105.6166970 141.8503950 122.0070380 105.1367410 142.1402520
 123.4341210 104.9372620 141.6760110 116.7994110 105.9286780 142.7279710
 115.9678990 105.6735490 143.1276220 117.4075090 105.9997550 143.4637630
 126.8035710 110.0227160 140.6303080 126.3417240 109.2514400 140.9590250
 127.6161260 110.0493230 141.1355530 116.7795370 109.9626870 142.9237730
 117.0823410 109.0724610 142.7447950 117.5238960 110.5197090 142.6959980
 115.2086060 100.8888670 136.5122100 114.3202760 101.2304640 136.4101980
 115.4927250 100.6888990 135.6202930 113.1719070 103.4894320 142.3961800
 113.7435180 102.7216520 142.3965440 113.1720610 103.7883080 141.4868410
 123.0299020 112.3085170 140.2507070 122.4110460 112.7642670 139.6801510
 123.8850800 112.4636630 139.8496770 122.2237270 108.2924160 141.8574110
 122.1545550 107.3514100 141.6963240 122.9857130 108.3825570 142.4296680
 114.4143940  98.8978680 144.1830730 114.2346780  98.0004430 144.4633490
 114.0124020  99.4450550 144.8577680 123.2542440 101.0994540 142.0843040
 123.6307260 100.2266420 141.9716710 123.1561950 101.4353240 141.1933480
 117.3847450  99.4720170 137.5460480 117.4914200 100.3723900 137.8529240
 116.4739810  99.4238140 137.2555130 127.0366560  98.5944980 139.0171380
 127.8576180  98.1041550 139.0596860 127.0700640  99.1842640 139.7703220
 115.0330610 101.3939180 142.7913070 115.7140720 101.6577550 143.4100470
 114.7178660 100.5540050 143.1251080 119.2255180 102.4406540 141.8785660
 119.7333400 102.9387510 142.5190680 119.7568420 101.6641740 141.7025020
 131.3266110 100.6111730 145.5815010 130.6218280 100.9993440 145.0630120
 131.5924030 101.3062020 146.1835940 117.5091280  97.0805100 146.1449080
 117.5109720  97.5977490 145.3394980 116.6795590  96.6035280 146.1219010
 123.8962370 107.1924410 137.6438980 123.2779640 107.6573860 137.0801700
 124.4085620 107.8851890 138.0608490 118.7594130 106.7200280 144.3222580
 118.4263510 107.3469200 144.9643650 118.9360810 107.2462160 143.5424250
 127.2728040 100.5345360 141.7898920 126.5683610 100.8230250 142.3702030
 127.6340200 101.3445470 141.4298480 117.1906610  98.7915060 144.1519530
 117.5323420  99.6357110 143.8573400 116.2522420  98.9398800 144.2684870
 117.9713230 108.6881080 146.1371760 118.5887230 109.3632160 145.8556210
 117.1106350 109.0969060 146.0459260 113.2645570 107.8780940 135.0178610
 112.8873550 108.3668040 134.2863510 113.5218640 108.5506220 135.6485140
 128.8890820 110.1520490 144.0526400 128.2054340 110.8219600 144.0443070
 129.4285110 110.3501140 143.2871260 130.3414960  99.9800150 142.1808130
 129.3939870 100.0139130 142.3123560 130.6664950 100.7939100 142.5657490
 120.8734500  96.2797330 140.4764120 121.1809480  95.7244220 139.7599620
 119.9435200  96.4141790 140.2937110 126.4249560 111.9964620 142.7671580
 126.4376720 111.5926910 141.8993840 125.8724780 112.7711910 142.6633010
 127.7194980 108.7180840 137.8561750 127.6091310 107.7755170 137.9811170
 127.7163230 109.0796480 138.7424510 125.8235000 106.8994460 144.0954190
 126.2403790 106.6854570 143.2607650 126.5474820 107.1567250 144.6662810
 123.2615260 104.3446160 137.2124240 122.3344540 104.2783540 137.4412710
 123.4140080 105.2826290 137.0979480 123.2484340 100.6163160 134.2091400
 122.3088010 100.7777120 134.2943860 123.5667600 101.3348840 133.6627390
 129.7697100 105.2981680 144.1870430 128.9415730 105.3674770 143.7120560
 130.3647580 105.8835990 143.7186260 127.2912550 105.9066460 137.7159490
 126.6724970 105.5686010 137.0685790 127.2737000 105.2626220 138.4238680
 126.7339110 102.0851000 145.1325300 126.3210290 102.9104710 145.3865290
 126.0015060 101.4996040 144.9401660 118.8671900 104.8710900 139.9943970
 118.4628900 104.1588150 139.4989870 118.9535020 104.5264140 140.8832010
 119.3353600 108.5578460 142.1583180 119.0381890 107.9523930 141.4790960
 120.2853420 108.5955770 142.0472540 117.5800520 101.6454110 143.7743010
 118.1315110 101.7549450 142.9996260 118.0944030 102.0191710 144.4898240
 127.4239210 112.1310330 145.8206280 126.9469770 112.9382520 145.6278890
 126.7401000 111.4788660 145.9732490 118.4272030 108.2960150 148.8090980
 117.5300560 108.5200120 149.0564380 118.4524900 108.4195090 147.8602380
 125.4677250 105.1453270 134.7232240 125.9070530 104.3075700 134.5770060
 126.1805670 105.7782670 134.8096380 117.2543250 105.1673470 147.3848350
 117.1151020 106.0396270 147.7535750 116.3724610 104.8246280 147.2396290
 123.5772630 110.0849340 138.6913480 124.0168540 110.8273670 138.2768870
 123.5159520 110.3275910 139.6152440 119.0523600 111.1095170 149.5933500
 119.0239030 111.5138120 148.7261930 118.8888570 110.1805530 149.4305100
 129.0494390  96.3996080 133.0373280 128.7367050  96.4922910 133.9372350
 129.8106860  96.9777110 132.9870710 115.5676530 103.7655880 137.4950620
 115.4474130 104.4917970 136.8831890 115.2577420 102.9958790 137.0178530
 113.2061900 106.9371020 143.3019260 113.2842320 107.0719790 142.3574980
 113.8203580 106.2286910 143.4947380 114.4509530 108.6371210 139.7125440
 114.0437610 108.7785800 138.8579040 115.3422540 108.3531370 139.5096650
 130.4071670 109.0835120 148.0497680 130.5334730 108.8447000 147.1314860
 130.4493050 108.2519660 148.5219760 124.2688410 112.7863120 146.6192490
 124.7833080 112.6971130 147.4214920 123.4257490 113.1322820 146.9120400
 126.2442810 113.0718460 136.0476490 126.0843950 112.7821400 136.9458320
 126.0789520 112.2958590 135.5121720 118.7231190 112.8516990 137.8248110
 118.5473670 111.9352530 137.6115910 117.8686930 113.2104280 138.0645910
 125.9468940 110.5806020 134.6074490 125.2534100 110.5783310 133.9476770
 126.6891800 110.1565340 134.1768660 125.5118870 112.2068730 138.6822980
 125.9675820 111.4258110 138.9961600 125.8511390 112.9175550 139.2264160
 130.2595680 101.1367580 149.0147420 129.6439950 101.6447250 148.4862880
 129.9392100 100.2365910 148.9573360 113.2621420 107.9785190 145.8413720
 113.4252460 107.5090550 145.0233090 113.7273870 107.4708750 146.5062560
 118.0340190  97.1090950 140.8774290 117.5908340  97.8900490 140.5458810
 118.5925180  97.4320840 141.5845230 122.3210000  99.9759470 146.4809610
 121.8589370 100.1842490 147.2929550 121.9188110  99.1618820 146.1780280
 127.3214510 101.1968420 147.6106270 126.4708100 100.8974170 147.9315340
 127.1616300 101.4410430 146.6990090 124.4164220 102.6970170 149.7105060
 124.7417630 101.8633920 149.3707290 125.2044550 103.2198690 149.8583390
 121.1499010  96.7301650 135.7580120 120.5253190  96.7261520 136.4833430
 121.0629130  95.8632610 135.3616090 120.0716090  97.6538280 142.7363890
 120.3688420  98.5601110 142.6555910 120.6201650  97.1657060 142.1223460
 117.8254410 102.2324520 138.6055540 117.5995330 102.0161690 139.5102160
 117.0446940 102.6652980 138.2601510 125.0552170 102.2387890 137.2046190
 124.4561060 102.9623690 137.0209810 125.6031780 102.1764670 136.4222640
 120.2653620 103.1310100 149.2715810 120.1697220 102.1904830 149.1216210
 121.1085600 103.3525170 148.8763880 123.6617040 100.8751430 139.2349470
 124.0546610 101.1923630 138.4218160 124.0233890  99.9963310 139.3493990
 115.3964160  99.5423770 147.4249590 115.0027550 100.3898980 147.6322370
 114.7082560  98.9050140 147.6158230 112.6981210  97.4652230 141.4579670
 112.4094260  98.0355090 142.1704650 113.4426970  96.9856680 141.8210900
 112.8851440 101.4072350 132.6682390 112.8026110 102.3503110 132.8097380
 112.5334500 101.2647260 131.7894740 124.2472180 103.4657180 143.3300250
 123.5153300 103.9743990 143.6790350 123.8496520 102.6487160 143.0289030
 120.6849570 100.1411380 141.7352740 120.6885630  99.7001330 140.8857280
 121.5800690 100.4628710 141.8424560 116.5351950 100.0237870 140.6946950
 116.1952000 100.5013100 141.4514000 115.7729270  99.5702990 140.3348050
 120.7469720 101.1423460 134.7259500 120.8682540 101.1009940 135.6745320
 120.3618230 102.0047610 134.5706230 124.7098090  98.9190860 142.7423190
 124.7270830  99.3699510 143.5865040 124.4613670  98.0196500 142.9556630
 119.7591220 103.4524600 134.1242800 119.1908120 103.0042850 133.4978710
 120.4680220 103.8117380 133.5907950 128.1368840  96.3323040 148.5809570
 128.4614610  95.6012700 149.1067550 128.1725350  96.0136680 147.6790560
 114.8360400 107.3536620 148.0009530 114.4515190 106.7130290 148.5992490
 115.1472590 108.0572740 148.5704260 120.9857540 104.2013160 143.4818150
 121.3527670 103.7271730 144.2279490 120.7962600 105.0754730 143.8226490
 113.8498030  98.9456850 139.6111620 113.5644950  98.5812520 140.4490240
 113.7876890  98.2137310 138.9974760 118.7756910 103.2421800 145.8002360
 118.4713980 104.1213780 146.0252720 119.7303370 103.3021590 145.8359800
 117.3038700 107.4482790 136.3969210 116.5300960 106.9080410 136.2367930
 118.0333330 106.9289400 136.0586970 128.0626680 106.4448150 142.1895600
 128.7825800 106.9403440 141.7991710 127.8608500 105.7666040 141.5449470
 123.5236620  97.8386110 136.3324990 122.7101230  97.3399280 136.2570300
 123.3298570  98.6784360 135.9161340 123.4445480 106.5157210 148.0764600
 123.3782790 105.5952880 147.8222190 122.8150620 106.6132650 148.7909240
 126.2385010 102.2105760 134.6287150 127.1264630 102.5222990 134.4538490
 126.2090100 101.3378010 134.2367730 117.3476100 107.1163170 140.0348020
 117.8654770 106.3131430 139.9804910 116.8960120 107.0542310 140.8764850
 122.2345600 108.3829450 135.3075320 122.5761300 109.1271680 134.8118640
 121.4058310 108.6960570 135.6700150 114.8320640 104.0824540 146.9473720
 114.4735580 104.7478390 147.5347060 114.5375200 103.2508090 147.3186340
 118.0333760 104.5408780 149.8313270 117.7333900 104.6865960 148.9341090
 118.8045000 103.9814070 149.7386660 123.3762210 109.3377780 147.8268400
 123.3906750 108.4058740 147.6087310 122.6687310 109.4237540 148.4658170
 128.5099280 103.5217600 134.0967010 128.4263000 103.9531820 133.2463450
 129.2293470 103.9815950 134.5293830 129.5873420 105.9785120 147.1736980
 128.8621610 106.5713900 146.9766370 130.1148880 105.9708660 146.3750350
 129.5386530 110.3759860 136.8249140 128.8962690 109.7215480 137.0992860
 129.1517190 110.7814950 136.0489810 125.1173010 107.7045290 140.6720830
 125.4696830 107.1073420 140.0122200 124.2335340 107.3789520 140.8429080
 121.2036290 108.4642980 138.0791240 121.8907420 109.0112190 138.4598830
 120.4168710 109.0083710 138.1140850 113.3428690 104.0815800 133.5708320
 114.2123540 104.3640600 133.8544240 112.8519010 104.8951670 133.4557130
 120.5063500 105.4689010 137.6916600 120.9626280 106.2794260 137.9176790
 120.1551710 105.1512150 138.5235090 122.8096110 110.9795350 144.9208900
 123.4538330 111.1854730 145.5982320 123.1725550 110.2183750 144.4679750
 116.4075280  95.8126660 138.1639120 116.2789910  95.8044560 139.1124040
 115.5837300  96.1509750 137.8130130 124.0828190 108.9827700 143.6386350
 124.7250420 108.2820860 143.7518520 124.6077540 109.7626140 143.4583240
 127.9283910 109.2676320 133.3625490 127.7021490 108.5506760 133.9550130
 127.5380110 109.0188760 132.5247240 125.8565810 109.7822600 146.8422410
 126.1922050 110.3689290 147.5200330 124.9366150 109.6515310 147.0720200
 113.7099940 113.2943180 134.1369950 114.0697580 113.8932520 133.4827220
 113.5692280 113.8403070 134.9104980 113.4069210  97.5717780 147.6245820
 112.6927730  97.7714700 148.2298430 113.8264250  96.7957350 147.9960620
 127.5100160 107.1848260 135.0239650 127.2221860 107.6460950 135.8117530
 128.3052330 106.7246030 135.2923870 113.6941800 111.5598040 148.6112350
 113.8032920 110.6192780 148.4707740 113.0422360 111.8252790 147.9626080
 119.7268560 110.6774380 134.9543620 119.7178660 111.4104070 134.3388130
 118.8066920 110.4305960 135.0470580 115.3275200 105.8989270 135.6990380
 114.7203150 106.6388170 135.7085680 115.8024550 105.9888630 134.8728580
 124.9007990 100.0640090 145.3747270 125.2688810  99.2435300 145.7026840
 124.0406190 100.1241980 145.7902920 128.2670020  99.0197030 136.1834830
 127.6383180  99.1242700 135.4693060 127.7721940  99.2393810 136.9728710
 122.7128160 110.7402620 133.6168810 122.8140140 110.5366610 132.6870790
 121.8129900 110.4860900 133.8216590 120.2354050 101.2982980 137.5992710
 119.5270200 101.7669320 138.0406320 120.5198530 100.6404990 138.2337900
 121.8609980 102.7179680 145.5985240 122.3595230 103.1925500 146.2637090
 122.0032930 101.7943200 145.8055270 124.2669480  98.0233640 139.0388500
 124.1437260  98.0419770 138.0898010 125.2154040  98.0712580 139.1586900
 121.3546270 113.2588940 138.3116480 121.6087770 113.2210330 137.3895850
 120.4058750 113.1322270 138.3044730 118.4389070  99.6068060 134.9743420
 119.2879600 100.0438210 134.9083610 118.0720340  99.9188320 135.8015480
 129.0676840  98.9347640 146.4413630 128.5650440  99.6753040 146.7807440
 129.8833500  99.3231640 146.1250420 127.3598850 104.1780820 139.8874990
 126.4188990 104.1931050 140.0622680 127.6742920 103.3916780 140.3335290
 117.3380490 105.8600420 133.4478950 118.1043760 105.7481780 134.0104380
 117.4155180 105.1638390 132.7955720 116.0327250 103.2925490 134.1311840
 116.1130840 102.3453000 134.2429240 116.9247000 103.6232370 134.2372500
 129.3624430 111.3489670 141.5629250 129.4871850 112.1720840 142.0353060
 130.2289990 111.1380400 141.2153400 116.8341960 113.4420880 141.2346380
 117.5704440 112.8936340 141.5054950 117.2182880 114.3076890 141.0952370
 113.7187440 109.5094450 137.1087890 112.7927220 109.7515590 137.0993300
 114.1843870 110.3368710 136.9872640 119.9444270 112.6151190 133.0571950
 120.7372880 112.9040020 132.6053740 119.4248620 112.1843360 132.3784430
 126.1065240 112.4627110 148.9816780 127.0586990 112.3785130 148.9317020
 125.9593460 113.1268820 149.6550570 128.9974440 111.8421320 134.4808690
 128.7115950 111.4286460 133.6662870 128.7993990 112.7709030 134.3609210
 113.5598050 105.1140410 149.3668010 114.0637070 104.5347690 149.9384240
 112.8205470 105.3980640 149.9044380 120.4621670 107.8354600 132.9214300
 120.3572310 107.2206950 133.6475680 120.2945890 107.3120490 132.1377310
 120.6135990 106.5211400 148.9003530 119.8481660 107.0896400 148.8158200
 120.7951950 106.2287610 148.0071760 123.7024400 106.8974630 133.5256290
 123.1534500 107.3443930 134.1699030 124.3243660 106.3923880 134.0493960
 127.7559340 108.2516730 149.4578550 128.4968810 108.5892490 148.9546010
 126.9932020 108.4208790 148.9048320 119.3699520 105.8565550 135.4221590
 119.7915940 105.6905420 136.2652980 119.4950360 105.0465780 134.9276730
 117.5326940 101.8362100 148.2292570 117.0023400 101.3453050 147.6015910
 118.2015010 102.2646300 147.6950500 121.8827160 104.8803160 132.6698690
 122.4032820 104.1652180 132.3039840 122.5295560 105.5189030 132.9699200
 126.4305000 106.3031560 147.9933760 126.8446020 106.4576640 148.8424180
 125.4956000 106.4286780 148.1559540 126.9027170 103.6427720 149.9972910
 127.4847940 102.8880040 149.9093390 127.0788940 104.1735160 149.2204390
 118.0199240  98.8024470 148.3089860 117.9256110  98.1845220 147.5840730
 117.4396630  99.5290760 148.0819770 120.7860680  97.3597710 145.3417250
 120.3377980  97.3821970 144.4962800 120.1525880  96.9616730 145.9387550
 121.1920230 106.2552040 145.9629690 121.6108340 107.0984770 145.7905930
 120.2728860 106.3924080 145.7336470 123.5284130 103.9868220 147.3467530
 123.6480340 103.3909360 148.0862370 124.3878130 104.0237910 146.9268830
 125.8672030 104.5405410 145.9230040 125.3407250 105.0648030 145.3195180
 126.2103370 105.1732800 146.5539770 118.2658420 101.9298780 132.3679750
 118.0647480 101.0666140 132.7293090 118.0950470 101.8432140 131.4301350
 119.0427650 112.5605050 147.0787420 118.5048740 113.2851110 146.7596120
 119.2961610 112.0835390 146.2884760 120.2952900 100.5289570 148.6043350
 120.8852590 100.2205420 149.2921170 119.4773140 100.0569320 148.7603250
 125.1146330 100.1455380 148.8376370 124.4261850  99.4836920 148.7726360
 125.8352350  99.6993650 149.2824830 125.7446730  96.7407010 134.8966630
 126.0249020  95.8974910 135.2526050 124.9712460  96.9730120 135.4105380
 117.0641220  99.0299400 132.3557630 117.3667120  99.0366830 131.4476780
 117.8035810  98.6797260 132.8525290 121.8989860 113.7956260 147.3374070
 121.8248560 114.6991400 147.6446440 120.9968700 113.4768160 147.3096140
 120.2826150  97.9734020 133.3413830 119.9348150  97.2958010 132.7616280
 120.4838920  97.5123530 134.1557220 122.4475190 112.9614770 134.9600430
 123.3425980 113.2999740 134.9819190 122.4792820 112.2394180 134.3324710
 116.0871350 108.3341820 133.1887430 116.5246220 108.8771490 133.8445010
 116.5719080 107.5088770 133.1983770 113.3017150 111.1230850 140.6407690
 113.6320160 110.2551910 140.4086330 113.7308150 111.3289370 141.4712650
 117.8979070 109.4539860 138.3009660 117.5974610 109.3304830 139.2013570
 117.7916560 108.5948450 137.8925390 113.7907360 111.9901440 143.3789320
 113.3538350 112.1702240 144.2113470 114.3585040 112.7476060 143.2371040
 129.4269540 111.4918440 147.6666630 128.8271530 111.5511000 146.9230550
 129.5563440 110.5523420 147.7963480 130.6670990 109.2336260 133.0036340
 129.8363950 109.3012910 133.4743570 130.8442820 110.1240380 132.7003200
 130.1227450 105.9783740 135.5070540 130.8846360 106.5480390 135.6130230
 130.1381820 105.4110940 136.2778850 113.6231790 104.5021670 139.7378200
 112.9680630 104.2333310 139.0937900 114.4609740 104.3926150 139.2880180
 131.1287420 106.8333840 140.3512470 131.4996250 106.0501160 139.9448440
 131.7689350 107.5222940 140.1729770 128.1121180 108.2170420 145.7642790
 127.2981020 108.6467580 146.0268580 128.5195380 108.8288830 145.1511840
 130.1746620 106.2718110 132.6643060 130.4495460 107.1796990 132.5362280
 129.9857360 106.2080640 133.6005050 126.5722230  99.2962960 133.9596690
 126.9907110  99.1093940 133.1193350 126.2658290  98.4442010 134.2699620
 130.0711960 104.2087100 137.6572490 129.6955560 103.4415030 137.2253780
 129.3415080 104.5909800 138.1447420 114.6607720 104.8874240 144.2781540
 115.0280760 104.8001640 145.1577560 114.0918540 104.1240790 144.1788400
 129.4611580 103.3558620 147.2912010 129.2297670 103.1271370 146.3909960
 129.7216130 104.2758170 147.2456900 114.2123720 101.7983330 148.1839960
 113.3179770 101.7650090 148.5233670 114.7521270 101.9970120 148.9491210
 112.8369870 101.7120600 135.6803530 111.9333950 101.9750800 135.5055190
 113.3210490 101.9831770 134.9003490 129.3462920 102.4344590 140.9579730
 129.8700400 101.9407240 140.3269900 129.9322340 102.5694950 141.7027300
 129.5252640 102.5184460 144.4799280 128.5755350 102.4848000 144.5944270
 129.7065650 103.4284570 144.2449050 115.3797080 100.7686140 133.5897910
 116.0888780 100.3469360 133.1045190 114.6637020 100.8361370 132.9581260
 115.0271240  96.8225470 132.6300560 115.7499370  97.3634410 132.9481780
 115.2995760  96.5488890 131.7542100 128.8362890 101.6917940 136.8972140
 129.3322010 101.4588810 137.6821020 128.6378960 100.8529780 136.4809780
 114.7163430  96.0731660 142.5323180 115.3639620  95.5229040 142.0918340
 115.1365270  96.3274810 143.3538990 130.2650050 100.3278890 139.4309820
 130.1549330 100.1734930 140.3692090 131.0257640  99.7999830 139.1885230
 128.6115770  96.2673020 145.8892820 129.2487990  96.8807160 146.2552010
 128.7590660  96.3033680 144.9442050 131.1540320  98.1586810 132.6715960
 132.0789630  98.0267990 132.4634250 131.1316110  98.2379630 133.6252410
 131.2278810  98.9297470 135.2972670 130.4330310  98.8642590 135.8265580
 131.4322090  99.8648110 135.2858020 128.1697230 112.9689020 139.2911060
 128.7656300 112.6473590 138.6145480 128.4275380 112.4960840 140.0824330
 114.4695430  96.2287330 145.2748500 114.1210250  96.6851150 146.0406680
 114.1383130  95.3344460 145.3570930 119.7765830 110.9566520 145.0411410
 119.5357190 111.2241080 144.1541930 120.7168470 111.1272250 145.0962270
 121.9820250  97.4199210 148.7967920 121.9209140  98.0121040 149.5463330
 122.9220630  97.3125170 148.6518180 124.6194810  97.0769270 148.4360210
 125.2335220  97.3948560 147.7741290 125.1644370  96.5917860 149.0556070
 131.0369990 112.9760900 145.8422050 130.5428270 113.3729770 145.1249180
 130.4283280 112.3510110 146.2359330 115.1416070  95.7563530 148.5499270
 115.6899060  95.5751580 147.7865380 115.2071380  94.9657640 149.0855580
 115.9147830 112.3469180 146.5599470 115.3208150 112.2153880 147.2989510
 115.9071670 111.5107320 146.0941570 125.3602850  95.6401410 144.7629500
 124.4862690  95.9736520 144.5602430 125.2513600  95.1674590 145.5881370
 126.2674830  97.8472280 146.1471220 125.9388190  97.0324040 145.7672950
 127.2157130  97.8042090 146.0236910 128.7209440 113.6184320 143.1208790
 128.2612410 114.3700130 142.7466810 128.0921900 112.8990790 143.0623590
 115.5460060 109.7127560 145.5107510 114.8194120 109.0932850 145.4433460
 115.6069210 110.1068170 144.6405590 119.1505160 111.9272560 142.2956920
 119.6670180 111.3159920 141.7705180 119.8002540 112.4301340 142.7867930
 121.8900660 112.8181050 143.1225900 122.1778470 112.5635350 142.2458910
 122.4023880 112.2658410 143.7131470 123.1077670  96.5571250 143.7022410
 122.3249460  97.0316750 143.9819170 122.8140600  95.6526080 143.5935590
 127.6598740  97.2594350 141.7471500 128.1006830  97.2039450 140.8993100
 127.3906330  98.1752360 141.8181680 129.5237310  96.8909590 139.7580320
 129.4625710  95.9470810 139.6111340 130.3029340  96.9989680 140.3033780
 113.8290060 113.0301950 138.7204270 113.6612100 112.3972630 139.4186160
 112.9624570 113.2361350 138.3698460 114.4518080  96.8618730 136.2236130
 115.2097440  96.9747610 135.6500160 113.9895250  97.6987930 136.1779560
 120.9931890  98.9758000 139.2138440 120.1806400  98.6014890 138.8734320
 121.4973530  98.2203080 139.5159630 125.4956870  95.6400450 140.4521510
 126.0986240  96.2120660 140.9270030 124.7549860  96.2039890 140.2295410
 128.6391470  96.0422010 135.7261790 128.8342100  96.9405460 135.9929220
 127.8521340  95.8109090 136.2194740 115.4352760 111.7235180 136.1654410
 114.9100380 112.1043210 135.4616370 115.3597340 112.3485950 136.8864120
 116.8243230  97.3882780 134.7638100 117.3535990  96.6012580 134.6346050
 117.4571550  98.0673970 134.9973630 119.0181070  97.1257920 137.8183490
 118.3883810  96.4245230 137.9853620 118.4786210  97.8862050 137.6016650
 130.1918080 113.2822720 137.4868350 130.3670270 112.5960460 136.8429270
 129.4939650 113.8069770 137.0945020 118.0345730 113.6717560 135.0403660
 118.7664550 113.3876840 134.4927550 118.2939400 113.4330840 135.9303040
 117.1960520 109.7882290 135.0449990 116.5669400 110.2567390 135.5935820
 117.3108350 108.9431510 135.4796180 124.6510240 103.8387950 121.1951190
 124.5704290 102.9242560 120.9242900 124.2374660 104.3355020 120.4890900
 122.7828280 105.6166970 123.0760460 122.0070380 105.1367410 123.3659030
 123.4341210 104.9372620 122.9016620 116.7994110 105.9286780 123.9536220
 115.9678990 105.6735490 124.3532730 117.4075090 105.9997550 124.6894140
 126.8035710 110.0227160 121.8559590 126.3417240 109.2514400 122.1846760
 127.6161260 110.0493230 122.3612040 116.7795370 109.9626870 124.1494240
 117.0823410 109.0724610 123.9704460 117.5238960 110.5197090 123.9216490
 115.2086060 100.8888670 117.7378610 114.3202760 101.2304640 117.6358490
 115.4927250 100.6888990 116.8459440 113.1719070 103.4894320 123.6218310
 113.7435180 102.7216520 123.6221950 113.1720610 103.7883080 122.7124920
 123.0299020 112.3085170 121.4763580 122.4110460 112.7642670 120.9058020
 123.8850800 112.4636630 121.0753280 122.2237270 108.2924160 123.0830620
 122.1545550 107.3514100 122.9219750 122.9857130 108.3825570 123.6553190
 114.4143940  98.8978680 125.4087240 114.2346780  98.0004430 125.6890000
 114.0124020  99.4450550 126.0834190 123.2542440 101.0994540 123.3099550
 123.6307260 100.2266420 123.1973220 123.1561950 101.4353240 122.4189990
 117.3847450  99.4720170 118.7716990 117.4914200 100.3723900 119.0785750
 116.4739810  99.4238140 118.4811640 127.0366560  98.5944980 120.2427890
 127.8576180  98.1041550 120.2853370 127.0700640  99.1842640 120.9959730
 115.0330610 101.3939180 124.0169580 115.7140720 101.6577550 124.6356980
 114.7178660 100.5540050 124.3507590 119.2255180 102.4406540 123.1042170
 119.7333400 102.9387510 123.7447190 119.7568420 101.6641740 122.9281530
 131.3266110 100.6111730 126.8071520 130.6218280 100.9993440 126.2886630
 131.5924030 101.3062020 127.4092450 117.5091280  97.0805100 127.3705590
 117.5109720  97.5977490 126.5651490 116.6795590  96.6035280 127.3475520
 123.8962370 107.1924410 118.8695490 123.2779640 107.6573860 118.3058210
 124.4085620 107.8851890 119.2865000 118.7594130 106.7200280 125.5479090
 118.4263510 107.3469200 126.1900160 118.9360810 107.2462160 124.7680760
 127.2728040 100.5345360 123.0155430 126.5683610 100.8230250 123.5958540
 127.6340200 101.3445470 122.6554990 117.1906610  98.7915060 125.3776040
 117.5323420  99.6357110 125.0829910 116.2522420  98.9398800 125.4941380
 117.9713230 108.6881080 127.3628270 118.5887230 109.3632160 127.0812720
 117.1106350 109.0969060 127.2715770 113.2645570 107.8780940 116.2435120
 112.8873550 108.3668040 115.5120020 113.5218640 108.5506220 116.8741650
 128.8890820 110.1520490 125.2782910 128.2054340 110.8219600 125.2699580
 129.4285110 110.3501140 124.5127770 130.3414960  99.9800150 123.4064640
 129.3939870 100.0139130 123.5380070 130.6664950 100.7939100 123.7914000
 120.8734500  96.2797330 121.7020630 121.1809480  95.7244220 120.9856130
 119.9435200  96.4141790 121.5193620 126.4249560 111.9964620 123.9928090
 126.4376720 111.5926910 123.1250350 125.8724780 112.7711910 123.8889520
 127.7194980 108.7180840 119.0818260 127.6091310 107.7755170 119.2067680
 127.7163230 109.0796480 119.9681020 125.8235000 106.8994460 125.3210700
 126.2403790 106.6854570 124.4864160 126.5474820 107.1567250 125.8919320
 123.2615260 104.3446160 118.4380750 122.3344540 104.2783540 118.6669220
 123.4140080 105.2826290 118.3235990 123.2484340 100.6163160 115.4347910
 122.3088010 100.7777120 115.5200370 123.5667600 101.3348840 114.8883900
 129.7697100 105.2981680 125.4126940 128.9415730 105.3674770 124.9377070
 130.3647580 105.8835990 124.9442770 127.2912550 105.9066460 118.9416000
 126.6724970 105.5686010 118.2942300 127.2737000 105.2626220 119.6495190
 126.7339110 102.0851000 126.3581810 126.3210290 102.9104710 126.6121800
 126.0015060 101.4996040 126.1658170 118.8671900 104.8710900 121.2200480
 118.4628900 104.1588150 120.7246380 118.9535020 104.5264140 122.1088520
 119.3353600 108.5578460 123.3839690 119.0381890 107.9523930 122.7047470
 120.2853420 108.5955770 123.2729050 117.5800520 101.6454110 124.9999520
 118.1315110 101.7549450 124.2252770 118.0944030 102.0191710 125.7154750
 127.4239210 112.1310330 127.0462790 126.9469770 112.9382520 126.8535400
 126.7401000 111.4788660 127.1989000 118.4272030 108.2960150 130.0347490
 117.5300560 108.5200120 130.2820890 118.4524900 108.4195090 129.0858890
 125.4677250 105.1453270 115.9488750 125.9070530 104.3075700 115.8026570
 126.1805670 105.7782670 116.0352890 117.2543250 105.1673470 128.6104860
 117.1151020 106.0396270 128.9792260 116.3724610 104.8246280 128.4652800
 123.5772630 110.0849340 119.9169990 124.0168540 110.8273670 119.5025380
 123.5159520 110.3275910 120.8408950 119.0523600 111.1095170 130.8190010
 119.0239030 111.5138120 129.9518440 118.8888570 110.1805530 130.6561610
 129.0494390  96.3996080 114.2629790 128.7367050  96.4922910 115.1628860
 129.8106860  96.9777110 114.2127220 115.5676530 103.7655880 118.7207130
 115.4474130 104.4917970 118.1088400 115.2577420 102.9958790 118.2435040
 131.0038420 111.8922270 132.1154180 131.4798140 112.3705160 132.7943260
 131.6245580 111.8239760 131.3899680 113.2061900 106.9371020 124.5275770
 113.2842320 107.0719790 123.5831490 113.8203580 106.2286910 124.7203890
 114.4509530 108.6371210 120.9381950 114.0437610 108.7785800 120.0835550
 115.3422540 108.3531370 120.7353160 130.4071670 109.0835120 129.2754190
 130.5334730 108.8447000 128.3571370 130.4493050 108.2519660 129.7476270
 124.2688410 112.7863120 127.8449000 124.7833080 112.6971130 128.6471430
 123.4257490 113.1322820 128.1376910 126.2442810 113.0718460 117.2733000
 126.0843950 112.7821400 118.1714830 126.0789520 112.2958590 116.7378230
 118.7231190 112.8516990 119.0504620 118.5473670 111.9352530 118.8372420
 117.8686930 113.2104280 119.2902420 125.9468940 110.5806020 115.8331000
 125.2534100 110.5783310 115.1733280 126.6891800 110.1565340 115.4025170
 125.5118870 112.2068730 119.9079490 125.9675820 111.4258110 120.2218110
 125.8511390 112.9175550 120.4520670 130.2595680 101.1367580 130.2403930
 129.6439950 101.6447250 129.7119390 129.9392100 100.2365910 130.1829870
 113.2621420 107.9785190 127.0670230 113.4252460 107.5090550 126.2489600
 113.7273870 107.4708750 127.7319070 118.0340190  97.1090950 122.1030800
 117.5908340  97.8900490 121.7715320 118.5925180  97.4320840 122.8101740
 122.3210000  99.9759470 127.7066120 121.8589370 100.1842490 128.5186060
 121.9188110  99.1618820 127.4036790 127.3214510 101.1968420 128.8362780
 126.4708100 100.8974170 129.1571850 127.1616300 101.4410430 127.9246600
 124.4164220 102.6970170 130.9361570 124.7417630 101.8633920 130.5963800
 125.2044550 103.2198690 131.0839900 121.1499010  96.7301650 116.9836630
 120.5253190  96.7261520 117.7089940 121.0629130  95.8632610 116.5872600
 120.0716090  97.6538280 123.9620400 120.3688420  98.5601110 123.8812420
 120.6201650  97.1657060 123.3479970 117.8254410 102.2324520 119.8312050
 117.5995330 102.0161690 120.7358670 117.0446940 102.6652980 119.4858020
 125.0552170 102.2387890 118.4302700 124.4561060 102.9623690 118.2466320
 125.6031780 102.1764670 117.6479150 120.2653620 103.1310100 130.4972320
 120.1697220 102.1904830 130.3472720 121.1085600 103.3525170 130.1020390
 123.6617040 100.8751430 120.4605980 124.0546610 101.1923630 119.6474670
 124.0233890  99.9963310 120.5750500 115.3964160  99.5423770 128.6506100
 115.0027550 100.3898980 128.8578880 114.7082560  98.9050140 128.8414740
 121.9709210  99.6258740 131.7202840 121.2807530  99.4330940 132.3548930
 122.7141510  99.9093380 132.2527140 112.6981210  97.4652230 122.6836180
 112.4094260  98.0355090 123.3961160 113.4426970  96.9856680 123.0467410
 112.8851440 101.4072350 113.8938900 112.8026110 102.3503110 114.0353890
 112.5334500 101.2647260 113.0151250 124.2472180 103.4657180 124.5556760
 123.5153300 103.9743990 124.9046860 123.8496520 102.6487160 124.2545540
 120.6849570 100.1411380 122.9609250 120.6885630  99.7001330 122.1113790
 121.5800690 100.4628710 123.0681070 116.5351950 100.0237870 121.9203460
 116.1952000 100.5013100 122.6770510 115.7729270  99.5702990 121.5604560
 120.7469720 101.1423460 115.9516010 120.8682540 101.1009940 116.9001830
 120.3618230 102.0047610 115.7962740 124.7098090  98.9190860 123.9679700
 124.7270830  99.3699510 124.8121550 124.4613670  98.0196500 124.1813140
 119.7591220 103.4524600 115.3499310 119.1908120 103.0042850 114.7235220
 120.4680220 103.8117380 114.8164460 128.1368840  96.3323040 129.8066080
 128.4614610  95.6012700 130.3324060 128.1725350  96.0136680 128.9047070
 114.8360400 107.3536620 129.2266040 114.4515190 106.7130290 129.8249000
 115.1472590 108.0572740 129.7960770 120.9857540 104.2013160 124.7074660
 121.3527670 103.7271730 125.4536000 120.7962600 105.0754730 125.0483000
 113.8498030  98.9456850 120.8368130 113.5644950  98.5812520 121.6746750
 113.7876890  98.2137310 120.2231270 118.7756910 103.2421800 127.0258870
 118.4713980 104.1213780 127.2509230 119.7303370 103.3021590 127.0616310
 117.3038700 107.4482790 117.6225720 116.5300960 106.9080410 117.4624440
 118.0333330 106.9289400 117.2843480 128.0626680 106.4448150 123.4152110
 128.7825800 106.9403440 123.0248220 127.8608500 105.7666040 122.7705980
 123.5236620  97.8386110 117.5581500 122.7101230  97.3399280 117.4826810
 123.3298570  98.6784360 117.1417850 123.4445480 106.5157210 129.3021110
 123.3782790 105.5952880 129.0478700 122.8150620 106.6132650 130.0165750
 126.2385010 102.2105760 115.8543660 127.1264630 102.5222990 115.6795000
 126.2090100 101.3378010 115.4624240 117.3476100 107.1163170 121.2604530
 117.8654770 106.3131430 121.2061420 116.8960120 107.0542310 122.1021360
 122.2345600 108.3829450 116.5331830 122.5761300 109.1271680 116.0375150
 121.4058310 108.6960570 116.8956660 114.8320640 104.0824540 128.1730230
 114.4735580 104.7478390 128.7603570 114.5375200 103.2508090 128.5442850
 118.0333760 104.5408780 131.0569780 117.7333900 104.6865960 130.1597600
 118.8045000 103.9814070 130.9643170 123.3762210 109.3377780 129.0524910
 123.3906750 108.4058740 128.8343820 122.6687310 109.4237540 129.6914680
 128.5099280 103.5217600 115.3223520 128.4263000 103.9531820 114.4719960
 129.2293470 103.9815950 115.7550340 129.5873420 105.9785120 128.3993490
 128.8621610 106.5713900 128.2022880 130.1148880 105.9708660 127.6006860
 129.5386530 110.3759860 118.0505650 128.8962690 109.7215480 118.3249370
 129.1517190 110.7814950 117.2746320 125.1173010 107.7045290 121.8977340
 125.4696830 107.1073420 121.2378710 124.2335340 107.3789520 122.0685590
 121.2036290 108.4642980 119.3047750 121.8907420 109.0112190 119.6855340
 120.4168710 109.0083710 119.3397360 113.3428690 104.0815800 114.7964830
 114.2123540 104.3640600 115.0800750 112.8519010 104.8951670 114.6813640
 120.5063500 105.4689010 118.9173110 120.9626280 106.2794260 119.1433300
 120.1551710 105.1512150 119.7491600 122.8096110 110.9795350 126.1465410
 123.4538330 111.1854730 126.8238830 123.1725550 110.2183750 125.6936260
 116.4075280  95.8126660 119.3895630 116.2789910  95.8044560 120.3380550
 115.5837300  96.1509750 119.0386640 124.0828190 108.9827700 124.8642860
 124.7250420 108.2820860 124.9775030 124.6077540 109.7626140 124.6839750
 127.9283910 109.2676320 114.5882000 127.7021490 108.5506760 115.1806640
 127.5380110 109.0188760 113.7503750 125.8565810 109.7822600 128.0678920
 126.1922050 110.3689290 128.7456840 124.9366150 109.6515310 128.2976710
 113.7099940 113.2943180 115.3626460 114.0697580 113.8932520 114.7083730
 113.5692280 113.8403070 116.1361490 113.4069210  97.5717780 128.8502330
 112.6927730  97.7714700 129.4554940 113.8264250  96.7957350 129.2217130
 127.5100160 107.1848260 116.2496160 127.2221860 107.6460950 117.0374040
 128.3052330 106.7246030 116.5180380 113.6941800 111.5598040 129.8368860
 113.8032920 110.6192780 129.6964250 113.0422360 111.8252790 129.1882590
 121.6854390 109.8313930 131.2366980 121.3651260 109.1123170 131.7812670
 121.0112750 110.5069000 131.3103040 119.7268560 110.6774380 116.1800130
 119.7178660 111.4104070 115.5644640 118.8066920 110.4305960 116.2727090
 115.3275200 105.8989270 116.9246890 114.7203150 106.6388170 116.9342190
 115.8024550 105.9888630 116.0985090 124.9007990 100.0640090 126.6003780
 125.2688810  99.2435300 126.9283350 124.0406190 100.1241980 127.0159430
 128.2670020  99.0197030 117.4091340 127.6383180  99.1242700 116.6949570
 127.7721940  99.2393810 118.1985220 122.7128160 110.7402620 114.8425320
 122.8140140 110.5366610 113.9127300 121.8129900 110.4860900 115.0473100
 120.2354050 101.2982980 118.8249220 119.5270200 101.7669320 119.2662830
 120.5198530 100.6404990 119.4594410 121.8609980 102.7179680 126.8241750
 122.3595230 103.1925500 127.4893600 122.0032930 101.7943200 127.0311780
 124.2669480  98.0233640 120.2645010 124.1437260  98.0419770 119.3154520
 125.2154040  98.0712580 120.3843410 121.3546270 113.2588940 119.5372990
 121.6087770 113.2210330 118.6152360 120.4058750 113.1322270 119.5301240
 118.4389070  99.6068060 116.1999930 119.2879600 100.0438210 116.1340120
 118.0720340  99.9188320 117.0271990 129.0676840  98.9347640 127.6670140
 128.5650440  99.6753040 128.0063950 129.8833500  99.3231640 127.3506930
 127.3598850 104.1780820 121.1131500 126.4188990 104.1931050 121.2879190
 127.6742920 103.3916780 121.5591800 117.3380490 105.8600420 114.6735460
 118.1043760 105.7481780 115.2360890 117.4155180 105.1638390 114.0212230
 116.0327250 103.2925490 115.3568350 116.1130840 102.3453000 115.4685750
 116.9247000 103.6232370 115.4629010 129.3624430 111.3489670 122.7885760
 129.4871850 112.1720840 123.2609570 130.2289990 111.1380400 122.4409910
 116.8341960 113.4420880 122.4602890 117.5704440 112.8936340 122.7311460
 117.2182880 114.3076890 122.3208880 113.7187440 109.5094450 118.3344400
 112.7927220 109.7515590 118.3249810 114.1843870 110.3368710 118.2129150
 115.8400240 112.6266950 131.6488470 116.6412970 112.9479000 132.0623870
 115.3252060 112.2662530 132.3708380 119.9444270 112.6151190 114.2828460
 120.7372880 112.9040020 113.8310250 119.4248620 112.1843360 113.6040940
 124.6764870 108.7346820 131.5963880 124.0703030 108.7578420 130.8559630
 124.3718980 108.0029860 132.1331130 126.1065240 112.4627110 130.2073290
 127.0586990 112.3785130 130.1573530 125.9593460 113.1268820 130.8807080
 128.9974440 111.8421320 115.7065200 128.7115950 111.4286460 114.8919380
 128.7993990 112.7709030 115.5865720 113.5598050 105.1140410 130.5924520
 114.0637070 104.5347690 131.1640750 112.8205470 105.3980640 131.1300890
 120.4621670 107.8354600 114.1470810 120.3572310 107.2206950 114.8732190
 120.2945890 107.3120490 113.3633820 120.6135990 106.5211400 130.1260040
 119.8481660 107.0896400 130.0414710 120.7951950 106.2287610 129.2328270
 123.7024400 106.8974630 114.7512800 123.1534500 107.3443930 115.3955540
 124.3243660 106.3923880 115.2750470 127.7559340 108.2516730 130.6835060
 128.4968810 108.5892490 130.1802520 126.9932020 108.4208790 130.1304830
 115.5921130 103.2570000 131.4874590 115.6326470 102.9583870 132.3959820
 116.4466630 103.6577610 131.3282110 119.3699520 105.8565550 116.6478100
 119.7915940 105.6905420 117.4909490 119.4950360 105.0465780 116.1533240
 117.5326940 101.8362100 129.4549080 117.0023400 101.3453050 128.8272420
 118.2015010 102.2646300 128.9207010 121.8827160 104.8803160 113.8955200
 122.4032820 104.1652180 113.5296350 122.5295560 105.5189030 114.1955710
 126.4305000 106.3031560 129.2190270 126.8446020 106.4576640 130.0680690
 125.4956000 106.4286780 129.3816050 126.9027170 103.6427720 131.2229420
 127.4847940 102.8880040 131.1349900 127.0788940 104.1735160 130.4460900
 118.0199240  98.8024470 129.5346370 117.9256110  98.1845220 128.8097240
 117.4396630  99.5290760 129.3076280 120.7860680  97.3597710 126.5673760
 120.3377980  97.3821970 125.7219310 120.1525880  96.9616730 127.1644060
 121.1920230 106.2552040 127.1886200 121.6108340 107.0984770 127.0162440
 120.2728860 106.3924080 126.9592980 123.5284130 103.9868220 128.5724040
 123.6480340 103.3909360 129.3118880 124.3878130 104.0237910 128.1525340
 125.8672030 104.5405410 127.1486550 125.3407250 105.0648030 126.5451690
 126.2103370 105.1732800 127.7796280 119.0427650 112.5605050 128.3043930
 118.5048740 113.2851110 127.9852630 119.2961610 112.0835390 127.5141270
 120.2952900 100.5289570 129.8299860 120.8852590 100.2205420 130.5177680
 119.4773140 100.0569320 129.9859760 125.1146330 100.1455380 130.0632880
 124.4261850  99.4836920 129.9982870 125.8352350  99.6993650 130.5081340
 125.7446730  96.7407010 116.1223140 126.0249020  95.8974910 116.4782560
 124.9712460  96.9730120 116.6361890 121.8989860 113.7956260 128.5630580
 121.8248560 114.6991400 128.8702950 120.9968700 113.4768160 128.5352650
 122.4475190 112.9614770 116.1856940 123.3425980 113.2999740 116.2075700
 122.4792820 112.2394180 115.5581220 116.0871350 108.3341820 114.4143940
 116.5246220 108.8771490 115.0701520 116.5719080 107.5088770 114.4240280
 113.3017150 111.1230850 121.8664200 113.6320160 110.2551910 121.6342840
 113.7308150 111.3289370 122.6969160 117.8979070 109.4539860 119.5266170
 117.5974610 109.3304830 120.4270080 117.7916560 108.5948450 119.1181900
 113.7907360 111.9901440 124.6045830 113.3538350 112.1702240 125.4369980
 114.3585040 112.7476060 124.4627550 129.4269540 111.4918440 128.8923140
 128.8271530 111.5511000 128.1487060 129.5563440 110.5523420 129.0219990
 130.6670990 109.2336260 114.2292850 129.8363950 109.3012910 114.7000080
 130.8442820 110.1240380 113.9259710 130.1227450 105.9783740 116.7327050
 130.8846360 106.5480390 116.8386740 130.1381820 105.4110940 117.5035360
 113.6231790 104.5021670 120.9634710 112.9680630 104.2333310 120.3194410
 114.4609740 104.3926150 120.5136690 131.1287420 106.8333840 121.5768980
 131.4996250 106.0501160 121.1704950 131.7689350 107.5222940 121.3986280
 128.1121180 108.2170420 126.9899300 127.2981020 108.6467580 127.2525090
 128.5195380 108.8288830 126.3768350 130.1746620 106.2718110 113.8899570
 130.4495460 107.1796990 113.7618790 129.9857360 106.2080640 114.8261560
 126.5722230  99.2962960 115.1853200 126.9907110  99.1093940 114.3449860
 126.2658290  98.4442010 115.4956130 130.0711960 104.2087100 118.8829000
 129.6955560 103.4415030 118.4510290 129.3415080 104.5909800 119.3703930
 114.6607720 104.8874240 125.5038050 115.0280760 104.8001640 126.3834070
 114.0918540 104.1240790 125.4044910 129.4611580 103.3558620 128.5168520
 129.2297670 103.1271370 127.6166470 129.7216130 104.2758170 128.4713410
 114.2123720 101.7983330 129.4096470 113.3179770 101.7650090 129.7490180
 114.7521270 101.9970120 130.1747720 127.8999650  98.5815050 131.2948220
 128.7769830  98.5898450 131.6782220 127.9120490  97.8445890 130.6840570
 112.8369870 101.7120600 116.9060040 111.9333950 101.9750800 116.7311700
 113.3210490 101.9831770 116.1260000 129.3462920 102.4344590 122.1836240
 129.8700400 101.9407240 121.5526410 129.9322340 102.5694950 122.9283810
 129.5252640 102.5184460 125.7055790 128.5755350 102.4848000 125.8200780
 129.7065650 103.4284570 125.4705560 115.3797080 100.7686140 114.8154420
 116.0888780 100.3469360 114.3301700 114.6637020 100.8361370 114.1837770
 115.0271240  96.8225470 113.8557070 115.7499370  97.3634410 114.1738290
 115.2995760  96.5488890 112.9798610 128.8362890 101.6917940 118.1228650
 129.3322010 101.4588810 118.9077530 128.6378960 100.8529780 117.7066290
 114.7163430  96.0731660 123.7579690 115.3639620  95.5229040 123.3174850
 115.1365270  96.3274810 124.5795500 130.2650050 100.3278890 120.6566330
 130.1549330 100.1734930 121.5948600 131.0257640  99.7999830 120.4141740
 128.6115770  96.2673020 127.1149330 129.2487990  96.8807160 127.4808520
 128.7590660  96.3033680 126.1698560 131.1540320  98.1586810 113.8972470
 132.0789630  98.0267990 113.6890760 131.1316110  98.2379630 114.8508920
 131.2278810  98.9297470 116.5229180 130.4330310  98.8642590 117.0522090
 131.4322090  99.8648110 116.5114530 128.1697230 112.9689020 120.5167570
 128.7656300 112.6473590 119.8401990 128.4275380 112.4960840 121.3080840
 114.4695430  96.2287330 126.5005010 114.1210250  96.6851150 127.2663190
 114.1383130  95.3344460 126.5827440 116.0759800 109.4006930 130.6658200
 116.0329430 109.0299840 131.5472660 116.2070810 110.3384500 130.8060020
 119.7765830 110.9566520 126.2667920 119.5357190 111.2241080 125.3798440
 120.7168470 111.1272250 126.3218780 121.9820250  97.4199210 130.0224430
 121.9209140  98.0121040 130.7719840 122.9220630  97.3125170 129.8774690
 124.6194810  97.0769270 129.6616720 125.2335220  97.3948560 128.9997800
 125.1644370  96.5917860 130.2812580 131.0369990 112.9760900 127.0678560
 130.5428270 113.3729770 126.3505690 130.4283280 112.3510110 127.4615840
 115.1416070  95.7563530 129.7755780 115.6899060  95.5751580 129.0121890
 115.2071380  94.9657640 130.3112090 115.9147830 112.3469180 127.7855980
 115.3208150 112.2153880 128.5246020 115.9071670 111.5107320 127.3198080
 125.3602850  95.6401410 125.9886010 124.4862690  95.9736520 125.7858940
 125.2513600  95.1674590 126.8137880 126.2674830  97.8472280 127.3727730
 125.9388190  97.0324040 126.9929460 127.2157130  97.8042090 127.2493420
 128.7209440 113.6184320 124.3465300 128.2612410 114.3700130 123.9723320
 128.0921900 112.8990790 124.2880100 115.5460060 109.7127560 126.7364020
 114.8194120 109.0932850 126.6689970 115.6069210 110.1068170 125.8662100
 119.1505160 111.9272560 123.5213430 119.6670180 111.3159920 122.9961690
 119.8002540 112.4301340 124.0124440 121.8900660 112.8181050 124.3482410
 122.1778470 112.5635350 123.4715420 122.4023880 112.2658410 124.9387980
 123.1077670  96.5571250 124.9278920 122.3249460  97.0316750 125.2075680
 122.8140600  95.6526080 124.8192100 127.6598740  97.2594350 122.9728010
 128.1006830  97.2039450 122.1249610 127.3906330  98.1752360 123.0438190
 129.5237310  96.8909590 120.9836830 129.4625710  95.9470810 120.8367850
 130.3029340  96.9989680 121.5290290 113.8290060 113.0301950 119.9460780
 113.6612100 112.3972630 120.6442670 112.9624570 113.2361350 119.5954970
 120.9931890  98.9758000 120.4394950 120.1806400  98.6014890 120.0990830
 121.4973530  98.2203080 120.7416140 125.4956870  95.6400450 121.6778020
 126.0986240  96.2120660 122.1526540 124.7549860  96.2039890 121.4551920
 128.6391470  96.0422010 116.9518300 128.8342100  96.9405460 117.2185730
 127.8521340  95.8109090 117.4451250 115.4352760 111.7235180 117.3910920
 114.9100380 112.1043210 116.6872880 115.3597340 112.3485950 118.1120630
 116.8243230  97.3882780 115.9894610 117.3535990  96.6012580 115.8602560
 117.4571550  98.0673970 116.2230140 119.0181070  97.1257920 119.0440000
 118.3883810  96.4245230 119.2110130 118.4786210  97.8862050 118.8273160
 121.9573020 113.7397150 131.7150610 122.8840330 113.5041420 131.7586570
 121.9423450 114.5669150 131.2336640 130.1918080 113.2822720 118.7124860
 130.3670270 112.5960460 118.0685780 129.4939650 113.8069770 118.3201530
 119.1436630  96.4041900 131.4792490 118.8620900  96.9075500 130.7153310
 119.5256330  95.6063650 131.1134620 118.0345730 113.6717560 116.2660170
 118.7664550 113.3876840 115.7184060 118.2939400 113.4330840 117.1559550
 117.1960520 109.7882290 116.2706500 116.5669400 110.2567390 116.8192330
 117.3108350 108.9431510 116.7052690 125.7452090  95.8195480 132.0572960
 125.6317540  96.1390090 132.9524480 126.5621830  96.2207990 131.7610240
 128.5250580 112.9667010 131.5391650 129.3175900 112.4716240 131.3317610
 128.8183730 113.6457150 132.1467260 116.7994110 105.9286780 105.1792730
 115.9678990 105.6735490 105.5789240 117.4075090 105.9997550 105.9150650
 126.8035710 110.0227160 103.0816100 126.3417240 109.2514400 103.4103270
 127.6161260 110.0493230 103.5868550 116.7795370 109.9626870 105.3750750
 117.0823410 109.0724610 105.1960970 117.5238960 110.5197090 105.1473000
 115.2086060 100.8888670  98.9635120 114.3202760 101.2304640  98.8615000
 115.4927250 100.6888990  98.0715950 113.1719070 103.4894320 104.8474820
 113.7435180 102.7216520 104.8478460 113.1720610 103.7883080 103.9381430
 123.0299020 112.3085170 102.7020090 122.4110460 112.7642670 102.1314530
 123.8850800 112.4636630 102.3009790 114.4143940  98.8978680 106.6343750
 114.2346780  98.0004430 106.9146510 114.0124020  99.4450550 107.3090700
 123.2542440 101.0994540 104.5356060 123.6307260 100.2266420 104.4229730
 123.1561950 101.4353240 103.6446500 117.3847450  99.4720170  99.9973500
 117.4914200 100.3723900 100.3042260 116.4739810  99.4238140  99.7068150
 127.0366560  98.5944980 101.4684400 127.8576180  98.1041550 101.5109880
 127.0700640  99.1842640 102.2216240 115.0330610 101.3939180 105.2426090
 115.7140720 101.6577550 105.8613490 114.7178660 100.5540050 105.5764100
 119.2255180 102.4406540 104.3298680 119.7333400 102.9387510 104.9703700
 119.7568420 101.6641740 104.1538040 131.3266110 100.6111730 108.0328030
 130.6218280 100.9993440 107.5143140 131.5924030 101.3062020 108.6348960
 117.5091280  97.0805100 108.5962100 117.5109720  97.5977490 107.7908000
 116.6795590  96.6035280 108.5732030 123.8962370 107.1924410 100.0952000
 123.2779640 107.6573860  99.5314720 124.4085620 107.8851890 100.5121510
 127.2728040 100.5345360 104.2411940 126.5683610 100.8230250 104.8215050
 127.6340200 101.3445470 103.8811500 117.1906610  98.7915060 106.6032550
 117.5323420  99.6357110 106.3086420 116.2522420  98.9398800 106.7197890
 117.9713230 108.6881080 108.5884780 118.5887230 109.3632160 108.3069230
 117.1106350 109.0969060 108.4972280 113.2645570 107.8780940  97.4691630
 112.8873550 108.3668040  96.7376530 113.5218640 108.5506220  98.0998160
 128.8890820 110.1520490 106.5039420 128.2054340 110.8219600 106.4956090
 129.4285110 110.3501140 105.7384280 130.3414960  99.9800150 104.6321150
 129.3939870 100.0139130 104.7636580 130.6664950 100.7939100 105.0170510
 120.8734500  96.2797330 102.9277140 121.1809480  95.7244220 102.2112640
 119.9435200  96.4141790 102.7450130 126.4249560 111.9964620 105.2184600
 126.4376720 111.5926910 104.3506860 125.8724780 112.7711910 105.1146030
 127.7194980 108.7180840 100.3074770 127.6091310 107.7755170 100.4324190
 127.7163230 109.0796480 101.1937530 125.8235000 106.8994460 106.5467210
 126.2403790 106.6854570 105.7120670 126.5474820 107.1567250 107.1175830
 123.2615260 104.3446160  99.6637260 122.3344540 104.2783540  99.8925730
 123.4140080 105.2826290  99.5492500 123.2484340 100.6163160  96.6604420
 122.3088010 100.7777120  96.7456880 123.5667600 101.3348840  96.1140410
 129.7697100 105.2981680 106.6383450 128.9415730 105.3674770 106.1633580
 130.3647580 105.8835990 106.1699280 127.2912550 105.9066460 100.1672510
 126.6724970 105.5686010  99.5198810 127.2737000 105.2626220 100.8751700
 126.7339110 102.0851000 107.5838320 126.3210290 102.9104710 107.8378310
 126.0015060 101.4996040 107.3914680 117.5800520 101.6454110 106.2256030
 118.1315110 101.7549450 105.4509280 118.0944030 102.0191710 106.9411260
 127.4239210 112.1310330 108.2719300 126.9469770 112.9382520 108.0791910
 126.7401000 111.4788660 108.4245510 118.4272030 108.2960150 111.2604000
 117.5300560 108.5200120 111.5077400 118.4524900 108.4195090 110.3115400
 125.4677250 105.1453270  97.1745260 125.9070530 104.3075700  97.0283080
 126.1805670 105.7782670  97.2609400 117.2543250 105.1673470 109.8361370
 117.1151020 106.0396270 110.2048770 116.3724610 104.8246280 109.6909310
 119.0523600 111.1095170 112.0446520 119.0239030 111.5138120 111.1774950
 118.8888570 110.1805530 111.8818120 129.0494390  96.3996080  95.4886300
 128.7367050  96.4922910  96.3885370 129.8106860  96.9777110  95.4383730
 115.5676530 103.7655880  99.9463640 115.4474130 104.4917970  99.3344910
 115.2577420 102.9958790  99.4691550 131.0038420 111.8922270 113.3410690
 131.4798140 112.3705160 114.0199770 131.6245580 111.8239760 112.6156190
 113.2061900 106.9371020 105.7532280 113.2842320 107.0719790 104.8088000
 113.8203580 106.2286910 105.9460400 114.4509530 108.6371210 102.1638460
 114.0437610 108.7785800 101.3092060 115.3422540 108.3531370 101.9609670
 130.4071670 109.0835120 110.5010700 130.5334730 108.8447000 109.5827880
 130.4493050 108.2519660 110.9732780 124.2688410 112.7863120 109.0705510
 124.7833080 112.6971130 109.8727940 123.4257490 113.1322820 109.3633420
 126.2442810 113.0718460  98.4989510 126.0843950 112.7821400  99.3971340
 126.0789520 112.2958590  97.9634740 125.5118870 112.2068730 101.1336000
 125.9675820 111.4258110 101.4474620 125.8511390 112.9175550 101.6777180
 130.2595680 101.1367580 111.4660440 129.6439950 101.6447250 110.9375900
 129.9392100 100.2365910 111.4086380 113.2621420 107.9785190 108.2926740
 113.4252460 107.5090550 107.4746110 113.7273870 107.4708750 108.9575580
 118.0340190  97.1090950 103.3287310 117.5908340  97.8900490 102.9971830
 118.5925180  97.4320840 104.0358250 127.3214510 101.1968420 110.0619290
 126.4708100 100.8974170 110.3828360 127.1616300 101.4410430 109.1503110
 124.4164220 102.6970170 112.1618080 124.7417630 101.8633920 111.8220310
 125.2044550 103.2198690 112.3096410 121.1499010  96.7301650  98.2093140
 120.5253190  96.7261520  98.9346450 121.0629130  95.8632610  97.8129110
 120.0716090  97.6538280 105.1876910 120.3688420  98.5601110 105.1068930
 120.6201650  97.1657060 104.5736480 117.8254410 102.2324520 101.0568560
 117.5995330 102.0161690 101.9615180 117.0446940 102.6652980 100.7114530
 125.0552170 102.2387890  99.6559210 124.4561060 102.9623690  99.4722830
 125.6031780 102.1764670  98.8735660 123.6617040 100.8751430 101.6862490
 124.0546610 101.1923630 100.8731180 124.0233890  99.9963310 101.8007010
 112.6981210  97.4652230 103.9092690 112.4094260  98.0355090 104.6217670
 113.4426970  96.9856680 104.2723920 120.6849570 100.1411380 104.1865760
 120.6885630  99.7001330 103.3370300 121.5800690 100.4628710 104.2937580
 116.5351950 100.0237870 103.1459970 116.1952000 100.5013100 103.9027020
 115.7729270  99.5702990 102.7861070 120.7469720 101.1423460  97.1772520
 120.8682540 101.1009940  98.1258340 120.3618230 102.0047610  97.0219250
 124.7098090  98.9190860 105.1936210 124.7270830  99.3699510 106.0378060
 124.4613670  98.0196500 105.4069650 119.7591220 103.4524600  96.5755820
 119.1908120 103.0042850  95.9491730 120.4680220 103.8117380  96.0420970
 128.1368840  96.3323040 111.0322590 128.4614610  95.6012700 111.5580570
 128.1725350  96.0136680 110.1303580 114.8360400 107.3536620 110.4522550
 114.4515190 106.7130290 111.0505510 115.1472590 108.0572740 111.0217280
 113.8498030  98.9456850 102.0624640 113.5644950  98.5812520 102.9003260
 113.7876890  98.2137310 101.4487780 118.7756910 103.2421800 108.2515380
 118.4713980 104.1213780 108.4765740 119.7303370 103.3021590 108.2872820
 128.0626680 106.4448150 104.6408620 128.7825800 106.9403440 104.2504730
 127.8608500 105.7666040 103.9962490 123.5236620  97.8386110  98.7838010
 122.7101230  97.3399280  98.7083320 123.3298570  98.6784360  98.3674360
 123.4445480 106.5157210 110.5277620 123.3782790 105.5952880 110.2735210
 122.8150620 106.6132650 111.2422260 126.2385010 102.2105760  97.0800170
 127.1264630 102.5222990  96.9051510 126.2090100 101.3378010  96.6880750
 117.3476100 107.1163170 102.4861040 117.8654770 106.3131430 102.4317930
 116.8960120 107.0542310 103.3277870 114.8320640 104.0824540 109.3986740
 114.4735580 104.7478390 109.9860080 114.5375200 103.2508090 109.7699360
 118.0333760 104.5408780 112.2826290 117.7333900 104.6865960 111.3854110
 118.8045000 103.9814070 112.1899680 123.3762210 109.3377780 110.2781420
 123.3906750 108.4058740 110.0600330 122.6687310 109.4237540 110.9171190
 128.5099280 103.5217600  96.5480030 128.4263000 103.9531820  95.6976470
 129.2293470 103.9815950  96.9806850 129.5873420 105.9785120 109.6250000
 128.8621610 106.5713900 109.4279390 130.1148880 105.9708660 108.8263370
 129.5386530 110.3759860  99.2762160 128.8962690 109.7215480  99.5505880
 129.1517190 110.7814950  98.5002830 113.3428690 104.0815800  96.0221340
 114.2123540 104.3640600  96.3057260 112.8519010 104.8951670  95.9070150
 120.5063500 105.4689010 100.1429620 120.9626280 106.2794260 100.3689810
 120.1551710 105.1512150 100.9748110 122.8096110 110.9795350 107.3721920
 123.4538330 111.1854730 108.0495340 123.1725550 110.2183750 106.9192770
 116.4075280  95.8126660 100.6152140 116.2789910  95.8044560 101.5637060
 115.5837300  96.1509750 100.2643150 127.9283910 109.2676320  95.8138510
 127.7021490 108.5506760  96.4063150 127.5380110 109.0188760  94.9760260
 125.8565810 109.7822600 109.2935430 126.1922050 110.3689290 109.9713350
 124.9366150 109.6515310 109.5233220 113.7099940 113.2943180  96.5882970
 114.0697580 113.8932520  95.9340240 113.5692280 113.8403070  97.3618000
 127.5100160 107.1848260  97.4752670 127.2221860 107.6460950  98.2630550
 128.3052330 106.7246030  97.7436890 113.6941800 111.5598040 111.0625370
 113.8032920 110.6192780 110.9220760 113.0422360 111.8252790 110.4139100
 121.6854390 109.8313930 112.4623490 121.3651260 109.1123170 113.0069180
 121.0112750 110.5069000 112.5359550 115.3275200 105.8989270  98.1503400
 114.7203150 106.6388170  98.1598700 115.8024550 105.9888630  97.3241600
 124.9007990 100.0640090 107.8260290 125.2688810  99.2435300 108.1539860
 124.0406190 100.1241980 108.2415940 128.2670020  99.0197030  98.6347850
 127.6383180  99.1242700  97.9206080 127.7721940  99.2393810  99.4241730
 120.2354050 101.2982980 100.0505730 119.5270200 101.7669320 100.4919340
 120.5198530 100.6404990 100.6850920 121.8609980 102.7179680 108.0498260
 122.3595230 103.1925500 108.7150110 122.0032930 101.7943200 108.2568290
 124.2669480  98.0233640 101.4901520 124.1437260  98.0419770 100.5411030
 125.2154040  98.0712580 101.6099920 118.4389070  99.6068060  97.4256440
 119.2879600 100.0438210  97.3596630 118.0720340  99.9188320  98.2528500
 129.0676840  98.9347640 108.8926650 128.5650440  99.6753040 109.2320460
 129.8833500  99.3231640 108.5763440 127.3598850 104.1780820 102.3388010
 126.4188990 104.1931050 102.5135700 127.6742920 103.3916780 102.7848310
 117.3380490 105.8600420  95.8991970 118.1043760 105.7481780  96.4617400
 117.4155180 105.1638390  95.2468740 116.0327250 103.2925490  96.5824860
 116.1130840 102.3453000  96.6942260 116.9247000 103.6232370  96.6885520
 129.3624430 111.3489670 104.0142270 129.4871850 112.1720840 104.4866080
 130.2289990 111.1380400 103.6666420 116.8341960 113.4420880 103.6859400
 117.5704440 112.8936340 103.9567970 117.2182880 114.3076890 103.5465390
 113.7187440 109.5094450  99.5600910 112.7927220 109.7515590  99.5506320
 114.1843870 110.3368710  99.4385660 115.8400240 112.6266950 112.8744980
 116.6412970 112.9479000 113.2880380 115.3252060 112.2662530 113.5964890
 124.6764870 108.7346820 112.8220390 124.0703030 108.7578420 112.0816140
 124.3718980 108.0029860 113.3587640 126.1065240 112.4627110 111.4329800
 127.0586990 112.3785130 111.3830040 125.9593460 113.1268820 112.1063590
 128.9974440 111.8421320  96.9321710 128.7115950 111.4286460  96.1175890
 128.7993990 112.7709030  96.8122230 113.5598050 105.1140410 111.8181030
 114.0637070 104.5347690 112.3897260 112.8205470 105.3980640 112.3557400
 120.6135990 106.5211400 111.3516550 119.8481660 107.0896400 111.2671220
 120.7951950 106.2287610 110.4584780 123.7024400 106.8974630  95.9769310
 123.1534500 107.3443930  96.6212050 124.3243660 106.3923880  96.5006980
 127.7559340 108.2516730 111.9091570 128.4968810 108.5892490 111.4059030
 126.9932020 108.4208790 111.3561340 115.5921130 103.2570000 112.7131100
 115.6326470 102.9583870 113.6216330 116.4466630 103.6577610 112.5538620
 119.3699520 105.8565550  97.8734610 119.7915940 105.6905420  98.7166000
 119.4950360 105.0465780  97.3789750 121.8827160 104.8803160  95.1211710
 122.4032820 104.1652180  94.7552860 122.5295560 105.5189030  95.4212220
 126.4305000 106.3031560 110.4446780 126.8446020 106.4576640 111.2937200
 125.4956000 106.4286780 110.6072560 126.9027170 103.6427720 112.4485930
 127.4847940 102.8880040 112.3606410 127.0788940 104.1735160 111.6717410
 120.7860680  97.3597710 107.7930270 120.3377980  97.3821970 106.9475820
 120.1525880  96.9616730 108.3900570 123.5284130 103.9868220 109.7980550
 123.6480340 103.3909360 110.5375390 124.3878130 104.0237910 109.3781850
 125.8672030 104.5405410 108.3743060 125.3407250 105.0648030 107.7708200
 126.2103370 105.1732800 109.0052790 118.2658420 101.9298780  94.8192770
 118.0647480 101.0666140  95.1806110 118.0950470 101.8432140  93.8814370
 119.0427650 112.5605050 109.5300440 118.5048740 113.2851110 109.2109140
 119.2961610 112.0835390 108.7397780 125.1146330 100.1455380 111.2889390
 124.4261850  99.4836920 111.2239380 125.8352350  99.6993650 111.7337850
 125.7446730  96.7407010  97.3479650 126.0249020  95.8974910  97.7039070
 124.9712460  96.9730120  97.8618400 121.8989860 113.7956260 109.7887090
 121.8248560 114.6991400 110.0959460 120.9968700 113.4768160 109.7609160
 120.2826150  97.9734020  95.7926850 119.9348150  97.2958010  95.2129300
 120.4838920  97.5123530  96.6070240 116.0871350 108.3341820  95.6400450
 116.5246220 108.8771490  96.2958030 116.5719080 107.5088770  95.6496790
 113.3017150 111.1230850 103.0920710 113.6320160 110.2551910 102.8599350
 113.7308150 111.3289370 103.9225670 113.7907360 111.9901440 105.8302340
 113.3538350 112.1702240 106.6626490 114.3585040 112.7476060 105.6884060
 129.4269540 111.4918440 110.1179650 128.8271530 111.5511000 109.3743570
 129.5563440 110.5523420 110.2476500 130.6670990 109.2336260  95.4549360
 129.8363950 109.3012910  95.9256590 130.8442820 110.1240380  95.1516220
 130.1227450 105.9783740  97.9583560 130.8846360 106.5480390  98.0643250
 130.1381820 105.4110940  98.7291870 113.6231790 104.5021670 102.1891220
 112.9680630 104.2333310 101.5450920 114.4609740 104.3926150 101.7393200
 131.1287420 106.8333840 102.8025490 131.4996250 106.0501160 102.3961460
 131.7689350 107.5222940 102.6242790 128.1121180 108.2170420 108.2155810
 127.2981020 108.6467580 108.4781600 128.5195380 108.8288830 107.6024860
 130.1746620 106.2718110  95.1156080 130.4495460 107.1796990  94.9875300
 129.9857360 106.2080640  96.0518070 126.5722230  99.2962960  96.4109710
 126.9907110  99.1093940  95.5706370 126.2658290  98.4442010  96.7212640
 130.0711960 104.2087100 100.1085510 129.6955560 103.4415030  99.6766800
 129.3415080 104.5909800 100.5960440 114.6607720 104.8874240 106.7294560
 115.0280760 104.8001640 107.6090580 114.0918540 104.1240790 106.6301420
 129.4611580 103.3558620 109.7425030 129.2297670 103.1271370 108.8422980
 129.7216130 104.2758170 109.6969920 114.2123720 101.7983330 110.6352980
 113.3179770 101.7650090 110.9746690 114.7521270 101.9970120 111.4004230
 127.8999650  98.5815050 112.5204730 128.7769830  98.5898450 112.9038730
 127.9120490  97.8445890 111.9097080 112.8369870 101.7120600  98.1316550
 111.9333950 101.9750800  97.9568210 113.3210490 101.9831770  97.3516510
 129.3462920 102.4344590 103.4092750 129.8700400 101.9407240 102.7782920
 129.9322340 102.5694950 104.1540320 129.5252640 102.5184460 106.9312300
 128.5755350 102.4848000 107.0457290 129.7065650 103.4284570 106.6962070
 128.8362890 101.6917940  99.3485160 129.3322010 101.4588810 100.1334040
 128.6378960 100.8529780  98.9322800 114.7163430  96.0731660 104.9836200
 115.3639620  95.5229040 104.5431360 115.1365270  96.3274810 105.8052010
 130.2650050 100.3278890 101.8822840 130.1549330 100.1734930 102.8205110
 131.0257640  99.7999830 101.6398250 128.6115770  96.2673020 108.3405840
 129.2487990  96.8807160 108.7065030 128.7590660  96.3033680 107.3955070
 131.1540320  98.1586810  95.1228980 132.0789630  98.0267990  94.9147270
 131.1316110  98.2379630  96.0765430 131.2278810  98.9297470  97.7485690
 130.4330310  98.8642590  98.2778600 131.4322090  99.8648110  97.7371040
 128.1697230 112.9689020 101.7424080 128.7656300 112.6473590 101.0658500
 128.4275380 112.4960840 102.5337350 114.4695430  96.2287330 107.7261520
 114.1210250  96.6851150 108.4919700 114.1383130  95.3344460 107.8083950
 116.0759800 109.4006930 111.8914710 116.0329430 109.0299840 112.7729170
 116.2070810 110.3384500 112.0316530 119.7765830 110.9566520 107.4924430
 119.5357190 111.2241080 106.6054950 120.7168470 111.1272250 107.5475290
 124.6194810  97.0769270 110.8873230 125.2335220  97.3948560 110.2254310
 125.1644370  96.5917860 111.5069090 131.0369990 112.9760900 108.2935070
 130.5428270 113.3729770 107.5762200 130.4283280 112.3510110 108.6872350
 115.1416070  95.7563530 111.0012290 115.6899060  95.5751580 110.2378400
 115.2071380  94.9657640 111.5368600 115.9147830 112.3469180 109.0112490
 115.3208150 112.2153880 109.7502530 115.9071670 111.5107320 108.5454590
 125.3602850  95.6401410 107.2142520 124.4862690  95.9736520 107.0115450
 125.2513600  95.1674590 108.0394390 126.2674830  97.8472280 108.5984240
 125.9388190  97.0324040 108.2185970 127.2157130  97.8042090 108.4749930
 128.7209440 113.6184320 105.5721810 128.2612410 114.3700130 105.1979830
 128.0921900 112.8990790 105.5136610 115.5460060 109.7127560 107.9620530
 114.8194120 109.0932850 107.8946480 115.6069210 110.1068170 107.0918610
 119.1505160 111.9272560 104.7469940 119.6670180 111.3159920 104.2218200
 119.8002540 112.4301340 105.2380950 121.8900660 112.8181050 105.5738920
 122.1778470 112.5635350 104.6971930 122.4023880 112.2658410 106.1644490
 123.1077670  96.5571250 106.1535430 122.3249460  97.0316750 106.4332190
 122.8140600  95.6526080 106.0448610 127.6598740  97.2594350 104.1984520
 128.1006830  97.2039450 103.3506120 127.3906330  98.1752360 104.2694700
 129.5237310  96.8909590 102.2093340 129.4625710  95.9470810 102.0624360
 130.3029340  96.9989680 102.7546800 113.8290060 113.0301950 101.1717290
 113.6612100 112.3972630 101.8699180 112.9624570 113.2361350 100.8211480
 114.4518080  96.8618730  98.6749150 115.2097440  96.9747610  98.1013180
 113.9895250  97.6987930  98.6292580 120.9931890  98.9758000 101.6651460
 120.1806400  98.6014890 101.3247340 121.4973530  98.2203080 101.9672650
 125.4956870  95.6400450 102.9034530 126.0986240  96.2120660 103.3783050
 124.7549860  96.2039890 102.6808430 128.6391470  96.0422010  98.1774810
 128.8342100  96.9405460  98.4442240 127.8521340  95.8109090  98.6707760
 116.8243230  97.3882780  97.2151120 117.3535990  96.6012580  97.0859070
 117.4571550  98.0673970  97.4486650 119.0181070  97.1257920 100.2696510
 118.3883810  96.4245230 100.4366640 118.4786210  97.8862050 100.0529670
 121.9573020 113.7397150 112.9407120 122.8840330 113.5041420 112.9843080
 121.9423450 114.5669150 112.4593150 130.1918080 113.2822720  99.9381370
 130.3670270 112.5960460  99.2942290 129.4939650 113.8069770  99.5458040
 125.7452090  95.8195480 113.2829470 125.6317540  96.1390090 114.1780990
 126.5621830  96.2207990 112.9866750 128.5250580 112.9667010 112.7648160
 129.3175900 112.4716240 112.5574120 128.8183730 113.6457150 113.3723770
 124.6510240 103.8387950  83.6464210 124.5704290 102.9242560  83.3755920
 124.2374660 104.3355020  82.9403920 116.7994110 105.9286780  86.4049240
 115.9678990 105.6735490  86.8045750 117.4075090 105.9997550  87.1407160
 126.8035710 110.0227160  84.3072610 126.3417240 109.2514400  84.6359780
 127.6161260 110.0493230  84.8125060 116.7795370 109.9626870  86.6007260
 117.0823410 109.0724610  86.4217480 117.5238960 110.5197090  86.3729510
 115.2086060 100.8888670  80.1891630 114.3202760 101.2304640  80.0871510
 115.4927250 100.6888990  79.2972460 113.1719070 103.4894320  86.0731330
 113.7435180 102.7216520  86.0734970 113.1720610 103.7883080  85.1637940
 114.4143940  98.8978680  87.8600260 114.2346780  98.0004430  88.1403020
 114.0124020  99.4450550  88.5347210 123.2542440 101.0994540  85.7612570
 123.6307260 100.2266420  85.6486240 123.1561950 101.4353240  84.8703010
 117.3847450  99.4720170  81.2230010 117.4914200 100.3723900  81.5298770
 116.4739810  99.4238140  80.9324660 115.0330610 101.3939180  86.4682600
 115.7140720 101.6577550  87.0870000 114.7178660 100.5540050  86.8020610
 119.2255180 102.4406540  85.5555190 119.7333400 102.9387510  86.1960210
 119.7568420 101.6641740  85.3794550 131.3266110 100.6111730  89.2584540
 130.6218280 100.9993440  88.7399650 131.5924030 101.3062020  89.8605470
 117.5091280  97.0805100  89.8218610 117.5109720  97.5977490  89.0164510
 116.6795590  96.6035280  89.7988540 123.8962370 107.1924410  81.3208510
 123.2779640 107.6573860  80.7571230 124.4085620 107.8851890  81.7378020
 118.7594130 106.7200280  87.9992110 118.4263510 107.3469200  88.6413180
 118.9360810 107.2462160  87.2193780 117.1906610  98.7915060  87.8289060
 117.5323420  99.6357110  87.5342930 116.2522420  98.9398800  87.9454400
 113.2645570 107.8780940  78.6948140 112.8873550 108.3668040  77.9633040
 113.5218640 108.5506220  79.3254670 128.8890820 110.1520490  87.7295930
 128.2054340 110.8219600  87.7212600 129.4285110 110.3501140  86.9640790
 130.3414960  99.9800150  85.8577660 129.3939870 100.0139130  85.9893090
 130.6664950 100.7939100  86.2427020 120.8734500  96.2797330  84.1533650
 121.1809480  95.7244220  83.4369150 119.9435200  96.4141790  83.9706640
 126.4249560 111.9964620  86.4441110 126.4376720 111.5926910  85.5763370
 125.8724780 112.7711910  86.3402540 127.7194980 108.7180840  81.5331280
 127.6091310 107.7755170  81.6580700 127.7163230 109.0796480  82.4194040
 123.2615260 104.3446160  80.8893770 122.3344540 104.2783540  81.1182240
 123.4140080 105.2826290  80.7749010 123.2484340 100.6163160  77.8860930
 122.3088010 100.7777120  77.9713390 123.5667600 101.3348840  77.3396920
 127.2912550 105.9066460  81.3929020 126.6724970 105.5686010  80.7455320
 127.2737000 105.2626220  82.1008210 126.7339110 102.0851000  88.8094830
 126.3210290 102.9104710  89.0634820 126.0015060 101.4996040  88.6171190
 117.5800520 101.6454110  87.4512540 118.1315110 101.7549450  86.6765790
 118.0944030 102.0191710  88.1667770 127.4239210 112.1310330  89.4975810
 126.9469770 112.9382520  89.3048420 126.7401000 111.4788660  89.6502020
 118.4272030 108.2960150  92.4860510 117.5300560 108.5200120  92.7333910
 118.4524900 108.4195090  91.5371910 125.4677250 105.1453270  78.4001770
 125.9070530 104.3075700  78.2539590 126.1805670 105.7782670  78.4865910
 117.2543250 105.1673470  91.0617880 117.1151020 106.0396270  91.4305280
 116.3724610 104.8246280  90.9165820 115.5676530 103.7655880  81.1720150
 115.4474130 104.4917970  80.5601420 115.2577420 102.9958790  80.6948060
 131.0038420 111.8922270  94.5667200 131.4798140 112.3705160  95.2456280
 131.6245580 111.8239760  93.8412700 113.2061900 106.9371020  86.9788790
 113.2842320 107.0719790  86.0344510 113.8203580 106.2286910  87.1716910
 114.4509530 108.6371210  83.3894970 114.0437610 108.7785800  82.5348570
 115.3422540 108.3531370  83.1866180 130.4071670 109.0835120  91.7267210
 130.5334730 108.8447000  90.8084390 130.4493050 108.2519660  92.1989290
 126.2442810 113.0718460  79.7246020 126.0843950 112.7821400  80.6227850
 126.0789520 112.2958590  79.1891250 118.7231190 112.8516990  81.5017640
 118.5473670 111.9352530  81.2885440 117.8686930 113.2104280  81.7415440
 125.9468940 110.5806020  78.2844020 125.2534100 110.5783310  77.6246300
 126.6891800 110.1565340  77.8538190 125.5118870 112.2068730  82.3592510
 125.9675820 111.4258110  82.6731130 125.8511390 112.9175550  82.9033690
 130.2595680 101.1367580  92.6916950 129.6439950 101.6447250  92.1632410
 129.9392100 100.2365910  92.6342890 113.2621420 107.9785190  89.5183250
 113.4252460 107.5090550  88.7002620 113.7273870 107.4708750  90.1832090
 118.0340190  97.1090950  84.5543820 117.5908340  97.8900490  84.2228340
 118.5925180  97.4320840  85.2614760 122.3210000  99.9759470  90.1579140
 121.8589370 100.1842490  90.9699080 121.9188110  99.1618820  89.8549810
 127.3214510 101.1968420  91.2875800 126.4708100 100.8974170  91.6084870
 127.1616300 101.4410430  90.3759620 124.4164220 102.6970170  93.3874590
 124.7417630 101.8633920  93.0476820 125.2044550 103.2198690  93.5352920
 121.1499010  96.7301650  79.4349650 120.5253190  96.7261520  80.1602960
 121.0629130  95.8632610  79.0385620 120.0716090  97.6538280  86.4133420
 120.3688420  98.5601110  86.3325440 120.6201650  97.1657060  85.7992990
 117.8254410 102.2324520  82.2825070 117.5995330 102.0161690  83.1871690
 117.0446940 102.6652980  81.9371040 125.0552170 102.2387890  80.8815720
 124.4561060 102.9623690  80.6979340 125.6031780 102.1764670  80.0992170
 120.2653620 103.1310100  92.9485340 120.1697220 102.1904830  92.7985740
 121.1085600 103.3525170  92.5533410 123.6617040 100.8751430  82.9119000
 124.0546610 101.1923630  82.0987690 124.0233890  99.9963310  83.0263520
 121.9709210  99.6258740  94.1715860 121.2807530  99.4330940  94.8061950
 122.7141510  99.9093380  94.7040160 112.6981210  97.4652230  85.1349200
 112.4094260  98.0355090  85.8474180 113.4426970  96.9856680  85.4980430
 112.8851440 101.4072350  76.3451920 112.8026110 102.3503110  76.4866910
 112.5334500 101.2647260  75.4664270 124.2472180 103.4657180  87.0069780
 123.5153300 103.9743990  87.3559880 123.8496520 102.6487160  86.7058560
 120.6849570 100.1411380  85.4122270 120.6885630  99.7001330  84.5626810
 121.5800690 100.4628710  85.5194090 116.5351950 100.0237870  84.3716480
 116.1952000 100.5013100  85.1283530 115.7729270  99.5702990  84.0117580
 124.7098090  98.9190860  86.4192720 124.7270830  99.3699510  87.2634570
 124.4613670  98.0196500  86.6326160 128.1368840  96.3323040  92.2579100
 128.4614610  95.6012700  92.7837080 128.1725350  96.0136680  91.3560090
 114.8360400 107.3536620  91.6779060 114.4515190 106.7130290  92.2762020
 115.1472590 108.0572740  92.2473790 120.9857540 104.2013160  87.1587680
 121.3527670 103.7271730  87.9049020 120.7962600 105.0754730  87.4996020
 113.8498030  98.9456850  83.2881150 113.5644950  98.5812520  84.1259770
 113.7876890  98.2137310  82.6744290 118.7756910 103.2421800  89.4771890
 118.4713980 104.1213780  89.7022250 119.7303370 103.3021590  89.5129330
 117.3038700 107.4482790  80.0738740 116.5300960 106.9080410  79.9137460
 118.0333330 106.9289400  79.7356500 123.5236620  97.8386110  80.0094520
 122.7101230  97.3399280  79.9339830 123.3298570  98.6784360  79.5930870
 123.4445480 106.5157210  91.7534130 123.3782790 105.5952880  91.4991720
 122.8150620 106.6132650  92.4678770 126.2385010 102.2105760  78.3056680
 127.1264630 102.5222990  78.1308020 126.2090100 101.3378010  77.9137260
 117.3476100 107.1163170  83.7117550 117.8654770 106.3131430  83.6574440
 116.8960120 107.0542310  84.5534380 122.2345600 108.3829450  78.9844850
 122.5761300 109.1271680  78.4888170 121.4058310 108.6960570  79.3469680
 118.0333760 104.5408780  93.5082800 117.7333900 104.6865960  92.6110620
 118.8045000 103.9814070  93.4156190 128.5099280 103.5217600  77.7736540
 128.4263000 103.9531820  76.9232980 129.2293470 103.9815950  78.2063360
 129.5873420 105.9785120  90.8506510 128.8621610 106.5713900  90.6535900
 130.1148880 105.9708660  90.0519880 129.5386530 110.3759860  80.5018670
 128.8962690 109.7215480  80.7762390 129.1517190 110.7814950  79.7259340
 120.5063500 105.4689010  81.3686130 120.9626280 106.2794260  81.5946320
 120.1551710 105.1512150  82.2004620 116.4075280  95.8126660  81.8408650
 116.2789910  95.8044560  82.7893570 115.5837300  96.1509750  81.4899660
 127.9283910 109.2676320  77.0395020 127.7021490 108.5506760  77.6319660
 127.5380110 109.0188760  76.2016770 113.7099940 113.2943180  77.8139480
 114.0697580 113.8932520  77.1596750 113.5692280 113.8403070  78.5874510
 127.5100160 107.1848260  78.7009180 127.2221860 107.6460950  79.4887060
 128.3052330 106.7246030  78.9693400 113.6941800 111.5598040  92.2881880
 113.8032920 110.6192780  92.1477270 113.0422360 111.8252790  91.6395610
 119.7268560 110.6774380  78.6313150 119.7178660 111.4104070  78.0157660
 118.8066920 110.4305960  78.7240110 124.9007990 100.0640090  89.0516800
 125.2688810  99.2435300  89.3796370 124.0406190 100.1241980  89.4672450
 128.2670020  99.0197030  79.8604360 127.6383180  99.1242700  79.1462590
 127.7721940  99.2393810  80.6498240 122.7128160 110.7402620  77.2938340
 122.8140140 110.5366610  76.3640320 121.8129900 110.4860900  77.4986120
 120.2354050 101.2982980  81.2762240 119.5270200 101.7669320  81.7175850
 120.5198530 100.6404990  81.9107430 121.8609980 102.7179680  89.2754770
 122.3595230 103.1925500  89.9406620 122.0032930 101.7943200  89.4824800
 124.2669480  98.0233640  82.7158030 124.1437260  98.0419770  81.7667540
 125.2154040  98.0712580  82.8356430 121.3546270 113.2588940  81.9886010
 121.6087770 113.2210330  81.0665380 120.4058750 113.1322270  81.9814260
 118.4389070  99.6068060  78.6512950 119.2879600 100.0438210  78.5853140
 118.0720340  99.9188320  79.4785010 129.0676840  98.9347640  90.1183160
 128.5650440  99.6753040  90.4576970 129.8833500  99.3231640  89.8019950
 129.3624430 111.3489670  85.2398780 129.4871850 112.1720840  85.7122590
 130.2289990 111.1380400  84.8922930 116.8341960 113.4420880  84.9115910
 117.5704440 112.8936340  85.1824480 117.2182880 114.3076890  84.7721900
 113.7187440 109.5094450  80.7857420 112.7927220 109.7515590  80.7762830
 114.1843870 110.3368710  80.6642170 115.8400240 112.6266950  94.1001490
 116.6412970 112.9479000  94.5136890 115.3252060 112.2662530  94.8221400
 119.9444270 112.6151190  76.7341480 120.7372880 112.9040020  76.2823270
 119.4248620 112.1843360  76.0553960 128.9974440 111.8421320  78.1578220
 128.7115950 111.4286460  77.3432400 128.7993990 112.7709030  78.0378740
 113.5598050 105.1140410  93.0437540 114.0637070 104.5347690  93.6153770
 112.8205470 105.3980640  93.5813910 120.4621670 107.8354600  76.5983830
 120.3572310 107.2206950  77.3245210 120.2945890 107.3120490  75.8146840
 120.6135990 106.5211400  92.5773060 119.8481660 107.0896400  92.4927730
 120.7951950 106.2287610  91.6841290 123.7024400 106.8974630  77.2025820
 123.1534500 107.3443930  77.8468560 124.3243660 106.3923880  77.7263490
 127.7559340 108.2516730  93.1348080 128.4968810 108.5892490  92.6315540
 126.9932020 108.4208790  92.5817850 121.8827160 104.8803160  76.3468220
 122.4032820 104.1652180  75.9809370 122.5295560 105.5189030  76.6468730
 126.4305000 106.3031560  91.6703290 126.8446020 106.4576640  92.5193710
 125.4956000 106.4286780  91.8329070 126.9027170 103.6427720  93.6742440
 127.4847940 102.8880040  93.5862920 127.0788940 104.1735160  92.8973920
 120.7860680  97.3597710  89.0186780 120.3377980  97.3821970  88.1732330
 120.1525880  96.9616730  89.6157080 123.5284130 103.9868220  91.0237060
 123.6480340 103.3909360  91.7631900 124.3878130 104.0237910  90.6038360
 125.8672030 104.5405410  89.5999570 125.3407250 105.0648030  88.9964710
 126.2103370 105.1732800  90.2309300 120.2952900 100.5289570  92.2812880
 120.8852590 100.2205420  92.9690700 119.4773140 100.0569320  92.4372780
 125.1146330 100.1455380  92.5145900 124.4261850  99.4836920  92.4495890
 125.8352350  99.6993650  92.9594360 125.7446730  96.7407010  78.5736160
 126.0249020  95.8974910  78.9295580 124.9712460  96.9730120  79.0874910
 120.2826150  97.9734020  77.0183360 119.9348150  97.2958010  76.4385810
 120.4838920  97.5123530  77.8326750 122.4475190 112.9614770  78.6369960
 123.3425980 113.2999740  78.6588720 122.4792820 112.2394180  78.0094240
 116.0871350 108.3341820  76.8656960 116.5246220 108.8771490  77.5214540
 116.5719080 107.5088770  76.8753300 113.3017150 111.1230850  84.3177220
 113.6320160 110.2551910  84.0855860 113.7308150 111.3289370  85.1482180
 117.8979070 109.4539860  81.9779190 117.5974610 109.3304830  82.8783100
 117.7916560 108.5948450  81.5694920 113.7907360 111.9901440  87.0558850
 113.3538350 112.1702240  87.8883000 114.3585040 112.7476060  86.9140570
 129.4269540 111.4918440  91.3436160 128.8271530 111.5511000  90.6000080
 129.5563440 110.5523420  91.4733010 130.6670990 109.2336260  76.6805870
 129.8363950 109.3012910  77.1513100 130.8442820 110.1240380  76.3772730
 130.1227450 105.9783740  79.1840070 130.8846360 106.5480390  79.2899760
 130.1381820 105.4110940  79.9548380 113.6231790 104.5021670  83.4147730
 112.9680630 104.2333310  82.7707430 114.4609740 104.3926150  82.9649710
 128.1121180 108.2170420  89.4412320 127.2981020 108.6467580  89.7038110
 128.5195380 108.8288830  88.8281370 130.1746620 106.2718110  76.3412590
 130.4495460 107.1796990  76.2131810 129.9857360 106.2080640  77.2774580
 126.5722230  99.2962960  77.6366220 126.9907110  99.1093940  76.7962880
 126.2658290  98.4442010  77.9469150 114.6607720 104.8874240  87.9551070
 115.0280760 104.8001640  88.8347090 114.0918540 104.1240790  87.8557930
 129.4611580 103.3558620  90.9681540 129.2297670 103.1271370  90.0679490
 129.7216130 104.2758170  90.9226430 127.8999650  98.5815050  93.7461240
 128.7769830  98.5898450  94.1295240 127.9120490  97.8445890  93.1353590
 112.8369870 101.7120600  79.3573060 111.9333950 101.9750800  79.1824720
 113.3210490 101.9831770  78.5773020 128.8362890 101.6917940  80.5741670
 129.3322010 101.4588810  81.3590550 128.6378960 100.8529780  80.1579310
 114.7163430  96.0731660  86.2092710 115.3639620  95.5229040  85.7687870
 115.1365270  96.3274810  87.0308520 128.6115770  96.2673020  89.5662350
 129.2487990  96.8807160  89.9321540 128.7590660  96.3033680  88.6211580
 128.1697230 112.9689020  82.9680590 128.7656300 112.6473590  82.2915010
 128.4275380 112.4960840  83.7593860 114.4695430  96.2287330  88.9518030
 114.1210250  96.6851150  89.7176210 114.1383130  95.3344460  89.0340460
 116.0759800 109.4006930  93.1171220 116.0329430 109.0299840  93.9985680
 116.2070810 110.3384500  93.2573040 121.9820250  97.4199210  92.4737450
 121.9209140  98.0121040  93.2232860 122.9220630  97.3125170  92.3287710
 124.6194810  97.0769270  92.1129740 125.2335220  97.3948560  91.4510820
 125.1644370  96.5917860  92.7325600 131.0369990 112.9760900  89.5191580
 130.5428270 113.3729770  88.8018710 130.4283280 112.3510110  89.9128860
 115.1416070  95.7563530  92.2268800 115.6899060  95.5751580  91.4634910
 115.2071380  94.9657640  92.7625110 115.9147830 112.3469180  90.2369000
 115.3208150 112.2153880  90.9759040 115.9071670 111.5107320  89.7711100
 125.3602850  95.6401410  88.4399030 124.4862690  95.9736520  88.2371960
 125.2513600  95.1674590  89.2650900 126.2674830  97.8472280  89.8240750
 125.9388190  97.0324040  89.4442480 127.2157130  97.8042090  89.7006440
 128.7209440 113.6184320  86.7978320 128.2612410 114.3700130  86.4236340
 128.0921900 112.8990790  86.7393120 115.5460060 109.7127560  89.1877040
 114.8194120 109.0932850  89.1202990 115.6069210 110.1068170  88.3175120
 119.1505160 111.9272560  85.9726450 119.6670180 111.3159920  85.4474710
 119.8002540 112.4301340  86.4637460 123.1077670  96.5571250  87.3791940
 122.3249460  97.0316750  87.6588700 122.8140600  95.6526080  87.2705120
 113.8290060 113.0301950  82.3973800 113.6612100 112.3972630  83.0955690
 112.9624570 113.2361350  82.0467990 120.9931890  98.9758000  82.8907970
 120.1806400  98.6014890  82.5503850 121.4973530  98.2203080  83.1929160
 115.4352760 111.7235180  79.8423940 114.9100380 112.1043210  79.1385900
 115.3597340 112.3485950  80.5633650 119.0181070  97.1257920  81.4953020
 118.3883810  96.4245230  81.6623150 118.4786210  97.8862050  81.2786180
 130.1918080 113.2822720  81.1637880 130.3670270 112.5960460  80.5198800
 129.4939650 113.8069770  80.7714550 118.0345730 113.6717560  78.7173190
 118.7664550 113.3876840  78.1697080 118.2939400 113.4330840  79.6072570
 117.1960520 109.7882290  78.7219520 116.5669400 110.2567390  79.2705350
 117.3108350 108.9431510  79.1565710 125.7452090  95.8195480  94.5085980
 125.6317540  96.1390090  95.4037500 126.5621830  96.2207990  94.2123260
 128.5250580 112.9667010  93.9904670 129.3175900 112.4716240  93.7830630
 128.8183730 113.6457150  94.5980280 124.6510240 103.8387950  64.8720720
 124.5704290 102.9242560  64.6012430 124.2374660 104.3355020  64.1660430
 122.7828280 105.6166970  66.7529990 122.0070380 105.1367410  67.0428560
 123.4341210 104.9372620  66.5786150 116.7994110 105.9286780  67.6305750
 115.9678990 105.6735490  68.0302260 117.4075090 105.9997550  68.3663670
 116.7795370 109.9626870  67.8263770 117.0823410 109.0724610  67.6473990
 117.5238960 110.5197090  67.5986020 115.2086060 100.8888670  61.4148140
 114.3202760 101.2304640  61.3128020 115.4927250 100.6888990  60.5228970
 113.1719070 103.4894320  67.2987840 113.7435180 102.7216520  67.2991480
 113.1720610 103.7883080  66.3894450 123.0299020 112.3085170  65.1533110
 122.4110460 112.7642670  64.5827550 123.8850800 112.4636630  64.7522810
 114.4143940  98.8978680  69.0856770 114.2346780  98.0004430  69.3659530
 114.0124020  99.4450550  69.7603720 123.2542440 101.0994540  66.9869080
 123.6307260 100.2266420  66.8742750 123.1561950 101.4353240  66.0959520
 127.0366560  98.5944980  63.9197420 127.8576180  98.1041550  63.9622900
 127.0700640  99.1842640  64.6729260 115.0330610 101.3939180  67.6939110
 115.7140720 101.6577550  68.3126510 114.7178660 100.5540050  68.0277120
 119.2255180 102.4406540  66.7811700 119.7333400 102.9387510  67.4216720
 119.7568420 101.6641740  66.6051060 131.3266110 100.6111730  70.4841050
 130.6218280 100.9993440  69.9656160 131.5924030 101.3062020  71.0861980
 117.5091280  97.0805100  71.0475120 117.5109720  97.5977490  70.2421020
 116.6795590  96.6035280  71.0245050 123.8962370 107.1924410  62.5465020
 123.2779640 107.6573860  61.9827740 124.4085620 107.8851890  62.9634530
 118.7594130 106.7200280  69.2248620 118.4263510 107.3469200  69.8669690
 118.9360810 107.2462160  68.4450290 127.2728040 100.5345360  66.6924960
 126.5683610 100.8230250  67.2728070 127.6340200 101.3445470  66.3324520
 117.1906610  98.7915060  69.0545570 117.5323420  99.6357110  68.7599440
 116.2522420  98.9398800  69.1710910 117.9713230 108.6881080  71.0397800
 118.5887230 109.3632160  70.7582250 117.1106350 109.0969060  70.9485300
 113.2645570 107.8780940  59.9204650 112.8873550 108.3668040  59.1889550
 113.5218640 108.5506220  60.5511180 130.3414960  99.9800150  67.0834170
 129.3939870 100.0139130  67.2149600 130.6664950 100.7939100  67.4683530
 120.8734500  96.2797330  65.3790160 121.1809480  95.7244220  64.6625660
 119.9435200  96.4141790  65.1963150 126.4249560 111.9964620  67.6697620
 126.4376720 111.5926910  66.8019880 125.8724780 112.7711910  67.5659050
 127.7194980 108.7180840  62.7587790 127.6091310 107.7755170  62.8837210
 127.7163230 109.0796480  63.6450550 123.2615260 104.3446160  62.1150280
 122.3344540 104.2783540  62.3438750 123.4140080 105.2826290  62.0005520
 123.2484340 100.6163160  59.1117440 122.3088010 100.7777120  59.1969900
 123.5667600 101.3348840  58.5653430 126.7339110 102.0851000  70.0351340
 126.3210290 102.9104710  70.2891330 126.0015060 101.4996040  69.8427700
 118.8671900 104.8710900  64.8970010 118.4628900 104.1588150  64.4015910
 118.9535020 104.5264140  65.7858050 119.3353600 108.5578460  67.0609220
 119.0381890 107.9523930  66.3817000 120.2853420 108.5955770  66.9498580
 117.5800520 101.6454110  68.6769050 118.1315110 101.7549450  67.9022300
 118.0944030 102.0191710  69.3924280 127.4239210 112.1310330  70.7232320
 126.9469770 112.9382520  70.5304930 126.7401000 111.4788660  70.8758530
 118.4272030 108.2960150  73.7117020 117.5300560 108.5200120  73.9590420
 118.4524900 108.4195090  72.7628420 125.4677250 105.1453270  59.6258280
 125.9070530 104.3075700  59.4796100 126.1805670 105.7782670  59.7122420
 117.2543250 105.1673470  72.2874390 117.1151020 106.0396270  72.6561790
 116.3724610 104.8246280  72.1422330 123.5772630 110.0849340  63.5939520
 124.0168540 110.8273670  63.1794910 123.5159520 110.3275910  64.5178480
 119.0523600 111.1095170  74.4959540 119.0239030 111.5138120  73.6287970
 118.8888570 110.1805530  74.3331140 115.5676530 103.7655880  62.3976660
 115.4474130 104.4917970  61.7857930 115.2577420 102.9958790  61.9204570
 131.0038420 111.8922270  75.7923710 131.4798140 112.3705160  76.4712790
 131.6245580 111.8239760  75.0669210 113.2061900 106.9371020  68.2045300
 113.2842320 107.0719790  67.2601020 113.8203580 106.2286910  68.3973420
 114.4509530 108.6371210  64.6151480 114.0437610 108.7785800  63.7605080
 115.3422540 108.3531370  64.4122690 130.4071670 109.0835120  72.9523720
 130.5334730 108.8447000  72.0340900 130.4493050 108.2519660  73.4245800
 124.2688410 112.7863120  71.5218530 124.7833080 112.6971130  72.3240960
 123.4257490 113.1322820  71.8146440 126.2442810 113.0718460  60.9502530
 126.0843950 112.7821400  61.8484360 126.0789520 112.2958590  60.4147760
 118.7231190 112.8516990  62.7274150 118.5473670 111.9352530  62.5141950
 117.8686930 113.2104280  62.9671950 125.9468940 110.5806020  59.5100530
 125.2534100 110.5783310  58.8502810 126.6891800 110.1565340  59.0794700
 125.5118870 112.2068730  63.5849020 125.9675820 111.4258110  63.8987640
 125.8511390 112.9175550  64.1290200 130.2595680 101.1367580  73.9173460
 129.6439950 101.6447250  73.3888920 129.9392100 100.2365910  73.8599400
 113.2621420 107.9785190  70.7439760 113.4252460 107.5090550  69.9259130
 113.7273870 107.4708750  71.4088600 122.3210000  99.9759470  71.3835650
 121.8589370 100.1842490  72.1955590 121.9188110  99.1618820  71.0806320
 127.3214510 101.1968420  72.5132310 126.4708100 100.8974170  72.8341380
 127.1616300 101.4410430  71.6016130 124.4164220 102.6970170  74.6131100
 124.7417630 101.8633920  74.2733330 125.2044550 103.2198690  74.7609430
 121.1499010  96.7301650  60.6606160 120.5253190  96.7261520  61.3859470
 121.0629130  95.8632610  60.2642130 120.0716090  97.6538280  67.6389930
 120.3688420  98.5601110  67.5581950 120.6201650  97.1657060  67.0249500
 117.8254410 102.2324520  63.5081580 117.5995330 102.0161690  64.4128200
 117.0446940 102.6652980  63.1627550 125.0552170 102.2387890  62.1072230
 124.4561060 102.9623690  61.9235850 125.6031780 102.1764670  61.3248680
 123.6617040 100.8751430  64.1375510 124.0546610 101.1923630  63.3244200
 124.0233890  99.9963310  64.2520030 121.9709210  99.6258740  75.3972370
 121.2807530  99.4330940  76.0318460 122.7141510  99.9093380  75.9296670
 112.6981210  97.4652230  66.3605710 112.4094260  98.0355090  67.0730690
 113.4426970  96.9856680  66.7236940 112.8851440 101.4072350  57.5708430
 112.8026110 102.3503110  57.7123420 112.5334500 101.2647260  56.6920780
 124.2472180 103.4657180  68.2326290 123.5153300 103.9743990  68.5816390
 123.8496520 102.6487160  67.9315070 120.6849570 100.1411380  66.6378780
 120.6885630  99.7001330  65.7883320 121.5800690 100.4628710  66.7450600
 120.7469720 101.1423460  59.6285540 120.8682540 101.1009940  60.5771360
 120.3618230 102.0047610  59.4732270 124.7098090  98.9190860  67.6449230
 124.7270830  99.3699510  68.4891080 124.4613670  98.0196500  67.8582670
 119.7591220 103.4524600  59.0268840 119.1908120 103.0042850  58.4004750
 120.4680220 103.8117380  58.4933990 128.1368840  96.3323040  73.4835610
 128.4614610  95.6012700  74.0093590 128.1725350  96.0136680  72.5816600
 114.8360400 107.3536620  72.9035570 114.4515190 106.7130290  73.5018530
 115.1472590 108.0572740  73.4730300 120.9857540 104.2013160  68.3844190
 121.3527670 103.7271730  69.1305530 120.7962600 105.0754730  68.7252530
 118.7756910 103.2421800  70.7028400 118.4713980 104.1213780  70.9278760
 119.7303370 103.3021590  70.7385840 117.3038700 107.4482790  61.2995250
 116.5300960 106.9080410  61.1393970 118.0333330 106.9289400  60.9613010
 123.5236620  97.8386110  61.2351030 122.7101230  97.3399280  61.1596340
 123.3298570  98.6784360  60.8187380 126.2385010 102.2105760  59.5313190
 127.1264630 102.5222990  59.3564530 126.2090100 101.3378010  59.1393770
 117.3476100 107.1163170  64.9374060 117.8654770 106.3131430  64.8830950
 116.8960120 107.0542310  65.7790890 122.2345600 108.3829450  60.2101360
 122.5761300 109.1271680  59.7144680 121.4058310 108.6960570  60.5726190
 114.8320640 104.0824540  71.8499760 114.4735580 104.7478390  72.4373100
 114.5375200 103.2508090  72.2212380 128.5099280 103.5217600  58.9993050
 128.4263000 103.9531820  58.1489490 129.2293470 103.9815950  59.4319870
 129.5873420 105.9785120  72.0763020 128.8621610 106.5713900  71.8792410
 130.1148880 105.9708660  71.2776390 129.5386530 110.3759860  61.7275180
 128.8962690 109.7215480  62.0018900 129.1517190 110.7814950  60.9515850
 121.2036290 108.4642980  62.9817280 121.8907420 109.0112190  63.3624870
 120.4168710 109.0083710  63.0166890 113.3428690 104.0815800  58.4734360
 114.2123540 104.3640600  58.7570280 112.8519010 104.8951670  58.3583170
 120.5063500 105.4689010  62.5942640 120.9626280 106.2794260  62.8202830
 120.1551710 105.1512150  63.4261130 127.9283910 109.2676320  58.2651530
 127.7021490 108.5506760  58.8576170 127.5380110 109.0188760  57.4273280
 113.7099940 113.2943180  59.0395990 114.0697580 113.8932520  58.3853260
 113.5692280 113.8403070  59.8131020 127.5100160 107.1848260  59.9265690
 127.2221860 107.6460950  60.7143570 128.3052330 106.7246030  60.1949910
 113.6941800 111.5598040  73.5138390 113.8032920 110.6192780  73.3733780
 113.0422360 111.8252790  72.8652120 121.6854390 109.8313930  74.9136510
 121.3651260 109.1123170  75.4582200 121.0112750 110.5069000  74.9872570
 119.7268560 110.6774380  59.8569660 119.7178660 111.4104070  59.2414170
 118.8066920 110.4305960  59.9496620 115.3275200 105.8989270  60.6016420
 114.7203150 106.6388170  60.6111720 115.8024550 105.9888630  59.7754620
 124.9007990 100.0640090  70.2773310 125.2688810  99.2435300  70.6052880
 124.0406190 100.1241980  70.6928960 128.2670020  99.0197030  61.0860870
 127.6383180  99.1242700  60.3719100 127.7721940  99.2393810  61.8754750
 120.2354050 101.2982980  62.5018750 119.5270200 101.7669320  62.9432360
 120.5198530 100.6404990  63.1363940 121.8609980 102.7179680  70.5011280
 122.3595230 103.1925500  71.1663130 122.0032930 101.7943200  70.7081310
 124.2669480  98.0233640  63.9414540 124.1437260  98.0419770  62.9924050
 125.2154040  98.0712580  64.0612940 121.3546270 113.2588940  63.2142520
 121.6087770 113.2210330  62.2921890 120.4058750 113.1322270  63.2070770
 118.4389070  99.6068060  59.8769460 119.2879600 100.0438210  59.8109650
 118.0720340  99.9188320  60.7041520 129.0676840  98.9347640  71.3439670
 128.5650440  99.6753040  71.6833480 129.8833500  99.3231640  71.0276460
 117.3380490 105.8600420  58.3504990 118.1043760 105.7481780  58.9130420
 117.4155180 105.1638390  57.6981760 116.0327250 103.2925490  59.0337880
 116.1130840 102.3453000  59.1455280 116.9247000 103.6232370  59.1398540
 129.3624430 111.3489670  66.4655290 129.4871850 112.1720840  66.9379100
 130.2289990 111.1380400  66.1179440 116.8341960 113.4420880  66.1372420
 117.5704440 112.8936340  66.4080990 117.2182880 114.3076890  65.9978410
 113.7187440 109.5094450  62.0113930 112.7927220 109.7515590  62.0019340
 114.1843870 110.3368710  61.8898680 115.8400240 112.6266950  75.3258000
 116.6412970 112.9479000  75.7393400 115.3252060 112.2662530  76.0477910
 124.6764870 108.7346820  75.2733410 124.0703030 108.7578420  74.5329160
 124.3718980 108.0029860  75.8100660 126.1065240 112.4627110  73.8842820
 127.0586990 112.3785130  73.8343060 125.9593460 113.1268820  74.5576610
 128.9974440 111.8421320  59.3834730 128.7115950 111.4286460  58.5688910
 128.7993990 112.7709030  59.2635250 120.4621670 107.8354600  57.8240340
 120.3572310 107.2206950  58.5501720 120.2945890 107.3120490  57.0403350
 120.6135990 106.5211400  73.8029570 119.8481660 107.0896400  73.7184240
 120.7951950 106.2287610  72.9097800 123.7024400 106.8974630  58.4282330
 123.1534500 107.3443930  59.0725070 124.3243660 106.3923880  58.9520000
 127.7559340 108.2516730  74.3604590 128.4968810 108.5892490  73.8572050
 126.9932020 108.4208790  73.8074360 119.3699520 105.8565550  60.3247630
 119.7915940 105.6905420  61.1679020 119.4950360 105.0465780  59.8302770
 117.5326940 101.8362100  73.1318610 117.0023400 101.3453050  72.5041950
 118.2015010 102.2646300  72.5976540 121.8827160 104.8803160  57.5724730
 122.4032820 104.1652180  57.2065880 122.5295560 105.5189030  57.8725240
 126.9027170 103.6427720  74.8998950 127.4847940 102.8880040  74.8119430
 127.0788940 104.1735160  74.1230430 120.7860680  97.3597710  70.2443290
 120.3377980  97.3821970  69.3988840 120.1525880  96.9616730  70.8413590
 118.2658420 101.9298780  57.2705790 118.0647480 101.0666140  57.6319130
 118.0950470 101.8432140  56.3327390 119.0427650 112.5605050  71.9813460
 118.5048740 113.2851110  71.6622160 119.2961610 112.0835390  71.1910800
 120.2952900 100.5289570  73.5069390 120.8852590 100.2205420  74.1947210
 119.4773140 100.0569320  73.6629290 125.1146330 100.1455380  73.7402410
 124.4261850  99.4836920  73.6752400 125.8352350  99.6993650  74.1850870
 125.7446730  96.7407010  59.7992670 126.0249020  95.8974910  60.1552090
 124.9712460  96.9730120  60.3131420 117.0641220  99.0299400  57.2583670
 117.3667120  99.0366830  56.3502820 117.8035810  98.6797260  57.7551330
 121.8989860 113.7956260  72.2400110 121.8248560 114.6991400  72.5472480
 120.9968700 113.4768160  72.2122180 120.2826150  97.9734020  58.2439870
 119.9348150  97.2958010  57.6642320 120.4838920  97.5123530  59.0583260
 116.0871350 108.3341820  58.0913470 116.5246220 108.8771490  58.7471050
 116.5719080 107.5088770  58.1009810 117.8979070 109.4539860  63.2035700
 117.5974610 109.3304830  64.1039610 117.7916560 108.5948450  62.7951430
 113.7907360 111.9901440  68.2815360 113.3538350 112.1702240  69.1139510
 114.3585040 112.7476060  68.1397080 129.4269540 111.4918440  72.5692670
 128.8271530 111.5511000  71.8256590 129.5563440 110.5523420  72.6989520
 130.6670990 109.2336260  57.9062380 129.8363950 109.3012910  58.3769610
 130.8442820 110.1240380  57.6029240 130.1227450 105.9783740  60.4096580
 130.8846360 106.5480390  60.5156270 130.1381820 105.4110940  61.1804890
 113.6231790 104.5021670  64.6404240 112.9680630 104.2333310  63.9963940
 114.4609740 104.3926150  64.1906220 130.1746620 106.2718110  57.5669100
 130.4495460 107.1796990  57.4388320 129.9857360 106.2080640  58.5031090
 126.5722230  99.2962960  58.8622730 126.9907110  99.1093940  58.0219390
 126.2658290  98.4442010  59.1725660 114.6607720 104.8874240  69.1807580
 115.0280760 104.8001640  70.0603600 114.0918540 104.1240790  69.0814440
 129.4611580 103.3558620  72.1938050 129.2297670 103.1271370  71.2936000
 129.7216130 104.2758170  72.1482940 114.2123720 101.7983330  73.0866000
 113.3179770 101.7650090  73.4259710 114.7521270 101.9970120  73.8517250
 127.8999650  98.5815050  74.9717750 128.7769830  98.5898450  75.3551750
 127.9120490  97.8445890  74.3610100 112.8369870 101.7120600  60.5829570
 111.9333950 101.9750800  60.4081230 113.3210490 101.9831770  59.8029530
 115.3797080 100.7686140  58.4923950 116.0888780 100.3469360  58.0071230
 114.6637020 100.8361370  57.8607300 115.0271240  96.8225470  57.5326600
 115.7499370  97.3634410  57.8507820 115.2995760  96.5488890  56.6568140
 128.8362890 101.6917940  61.7998180 129.3322010 101.4588810  62.5847060
 128.6378960 100.8529780  61.3835820 130.2650050 100.3278890  64.3335860
 130.1549330 100.1734930  65.2718130 131.0257640  99.7999830  64.0911270
 128.6115770  96.2673020  70.7918860 129.2487990  96.8807160  71.1578050
 128.7590660  96.3033680  69.8468090 131.2278810  98.9297470  60.1998710
 130.4330310  98.8642590  60.7291620 131.4322090  99.8648110  60.1884060
 128.1697230 112.9689020  64.1937100 128.7656300 112.6473590  63.5171520
 128.4275380 112.4960840  64.9850370 114.4695430  96.2287330  70.1774540
 114.1210250  96.6851150  70.9432720 114.1383130  95.3344460  70.2596970
 116.0759800 109.4006930  74.3427730 116.0329430 109.0299840  75.2242190
 116.2070810 110.3384500  74.4829550 119.7765830 110.9566520  69.9437450
 119.5357190 111.2241080  69.0567970 120.7168470 111.1272250  69.9988310
 121.9820250  97.4199210  73.6993960 121.9209140  98.0121040  74.4489370
 122.9220630  97.3125170  73.5544220 124.6194810  97.0769270  73.3386250
 125.2335220  97.3948560  72.6767330 125.1644370  96.5917860  73.9582110
 131.0369990 112.9760900  70.7448090 130.5428270 113.3729770  70.0275220
 130.4283280 112.3510110  71.1385370 115.9147830 112.3469180  71.4625510
 115.3208150 112.2153880  72.2015550 115.9071670 111.5107320  70.9967610
 125.3602850  95.6401410  69.6655540 124.4862690  95.9736520  69.4628470
 125.2513600  95.1674590  70.4907410 126.2674830  97.8472280  71.0497260
 125.9388190  97.0324040  70.6698990 127.2157130  97.8042090  70.9262950
 128.7209440 113.6184320  68.0234830 128.2612410 114.3700130  67.6492850
 128.0921900 112.8990790  67.9649630 115.5460060 109.7127560  70.4133550
 114.8194120 109.0932850  70.3459500 115.6069210 110.1068170  69.5431630
 119.1505160 111.9272560  67.1982960 119.6670180 111.3159920  66.6731220
 119.8002540 112.4301340  67.6893970 121.8900660 112.8181050  68.0251940
 122.1778470 112.5635350  67.1484950 122.4023880 112.2658410  68.6157510
 123.1077670  96.5571250  68.6048450 122.3249460  97.0316750  68.8845210
 122.8140600  95.6526080  68.4961630 127.6598740  97.2594350  66.6497540
 128.1006830  97.2039450  65.8019140 127.3906330  98.1752360  66.7207720
 129.5237310  96.8909590  64.6606360 129.4625710  95.9470810  64.5137380
 130.3029340  96.9989680  65.2059820 113.8290060 113.0301950  63.6230310
 113.6612100 112.3972630  64.3212200 112.9624570 113.2361350  63.2724500
 125.4956870  95.6400450  65.3547550 126.0986240  96.2120660  65.8296070
 124.7549860  96.2039890  65.1321450 128.6391470  96.0422010  60.6287830
 128.8342100  96.9405460  60.8955260 127.8521340  95.8109090  61.1220780
 115.4352760 111.7235180  61.0680450 114.9100380 112.1043210  60.3642410
 115.3597340 112.3485950  61.7890160 121.9573020 113.7397150  75.3920140
 122.8840330 113.5041420  75.4356100 121.9423450 114.5669150  74.9106170
 130.1918080 113.2822720  62.3894390 130.3670270 112.5960460  61.7455310
 129.4939650 113.8069770  61.9971060 119.1436630  96.4041900  75.1562020
 118.8620900  96.9075500  74.3922840 119.5256330  95.6063650  74.7904150
 117.1960520 109.7882290  59.9476030 116.5669400 110.2567390  60.4961860
 117.3108350 108.9431510  60.3822220 125.7452090  95.8195480  75.7342490
 125.6317540  96.1390090  76.6294010 126.5621830  96.2207990  75.4379770
 128.5250580 112.9667010  75.2161180 129.3175900 112.4716240  75.0087140
 128.8183730 113.6457150  75.8236790 124.6510240 103.8387950  46.0977230
 124.5704290 102.9242560  45.8268940 124.2374660 104.3355020  45.3916940
 122.7828280 105.6166970  47.9786500 122.0070380 105.1367410  48.2685070
 123.4341210 104.9372620  47.8042660 126.8035710 110.0227160  46.7585630
 126.3417240 109.2514400  47.0872800 127.6161260 110.0493230  47.2638080
 116.7795370 109.9626870  49.0520280 117.0823410 109.0724610  48.8730500
 117.5238960 110.5197090  48.8242530 115.2086060 100.8888670  42.6404650
 114.3202760 101.2304640  42.5384530 115.4927250 100.6888990  41.7485480
 113.1719070 103.4894320  48.5244350 113.7435180 102.7216520  48.5247990
 113.1720610 103.7883080  47.6150960 123.0299020 112.3085170  46.3789620
 122.4110460 112.7642670  45.8084060 123.8850800 112.4636630  45.9779320
 122.2237270 108.2924160  47.9856660 122.1545550 107.3514100  47.8245790
 122.9857130 108.3825570  48.5579230 114.4143940  98.8978680  50.3113280
 114.2346780  98.0004430  50.5916040 114.0124020  99.4450550  50.9860230
 123.2542440 101.0994540  48.2125590 123.6307260 100.2266420  48.0999260
 123.1561950 101.4353240  47.3216030 117.3847450  99.4720170  43.6743030
 117.4914200 100.3723900  43.9811790 116.4739810  99.4238140  43.3837680
 127.0366560  98.5944980  45.1453930 127.8576180  98.1041550  45.1879410
 127.0700640  99.1842640  45.8985770 115.0330610 101.3939180  48.9195620
 115.7140720 101.6577550  49.5383020 114.7178660 100.5540050  49.2533630
 119.2255180 102.4406540  48.0068210 119.7333400 102.9387510  48.6473230
 119.7568420 101.6641740  47.8307570 131.3266110 100.6111730  51.7097560
 130.6218280 100.9993440  51.1912670 131.5924030 101.3062020  52.3118490
 117.5091280  97.0805100  52.2731630 117.5109720  97.5977490  51.4677530
 116.6795590  96.6035280  52.2501560 123.8962370 107.1924410  43.7721530
 123.2779640 107.6573860  43.2084250 124.4085620 107.8851890  44.1891040
 118.7594130 106.7200280  50.4505130 118.4263510 107.3469200  51.0926200
 118.9360810 107.2462160  49.6706800 127.2728040 100.5345360  47.9181470
 126.5683610 100.8230250  48.4984580 127.6340200 101.3445470  47.5581030
 117.9713230 108.6881080  52.2654310 118.5887230 109.3632160  51.9838760
 117.1106350 109.0969060  52.1741810 113.2645570 107.8780940  41.1461160
 112.8873550 108.3668040  40.4146060 113.5218640 108.5506220  41.7767690
 128.8890820 110.1520490  50.1808950 128.2054340 110.8219600  50.1725620
 129.4285110 110.3501140  49.4153810 130.3414960  99.9800150  48.3090680
 129.3939870 100.0139130  48.4406110 130.6664950 100.7939100  48.6940040
 126.4249560 111.9964620  48.8954130 126.4376720 111.5926910  48.0276390
 125.8724780 112.7711910  48.7915560 127.7194980 108.7180840  43.9844300
 127.6091310 107.7755170  44.1093720 127.7163230 109.0796480  44.8707060
 125.8235000 106.8994460  50.2236740 126.2403790 106.6854570  49.3890200
 126.5474820 107.1567250  50.7945360 123.2615260 104.3446160  43.3406790
 122.3344540 104.2783540  43.5695260 123.4140080 105.2826290  43.2262030
 129.7697100 105.2981680  50.3152980 128.9415730 105.3674770  49.8403110
 130.3647580 105.8835990  49.8468810 127.2912550 105.9066460  43.8442040
 126.6724970 105.5686010  43.1968340 127.2737000 105.2626220  44.5521230
 126.7339110 102.0851000  51.2607850 126.3210290 102.9104710  51.5147840
 126.0015060 101.4996040  51.0684210 117.5800520 101.6454110  49.9025560
 118.1315110 101.7549450  49.1278810 118.0944030 102.0191710  50.6180790
 127.4239210 112.1310330  51.9488830 126.9469770 112.9382520  51.7561440
 126.7401000 111.4788660  52.1015040 125.4677250 105.1453270  40.8514790
 125.9070530 104.3075700  40.7052610 126.1805670 105.7782670  40.9378930
 117.2543250 105.1673470  53.5130900 117.1151020 106.0396270  53.8818300
 116.3724610 104.8246280  53.3678840 123.5772630 110.0849340  44.8196030
 124.0168540 110.8273670  44.4051420 123.5159520 110.3275910  45.7434990
 129.0494390  96.3996080  39.1655830 128.7367050  96.4922910  40.0654900
 129.8106860  96.9777110  39.1153260 131.0038420 111.8922270  57.0180220
 131.4798140 112.3705160  57.6969300 131.6245580 111.8239760  56.2925720
 114.4509530 108.6371210  45.8407990 114.0437610 108.7785800  44.9861590
 115.3422540 108.3531370  45.6379200 130.4071670 109.0835120  54.1780230
 130.5334730 108.8447000  53.2597410 130.4493050 108.2519660  54.6502310
 124.2688410 112.7863120  52.7475040 124.7833080 112.6971130  53.5497470
 123.4257490 113.1322820  53.0402950 126.2442810 113.0718460  42.1759040
 126.0843950 112.7821400  43.0740870 126.0789520 112.2958590  41.6404270
 118.7231190 112.8516990  43.9530660 118.5473670 111.9352530  43.7398460
 117.8686930 113.2104280  44.1928460 125.9468940 110.5806020  40.7357040
 125.2534100 110.5783310  40.0759320 126.6891800 110.1565340  40.3051210
 125.5118870 112.2068730  44.8105530 125.9675820 111.4258110  45.1244150
 125.8511390 112.9175550  45.3546710 130.2595680 101.1367580  55.1429970
 129.6439950 101.6447250  54.6145430 129.9392100 100.2365910  55.0855910
 122.3210000  99.9759470  52.6092160 121.8589370 100.1842490  53.4212100
 121.9188110  99.1618820  52.3062830 127.3214510 101.1968420  53.7388820
 126.4708100 100.8974170  54.0597890 127.1616300 101.4410430  52.8272640
 124.4164220 102.6970170  55.8387610 124.7417630 101.8633920  55.4989840
 125.2044550 103.2198690  55.9865940 121.1499010  96.7301650  41.8862670
 120.5253190  96.7261520  42.6115980 121.0629130  95.8632610  41.4898640
 125.0552170 102.2387890  43.3328740 124.4561060 102.9623690  43.1492360
 125.6031780 102.1764670  42.5505190 120.2653620 103.1310100  55.3998360
 120.1697220 102.1904830  55.2498760 121.1085600 103.3525170  55.0046430
 123.6617040 100.8751430  45.3632020 124.0546610 101.1923630  44.5500710
 124.0233890  99.9963310  45.4776540 115.3964160  99.5423770  53.5532140
 115.0027550 100.3898980  53.7604920 114.7082560  98.9050140  53.7440780
 121.9709210  99.6258740  56.6228880 121.2807530  99.4330940  57.2574970
 122.7141510  99.9093380  57.1553180 112.6981210  97.4652230  47.5862220
 112.4094260  98.0355090  48.2987200 113.4426970  96.9856680  47.9493450
 124.2472180 103.4657180  49.4582800 123.5153300 103.9743990  49.8072900
 123.8496520 102.6487160  49.1571580 120.6849570 100.1411380  47.8635290
 120.6885630  99.7001330  47.0139830 121.5800690 100.4628710  47.9707110
 116.5351950 100.0237870  46.8229500 116.1952000 100.5013100  47.5796550
 115.7729270  99.5702990  46.4630600 124.7098090  98.9190860  48.8705740
 124.7270830  99.3699510  49.7147590 124.4613670  98.0196500  49.0839180
 120.9857540 104.2013160  49.6100700 121.3527670 103.7271730  50.3562040
 120.7962600 105.0754730  49.9509040 113.8498030  98.9456850  45.7394170
 113.5644950  98.5812520  46.5772790 113.7876890  98.2137310  45.1257310
 118.7756910 103.2421800  51.9284910 118.4713980 104.1213780  52.1535270
 119.7303370 103.3021590  51.9642350 128.0626680 106.4448150  48.3178150
 128.7825800 106.9403440  47.9274260 127.8608500 105.7666040  47.6732020
 123.5236620  97.8386110  42.4607540 122.7101230  97.3399280  42.3852850
 123.3298570  98.6784360  42.0443890 123.4445480 106.5157210  54.2047150
 123.3782790 105.5952880  53.9504740 122.8150620 106.6132650  54.9191790
 126.2385010 102.2105760  40.7569700 127.1264630 102.5222990  40.5821040
 126.2090100 101.3378010  40.3650280 122.2345600 108.3829450  41.4357870
 122.5761300 109.1271680  40.9401190 121.4058310 108.6960570  41.7982700
 114.8320640 104.0824540  53.0756270 114.4735580 104.7478390  53.6629610
 114.5375200 103.2508090  53.4468890 118.0333760 104.5408780  55.9595820
 117.7333900 104.6865960  55.0623640 118.8045000 103.9814070  55.8669210
 123.3762210 109.3377780  53.9550950 123.3906750 108.4058740  53.7369860
 122.6687310 109.4237540  54.5940720 128.5099280 103.5217600  40.2249560
 128.4263000 103.9531820  39.3746000 129.2293470 103.9815950  40.6576380
 129.5873420 105.9785120  53.3019530 128.8621610 106.5713900  53.1048920
 130.1148880 105.9708660  52.5032900 129.5386530 110.3759860  42.9531690
 128.8962690 109.7215480  43.2275410 129.1517190 110.7814950  42.1772360
 125.1173010 107.7045290  46.8003380 125.4696830 107.1073420  46.1404750
 124.2335340 107.3789520  46.9711630 113.3428690 104.0815800  39.6990870
 114.2123540 104.3640600  39.9826790 112.8519010 104.8951670  39.5839680
 122.8096110 110.9795350  51.0491450 123.4538330 111.1854730  51.7264870
 123.1725550 110.2183750  50.5962300 124.0828190 108.9827700  49.7668900
 124.7250420 108.2820860  49.8801070 124.6077540 109.7626140  49.5865790
 127.9283910 109.2676320  39.4908040 127.7021490 108.5506760  40.0832680
 127.5380110 109.0188760  38.6529790 125.8565810 109.7822600  52.9704960
 126.1922050 110.3689290  53.6482880 124.9366150 109.6515310  53.2002750
 113.7099940 113.2943180  40.2652500 114.0697580 113.8932520  39.6109770
 113.5692280 113.8403070  41.0387530 113.4069210  97.5717780  53.7528370
 112.6927730  97.7714700  54.3580980 113.8264250  96.7957350  54.1243170
 127.5100160 107.1848260  41.1522200 127.2221860 107.6460950  41.9400080
 128.3052330 106.7246030  41.4206420 119.7268560 110.6774380  41.0826170
 119.7178660 111.4104070  40.4670680 118.8066920 110.4305960  41.1753130
 124.9007990 100.0640090  51.5029820 125.2688810  99.2435300  51.8309390
 124.0406190 100.1241980  51.9185470 128.2670020  99.0197030  42.3117380
 127.6383180  99.1242700  41.5975610 127.7721940  99.2393810  43.1011260
 122.7128160 110.7402620  39.7451360 122.8140140 110.5366610  38.8153340
 121.8129900 110.4860900  39.9499140 121.8609980 102.7179680  51.7267790
 122.3595230 103.1925500  52.3919640 122.0032930 101.7943200  51.9337820
 124.2669480  98.0233640  45.1671050 124.1437260  98.0419770  44.2180560
 125.2154040  98.0712580  45.2869450 121.3546270 113.2588940  44.4399030
 121.6087770 113.2210330  43.5178400 120.4058750 113.1322270  44.4327280
 127.3598850 104.1780820  46.0157540 126.4188990 104.1931050  46.1905230
 127.6742920 103.3916780  46.4617840 129.3624430 111.3489670  47.6911800
 129.4871850 112.1720840  48.1635610 130.2289990 111.1380400  47.3435950
 113.7187440 109.5094450  43.2370440 112.7927220 109.7515590  43.2275850
 114.1843870 110.3368710  43.1155190 119.9444270 112.6151190  39.1854500
 120.7372880 112.9040020  38.7336290 119.4248620 112.1843360  38.5066980
 124.6764870 108.7346820  56.4989920 124.0703030 108.7578420  55.7585670
 124.3718980 108.0029860  57.0357170 126.1065240 112.4627110  55.1099330
 127.0586990 112.3785130  55.0599570 125.9593460 113.1268820  55.7833120
 128.9974440 111.8421320  40.6091240 128.7115950 111.4286460  39.7945420
 128.7993990 112.7709030  40.4891760 113.5598050 105.1140410  55.4950560
 114.0637070 104.5347690  56.0666790 112.8205470 105.3980640  56.0326930
 120.4621670 107.8354600  39.0496850 120.3572310 107.2206950  39.7758230
 120.2945890 107.3120490  38.2659860 120.6135990 106.5211400  55.0286080
 119.8481660 107.0896400  54.9440750 120.7951950 106.2287610  54.1354310
 123.7024400 106.8974630  39.6538840 123.1534500 107.3443930  40.2981580
 124.3243660 106.3923880  40.1776510 127.7559340 108.2516730  55.5861100
 128.4968810 108.5892490  55.0828560 126.9932020 108.4208790  55.0330870
 115.5921130 103.2570000  56.3900630 115.6326470 102.9583870  57.2985860
 116.4466630 103.6577610  56.2308150 117.5326940 101.8362100  54.3575120
 117.0023400 101.3453050  53.7298460 118.2015010 102.2646300  53.8233050
 126.4305000 106.3031560  54.1216310 126.8446020 106.4576640  54.9706730
 125.4956000 106.4286780  54.2842090 126.9027170 103.6427720  56.1255460
 127.4847940 102.8880040  56.0375940 127.0788940 104.1735160  55.3486940
 118.0199240  98.8024470  54.4372410 117.9256110  98.1845220  53.7123280
 117.4396630  99.5290760  54.2102320 120.7860680  97.3597710  51.4699800
 120.3377980  97.3821970  50.6245350 120.1525880  96.9616730  52.0670100
 121.1920230 106.2552040  52.0912240 121.6108340 107.0984770  51.9188480
 120.2728860 106.3924080  51.8619020 123.5284130 103.9868220  53.4750080
 123.6480340 103.3909360  54.2144920 124.3878130 104.0237910  53.0551380
 125.8672030 104.5405410  52.0512590 125.3407250 105.0648030  51.4477730
 126.2103370 105.1732800  52.6822320 120.2952900 100.5289570  54.7325900
 120.8852590 100.2205420  55.4203720 119.4773140 100.0569320  54.8885800
 125.1146330 100.1455380  54.9658920 124.4261850  99.4836920  54.9008910
 125.8352350  99.6993650  55.4107380 125.7446730  96.7407010  41.0249180
 126.0249020  95.8974910  41.3808600 124.9712460  96.9730120  41.5387930
 122.4475190 112.9614770  41.0882980 123.3425980 113.2999740  41.1101740
 122.4792820 112.2394180  40.4607260 116.0871350 108.3341820  39.3169980
 116.5246220 108.8771490  39.9727560 116.5719080 107.5088770  39.3266320
 129.4269540 111.4918440  53.7949180 128.8271530 111.5511000  53.0513100
 129.5563440 110.5523420  53.9246030 130.6670990 109.2336260  39.1318890
 129.8363950 109.3012910  39.6026120 130.8442820 110.1240380  38.8285750
 130.1227450 105.9783740  41.6353090 130.8846360 106.5480390  41.7412780
 130.1381820 105.4110940  42.4061400 113.6231790 104.5021670  45.8660750
 112.9680630 104.2333310  45.2220450 114.4609740 104.3926150  45.4162730
 131.1287420 106.8333840  46.4795020 131.4996250 106.0501160  46.0730990
 131.7689350 107.5222940  46.3012320 128.1121180 108.2170420  51.8925340
 127.2981020 108.6467580  52.1551130 128.5195380 108.8288830  51.2794390
 130.1746620 106.2718110  38.7925610 130.4495460 107.1796990  38.6644830
 129.9857360 106.2080640  39.7287600 126.5722230  99.2962960  40.0879240
 126.9907110  99.1093940  39.2475900 126.2658290  98.4442010  40.3982170
 130.0711960 104.2087100  43.7855040 129.6955560 103.4415030  43.3536330
 129.3415080 104.5909800  44.2729970 129.4611580 103.3558620  53.4194560
 129.2297670 103.1271370  52.5192510 129.7216130 104.2758170  53.3739450
 114.2123720 101.7983330  54.3122510 113.3179770 101.7650090  54.6516220
 114.7521270 101.9970120  55.0773760 112.8369870 101.7120600  41.8086080
 111.9333950 101.9750800  41.6337740 113.3210490 101.9831770  41.0286040
 129.3462920 102.4344590  47.0862280 129.8700400 101.9407240  46.4552450
 129.9322340 102.5694950  47.8309850 129.5252640 102.5184460  50.6081830
 128.5755350 102.4848000  50.7226820 129.7065650 103.4284570  50.3731600
 128.8362890 101.6917940  43.0254690 129.3322010 101.4588810  43.8103570
 128.6378960 100.8529780  42.6092330 130.2650050 100.3278890  45.5592370
 130.1549330 100.1734930  46.4974640 131.0257640  99.7999830  45.3167780
 131.1540320  98.1586810  38.7998510 132.0789630  98.0267990  38.5916800
 131.1316110  98.2379630  39.7534960 131.2278810  98.9297470  41.4255220
 130.4330310  98.8642590  41.9548130 131.4322090  99.8648110  41.4140570
 128.1697230 112.9689020  45.4193610 128.7656300 112.6473590  44.7428030
 128.4275380 112.4960840  46.2106880 114.4695430  96.2287330  51.4031050
 114.1210250  96.6851150  52.1689230 114.1383130  95.3344460  51.4853480
 121.9820250  97.4199210  54.9250470 121.9209140  98.0121040  55.6745880
 122.9220630  97.3125170  54.7800730 124.6194810  97.0769270  54.5642760
 125.2335220  97.3948560  53.9023840 125.1644370  96.5917860  55.1838620
 131.0369990 112.9760900  51.9704600 130.5428270 113.3729770  51.2531730
 130.4283280 112.3510110  52.3641880 115.1416070  95.7563530  54.6781820
 115.6899060  95.5751580  53.9147930 115.2071380  94.9657640  55.2138130
 125.3602850  95.6401410  50.8912050 124.4862690  95.9736520  50.6884980
 125.2513600  95.1674590  51.7163920 128.7209440 113.6184320  49.2491340
 128.2612410 114.3700130  48.8749360 128.0921900 112.8990790  49.1906140
 119.1505160 111.9272560  48.4239470 119.6670180 111.3159920  47.8987730
 119.8002540 112.4301340  48.9150480 121.8900660 112.8181050  49.2508450
 122.1778470 112.5635350  48.3741460 122.4023880 112.2658410  49.8414020
 123.1077670  96.5571250  49.8304960 122.3249460  97.0316750  50.1101720
 122.8140600  95.6526080  49.7218140 127.6598740  97.2594350  47.8754050
 128.1006830  97.2039450  47.0275650 127.3906330  98.1752360  47.9464230
 129.5237310  96.8909590  45.8862870 129.4625710  95.9470810  45.7393890
 130.3029340  96.9989680  46.4316330 114.4518080  96.8618730  42.3518680
 115.2097440  96.9747610  41.7782710 113.9895250  97.6987930  42.3062110
 120.9931890  98.9758000  45.3420990 120.1806400  98.6014890  45.0016870
 121.4973530  98.2203080  45.6442180 125.4956870  95.6400450  46.5804060
 126.0986240  96.2120660  47.0552580 124.7549860  96.2039890  46.3577960
 128.6391470  96.0422010  41.8544340 128.8342100  96.9405460  42.1211770
 127.8521340  95.8109090  42.3477290 115.4352760 111.7235180  42.2936960
 114.9100380 112.1043210  41.5898920 115.3597340 112.3485950  43.0146670
 130.1918080 113.2822720  43.6150900 130.3670270 112.5960460  42.9711820
 129.4939650 113.8069770  43.2227570 119.1436630  96.4041900  56.3818530
 118.8620900  96.9075500  55.6179350 119.5256330  95.6063650  56.0160660
 118.0345730 113.6717560  41.1686210 118.7664550 113.3876840  40.6210100
 118.2939400 113.4330840  42.0585590 117.1960520 109.7882290  41.1732540
 116.5669400 110.2567390  41.7218370 117.3108350 108.9431510  41.6078730
 125.7452090  95.8195480  56.9599000 125.6317540  96.1390090  57.8550520
 126.5621830  96.2207990  56.6636280 128.5250580 112.9667010  56.4417690
 129.3175900 112.4716240  56.2343650 128.8183730 113.6457150  57.0493300
 124.6510240 103.8387950  27.3233740 124.5704290 102.9242560  27.0525450
 124.2374660 104.3355020  26.6173450 122.7828280 105.6166970  29.2043010
 122.0070380 105.1367410  29.4941580 123.4341210 104.9372620  29.0299170
 116.7994110 105.9286780  30.0818770 115.9678990 105.6735490  30.4815280
 117.4075090 105.9997550  30.8176690 126.8035710 110.0227160  27.9842140
 126.3417240 109.2514400  28.3129310 127.6161260 110.0493230  28.4894590
 116.7795370 109.9626870  30.2776790 117.0823410 109.0724610  30.0987010
 117.5238960 110.5197090  30.0499040 115.2086060 100.8888670  23.8661160
 114.3202760 101.2304640  23.7641040 115.4927250 100.6888990  22.9741990
 113.1719070 103.4894320  29.7500860 113.7435180 102.7216520  29.7504500
 113.1720610 103.7883080  28.8407470 123.0299020 112.3085170  27.6046130
 122.4110460 112.7642670  27.0340570 123.8850800 112.4636630  27.2035830
 122.2237270 108.2924160  29.2113170 122.1545550 107.3514100  29.0502300
 122.9857130 108.3825570  29.7835740 114.4143940  98.8978680  31.5369790
 114.2346780  98.0004430  31.8172550 114.0124020  99.4450550  32.2116740
 123.2542440 101.0994540  29.4382100 123.6307260 100.2266420  29.3255770
 123.1561950 101.4353240  28.5472540 117.3847450  99.4720170  24.8999540
 117.4914200 100.3723900  25.2068300 116.4739810  99.4238140  24.6094190
 127.0366560  98.5944980  26.3710440 127.8576180  98.1041550  26.4135920
 127.0700640  99.1842640  27.1242280 115.0330610 101.3939180  30.1452130
 115.7140720 101.6577550  30.7639530 114.7178660 100.5540050  30.4790140
 119.2255180 102.4406540  29.2324720 119.7333400 102.9387510  29.8729740
 119.7568420 101.6641740  29.0564080 131.3266110 100.6111730  32.9354070
 130.6218280 100.9993440  32.4169180 131.5924030 101.3062020  33.5375000
 123.8962370 107.1924410  24.9978040 123.2779640 107.6573860  24.4340760
 124.4085620 107.8851890  25.4147550 118.7594130 106.7200280  31.6761640
 118.4263510 107.3469200  32.3182710 118.9360810 107.2462160  30.8963310
 127.2728040 100.5345360  29.1437980 126.5683610 100.8230250  29.7241090
 127.6340200 101.3445470  28.7837540 117.1906610  98.7915060  31.5058590
 117.5323420  99.6357110  31.2112460 116.2522420  98.9398800  31.6223930
 117.9713230 108.6881080  33.4910820 118.5887230 109.3632160  33.2095270
 117.1106350 109.0969060  33.3998320 113.2645570 107.8780940  22.3717670
 112.8873550 108.3668040  21.6402570 113.5218640 108.5506220  23.0024200
 128.8890820 110.1520490  31.4065460 128.2054340 110.8219600  31.3982130
 129.4285110 110.3501140  30.6410320 130.3414960  99.9800150  29.5347190
 129.3939870 100.0139130  29.6662620 130.6664950 100.7939100  29.9196550
 120.8734500  96.2797330  27.8303180 121.1809480  95.7244220  27.1138680
 119.9435200  96.4141790  27.6476170 126.4249560 111.9964620  30.1210640
 126.4376720 111.5926910  29.2532900 125.8724780 112.7711910  30.0172070
 127.7194980 108.7180840  25.2100810 127.6091310 107.7755170  25.3350230
 127.7163230 109.0796480  26.0963570 125.8235000 106.8994460  31.4493250
 126.2403790 106.6854570  30.6146710 126.5474820 107.1567250  32.0201870
 123.2615260 104.3446160  24.5663300 122.3344540 104.2783540  24.7951770
 123.4140080 105.2826290  24.4518540 123.2484340 100.6163160  21.5630460
 122.3088010 100.7777120  21.6482920 123.5667600 101.3348840  21.0166450
 129.7697100 105.2981680  31.5409490 128.9415730 105.3674770  31.0659620
 130.3647580 105.8835990  31.0725320 127.2912550 105.9066460  25.0698550
 126.6724970 105.5686010  24.4224850 127.2737000 105.2626220  25.7777740
 126.7339110 102.0851000  32.4864360 126.3210290 102.9104710  32.7404350
 126.0015060 101.4996040  32.2940720 118.8671900 104.8710900  27.3483030
 118.4628900 104.1588150  26.8528930 118.9535020 104.5264140  28.2371070
 119.3353600 108.5578460  29.5122240 119.0381890 107.9523930  28.8330020
 120.2853420 108.5955770  29.4011600 117.5800520 101.6454110  31.1282070
 118.1315110 101.7549450  30.3535320 118.0944030 102.0191710  31.8437300
 127.4239210 112.1310330  33.1745340 126.9469770 112.9382520  32.9817950
 126.7401000 111.4788660  33.3271550 118.4272030 108.2960150  36.1630040
 117.5300560 108.5200120  36.4103440 118.4524900 108.4195090  35.2141440
 125.4677250 105.1453270  22.0771300 125.9070530 104.3075700  21.9309120
 126.1805670 105.7782670  22.1635440 117.2543250 105.1673470  34.7387410
 117.1151020 106.0396270  35.1074810 116.3724610 104.8246280  34.5935350
 123.5772630 110.0849340  26.0452540 124.0168540 110.8273670  25.6307930
 123.5159520 110.3275910  26.9691500 119.0523600 111.1095170  36.9472560
 119.0239030 111.5138120  36.0800990 118.8888570 110.1805530  36.7844160
 129.0494390  96.3996080  20.3912340 128.7367050  96.4922910  21.2911410
 129.8106860  96.9777110  20.3409770 115.5676530 103.7655880  24.8489680
 115.4474130 104.4917970  24.2370950 115.2577420 102.9958790  24.3717590
 131.0038420 111.8922270  38.2436730 131.4798140 112.3705160  38.9225810
 131.6245580 111.8239760  37.5182230 113.2061900 106.9371020  30.6558320
 113.2842320 107.0719790  29.7114040 113.8203580 106.2286910  30.8486440
 114.4509530 108.6371210  27.0664500 114.0437610 108.7785800  26.2118100
 115.3422540 108.3531370  26.8635710 130.4071670 109.0835120  35.4036740
 130.5334730 108.8447000  34.4853920 130.4493050 108.2519660  35.8758820
 124.2688410 112.7863120  33.9731550 124.7833080 112.6971130  34.7753980
 123.4257490 113.1322820  34.2659460 126.2442810 113.0718460  23.4015550
 126.0843950 112.7821400  24.2997380 126.0789520 112.2958590  22.8660780
 118.7231190 112.8516990  25.1787170 118.5473670 111.9352530  24.9654970
 117.8686930 113.2104280  25.4184970 125.9468940 110.5806020  21.9613550
 125.2534100 110.5783310  21.3015830 126.6891800 110.1565340  21.5307720
 125.5118870 112.2068730  26.0362040 125.9675820 111.4258110  26.3500660
 125.8511390 112.9175550  26.5803220 130.2595680 101.1367580  36.3686480
 129.6439950 101.6447250  35.8401940 129.9392100 100.2365910  36.3112420
 113.2621420 107.9785190  33.1952780 113.4252460 107.5090550  32.3772150
 113.7273870 107.4708750  33.8601620 118.0340190  97.1090950  28.2313350
 117.5908340  97.8900490  27.8997870 118.5925180  97.4320840  28.9384290
 122.3210000  99.9759470  33.8348670 121.8589370 100.1842490  34.6468610
 121.9188110  99.1618820  33.5319340 127.3214510 101.1968420  34.9645330
 126.4708100 100.8974170  35.2854400 127.1616300 101.4410430  34.0529150
 124.4164220 102.6970170  37.0644120 124.7417630 101.8633920  36.7246350
 125.2044550 103.2198690  37.2122450 121.1499010  96.7301650  23.1119180
 120.5253190  96.7261520  23.8372490 121.0629130  95.8632610  22.7155150
 120.0716090  97.6538280  30.0902950 120.3688420  98.5601110  30.0094970
 120.6201650  97.1657060  29.4762520 117.8254410 102.2324520  25.9594600
 117.5995330 102.0161690  26.8641220 117.0446940 102.6652980  25.6140570
 125.0552170 102.2387890  24.5585250 124.4561060 102.9623690  24.3748870
 125.6031780 102.1764670  23.7761700 120.2653620 103.1310100  36.6254870
 120.1697220 102.1904830  36.4755270 121.1085600 103.3525170  36.2302940
 123.6617040 100.8751430  26.5888530 124.0546610 101.1923630  25.7757220
 124.0233890  99.9963310  26.7033050 121.9709210  99.6258740  37.8485390
 121.2807530  99.4330940  38.4831480 122.7141510  99.9093380  38.3809690
 112.6981210  97.4652230  28.8118730 112.4094260  98.0355090  29.5243710
 113.4426970  96.9856680  29.1749960 112.8851440 101.4072350  20.0221450
 112.8026110 102.3503110  20.1636440 112.5334500 101.2647260  19.1433800
 124.2472180 103.4657180  30.6839310 123.5153300 103.9743990  31.0329410
 123.8496520 102.6487160  30.3828090 120.6849570 100.1411380  29.0891800
 120.6885630  99.7001330  28.2396340 121.5800690 100.4628710  29.1963620
 116.5351950 100.0237870  28.0486010 116.1952000 100.5013100  28.8053060
 115.7729270  99.5702990  27.6887110 120.7469720 101.1423460  22.0798560
 120.8682540 101.1009940  23.0284380 120.3618230 102.0047610  21.9245290
 124.7098090  98.9190860  30.0962250 124.7270830  99.3699510  30.9404100
 124.4613670  98.0196500  30.3095690 119.7591220 103.4524600  21.4781860
 119.1908120 103.0042850  20.8517770 120.4680220 103.8117380  20.9447010
 128.1368840  96.3323040  35.9348630 128.4614610  95.6012700  36.4606610
 128.1725350  96.0136680  35.0329620 114.8360400 107.3536620  35.3548590
 114.4515190 106.7130290  35.9531550 115.1472590 108.0572740  35.9243320
 120.9857540 104.2013160  30.8357210 121.3527670 103.7271730  31.5818550
 120.7962600 105.0754730  31.1765550 113.8498030  98.9456850  26.9650680
 113.5644950  98.5812520  27.8029300 113.7876890  98.2137310  26.3513820
 117.3038700 107.4482790  23.7508270 116.5300960 106.9080410  23.5906990
 118.0333330 106.9289400  23.4126030 128.0626680 106.4448150  29.5434660
 128.7825800 106.9403440  29.1530770 127.8608500 105.7666040  28.8988530
 123.5236620  97.8386110  23.6864050 122.7101230  97.3399280  23.6109360
 123.3298570  98.6784360  23.2700400 123.4445480 106.5157210  35.4303660
 123.3782790 105.5952880  35.1761250 122.8150620 106.6132650  36.1448300
 126.2385010 102.2105760  21.9826210 127.1264630 102.5222990  21.8077550
 126.2090100 101.3378010  21.5906790 117.3476100 107.1163170  27.3887080
 117.8654770 106.3131430  27.3343970 116.8960120 107.0542310  28.2303910
 122.2345600 108.3829450  22.6614380 122.5761300 109.1271680  22.1657700
 121.4058310 108.6960570  23.0239210 123.3762210 109.3377780  35.1807460
 123.3906750 108.4058740  34.9626370 122.6687310 109.4237540  35.8197230
 128.5099280 103.5217600  21.4506070 128.4263000 103.9531820  20.6002510
 129.2293470 103.9815950  21.8832890 129.5873420 105.9785120  34.5276040
 128.8621610 106.5713900  34.3305430 130.1148880 105.9708660  33.7289410
 129.5386530 110.3759860  24.1788200 128.8962690 109.7215480  24.4531920
 129.1517190 110.7814950  23.4028870 125.1173010 107.7045290  28.0259890
 125.4696830 107.1073420  27.3661260 124.2335340 107.3789520  28.1968140
 121.2036290 108.4642980  25.4330300 121.8907420 109.0112190  25.8137890
 120.4168710 109.0083710  25.4679910 113.3428690 104.0815800  20.9247380
 114.2123540 104.3640600  21.2083300 112.8519010 104.8951670  20.8096190
 120.5063500 105.4689010  25.0455660 120.9626280 106.2794260  25.2715850
 120.1551710 105.1512150  25.8774150 122.8096110 110.9795350  32.2747960
 123.4538330 111.1854730  32.9521380 123.1725550 110.2183750  31.8218810
 116.4075280  95.8126660  25.5178180 116.2789910  95.8044560  26.4663100
 115.5837300  96.1509750  25.1669190 124.0828190 108.9827700  30.9925410
 124.7250420 108.2820860  31.1057580 124.6077540 109.7626140  30.8122300
 127.9283910 109.2676320  20.7164550 127.7021490 108.5506760  21.3089190
 127.5380110 109.0188760  19.8786300 125.8565810 109.7822600  34.1961470
 126.1922050 110.3689290  34.8739390 124.9366150 109.6515310  34.4259260
 113.7099940 113.2943180  21.4909010 114.0697580 113.8932520  20.8366280
 113.5692280 113.8403070  22.2644040 127.5100160 107.1848260  22.3778710
 127.2221860 107.6460950  23.1656590 128.3052330 106.7246030  22.6462930
 113.6941800 111.5598040  35.9651410 113.8032920 110.6192780  35.8246800
 113.0422360 111.8252790  35.3165140 121.6854390 109.8313930  37.3649530
 121.3651260 109.1123170  37.9095220 121.0112750 110.5069000  37.4385590
 119.7268560 110.6774380  22.3082680 119.7178660 111.4104070  21.6927190
 118.8066920 110.4305960  22.4009640 115.3275200 105.8989270  23.0529440
 114.7203150 106.6388170  23.0624740 115.8024550 105.9888630  22.2267640
 124.9007990 100.0640090  32.7286330 125.2688810  99.2435300  33.0565900
 124.0406190 100.1241980  33.1441980 128.2670020  99.0197030  23.5373890
 127.6383180  99.1242700  22.8232120 127.7721940  99.2393810  24.3267770
 122.7128160 110.7402620  20.9707870 122.8140140 110.5366610  20.0409850
 121.8129900 110.4860900  21.1755650 120.2354050 101.2982980  24.9531770
 119.5270200 101.7669320  25.3945380 120.5198530 100.6404990  25.5876960
 121.8609980 102.7179680  32.9524300 122.3595230 103.1925500  33.6176150
 122.0032930 101.7943200  33.1594330 124.2669480  98.0233640  26.3927560
 124.1437260  98.0419770  25.4437070 125.2154040  98.0712580  26.5125960
 121.3546270 113.2588940  25.6655540 121.6087770 113.2210330  24.7434910
 120.4058750 113.1322270  25.6583790 118.4389070  99.6068060  22.3282480
 119.2879600 100.0438210  22.2622670 118.0720340  99.9188320  23.1554540
 129.0676840  98.9347640  33.7952690 128.5650440  99.6753040  34.1346500
 129.8833500  99.3231640  33.4789480 127.3598850 104.1780820  27.2414050
 126.4188990 104.1931050  27.4161740 127.6742920 103.3916780  27.6874350
 117.3380490 105.8600420  20.8018010 118.1043760 105.7481780  21.3643440
 117.4155180 105.1638390  20.1494780 116.0327250 103.2925490  21.4850900
 116.1130840 102.3453000  21.5968300 116.9247000 103.6232370  21.5911560
 129.3624430 111.3489670  28.9168310 129.4871850 112.1720840  29.3892120
 130.2289990 111.1380400  28.5692460 116.8341960 113.4420880  28.5885440
 117.5704440 112.8936340  28.8594010 117.2182880 114.3076890  28.4491430
 113.7187440 109.5094450  24.4626950 112.7927220 109.7515590  24.4532360
 114.1843870 110.3368710  24.3411700 115.8400240 112.6266950  37.7771020
 116.6412970 112.9479000  38.1906420 115.3252060 112.2662530  38.4990930
 119.9444270 112.6151190  20.4111010 120.7372880 112.9040020  19.9592800
 119.4248620 112.1843360  19.7323490 124.6764870 108.7346820  37.7246430
 124.0703030 108.7578420  36.9842180 124.3718980 108.0029860  38.2613680
 126.1065240 112.4627110  36.3355840 127.0586990 112.3785130  36.2856080
 125.9593460 113.1268820  37.0089630 128.9974440 111.8421320  21.8347750
 128.7115950 111.4286460  21.0201930 128.7993990 112.7709030  21.7148270
 113.5598050 105.1140410  36.7207070 114.0637070 104.5347690  37.2923300
 112.8205470 105.3980640  37.2583440 120.4621670 107.8354600  20.2753360
 120.3572310 107.2206950  21.0014740 120.2945890 107.3120490  19.4916370
 120.6135990 106.5211400  36.2542590 119.8481660 107.0896400  36.1697260
 120.7951950 106.2287610  35.3610820 123.7024400 106.8974630  20.8795350
 123.1534500 107.3443930  21.5238090 124.3243660 106.3923880  21.4033020
 127.7559340 108.2516730  36.8117610 128.4968810 108.5892490  36.3085070
 126.9932020 108.4208790  36.2587380 119.3699520 105.8565550  22.7760650
 119.7915940 105.6905420  23.6192040 119.4950360 105.0465780  22.2815790
 121.8827160 104.8803160  20.0237750 122.4032820 104.1652180  19.6578900
 122.5295560 105.5189030  20.3238260 126.4305000 106.3031560  35.3472820
 126.8446020 106.4576640  36.1963240 125.4956000 106.4286780  35.5098600
 126.9027170 103.6427720  37.3511970 127.4847940 102.8880040  37.2632450
 127.0788940 104.1735160  36.5743450 120.7860680  97.3597710  32.6956310
 120.3377980  97.3821970  31.8501860 120.1525880  96.9616730  33.2926610
 121.1920230 106.2552040  33.3168750 121.6108340 107.0984770  33.1444990
 120.2728860 106.3924080  33.0875530 123.5284130 103.9868220  34.7006590
 123.6480340 103.3909360  35.4401430 124.3878130 104.0237910  34.2807890
 125.8672030 104.5405410  33.2769100 125.3407250 105.0648030  32.6734240
 126.2103370 105.1732800  33.9078830 118.2658420 101.9298780  19.7218810
 118.0647480 101.0666140  20.0832150 118.0950470 101.8432140  18.7840410
 119.0427650 112.5605050  34.4326480 118.5048740 113.2851110  34.1135180
 119.2961610 112.0835390  33.6423820 120.2952900 100.5289570  35.9582410
 120.8852590 100.2205420  36.6460230 119.4773140 100.0569320  36.1142310
 125.1146330 100.1455380  36.1915430 124.4261850  99.4836920  36.1265420
 125.8352350  99.6993650  36.6363890 125.7446730  96.7407010  22.2505690
 126.0249020  95.8974910  22.6065110 124.9712460  96.9730120  22.7644440
 117.0641220  99.0299400  19.7096690 117.3667120  99.0366830  18.8015840
 117.8035810  98.6797260  20.2064350 121.8989860 113.7956260  34.6913130
 121.8248560 114.6991400  34.9985500 120.9968700 113.4768160  34.6635200
 120.2826150  97.9734020  20.6952890 119.9348150  97.2958010  20.1155340
 120.4838920  97.5123530  21.5096280 122.4475190 112.9614770  22.3139490
 123.3425980 113.2999740  22.3358250 122.4792820 112.2394180  21.6863770
 116.0871350 108.3341820  20.5426490 116.5246220 108.8771490  21.1984070
 116.5719080 107.5088770  20.5522830 113.3017150 111.1230850  27.9946750
 113.6320160 110.2551910  27.7625390 113.7308150 111.3289370  28.8251710
 117.8979070 109.4539860  25.6548720 117.5974610 109.3304830  26.5552630
 117.7916560 108.5948450  25.2464450 113.7907360 111.9901440  30.7328380
 113.3538350 112.1702240  31.5652530 114.3585040 112.7476060  30.5910100
 129.4269540 111.4918440  35.0205690 128.8271530 111.5511000  34.2769610
 129.5563440 110.5523420  35.1502540 130.6670990 109.2336260  20.3575400
 129.8363950 109.3012910  20.8282630 130.8442820 110.1240380  20.0542260
 130.1227450 105.9783740  22.8609600 130.8846360 106.5480390  22.9669290
 130.1381820 105.4110940  23.6317910 113.6231790 104.5021670  27.0917260
 112.9680630 104.2333310  26.4476960 114.4609740 104.3926150  26.6419240
 131.1287420 106.8333840  27.7051530 131.4996250 106.0501160  27.2987500
 131.7689350 107.5222940  27.5268830 128.1121180 108.2170420  33.1181850
 127.2981020 108.6467580  33.3807640 128.5195380 108.8288830  32.5050900
 130.1746620 106.2718110  20.0182120 130.4495460 107.1796990  19.8901340
 129.9857360 106.2080640  20.9544110 126.5722230  99.2962960  21.3135750
 126.9907110  99.1093940  20.4732410 126.2658290  98.4442010  21.6238680
 130.0711960 104.2087100  25.0111550 129.6955560 103.4415030  24.5792840
 129.3415080 104.5909800  25.4986480 114.6607720 104.8874240  31.6320600
 115.0280760 104.8001640  32.5116620 114.0918540 104.1240790  31.5327460
 129.4611580 103.3558620  34.6451070 129.2297670 103.1271370  33.7449020
 129.7216130 104.2758170  34.5995960 127.8999650  98.5815050  37.4230770
 128.7769830  98.5898450  37.8064770 127.9120490  97.8445890  36.8123120
 112.8369870 101.7120600  23.0342590 111.9333950 101.9750800  22.8594250
 113.3210490 101.9831770  22.2542550 129.3462920 102.4344590  28.3118790
 129.8700400 101.9407240  27.6808960 129.9322340 102.5694950  29.0566360
 129.5252640 102.5184460  31.8338340 128.5755350 102.4848000  31.9483330
 129.7065650 103.4284570  31.5988110 115.3797080 100.7686140  20.9436970
 116.0888780 100.3469360  20.4584250 114.6637020 100.8361370  20.3120320
 115.0271240  96.8225470  19.9839620 115.7499370  97.3634410  20.3020840
 115.2995760  96.5488890  19.1081160 128.8362890 101.6917940  24.2511200
 129.3322010 101.4588810  25.0360080 128.6378960 100.8529780  23.8348840
 114.7163430  96.0731660  29.8862240 115.3639620  95.5229040  29.4457400
 115.1365270  96.3274810  30.7078050 130.2650050 100.3278890  26.7848880
 130.1549330 100.1734930  27.7231150 131.0257640  99.7999830  26.5424290
 128.6115770  96.2673020  33.2431880 129.2487990  96.8807160  33.6091070
 128.7590660  96.3033680  32.2981110 131.1540320  98.1586810  20.0255020
 132.0789630  98.0267990  19.8173310 131.1316110  98.2379630  20.9791470
 131.2278810  98.9297470  22.6511730 130.4330310  98.8642590  23.1804640
 131.4322090  99.8648110  22.6397080 128.1697230 112.9689020  26.6450120
 128.7656300 112.6473590  25.9684540 128.4275380 112.4960840  27.4363390
 114.4695430  96.2287330  32.6287560 114.1210250  96.6851150  33.3945740
 114.1383130  95.3344460  32.7109990 116.0759800 109.4006930  36.7940750
 116.0329430 109.0299840  37.6755210 116.2070810 110.3384500  36.9342570
 119.7765830 110.9566520  32.3950470 119.5357190 111.2241080  31.5080990
 120.7168470 111.1272250  32.4501330 121.9820250  97.4199210  36.1506980
 121.9209140  98.0121040  36.9002390 122.9220630  97.3125170  36.0057240
 124.6194810  97.0769270  35.7899270 125.2335220  97.3948560  35.1280350
 125.1644370  96.5917860  36.4095130 131.0369990 112.9760900  33.1961110
 130.5428270 113.3729770  32.4788240 130.4283280 112.3510110  33.5898390
 115.1416070  95.7563530  35.9038330 115.6899060  95.5751580  35.1404440
 115.2071380  94.9657640  36.4394640 115.9147830 112.3469180  33.9138530
 115.3208150 112.2153880  34.6528570 115.9071670 111.5107320  33.4480630
 125.3602850  95.6401410  32.1168560 124.4862690  95.9736520  31.9141490
 125.2513600  95.1674590  32.9420430 126.2674830  97.8472280  33.5010280
 125.9388190  97.0324040  33.1212010 127.2157130  97.8042090  33.3775970
 128.7209440 113.6184320  30.4747850 128.2612410 114.3700130  30.1005870
 128.0921900 112.8990790  30.4162650 115.5460060 109.7127560  32.8646570
 114.8194120 109.0932850  32.7972520 115.6069210 110.1068170  31.9944650
 119.1505160 111.9272560  29.6495980 119.6670180 111.3159920  29.1244240
 119.8002540 112.4301340  30.1406990 121.8900660 112.8181050  30.4764960
 122.1778470 112.5635350  29.5997970 122.4023880 112.2658410  31.0670530
 123.1077670  96.5571250  31.0561470 122.3249460  97.0316750  31.3358230
 122.8140600  95.6526080  30.9474650 127.6598740  97.2594350  29.1010560
 128.1006830  97.2039450  28.2532160 127.3906330  98.1752360  29.1720740
 129.5237310  96.8909590  27.1119380 129.4625710  95.9470810  26.9650400
 130.3029340  96.9989680  27.6572840 113.8290060 113.0301950  26.0743330
 113.6612100 112.3972630  26.7725220 112.9624570 113.2361350  25.7237520
 114.4518080  96.8618730  23.5775190 115.2097440  96.9747610  23.0039220
 113.9895250  97.6987930  23.5318620 120.9931890  98.9758000  26.5677500
 120.1806400  98.6014890  26.2273380 121.4973530  98.2203080  26.8698690
 125.4956870  95.6400450  27.8060570 126.0986240  96.2120660  28.2809090
 124.7549860  96.2039890  27.5834470 128.6391470  96.0422010  23.0800850
 128.8342100  96.9405460  23.3468280 127.8521340  95.8109090  23.5733800
 115.4352760 111.7235180  23.5193470 114.9100380 112.1043210  22.8155430
 115.3597340 112.3485950  24.2403180 116.8243230  97.3882780  22.1177160
 117.3535990  96.6012580  21.9885110 117.4571550  98.0673970  22.3512690
 119.0181070  97.1257920  25.1722550 118.3883810  96.4245230  25.3392680
 118.4786210  97.8862050  24.9555710 121.9573020 113.7397150  37.8433160
 122.8840330 113.5041420  37.8869120 121.9423450 114.5669150  37.3619190
 130.1918080 113.2822720  24.8407410 130.3670270 112.5960460  24.1968330
 129.4939650 113.8069770  24.4484080 118.0345730 113.6717560  22.3942720
 118.7664550 113.3876840  21.8466610 118.2939400 113.4330840  23.2842100
 117.1960520 109.7882290  22.3989050 116.5669400 110.2567390  22.9474880
 117.3108350 108.9431510  22.8335240 125.7452090  95.8195480  38.1855510
 125.6317540  96.1390090  39.0807030 126.5621830  96.2207990  37.8892790
 128.5250580 112.9667010  37.6674200 129.3175900 112.4716240  37.4600160
 128.8183730 113.6457150  38.2749810 124.6510240 103.8387950   8.5490250
 124.5704290 102.9242560   8.2781960 124.2374660 104.3355020   7.8429960
 122.7828280 105.6166970  10.4299520 122.0070380 105.1367410  10.7198090
 123.4341210 104.9372620  10.2555680 116.7994110 105.9286780  11.3075280
 115.9678990 105.6735490  11.7071790 117.4075090 105.9997550  12.0433200
 126.8035710 110.0227160   9.2098650 126.3417240 109.2514400   9.5385820
 127.6161260 110.0493230   9.7151100 116.7795370 109.9626870  11.5033300
 117.0823410 109.0724610  11.3243520 117.5238960 110.5197090  11.2755550
 115.2086060 100.8888670   5.0917670 114.3202760 101.2304640   4.9897550
 115.4927250 100.6888990   4.1998500 113.1719070 103.4894320  10.9757370
 113.7435180 102.7216520  10.9761010 113.1720610 103.7883080  10.0663980
 123.0299020 112.3085170   8.8302640 122.4110460 112.7642670   8.2597080
 123.8850800 112.4636630   8.4292340 122.2237270 108.2924160  10.4369680
 122.1545550 107.3514100  10.2758810 122.9857130 108.3825570  11.0092250
 114.4143940  98.8978680  12.7626300 114.2346780  98.0004430  13.0429060
 114.0124020  99.4450550  13.4373250 123.2542440 101.0994540  10.6638610
 123.6307260 100.2266420  10.5512280 123.1561950 101.4353240   9.7729050
 117.3847450  99.4720170   6.1256050 117.4914200 100.3723900   6.4324810
 116.4739810  99.4238140   5.8350700 127.0366560  98.5944980   7.5966950
 127.8576180  98.1041550   7.6392430 127.0700640  99.1842640   8.3498790
 115.0330610 101.3939180  11.3708640 115.7140720 101.6577550  11.9896040
 114.7178660 100.5540050  11.7046650 119.2255180 102.4406540  10.4581230
 119.7333400 102.9387510  11.0986250 119.7568420 101.6641740  10.2820590
 131.3266110 100.6111730  14.1610580 130.6218280 100.9993440  13.6425690
 131.5924030 101.3062020  14.7631510 117.5091280  97.0805100  14.7244650
 117.5109720  97.5977490  13.9190550 116.6795590  96.6035280  14.7014580
 123.8962370 107.1924410   6.2234550 123.2779640 107.6573860   5.6597270
 124.4085620 107.8851890   6.6404060 118.7594130 106.7200280  12.9018150
 118.4263510 107.3469200  13.5439220 118.9360810 107.2462160  12.1219820
 127.2728040 100.5345360  10.3694490 126.5683610 100.8230250  10.9497600
 127.6340200 101.3445470  10.0094050 117.1906610  98.7915060  12.7315100
 117.5323420  99.6357110  12.4368970 116.2522420  98.9398800  12.8480440
 117.9713230 108.6881080  14.7167330 118.5887230 109.3632160  14.4351780
 117.1106350 109.0969060  14.6254830 113.2645570 107.8780940   3.5974180
 112.8873550 108.3668040   2.8659080 113.5218640 108.5506220   4.2280710
 128.8890820 110.1520490  12.6321970 128.2054340 110.8219600  12.6238640
 129.4285110 110.3501140  11.8666830 130.3414960  99.9800150  10.7603700
 129.3939870 100.0139130  10.8919130 130.6664950 100.7939100  11.1453060
 120.8734500  96.2797330   9.0559690 121.1809480  95.7244220   8.3395190
 119.9435200  96.4141790   8.8732680 126.4249560 111.9964620  11.3467150
 126.4376720 111.5926910  10.4789410 125.8724780 112.7711910  11.2428580
 127.7194980 108.7180840   6.4357320 127.6091310 107.7755170   6.5606740
 127.7163230 109.0796480   7.3220080 125.8235000 106.8994460  12.6749760
 126.2403790 106.6854570  11.8403220 126.5474820 107.1567250  13.2458380
 123.2615260 104.3446160   5.7919810 122.3344540 104.2783540   6.0208280
 123.4140080 105.2826290   5.6775050 123.2484340 100.6163160   2.7886970
 122.3088010 100.7777120   2.8739430 123.5667600 101.3348840   2.2422960
 129.7697100 105.2981680  12.7666000 128.9415730 105.3674770  12.2916130
 130.3647580 105.8835990  12.2981830 127.2912550 105.9066460   6.2955060
 126.6724970 105.5686010   5.6481360 127.2737000 105.2626220   7.0034250
 126.7339110 102.0851000  13.7120870 126.3210290 102.9104710  13.9660860
 126.0015060 101.4996040  13.5197230 118.8671900 104.8710900   8.5739540
 118.4628900 104.1588150   8.0785440 118.9535020 104.5264140   9.4627580
 119.3353600 108.5578460  10.7378750 119.0381890 107.9523930  10.0586530
 120.2853420 108.5955770  10.6268110 117.5800520 101.6454110  12.3538580
 118.1315110 101.7549450  11.5791830 118.0944030 102.0191710  13.0693810
 127.4239210 112.1310330  14.4001850 126.9469770 112.9382520  14.2074460
 126.7401000 111.4788660  14.5528060 118.4272030 108.2960150  17.3886550
 117.5300560 108.5200120  17.6359950 118.4524900 108.4195090  16.4397950
 125.4677250 105.1453270   3.3027810 125.9070530 104.3075700   3.1565630
 126.1805670 105.7782670   3.3891950 117.2543250 105.1673470  15.9643920
 117.1151020 106.0396270  16.3331320 116.3724610 104.8246280  15.8191860
 123.5772630 110.0849340   7.2709050 124.0168540 110.8273670   6.8564440
 123.5159520 110.3275910   8.1948010 119.0523600 111.1095170  18.1729070
 119.0239030 111.5138120  17.3057500 118.8888570 110.1805530  18.0100670
 115.5676530 103.7655880   6.0746190 115.4474130 104.4917970   5.4627460
 115.2577420 102.9958790   5.5974100 131.0038420 111.8922270  19.4693240
 131.4798140 112.3705160  20.1482320 131.6245580 111.8239760  18.7438740
 113.2061900 106.9371020  11.8814830 113.2842320 107.0719790  10.9370550
 113.8203580 106.2286910  12.0742950 114.4509530 108.6371210   8.2921010
 114.0437610 108.7785800   7.4374610 115.3422540 108.3531370   8.0892220
 130.4071670 109.0835120  16.6293250 130.5334730 108.8447000  15.7110430
 130.4493050 108.2519660  17.1015330 124.2688410 112.7863120  15.1988060
 124.7833080 112.6971130  16.0010490 123.4257490 113.1322820  15.4915970
 126.2442810 113.0718460   4.6272060 126.0843950 112.7821400   5.5253890
 126.0789520 112.2958590   4.0917290 118.7231190 112.8516990   6.4043680
 118.5473670 111.9352530   6.1911480 117.8686930 113.2104280   6.6441480
 125.9468940 110.5806020   3.1870060 125.2534100 110.5783310   2.5272340
 126.6891800 110.1565340   2.7564230 125.5118870 112.2068730   7.2618550
 125.9675820 111.4258110   7.5757170 125.8511390 112.9175550   7.8059730
 130.2595680 101.1367580  17.5942990 129.6439950 101.6447250  17.0658450
 129.9392100 100.2365910  17.5368930 113.2621420 107.9785190  14.4209290
 113.4252460 107.5090550  13.6028660 113.7273870 107.4708750  15.0858130
 118.0340190  97.1090950   9.4569860 117.5908340  97.8900490   9.1254380
 118.5925180  97.4320840  10.1640800 122.3210000  99.9759470  15.0605180
 121.8589370 100.1842490  15.8725120 121.9188110  99.1618820  14.7575850
 127.3214510 101.1968420  16.1901840 126.4708100 100.8974170  16.5110910
 127.1616300 101.4410430  15.2785660 124.4164220 102.6970170  18.2900630
 124.7417630 101.8633920  17.9502860 125.2044550 103.2198690  18.4378960
 121.1499010  96.7301650   4.3375690 120.5253190  96.7261520   5.0629000
 121.0629130  95.8632610   3.9411660 120.0716090  97.6538280  11.3159460
 120.3688420  98.5601110  11.2351480 120.6201650  97.1657060  10.7019030
 117.8254410 102.2324520   7.1851110 117.5995330 102.0161690   8.0897730
 117.0446940 102.6652980   6.8397080 125.0552170 102.2387890   5.7841760
 124.4561060 102.9623690   5.6005380 125.6031780 102.1764670   5.0018210
 120.2653620 103.1310100  17.8511380 120.1697220 102.1904830  17.7011780
 121.1085600 103.3525170  17.4559450 123.6617040 100.8751430   7.8145040
 124.0546610 101.1923630   7.0013730 124.0233890  99.9963310   7.9289560
 115.3964160  99.5423770  16.0045160 115.0027550 100.3898980  16.2117940
 114.7082560  98.9050140  16.1953800 121.9709210  99.6258740  19.0741900
 121.2807530  99.4330940  19.7087990 122.7141510  99.9093380  19.6066200
 112.6981210  97.4652230  10.0375240 112.4094260  98.0355090  10.7500220
 113.4426970  96.9856680  10.4006470 124.2472180 103.4657180  11.9095820
 123.5153300 103.9743990  12.2585920 123.8496520 102.6487160  11.6084600
 120.6849570 100.1411380  10.3148310 120.6885630  99.7001330   9.4652850
 121.5800690 100.4628710  10.4220130 116.5351950 100.0237870   9.2742520
 116.1952000 100.5013100  10.0309570 115.7729270  99.5702990   8.9143620
 120.7469720 101.1423460   3.3055070 120.8682540 101.1009940   4.2540890
 120.3618230 102.0047610   3.1501800 124.7098090  98.9190860  11.3218760
 124.7270830  99.3699510  12.1660610 124.4613670  98.0196500  11.5352200
 119.7591220 103.4524600   2.7038370 119.1908120 103.0042850   2.0774280
 120.4680220 103.8117380   2.1703520 128.1368840  96.3323040  17.1605140
 128.4614610  95.6012700  17.6863120 128.1725350  96.0136680  16.2586130
 114.8360400 107.3536620  16.5805100 114.4515190 106.7130290  17.1788060
 115.1472590 108.0572740  17.1499830 120.9857540 104.2013160  12.0613720
 121.3527670 103.7271730  12.8075060 120.7962600 105.0754730  12.4022060
 113.8498030  98.9456850   8.1907190 113.5644950  98.5812520   9.0285810
 113.7876890  98.2137310   7.5770330 118.7756910 103.2421800  14.3797930
 118.4713980 104.1213780  14.6048290 119.7303370 103.3021590  14.4155370
 117.3038700 107.4482790   4.9764780 116.5300960 106.9080410   4.8163500
 118.0333330 106.9289400   4.6382540 128.0626680 106.4448150  10.7691170
 128.7825800 106.9403440  10.3787280 127.8608500 105.7666040  10.1245040
 123.5236620  97.8386110   4.9120560 122.7101230  97.3399280   4.8365870
 123.3298570  98.6784360   4.4956910 123.4445480 106.5157210  16.6560170
 123.3782790 105.5952880  16.4017760 122.8150620 106.6132650  17.3704810
 126.2385010 102.2105760   3.2082720 127.1264630 102.5222990   3.0334060
 126.2090100 101.3378010   2.8163300 117.3476100 107.1163170   8.6143590
 117.8654770 106.3131430   8.5600480 116.8960120 107.0542310   9.4560420
 122.2345600 108.3829450   3.8870890 122.5761300 109.1271680   3.3914210
 121.4058310 108.6960570   4.2495720 114.8320640 104.0824540  15.5269290
 114.4735580 104.7478390  16.1142630 114.5375200 103.2508090  15.8981910
 118.0333760 104.5408780  18.4108840 117.7333900 104.6865960  17.5136660
 118.8045000 103.9814070  18.3182230 123.3762210 109.3377780  16.4063970
 123.3906750 108.4058740  16.1882880 122.6687310 109.4237540  17.0453740
 128.5099280 103.5217600   2.6762580 128.4263000 103.9531820   1.8259020
 129.2293470 103.9815950   3.1089400 129.5873420 105.9785120  15.7532550
 128.8621610 106.5713900  15.5561940 130.1148880 105.9708660  14.9545920
 129.5386530 110.3759860   5.4044710 128.8962690 109.7215480   5.6788430
 129.1517190 110.7814950   4.6285380 125.1173010 107.7045290   9.2516400
 125.4696830 107.1073420   8.5917770 124.2335340 107.3789520   9.4224650
 121.2036290 108.4642980   6.6586810 121.8907420 109.0112190   7.0394400
 120.4168710 109.0083710   6.6936420 113.3428690 104.0815800   2.1503890
 114.2123540 104.3640600   2.4339810 112.8519010 104.8951670   2.0352700
 120.5063500 105.4689010   6.2712170 120.9626280 106.2794260   6.4972360
 120.1551710 105.1512150   7.1030660 122.8096110 110.9795350  13.5004470
 123.4538330 111.1854730  14.1777890 123.1725550 110.2183750  13.0475320
 116.4075280  95.8126660   6.7434690 116.2789910  95.8044560   7.6919610
 115.5837300  96.1509750   6.3925700 124.0828190 108.9827700  12.2181920
 124.7250420 108.2820860  12.3314090 124.6077540 109.7626140  12.0378810
 125.8565810 109.7822600  15.4217980 126.1922050 110.3689290  16.0995900
 124.9366150 109.6515310  15.6515770 113.7099940 113.2943180   2.7165520
 114.0697580 113.8932520   2.0622790 113.5692280 113.8403070   3.4900550
 113.4069210  97.5717780  16.2041390 112.6927730  97.7714700  16.8094000
 113.8264250  96.7957350  16.5756190 127.5100160 107.1848260   3.6035220
 127.2221860 107.6460950   4.3913100 128.3052330 106.7246030   3.8719440
 113.6941800 111.5598040  17.1907920 113.8032920 110.6192780  17.0503310
 113.0422360 111.8252790  16.5421650 121.6854390 109.8313930  18.5906040
 121.3651260 109.1123170  19.1351730 121.0112750 110.5069000  18.6642100
 119.7268560 110.6774380   3.5339190 119.7178660 111.4104070   2.9183700
 118.8066920 110.4305960   3.6266150 115.3275200 105.8989270   4.2785950
 114.7203150 106.6388170   4.2881250 115.8024550 105.9888630   3.4524150
 124.9007990 100.0640090  13.9542840 125.2688810  99.2435300  14.2822410
 124.0406190 100.1241980  14.3698490 128.2670020  99.0197030   4.7630400
 127.6383180  99.1242700   4.0488630 127.7721940  99.2393810   5.5524280
 120.2354050 101.2982980   6.1788280 119.5270200 101.7669320   6.6201890
 120.5198530 100.6404990   6.8133470 121.8609980 102.7179680  14.1780810
 122.3595230 103.1925500  14.8432660 122.0032930 101.7943200  14.3850840
 124.2669480  98.0233640   7.6184070 124.1437260  98.0419770   6.6693580
 125.2154040  98.0712580   7.7382470 121.3546270 113.2588940   6.8912050
 121.6087770 113.2210330   5.9691420 120.4058750 113.1322270   6.8840300
 118.4389070  99.6068060   3.5538990 119.2879600 100.0438210   3.4879180
 118.0720340  99.9188320   4.3811050 129.0676840  98.9347640  15.0209200
 128.5650440  99.6753040  15.3603010 129.8833500  99.3231640  14.7045990
 127.3598850 104.1780820   8.4670560 126.4188990 104.1931050   8.6418250
 127.6742920 103.3916780   8.9130860 116.0327250 103.2925490   2.7107410
 116.1130840 102.3453000   2.8224810 116.9247000 103.6232370   2.8168070
 129.3624430 111.3489670  10.1424820 129.4871850 112.1720840  10.6148630
 130.2289990 111.1380400   9.7948970 116.8341960 113.4420880   9.8141950
 117.5704440 112.8936340  10.0850520 117.2182880 114.3076890   9.6747940
 113.7187440 109.5094450   5.6883460 112.7927220 109.7515590   5.6788870
 114.1843870 110.3368710   5.5668210 115.8400240 112.6266950  19.0027530
 116.6412970 112.9479000  19.4162930 115.3252060 112.2662530  19.7247440
 124.6764870 108.7346820  18.9502940 124.0703030 108.7578420  18.2098690
 124.3718980 108.0029860  19.4870190 126.1065240 112.4627110  17.5612350
 127.0586990 112.3785130  17.5112590 125.9593460 113.1268820  18.2346140
 128.9974440 111.8421320   3.0604260 128.7115950 111.4286460   2.2458440
 128.7993990 112.7709030   2.9404780 113.5598050 105.1140410  17.9463580
 114.0637070 104.5347690  18.5179810 112.8205470 105.3980640  18.4839950
 120.6135990 106.5211400  17.4799100 119.8481660 107.0896400  17.3953770
 120.7951950 106.2287610  16.5867330 123.7024400 106.8974630   2.1051860
 123.1534500 107.3443930   2.7494600 124.3243660 106.3923880   2.6289530
 127.7559340 108.2516730  18.0374120 128.4968810 108.5892490  17.5341580
 126.9932020 108.4208790  17.4843890 115.5921130 103.2570000  18.8413650
 115.6326470 102.9583870  19.7498880 116.4466630 103.6577610  18.6821170
 119.3699520 105.8565550   4.0017160 119.7915940 105.6905420   4.8448550
 119.4950360 105.0465780   3.5072300 117.5326940 101.8362100  16.8088140
 117.0023400 101.3453050  16.1811480 118.2015010 102.2646300  16.2746070
 126.4305000 106.3031560  16.5729330 126.8446020 106.4576640  17.4219750
 125.4956000 106.4286780  16.7355110 126.9027170 103.6427720  18.5768480
 127.4847940 102.8880040  18.4888960 127.0788940 104.1735160  17.7999960
 118.0199240  98.8024470  16.8885430 117.9256110  98.1845220  16.1636300
 117.4396630  99.5290760  16.6615340 120.7860680  97.3597710  13.9212820
 120.3377980  97.3821970  13.0758370 120.1525880  96.9616730  14.5183120
 121.1920230 106.2552040  14.5425260 121.6108340 107.0984770  14.3701500
 120.2728860 106.3924080  14.3132040 123.5284130 103.9868220  15.9263100
 123.6480340 103.3909360  16.6657940 124.3878130 104.0237910  15.5064400
 125.8672030 104.5405410  14.5025610 125.3407250 105.0648030  13.8990750
 126.2103370 105.1732800  15.1335340 119.0427650 112.5605050  15.6582990
 118.5048740 113.2851110  15.3391690 119.2961610 112.0835390  14.8680330
 120.2952900 100.5289570  17.1838920 120.8852590 100.2205420  17.8716740
 119.4773140 100.0569320  17.3398820 125.1146330 100.1455380  17.4171940
 124.4261850  99.4836920  17.3521930 125.8352350  99.6993650  17.8620400
 125.7446730  96.7407010   3.4762200 126.0249020  95.8974910   3.8321620
 124.9712460  96.9730120   3.9900950 121.8989860 113.7956260  15.9169640
 121.8248560 114.6991400  16.2242010 120.9968700 113.4768160  15.8891710
 122.4475190 112.9614770   3.5396000 123.3425980 113.2999740   3.5614760
 122.4792820 112.2394180   2.9120280 116.0871350 108.3341820   1.7683000
 116.5246220 108.8771490   2.4240580 116.5719080 107.5088770   1.7779340
 113.3017150 111.1230850   9.2203260 113.6320160 110.2551910   8.9881900
 113.7308150 111.3289370  10.0508220 117.8979070 109.4539860   6.8805230
 117.5974610 109.3304830   7.7809140 117.7916560 108.5948450   6.4720960
 113.7907360 111.9901440  11.9584890 113.3538350 112.1702240  12.7909040
 114.3585040 112.7476060  11.8166610 129.4269540 111.4918440  16.2462200
 128.8271530 111.5511000  15.5026120 129.5563440 110.5523420  16.3759050
 130.1227450 105.9783740   4.0866110 130.8846360 106.5480390   4.1925800
 130.1381820 105.4110940   4.8574420 113.6231790 104.5021670   8.3173770
 112.9680630 104.2333310   7.6733470 114.4609740 104.3926150   7.8675750
 131.1287420 106.8333840   8.9308040 131.4996250 106.0501160   8.5244010
 131.7689350 107.5222940   8.7525340 128.1121180 108.2170420  14.3438360
 127.2981020 108.6467580  14.6064150 128.5195380 108.8288830  13.7307410
 126.5722230  99.2962960   2.5392260 126.9907110  99.1093940   1.6988920
 126.2658290  98.4442010   2.8495190 130.0711960 104.2087100   6.2368060
 129.6955560 103.4415030   5.8049350 129.3415080 104.5909800   6.7242990
 114.6607720 104.8874240  12.8577110 115.0280760 104.8001640  13.7373130
 114.0918540 104.1240790  12.7583970 129.4611580 103.3558620  15.8707580
 129.2297670 103.1271370  14.9705530 129.7216130 104.2758170  15.8252470
 114.2123720 101.7983330  16.7635530 113.3179770 101.7650090  17.1029240
 114.7521270 101.9970120  17.5286780 127.8999650  98.5815050  18.6487280
 128.7769830  98.5898450  19.0321280 127.9120490  97.8445890  18.0379630
 112.8369870 101.7120600   4.2599100 111.9333950 101.9750800   4.0850760
 113.3210490 101.9831770   3.4799060 129.3462920 102.4344590   9.5375300
 129.8700400 101.9407240   8.9065470 129.9322340 102.5694950  10.2822870
 129.5252640 102.5184460  13.0594850 128.5755350 102.4848000  13.1739840
 129.7065650 103.4284570  12.8244620 128.8362890 101.6917940   5.4767710
 129.3322010 101.4588810   6.2616590 128.6378960 100.8529780   5.0605350
 114.7163430  96.0731660  11.1118750 115.3639620  95.5229040  10.6713910
 115.1365270  96.3274810  11.9334560 130.2650050 100.3278890   8.0105390
 130.1549330 100.1734930   8.9487660 131.0257640  99.7999830   7.7680800
 128.6115770  96.2673020  14.4688390 129.2487990  96.8807160  14.8347580
 128.7590660  96.3033680  13.5237620 131.2278810  98.9297470   3.8768240
 130.4330310  98.8642590   4.4061150 131.4322090  99.8648110   3.8653590
 128.1697230 112.9689020   7.8706630 128.7656300 112.6473590   7.1941050
 128.4275380 112.4960840   8.6619900 114.4695430  96.2287330  13.8544070
 114.1210250  96.6851150  14.6202250 114.1383130  95.3344460  13.9366500
 116.0759800 109.4006930  18.0197260 116.0329430 109.0299840  18.9011720
 116.2070810 110.3384500  18.1599080 119.7765830 110.9566520  13.6206980
 119.5357190 111.2241080  12.7337500 120.7168470 111.1272250  13.6757840
 121.9820250  97.4199210  17.3763490 121.9209140  98.0121040  18.1258900
 122.9220630  97.3125170  17.2313750 124.6194810  97.0769270  17.0155780
 125.2335220  97.3948560  16.3536860 125.1644370  96.5917860  17.6351640
 131.0369990 112.9760900  14.4217620 130.5428270 113.3729770  13.7044750
 130.4283280 112.3510110  14.8154900 115.1416070  95.7563530  17.1294840
 115.6899060  95.5751580  16.3660950 115.2071380  94.9657640  17.6651150
 115.9147830 112.3469180  15.1395040 115.3208150 112.2153880  15.8785080
 115.9071670 111.5107320  14.6737140 125.3602850  95.6401410  13.3425070
 124.4862690  95.9736520  13.1398000 125.2513600  95.1674590  14.1676940
 126.2674830  97.8472280  14.7266790 125.9388190  97.0324040  14.3468520
 127.2157130  97.8042090  14.6032480 128.7209440 113.6184320  11.7004360
 128.2612410 114.3700130  11.3262380 128.0921900 112.8990790  11.6419160
 115.5460060 109.7127560  14.0903080 114.8194120 109.0932850  14.0229030
 115.6069210 110.1068170  13.2201160 119.1505160 111.9272560  10.8752490
 119.6670180 111.3159920  10.3500750 119.8002540 112.4301340  11.3663500
 121.8900660 112.8181050  11.7021470 122.1778470 112.5635350  10.8254480
 122.4023880 112.2658410  12.2927040 123.1077670  96.5571250  12.2817980
 122.3249460  97.0316750  12.5614740 122.8140600  95.6526080  12.1731160
 127.6598740  97.2594350  10.3267070 128.1006830  97.2039450   9.4788670
 127.3906330  98.1752360  10.3977250 129.5237310  96.8909590   8.3375890
 129.4625710  95.9470810   8.1906910 130.3029340  96.9989680   8.8829350
 113.8290060 113.0301950   7.2999840 113.6612100 112.3972630   7.9981730
 112.9624570 113.2361350   6.9494030 114.4518080  96.8618730   4.8031700
 115.2097440  96.9747610   4.2295730 113.9895250  97.6987930   4.7575130
 120.9931890  98.9758000   7.7934010 120.1806400  98.6014890   7.4529890
 121.4973530  98.2203080   8.0955200 125.4956870  95.6400450   9.0317080
 126.0986240  96.2120660   9.5065600 124.7549860  96.2039890   8.8090980
 128.6391470  96.0422010   4.3057360 128.8342100  96.9405460   4.5724790
 127.8521340  95.8109090   4.7990310 115.4352760 111.7235180   4.7449980
 114.9100380 112.1043210   4.0411940 115.3597340 112.3485950   5.4659690
 116.8243230  97.3882780   3.3433670 117.3535990  96.6012580   3.2141620
 117.4571550  98.0673970   3.5769200 119.0181070  97.1257920   6.3979060
 118.3883810  96.4245230   6.5649190 118.4786210  97.8862050   6.1812220
 121.9573020 113.7397150  19.0689670 122.8840330 113.5041420  19.1125630
 121.9423450 114.5669150  18.5875700 130.1918080 113.2822720   6.0663920
 130.3670270 112.5960460   5.4224840 129.4939650 113.8069770   5.6740590
 119.1436630  96.4041900  18.8331550 118.8620900  96.9075500  18.0692370
 119.5256330  95.6063650  18.4673680 118.0345730 113.6717560   3.6199230
 118.7664550 113.3876840   3.0723120 118.2939400 113.4330840   4.5098610
 117.1960520 109.7882290   3.6245560 116.5669400 110.2567390   4.1731390
 117.3108350 108.9431510   4.0591750 125.7452090  95.8195480  19.4112020
 125.6317540  96.1390090  20.3063540 126.5621830  96.2207990  19.1149300
 128.5250580 112.9667010  18.8930710 129.3175900 112.4716240  18.6856670
 128.8183730 113.6457150  19.5006320 124.6510240  85.0644460 139.9694680
 124.5704290  84.1499070 139.6986390 124.2374660  85.5611530 139.2634390
 122.7828280  86.8423480 141.8503950 122.0070380  86.3623920 142.1402520
 123.4341210  86.1629130 141.6760110 116.7994110  87.1543290 142.7279710
 115.9678990  86.8992000 143.1276220 117.4075090  87.2254060 143.4637630
 126.8035710  91.2483670 140.6303080 126.3417240  90.4770910 140.9590250
 127.6161260  91.2749740 141.1355530 116.7795370  91.1883380 142.9237730
 117.0823410  90.2981120 142.7447950 117.5238960  91.7453600 142.6959980
 115.2086060  82.1145180 136.5122100 114.3202760  82.4561150 136.4101980
 115.4927250  81.9145500 135.6202930 113.1719070  84.7150830 142.3961800
 113.7435180  83.9473030 142.3965440 113.1720610  85.0139590 141.4868410
 123.0299020  93.5341680 140.2507070 122.4110460  93.9899180 139.6801510
 123.8850800  93.6893140 139.8496770 122.2237270  89.5180670 141.8574110
 122.1545550  88.5770610 141.6963240 122.9857130  89.6082080 142.4296680
 114.4143940  80.1235190 144.1830730 114.2346780  79.2260940 144.4633490
 114.0124020  80.6707060 144.8577680 123.2542440  82.3251050 142.0843040
 123.6307260  81.4522930 141.9716710 123.1561950  82.6609750 141.1933480
 117.3847450  80.6976680 137.5460480 117.4914200  81.5980410 137.8529240
 116.4739810  80.6494650 137.2555130 127.0366560  79.8201490 139.0171380
 127.8576180  79.3298060 139.0596860 127.0700640  80.4099150 139.7703220
 115.0330610  82.6195690 142.7913070 115.7140720  82.8834060 143.4100470
 114.7178660  81.7796560 143.1251080 119.2255180  83.6663050 141.8785660
 119.7333400  84.1644020 142.5190680 119.7568420  82.8898250 141.7025020
 131.3266110  81.8368240 145.5815010 130.6218280  82.2249950 145.0630120
 131.5924030  82.5318530 146.1835940 117.5091280  78.3061610 146.1449080
 117.5109720  78.8234000 145.3394980 116.6795590  77.8291790 146.1219010
 123.8962370  88.4180920 137.6438980 123.2779640  88.8830370 137.0801700
 124.4085620  89.1108400 138.0608490 118.7594130  87.9456790 144.3222580
 118.4263510  88.5725710 144.9643650 118.9360810  88.4718670 143.5424250
 127.2728040  81.7601870 141.7898920 126.5683610  82.0486760 142.3702030
 127.6340200  82.5701980 141.4298480 117.1906610  80.0171570 144.1519530
 117.5323420  80.8613620 143.8573400 116.2522420  80.1655310 144.2684870
 117.9713230  89.9137590 146.1371760 118.5887230  90.5888670 145.8556210
 117.1106350  90.3225570 146.0459260 113.2645570  89.1037450 135.0178610
 112.8873550  89.5924550 134.2863510 113.5218640  89.7762730 135.6485140
 128.8890820  91.3777000 144.0526400 128.2054340  92.0476110 144.0443070
 129.4285110  91.5757650 143.2871260 130.3414960  81.2056660 142.1808130
 129.3939870  81.2395640 142.3123560 130.6664950  82.0195610 142.5657490
 120.8734500  77.5053840 140.4764120 121.1809480  76.9500730 139.7599620
 119.9435200  77.6398300 140.2937110 126.4249560  93.2221130 142.7671580
 126.4376720  92.8183420 141.8993840 125.8724780  93.9968420 142.6633010
 127.7194980  89.9437350 137.8561750 127.6091310  89.0011680 137.9811170
 127.7163230  90.3052990 138.7424510 125.8235000  88.1250970 144.0954190
 126.2403790  87.9111080 143.2607650 126.5474820  88.3823760 144.6662810
 123.2615260  85.5702670 137.2124240 122.3344540  85.5040050 137.4412710
 123.4140080  86.5082800 137.0979480 123.2484340  81.8419670 134.2091400
 122.3088010  82.0033630 134.2943860 123.5667600  82.5605350 133.6627390
 129.7697100  86.5238190 144.1870430 128.9415730  86.5931280 143.7120560
 130.3647580  87.1092500 143.7186260 127.2912550  87.1322970 137.7159490
 126.6724970  86.7942520 137.0685790 127.2737000  86.4882730 138.4238680
 126.7339110  83.3107510 145.1325300 126.3210290  84.1361220 145.3865290
 126.0015060  82.7252550 144.9401660 118.8671900  86.0967410 139.9943970
 118.4628900  85.3844660 139.4989870 118.9535020  85.7520650 140.8832010
 119.3353600  89.7834970 142.1583180 119.0381890  89.1780440 141.4790960
 120.2853420  89.8212280 142.0472540 117.5800520  82.8710620 143.7743010
 118.1315110  82.9805960 142.9996260 118.0944030  83.2448220 144.4898240
 127.4239210  93.3566840 145.8206280 126.9469770  94.1639030 145.6278890
 126.7401000  92.7045170 145.9732490 118.4272030  89.5216660 148.8090980
 117.5300560  89.7456630 149.0564380 118.4524900  89.6451600 147.8602380
 125.4677250  86.3709780 134.7232240 125.9070530  85.5332210 134.5770060
 126.1805670  87.0039180 134.8096380 117.2543250  86.3929980 147.3848350
 117.1151020  87.2652780 147.7535750 116.3724610  86.0502790 147.2396290
 123.5772630  91.3105850 138.6913480 124.0168540  92.0530180 138.2768870
 123.5159520  91.5532420 139.6152440 119.0523600  92.3351680 149.5933500
 119.0239030  92.7394630 148.7261930 118.8888570  91.4062040 149.4305100
 129.0494390  77.6252590 133.0373280 128.7367050  77.7179420 133.9372350
 129.8106860  78.2033620 132.9870710 115.5676530  84.9912390 137.4950620
 115.4474130  85.7174480 136.8831890 115.2577420  84.2215300 137.0178530
 113.2061900  88.1627530 143.3019260 113.2842320  88.2976300 142.3574980
 113.8203580  87.4543420 143.4947380 114.4509530  89.8627720 139.7125440
 114.0437610  90.0042310 138.8579040 115.3422540  89.5787880 139.5096650
 130.4071670  90.3091630 148.0497680 130.5334730  90.0703510 147.1314860
 130.4493050  89.4776170 148.5219760 124.2688410  94.0119630 146.6192490
 124.7833080  93.9227640 147.4214920 123.4257490  94.3579330 146.9120400
 126.2442810  94.2974970 136.0476490 126.0843950  94.0077910 136.9458320
 126.0789520  93.5215100 135.5121720 118.7231190  94.0773500 137.8248110
 118.5473670  93.1609040 137.6115910 117.8686930  94.4360790 138.0645910
 125.9468940  91.8062530 134.6074490 125.2534100  91.8039820 133.9476770
 126.6891800  91.3821850 134.1768660 125.5118870  93.4325240 138.6822980
 125.9675820  92.6514620 138.9961600 125.8511390  94.1432060 139.2264160
 130.2595680  82.3624090 149.0147420 129.6439950  82.8703760 148.4862880
 129.9392100  81.4622420 148.9573360 113.2621420  89.2041700 145.8413720
 113.4252460  88.7347060 145.0233090 113.7273870  88.6965260 146.5062560
 118.0340190  78.3347460 140.8774290 117.5908340  79.1157000 140.5458810
 118.5925180  78.6577350 141.5845230 122.3210000  81.2015980 146.4809610
 121.8589370  81.4099000 147.2929550 121.9188110  80.3875330 146.1780280
 127.3214510  82.4224930 147.6106270 126.4708100  82.1230680 147.9315340
 127.1616300  82.6666940 146.6990090 124.4164220  83.9226680 149.7105060
 124.7417630  83.0890430 149.3707290 125.2044550  84.4455200 149.8583390
 121.1499010  77.9558160 135.7580120 120.5253190  77.9518030 136.4833430
 121.0629130  77.0889120 135.3616090 120.0716090  78.8794790 142.7363890
 120.3688420  79.7857620 142.6555910 120.6201650  78.3913570 142.1223460
 117.8254410  83.4581030 138.6055540 117.5995330  83.2418200 139.5102160
 117.0446940  83.8909490 138.2601510 125.0552170  83.4644400 137.2046190
 124.4561060  84.1880200 137.0209810 125.6031780  83.4021180 136.4222640
 120.2653620  84.3566610 149.2715810 120.1697220  83.4161340 149.1216210
 121.1085600  84.5781680 148.8763880 123.6617040  82.1007940 139.2349470
 124.0546610  82.4180140 138.4218160 124.0233890  81.2219820 139.3493990
 115.3964160  80.7680280 147.4249590 115.0027550  81.6155490 147.6322370
 114.7082560  80.1306650 147.6158230 112.6981210  78.6908740 141.4579670
 112.4094260  79.2611600 142.1704650 113.4426970  78.2113190 141.8210900
 112.8851440  82.6328860 132.6682390 112.8026110  83.5759620 132.8097380
 112.5334500  82.4903770 131.7894740 124.2472180  84.6913690 143.3300250
 123.5153300  85.2000500 143.6790350 123.8496520  83.8743670 143.0289030
 120.6849570  81.3667890 141.7352740 120.6885630  80.9257840 140.8857280
 121.5800690  81.6885220 141.8424560 116.5351950  81.2494380 140.6946950
 116.1952000  81.7269610 141.4514000 115.7729270  80.7959500 140.3348050
 120.7469720  82.3679970 134.7259500 120.8682540  82.3266450 135.6745320
 120.3618230  83.2304120 134.5706230 124.7098090  80.1447370 142.7423190
 124.7270830  80.5956020 143.5865040 124.4613670  79.2453010 142.9556630
 119.7591220  84.6781110 134.1242800 119.1908120  84.2299360 133.4978710
 120.4680220  85.0373890 133.5907950 128.1368840  77.5579550 148.5809570
 128.4614610  76.8269210 149.1067550 128.1725350  77.2393190 147.6790560
 114.8360400  88.5793130 148.0009530 114.4515190  87.9386800 148.5992490
 115.1472590  89.2829250 148.5704260 120.9857540  85.4269670 143.4818150
 121.3527670  84.9528240 144.2279490 120.7962600  86.3011240 143.8226490
 113.8498030  80.1713360 139.6111620 113.5644950  79.8069030 140.4490240
 113.7876890  79.4393820 138.9974760 118.7756910  84.4678310 145.8002360
 118.4713980  85.3470290 146.0252720 119.7303370  84.5278100 145.8359800
 117.3038700  88.6739300 136.3969210 116.5300960  88.1336920 136.2367930
 118.0333330  88.1545910 136.0586970 128.0626680  87.6704660 142.1895600
 128.7825800  88.1659950 141.7991710 127.8608500  86.9922550 141.5449470
 123.5236620  79.0642620 136.3324990 122.7101230  78.5655790 136.2570300
 123.3298570  79.9040870 135.9161340 123.4445480  87.7413720 148.0764600
 123.3782790  86.8209390 147.8222190 122.8150620  87.8389160 148.7909240
 126.2385010  83.4362270 134.6287150 127.1264630  83.7479500 134.4538490
 126.2090100  82.5634520 134.2367730 117.3476100  88.3419680 140.0348020
 117.8654770  87.5387940 139.9804910 116.8960120  88.2798820 140.8764850
 122.2345600  89.6085960 135.3075320 122.5761300  90.3528190 134.8118640
 121.4058310  89.9217080 135.6700150 114.8320640  85.3081050 146.9473720
 114.4735580  85.9734900 147.5347060 114.5375200  84.4764600 147.3186340
 118.0333760  85.7665290 149.8313270 117.7333900  85.9122470 148.9341090
 118.8045000  85.2070580 149.7386660 123.3762210  90.5634290 147.8268400
 123.3906750  89.6315250 147.6087310 122.6687310  90.6494050 148.4658170
 128.5099280  84.7474110 134.0967010 128.4263000  85.1788330 133.2463450
 129.2293470  85.2072460 134.5293830 129.5873420  87.2041630 147.1736980
 128.8621610  87.7970410 146.9766370 130.1148880  87.1965170 146.3750350
 129.5386530  91.6016370 136.8249140 128.8962690  90.9471990 137.0992860
 129.1517190  92.0071460 136.0489810 125.1173010  88.9301800 140.6720830
 125.4696830  88.3329930 140.0122200 124.2335340  88.6046030 140.8429080
 121.2036290  89.6899490 138.0791240 121.8907420  90.2368700 138.4598830
 120.4168710  90.2340220 138.1140850 113.3428690  85.3072310 133.5708320
 114.2123540  85.5897110 133.8544240 112.8519010  86.1208180 133.4557130
 120.5063500  86.6945520 137.6916600 120.9626280  87.5050770 137.9176790
 120.1551710  86.3768660 138.5235090 122.8096110  92.2051860 144.9208900
 123.4538330  92.4111240 145.5982320 123.1725550  91.4440260 144.4679750
 116.4075280  77.0383170 138.1639120 116.2789910  77.0301070 139.1124040
 115.5837300  77.3766260 137.8130130 124.0828190  90.2084210 143.6386350
 124.7250420  89.5077370 143.7518520 124.6077540  90.9882650 143.4583240
 127.9283910  90.4932830 133.3625490 127.7021490  89.7763270 133.9550130
 127.5380110  90.2445270 132.5247240 125.8565810  91.0079110 146.8422410
 126.1922050  91.5945800 147.5200330 124.9366150  90.8771820 147.0720200
 113.7099940  94.5199690 134.1369950 114.0697580  95.1189030 133.4827220
 113.5692280  95.0659580 134.9104980 113.4069210  78.7974290 147.6245820
 112.6927730  78.9971210 148.2298430 113.8264250  78.0213860 147.9960620
 127.5100160  88.4104770 135.0239650 127.2221860  88.8717460 135.8117530
 128.3052330  87.9502540 135.2923870 113.6941800  92.7854550 148.6112350
 113.8032920  91.8449290 148.4707740 113.0422360  93.0509300 147.9626080
 119.7268560  91.9030890 134.9543620 119.7178660  92.6360580 134.3388130
 118.8066920  91.6562470 135.0470580 115.3275200  87.1245780 135.6990380
 114.7203150  87.8644680 135.7085680 115.8024550  87.2145140 134.8728580
 124.9007990  81.2896600 145.3747270 125.2688810  80.4691810 145.7026840
 124.0406190  81.3498490 145.7902920 128.2670020  80.2453540 136.1834830
 127.6383180  80.3499210 135.4693060 127.7721940  80.4650320 136.9728710
 122.7128160  91.9659130 133.6168810 122.8140140  91.7623120 132.6870790
 121.8129900  91.7117410 133.8216590 120.2354050  82.5239490 137.5992710
 119.5270200  82.9925830 138.0406320 120.5198530  81.8661500 138.2337900
 121.8609980  83.9436190 145.5985240 122.3595230  84.4182010 146.2637090
 122.0032930  83.0199710 145.8055270 124.2669480  79.2490150 139.0388500
 124.1437260  79.2676280 138.0898010 125.2154040  79.2969090 139.1586900
 121.3546270  94.4845450 138.3116480 121.6087770  94.4466840 137.3895850
 120.4058750  94.3578780 138.3044730 118.4389070  80.8324570 134.9743420
 119.2879600  81.2694720 134.9083610 118.0720340  81.1444830 135.8015480
 129.0676840  80.1604150 146.4413630 128.5650440  80.9009550 146.7807440
 129.8833500  80.5488150 146.1250420 127.3598850  85.4037330 139.8874990
 126.4188990  85.4187560 140.0622680 127.6742920  84.6173290 140.3335290
 117.3380490  87.0856930 133.4478950 118.1043760  86.9738290 134.0104380
 117.4155180  86.3894900 132.7955720 116.0327250  84.5182000 134.1311840
 116.1130840  83.5709510 134.2429240 116.9247000  84.8488880 134.2372500
 129.3624430  92.5746180 141.5629250 129.4871850  93.3977350 142.0353060
 130.2289990  92.3636910 141.2153400 116.8341960  94.6677390 141.2346380
 117.5704440  94.1192850 141.5054950 117.2182880  95.5333400 141.0952370
 113.7187440  90.7350960 137.1087890 112.7927220  90.9772100 137.0993300
 114.1843870  91.5625220 136.9872640 119.9444270  93.8407700 133.0571950
 120.7372880  94.1296530 132.6053740 119.4248620  93.4099870 132.3784430
 126.1065240  93.6883620 148.9816780 127.0586990  93.6041640 148.9317020
 125.9593460  94.3525330 149.6550570 128.9974440  93.0677830 134.4808690
 128.7115950  92.6542970 133.6662870 128.7993990  93.9965540 134.3609210
 113.5598050  86.3396920 149.3668010 114.0637070  85.7604200 149.9384240
 112.8205470  86.6237150 149.9044380 120.4621670  89.0611110 132.9214300
 120.3572310  88.4463460 133.6475680 120.2945890  88.5377000 132.1377310
 120.6135990  87.7467910 148.9003530 119.8481660  88.3152910 148.8158200
 120.7951950  87.4544120 148.0071760 123.7024400  88.1231140 133.5256290
 123.1534500  88.5700440 134.1699030 124.3243660  87.6180390 134.0493960
 127.7559340  89.4773240 149.4578550 128.4968810  89.8149000 148.9546010
 126.9932020  89.6465300 148.9048320 119.3699520  87.0822060 135.4221590
 119.7915940  86.9161930 136.2652980 119.4950360  86.2722290 134.9276730
 117.5326940  83.0618610 148.2292570 117.0023400  82.5709560 147.6015910
 118.2015010  83.4902810 147.6950500 121.8827160  86.1059670 132.6698690
 122.4032820  85.3908690 132.3039840 122.5295560  86.7445540 132.9699200
 126.4305000  87.5288070 147.9933760 126.8446020  87.6833150 148.8424180
 125.4956000  87.6543290 148.1559540 126.9027170  84.8684230 149.9972910
 127.4847940  84.1136550 149.9093390 127.0788940  85.3991670 149.2204390
 118.0199240  80.0280980 148.3089860 117.9256110  79.4101730 147.5840730
 117.4396630  80.7547270 148.0819770 120.7860680  78.5854220 145.3417250
 120.3377980  78.6078480 144.4962800 120.1525880  78.1873240 145.9387550
 121.1920230  87.4808550 145.9629690 121.6108340  88.3241280 145.7905930
 120.2728860  87.6180590 145.7336470 123.5284130  85.2124730 147.3467530
 123.6480340  84.6165870 148.0862370 124.3878130  85.2494420 146.9268830
 125.8672030  85.7661920 145.9230040 125.3407250  86.2904540 145.3195180
 126.2103370  86.3989310 146.5539770 118.2658420  83.1555290 132.3679750
 118.0647480  82.2922650 132.7293090 118.0950470  83.0688650 131.4301350
 119.0427650  93.7861560 147.0787420 118.5048740  94.5107620 146.7596120
 119.2961610  93.3091900 146.2884760 120.2952900  81.7546080 148.6043350
 120.8852590  81.4461930 149.2921170 119.4773140  81.2825830 148.7603250
 125.1146330  81.3711890 148.8376370 124.4261850  80.7093430 148.7726360
 125.8352350  80.9250160 149.2824830 125.7446730  77.9663520 134.8966630
 126.0249020  77.1231420 135.2526050 124.9712460  78.1986630 135.4105380
 117.0641220  80.2555910 132.3557630 117.3667120  80.2623340 131.4476780
 117.8035810  79.9053770 132.8525290 121.8989860  95.0212770 147.3374070
 121.8248560  95.9247910 147.6446440 120.9968700  94.7024670 147.3096140
 120.2826150  79.1990530 133.3413830 119.9348150  78.5214520 132.7616280
 120.4838920  78.7380040 134.1557220 122.4475190  94.1871280 134.9600430
 123.3425980  94.5256250 134.9819190 122.4792820  93.4650690 134.3324710
 116.0871350  89.5598330 133.1887430 116.5246220  90.1028000 133.8445010
 116.5719080  88.7345280 133.1983770 113.3017150  92.3487360 140.6407690
 113.6320160  91.4808420 140.4086330 113.7308150  92.5545880 141.4712650
 117.8979070  90.6796370 138.3009660 117.5974610  90.5561340 139.2013570
 117.7916560  89.8204960 137.8925390 113.7907360  93.2157950 143.3789320
 113.3538350  93.3958750 144.2113470 114.3585040  93.9732570 143.2371040
 129.4269540  92.7174950 147.6666630 128.8271530  92.7767510 146.9230550
 129.5563440  91.7779930 147.7963480 130.6670990  90.4592770 133.0036340
 129.8363950  90.5269420 133.4743570 130.8442820  91.3496890 132.7003200
 130.1227450  87.2040250 135.5070540 130.8846360  87.7736900 135.6130230
 130.1381820  86.6367450 136.2778850 113.6231790  85.7278180 139.7378200
 112.9680630  85.4589820 139.0937900 114.4609740  85.6182660 139.2880180
 131.1287420  88.0590350 140.3512470 131.4996250  87.2757670 139.9448440
 131.7689350  88.7479450 140.1729770 128.1121180  89.4426930 145.7642790
 127.2981020  89.8724090 146.0268580 128.5195380  90.0545340 145.1511840
 130.1746620  87.4974620 132.6643060 130.4495460  88.4053500 132.5362280
 129.9857360  87.4337150 133.6005050 126.5722230  80.5219470 133.9596690
 126.9907110  80.3350450 133.1193350 126.2658290  79.6698520 134.2699620
 130.0711960  85.4343610 137.6572490 129.6955560  84.6671540 137.2253780
 129.3415080  85.8166310 138.1447420 114.6607720  86.1130750 144.2781540
 115.0280760  86.0258150 145.1577560 114.0918540  85.3497300 144.1788400
 129.4611580  84.5815130 147.2912010 129.2297670  84.3527880 146.3909960
 129.7216130  85.5014680 147.2456900 114.2123720  83.0239840 148.1839960
 113.3179770  82.9906600 148.5233670 114.7521270  83.2226630 148.9491210
 112.8369870  82.9377110 135.6803530 111.9333950  83.2007310 135.5055190
 113.3210490  83.2088280 134.9003490 129.3462920  83.6601100 140.9579730
 129.8700400  83.1663750 140.3269900 129.9322340  83.7951460 141.7027300
 129.5252640  83.7440970 144.4799280 128.5755350  83.7104510 144.5944270
 129.7065650  84.6541080 144.2449050 115.3797080  81.9942650 133.5897910
 116.0888780  81.5725870 133.1045190 114.6637020  82.0617880 132.9581260
 115.0271240  78.0481980 132.6300560 115.7499370  78.5890920 132.9481780
 115.2995760  77.7745400 131.7542100 128.8362890  82.9174450 136.8972140
 129.3322010  82.6845320 137.6821020 128.6378960  82.0786290 136.4809780
 114.7163430  77.2988170 142.5323180 115.3639620  76.7485550 142.0918340
 115.1365270  77.5531320 143.3538990 130.2650050  81.5535400 139.4309820
 130.1549330  81.3991440 140.3692090 131.0257640  81.0256340 139.1885230
 128.6115770  77.4929530 145.8892820 129.2487990  78.1063670 146.2552010
 128.7590660  77.5290190 144.9442050 131.1540320  79.3843320 132.6715960
 132.0789630  79.2524500 132.4634250 131.1316110  79.4636140 133.6252410
 131.2278810  80.1553980 135.2972670 130.4330310  80.0899100 135.8265580
 131.4322090  81.0904620 135.2858020 128.1697230  94.1945530 139.2911060
 128.7656300  93.8730100 138.6145480 128.4275380  93.7217350 140.0824330
 114.4695430  77.4543840 145.2748500 114.1210250  77.9107660 146.0406680
 114.1383130  76.5600970 145.3570930 119.7765830  92.1823030 145.0411410
 119.5357190  92.4497590 144.1541930 120.7168470  92.3528760 145.0962270
 121.9820250  78.6455720 148.7967920 121.9209140  79.2377550 149.5463330
 122.9220630  78.5381680 148.6518180 124.6194810  78.3025780 148.4360210
 125.2335220  78.6205070 147.7741290 125.1644370  77.8174370 149.0556070
 131.0369990  94.2017410 145.8422050 130.5428270  94.5986280 145.1249180
 130.4283280  93.5766620 146.2359330 115.1416070  76.9820040 148.5499270
 115.6899060  76.8008090 147.7865380 115.2071380  76.1914150 149.0855580
 115.9147830  93.5725690 146.5599470 115.3208150  93.4410390 147.2989510
 115.9071670  92.7363830 146.0941570 125.3602850  76.8657920 144.7629500
 124.4862690  77.1993030 144.5602430 125.2513600  76.3931100 145.5881370
 126.2674830  79.0728790 146.1471220 125.9388190  78.2580550 145.7672950
 127.2157130  79.0298600 146.0236910 128.7209440  94.8440830 143.1208790
 128.2612410  95.5956640 142.7466810 128.0921900  94.1247300 143.0623590
 115.5460060  90.9384070 145.5107510 114.8194120  90.3189360 145.4433460
 115.6069210  91.3324680 144.6405590 119.1505160  93.1529070 142.2956920
 119.6670180  92.5416430 141.7705180 119.8002540  93.6557850 142.7867930
 121.8900660  94.0437560 143.1225900 122.1778470  93.7891860 142.2458910
 122.4023880  93.4914920 143.7131470 123.1077670  77.7827760 143.7022410
 122.3249460  78.2573260 143.9819170 122.8140600  76.8782590 143.5935590
 127.6598740  78.4850860 141.7471500 128.1006830  78.4295960 140.8993100
 127.3906330  79.4008870 141.8181680 129.5237310  78.1166100 139.7580320
 129.4625710  77.1727320 139.6111340 130.3029340  78.2246190 140.3033780
 113.8290060  94.2558460 138.7204270 113.6612100  93.6229140 139.4186160
 112.9624570  94.4617860 138.3698460 114.4518080  78.0875240 136.2236130
 115.2097440  78.2004120 135.6500160 113.9895250  78.9244440 136.1779560
 120.9931890  80.2014510 139.2138440 120.1806400  79.8271400 138.8734320
 121.4973530  79.4459590 139.5159630 125.4956870  76.8656960 140.4521510
 126.0986240  77.4377170 140.9270030 124.7549860  77.4296400 140.2295410
 128.6391470  77.2678520 135.7261790 128.8342100  78.1661970 135.9929220
 127.8521340  77.0365600 136.2194740 115.4352760  92.9491690 136.1654410
 114.9100380  93.3299720 135.4616370 115.3597340  93.5742460 136.8864120
 116.8243230  78.6139290 134.7638100 117.3535990  77.8269090 134.6346050
 117.4571550  79.2930480 134.9973630 119.0181070  78.3514430 137.8183490
 118.3883810  77.6501740 137.9853620 118.4786210  79.1118560 137.6016650
 130.1918080  94.5079230 137.4868350 130.3670270  93.8216970 136.8429270
 129.4939650  95.0326280 137.0945020 118.0345730  94.8974070 135.0403660
 118.7664550  94.6133350 134.4927550 118.2939400  94.6587350 135.9303040
 117.1960520  91.0138800 135.0449990 116.5669400  91.4823900 135.5935820
 117.3108350  90.1688020 135.4796180 124.6510240  85.0644460 121.1951190
 124.5704290  84.1499070 120.9242900 124.2374660  85.5611530 120.4890900
 122.7828280  86.8423480 123.0760460 122.0070380  86.3623920 123.3659030
 123.4341210  86.1629130 122.9016620 116.7994110  87.1543290 123.9536220
 115.9678990  86.8992000 124.3532730 117.4075090  87.2254060 124.6894140
 126.8035710  91.2483670 121.8559590 126.3417240  90.4770910 122.1846760
 127.6161260  91.2749740 122.3612040 116.7795370  91.1883380 124.1494240
 117.0823410  90.2981120 123.9704460 117.5238960  91.7453600 123.9216490
 115.2086060  82.1145180 117.7378610 114.3202760  82.4561150 117.6358490
 115.4927250  81.9145500 116.8459440 123.0299020  93.5341680 121.4763580
 122.4110460  93.9899180 120.9058020 123.8850800  93.6893140 121.0753280
 122.2237270  89.5180670 123.0830620 122.1545550  88.5770610 122.9219750
 122.9857130  89.6082080 123.6553190 123.2542440  82.3251050 123.3099550
 123.6307260  81.4522930 123.1973220 123.1561950  82.6609750 122.4189990
 127.0366560  79.8201490 120.2427890 127.8576180  79.3298060 120.2853370
 127.0700640  80.4099150 120.9959730 119.2255180  83.6663050 123.1042170
 119.7333400  84.1644020 123.7447190 119.7568420  82.8898250 122.9281530
 131.3266110  81.8368240 126.8071520 130.6218280  82.2249950 126.2886630
 131.5924030  82.5318530 127.4092450 117.5091280  78.3061610 127.3705590
 117.5109720  78.8234000 126.5651490 116.6795590  77.8291790 127.3475520
 123.8962370  88.4180920 118.8695490 123.2779640  88.8830370 118.3058210
 124.4085620  89.1108400 119.2865000 118.7594130  87.9456790 125.5479090
 118.4263510  88.5725710 126.1900160 118.9360810  88.4718670 124.7680760
 127.2728040  81.7601870 123.0155430 126.5683610  82.0486760 123.5958540
 127.6340200  82.5701980 122.6554990 117.1906610  80.0171570 125.3776040
 117.5323420  80.8613620 125.0829910 116.2522420  80.1655310 125.4941380
 117.9713230  89.9137590 127.3628270 118.5887230  90.5888670 127.0812720
 117.1106350  90.3225570 127.2715770 113.2645570  89.1037450 116.2435120
 112.8873550  89.5924550 115.5120020 113.5218640  89.7762730 116.8741650
 128.8890820  91.3777000 125.2782910 128.2054340  92.0476110 125.2699580
 129.4285110  91.5757650 124.5127770 130.3414960  81.2056660 123.4064640
 129.3939870  81.2395640 123.5380070 130.6664950  82.0195610 123.7914000
 120.8734500  77.5053840 121.7020630 121.1809480  76.9500730 120.9856130
 119.9435200  77.6398300 121.5193620 126.4249560  93.2221130 123.9928090
 126.4376720  92.8183420 123.1250350 125.8724780  93.9968420 123.8889520
 127.7194980  89.9437350 119.0818260 127.6091310  89.0011680 119.2067680
 127.7163230  90.3052990 119.9681020 125.8235000  88.1250970 125.3210700
 126.2403790  87.9111080 124.4864160 126.5474820  88.3823760 125.8919320
 123.2615260  85.5702670 118.4380750 122.3344540  85.5040050 118.6669220
 123.4140080  86.5082800 118.3235990 129.7697100  86.5238190 125.4126940
 128.9415730  86.5931280 124.9377070 130.3647580  87.1092500 124.9442770
 127.2912550  87.1322970 118.9416000 126.6724970  86.7942520 118.2942300
 127.2737000  86.4882730 119.6495190 126.7339110  83.3107510 126.3581810
 126.3210290  84.1361220 126.6121800 126.0015060  82.7252550 126.1658170
 118.8671900  86.0967410 121.2200480 118.4628900  85.3844660 120.7246380
 118.9535020  85.7520650 122.1088520 119.3353600  89.7834970 123.3839690
 119.0381890  89.1780440 122.7047470 120.2853420  89.8212280 123.2729050
 127.4239210  93.3566840 127.0462790 126.9469770  94.1639030 126.8535400
 126.7401000  92.7045170 127.1989000 118.4272030  89.5216660 130.0347490
 117.5300560  89.7456630 130.2820890 118.4524900  89.6451600 129.0858890
 125.4677250  86.3709780 115.9488750 125.9070530  85.5332210 115.8026570
 126.1805670  87.0039180 116.0352890 117.2543250  86.3929980 128.6104860
 117.1151020  87.2652780 128.9792260 116.3724610  86.0502790 128.4652800
 123.5772630  91.3105850 119.9169990 124.0168540  92.0530180 119.5025380
 123.5159520  91.5532420 120.8408950 119.0523600  92.3351680 130.8190010
 119.0239030  92.7394630 129.9518440 118.8888570  91.4062040 130.6561610
 129.0494390  77.6252590 114.2629790 128.7367050  77.7179420 115.1628860
 129.8106860  78.2033620 114.2127220 115.5676530  84.9912390 118.7207130
 115.4474130  85.7174480 118.1088400 115.2577420  84.2215300 118.2435040
 131.0038420  93.1178780 132.1154180 131.4798140  93.5961670 132.7943260
 131.6245580  93.0496270 131.3899680 113.2061900  88.1627530 124.5275770
 113.2842320  88.2976300 123.5831490 113.8203580  87.4543420 124.7203890
 114.4509530  89.8627720 120.9381950 114.0437610  90.0042310 120.0835550
 115.3422540  89.5787880 120.7353160 130.4071670  90.3091630 129.2754190
 130.5334730  90.0703510 128.3571370 130.4493050  89.4776170 129.7476270
 124.2688410  94.0119630 127.8449000 124.7833080  93.9227640 128.6471430
 123.4257490  94.3579330 128.1376910 126.2442810  94.2974970 117.2733000
 126.0843950  94.0077910 118.1714830 126.0789520  93.5215100 116.7378230
 118.7231190  94.0773500 119.0504620 118.5473670  93.1609040 118.8372420
 117.8686930  94.4360790 119.2902420 125.9468940  91.8062530 115.8331000
 125.2534100  91.8039820 115.1733280 126.6891800  91.3821850 115.4025170
 125.5118870  93.4325240 119.9079490 125.9675820  92.6514620 120.2218110
 125.8511390  94.1432060 120.4520670 130.2595680  82.3624090 130.2403930
 129.6439950  82.8703760 129.7119390 129.9392100  81.4622420 130.1829870
 113.2621420  89.2041700 127.0670230 113.4252460  88.7347060 126.2489600
 113.7273870  88.6965260 127.7319070 118.0340190  78.3347460 122.1030800
 117.5908340  79.1157000 121.7715320 118.5925180  78.6577350 122.8101740
 122.3210000  81.2015980 127.7066120 121.8589370  81.4099000 128.5186060
 121.9188110  80.3875330 127.4036790 127.3214510  82.4224930 128.8362780
 126.4708100  82.1230680 129.1571850 127.1616300  82.6666940 127.9246600
 124.4164220  83.9226680 130.9361570 124.7417630  83.0890430 130.5963800
 125.2044550  84.4455200 131.0839900 120.0716090  78.8794790 123.9620400
 120.3688420  79.7857620 123.8812420 120.6201650  78.3913570 123.3479970
 117.8254410  83.4581030 119.8312050 117.5995330  83.2418200 120.7358670
 117.0446940  83.8909490 119.4858020 125.0552170  83.4644400 118.4302700
 124.4561060  84.1880200 118.2466320 125.6031780  83.4021180 117.6479150
 120.2653620  84.3566610 130.4972320 120.1697220  83.4161340 130.3472720
 121.1085600  84.5781680 130.1020390 123.6617040  82.1007940 120.4605980
 124.0546610  82.4180140 119.6474670 124.0233890  81.2219820 120.5750500
 115.3964160  80.7680280 128.6506100 115.0027550  81.6155490 128.8578880
 114.7082560  80.1306650 128.8414740 121.9709210  80.8515250 131.7202840
 121.2807530  80.6587450 132.3548930 122.7141510  81.1349890 132.2527140
 124.2472180  84.6913690 124.5556760 123.5153300  85.2000500 124.9046860
 123.8496520  83.8743670 124.2545540 120.6849570  81.3667890 122.9609250
 120.6885630  80.9257840 122.1113790 121.5800690  81.6885220 123.0681070
 124.7098090  80.1447370 123.9679700 124.7270830  80.5956020 124.8121550
 124.4613670  79.2453010 124.1813140 119.7591220  84.6781110 115.3499310
 119.1908120  84.2299360 114.7235220 120.4680220  85.0373890 114.8164460
 128.1368840  77.5579550 129.8066080 128.4614610  76.8269210 130.3324060
 128.1725350  77.2393190 128.9047070 114.8360400  88.5793130 129.2266040
 114.4515190  87.9386800 129.8249000 115.1472590  89.2829250 129.7960770
 120.9857540  85.4269670 124.7074660 121.3527670  84.9528240 125.4536000
 120.7962600  86.3011240 125.0483000 118.7756910  84.4678310 127.0258870
 118.4713980  85.3470290 127.2509230 119.7303370  84.5278100 127.0616310
 117.3038700  88.6739300 117.6225720 116.5300960  88.1336920 117.4624440
 118.0333330  88.1545910 117.2843480 128.0626680  87.6704660 123.4152110
 128.7825800  88.1659950 123.0248220 127.8608500  86.9922550 122.7705980
 123.4445480  87.7413720 129.3021110 123.3782790  86.8209390 129.0478700
 122.8150620  87.8389160 130.0165750 126.2385010  83.4362270 115.8543660
 127.1264630  83.7479500 115.6795000 126.2090100  82.5634520 115.4624240
 117.3476100  88.3419680 121.2604530 117.8654770  87.5387940 121.2061420
 116.8960120  88.2798820 122.1021360 122.2345600  89.6085960 116.5331830
 122.5761300  90.3528190 116.0375150 121.4058310  89.9217080 116.8956660
 114.8320640  85.3081050 128.1730230 114.4735580  85.9734900 128.7603570
 114.5375200  84.4764600 128.5442850 118.0333760  85.7665290 131.0569780
 117.7333900  85.9122470 130.1597600 118.8045000  85.2070580 130.9643170
 123.3762210  90.5634290 129.0524910 123.3906750  89.6315250 128.8343820
 122.6687310  90.6494050 129.6914680 128.5099280  84.7474110 115.3223520
 128.4263000  85.1788330 114.4719960 129.2293470  85.2072460 115.7550340
 129.5873420  87.2041630 128.3993490 128.8621610  87.7970410 128.2022880
 130.1148880  87.1965170 127.6006860 129.5386530  91.6016370 118.0505650
 128.8962690  90.9471990 118.3249370 129.1517190  92.0071460 117.2746320
 125.1173010  88.9301800 121.8977340 125.4696830  88.3329930 121.2378710
 124.2335340  88.6046030 122.0685590 121.2036290  89.6899490 119.3047750
 121.8907420  90.2368700 119.6855340 120.4168710  90.2340220 119.3397360
 113.3428690  85.3072310 114.7964830 114.2123540  85.5897110 115.0800750
 112.8519010  86.1208180 114.6813640 120.5063500  86.6945520 118.9173110
 120.9626280  87.5050770 119.1433300 120.1551710  86.3768660 119.7491600
 122.8096110  92.2051860 126.1465410 123.4538330  92.4111240 126.8238830
 123.1725550  91.4440260 125.6936260 116.4075280  77.0383170 119.3895630
 116.2789910  77.0301070 120.3380550 115.5837300  77.3766260 119.0386640
 124.0828190  90.2084210 124.8642860 124.7250420  89.5077370 124.9775030
 124.6077540  90.9882650 124.6839750 127.9283910  90.4932830 114.5882000
 127.7021490  89.7763270 115.1806640 127.5380110  90.2445270 113.7503750
 125.8565810  91.0079110 128.0678920 126.1922050  91.5945800 128.7456840
 124.9366150  90.8771820 128.2976710 113.4069210  78.7974290 128.8502330
 112.6927730  78.9971210 129.4554940 113.8264250  78.0213860 129.2217130
 127.5100160  88.4104770 116.2496160 127.2221860  88.8717460 117.0374040
 128.3052330  87.9502540 116.5180380 113.6941800  92.7854550 129.8368860
 113.8032920  91.8449290 129.6964250 113.0422360  93.0509300 129.1882590
 121.6854390  91.0570440 131.2366980 121.3651260  90.3379680 131.7812670
 121.0112750  91.7325510 131.3103040 119.7268560  91.9030890 116.1800130
 119.7178660  92.6360580 115.5644640 118.8066920  91.6562470 116.2727090
 115.3275200  87.1245780 116.9246890 114.7203150  87.8644680 116.9342190
 115.8024550  87.2145140 116.0985090 124.9007990  81.2896600 126.6003780
 125.2688810  80.4691810 126.9283350 124.0406190  81.3498490 127.0159430
 128.2670020  80.2453540 117.4091340 127.6383180  80.3499210 116.6949570
 127.7721940  80.4650320 118.1985220 122.7128160  91.9659130 114.8425320
 122.8140140  91.7623120 113.9127300 121.8129900  91.7117410 115.0473100
 121.8609980  83.9436190 126.8241750 122.3595230  84.4182010 127.4893600
 122.0032930  83.0199710 127.0311780 124.2669480  79.2490150 120.2645010
 124.1437260  79.2676280 119.3154520 125.2154040  79.2969090 120.3843410
 121.3546270  94.4845450 119.5372990 121.6087770  94.4466840 118.6152360
 120.4058750  94.3578780 119.5301240 129.0676840  80.1604150 127.6670140
 128.5650440  80.9009550 128.0063950 129.8833500  80.5488150 127.3506930
 127.3598850  85.4037330 121.1131500 126.4188990  85.4187560 121.2879190
 127.6742920  84.6173290 121.5591800 117.3380490  87.0856930 114.6735460
 118.1043760  86.9738290 115.2360890 117.4155180  86.3894900 114.0212230
 116.0327250  84.5182000 115.3568350 116.1130840  83.5709510 115.4685750
 116.9247000  84.8488880 115.4629010 129.3624430  92.5746180 122.7885760
 129.4871850  93.3977350 123.2609570 130.2289990  92.3636910 122.4409910
 116.8341960  94.6677390 122.4602890 117.5704440  94.1192850 122.7311460
 117.2182880  95.5333400 122.3208880 113.7187440  90.7350960 118.3344400
 112.7927220  90.9772100 118.3249810 114.1843870  91.5625220 118.2129150
 115.8400240  93.8523460 131.6488470 116.6412970  94.1735510 132.0623870
 115.3252060  93.4919040 132.3708380 119.9444270  93.8407700 114.2828460
 120.7372880  94.1296530 113.8310250 119.4248620  93.4099870 113.6040940
 124.6764870  89.9603330 131.5963880 124.0703030  89.9834930 130.8559630
 124.3718980  89.2286370 132.1331130 126.1065240  93.6883620 130.2073290
 127.0586990  93.6041640 130.1573530 125.9593460  94.3525330 130.8807080
 128.9974440  93.0677830 115.7065200 128.7115950  92.6542970 114.8919380
 128.7993990  93.9965540 115.5865720 113.5598050  86.3396920 130.5924520
 114.0637070  85.7604200 131.1640750 112.8205470  86.6237150 131.1300890
 120.4621670  89.0611110 114.1470810 120.3572310  88.4463460 114.8732190
 120.2945890  88.5377000 113.3633820 120.6135990  87.7467910 130.1260040
 119.8481660  88.3152910 130.0414710 120.7951950  87.4544120 129.2328270
 123.7024400  88.1231140 114.7512800 123.1534500  88.5700440 115.3955540
 124.3243660  87.6180390 115.2750470 127.7559340  89.4773240 130.6835060
 128.4968810  89.8149000 130.1802520 126.9932020  89.6465300 130.1304830
 115.5921130  84.4826510 131.4874590 115.6326470  84.1840380 132.3959820
 116.4466630  84.8834120 131.3282110 119.3699520  87.0822060 116.6478100
 119.7915940  86.9161930 117.4909490 119.4950360  86.2722290 116.1533240
 117.5326940  83.0618610 129.4549080 117.0023400  82.5709560 128.8272420
 118.2015010  83.4902810 128.9207010 121.8827160  86.1059670 113.8955200
 122.4032820  85.3908690 113.5296350 122.5295560  86.7445540 114.1955710
 126.4305000  87.5288070 129.2190270 126.8446020  87.6833150 130.0680690
 125.4956000  87.6543290 129.3816050 126.9027170  84.8684230 131.2229420
 127.4847940  84.1136550 131.1349900 127.0788940  85.3991670 130.4460900
 118.0199240  80.0280980 129.5346370 117.9256110  79.4101730 128.8097240
 117.4396630  80.7547270 129.3076280 120.7860680  78.5854220 126.5673760
 120.3377980  78.6078480 125.7219310 120.1525880  78.1873240 127.1644060
 121.1920230  87.4808550 127.1886200 121.6108340  88.3241280 127.0162440
 120.2728860  87.6180590 126.9592980 123.5284130  85.2124730 128.5724040
 123.6480340  84.6165870 129.3118880 124.3878130  85.2494420 128.1525340
 125.8672030  85.7661920 127.1486550 125.3407250  86.2904540 126.5451690
 126.2103370  86.3989310 127.7796280 118.2658420  83.1555290 113.5936260
 118.0647480  82.2922650 113.9549600 118.0950470  83.0688650 112.6557860
 119.0427650  93.7861560 128.3043930 118.5048740  94.5107620 127.9852630
 119.2961610  93.3091900 127.5141270 120.2952900  81.7546080 129.8299860
 120.8852590  81.4461930 130.5177680 119.4773140  81.2825830 129.9859760
 125.1146330  81.3711890 130.0632880 124.4261850  80.7093430 129.9982870
 125.8352350  80.9250160 130.5081340 125.7446730  77.9663520 116.1223140
 126.0249020  77.1231420 116.4782560 124.9712460  78.1986630 116.6361890
 117.0641220  80.2555910 113.5814140 117.3667120  80.2623340 112.6733290
 117.8035810  79.9053770 114.0781800 121.8989860  95.0212770 128.5630580
 121.8248560  95.9247910 128.8702950 120.9968700  94.7024670 128.5352650
 122.4475190  94.1871280 116.1856940 123.3425980  94.5256250 116.2075700
 122.4792820  93.4650690 115.5581220 116.0871350  89.5598330 114.4143940
 116.5246220  90.1028000 115.0701520 116.5719080  88.7345280 114.4240280
 113.3017150  92.3487360 121.8664200 113.6320160  91.4808420 121.6342840
 113.7308150  92.5545880 122.6969160 117.8979070  90.6796370 119.5266170
 117.5974610  90.5561340 120.4270080 117.7916560  89.8204960 119.1181900
 113.7907360  93.2157950 124.6045830 113.3538350  93.3958750 125.4369980
 114.3585040  93.9732570 124.4627550 129.4269540  92.7174950 128.8923140
 128.8271530  92.7767510 128.1487060 129.5563440  91.7779930 129.0219990
 130.6670990  90.4592770 114.2292850 129.8363950  90.5269420 114.7000080
 130.8442820  91.3496890 113.9259710 130.1227450  87.2040250 116.7327050
 130.8846360  87.7736900 116.8386740 130.1381820  86.6367450 117.5035360
 113.6231790  85.7278180 120.9634710 112.9680630  85.4589820 120.3194410
 114.4609740  85.6182660 120.5136690 131.1287420  88.0590350 121.5768980
 131.4996250  87.2757670 121.1704950 131.7689350  88.7479450 121.3986280
 128.1121180  89.4426930 126.9899300 127.2981020  89.8724090 127.2525090
 128.5195380  90.0545340 126.3768350 130.1746620  87.4974620 113.8899570
 130.4495460  88.4053500 113.7618790 129.9857360  87.4337150 114.8261560
 126.5722230  80.5219470 115.1853200 126.9907110  80.3350450 114.3449860
 126.2658290  79.6698520 115.4956130 130.0711960  85.4343610 118.8829000
 129.6955560  84.6671540 118.4510290 129.3415080  85.8166310 119.3703930
 114.6607720  86.1130750 125.5038050 115.0280760  86.0258150 126.3834070
 114.0918540  85.3497300 125.4044910 129.4611580  84.5815130 128.5168520
 129.2297670  84.3527880 127.6166470 129.7216130  85.5014680 128.4713410
 114.2123720  83.0239840 129.4096470 113.3179770  82.9906600 129.7490180
 114.7521270  83.2226630 130.1747720 127.8999650  79.8071560 131.2948220
 128.7769830  79.8154960 131.6782220 127.9120490  79.0702400 130.6840570
 112.8369870  82.9377110 116.9060040 111.9333950  83.2007310 116.7311700
 113.3210490  83.2088280 116.1260000 129.3462920  83.6601100 122.1836240
 129.8700400  83.1663750 121.5526410 129.9322340  83.7951460 122.9283810
 129.5252640  83.7440970 125.7055790 128.5755350  83.7104510 125.8200780
 129.7065650  84.6541080 125.4705560 115.3797080  81.9942650 114.8154420
 116.0888780  81.5725870 114.3301700 114.6637020  82.0617880 114.1837770
 115.0271240  78.0481980 113.8557070 115.7499370  78.5890920 114.1738290
 115.2995760  77.7745400 112.9798610 128.8362890  82.9174450 118.1228650
 129.3322010  82.6845320 118.9077530 128.6378960  82.0786290 117.7066290
 130.2650050  81.5535400 120.6566330 130.1549330  81.3991440 121.5948600
 131.0257640  81.0256340 120.4141740 128.6115770  77.4929530 127.1149330
 129.2487990  78.1063670 127.4808520 128.7590660  77.5290190 126.1698560
 131.1540320  79.3843320 113.8972470 132.0789630  79.2524500 113.6890760
 131.1316110  79.4636140 114.8508920 131.2278810  80.1553980 116.5229180
 130.4330310  80.0899100 117.0522090 131.4322090  81.0904620 116.5114530
 128.1697230  94.1945530 120.5167570 128.7656300  93.8730100 119.8401990
 128.4275380  93.7217350 121.3080840 114.4695430  77.4543840 126.5005010
 114.1210250  77.9107660 127.2663190 114.1383130  76.5600970 126.5827440
 116.0759800  90.6263440 130.6658200 116.0329430  90.2556350 131.5472660
 116.2070810  91.5641010 130.8060020 119.7765830  92.1823030 126.2667920
 119.5357190  92.4497590 125.3798440 120.7168470  92.3528760 126.3218780
 121.9820250  78.6455720 130.0224430 121.9209140  79.2377550 130.7719840
 122.9220630  78.5381680 129.8774690 124.6194810  78.3025780 129.6616720
 125.2335220  78.6205070 128.9997800 125.1644370  77.8174370 130.2812580
 131.0369990  94.2017410 127.0678560 130.5428270  94.5986280 126.3505690
 130.4283280  93.5766620 127.4615840 115.1416070  76.9820040 129.7755780
 115.6899060  76.8008090 129.0121890 115.2071380  76.1914150 130.3112090
 115.9147830  93.5725690 127.7855980 115.3208150  93.4410390 128.5246020
 115.9071670  92.7363830 127.3198080 125.3602850  76.8657920 125.9886010
 124.4862690  77.1993030 125.7858940 125.2513600  76.3931100 126.8137880
 126.2674830  79.0728790 127.3727730 125.9388190  78.2580550 126.9929460
 127.2157130  79.0298600 127.2493420 128.7209440  94.8440830 124.3465300
 128.2612410  95.5956640 123.9723320 128.0921900  94.1247300 124.2880100
 115.5460060  90.9384070 126.7364020 114.8194120  90.3189360 126.6689970
 115.6069210  91.3324680 125.8662100 119.1505160  93.1529070 123.5213430
 119.6670180  92.5416430 122.9961690 119.8002540  93.6557850 124.0124440
 121.8900660  94.0437560 124.3482410 122.1778470  93.7891860 123.4715420
 122.4023880  93.4914920 124.9387980 123.1077670  77.7827760 124.9278920
 122.3249460  78.2573260 125.2075680 122.8140600  76.8782590 124.8192100
 127.6598740  78.4850860 122.9728010 128.1006830  78.4295960 122.1249610
 127.3906330  79.4008870 123.0438190 129.5237310  78.1166100 120.9836830
 129.4625710  77.1727320 120.8367850 130.3029340  78.2246190 121.5290290
 113.8290060  94.2558460 119.9460780 113.6612100  93.6229140 120.6442670
 112.9624570  94.4617860 119.5954970 114.4518080  78.0875240 117.4492640
 115.2097440  78.2004120 116.8756670 113.9895250  78.9244440 117.4036070
 125.4956870  76.8656960 121.6778020 126.0986240  77.4377170 122.1526540
 124.7549860  77.4296400 121.4551920 128.6391470  77.2678520 116.9518300
 128.8342100  78.1661970 117.2185730 127.8521340  77.0365600 117.4451250
 121.9573020  94.9653660 131.7150610 122.8840330  94.7297930 131.7586570
 121.9423450  95.7925660 131.2336640 130.1918080  94.5079230 118.7124860
 130.3670270  93.8216970 118.0685780 129.4939650  95.0326280 118.3201530
 119.1436630  77.6298410 131.4792490 118.8620900  78.1332010 130.7153310
 119.5256330  76.8320160 131.1134620 118.0345730  94.8974070 116.2660170
 118.7664550  94.6133350 115.7184060 118.2939400  94.6587350 117.1559550
 117.1960520  91.0138800 116.2706500 116.5669400  91.4823900 116.8192330
 117.3108350  90.1688020 116.7052690 125.7452090  77.0451990 132.0572960
 125.6317540  77.3646600 132.9524480 126.5621830  77.4464500 131.7610240
 128.5250580  94.1923520 131.5391650 129.3175900  93.6972750 131.3317610
 128.8183730  94.8713660 132.1467260 116.7994110  87.1543290 105.1792730
 115.9678990  86.8992000 105.5789240 117.4075090  87.2254060 105.9150650
 116.7795370  91.1883380 105.3750750 117.0823410  90.2981120 105.1960970
 117.5238960  91.7453600 105.1473000 115.2086060  82.1145180  98.9635120
 114.3202760  82.4561150  98.8615000 115.4927250  81.9145500  98.0715950
 123.0299020  93.5341680 102.7020090 122.4110460  93.9899180 102.1314530
 123.8850800  93.6893140 102.3009790 117.3847450  80.6976680  99.9973500
 117.4914200  81.5980410 100.3042260 116.4739810  80.6494650  99.7068150
 127.0366560  79.8201490 101.4684400 127.8576180  79.3298060 101.5109880
 127.0700640  80.4099150 102.2216240 131.3266110  81.8368240 108.0328030
 130.6218280  82.2249950 107.5143140 131.5924030  82.5318530 108.6348960
 118.7594130  87.9456790 106.7735600 118.4263510  88.5725710 107.4156670
 118.9360810  88.4718670 105.9937270 127.2728040  81.7601870 104.2411940
 126.5683610  82.0486760 104.8215050 127.6340200  82.5701980 103.8811500
 117.1906610  80.0171570 106.6032550 117.5323420  80.8613620 106.3086420
 116.2522420  80.1655310 106.7197890 117.9713230  89.9137590 108.5884780
 118.5887230  90.5888670 108.3069230 117.1106350  90.3225570 108.4972280
 128.8890820  91.3777000 106.5039420 128.2054340  92.0476110 106.4956090
 129.4285110  91.5757650 105.7384280 130.3414960  81.2056660 104.6321150
 129.3939870  81.2395640 104.7636580 130.6664950  82.0195610 105.0170510
 120.8734500  77.5053840 102.9277140 121.1809480  76.9500730 102.2112640
 119.9435200  77.6398300 102.7450130 126.4249560  93.2221130 105.2184600
 126.4376720  92.8183420 104.3506860 125.8724780  93.9968420 105.1146030
 123.2615260  85.5702670  99.6637260 122.3344540  85.5040050  99.8925730
 123.4140080  86.5082800  99.5492500 123.2484340  81.8419670  96.6604420
 122.3088010  82.0033630  96.7456880 123.5667600  82.5605350  96.1140410
 126.7339110  83.3107510 107.5838320 126.3210290  84.1361220 107.8378310
 126.0015060  82.7252550 107.3914680 119.3353600  89.7834970 104.6096200
 119.0381890  89.1780440 103.9303980 120.2853420  89.8212280 104.4985560
 127.4239210  93.3566840 108.2719300 126.9469770  94.1639030 108.0791910
 126.7401000  92.7045170 108.4245510 118.4272030  89.5216660 111.2604000
 117.5300560  89.7456630 111.5077400 118.4524900  89.6451600 110.3115400
 117.2543250  86.3929980 109.8361370 117.1151020  87.2652780 110.2048770
 116.3724610  86.0502790 109.6909310 119.0523600  92.3351680 112.0446520
 119.0239030  92.7394630 111.1774950 118.8888570  91.4062040 111.8818120
 129.0494390  77.6252590  95.4886300 128.7367050  77.7179420  96.3885370
 129.8106860  78.2033620  95.4383730 115.5676530  84.9912390  99.9463640
 115.4474130  85.7174480  99.3344910 115.2577420  84.2215300  99.4691550
 131.0038420  93.1178780 113.3410690 131.4798140  93.5961670 114.0199770
 131.6245580  93.0496270 112.6156190 113.2061900  88.1627530 105.7532280
 113.2842320  88.2976300 104.8088000 113.8203580  87.4543420 105.9460400
 114.4509530  89.8627720 102.1638460 114.0437610  90.0042310 101.3092060
 115.3422540  89.5787880 101.9609670 130.4071670  90.3091630 110.5010700
 130.5334730  90.0703510 109.5827880 130.4493050  89.4776170 110.9732780
 124.2688410  94.0119630 109.0705510 124.7833080  93.9227640 109.8727940
 123.4257490  94.3579330 109.3633420 126.2442810  94.2974970  98.4989510
 126.0843950  94.0077910  99.3971340 126.0789520  93.5215100  97.9634740
 118.7231190  94.0773500 100.2761130 118.5473670  93.1609040 100.0628930
 117.8686930  94.4360790 100.5158930 125.5118870  93.4325240 101.1336000
 125.9675820  92.6514620 101.4474620 125.8511390  94.1432060 101.6777180
 130.2595680  82.3624090 111.4660440 129.6439950  82.8703760 110.9375900
 129.9392100  81.4622420 111.4086380 113.2621420  89.2041700 108.2926740
 113.4252460  88.7347060 107.4746110 113.7273870  88.6965260 108.9575580
 118.0340190  78.3347460 103.3287310 117.5908340  79.1157000 102.9971830
 118.5925180  78.6577350 104.0358250 122.3210000  81.2015980 108.9322630
 121.8589370  81.4099000 109.7442570 121.9188110  80.3875330 108.6293300
 127.3214510  82.4224930 110.0619290 126.4708100  82.1230680 110.3828360
 127.1616300  82.6666940 109.1503110 124.4164220  83.9226680 112.1618080
 124.7417630  83.0890430 111.8220310 125.2044550  84.4455200 112.3096410
 121.1499010  77.9558160  98.2093140 120.5253190  77.9518030  98.9346450
 121.0629130  77.0889120  97.8129110 120.0716090  78.8794790 105.1876910
 120.3688420  79.7857620 105.1068930 120.6201650  78.3913570 104.5736480
 125.0552170  83.4644400  99.6559210 124.4561060  84.1880200  99.4722830
 125.6031780  83.4021180  98.8735660 120.2653620  84.3566610 111.7228830
 120.1697220  83.4161340 111.5729230 121.1085600  84.5781680 111.3276900
 112.8851440  82.6328860  95.1195410 112.8026110  83.5759620  95.2610400
 112.5334500  82.4903770  94.2407760 124.2472180  84.6913690 105.7813270
 123.5153300  85.2000500 106.1303370 123.8496520  83.8743670 105.4802050
 120.7469720  82.3679970  97.1772520 120.8682540  82.3266450  98.1258340
 120.3618230  83.2304120  97.0219250 124.7098090  80.1447370 105.1936210
 124.7270830  80.5956020 106.0378060 124.4613670  79.2453010 105.4069650
 119.7591220  84.6781110  96.5755820 119.1908120  84.2299360  95.9491730
 120.4680220  85.0373890  96.0420970 128.1368840  77.5579550 111.0322590
 128.4614610  76.8269210 111.5580570 128.1725350  77.2393190 110.1303580
 114.8360400  88.5793130 110.4522550 114.4515190  87.9386800 111.0505510
 115.1472590  89.2829250 111.0217280 118.7756910  84.4678310 108.2515380
 118.4713980  85.3470290 108.4765740 119.7303370  84.5278100 108.2872820
 123.5236620  79.0642620  98.7838010 122.7101230  78.5655790  98.7083320
 123.3298570  79.9040870  98.3674360 123.4445480  87.7413720 110.5277620
 123.3782790  86.8209390 110.2735210 122.8150620  87.8389160 111.2422260
 126.2385010  83.4362270  97.0800170 127.1264630  83.7479500  96.9051510
 126.2090100  82.5634520  96.6880750 118.0333760  85.7665290 112.2826290
 117.7333900  85.9122470 111.3854110 118.8045000  85.2070580 112.1899680
 123.3762210  90.5634290 110.2781420 123.3906750  89.6315250 110.0600330
 122.6687310  90.6494050 110.9171190 128.5099280  84.7474110  96.5480030
 128.4263000  85.1788330  95.6976470 129.2293470  85.2072460  96.9806850
 129.5873420  87.2041630 109.6250000 128.8621610  87.7970410 109.4279390
 130.1148880  87.1965170 108.8263370 129.5386530  91.6016370  99.2762160
 128.8962690  90.9471990  99.5505880 129.1517190  92.0071460  98.5002830
 121.2036290  89.6899490 100.5304260 121.8907420  90.2368700 100.9111850
 120.4168710  90.2340220 100.5653870 113.3428690  85.3072310  96.0221340
 114.2123540  85.5897110  96.3057260 112.8519010  86.1208180  95.9070150
 122.8096110  92.2051860 107.3721920 123.4538330  92.4111240 108.0495340
 123.1725550  91.4440260 106.9192770 116.4075280  77.0383170 100.6152140
 116.2789910  77.0301070 101.5637060 115.5837300  77.3766260 100.2643150
 127.9283910  90.4932830  95.8138510 127.7021490  89.7763270  96.4063150
 127.5380110  90.2445270  94.9760260 125.8565810  91.0079110 109.2935430
 126.1922050  91.5945800 109.9713350 124.9366150  90.8771820 109.5233220
 113.6941800  92.7854550 111.0625370 113.8032920  91.8449290 110.9220760
 113.0422360  93.0509300 110.4139100 121.6854390  91.0570440 112.4623490
 121.3651260  90.3379680 113.0069180 121.0112750  91.7325510 112.5359550
 115.3275200  87.1245780  98.1503400 114.7203150  87.8644680  98.1598700
 115.8024550  87.2145140  97.3241600 124.9007990  81.2896600 107.8260290
 125.2688810  80.4691810 108.1539860 124.0406190  81.3498490 108.2415940
 128.2670020  80.2453540  98.6347850 127.6383180  80.3499210  97.9206080
 127.7721940  80.4650320  99.4241730 121.8609980  83.9436190 108.0498260
 122.3595230  84.4182010 108.7150110 122.0032930  83.0199710 108.2568290
 124.2669480  79.2490150 101.4901520 124.1437260  79.2676280 100.5411030
 125.2154040  79.2969090 101.6099920 121.3546270  94.4845450 100.7629500
 121.6087770  94.4466840  99.8408870 120.4058750  94.3578780 100.7557750
 118.4389070  80.8324570  97.4256440 119.2879600  81.2694720  97.3596630
 118.0720340  81.1444830  98.2528500 129.0676840  80.1604150 108.8926650
 128.5650440  80.9009550 109.2320460 129.8833500  80.5488150 108.5763440
 117.3380490  87.0856930  95.8991970 118.1043760  86.9738290  96.4617400
 117.4155180  86.3894900  95.2468740 116.0327250  84.5182000  96.5824860
 116.1130840  83.5709510  96.6942260 116.9247000  84.8488880  96.6885520
 129.3624430  92.5746180 104.0142270 129.4871850  93.3977350 104.4866080
 130.2289990  92.3636910 103.6666420 116.8341960  94.6677390 103.6859400
 117.5704440  94.1192850 103.9567970 117.2182880  95.5333400 103.5465390
 115.8400240  93.8523460 112.8744980 116.6412970  94.1735510 113.2880380
 115.3252060  93.4919040 113.5964890 124.6764870  89.9603330 112.8220390
 124.0703030  89.9834930 112.0816140 124.3718980  89.2286370 113.3587640
 126.1065240  93.6883620 111.4329800 127.0586990  93.6041640 111.3830040
 125.9593460  94.3525330 112.1063590 128.9974440  93.0677830  96.9321710
 128.7115950  92.6542970  96.1175890 128.7993990  93.9965540  96.8122230
 120.6135990  87.7467910 111.3516550 119.8481660  88.3152910 111.2671220
 120.7951950  87.4544120 110.4584780 127.7559340  89.4773240 111.9091570
 128.4968810  89.8149000 111.4059030 126.9932020  89.6465300 111.3561340
 126.4305000  87.5288070 110.4446780 126.8446020  87.6833150 111.2937200
 125.4956000  87.6543290 110.6072560 126.9027170  84.8684230 112.4485930
 127.4847940  84.1136550 112.3606410 127.0788940  85.3991670 111.6717410
 120.7860680  78.5854220 107.7930270 120.3377980  78.6078480 106.9475820
 120.1525880  78.1873240 108.3900570 121.1920230  87.4808550 108.4142710
 121.6108340  88.3241280 108.2418950 120.2728860  87.6180590 108.1849490
 123.5284130  85.2124730 109.7980550 123.6480340  84.6165870 110.5375390
 124.3878130  85.2494420 109.3781850 125.8672030  85.7661920 108.3743060
 125.3407250  86.2904540 107.7708200 126.2103370  86.3989310 109.0052790
 118.2658420  83.1555290  94.8192770 118.0647480  82.2922650  95.1806110
 118.0950470  83.0688650  93.8814370 119.0427650  93.7861560 109.5300440
 118.5048740  94.5107620 109.2109140 119.2961610  93.3091900 108.7397780
 120.2952900  81.7546080 111.0556370 120.8852590  81.4461930 111.7434190
 119.4773140  81.2825830 111.2116270 125.1146330  81.3711890 111.2889390
 124.4261850  80.7093430 111.2239380 125.8352350  80.9250160 111.7337850
 125.7446730  77.9663520  97.3479650 126.0249020  77.1231420  97.7039070
 124.9712460  78.1986630  97.8618400 117.0641220  80.2555910  94.8070650
 117.3667120  80.2623340  93.8989800 117.8035810  79.9053770  95.3038310
 121.8989860  95.0212770 109.7887090 121.8248560  95.9247910 110.0959460
 120.9968700  94.7024670 109.7609160 120.2826150  79.1990530  95.7926850
 119.9348150  78.5214520  95.2129300 120.4838920  78.7380040  96.6070240
 113.3017150  92.3487360 103.0920710 113.6320160  91.4808420 102.8599350
 113.7308150  92.5545880 103.9225670 117.8979070  90.6796370 100.7522680
 117.5974610  90.5561340 101.6526590 117.7916560  89.8204960 100.3438410
 113.7907360  93.2157950 105.8302340 113.3538350  93.3958750 106.6626490
 114.3585040  93.9732570 105.6884060 129.4269540  92.7174950 110.1179650
 128.8271530  92.7767510 109.3743570 129.5563440  91.7779930 110.2476500
 130.6670990  90.4592770  95.4549360 129.8363950  90.5269420  95.9256590
 130.8442820  91.3496890  95.1516220 128.1121180  89.4426930 108.2155810
 127.2981020  89.8724090 108.4781600 128.5195380  90.0545340 107.6024860
 130.1746620  87.4974620  95.1156080 130.4495460  88.4053500  94.9875300
 129.9857360  87.4337150  96.0518070 126.5722230  80.5219470  96.4109710
 126.9907110  80.3350450  95.5706370 126.2658290  79.6698520  96.7212640
 129.4611580  84.5815130 109.7425030 129.2297670  84.3527880 108.8422980
 129.7216130  85.5014680 109.6969920 127.8999650  79.8071560 112.5204730
 128.7769830  79.8154960 112.9038730 127.9120490  79.0702400 111.9097080
 112.8369870  82.9377110  98.1316550 111.9333950  83.2007310  97.9568210
 113.3210490  83.2088280  97.3516510 129.5252640  83.7440970 106.9312300
 128.5755350  83.7104510 107.0457290 129.7065650  84.6541080 106.6962070
 115.3797080  81.9942650  96.0410930 116.0888780  81.5725870  95.5558210
 114.6637020  82.0617880  95.4094280 115.0271240  78.0481980  95.0813580
 115.7499370  78.5890920  95.3994800 115.2995760  77.7745400  94.2055120
 128.8362890  82.9174450  99.3485160 129.3322010  82.6845320 100.1334040
 128.6378960  82.0786290  98.9322800 114.7163430  77.2988170 104.9836200
 115.3639620  76.7485550 104.5431360 115.1365270  77.5531320 105.8052010
 130.2650050  81.5535400 101.8822840 130.1549330  81.3991440 102.8205110
 131.0257640  81.0256340 101.6398250 128.6115770  77.4929530 108.3405840
 129.2487990  78.1063670 108.7065030 128.7590660  77.5290190 107.3955070
 131.1540320  79.3843320  95.1228980 132.0789630  79.2524500  94.9147270
 131.1316110  79.4636140  96.0765430 131.2278810  80.1553980  97.7485690
 130.4330310  80.0899100  98.2778600 131.4322090  81.0904620  97.7371040
 128.1697230  94.1945530 101.7424080 128.7656300  93.8730100 101.0658500
 128.4275380  93.7217350 102.5337350 116.0759800  90.6263440 111.8914710
 116.0329430  90.2556350 112.7729170 116.2070810  91.5641010 112.0316530
 119.7765830  92.1823030 107.4924430 119.5357190  92.4497590 106.6054950
 120.7168470  92.3528760 107.5475290 121.9820250  78.6455720 111.2480940
 121.9209140  79.2377550 111.9976350 122.9220630  78.5381680 111.1031200
 124.6194810  78.3025780 110.8873230 125.2335220  78.6205070 110.2254310
 125.1644370  77.8174370 111.5069090 131.0369990  94.2017410 108.2935070
 130.5428270  94.5986280 107.5762200 130.4283280  93.5766620 108.6872350
 115.9147830  93.5725690 109.0112490 115.3208150  93.4410390 109.7502530
 115.9071670  92.7363830 108.5454590 125.3602850  76.8657920 107.2142520
 124.4862690  77.1993030 107.0115450 125.2513600  76.3931100 108.0394390
 126.2674830  79.0728790 108.5984240 125.9388190  78.2580550 108.2185970
 127.2157130  79.0298600 108.4749930 128.7209440  94.8440830 105.5721810
 128.2612410  95.5956640 105.1979830 128.0921900  94.1247300 105.5136610
 115.5460060  90.9384070 107.9620530 114.8194120  90.3189360 107.8946480
 115.6069210  91.3324680 107.0918610 119.1505160  93.1529070 104.7469940
 119.6670180  92.5416430 104.2218200 119.8002540  93.6557850 105.2380950
 121.8900660  94.0437560 105.5738920 122.1778470  93.7891860 104.6971930
 122.4023880  93.4914920 106.1644490 123.1077670  77.7827760 106.1535430
 122.3249460  78.2573260 106.4332190 122.8140600  76.8782590 106.0448610
 127.6598740  78.4850860 104.1984520 128.1006830  78.4295960 103.3506120
 127.3906330  79.4008870 104.2694700 129.5237310  78.1166100 102.2093340
 129.4625710  77.1727320 102.0624360 130.3029340  78.2246190 102.7546800
 113.8290060  94.2558460 101.1717290 113.6612100  93.6229140 101.8699180
 112.9624570  94.4617860 100.8211480 114.4518080  78.0875240  98.6749150
 115.2097440  78.2004120  98.1013180 113.9895250  78.9244440  98.6292580
 120.9931890  80.2014510 101.6651460 120.1806400  79.8271400 101.3247340
 121.4973530  79.4459590 101.9672650 125.4956870  76.8656960 102.9034530
 126.0986240  77.4377170 103.3783050 124.7549860  77.4296400 102.6808430
 128.6391470  77.2678520  98.1774810 128.8342100  78.1661970  98.4442240
 127.8521340  77.0365600  98.6707760 116.8243230  78.6139290  97.2151120
 117.3535990  77.8269090  97.0859070 117.4571550  79.2930480  97.4486650
 119.0181070  78.3514430 100.2696510 118.3883810  77.6501740 100.4366640
 118.4786210  79.1118560 100.0529670 121.9573020  94.9653660 112.9407120
 122.8840330  94.7297930 112.9843080 121.9423450  95.7925660 112.4593150
 130.1918080  94.5079230  99.9381370 130.3670270  93.8216970  99.2942290
 129.4939650  95.0326280  99.5458040 119.1436630  77.6298410 112.7049000
 118.8620900  78.1332010 111.9409820 119.5256330  76.8320160 112.3391130
 125.7452090  77.0451990 113.2829470 125.6317540  77.3646600 114.1780990
 126.5621830  77.4464500 112.9866750 128.5250580  94.1923520 112.7648160
 129.3175900  93.6972750 112.5574120 128.8183730  94.8713660 113.3723770
 124.6510240  85.0644460  83.6464210 124.5704290  84.1499070  83.3755920
 124.2374660  85.5611530  82.9403920 122.7828280  86.8423480  85.5273480
 122.0070380  86.3623920  85.8172050 123.4341210  86.1629130  85.3529640
 115.2086060  82.1145180  80.1891630 114.3202760  82.4561150  80.0871510
 115.4927250  81.9145500  79.2972460 123.0299020  93.5341680  83.9276600
 122.4110460  93.9899180  83.3571040 123.8850800  93.6893140  83.5266300
 123.2542440  82.3251050  85.7612570 123.6307260  81.4522930  85.6486240
 123.1561950  82.6609750  84.8703010 117.3847450  80.6976680  81.2230010
 117.4914200  81.5980410  81.5298770 116.4739810  80.6494650  80.9324660
 119.2255180  83.6663050  85.5555190 119.7333400  84.1644020  86.1960210
 119.7568420  82.8898250  85.3794550 131.3266110  81.8368240  89.2584540
 130.6218280  82.2249950  88.7399650 131.5924030  82.5318530  89.8605470
 117.5091280  78.3061610  89.8218610 117.5109720  78.8234000  89.0164510
 116.6795590  77.8291790  89.7988540 123.8962370  88.4180920  81.3208510
 123.2779640  88.8830370  80.7571230 124.4085620  89.1108400  81.7378020
 127.2728040  81.7601870  85.4668450 126.5683610  82.0486760  86.0471560
 127.6340200  82.5701980  85.1068010 130.3414960  81.2056660  85.8577660
 129.3939870  81.2395640  85.9893090 130.6664950  82.0195610  86.2427020
 120.8734500  77.5053840  84.1533650 121.1809480  76.9500730  83.4369150
 119.9435200  77.6398300  83.9706640 127.7194980  89.9437350  81.5331280
 127.6091310  89.0011680  81.6580700 127.7163230  90.3052990  82.4194040
 123.2615260  85.5702670  80.8893770 122.3344540  85.5040050  81.1182240
 123.4140080  86.5082800  80.7749010 127.2912550  87.1322970  81.3929020
 126.6724970  86.7942520  80.7455320 127.2737000  86.4882730  82.1008210
 126.7339110  83.3107510  88.8094830 126.3210290  84.1361220  89.0634820
 126.0015060  82.7252550  88.6171190 125.4677250  86.3709780  78.4001770
 125.9070530  85.5332210  78.2539590 126.1805670  87.0039180  78.4865910
 123.5772630  91.3105850  82.3683010 124.0168540  92.0530180  81.9538400
 123.5159520  91.5532420  83.2921970 129.0494390  77.6252590  76.7142810
 128.7367050  77.7179420  77.6141880 129.8106860  78.2033620  76.6640240
 115.5676530  84.9912390  81.1720150 115.4474130  85.7174480  80.5601420
 115.2577420  84.2215300  80.6948060 131.0038420  93.1178780  94.5667200
 131.4798140  93.5961670  95.2456280 131.6245580  93.0496270  93.8412700
 113.2061900  88.1627530  86.9788790 113.2842320  88.2976300  86.0344510
 113.8203580  87.4543420  87.1716910 114.4509530  89.8627720  83.3894970
 114.0437610  90.0042310  82.5348570 115.3422540  89.5787880  83.1866180
 130.4071670  90.3091630  91.7267210 130.5334730  90.0703510  90.8084390
 130.4493050  89.4776170  92.1989290 124.2688410  94.0119630  90.2962020
 124.7833080  93.9227640  91.0984450 123.4257490  94.3579330  90.5889930
 126.2442810  94.2974970  79.7246020 126.0843950  94.0077910  80.6227850
 126.0789520  93.5215100  79.1891250 118.7231190  94.0773500  81.5017640
 118.5473670  93.1609040  81.2885440 117.8686930  94.4360790  81.7415440
 125.9468940  91.8062530  78.2844020 125.2534100  91.8039820  77.6246300
 126.6891800  91.3821850  77.8538190 130.2595680  82.3624090  92.6916950
 129.6439950  82.8703760  92.1632410 129.9392100  81.4622420  92.6342890
 113.2621420  89.2041700  89.5183250 113.4252460  88.7347060  88.7002620
 113.7273870  88.6965260  90.1832090 122.3210000  81.2015980  90.1579140
 121.8589370  81.4099000  90.9699080 121.9188110  80.3875330  89.8549810
 127.3214510  82.4224930  91.2875800 126.4708100  82.1230680  91.6084870
 127.1616300  82.6666940  90.3759620 124.4164220  83.9226680  93.3874590
 124.7417630  83.0890430  93.0476820 125.2044550  84.4455200  93.5352920
 117.8254410  83.4581030  82.2825070 117.5995330  83.2418200  83.1871690
 117.0446940  83.8909490  81.9371040 120.2653620  84.3566610  92.9485340
 120.1697220  83.4161340  92.7985740 121.1085600  84.5781680  92.5533410
 121.9709210  80.8515250  94.1715860 121.2807530  80.6587450  94.8061950
 122.7141510  81.1349890  94.7040160 112.8851440  82.6328860  76.3451920
 112.8026110  83.5759620  76.4866910 112.5334500  82.4903770  75.4664270
 124.2472180  84.6913690  87.0069780 123.5153300  85.2000500  87.3559880
 123.8496520  83.8743670  86.7058560 120.6849570  81.3667890  85.4122270
 120.6885630  80.9257840  84.5626810 121.5800690  81.6885220  85.5194090
 124.7098090  80.1447370  86.4192720 124.7270830  80.5956020  87.2634570
 124.4613670  79.2453010  86.6326160 128.1368840  77.5579550  92.2579100
 128.4614610  76.8269210  92.7837080 128.1725350  77.2393190  91.3560090
 123.4445480  87.7413720  91.7534130 123.3782790  86.8209390  91.4991720
 122.8150620  87.8389160  92.4678770 126.2385010  83.4362270  78.3056680
 127.1264630  83.7479500  78.1308020 126.2090100  82.5634520  77.9137260
 122.2345600  89.6085960  78.9844850 122.5761300  90.3528190  78.4888170
 121.4058310  89.9217080  79.3469680 123.3762210  90.5634290  91.5037930
 123.3906750  89.6315250  91.2856840 122.6687310  90.6494050  92.1427700
 128.5099280  84.7474110  77.7736540 128.4263000  85.1788330  76.9232980
 129.2293470  85.2072460  78.2063360 129.5873420  87.2041630  90.8506510
 128.8621610  87.7970410  90.6535900 130.1148880  87.1965170  90.0519880
 125.1173010  88.9301800  84.3490360 125.4696830  88.3329930  83.6891730
 124.2335340  88.6046030  84.5198610 120.5063500  86.6945520  81.3686130
 120.9626280  87.5050770  81.5946320 120.1551710  86.3768660  82.2004620
 116.4075280  77.0383170  81.8408650 116.2789910  77.0301070  82.7893570
 115.5837300  77.3766260  81.4899660 127.9283910  90.4932830  77.0395020
 127.7021490  89.7763270  77.6319660 127.5380110  90.2445270  76.2016770
 113.4069210  78.7974290  91.3015350 112.6927730  78.9971210  91.9067960
 113.8264250  78.0213860  91.6730150 127.5100160  88.4104770  78.7009180
 127.2221860  88.8717460  79.4887060 128.3052330  87.9502540  78.9693400
 119.7268560  91.9030890  78.6313150 119.7178660  92.6360580  78.0157660
 118.8066920  91.6562470  78.7240110 124.9007990  81.2896600  89.0516800
 125.2688810  80.4691810  89.3796370 124.0406190  81.3498490  89.4672450
 128.2670020  80.2453540  79.8604360 127.6383180  80.3499210  79.1462590
 127.7721940  80.4650320  80.6498240 122.7128160  91.9659130  77.2938340
 122.8140140  91.7623120  76.3640320 121.8129900  91.7117410  77.4986120
 121.8609980  83.9436190  89.2754770 122.3595230  84.4182010  89.9406620
 122.0032930  83.0199710  89.4824800 121.3546270  94.4845450  81.9886010
 121.6087770  94.4466840  81.0665380 120.4058750  94.3578780  81.9814260
 118.4389070  80.8324570  78.6512950 119.2879600  81.2694720  78.5853140
 118.0720340  81.1444830  79.4785010 129.0676840  80.1604150  90.1183160
 128.5650440  80.9009550  90.4576970 129.8833500  80.5488150  89.8019950
 127.3598850  85.4037330  83.5644520 126.4188990  85.4187560  83.7392210
 127.6742920  84.6173290  84.0104820 113.7187440  90.7350960  80.7857420
 112.7927220  90.9772100  80.7762830 114.1843870  91.5625220  80.6642170
 119.9444270  93.8407700  76.7341480 120.7372880  94.1296530  76.2823270
 119.4248620  93.4099870  76.0553960 126.1065240  93.6883620  92.6586310
 127.0586990  93.6041640  92.6086550 125.9593460  94.3525330  93.3320100
 113.5598050  86.3396920  93.0437540 114.0637070  85.7604200  93.6153770
 112.8205470  86.6237150  93.5813910 123.7024400  88.1231140  77.2025820
 123.1534500  88.5700440  77.8468560 124.3243660  87.6180390  77.7263490
 127.7559340  89.4773240  93.1348080 128.4968810  89.8149000  92.6315540
 126.9932020  89.6465300  92.5817850 115.5921130  84.4826510  93.9387610
 115.6326470  84.1840380  94.8472840 116.4466630  84.8834120  93.7795130
 121.8827160  86.1059670  76.3468220 122.4032820  85.3908690  75.9809370
 122.5295560  86.7445540  76.6468730 126.4305000  87.5288070  91.6703290
 126.8446020  87.6833150  92.5193710 125.4956000  87.6543290  91.8329070
 126.9027170  84.8684230  93.6742440 127.4847940  84.1136550  93.5862920
 127.0788940  85.3991670  92.8973920 120.7860680  78.5854220  89.0186780
 120.3377980  78.6078480  88.1732330 120.1525880  78.1873240  89.6157080
 123.5284130  85.2124730  91.0237060 123.6480340  84.6165870  91.7631900
 124.3878130  85.2494420  90.6038360 125.8672030  85.7661920  89.5999570
 125.3407250  86.2904540  88.9964710 126.2103370  86.3989310  90.2309300
 120.2952900  81.7546080  92.2812880 120.8852590  81.4461930  92.9690700
 119.4773140  81.2825830  92.4372780 125.1146330  81.3711890  92.5145900
 124.4261850  80.7093430  92.4495890 125.8352350  80.9250160  92.9594360
 117.0641220  80.2555910  76.0327160 117.3667120  80.2623340  75.1246310
 117.8035810  79.9053770  76.5294820 121.8989860  95.0212770  91.0143600
 121.8248560  95.9247910  91.3215970 120.9968700  94.7024670  90.9865670
 120.2826150  79.1990530  77.0183360 119.9348150  78.5214520  76.4385810
 120.4838920  78.7380040  77.8326750 122.4475190  94.1871280  78.6369960
 123.3425980  94.5256250  78.6588720 122.4792820  93.4650690  78.0094240
 113.3017150  92.3487360  84.3177220 113.6320160  91.4808420  84.0855860
 113.7308150  92.5545880  85.1482180 130.6670990  90.4592770  76.6805870
 129.8363950  90.5269420  77.1513100 130.8442820  91.3496890  76.3772730
 130.1227450  87.2040250  79.1840070 130.8846360  87.7736900  79.2899760
 130.1381820  86.6367450  79.9548380 113.6231790  85.7278180  83.4147730
 112.9680630  85.4589820  82.7707430 114.4609740  85.6182660  82.9649710
 131.1287420  88.0590350  84.0282000 131.4996250  87.2757670  83.6217970
 131.7689350  88.7479450  83.8499300 130.1746620  87.4974620  76.3412590
 130.4495460  88.4053500  76.2131810 129.9857360  87.4337150  77.2774580
 126.5722230  80.5219470  77.6366220 126.9907110  80.3350450  76.7962880
 126.2658290  79.6698520  77.9469150 130.0711960  85.4343610  81.3342020
 129.6955560  84.6671540  80.9023310 129.3415080  85.8166310  81.8216950
 129.4611580  84.5815130  90.9681540 129.2297670  84.3527880  90.0679490
 129.7216130  85.5014680  90.9226430 127.8999650  79.8071560  93.7461240
 128.7769830  79.8154960  94.1295240 127.9120490  79.0702400  93.1353590
 112.8369870  82.9377110  79.3573060 111.9333950  83.2007310  79.1824720
 113.3210490  83.2088280  78.5773020 129.3462920  83.6601100  84.6349260
 129.8700400  83.1663750  84.0039430 129.9322340  83.7951460  85.3796830
 129.5252640  83.7440970  88.1568810 128.5755350  83.7104510  88.2713800
 129.7065650  84.6541080  87.9218580 115.3797080  81.9942650  77.2667440
 116.0888780  81.5725870  76.7814720 114.6637020  82.0617880  76.6350790
 115.0271240  78.0481980  76.3070090 115.7499370  78.5890920  76.6251310
 115.2995760  77.7745400  75.4311630 128.8362890  82.9174450  80.5741670
 129.3322010  82.6845320  81.3590550 128.6378960  82.0786290  80.1579310
 130.2650050  81.5535400  83.1079350 130.1549330  81.3991440  84.0461620
 131.0257640  81.0256340  82.8654760 128.6115770  77.4929530  89.5662350
 129.2487990  78.1063670  89.9321540 128.7590660  77.5290190  88.6211580
 131.2278810  80.1553980  78.9742200 130.4330310  80.0899100  79.5035110
 131.4322090  81.0904620  78.9627550 114.4695430  77.4543840  88.9518030
 114.1210250  77.9107660  89.7176210 114.1383130  76.5600970  89.0340460
 121.9820250  78.6455720  92.4737450 121.9209140  79.2377550  93.2232860
 122.9220630  78.5381680  92.3287710 131.0369990  94.2017410  89.5191580
 130.5428270  94.5986280  88.8018710 130.4283280  93.5766620  89.9128860
 115.1416070  76.9820040  92.2268800 115.6899060  76.8008090  91.4634910
 115.2071380  76.1914150  92.7625110 125.3602850  76.8657920  88.4399030
 124.4862690  77.1993030  88.2371960 125.2513600  76.3931100  89.2650900
 126.2674830  79.0728790  89.8240750 125.9388190  78.2580550  89.4442480
 127.2157130  79.0298600  89.7006440 121.8900660  94.0437560  86.7995430
 122.1778470  93.7891860  85.9228440 122.4023880  93.4914920  87.3901000
 123.1077670  77.7827760  87.3791940 122.3249460  78.2573260  87.6588700
 122.8140600  76.8782590  87.2705120 127.6598740  78.4850860  85.4241030
 128.1006830  78.4295960  84.5762630 127.3906330  79.4008870  85.4951210
 129.5237310  78.1166100  83.4349850 129.4625710  77.1727320  83.2880870
 130.3029340  78.2246190  83.9803310 113.8290060  94.2558460  82.3973800
 113.6612100  93.6229140  83.0955690 112.9624570  94.4617860  82.0467990
 114.4518080  78.0875240  79.9005660 115.2097440  78.2004120  79.3269690
 113.9895250  78.9244440  79.8549090 125.4956870  76.8656960  84.1291040
 126.0986240  77.4377170  84.6039560 124.7549860  77.4296400  83.9064940
 128.6391470  77.2678520  79.4031320 128.8342100  78.1661970  79.6698750
 127.8521340  77.0365600  79.8964270 115.4352760  92.9491690  79.8423940
 114.9100380  93.3299720  79.1385900 115.3597340  93.5742460  80.5633650
 116.8243230  78.6139290  78.4407630 117.3535990  77.8269090  78.3115580
 117.4571550  79.2930480  78.6743160 119.1436630  77.6298410  93.9305510
 118.8620900  78.1332010  93.1666330 119.5256330  76.8320160  93.5647640
 118.0345730  94.8974070  78.7173190 118.7664550  94.6133350  78.1697080
 118.2939400  94.6587350  79.6072570 128.5250580  94.1923520  93.9904670
 129.3175900  93.6972750  93.7830630 128.8183730  94.8713660  94.5980280
 122.7828280  86.8423480  66.7529990 122.0070380  86.3623920  67.0428560
 123.4341210  86.1629130  66.5786150 116.7994110  87.1543290  67.6305750
 115.9678990  86.8992000  68.0302260 117.4075090  87.2254060  68.3663670
 126.8035710  91.2483670  65.5329120 126.3417240  90.4770910  65.8616290
 127.6161260  91.2749740  66.0381570 116.7795370  91.1883380  67.8263770
 117.0823410  90.2981120  67.6473990 117.5238960  91.7453600  67.5986020
 115.2086060  82.1145180  61.4148140 114.3202760  82.4561150  61.3128020
 115.4927250  81.9145500  60.5228970 113.1719070  84.7150830  67.2987840
 113.7435180  83.9473030  67.2991480 113.1720610  85.0139590  66.3894450
 123.0299020  93.5341680  65.1533110 122.4110460  93.9899180  64.5827550
 123.8850800  93.6893140  64.7522810 122.2237270  89.5180670  66.7600150
 122.1545550  88.5770610  66.5989280 122.9857130  89.6082080  67.3322720
 114.4143940  80.1235190  69.0856770 114.2346780  79.2260940  69.3659530
 114.0124020  80.6707060  69.7603720 123.2542440  82.3251050  66.9869080
 123.6307260  81.4522930  66.8742750 123.1561950  82.6609750  66.0959520
 117.3847450  80.6976680  62.4486520 117.4914200  81.5980410  62.7555280
 116.4739810  80.6494650  62.1581170 127.0366560  79.8201490  63.9197420
 127.8576180  79.3298060  63.9622900 127.0700640  80.4099150  64.6729260
 115.0330610  82.6195690  67.6939110 115.7140720  82.8834060  68.3126510
 114.7178660  81.7796560  68.0277120 119.2255180  83.6663050  66.7811700
 119.7333400  84.1644020  67.4216720 119.7568420  82.8898250  66.6051060
 117.5091280  78.3061610  71.0475120 117.5109720  78.8234000  70.2421020
 116.6795590  77.8291790  71.0245050 123.8962370  88.4180920  62.5465020
 123.2779640  88.8830370  61.9827740 124.4085620  89.1108400  62.9634530
 118.7594130  87.9456790  69.2248620 118.4263510  88.5725710  69.8669690
 118.9360810  88.4718670  68.4450290 117.1906610  80.0171570  69.0545570
 117.5323420  80.8613620  68.7599440 116.2522420  80.1655310  69.1710910
 117.9713230  89.9137590  71.0397800 118.5887230  90.5888670  70.7582250
 117.1106350  90.3225570  70.9485300 113.2645570  89.1037450  59.9204650
 112.8873550  89.5924550  59.1889550 113.5218640  89.7762730  60.5511180
 128.8890820  91.3777000  68.9552440 128.2054340  92.0476110  68.9469110
 129.4285110  91.5757650  68.1897300 126.4249560  93.2221130  67.6697620
 126.4376720  92.8183420  66.8019880 125.8724780  93.9968420  67.5659050
 127.7194980  89.9437350  62.7587790 127.6091310  89.0011680  62.8837210
 127.7163230  90.3052990  63.6450550 125.8235000  88.1250970  68.9980230
 126.2403790  87.9111080  68.1633690 126.5474820  88.3823760  69.5688850
 123.2615260  85.5702670  62.1150280 122.3344540  85.5040050  62.3438750
 123.4140080  86.5082800  62.0005520 127.2912550  87.1322970  62.6185530
 126.6724970  86.7942520  61.9711830 127.2737000  86.4882730  63.3264720
 126.7339110  83.3107510  70.0351340 126.3210290  84.1361220  70.2891330
 126.0015060  82.7252550  69.8427700 118.8671900  86.0967410  64.8970010
 118.4628900  85.3844660  64.4015910 118.9535020  85.7520650  65.7858050
 119.3353600  89.7834970  67.0609220 119.0381890  89.1780440  66.3817000
 120.2853420  89.8212280  66.9498580 117.5800520  82.8710620  68.6769050
 118.1315110  82.9805960  67.9022300 118.0944030  83.2448220  69.3924280
 127.4239210  93.3566840  70.7232320 126.9469770  94.1639030  70.5304930
 126.7401000  92.7045170  70.8758530 118.4272030  89.5216660  73.7117020
 117.5300560  89.7456630  73.9590420 118.4524900  89.6451600  72.7628420
 125.4677250  86.3709780  59.6258280 125.9070530  85.5332210  59.4796100
 126.1805670  87.0039180  59.7122420 123.5772630  91.3105850  63.5939520
 124.0168540  92.0530180  63.1794910 123.5159520  91.5532420  64.5178480
 119.0523600  92.3351680  74.4959540 119.0239030  92.7394630  73.6287970
 118.8888570  91.4062040  74.3331140 115.5676530  84.9912390  62.3976660
 115.4474130  85.7174480  61.7857930 115.2577420  84.2215300  61.9204570
 130.4071670  90.3091630  72.9523720 130.5334730  90.0703510  72.0340900
 130.4493050  89.4776170  73.4245800 124.2688410  94.0119630  71.5218530
 124.7833080  93.9227640  72.3240960 123.4257490  94.3579330  71.8146440
 126.2442810  94.2974970  60.9502530 126.0843950  94.0077910  61.8484360
 126.0789520  93.5215100  60.4147760 125.9468940  91.8062530  59.5100530
 125.2534100  91.8039820  58.8502810 126.6891800  91.3821850  59.0794700
 125.5118870  93.4325240  63.5849020 125.9675820  92.6514620  63.8987640
 125.8511390  94.1432060  64.1290200 113.2621420  89.2041700  70.7439760
 113.4252460  88.7347060  69.9259130 113.7273870  88.6965260  71.4088600
 127.3214510  82.4224930  72.5132310 126.4708100  82.1230680  72.8341380
 127.1616300  82.6666940  71.6016130 124.4164220  83.9226680  74.6131100
 124.7417630  83.0890430  74.2733330 125.2044550  84.4455200  74.7609430
 121.1499010  77.9558160  60.6606160 120.5253190  77.9518030  61.3859470
 121.0629130  77.0889120  60.2642130 117.8254410  83.4581030  63.5081580
 117.5995330  83.2418200  64.4128200 117.0446940  83.8909490  63.1627550
 125.0552170  83.4644400  62.1072230 124.4561060  84.1880200  61.9235850
 125.6031780  83.4021180  61.3248680 123.6617040  82.1007940  64.1375510
 124.0546610  82.4180140  63.3244200 124.0233890  81.2219820  64.2520030
 121.9709210  80.8515250  75.3972370 121.2807530  80.6587450  76.0318460
 122.7141510  81.1349890  75.9296670 112.6981210  78.6908740  66.3605710
 112.4094260  79.2611600  67.0730690 113.4426970  78.2113190  66.7236940
 112.8851440  82.6328860  57.5708430 112.8026110  83.5759620  57.7123420
 112.5334500  82.4903770  56.6920780 120.6849570  81.3667890  66.6378780
 120.6885630  80.9257840  65.7883320 121.5800690  81.6885220  66.7450600
 116.5351950  81.2494380  65.5972990 116.1952000  81.7269610  66.3540040
 115.7729270  80.7959500  65.2374090 120.7469720  82.3679970  59.6285540
 120.8682540  82.3266450  60.5771360 120.3618230  83.2304120  59.4732270
 124.7098090  80.1447370  67.6449230 124.7270830  80.5956020  68.4891080
 124.4613670  79.2453010  67.8582670 119.7591220  84.6781110  59.0268840
 119.1908120  84.2299360  58.4004750 120.4680220  85.0373890  58.4933990
 128.1368840  77.5579550  73.4835610 128.4614610  76.8269210  74.0093590
 128.1725350  77.2393190  72.5816600 120.9857540  85.4269670  68.3844190
 121.3527670  84.9528240  69.1305530 120.7962600  86.3011240  68.7252530
 113.8498030  80.1713360  64.5137660 113.5644950  79.8069030  65.3516280
 113.7876890  79.4393820  63.9000800 117.3038700  88.6739300  61.2995250
 116.5300960  88.1336920  61.1393970 118.0333330  88.1545910  60.9613010
 123.4445480  87.7413720  72.9790640 123.3782790  86.8209390  72.7248230
 122.8150620  87.8389160  73.6935280 117.3476100  88.3419680  64.9374060
 117.8654770  87.5387940  64.8830950 116.8960120  88.2798820  65.7790890
 122.2345600  89.6085960  60.2101360 122.5761300  90.3528190  59.7144680
 121.4058310  89.9217080  60.5726190 123.3762210  90.5634290  72.7294440
 123.3906750  89.6315250  72.5113350 122.6687310  90.6494050  73.3684210
 129.5873420  87.2041630  72.0763020 128.8621610  87.7970410  71.8792410
 130.1148880  87.1965170  71.2776390 129.5386530  91.6016370  61.7275180
 128.8962690  90.9471990  62.0018900 129.1517190  92.0071460  60.9515850
 125.1173010  88.9301800  65.5746870 125.4696830  88.3329930  64.9148240
 124.2335340  88.6046030  65.7455120 121.2036290  89.6899490  62.9817280
 121.8907420  90.2368700  63.3624870 120.4168710  90.2340220  63.0166890
 113.3428690  85.3072310  58.4734360 114.2123540  85.5897110  58.7570280
 112.8519010  86.1208180  58.3583170 120.5063500  86.6945520  62.5942640
 120.9626280  87.5050770  62.8202830 120.1551710  86.3768660  63.4261130
 122.8096110  92.2051860  69.8234940 123.4538330  92.4111240  70.5008360
 123.1725550  91.4440260  69.3705790 124.0828190  90.2084210  68.5412390
 124.7250420  89.5077370  68.6544560 124.6077540  90.9882650  68.3609280
 127.9283910  90.4932830  58.2651530 127.7021490  89.7763270  58.8576170
 127.5380110  90.2445270  57.4273280 125.8565810  91.0079110  71.7448450
 126.1922050  91.5945800  72.4226370 124.9366150  90.8771820  71.9746240
 113.7099940  94.5199690  59.0395990 114.0697580  95.1189030  58.3853260
 113.5692280  95.0659580  59.8131020 113.4069210  78.7974290  72.5271860
 112.6927730  78.9971210  73.1324470 113.8264250  78.0213860  72.8986660
 127.5100160  88.4104770  59.9265690 127.2221860  88.8717460  60.7143570
 128.3052330  87.9502540  60.1949910 121.6854390  91.0570440  74.9136510
 121.3651260  90.3379680  75.4582200 121.0112750  91.7325510  74.9872570
 119.7268560  91.9030890  59.8569660 119.7178660  92.6360580  59.2414170
 118.8066920  91.6562470  59.9496620 115.3275200  87.1245780  60.6016420
 114.7203150  87.8644680  60.6111720 115.8024550  87.2145140  59.7754620
 122.7128160  91.9659130  58.5194850 122.8140140  91.7623120  57.5896830
 121.8129900  91.7117410  58.7242630 120.2354050  82.5239490  62.5018750
 119.5270200  82.9925830  62.9432360 120.5198530  81.8661500  63.1363940
 121.8609980  83.9436190  70.5011280 122.3595230  84.4182010  71.1663130
 122.0032930  83.0199710  70.7081310 124.2669480  79.2490150  63.9414540
 124.1437260  79.2676280  62.9924050 125.2154040  79.2969090  64.0612940
 121.3546270  94.4845450  63.2142520 121.6087770  94.4466840  62.2921890
 120.4058750  94.3578780  63.2070770 118.4389070  80.8324570  59.8769460
 119.2879600  81.2694720  59.8109650 118.0720340  81.1444830  60.7041520
 117.3380490  87.0856930  58.3504990 118.1043760  86.9738290  58.9130420
 117.4155180  86.3894900  57.6981760 116.0327250  84.5182000  59.0337880
 116.1130840  83.5709510  59.1455280 116.9247000  84.8488880  59.1398540
 129.3624430  92.5746180  66.4655290 129.4871850  93.3977350  66.9379100
 130.2289990  92.3636910  66.1179440 115.8400240  93.8523460  75.3258000
 116.6412970  94.1735510  75.7393400 115.3252060  93.4919040  76.0477910
 119.9444270  93.8407700  57.9597990 120.7372880  94.1296530  57.5079780
 119.4248620  93.4099870  57.2810470 124.6764870  89.9603330  75.2733410
 124.0703030  89.9834930  74.5329160 124.3718980  89.2286370  75.8100660
 126.1065240  93.6883620  73.8842820 127.0586990  93.6041640  73.8343060
 125.9593460  94.3525330  74.5576610 128.9974440  93.0677830  59.3834730
 128.7115950  92.6542970  58.5688910 128.7993990  93.9965540  59.2635250
 120.4621670  89.0611110  57.8240340 120.3572310  88.4463460  58.5501720
 120.2945890  88.5377000  57.0403350 120.6135990  87.7467910  73.8029570
 119.8481660  88.3152910  73.7184240 120.7951950  87.4544120  72.9097800
 123.7024400  88.1231140  58.4282330 123.1534500  88.5700440  59.0725070
 124.3243660  87.6180390  58.9520000 127.7559340  89.4773240  74.3604590
 128.4968810  89.8149000  73.8572050 126.9932020  89.6465300  73.8074360
 119.3699520  87.0822060  60.3247630 119.7915940  86.9161930  61.1679020
 119.4950360  86.2722290  59.8302770 121.8827160  86.1059670  57.5724730
 122.4032820  85.3908690  57.2065880 122.5295560  86.7445540  57.8725240
 126.4305000  87.5288070  72.8959800 126.8446020  87.6833150  73.7450220
 125.4956000  87.6543290  73.0585580 126.9027170  84.8684230  74.8998950
 127.4847940  84.1136550  74.8119430 127.0788940  85.3991670  74.1230430
 118.0199240  80.0280980  73.2115900 117.9256110  79.4101730  72.4866770
 117.4396630  80.7547270  72.9845810 121.1920230  87.4808550  70.8655730
 121.6108340  88.3241280  70.6931970 120.2728860  87.6180590  70.6362510
 123.5284130  85.2124730  72.2493570 123.6480340  84.6165870  72.9888410
 124.3878130  85.2494420  71.8294870 125.8672030  85.7661920  70.8256080
 125.3407250  86.2904540  70.2221220 126.2103370  86.3989310  71.4565810
 118.2658420  83.1555290  57.2705790 118.0647480  82.2922650  57.6319130
 118.0950470  83.0688650  56.3327390 119.0427650  93.7861560  71.9813460
 118.5048740  94.5107620  71.6622160 119.2961610  93.3091900  71.1910800
 125.1146330  81.3711890  73.7402410 124.4261850  80.7093430  73.6752400
 125.8352350  80.9250160  74.1850870 117.0641220  80.2555910  57.2583670
 117.3667120  80.2623340  56.3502820 117.8035810  79.9053770  57.7551330
 121.8989860  95.0212770  72.2400110 121.8248560  95.9247910  72.5472480
 120.9968700  94.7024670  72.2122180 120.2826150  79.1990530  58.2439870
 119.9348150  78.5214520  57.6642320 120.4838920  78.7380040  59.0583260
 122.4475190  94.1871280  59.8626470 123.3425980  94.5256250  59.8845230
 122.4792820  93.4650690  59.2350750 116.0871350  89.5598330  58.0913470
 116.5246220  90.1028000  58.7471050 116.5719080  88.7345280  58.1009810
 117.8979070  90.6796370  63.2035700 117.5974610  90.5561340  64.1039610
 117.7916560  89.8204960  62.7951430 113.7907360  93.2157950  68.2815360
 113.3538350  93.3958750  69.1139510 114.3585040  93.9732570  68.1397080
 129.4269540  92.7174950  72.5692670 128.8271530  92.7767510  71.8256590
 129.5563440  91.7779930  72.6989520 130.6670990  90.4592770  57.9062380
 129.8363950  90.5269420  58.3769610 130.8442820  91.3496890  57.6029240
 130.1227450  87.2040250  60.4096580 130.8846360  87.7736900  60.5156270
 130.1381820  86.6367450  61.1804890 128.1121180  89.4426930  70.6668830
 127.2981020  89.8724090  70.9294620 128.5195380  90.0545340  70.0537880
 114.6607720  86.1130750  69.1807580 115.0280760  86.0258150  70.0603600
 114.0918540  85.3497300  69.0814440 129.4611580  84.5815130  72.1938050
 129.2297670  84.3527880  71.2936000 129.7216130  85.5014680  72.1482940
 127.8999650  79.8071560  74.9717750 128.7769830  79.8154960  75.3551750
 127.9120490  79.0702400  74.3610100 115.3797080  81.9942650  58.4923950
 116.0888780  81.5725870  58.0071230 114.6637020  82.0617880  57.8607300
 115.0271240  78.0481980  57.5326600 115.7499370  78.5890920  57.8507820
 115.2995760  77.7745400  56.6568140 128.8362890  82.9174450  61.7998180
 129.3322010  82.6845320  62.5847060 128.6378960  82.0786290  61.3835820
 128.6115770  77.4929530  70.7918860 129.2487990  78.1063670  71.1578050
 128.7590660  77.5290190  69.8468090 131.2278810  80.1553980  60.1998710
 130.4330310  80.0899100  60.7291620 131.4322090  81.0904620  60.1884060
 128.1697230  94.1945530  64.1937100 128.7656300  93.8730100  63.5171520
 128.4275380  93.7217350  64.9850370 114.4695430  77.4543840  70.1774540
 114.1210250  77.9107660  70.9432720 114.1383130  76.5600970  70.2596970
 119.7765830  92.1823030  69.9437450 119.5357190  92.4497590  69.0567970
 120.7168470  92.3528760  69.9988310 131.0369990  94.2017410  70.7448090
 130.5428270  94.5986280  70.0275220 130.4283280  93.5766620  71.1385370
 115.9147830  93.5725690  71.4625510 115.3208150  93.4410390  72.2015550
 115.9071670  92.7363830  70.9967610 128.7209440  94.8440830  68.0234830
 128.2612410  95.5956640  67.6492850 128.0921900  94.1247300  67.9649630
 115.5460060  90.9384070  70.4133550 114.8194120  90.3189360  70.3459500
 115.6069210  91.3324680  69.5431630 119.1505160  93.1529070  67.1982960
 119.6670180  92.5416430  66.6731220 119.8002540  93.6557850  67.6893970
 121.8900660  94.0437560  68.0251940 122.1778470  93.7891860  67.1484950
 122.4023880  93.4914920  68.6157510 127.6598740  78.4850860  66.6497540
 128.1006830  78.4295960  65.8019140 127.3906330  79.4008870  66.7207720
 129.5237310  78.1166100  64.6606360 129.4625710  77.1727320  64.5137380
 130.3029340  78.2246190  65.2059820 114.4518080  78.0875240  61.1262170
 115.2097440  78.2004120  60.5526200 113.9895250  78.9244440  61.0805600
 120.9931890  80.2014510  64.1164480 120.1806400  79.8271400  63.7760360
 121.4973530  79.4459590  64.4185670 125.4956870  76.8656960  65.3547550
 126.0986240  77.4377170  65.8296070 124.7549860  77.4296400  65.1321450
 128.6391470  77.2678520  60.6287830 128.8342100  78.1661970  60.8955260
 127.8521340  77.0365600  61.1220780 116.8243230  78.6139290  59.6664140
 117.3535990  77.8269090  59.5372090 117.4571550  79.2930480  59.8999670
 121.9573020  94.9653660  75.3920140 122.8840330  94.7297930  75.4356100
 121.9423450  95.7925660  74.9106170 130.1918080  94.5079230  62.3894390
 130.3670270  93.8216970  61.7455310 129.4939650  95.0326280  61.9971060
 118.0345730  94.8974070  59.9429700 118.7664550  94.6133350  59.3953590
 118.2939400  94.6587350  60.8329080 117.1960520  91.0138800  59.9476030
 116.5669400  91.4823900  60.4961860 117.3108350  90.1688020  60.3822220
 125.7452090  77.0451990  75.7342490 125.6317540  77.3646600  76.6294010
 126.5621830  77.4464500  75.4379770 124.6510240  85.0644460  46.0977230
 124.5704290  84.1499070  45.8268940 124.2374660  85.5611530  45.3916940
 122.7828280  86.8423480  47.9786500 122.0070380  86.3623920  48.2685070
 123.4341210  86.1629130  47.8042660 116.7994110  87.1543290  48.8562260
 115.9678990  86.8992000  49.2558770 117.4075090  87.2254060  49.5920180
 126.8035710  91.2483670  46.7585630 126.3417240  90.4770910  47.0872800
 127.6161260  91.2749740  47.2638080 115.2086060  82.1145180  42.6404650
 114.3202760  82.4561150  42.5384530 115.4927250  81.9145500  41.7485480
 113.1719070  84.7150830  48.5244350 113.7435180  83.9473030  48.5247990
 113.1720610  85.0139590  47.6150960 123.0299020  93.5341680  46.3789620
 122.4110460  93.9899180  45.8084060 123.8850800  93.6893140  45.9779320
 122.2237270  89.5180670  47.9856660 122.1545550  88.5770610  47.8245790
 122.9857130  89.6082080  48.5579230 114.4143940  80.1235190  50.3113280
 114.2346780  79.2260940  50.5916040 114.0124020  80.6707060  50.9860230
 123.2542440  82.3251050  48.2125590 123.6307260  81.4522930  48.0999260
 123.1561950  82.6609750  47.3216030 117.3847450  80.6976680  43.6743030
 117.4914200  81.5980410  43.9811790 116.4739810  80.6494650  43.3837680
 127.0366560  79.8201490  45.1453930 127.8576180  79.3298060  45.1879410
 127.0700640  80.4099150  45.8985770 115.0330610  82.6195690  48.9195620
 115.7140720  82.8834060  49.5383020 114.7178660  81.7796560  49.2533630
 119.2255180  83.6663050  48.0068210 119.7333400  84.1644020  48.6473230
 119.7568420  82.8898250  47.8307570 131.3266110  81.8368240  51.7097560
 130.6218280  82.2249950  51.1912670 131.5924030  82.5318530  52.3118490
 117.5091280  78.3061610  52.2731630 117.5109720  78.8234000  51.4677530
 116.6795590  77.8291790  52.2501560 123.8962370  88.4180920  43.7721530
 123.2779640  88.8830370  43.2084250 124.4085620  89.1108400  44.1891040
 118.7594130  87.9456790  50.4505130 118.4263510  88.5725710  51.0926200
 118.9360810  88.4718670  49.6706800 127.2728040  81.7601870  47.9181470
 126.5683610  82.0486760  48.4984580 127.6340200  82.5701980  47.5581030
 117.1906610  80.0171570  50.2802080 117.5323420  80.8613620  49.9855950
 116.2522420  80.1655310  50.3967420 117.9713230  89.9137590  52.2654310
 118.5887230  90.5888670  51.9838760 117.1106350  90.3225570  52.1741810
 113.2645570  89.1037450  41.1461160 112.8873550  89.5924550  40.4146060
 113.5218640  89.7762730  41.7767690 128.8890820  91.3777000  50.1808950
 128.2054340  92.0476110  50.1725620 129.4285110  91.5757650  49.4153810
 130.3414960  81.2056660  48.3090680 129.3939870  81.2395640  48.4406110
 130.6664950  82.0195610  48.6940040 120.8734500  77.5053840  46.6046670
 121.1809480  76.9500730  45.8882170 119.9435200  77.6398300  46.4219660
 126.4249560  93.2221130  48.8954130 126.4376720  92.8183420  48.0276390
 125.8724780  93.9968420  48.7915560 127.7194980  89.9437350  43.9844300
 127.6091310  89.0011680  44.1093720 127.7163230  90.3052990  44.8707060
 125.8235000  88.1250970  50.2236740 126.2403790  87.9111080  49.3890200
 126.5474820  88.3823760  50.7945360 123.2615260  85.5702670  43.3406790
 122.3344540  85.5040050  43.5695260 123.4140080  86.5082800  43.2262030
 129.7697100  86.5238190  50.3152980 128.9415730  86.5931280  49.8403110
 130.3647580  87.1092500  49.8468810 127.2912550  87.1322970  43.8442040
 126.6724970  86.7942520  43.1968340 127.2737000  86.4882730  44.5521230
 126.7339110  83.3107510  51.2607850 126.3210290  84.1361220  51.5147840
 126.0015060  82.7252550  51.0684210 118.8671900  86.0967410  46.1226520
 118.4628900  85.3844660  45.6272420 118.9535020  85.7520650  47.0114560
 117.5800520  82.8710620  49.9025560 118.1315110  82.9805960  49.1278810
 118.0944030  83.2448220  50.6180790 118.4272030  89.5216660  54.9373530
 117.5300560  89.7456630  55.1846930 118.4524900  89.6451600  53.9884930
 125.4677250  86.3709780  40.8514790 125.9070530  85.5332210  40.7052610
 126.1805670  87.0039180  40.9378930 117.2543250  86.3929980  53.5130900
 117.1151020  87.2652780  53.8818300 116.3724610  86.0502790  53.3678840
 123.5772630  91.3105850  44.8196030 124.0168540  92.0530180  44.4051420
 123.5159520  91.5532420  45.7434990 119.0523600  92.3351680  55.7216050
 119.0239030  92.7394630  54.8544480 118.8888570  91.4062040  55.5587650
 129.0494390  77.6252590  39.1655830 128.7367050  77.7179420  40.0654900
 129.8106860  78.2033620  39.1153260 115.5676530  84.9912390  43.6233170
 115.4474130  85.7174480  43.0114440 115.2577420  84.2215300  43.1461080
 130.4071670  90.3091630  54.1780230 130.5334730  90.0703510  53.2597410
 130.4493050  89.4776170  54.6502310 124.2688410  94.0119630  52.7475040
 124.7833080  93.9227640  53.5497470 123.4257490  94.3579330  53.0402950
 126.2442810  94.2974970  42.1759040 126.0843950  94.0077910  43.0740870
 126.0789520  93.5215100  41.6404270 125.5118870  93.4325240  44.8105530
 125.9675820  92.6514620  45.1244150 125.8511390  94.1432060  45.3546710
 113.2621420  89.2041700  51.9696270 113.4252460  88.7347060  51.1515640
 113.7273870  88.6965260  52.6345110 118.0340190  78.3347460  47.0056840
 117.5908340  79.1157000  46.6741360 118.5925180  78.6577350  47.7127780
 122.3210000  81.2015980  52.6092160 121.8589370  81.4099000  53.4212100
 121.9188110  80.3875330  52.3062830 127.3214510  82.4224930  53.7388820
 126.4708100  82.1230680  54.0597890 127.1616300  82.6666940  52.8272640
 121.1499010  77.9558160  41.8862670 120.5253190  77.9518030  42.6115980
 121.0629130  77.0889120  41.4898640 120.0716090  78.8794790  48.8646440
 120.3688420  79.7857620  48.7838460 120.6201650  78.3913570  48.2506010
 117.8254410  83.4581030  44.7338090 117.5995330  83.2418200  45.6384710
 117.0446940  83.8909490  44.3884060 125.0552170  83.4644400  43.3328740
 124.4561060  84.1880200  43.1492360 125.6031780  83.4021180  42.5505190
 120.2653620  84.3566610  55.3998360 120.1697220  83.4161340  55.2498760
 121.1085600  84.5781680  55.0046430 123.6617040  82.1007940  45.3632020
 124.0546610  82.4180140  44.5500710 124.0233890  81.2219820  45.4776540
 115.3964160  80.7680280  53.5532140 115.0027550  81.6155490  53.7604920
 114.7082560  80.1306650  53.7440780 112.6981210  78.6908740  47.5862220
 112.4094260  79.2611600  48.2987200 113.4426970  78.2113190  47.9493450
 112.8851440  82.6328860  38.7964940 112.8026110  83.5759620  38.9379930
 112.5334500  82.4903770  37.9177290 124.2472180  84.6913690  49.4582800
 123.5153300  85.2000500  49.8072900 123.8496520  83.8743670  49.1571580
 120.6849570  81.3667890  47.8635290 120.6885630  80.9257840  47.0139830
 121.5800690  81.6885220  47.9707110 116.5351950  81.2494380  46.8229500
 116.1952000  81.7269610  47.5796550 115.7729270  80.7959500  46.4630600
 124.7098090  80.1447370  48.8705740 124.7270830  80.5956020  49.7147590
 124.4613670  79.2453010  49.0839180 114.8360400  88.5793130  54.1292080
 114.4515190  87.9386800  54.7275040 115.1472590  89.2829250  54.6986810
 120.9857540  85.4269670  49.6100700 121.3527670  84.9528240  50.3562040
 120.7962600  86.3011240  49.9509040 113.8498030  80.1713360  45.7394170
 113.5644950  79.8069030  46.5772790 113.7876890  79.4393820  45.1257310
 118.7756910  84.4678310  51.9284910 118.4713980  85.3470290  52.1535270
 119.7303370  84.5278100  51.9642350 117.3038700  88.6739300  42.5251760
 116.5300960  88.1336920  42.3650480 118.0333330  88.1545910  42.1869520
 128.0626680  87.6704660  48.3178150 128.7825800  88.1659950  47.9274260
 127.8608500  86.9922550  47.6732020 123.5236620  79.0642620  42.4607540
 122.7101230  78.5655790  42.3852850 123.3298570  79.9040870  42.0443890
 123.4445480  87.7413720  54.2047150 123.3782790  86.8209390  53.9504740
 122.8150620  87.8389160  54.9191790 126.2385010  83.4362270  40.7569700
 127.1264630  83.7479500  40.5821040 126.2090100  82.5634520  40.3650280
 117.3476100  88.3419680  46.1630570 117.8654770  87.5387940  46.1087460
 116.8960120  88.2798820  47.0047400 114.8320640  85.3081050  53.0756270
 114.4735580  85.9734900  53.6629610 114.5375200  84.4764600  53.4468890
 118.0333760  85.7665290  55.9595820 117.7333900  85.9122470  55.0623640
 118.8045000  85.2070580  55.8669210 123.3762210  90.5634290  53.9550950
 123.3906750  89.6315250  53.7369860 122.6687310  90.6494050  54.5940720
 128.5099280  84.7474110  40.2249560 128.4263000  85.1788330  39.3746000
 129.2293470  85.2072460  40.6576380 129.5386530  91.6016370  42.9531690
 128.8962690  90.9471990  43.2275410 129.1517190  92.0071460  42.1772360
 125.1173010  88.9301800  46.8003380 125.4696830  88.3329930  46.1404750
 124.2335340  88.6046030  46.9711630 121.2036290  89.6899490  44.2073790
 121.8907420  90.2368700  44.5881380 120.4168710  90.2340220  44.2423400
 113.3428690  85.3072310  39.6990870 114.2123540  85.5897110  39.9826790
 112.8519010  86.1208180  39.5839680 120.5063500  86.6945520  43.8199150
 120.9626280  87.5050770  44.0459340 120.1551710  86.3768660  44.6517640
 122.8096110  92.2051860  51.0491450 123.4538330  92.4111240  51.7264870
 123.1725550  91.4440260  50.5962300 124.0828190  90.2084210  49.7668900
 124.7250420  89.5077370  49.8801070 124.6077540  90.9882650  49.5865790
 127.9283910  90.4932830  39.4908040 127.7021490  89.7763270  40.0832680
 127.5380110  90.2445270  38.6529790 125.8565810  91.0079110  52.9704960
 126.1922050  91.5945800  53.6482880 124.9366150  90.8771820  53.2002750
 113.4069210  78.7974290  53.7528370 112.6927730  78.9971210  54.3580980
 113.8264250  78.0213860  54.1243170 127.5100160  88.4104770  41.1522200
 127.2221860  88.8717460  41.9400080 128.3052330  87.9502540  41.4206420
 113.6941800  92.7854550  54.7394900 113.8032920  91.8449290  54.5990290
 113.0422360  93.0509300  54.0908630 121.6854390  91.0570440  56.1393020
 121.3651260  90.3379680  56.6838710 121.0112750  91.7325510  56.2129080
 119.7268560  91.9030890  41.0826170 119.7178660  92.6360580  40.4670680
 118.8066920  91.6562470  41.1753130 115.3275200  87.1245780  41.8272930
 114.7203150  87.8644680  41.8368230 115.8024550  87.2145140  41.0011130
 124.9007990  81.2896600  51.5029820 125.2688810  80.4691810  51.8309390
 124.0406190  81.3498490  51.9185470 128.2670020  80.2453540  42.3117380
 127.6383180  80.3499210  41.5975610 127.7721940  80.4650320  43.1011260
 120.2354050  82.5239490  43.7275260 119.5270200  82.9925830  44.1688870
 120.5198530  81.8661500  44.3620450 121.8609980  83.9436190  51.7267790
 122.3595230  84.4182010  52.3919640 122.0032930  83.0199710  51.9337820
 124.2669480  79.2490150  45.1671050 124.1437260  79.2676280  44.2180560
 125.2154040  79.2969090  45.2869450 121.3546270  94.4845450  44.4399030
 121.6087770  94.4466840  43.5178400 120.4058750  94.3578780  44.4327280
 118.4389070  80.8324570  41.1025970 119.2879600  81.2694720  41.0366160
 118.0720340  81.1444830  41.9298030 127.3598850  85.4037330  46.0157540
 126.4188990  85.4187560  46.1905230 127.6742920  84.6173290  46.4617840
 117.3380490  87.0856930  39.5761500 118.1043760  86.9738290  40.1386930
 117.4155180  86.3894900  38.9238270 116.0327250  84.5182000  40.2594390
 116.1130840  83.5709510  40.3711790 116.9247000  84.8488880  40.3655050
 129.3624430  92.5746180  47.6911800 129.4871850  93.3977350  48.1635610
 130.2289990  92.3636910  47.3435950 113.7187440  90.7350960  43.2370440
 112.7927220  90.9772100  43.2275850 114.1843870  91.5625220  43.1155190
 115.8400240  93.8523460  56.5514510 116.6412970  94.1735510  56.9649910
 115.3252060  93.4919040  57.2734420 124.6764870  89.9603330  56.4989920
 124.0703030  89.9834930  55.7585670 124.3718980  89.2286370  57.0357170
 128.9974440  93.0677830  40.6091240 128.7115950  92.6542970  39.7945420
 128.7993990  93.9965540  40.4891760 113.5598050  86.3396920  55.4950560
 114.0637070  85.7604200  56.0666790 112.8205470  86.6237150  56.0326930
 120.4621670  89.0611110  39.0496850 120.3572310  88.4463460  39.7758230
 120.2945890  88.5377000  38.2659860 120.6135990  87.7467910  55.0286080
 119.8481660  88.3152910  54.9440750 120.7951950  87.4544120  54.1354310
 123.7024400  88.1231140  39.6538840 123.1534500  88.5700440  40.2981580
 124.3243660  87.6180390  40.1776510 115.5921130  84.4826510  56.3900630
 115.6326470  84.1840380  57.2985860 116.4466630  84.8834120  56.2308150
 119.3699520  87.0822060  41.5504140 119.7915940  86.9161930  42.3935530
 119.4950360  86.2722290  41.0559280 117.5326940  83.0618610  54.3575120
 117.0023400  82.5709560  53.7298460 118.2015010  83.4902810  53.8233050
 126.4305000  87.5288070  54.1216310 126.8446020  87.6833150  54.9706730
 125.4956000  87.6543290  54.2842090 118.0199240  80.0280980  54.4372410
 117.9256110  79.4101730  53.7123280 117.4396630  80.7547270  54.2102320
 120.7860680  78.5854220  51.4699800 120.3377980  78.6078480  50.6245350
 120.1525880  78.1873240  52.0670100 121.1920230  87.4808550  52.0912240
 121.6108340  88.3241280  51.9188480 120.2728860  87.6180590  51.8619020
 123.5284130  85.2124730  53.4750080 123.6480340  84.6165870  54.2144920
 124.3878130  85.2494420  53.0551380 125.8672030  85.7661920  52.0512590
 125.3407250  86.2904540  51.4477730 126.2103370  86.3989310  52.6822320
 118.2658420  83.1555290  38.4962300 118.0647480  82.2922650  38.8575640
 118.0950470  83.0688650  37.5583900 119.0427650  93.7861560  53.2069970
 118.5048740  94.5107620  52.8878670 119.2961610  93.3091900  52.4167310
 120.2952900  81.7546080  54.7325900 120.8852590  81.4461930  55.4203720
 119.4773140  81.2825830  54.8885800 125.7446730  77.9663520  41.0249180
 126.0249020  77.1231420  41.3808600 124.9712460  78.1986630  41.5387930
 117.0641220  80.2555910  38.4840180 117.3667120  80.2623340  37.5759330
 117.8035810  79.9053770  38.9807840 121.8989860  95.0212770  53.4656620
 121.8248560  95.9247910  53.7728990 120.9968700  94.7024670  53.4378690
 120.2826150  79.1990530  39.4696380 119.9348150  78.5214520  38.8898830
 120.4838920  78.7380040  40.2839770 116.0871350  89.5598330  39.3169980
 116.5246220  90.1028000  39.9727560 116.5719080  88.7345280  39.3266320
 117.8979070  90.6796370  44.4292210 117.5974610  90.5561340  45.3296120
 117.7916560  89.8204960  44.0207940 130.6670990  90.4592770  39.1318890
 129.8363950  90.5269420  39.6026120 130.8442820  91.3496890  38.8285750
 130.1227450  87.2040250  41.6353090 130.8846360  87.7736900  41.7412780
 130.1381820  86.6367450  42.4061400 113.6231790  85.7278180  45.8660750
 112.9680630  85.4589820  45.2220450 114.4609740  85.6182660  45.4162730
 131.1287420  88.0590350  46.4795020 131.4996250  87.2757670  46.0730990
 131.7689350  88.7479450  46.3012320 128.1121180  89.4426930  51.8925340
 127.2981020  89.8724090  52.1551130 128.5195380  90.0545340  51.2794390
 130.1746620  87.4974620  38.7925610 130.4495460  88.4053500  38.6644830
 129.9857360  87.4337150  39.7287600 126.5722230  80.5219470  40.0879240
 126.9907110  80.3350450  39.2475900 126.2658290  79.6698520  40.3982170
 130.0711960  85.4343610  43.7855040 129.6955560  84.6671540  43.3536330
 129.3415080  85.8166310  44.2729970 114.6607720  86.1130750  50.4064090
 115.0280760  86.0258150  51.2860110 114.0918540  85.3497300  50.3070950
 114.2123720  83.0239840  54.3122510 113.3179770  82.9906600  54.6516220
 114.7521270  83.2226630  55.0773760 112.8369870  82.9377110  41.8086080
 111.9333950  83.2007310  41.6337740 113.3210490  83.2088280  41.0286040
 129.3462920  83.6601100  47.0862280 129.8700400  83.1663750  46.4552450
 129.9322340  83.7951460  47.8309850 129.5252640  83.7440970  50.6081830
 128.5755350  83.7104510  50.7226820 129.7065650  84.6541080  50.3731600
 115.3797080  81.9942650  39.7180460 116.0888780  81.5725870  39.2327740
 114.6637020  82.0617880  39.0863810 115.0271240  78.0481980  38.7583110
 115.7499370  78.5890920  39.0764330 115.2995760  77.7745400  37.8824650
 128.8362890  82.9174450  43.0254690 129.3322010  82.6845320  43.8103570
 128.6378960  82.0786290  42.6092330 114.7163430  77.2988170  48.6605730
 115.3639620  76.7485550  48.2200890 115.1365270  77.5531320  49.4821540
 130.2650050  81.5535400  45.5592370 130.1549330  81.3991440  46.4974640
 131.0257640  81.0256340  45.3167780 131.1540320  79.3843320  38.7998510
 132.0789630  79.2524500  38.5916800 131.1316110  79.4636140  39.7534960
 131.2278810  80.1553980  41.4255220 130.4330310  80.0899100  41.9548130
 131.4322090  81.0904620  41.4140570 128.1697230  94.1945530  45.4193610
 128.7656300  93.8730100  44.7428030 128.4275380  93.7217350  46.2106880
 114.4695430  77.4543840  51.4031050 114.1210250  77.9107660  52.1689230
 114.1383130  76.5600970  51.4853480 116.0759800  90.6263440  55.5684240
 116.0329430  90.2556350  56.4498700 116.2070810  91.5641010  55.7086060
 119.7765830  92.1823030  51.1693960 119.5357190  92.4497590  50.2824480
 120.7168470  92.3528760  51.2244820 115.1416070  76.9820040  54.6781820
 115.6899060  76.8008090  53.9147930 115.2071380  76.1914150  55.2138130
 125.3602850  76.8657920  50.8912050 124.4862690  77.1993030  50.6884980
 125.2513600  76.3931100  51.7163920 126.2674830  79.0728790  52.2753770
 125.9388190  78.2580550  51.8955500 127.2157130  79.0298600  52.1519460
 128.7209440  94.8440830  49.2491340 128.2612410  95.5956640  48.8749360
 128.0921900  94.1247300  49.1906140 121.8900660  94.0437560  49.2508450
 122.1778470  93.7891860  48.3741460 122.4023880  93.4914920  49.8414020
 123.1077670  77.7827760  49.8304960 122.3249460  78.2573260  50.1101720
 122.8140600  76.8782590  49.7218140 127.6598740  78.4850860  47.8754050
 128.1006830  78.4295960  47.0275650 127.3906330  79.4008870  47.9464230
 129.5237310  78.1166100  45.8862870 129.4625710  77.1727320  45.7393890
 130.3029340  78.2246190  46.4316330 120.9931890  80.2014510  45.3420990
 120.1806400  79.8271400  45.0016870 121.4973530  79.4459590  45.6442180
 125.4956870  76.8656960  46.5804060 126.0986240  77.4377170  47.0552580
 124.7549860  77.4296400  46.3577960 128.6391470  77.2678520  41.8544340
 128.8342100  78.1661970  42.1211770 127.8521340  77.0365600  42.3477290
 115.4352760  92.9491690  42.2936960 114.9100380  93.3299720  41.5898920
 115.3597340  93.5742460  43.0146670 116.8243230  78.6139290  40.8920650
 117.3535990  77.8269090  40.7628600 117.4571550  79.2930480  41.1256180
 119.0181070  78.3514430  43.9466040 118.3883810  77.6501740  44.1136170
 118.4786210  79.1118560  43.7299200 121.9573020  94.9653660  56.6176650
 122.8840330  94.7297930  56.6612610 121.9423450  95.7925660  56.1362680
 130.1918080  94.5079230  43.6150900 130.3670270  93.8216970  42.9711820
 129.4939650  95.0326280  43.2227570 119.1436630  77.6298410  56.3818530
 118.8620900  78.1332010  55.6179350 119.5256330  76.8320160  56.0160660
 118.0345730  94.8974070  41.1686210 118.7664550  94.6133350  40.6210100
 118.2939400  94.6587350  42.0585590 117.1960520  91.0138800  41.1732540
 116.5669400  91.4823900  41.7218370 117.3108350  90.1688020  41.6078730
 124.6510240  85.0644460  27.3233740 124.5704290  84.1499070  27.0525450
 124.2374660  85.5611530  26.6173450 122.7828280  86.8423480  29.2043010
 122.0070380  86.3623920  29.4941580 123.4341210  86.1629130  29.0299170
 116.7994110  87.1543290  30.0818770 115.9678990  86.8992000  30.4815280
 117.4075090  87.2254060  30.8176690 126.8035710  91.2483670  27.9842140
 126.3417240  90.4770910  28.3129310 127.6161260  91.2749740  28.4894590
 116.7795370  91.1883380  30.2776790 117.0823410  90.2981120  30.0987010
 117.5238960  91.7453600  30.0499040 115.2086060  82.1145180  23.8661160
 114.3202760  82.4561150  23.7641040 115.4927250  81.9145500  22.9741990
 113.1719070  84.7150830  29.7500860 113.7435180  83.9473030  29.7504500
 113.1720610  85.0139590  28.8407470 123.0299020  93.5341680  27.6046130
 122.4110460  93.9899180  27.0340570 123.8850800  93.6893140  27.2035830
 122.2237270  89.5180670  29.2113170 122.1545550  88.5770610  29.0502300
 122.9857130  89.6082080  29.7835740 114.4143940  80.1235190  31.5369790
 114.2346780  79.2260940  31.8172550 114.0124020  80.6707060  32.2116740
 123.2542440  82.3251050  29.4382100 123.6307260  81.4522930  29.3255770
 123.1561950  82.6609750  28.5472540 117.3847450  80.6976680  24.8999540
 117.4914200  81.5980410  25.2068300 116.4739810  80.6494650  24.6094190
 127.0366560  79.8201490  26.3710440 127.8576180  79.3298060  26.4135920
 127.0700640  80.4099150  27.1242280 115.0330610  82.6195690  30.1452130
 115.7140720  82.8834060  30.7639530 114.7178660  81.7796560  30.4790140
 119.2255180  83.6663050  29.2324720 119.7333400  84.1644020  29.8729740
 119.7568420  82.8898250  29.0564080 131.3266110  81.8368240  32.9354070
 130.6218280  82.2249950  32.4169180 131.5924030  82.5318530  33.5375000
 117.5091280  78.3061610  33.4988140 117.5109720  78.8234000  32.6934040
 116.6795590  77.8291790  33.4758070 123.8962370  88.4180920  24.9978040
 123.2779640  88.8830370  24.4340760 124.4085620  89.1108400  25.4147550
 118.7594130  87.9456790  31.6761640 118.4263510  88.5725710  32.3182710
 118.9360810  88.4718670  30.8963310 127.2728040  81.7601870  29.1437980
 126.5683610  82.0486760  29.7241090 127.6340200  82.5701980  28.7837540
 117.1906610  80.0171570  31.5058590 117.5323420  80.8613620  31.2112460
 116.2522420  80.1655310  31.6223930 117.9713230  89.9137590  33.4910820
 118.5887230  90.5888670  33.2095270 117.1106350  90.3225570  33.3998320
 113.2645570  89.1037450  22.3717670 112.8873550  89.5924550  21.6402570
 113.5218640  89.7762730  23.0024200 128.8890820  91.3777000  31.4065460
 128.2054340  92.0476110  31.3982130 129.4285110  91.5757650  30.6410320
 130.3414960  81.2056660  29.5347190 129.3939870  81.2395640  29.6662620
 130.6664950  82.0195610  29.9196550 120.8734500  77.5053840  27.8303180
 121.1809480  76.9500730  27.1138680 119.9435200  77.6398300  27.6476170
 126.4249560  93.2221130  30.1210640 126.4376720  92.8183420  29.2532900
 125.8724780  93.9968420  30.0172070 127.7194980  89.9437350  25.2100810
 127.6091310  89.0011680  25.3350230 127.7163230  90.3052990  26.0963570
 125.8235000  88.1250970  31.4493250 126.2403790  87.9111080  30.6146710
 126.5474820  88.3823760  32.0201870 123.2615260  85.5702670  24.5663300
 122.3344540  85.5040050  24.7951770 123.4140080  86.5082800  24.4518540
 123.2484340  81.8419670  21.5630460 122.3088010  82.0033630  21.6482920
 123.5667600  82.5605350  21.0166450 129.7697100  86.5238190  31.5409490
 128.9415730  86.5931280  31.0659620 130.3647580  87.1092500  31.0725320
 127.2912550  87.1322970  25.0698550 126.6724970  86.7942520  24.4224850
 127.2737000  86.4882730  25.7777740 126.7339110  83.3107510  32.4864360
 126.3210290  84.1361220  32.7404350 126.0015060  82.7252550  32.2940720
 118.8671900  86.0967410  27.3483030 118.4628900  85.3844660  26.8528930
 118.9535020  85.7520650  28.2371070 119.3353600  89.7834970  29.5122240
 119.0381890  89.1780440  28.8330020 120.2853420  89.8212280  29.4011600
 117.5800520  82.8710620  31.1282070 118.1315110  82.9805960  30.3535320
 118.0944030  83.2448220  31.8437300 127.4239210  93.3566840  33.1745340
 126.9469770  94.1639030  32.9817950 126.7401000  92.7045170  33.3271550
 118.4272030  89.5216660  36.1630040 117.5300560  89.7456630  36.4103440
 118.4524900  89.6451600  35.2141440 125.4677250  86.3709780  22.0771300
 125.9070530  85.5332210  21.9309120 126.1805670  87.0039180  22.1635440
 117.2543250  86.3929980  34.7387410 117.1151020  87.2652780  35.1074810
 116.3724610  86.0502790  34.5935350 123.5772630  91.3105850  26.0452540
 124.0168540  92.0530180  25.6307930 123.5159520  91.5532420  26.9691500
 129.0494390  77.6252590  20.3912340 128.7367050  77.7179420  21.2911410
 129.8106860  78.2033620  20.3409770 115.5676530  84.9912390  24.8489680
 115.4474130  85.7174480  24.2370950 115.2577420  84.2215300  24.3717590
 131.0038420  93.1178780  38.2436730 131.4798140  93.5961670  38.9225810
 131.6245580  93.0496270  37.5182230 113.2061900  88.1627530  30.6558320
 113.2842320  88.2976300  29.7114040 113.8203580  87.4543420  30.8486440
 114.4509530  89.8627720  27.0664500 114.0437610  90.0042310  26.2118100
 115.3422540  89.5787880  26.8635710 130.4071670  90.3091630  35.4036740
 130.5334730  90.0703510  34.4853920 130.4493050  89.4776170  35.8758820
 124.2688410  94.0119630  33.9731550 124.7833080  93.9227640  34.7753980
 123.4257490  94.3579330  34.2659460 126.2442810  94.2974970  23.4015550
 126.0843950  94.0077910  24.2997380 126.0789520  93.5215100  22.8660780
 118.7231190  94.0773500  25.1787170 118.5473670  93.1609040  24.9654970
 117.8686930  94.4360790  25.4184970 125.9468940  91.8062530  21.9613550
 125.2534100  91.8039820  21.3015830 126.6891800  91.3821850  21.5307720
 125.5118870  93.4325240  26.0362040 125.9675820  92.6514620  26.3500660
 125.8511390  94.1432060  26.5803220 130.2595680  82.3624090  36.3686480
 129.6439950  82.8703760  35.8401940 129.9392100  81.4622420  36.3112420
 113.2621420  89.2041700  33.1952780 113.4252460  88.7347060  32.3772150
 113.7273870  88.6965260  33.8601620 118.0340190  78.3347460  28.2313350
 117.5908340  79.1157000  27.8997870 118.5925180  78.6577350  28.9384290
 121.1499010  77.9558160  23.1119180 120.5253190  77.9518030  23.8372490
 121.0629130  77.0889120  22.7155150 120.0716090  78.8794790  30.0902950
 120.3688420  79.7857620  30.0094970 120.6201650  78.3913570  29.4762520
 117.8254410  83.4581030  25.9594600 117.5995330  83.2418200  26.8641220
 117.0446940  83.8909490  25.6140570 125.0552170  83.4644400  24.5585250
 124.4561060  84.1880200  24.3748870 125.6031780  83.4021180  23.7761700
 123.6617040  82.1007940  26.5888530 124.0546610  82.4180140  25.7757220
 124.0233890  81.2219820  26.7033050 115.3964160  80.7680280  34.7788650
 115.0027550  81.6155490  34.9861430 114.7082560  80.1306650  34.9697290
 112.6981210  78.6908740  28.8118730 112.4094260  79.2611600  29.5243710
 113.4426970  78.2113190  29.1749960 112.8851440  82.6328860  20.0221450
 112.8026110  83.5759620  20.1636440 112.5334500  82.4903770  19.1433800
 124.2472180  84.6913690  30.6839310 123.5153300  85.2000500  31.0329410
 123.8496520  83.8743670  30.3828090 120.6849570  81.3667890  29.0891800
 120.6885630  80.9257840  28.2396340 121.5800690  81.6885220  29.1963620
 116.5351950  81.2494380  28.0486010 116.1952000  81.7269610  28.8053060
 115.7729270  80.7959500  27.6887110 120.7469720  82.3679970  22.0798560
 120.8682540  82.3266450  23.0284380 120.3618230  83.2304120  21.9245290
 124.7098090  80.1447370  30.0962250 124.7270830  80.5956020  30.9404100
 124.4613670  79.2453010  30.3095690 119.7591220  84.6781110  21.4781860
 119.1908120  84.2299360  20.8517770 120.4680220  85.0373890  20.9447010
 128.1368840  77.5579550  35.9348630 128.4614610  76.8269210  36.4606610
 128.1725350  77.2393190  35.0329620 114.8360400  88.5793130  35.3548590
 114.4515190  87.9386800  35.9531550 115.1472590  89.2829250  35.9243320
 120.9857540  85.4269670  30.8357210 121.3527670  84.9528240  31.5818550
 120.7962600  86.3011240  31.1765550 113.8498030  80.1713360  26.9650680
 113.5644950  79.8069030  27.8029300 113.7876890  79.4393820  26.3513820
 118.7756910  84.4678310  33.1541420 118.4713980  85.3470290  33.3791780
 119.7303370  84.5278100  33.1898860 117.3038700  88.6739300  23.7508270
 116.5300960  88.1336920  23.5906990 118.0333330  88.1545910  23.4126030
 128.0626680  87.6704660  29.5434660 128.7825800  88.1659950  29.1530770
 127.8608500  86.9922550  28.8988530 123.5236620  79.0642620  23.6864050
 122.7101230  78.5655790  23.6109360 123.3298570  79.9040870  23.2700400
 123.4445480  87.7413720  35.4303660 123.3782790  86.8209390  35.1761250
 122.8150620  87.8389160  36.1448300 126.2385010  83.4362270  21.9826210
 127.1264630  83.7479500  21.8077550 126.2090100  82.5634520  21.5906790
 117.3476100  88.3419680  27.3887080 117.8654770  87.5387940  27.3343970
 116.8960120  88.2798820  28.2303910 122.2345600  89.6085960  22.6614380
 122.5761300  90.3528190  22.1657700 121.4058310  89.9217080  23.0239210
 114.8320640  85.3081050  34.3012780 114.4735580  85.9734900  34.8886120
 114.5375200  84.4764600  34.6725400 118.0333760  85.7665290  37.1852330
 117.7333900  85.9122470  36.2880150 118.8045000  85.2070580  37.0925720
 128.5099280  84.7474110  21.4506070 128.4263000  85.1788330  20.6002510
 129.2293470  85.2072460  21.8832890 129.5873420  87.2041630  34.5276040
 128.8621610  87.7970410  34.3305430 130.1148880  87.1965170  33.7289410
 129.5386530  91.6016370  24.1788200 128.8962690  90.9471990  24.4531920
 129.1517190  92.0071460  23.4028870 125.1173010  88.9301800  28.0259890
 125.4696830  88.3329930  27.3661260 124.2335340  88.6046030  28.1968140
 121.2036290  89.6899490  25.4330300 121.8907420  90.2368700  25.8137890
 120.4168710  90.2340220  25.4679910 113.3428690  85.3072310  20.9247380
 114.2123540  85.5897110  21.2083300 112.8519010  86.1208180  20.8096190
 120.5063500  86.6945520  25.0455660 120.9626280  87.5050770  25.2715850
 120.1551710  86.3768660  25.8774150 122.8096110  92.2051860  32.2747960
 123.4538330  92.4111240  32.9521380 123.1725550  91.4440260  31.8218810
 116.4075280  77.0383170  25.5178180 116.2789910  77.0301070  26.4663100
 115.5837300  77.3766260  25.1669190 124.0828190  90.2084210  30.9925410
 124.7250420  89.5077370  31.1057580 124.6077540  90.9882650  30.8122300
 127.9283910  90.4932830  20.7164550 127.7021490  89.7763270  21.3089190
 127.5380110  90.2445270  19.8786300 125.8565810  91.0079110  34.1961470
 126.1922050  91.5945800  34.8739390 124.9366150  90.8771820  34.4259260
 113.7099940  94.5199690  21.4909010 114.0697580  95.1189030  20.8366280
 113.5692280  95.0659580  22.2644040 113.4069210  78.7974290  34.9784880
 112.6927730  78.9971210  35.5837490 113.8264250  78.0213860  35.3499680
 127.5100160  88.4104770  22.3778710 127.2221860  88.8717460  23.1656590
 128.3052330  87.9502540  22.6462930 119.7268560  91.9030890  22.3082680
 119.7178660  92.6360580  21.6927190 118.8066920  91.6562470  22.4009640
 115.3275200  87.1245780  23.0529440 114.7203150  87.8644680  23.0624740
 115.8024550  87.2145140  22.2267640 124.9007990  81.2896600  32.7286330
 125.2688810  80.4691810  33.0565900 124.0406190  81.3498490  33.1441980
 128.2670020  80.2453540  23.5373890 127.6383180  80.3499210  22.8232120
 127.7721940  80.4650320  24.3267770 122.7128160  91.9659130  20.9707870
 122.8140140  91.7623120  20.0409850 121.8129900  91.7117410  21.1755650
 120.2354050  82.5239490  24.9531770 119.5270200  82.9925830  25.3945380
 120.5198530  81.8661500  25.5876960 121.8609980  83.9436190  32.9524300
 122.3595230  84.4182010  33.6176150 122.0032930  83.0199710  33.1594330
 124.2669480  79.2490150  26.3927560 124.1437260  79.2676280  25.4437070
 125.2154040  79.2969090  26.5125960 121.3546270  94.4845450  25.6655540
 121.6087770  94.4466840  24.7434910 120.4058750  94.3578780  25.6583790
 118.4389070  80.8324570  22.3282480 119.2879600  81.2694720  22.2622670
 118.0720340  81.1444830  23.1554540 129.0676840  80.1604150  33.7952690
 128.5650440  80.9009550  34.1346500 129.8833500  80.5488150  33.4789480
 127.3598850  85.4037330  27.2414050 126.4188990  85.4187560  27.4161740
 127.6742920  84.6173290  27.6874350 117.3380490  87.0856930  20.8018010
 118.1043760  86.9738290  21.3643440 117.4155180  86.3894900  20.1494780
 116.0327250  84.5182000  21.4850900 116.1130840  83.5709510  21.5968300
 116.9247000  84.8488880  21.5911560 129.3624430  92.5746180  28.9168310
 129.4871850  93.3977350  29.3892120 130.2289990  92.3636910  28.5692460
 116.8341960  94.6677390  28.5885440 117.5704440  94.1192850  28.8594010
 117.2182880  95.5333400  28.4491430 113.7187440  90.7350960  24.4626950
 112.7927220  90.9772100  24.4532360 114.1843870  91.5625220  24.3411700
 115.8400240  93.8523460  37.7771020 116.6412970  94.1735510  38.1906420
 115.3252060  93.4919040  38.4990930 119.9444270  93.8407700  20.4111010
 120.7372880  94.1296530  19.9592800 119.4248620  93.4099870  19.7323490
 126.1065240  93.6883620  36.3355840 127.0586990  93.6041640  36.2856080
 125.9593460  94.3525330  37.0089630 128.9974440  93.0677830  21.8347750
 128.7115950  92.6542970  21.0201930 128.7993990  93.9965540  21.7148270
 113.5598050  86.3396920  36.7207070 114.0637070  85.7604200  37.2923300
 112.8205470  86.6237150  37.2583440 120.4621670  89.0611110  20.2753360
 120.3572310  88.4463460  21.0014740 120.2945890  88.5377000  19.4916370
 120.6135990  87.7467910  36.2542590 119.8481660  88.3152910  36.1697260
 120.7951950  87.4544120  35.3610820 123.7024400  88.1231140  20.8795350
 123.1534500  88.5700440  21.5238090 124.3243660  87.6180390  21.4033020
 127.7559340  89.4773240  36.8117610 128.4968810  89.8149000  36.3085070
 126.9932020  89.6465300  36.2587380 115.5921130  84.4826510  37.6157140
 115.6326470  84.1840380  38.5242370 116.4466630  84.8834120  37.4564660
 119.3699520  87.0822060  22.7760650 119.7915940  86.9161930  23.6192040
 119.4950360  86.2722290  22.2815790 117.5326940  83.0618610  35.5831630
 117.0023400  82.5709560  34.9554970 118.2015010  83.4902810  35.0489560
 121.8827160  86.1059670  20.0237750 122.4032820  85.3908690  19.6578900
 122.5295560  86.7445540  20.3238260 126.4305000  87.5288070  35.3472820
 126.8446020  87.6833150  36.1963240 125.4956000  87.6543290  35.5098600
 118.0199240  80.0280980  35.6628920 117.9256110  79.4101730  34.9379790
 117.4396630  80.7547270  35.4358830 120.7860680  78.5854220  32.6956310
 120.3377980  78.6078480  31.8501860 120.1525880  78.1873240  33.2926610
 121.1920230  87.4808550  33.3168750 121.6108340  88.3241280  33.1444990
 120.2728860  87.6180590  33.0875530 125.8672030  85.7661920  33.2769100
 125.3407250  86.2904540  32.6734240 126.2103370  86.3989310  33.9078830
 118.2658420  83.1555290  19.7218810 118.0647480  82.2922650  20.0832150
 118.0950470  83.0688650  18.7840410 119.0427650  93.7861560  34.4326480
 118.5048740  94.5107620  34.1135180 119.2961610  93.3091900  33.6423820
 125.7446730  77.9663520  22.2505690 126.0249020  77.1231420  22.6065110
 124.9712460  78.1986630  22.7644440 117.0641220  80.2555910  19.7096690
 117.3667120  80.2623340  18.8015840 117.8035810  79.9053770  20.2064350
 121.8989860  95.0212770  34.6913130 121.8248560  95.9247910  34.9985500
 120.9968700  94.7024670  34.6635200 120.2826150  79.1990530  20.6952890
 119.9348150  78.5214520  20.1155340 120.4838920  78.7380040  21.5096280
 122.4475190  94.1871280  22.3139490 123.3425980  94.5256250  22.3358250
 122.4792820  93.4650690  21.6863770 116.0871350  89.5598330  20.5426490
 116.5246220  90.1028000  21.1984070 116.5719080  88.7345280  20.5522830
 113.3017150  92.3487360  27.9946750 113.6320160  91.4808420  27.7625390
 113.7308150  92.5545880  28.8251710 117.8979070  90.6796370  25.6548720
 117.5974610  90.5561340  26.5552630 117.7916560  89.8204960  25.2464450
 113.7907360  93.2157950  30.7328380 113.3538350  93.3958750  31.5652530
 114.3585040  93.9732570  30.5910100 129.4269540  92.7174950  35.0205690
 128.8271530  92.7767510  34.2769610 129.5563440  91.7779930  35.1502540
 130.6670990  90.4592770  20.3575400 129.8363950  90.5269420  20.8282630
 130.8442820  91.3496890  20.0542260 130.1227450  87.2040250  22.8609600
 130.8846360  87.7736900  22.9669290 130.1381820  86.6367450  23.6317910
 113.6231790  85.7278180  27.0917260 112.9680630  85.4589820  26.4476960
 114.4609740  85.6182660  26.6419240 131.1287420  88.0590350  27.7051530
 131.4996250  87.2757670  27.2987500 131.7689350  88.7479450  27.5268830
 128.1121180  89.4426930  33.1181850 127.2981020  89.8724090  33.3807640
 128.5195380  90.0545340  32.5050900 130.1746620  87.4974620  20.0182120
 130.4495460  88.4053500  19.8901340 129.9857360  87.4337150  20.9544110
 126.5722230  80.5219470  21.3135750 126.9907110  80.3350450  20.4732410
 126.2658290  79.6698520  21.6238680 130.0711960  85.4343610  25.0111550
 129.6955560  84.6671540  24.5792840 129.3415080  85.8166310  25.4986480
 114.6607720  86.1130750  31.6320600 115.0280760  86.0258150  32.5116620
 114.0918540  85.3497300  31.5327460 129.4611580  84.5815130  34.6451070
 129.2297670  84.3527880  33.7449020 129.7216130  85.5014680  34.5995960
 114.2123720  83.0239840  35.5379020 113.3179770  82.9906600  35.8772730
 114.7521270  83.2226630  36.3030270 127.8999650  79.8071560  37.4230770
 128.7769830  79.8154960  37.8064770 127.9120490  79.0702400  36.8123120
 112.8369870  82.9377110  23.0342590 111.9333950  83.2007310  22.8594250
 113.3210490  83.2088280  22.2542550 129.3462920  83.6601100  28.3118790
 129.8700400  83.1663750  27.6808960 129.9322340  83.7951460  29.0566360
 129.5252640  83.7440970  31.8338340 128.5755350  83.7104510  31.9483330
 129.7065650  84.6541080  31.5988110 115.3797080  81.9942650  20.9436970
 116.0888780  81.5725870  20.4584250 114.6637020  82.0617880  20.3120320
 115.0271240  78.0481980  19.9839620 115.7499370  78.5890920  20.3020840
 115.2995760  77.7745400  19.1081160 128.8362890  82.9174450  24.2511200
 129.3322010  82.6845320  25.0360080 128.6378960  82.0786290  23.8348840
 114.7163430  77.2988170  29.8862240 115.3639620  76.7485550  29.4457400
 115.1365270  77.5531320  30.7078050 130.2650050  81.5535400  26.7848880
 130.1549330  81.3991440  27.7231150 131.0257640  81.0256340  26.5424290
 128.6115770  77.4929530  33.2431880 129.2487990  78.1063670  33.6091070
 128.7590660  77.5290190  32.2981110 131.1540320  79.3843320  20.0255020
 132.0789630  79.2524500  19.8173310 131.1316110  79.4636140  20.9791470
 131.2278810  80.1553980  22.6511730 130.4330310  80.0899100  23.1804640
 131.4322090  81.0904620  22.6397080 128.1697230  94.1945530  26.6450120
 128.7656300  93.8730100  25.9684540 128.4275380  93.7217350  27.4363390
 114.4695430  77.4543840  32.6287560 114.1210250  77.9107660  33.3945740
 114.1383130  76.5600970  32.7109990 116.0759800  90.6263440  36.7940750
 116.0329430  90.2556350  37.6755210 116.2070810  91.5641010  36.9342570
 119.7765830  92.1823030  32.3950470 119.5357190  92.4497590  31.5080990
 120.7168470  92.3528760  32.4501330 131.0369990  94.2017410  33.1961110
 130.5428270  94.5986280  32.4788240 130.4283280  93.5766620  33.5898390
 115.1416070  76.9820040  35.9038330 115.6899060  76.8008090  35.1404440
 115.2071380  76.1914150  36.4394640 115.9147830  93.5725690  33.9138530
 115.3208150  93.4410390  34.6528570 115.9071670  92.7363830  33.4480630
 125.3602850  76.8657920  32.1168560 124.4862690  77.1993030  31.9141490
 125.2513600  76.3931100  32.9420430 126.2674830  79.0728790  33.5010280
 125.9388190  78.2580550  33.1212010 127.2157130  79.0298600  33.3775970
 128.7209440  94.8440830  30.4747850 128.2612410  95.5956640  30.1005870
 128.0921900  94.1247300  30.4162650 115.5460060  90.9384070  32.8646570
 114.8194120  90.3189360  32.7972520 115.6069210  91.3324680  31.9944650
 119.1505160  93.1529070  29.6495980 119.6670180  92.5416430  29.1244240
 119.8002540  93.6557850  30.1406990 121.8900660  94.0437560  30.4764960
 122.1778470  93.7891860  29.5997970 122.4023880  93.4914920  31.0670530
 123.1077670  77.7827760  31.0561470 122.3249460  78.2573260  31.3358230
 122.8140600  76.8782590  30.9474650 127.6598740  78.4850860  29.1010560
 128.1006830  78.4295960  28.2532160 127.3906330  79.4008870  29.1720740
 129.5237310  78.1166100  27.1119380 129.4625710  77.1727320  26.9650400
 130.3029340  78.2246190  27.6572840 113.8290060  94.2558460  26.0743330
 113.6612100  93.6229140  26.7725220 112.9624570  94.4617860  25.7237520
 114.4518080  78.0875240  23.5775190 115.2097440  78.2004120  23.0039220
 113.9895250  78.9244440  23.5318620 120.9931890  80.2014510  26.5677500
 120.1806400  79.8271400  26.2273380 121.4973530  79.4459590  26.8698690
 125.4956870  76.8656960  27.8060570 126.0986240  77.4377170  28.2809090
 124.7549860  77.4296400  27.5834470 128.6391470  77.2678520  23.0800850
 128.8342100  78.1661970  23.3468280 127.8521340  77.0365600  23.5733800
 115.4352760  92.9491690  23.5193470 114.9100380  93.3299720  22.8155430
 115.3597340  93.5742460  24.2403180 116.8243230  78.6139290  22.1177160
 117.3535990  77.8269090  21.9885110 117.4571550  79.2930480  22.3512690
 119.0181070  78.3514430  25.1722550 118.3883810  77.6501740  25.3392680
 118.4786210  79.1118560  24.9555710 130.1918080  94.5079230  24.8407410
 130.3670270  93.8216970  24.1968330 129.4939650  95.0326280  24.4484080
 119.1436630  77.6298410  37.6075040 118.8620900  78.1332010  36.8435860
 119.5256330  76.8320160  37.2417170 118.0345730  94.8974070  22.3942720
 118.7664550  94.6133350  21.8466610 118.2939400  94.6587350  23.2842100
 117.1960520  91.0138800  22.3989050 116.5669400  91.4823900  22.9474880
 117.3108350  90.1688020  22.8335240 125.7452090  77.0451990  38.1855510
 125.6317540  77.3646600  39.0807030 126.5621830  77.4464500  37.8892790
 128.5250580  94.1923520  37.6674200 129.3175900  93.6972750  37.4600160
 128.8183730  94.8713660  38.2749810 124.6510240  85.0644460   8.5490250
 124.5704290  84.1499070   8.2781960 124.2374660  85.5611530   7.8429960
 122.7828280  86.8423480  10.4299520 122.0070380  86.3623920  10.7198090
 123.4341210  86.1629130  10.2555680 116.7994110  87.1543290  11.3075280
 115.9678990  86.8992000  11.7071790 117.4075090  87.2254060  12.0433200
 126.8035710  91.2483670   9.2098650 126.3417240  90.4770910   9.5385820
 127.6161260  91.2749740   9.7151100 116.7795370  91.1883380  11.5033300
 117.0823410  90.2981120  11.3243520 117.5238960  91.7453600  11.2755550
 115.2086060  82.1145180   5.0917670 114.3202760  82.4561150   4.9897550
 115.4927250  81.9145500   4.1998500 113.1719070  84.7150830  10.9757370
 113.7435180  83.9473030  10.9761010 113.1720610  85.0139590  10.0663980
 123.0299020  93.5341680   8.8302640 122.4110460  93.9899180   8.2597080
 123.8850800  93.6893140   8.4292340 122.2237270  89.5180670  10.4369680
 122.1545550  88.5770610  10.2758810 122.9857130  89.6082080  11.0092250
 114.4143940  80.1235190  12.7626300 114.2346780  79.2260940  13.0429060
 114.0124020  80.6707060  13.4373250 123.2542440  82.3251050  10.6638610
 123.6307260  81.4522930  10.5512280 123.1561950  82.6609750   9.7729050
 117.3847450  80.6976680   6.1256050 117.4914200  81.5980410   6.4324810
 116.4739810  80.6494650   5.8350700 127.0366560  79.8201490   7.5966950
 127.8576180  79.3298060   7.6392430 127.0700640  80.4099150   8.3498790
 115.0330610  82.6195690  11.3708640 115.7140720  82.8834060  11.9896040
 114.7178660  81.7796560  11.7046650 119.2255180  83.6663050  10.4581230
 119.7333400  84.1644020  11.0986250 119.7568420  82.8898250  10.2820590
 131.3266110  81.8368240  14.1610580 130.6218280  82.2249950  13.6425690
 131.5924030  82.5318530  14.7631510 117.5091280  78.3061610  14.7244650
 117.5109720  78.8234000  13.9190550 116.6795590  77.8291790  14.7014580
 123.8962370  88.4180920   6.2234550 123.2779640  88.8830370   5.6597270
 124.4085620  89.1108400   6.6404060 118.7594130  87.9456790  12.9018150
 118.4263510  88.5725710  13.5439220 118.9360810  88.4718670  12.1219820
 127.2728040  81.7601870  10.3694490 126.5683610  82.0486760  10.9497600
 127.6340200  82.5701980  10.0094050 117.1906610  80.0171570  12.7315100
 117.5323420  80.8613620  12.4368970 116.2522420  80.1655310  12.8480440
 117.9713230  89.9137590  14.7167330 118.5887230  90.5888670  14.4351780
 117.1106350  90.3225570  14.6254830 113.2645570  89.1037450   3.5974180
 112.8873550  89.5924550   2.8659080 113.5218640  89.7762730   4.2280710
 128.8890820  91.3777000  12.6321970 128.2054340  92.0476110  12.6238640
 129.4285110  91.5757650  11.8666830 130.3414960  81.2056660  10.7603700
 129.3939870  81.2395640  10.8919130 130.6664950  82.0195610  11.1453060
 120.8734500  77.5053840   9.0559690 121.1809480  76.9500730   8.3395190
 119.9435200  77.6398300   8.8732680 126.4249560  93.2221130  11.3467150
 126.4376720  92.8183420  10.4789410 125.8724780  93.9968420  11.2428580
 127.7194980  89.9437350   6.4357320 127.6091310  89.0011680   6.5606740
 127.7163230  90.3052990   7.3220080 125.8235000  88.1250970  12.6749760
 126.2403790  87.9111080  11.8403220 126.5474820  88.3823760  13.2458380
 123.2615260  85.5702670   5.7919810 122.3344540  85.5040050   6.0208280
 123.4140080  86.5082800   5.6775050 123.2484340  81.8419670   2.7886970
 122.3088010  82.0033630   2.8739430 123.5667600  82.5605350   2.2422960
 129.7697100  86.5238190  12.7666000 128.9415730  86.5931280  12.2916130
 130.3647580  87.1092500  12.2981830 127.2912550  87.1322970   6.2955060
 126.6724970  86.7942520   5.6481360 127.2737000  86.4882730   7.0034250
 126.7339110  83.3107510  13.7120870 126.3210290  84.1361220  13.9660860
 126.0015060  82.7252550  13.5197230 118.8671900  86.0967410   8.5739540
 118.4628900  85.3844660   8.0785440 118.9535020  85.7520650   9.4627580
 119.3353600  89.7834970  10.7378750 119.0381890  89.1780440  10.0586530
 120.2853420  89.8212280  10.6268110 117.5800520  82.8710620  12.3538580
 118.1315110  82.9805960  11.5791830 118.0944030  83.2448220  13.0693810
 127.4239210  93.3566840  14.4001850 126.9469770  94.1639030  14.2074460
 126.7401000  92.7045170  14.5528060 118.4272030  89.5216660  17.3886550
 117.5300560  89.7456630  17.6359950 118.4524900  89.6451600  16.4397950
 125.4677250  86.3709780   3.3027810 125.9070530  85.5332210   3.1565630
 126.1805670  87.0039180   3.3891950 117.2543250  86.3929980  15.9643920
 117.1151020  87.2652780  16.3331320 116.3724610  86.0502790  15.8191860
 123.5772630  91.3105850   7.2709050 124.0168540  92.0530180   6.8564440
 123.5159520  91.5532420   8.1948010 119.0523600  92.3351680  18.1729070
 119.0239030  92.7394630  17.3057500 118.8888570  91.4062040  18.0100670
 115.5676530  84.9912390   6.0746190 115.4474130  85.7174480   5.4627460
 115.2577420  84.2215300   5.5974100 131.0038420  93.1178780  19.4693240
 131.4798140  93.5961670  20.1482320 131.6245580  93.0496270  18.7438740
 113.2061900  88.1627530  11.8814830 113.2842320  88.2976300  10.9370550
 113.8203580  87.4543420  12.0742950 114.4509530  89.8627720   8.2921010
 114.0437610  90.0042310   7.4374610 115.3422540  89.5787880   8.0892220
 130.4071670  90.3091630  16.6293250 130.5334730  90.0703510  15.7110430
 130.4493050  89.4776170  17.1015330 124.2688410  94.0119630  15.1988060
 124.7833080  93.9227640  16.0010490 123.4257490  94.3579330  15.4915970
 126.2442810  94.2974970   4.6272060 126.0843950  94.0077910   5.5253890
 126.0789520  93.5215100   4.0917290 118.7231190  94.0773500   6.4043680
 118.5473670  93.1609040   6.1911480 117.8686930  94.4360790   6.6441480
 125.9468940  91.8062530   3.1870060 125.2534100  91.8039820   2.5272340
 126.6891800  91.3821850   2.7564230 125.5118870  93.4325240   7.2618550
 125.9675820  92.6514620   7.5757170 125.8511390  94.1432060   7.8059730
 130.2595680  82.3624090  17.5942990 129.6439950  82.8703760  17.0658450
 129.9392100  81.4622420  17.5368930 113.2621420  89.2041700  14.4209290
 113.4252460  88.7347060  13.6028660 113.7273870  88.6965260  15.0858130
 118.0340190  78.3347460   9.4569860 117.5908340  79.1157000   9.1254380
 118.5925180  78.6577350  10.1640800 122.3210000  81.2015980  15.0605180
 121.8589370  81.4099000  15.8725120 121.9188110  80.3875330  14.7575850
 127.3214510  82.4224930  16.1901840 126.4708100  82.1230680  16.5110910
 127.1616300  82.6666940  15.2785660 124.4164220  83.9226680  18.2900630
 124.7417630  83.0890430  17.9502860 125.2044550  84.4455200  18.4378960
 121.1499010  77.9558160   4.3375690 120.5253190  77.9518030   5.0629000
 121.0629130  77.0889120   3.9411660 120.0716090  78.8794790  11.3159460
 120.3688420  79.7857620  11.2351480 120.6201650  78.3913570  10.7019030
 117.8254410  83.4581030   7.1851110 117.5995330  83.2418200   8.0897730
 117.0446940  83.8909490   6.8397080 125.0552170  83.4644400   5.7841760
 124.4561060  84.1880200   5.6005380 125.6031780  83.4021180   5.0018210
 120.2653620  84.3566610  17.8511380 120.1697220  83.4161340  17.7011780
 121.1085600  84.5781680  17.4559450 123.6617040  82.1007940   7.8145040
 124.0546610  82.4180140   7.0013730 124.0233890  81.2219820   7.9289560
 115.3964160  80.7680280  16.0045160 115.0027550  81.6155490  16.2117940
 114.7082560  80.1306650  16.1953800 121.9709210  80.8515250  19.0741900
 121.2807530  80.6587450  19.7087990 122.7141510  81.1349890  19.6066200
 112.6981210  78.6908740  10.0375240 112.4094260  79.2611600  10.7500220
 113.4426970  78.2113190  10.4006470 124.2472180  84.6913690  11.9095820
 123.5153300  85.2000500  12.2585920 123.8496520  83.8743670  11.6084600
 120.6849570  81.3667890  10.3148310 120.6885630  80.9257840   9.4652850
 121.5800690  81.6885220  10.4220130 116.5351950  81.2494380   9.2742520
 116.1952000  81.7269610  10.0309570 115.7729270  80.7959500   8.9143620
 120.7469720  82.3679970   3.3055070 120.8682540  82.3266450   4.2540890
 120.3618230  83.2304120   3.1501800 124.7098090  80.1447370  11.3218760
 124.7270830  80.5956020  12.1660610 124.4613670  79.2453010  11.5352200
 119.7591220  84.6781110   2.7038370 119.1908120  84.2299360   2.0774280
 120.4680220  85.0373890   2.1703520 128.1368840  77.5579550  17.1605140
 128.4614610  76.8269210  17.6863120 128.1725350  77.2393190  16.2586130
 114.8360400  88.5793130  16.5805100 114.4515190  87.9386800  17.1788060
 115.1472590  89.2829250  17.1499830 120.9857540  85.4269670  12.0613720
 121.3527670  84.9528240  12.8075060 120.7962600  86.3011240  12.4022060
 113.8498030  80.1713360   8.1907190 113.5644950  79.8069030   9.0285810
 113.7876890  79.4393820   7.5770330 118.7756910  84.4678310  14.3797930
 118.4713980  85.3470290  14.6048290 119.7303370  84.5278100  14.4155370
 117.3038700  88.6739300   4.9764780 116.5300960  88.1336920   4.8163500
 118.0333330  88.1545910   4.6382540 128.0626680  87.6704660  10.7691170
 128.7825800  88.1659950  10.3787280 127.8608500  86.9922550  10.1245040
 123.5236620  79.0642620   4.9120560 122.7101230  78.5655790   4.8365870
 123.3298570  79.9040870   4.4956910 123.4445480  87.7413720  16.6560170
 123.3782790  86.8209390  16.4017760 122.8150620  87.8389160  17.3704810
 126.2385010  83.4362270   3.2082720 127.1264630  83.7479500   3.0334060
 126.2090100  82.5634520   2.8163300 117.3476100  88.3419680   8.6143590
 117.8654770  87.5387940   8.5600480 116.8960120  88.2798820   9.4560420
 122.2345600  89.6085960   3.8870890 122.5761300  90.3528190   3.3914210
 121.4058310  89.9217080   4.2495720 114.8320640  85.3081050  15.5269290
 114.4735580  85.9734900  16.1142630 114.5375200  84.4764600  15.8981910
 118.0333760  85.7665290  18.4108840 117.7333900  85.9122470  17.5136660
 118.8045000  85.2070580  18.3182230 123.3762210  90.5634290  16.4063970
 123.3906750  89.6315250  16.1882880 122.6687310  90.6494050  17.0453740
 128.5099280  84.7474110   2.6762580 128.4263000  85.1788330   1.8259020
 129.2293470  85.2072460   3.1089400 129.5873420  87.2041630  15.7532550
 128.8621610  87.7970410  15.5561940 130.1148880  87.1965170  14.9545920
 129.5386530  91.6016370   5.4044710 128.8962690  90.9471990   5.6788430
 129.1517190  92.0071460   4.6285380 125.1173010  88.9301800   9.2516400
 125.4696830  88.3329930   8.5917770 124.2335340  88.6046030   9.4224650
 121.2036290  89.6899490   6.6586810 121.8907420  90.2368700   7.0394400
 120.4168710  90.2340220   6.6936420 113.3428690  85.3072310   2.1503890
 114.2123540  85.5897110   2.4339810 112.8519010  86.1208180   2.0352700
 120.5063500  86.6945520   6.2712170 120.9626280  87.5050770   6.4972360
 120.1551710  86.3768660   7.1030660 122.8096110  92.2051860  13.5004470
 123.4538330  92.4111240  14.1777890 123.1725550  91.4440260  13.0475320
 116.4075280  77.0383170   6.7434690 116.2789910  77.0301070   7.6919610
 115.5837300  77.3766260   6.3925700 124.0828190  90.2084210  12.2181920
 124.7250420  89.5077370  12.3314090 124.6077540  90.9882650  12.0378810
 125.8565810  91.0079110  15.4217980 126.1922050  91.5945800  16.0995900
 124.9366150  90.8771820  15.6515770 113.7099940  94.5199690   2.7165520
 114.0697580  95.1189030   2.0622790 113.5692280  95.0659580   3.4900550
 113.4069210  78.7974290  16.2041390 112.6927730  78.9971210  16.8094000
 113.8264250  78.0213860  16.5756190 127.5100160  88.4104770   3.6035220
 127.2221860  88.8717460   4.3913100 128.3052330  87.9502540   3.8719440
 113.6941800  92.7854550  17.1907920 113.8032920  91.8449290  17.0503310
 113.0422360  93.0509300  16.5421650 121.6854390  91.0570440  18.5906040
 121.3651260  90.3379680  19.1351730 121.0112750  91.7325510  18.6642100
 119.7268560  91.9030890   3.5339190 119.7178660  92.6360580   2.9183700
 118.8066920  91.6562470   3.6266150 115.3275200  87.1245780   4.2785950
 114.7203150  87.8644680   4.2881250 115.8024550  87.2145140   3.4524150
 124.9007990  81.2896600  13.9542840 125.2688810  80.4691810  14.2822410
 124.0406190  81.3498490  14.3698490 128.2670020  80.2453540   4.7630400
 127.6383180  80.3499210   4.0488630 127.7721940  80.4650320   5.5524280
 120.2354050  82.5239490   6.1788280 119.5270200  82.9925830   6.6201890
 120.5198530  81.8661500   6.8133470 121.8609980  83.9436190  14.1780810
 122.3595230  84.4182010  14.8432660 122.0032930  83.0199710  14.3850840
 124.2669480  79.2490150   7.6184070 124.1437260  79.2676280   6.6693580
 125.2154040  79.2969090   7.7382470 121.3546270  94.4845450   6.8912050
 121.6087770  94.4466840   5.9691420 120.4058750  94.3578780   6.8840300
 118.4389070  80.8324570   3.5538990 119.2879600  81.2694720   3.4879180
 118.0720340  81.1444830   4.3811050 129.0676840  80.1604150  15.0209200
 128.5650440  80.9009550  15.3603010 129.8833500  80.5488150  14.7045990
 127.3598850  85.4037330   8.4670560 126.4188990  85.4187560   8.6418250
 127.6742920  84.6173290   8.9130860 116.0327250  84.5182000   2.7107410
 116.1130840  83.5709510   2.8224810 116.9247000  84.8488880   2.8168070
 129.3624430  92.5746180  10.1424820 129.4871850  93.3977350  10.6148630
 130.2289990  92.3636910   9.7948970 116.8341960  94.6677390   9.8141950
 117.5704440  94.1192850  10.0850520 117.2182880  95.5333400   9.6747940
 113.7187440  90.7350960   5.6883460 112.7927220  90.9772100   5.6788870
 114.1843870  91.5625220   5.5668210 115.8400240  93.8523460  19.0027530
 116.6412970  94.1735510  19.4162930 115.3252060  93.4919040  19.7247440
 124.6764870  89.9603330  18.9502940 124.0703030  89.9834930  18.2098690
 124.3718980  89.2286370  19.4870190 126.1065240  93.6883620  17.5612350
 127.0586990  93.6041640  17.5112590 125.9593460  94.3525330  18.2346140
 128.9974440  93.0677830   3.0604260 128.7115950  92.6542970   2.2458440
 128.7993990  93.9965540   2.9404780 113.5598050  86.3396920  17.9463580
 114.0637070  85.7604200  18.5179810 112.8205470  86.6237150  18.4839950
 120.6135990  87.7467910  17.4799100 119.8481660  88.3152910  17.3953770
 120.7951950  87.4544120  16.5867330 123.7024400  88.1231140   2.1051860
 123.1534500  88.5700440   2.7494600 124.3243660  87.6180390   2.6289530
 127.7559340  89.4773240  18.0374120 128.4968810  89.8149000  17.5341580
 126.9932020  89.6465300  17.4843890 115.5921130  84.4826510  18.8413650
 115.6326470  84.1840380  19.7498880 116.4466630  84.8834120  18.6821170
 119.3699520  87.0822060   4.0017160 119.7915940  86.9161930   4.8448550
 119.4950360  86.2722290   3.5072300 117.5326940  83.0618610  16.8088140
 117.0023400  82.5709560  16.1811480 118.2015010  83.4902810  16.2746070
 126.4305000  87.5288070  16.5729330 126.8446020  87.6833150  17.4219750
 125.4956000  87.6543290  16.7355110 126.9027170  84.8684230  18.5768480
 127.4847940  84.1136550  18.4888960 127.0788940  85.3991670  17.7999960
 118.0199240  80.0280980  16.8885430 117.9256110  79.4101730  16.1636300
 117.4396630  80.7547270  16.6615340 120.7860680  78.5854220  13.9212820
 120.3377980  78.6078480  13.0758370 120.1525880  78.1873240  14.5183120
 121.1920230  87.4808550  14.5425260 121.6108340  88.3241280  14.3701500
 120.2728860  87.6180590  14.3132040 123.5284130  85.2124730  15.9263100
 123.6480340  84.6165870  16.6657940 124.3878130  85.2494420  15.5064400
 125.8672030  85.7661920  14.5025610 125.3407250  86.2904540  13.8990750
 126.2103370  86.3989310  15.1335340 119.0427650  93.7861560  15.6582990
 118.5048740  94.5107620  15.3391690 119.2961610  93.3091900  14.8680330
 120.2952900  81.7546080  17.1838920 120.8852590  81.4461930  17.8716740
 119.4773140  81.2825830  17.3398820 125.1146330  81.3711890  17.4171940
 124.4261850  80.7093430  17.3521930 125.8352350  80.9250160  17.8620400
 125.7446730  77.9663520   3.4762200 126.0249020  77.1231420   3.8321620
 124.9712460  78.1986630   3.9900950 121.8989860  95.0212770  15.9169640
 121.8248560  95.9247910  16.2242010 120.9968700  94.7024670  15.8891710
 122.4475190  94.1871280   3.5396000 123.3425980  94.5256250   3.5614760
 122.4792820  93.4650690   2.9120280 116.0871350  89.5598330   1.7683000
 116.5246220  90.1028000   2.4240580 116.5719080  88.7345280   1.7779340
 113.3017150  92.3487360   9.2203260 113.6320160  91.4808420   8.9881900
 113.7308150  92.5545880  10.0508220 117.8979070  90.6796370   6.8805230
 117.5974610  90.5561340   7.7809140 117.7916560  89.8204960   6.4720960
 113.7907360  93.2157950  11.9584890 113.3538350  93.3958750  12.7909040
 114.3585040  93.9732570  11.8166610 129.4269540  92.7174950  16.2462200
 128.8271530  92.7767510  15.5026120 129.5563440  91.7779930  16.3759050
 130.1227450  87.2040250   4.0866110 130.8846360  87.7736900   4.1925800
 130.1381820  86.6367450   4.8574420 113.6231790  85.7278180   8.3173770
 112.9680630  85.4589820   7.6733470 114.4609740  85.6182660   7.8675750
 131.1287420  88.0590350   8.9308040 131.4996250  87.2757670   8.5244010
 131.7689350  88.7479450   8.7525340 128.1121180  89.4426930  14.3438360
 127.2981020  89.8724090  14.6064150 128.5195380  90.0545340  13.7307410
 126.5722230  80.5219470   2.5392260 126.9907110  80.3350450   1.6988920
 126.2658290  79.6698520   2.8495190 130.0711960  85.4343610   6.2368060
 129.6955560  84.6671540   5.8049350 129.3415080  85.8166310   6.7242990
 114.6607720  86.1130750  12.8577110 115.0280760  86.0258150  13.7373130
 114.0918540  85.3497300  12.7583970 129.4611580  84.5815130  15.8707580
 129.2297670  84.3527880  14.9705530 129.7216130  85.5014680  15.8252470
 114.2123720  83.0239840  16.7635530 113.3179770  82.9906600  17.1029240
 114.7521270  83.2226630  17.5286780 127.8999650  79.8071560  18.6487280
 128.7769830  79.8154960  19.0321280 127.9120490  79.0702400  18.0379630
 112.8369870  82.9377110   4.2599100 111.9333950  83.2007310   4.0850760
 113.3210490  83.2088280   3.4799060 129.3462920  83.6601100   9.5375300
 129.8700400  83.1663750   8.9065470 129.9322340  83.7951460  10.2822870
 129.5252640  83.7440970  13.0594850 128.5755350  83.7104510  13.1739840
 129.7065650  84.6541080  12.8244620 128.8362890  82.9174450   5.4767710
 129.3322010  82.6845320   6.2616590 128.6378960  82.0786290   5.0605350
 114.7163430  77.2988170  11.1118750 115.3639620  76.7485550  10.6713910
 115.1365270  77.5531320  11.9334560 130.2650050  81.5535400   8.0105390
 130.1549330  81.3991440   8.9487660 131.0257640  81.0256340   7.7680800
 128.6115770  77.4929530  14.4688390 129.2487990  78.1063670  14.8347580
 128.7590660  77.5290190  13.5237620 131.2278810  80.1553980   3.8768240
 130.4330310  80.0899100   4.4061150 131.4322090  81.0904620   3.8653590
 128.1697230  94.1945530   7.8706630 128.7656300  93.8730100   7.1941050
 128.4275380  93.7217350   8.6619900 114.4695430  77.4543840  13.8544070
 114.1210250  77.9107660  14.6202250 114.1383130  76.5600970  13.9366500
 116.0759800  90.6263440  18.0197260 116.0329430  90.2556350  18.9011720
 116.2070810  91.5641010  18.1599080 119.7765830  92.1823030  13.6206980
 119.5357190  92.4497590  12.7337500 120.7168470  92.3528760  13.6757840
 121.9820250  78.6455720  17.3763490 121.9209140  79.2377550  18.1258900
 122.9220630  78.5381680  17.2313750 124.6194810  78.3025780  17.0155780
 125.2335220  78.6205070  16.3536860 125.1644370  77.8174370  17.6351640
 131.0369990  94.2017410  14.4217620 130.5428270  94.5986280  13.7044750
 130.4283280  93.5766620  14.8154900 115.1416070  76.9820040  17.1294840
 115.6899060  76.8008090  16.3660950 115.2071380  76.1914150  17.6651150
 115.9147830  93.5725690  15.1395040 115.3208150  93.4410390  15.8785080
 115.9071670  92.7363830  14.6737140 125.3602850  76.8657920  13.3425070
 124.4862690  77.1993030  13.1398000 125.2513600  76.3931100  14.1676940
 126.2674830  79.0728790  14.7266790 125.9388190  78.2580550  14.3468520
 127.2157130  79.0298600  14.6032480 128.7209440  94.8440830  11.7004360
 128.2612410  95.5956640  11.3262380 128.0921900  94.1247300  11.6419160
 115.5460060  90.9384070  14.0903080 114.8194120  90.3189360  14.0229030
 115.6069210  91.3324680  13.2201160 119.1505160  93.1529070  10.8752490
 119.6670180  92.5416430  10.3500750 119.8002540  93.6557850  11.3663500
 121.8900660  94.0437560  11.7021470 122.1778470  93.7891860  10.8254480
 122.4023880  93.4914920  12.2927040 123.1077670  77.7827760  12.2817980
 122.3249460  78.2573260  12.5614740 122.8140600  76.8782590  12.1731160
 127.6598740  78.4850860  10.3267070 128.1006830  78.4295960   9.4788670
 127.3906330  79.4008870  10.3977250 129.5237310  78.1166100   8.3375890
 129.4625710  77.1727320   8.1906910 130.3029340  78.2246190   8.8829350
 113.8290060  94.2558460   7.2999840 113.6612100  93.6229140   7.9981730
 112.9624570  94.4617860   6.9494030 114.4518080  78.0875240   4.8031700
 115.2097440  78.2004120   4.2295730 113.9895250  78.9244440   4.7575130
 120.9931890  80.2014510   7.7934010 120.1806400  79.8271400   7.4529890
 121.4973530  79.4459590   8.0955200 125.4956870  76.8656960   9.0317080
 126.0986240  77.4377170   9.5065600 124.7549860  77.4296400   8.8090980
 128.6391470  77.2678520   4.3057360 128.8342100  78.1661970   4.5724790
 127.8521340  77.0365600   4.7990310 115.4352760  92.9491690   4.7449980
 114.9100380  93.3299720   4.0411940 115.3597340  93.5742460   5.4659690
 116.8243230  78.6139290   3.3433670 117.3535990  77.8269090   3.2141620
 117.4571550  79.2930480   3.5769200 119.0181070  78.3514430   6.3979060
 118.3883810  77.6501740   6.5649190 118.4786210  79.1118560   6.1812220
 121.9573020  94.9653660  19.0689670 122.8840330  94.7297930  19.1125630
 121.9423450  95.7925660  18.5875700 130.1918080  94.5079230   6.0663920
 130.3670270  93.8216970   5.4224840 129.4939650  95.0326280   5.6740590
 119.1436630  77.6298410  18.8331550 118.8620900  78.1332010  18.0692370
 119.5256330  76.8320160  18.4673680 118.0345730  94.8974070   3.6199230
 118.7664550  94.6133350   3.0723120 118.2939400  94.6587350   4.5098610
 117.1960520  91.0138800   3.6245560 116.5669400  91.4823900   4.1731390
 117.3108350  90.1688020   4.0591750 125.7452090  77.0451990  19.4112020
 125.6317540  77.3646600  20.3063540 126.5621830  77.4464500  19.1149300
 128.5250580  94.1923520  18.8930710 129.3175900  93.6972750  18.6856670
 128.8183730  94.8713660  19.5006320 124.6510240  66.2900970 139.9694680
 124.5704290  65.3755580 139.6986390 124.2374660  66.7868040 139.2634390
 122.7828280  68.0679990 141.8503950 122.0070380  67.5880430 142.1402520
 123.4341210  67.3885640 141.6760110 116.7994110  68.3799800 142.7279710
 115.9678990  68.1248510 143.1276220 117.4075090  68.4510570 143.4637630
 126.8035710  72.4740180 140.6303080 126.3417240  71.7027420 140.9590250
 127.6161260  72.5006250 141.1355530 116.7795370  72.4139890 142.9237730
 117.0823410  71.5237630 142.7447950 117.5238960  72.9710110 142.6959980
 115.2086060  63.3401690 136.5122100 114.3202760  63.6817660 136.4101980
 115.4927250  63.1402010 135.6202930 113.1719070  65.9407340 142.3961800
 113.7435180  65.1729540 142.3965440 113.1720610  66.2396100 141.4868410
 123.0299020  74.7598190 140.2507070 122.4110460  75.2155690 139.6801510
 123.8850800  74.9149650 139.8496770 122.2237270  70.7437180 141.8574110
 122.1545550  69.8027120 141.6963240 122.9857130  70.8338590 142.4296680
 114.4143940  61.3491700 144.1830730 114.2346780  60.4517450 144.4633490
 114.0124020  61.8963570 144.8577680 123.2542440  63.5507560 142.0843040
 123.6307260  62.6779440 141.9716710 123.1561950  63.8866260 141.1933480
 117.3847450  61.9233190 137.5460480 117.4914200  62.8236920 137.8529240
 116.4739810  61.8751160 137.2555130 127.0366560  61.0458000 139.0171380
 127.8576180  60.5554570 139.0596860 127.0700640  61.6355660 139.7703220
 115.0330610  63.8452200 142.7913070 115.7140720  64.1090570 143.4100470
 114.7178660  63.0053070 143.1251080 119.2255180  64.8919560 141.8785660
 119.7333400  65.3900530 142.5190680 119.7568420  64.1154760 141.7025020
 131.3266110  63.0624750 145.5815010 130.6218280  63.4506460 145.0630120
 131.5924030  63.7575040 146.1835940 117.5091280  59.5318120 146.1449080
 117.5109720  60.0490510 145.3394980 116.6795590  59.0548300 146.1219010
 123.8962370  69.6437430 137.6438980 123.2779640  70.1086880 137.0801700
 124.4085620  70.3364910 138.0608490 118.7594130  69.1713300 144.3222580
 118.4263510  69.7982220 144.9643650 118.9360810  69.6975180 143.5424250
 127.2728040  62.9858380 141.7898920 126.5683610  63.2743270 142.3702030
 127.6340200  63.7958490 141.4298480 117.1906610  61.2428080 144.1519530
 117.5323420  62.0870130 143.8573400 116.2522420  61.3911820 144.2684870
 117.9713230  71.1394100 146.1371760 118.5887230  71.8145180 145.8556210
 117.1106350  71.5482080 146.0459260 113.2645570  70.3293960 135.0178610
 112.8873550  70.8181060 134.2863510 113.5218640  71.0019240 135.6485140
 128.8890820  72.6033510 144.0526400 128.2054340  73.2732620 144.0443070
 129.4285110  72.8014160 143.2871260 130.3414960  62.4313170 142.1808130
 129.3939870  62.4652150 142.3123560 130.6664950  63.2452120 142.5657490
 120.8734500  58.7310350 140.4764120 121.1809480  58.1757240 139.7599620
 119.9435200  58.8654810 140.2937110 126.4249560  74.4477640 142.7671580
 126.4376720  74.0439930 141.8993840 125.8724780  75.2224930 142.6633010
 127.7194980  71.1693860 137.8561750 127.6091310  70.2268190 137.9811170
 127.7163230  71.5309500 138.7424510 125.8235000  69.3507480 144.0954190
 126.2403790  69.1367590 143.2607650 126.5474820  69.6080270 144.6662810
 123.2615260  66.7959180 137.2124240 122.3344540  66.7296560 137.4412710
 123.4140080  67.7339310 137.0979480 123.2484340  63.0676180 134.2091400
 122.3088010  63.2290140 134.2943860 123.5667600  63.7861860 133.6627390
 129.7697100  67.7494700 144.1870430 128.9415730  67.8187790 143.7120560
 130.3647580  68.3349010 143.7186260 127.2912550  68.3579480 137.7159490
 126.6724970  68.0199030 137.0685790 127.2737000  67.7139240 138.4238680
 126.7339110  64.5364020 145.1325300 126.3210290  65.3617730 145.3865290
 126.0015060  63.9509060 144.9401660 118.8671900  67.3223920 139.9943970
 118.4628900  66.6101170 139.4989870 118.9535020  66.9777160 140.8832010
 119.3353600  71.0091480 142.1583180 119.0381890  70.4036950 141.4790960
 120.2853420  71.0468790 142.0472540 117.5800520  64.0967130 143.7743010
 118.1315110  64.2062470 142.9996260 118.0944030  64.4704730 144.4898240
 127.4239210  74.5823350 145.8206280 126.9469770  75.3895540 145.6278890
 126.7401000  73.9301680 145.9732490 118.4272030  70.7473170 148.8090980
 117.5300560  70.9713140 149.0564380 118.4524900  70.8708110 147.8602380
 125.4677250  67.5966290 134.7232240 125.9070530  66.7588720 134.5770060
 126.1805670  68.2295690 134.8096380 117.2543250  67.6186490 147.3848350
 117.1151020  68.4909290 147.7535750 116.3724610  67.2759300 147.2396290
 123.5772630  72.5362360 138.6913480 124.0168540  73.2786690 138.2768870
 123.5159520  72.7788930 139.6152440 119.0523600  73.5608190 149.5933500
 119.0239030  73.9651140 148.7261930 118.8888570  72.6318550 149.4305100
 129.0494390  58.8509100 133.0373280 128.7367050  58.9435930 133.9372350
 129.8106860  59.4290130 132.9870710 115.5676530  66.2168900 137.4950620
 115.4474130  66.9430990 136.8831890 115.2577420  65.4471810 137.0178530
 113.2061900  69.3884040 143.3019260 113.2842320  69.5232810 142.3574980
 113.8203580  68.6799930 143.4947380 114.4509530  71.0884230 139.7125440
 114.0437610  71.2298820 138.8579040 115.3422540  70.8044390 139.5096650
 130.4071670  71.5348140 148.0497680 130.5334730  71.2960020 147.1314860
 130.4493050  70.7032680 148.5219760 124.2688410  75.2376140 146.6192490
 124.7833080  75.1484150 147.4214920 123.4257490  75.5835840 146.9120400
 126.2442810  75.5231480 136.0476490 126.0843950  75.2334420 136.9458320
 126.0789520  74.7471610 135.5121720 118.7231190  75.3030010 137.8248110
 118.5473670  74.3865550 137.6115910 117.8686930  75.6617300 138.0645910
 125.9468940  73.0319040 134.6074490 125.2534100  73.0296330 133.9476770
 126.6891800  72.6078360 134.1768660 125.5118870  74.6581750 138.6822980
 125.9675820  73.8771130 138.9961600 125.8511390  75.3688570 139.2264160
 130.2595680  63.5880600 149.0147420 129.6439950  64.0960270 148.4862880
 129.9392100  62.6878930 148.9573360 113.2621420  70.4298210 145.8413720
 113.4252460  69.9603570 145.0233090 113.7273870  69.9221770 146.5062560
 118.0340190  59.5603970 140.8774290 117.5908340  60.3413510 140.5458810
 118.5925180  59.8833860 141.5845230 122.3210000  62.4272490 146.4809610
 121.8589370  62.6355510 147.2929550 121.9188110  61.6131840 146.1780280
 127.3214510  63.6481440 147.6106270 126.4708100  63.3487190 147.9315340
 127.1616300  63.8923450 146.6990090 124.4164220  65.1483190 149.7105060
 124.7417630  64.3146940 149.3707290 125.2044550  65.6711710 149.8583390
 121.1499010  59.1814670 135.7580120 120.5253190  59.1774540 136.4833430
 121.0629130  58.3145630 135.3616090 120.0716090  60.1051300 142.7363890
 120.3688420  61.0114130 142.6555910 120.6201650  59.6170080 142.1223460
 117.8254410  64.6837540 138.6055540 117.5995330  64.4674710 139.5102160
 117.0446940  65.1166000 138.2601510 125.0552170  64.6900910 137.2046190
 124.4561060  65.4136710 137.0209810 125.6031780  64.6277690 136.4222640
 120.2653620  65.5823120 149.2715810 120.1697220  64.6417850 149.1216210
 121.1085600  65.8038190 148.8763880 123.6617040  63.3264450 139.2349470
 124.0546610  63.6436650 138.4218160 124.0233890  62.4476330 139.3493990
 115.3964160  61.9936790 147.4249590 115.0027550  62.8412000 147.6322370
 114.7082560  61.3563160 147.6158230 112.6981210  59.9165250 141.4579670
 112.4094260  60.4868110 142.1704650 113.4426970  59.4369700 141.8210900
 112.8851440  63.8585370 132.6682390 112.8026110  64.8016130 132.8097380
 112.5334500  63.7160280 131.7894740 124.2472180  65.9170200 143.3300250
 123.5153300  66.4257010 143.6790350 123.8496520  65.1000180 143.0289030
 120.6849570  62.5924400 141.7352740 120.6885630  62.1514350 140.8857280
 121.5800690  62.9141730 141.8424560 116.5351950  62.4750890 140.6946950
 116.1952000  62.9526120 141.4514000 115.7729270  62.0216010 140.3348050
 120.7469720  63.5936480 134.7259500 120.8682540  63.5522960 135.6745320
 120.3618230  64.4560630 134.5706230 124.7098090  61.3703880 142.7423190
 124.7270830  61.8212530 143.5865040 124.4613670  60.4709520 142.9556630
 119.7591220  65.9037620 134.1242800 119.1908120  65.4555870 133.4978710
 120.4680220  66.2630400 133.5907950 128.1368840  58.7836060 148.5809570
 128.4614610  58.0525720 149.1067550 128.1725350  58.4649700 147.6790560
 114.8360400  69.8049640 148.0009530 114.4515190  69.1643310 148.5992490
 115.1472590  70.5085760 148.5704260 120.9857540  66.6526180 143.4818150
 121.3527670  66.1784750 144.2279490 120.7962600  67.5267750 143.8226490
 113.8498030  61.3969870 139.6111620 113.5644950  61.0325540 140.4490240
 113.7876890  60.6650330 138.9974760 118.7756910  65.6934820 145.8002360
 118.4713980  66.5726800 146.0252720 119.7303370  65.7534610 145.8359800
 117.3038700  69.8995810 136.3969210 116.5300960  69.3593430 136.2367930
 118.0333330  69.3802420 136.0586970 128.0626680  68.8961170 142.1895600
 128.7825800  69.3916460 141.7991710 127.8608500  68.2179060 141.5449470
 123.5236620  60.2899130 136.3324990 122.7101230  59.7912300 136.2570300
 123.3298570  61.1297380 135.9161340 123.4445480  68.9670230 148.0764600
 123.3782790  68.0465900 147.8222190 122.8150620  69.0645670 148.7909240
 126.2385010  64.6618780 134.6287150 127.1264630  64.9736010 134.4538490
 126.2090100  63.7891030 134.2367730 117.3476100  69.5676190 140.0348020
 117.8654770  68.7644450 139.9804910 116.8960120  69.5055330 140.8764850
 122.2345600  70.8342470 135.3075320 122.5761300  71.5784700 134.8118640
 121.4058310  71.1473590 135.6700150 114.8320640  66.5337560 146.9473720
 114.4735580  67.1991410 147.5347060 114.5375200  65.7021110 147.3186340
 118.0333760  66.9921800 149.8313270 117.7333900  67.1378980 148.9341090
 118.8045000  66.4327090 149.7386660 123.3762210  71.7890800 147.8268400
 123.3906750  70.8571760 147.6087310 122.6687310  71.8750560 148.4658170
 128.5099280  65.9730620 134.0967010 128.4263000  66.4044840 133.2463450
 129.2293470  66.4328970 134.5293830 129.5873420  68.4298140 147.1736980
 128.8621610  69.0226920 146.9766370 130.1148880  68.4221680 146.3750350
 129.5386530  72.8272880 136.8249140 128.8962690  72.1728500 137.0992860
 129.1517190  73.2327970 136.0489810 125.1173010  70.1558310 140.6720830
 125.4696830  69.5586440 140.0122200 124.2335340  69.8302540 140.8429080
 121.2036290  70.9156000 138.0791240 121.8907420  71.4625210 138.4598830
 120.4168710  71.4596730 138.1140850 113.3428690  66.5328820 133.5708320
 114.2123540  66.8153620 133.8544240 112.8519010  67.3464690 133.4557130
 120.5063500  67.9202030 137.6916600 120.9626280  68.7307280 137.9176790
 120.1551710  67.6025170 138.5235090 122.8096110  73.4308370 144.9208900
 123.4538330  73.6367750 145.5982320 123.1725550  72.6696770 144.4679750
 116.4075280  58.2639680 138.1639120 116.2789910  58.2557580 139.1124040
 115.5837300  58.6022770 137.8130130 124.0828190  71.4340720 143.6386350
 124.7250420  70.7333880 143.7518520 124.6077540  72.2139160 143.4583240
 127.9283910  71.7189340 133.3625490 127.7021490  71.0019780 133.9550130
 127.5380110  71.4701780 132.5247240 125.8565810  72.2335620 146.8422410
 126.1922050  72.8202310 147.5200330 124.9366150  72.1028330 147.0720200
 113.7099940  75.7456200 134.1369950 114.0697580  76.3445540 133.4827220
 113.5692280  76.2916090 134.9104980 113.4069210  60.0230800 147.6245820
 112.6927730  60.2227720 148.2298430 113.8264250  59.2470370 147.9960620
 127.5100160  69.6361280 135.0239650 127.2221860  70.0973970 135.8117530
 128.3052330  69.1759050 135.2923870 113.6941800  74.0111060 148.6112350
 113.8032920  73.0705800 148.4707740 113.0422360  74.2765810 147.9626080
 119.7268560  73.1287400 134.9543620 119.7178660  73.8617090 134.3388130
 118.8066920  72.8818980 135.0470580 115.3275200  68.3502290 135.6990380
 114.7203150  69.0901190 135.7085680 115.8024550  68.4401650 134.8728580
 124.9007990  62.5153110 145.3747270 125.2688810  61.6948320 145.7026840
 124.0406190  62.5755000 145.7902920 128.2670020  61.4710050 136.1834830
 127.6383180  61.5755720 135.4693060 127.7721940  61.6906830 136.9728710
 122.7128160  73.1915640 133.6168810 122.8140140  72.9879630 132.6870790
 121.8129900  72.9373920 133.8216590 120.2354050  63.7496000 137.5992710
 119.5270200  64.2182340 138.0406320 120.5198530  63.0918010 138.2337900
 121.8609980  65.1692700 145.5985240 122.3595230  65.6438520 146.2637090
 122.0032930  64.2456220 145.8055270 124.2669480  60.4746660 139.0388500
 124.1437260  60.4932790 138.0898010 125.2154040  60.5225600 139.1586900
 121.3546270  75.7101960 138.3116480 121.6087770  75.6723350 137.3895850
 120.4058750  75.5835290 138.3044730 118.4389070  62.0581080 134.9743420
 119.2879600  62.4951230 134.9083610 118.0720340  62.3701340 135.8015480
 129.0676840  61.3860660 146.4413630 128.5650440  62.1266060 146.7807440
 129.8833500  61.7744660 146.1250420 127.3598850  66.6293840 139.8874990
 126.4188990  66.6444070 140.0622680 127.6742920  65.8429800 140.3335290
 117.3380490  68.3113440 133.4478950 118.1043760  68.1994800 134.0104380
 117.4155180  67.6151410 132.7955720 116.0327250  65.7438510 134.1311840
 116.1130840  64.7966020 134.2429240 116.9247000  66.0745390 134.2372500
 129.3624430  73.8002690 141.5629250 129.4871850  74.6233860 142.0353060
 130.2289990  73.5893420 141.2153400 116.8341960  75.8933900 141.2346380
 117.5704440  75.3449360 141.5054950 117.2182880  76.7589910 141.0952370
 113.7187440  71.9607470 137.1087890 112.7927220  72.2028610 137.0993300
 114.1843870  72.7881730 136.9872640 119.9444270  75.0664210 133.0571950
 120.7372880  75.3553040 132.6053740 119.4248620  74.6356380 132.3784430
 126.1065240  74.9140130 148.9816780 127.0586990  74.8298150 148.9317020
 125.9593460  75.5781840 149.6550570 128.9974440  74.2934340 134.4808690
 128.7115950  73.8799480 133.6662870 128.7993990  75.2222050 134.3609210
 113.5598050  67.5653430 149.3668010 114.0637070  66.9860710 149.9384240
 112.8205470  67.8493660 149.9044380 120.4621670  70.2867620 132.9214300
 120.3572310  69.6719970 133.6475680 120.2945890  69.7633510 132.1377310
 120.6135990  68.9724420 148.9003530 119.8481660  69.5409420 148.8158200
 120.7951950  68.6800630 148.0071760 123.7024400  69.3487650 133.5256290
 123.1534500  69.7956950 134.1699030 124.3243660  68.8436900 134.0493960
 127.7559340  70.7029750 149.4578550 128.4968810  71.0405510 148.9546010
 126.9932020  70.8721810 148.9048320 119.3699520  68.3078570 135.4221590
 119.7915940  68.1418440 136.2652980 119.4950360  67.4978800 134.9276730
 117.5326940  64.2875120 148.2292570 117.0023400  63.7966070 147.6015910
 118.2015010  64.7159320 147.6950500 121.8827160  67.3316180 132.6698690
 122.4032820  66.6165200 132.3039840 122.5295560  67.9702050 132.9699200
 126.4305000  68.7544580 147.9933760 126.8446020  68.9089660 148.8424180
 125.4956000  68.8799800 148.1559540 126.9027170  66.0940740 149.9972910
 127.4847940  65.3393060 149.9093390 127.0788940  66.6248180 149.2204390
 118.0199240  61.2537490 148.3089860 117.9256110  60.6358240 147.5840730
 117.4396630  61.9803780 148.0819770 120.7860680  59.8110730 145.3417250
 120.3377980  59.8334990 144.4962800 120.1525880  59.4129750 145.9387550
 121.1920230  68.7065060 145.9629690 121.6108340  69.5497790 145.7905930
 120.2728860  68.8437100 145.7336470 123.5284130  66.4381240 147.3467530
 123.6480340  65.8422380 148.0862370 124.3878130  66.4750930 146.9268830
 125.8672030  66.9918430 145.9230040 125.3407250  67.5161050 145.3195180
 126.2103370  67.6245820 146.5539770 118.2658420  64.3811800 132.3679750
 118.0647480  63.5179160 132.7293090 118.0950470  64.2945160 131.4301350
 119.0427650  75.0118070 147.0787420 118.5048740  75.7364130 146.7596120
 119.2961610  74.5348410 146.2884760 120.2952900  62.9802590 148.6043350
 120.8852590  62.6718440 149.2921170 119.4773140  62.5082340 148.7603250
 125.1146330  62.5968400 148.8376370 124.4261850  61.9349940 148.7726360
 125.8352350  62.1506670 149.2824830 125.7446730  59.1920030 134.8966630
 126.0249020  58.3487930 135.2526050 124.9712460  59.4243140 135.4105380
 117.0641220  61.4812420 132.3557630 117.3667120  61.4879850 131.4476780
 117.8035810  61.1310280 132.8525290 121.8989860  76.2469280 147.3374070
 121.8248560  77.1504420 147.6446440 120.9968700  75.9281180 147.3096140
 120.2826150  60.4247040 133.3413830 119.9348150  59.7471030 132.7616280
 120.4838920  59.9636550 134.1557220 122.4475190  75.4127790 134.9600430
 123.3425980  75.7512760 134.9819190 122.4792820  74.6907200 134.3324710
 116.0871350  70.7854840 133.1887430 116.5246220  71.3284510 133.8445010
 116.5719080  69.9601790 133.1983770 113.3017150  73.5743870 140.6407690
 113.6320160  72.7064930 140.4086330 113.7308150  73.7802390 141.4712650
 117.8979070  71.9052880 138.3009660 117.5974610  71.7817850 139.2013570
 117.7916560  71.0461470 137.8925390 113.7907360  74.4414460 143.3789320
 113.3538350  74.6215260 144.2113470 114.3585040  75.1989080 143.2371040
 129.4269540  73.9431460 147.6666630 128.8271530  74.0024020 146.9230550
 129.5563440  73.0036440 147.7963480 130.6670990  71.6849280 133.0036340
 129.8363950  71.7525930 133.4743570 130.8442820  72.5753400 132.7003200
 130.1227450  68.4296760 135.5070540 130.8846360  68.9993410 135.6130230
 130.1381820  67.8623960 136.2778850 113.6231790  66.9534690 139.7378200
 112.9680630  66.6846330 139.0937900 114.4609740  66.8439170 139.2880180
 131.1287420  69.2846860 140.3512470 131.4996250  68.5014180 139.9448440
 131.7689350  69.9735960 140.1729770 128.1121180  70.6683440 145.7642790
 127.2981020  71.0980600 146.0268580 128.5195380  71.2801850 145.1511840
 130.1746620  68.7231130 132.6643060 130.4495460  69.6310010 132.5362280
 129.9857360  68.6593660 133.6005050 126.5722230  61.7475980 133.9596690
 126.9907110  61.5606960 133.1193350 126.2658290  60.8955030 134.2699620
 130.0711960  66.6600120 137.6572490 129.6955560  65.8928050 137.2253780
 129.3415080  67.0422820 138.1447420 114.6607720  67.3387260 144.2781540
 115.0280760  67.2514660 145.1577560 114.0918540  66.5753810 144.1788400
 129.4611580  65.8071640 147.2912010 129.2297670  65.5784390 146.3909960
 129.7216130  66.7271190 147.2456900 114.2123720  64.2496350 148.1839960
 113.3179770  64.2163110 148.5233670 114.7521270  64.4483140 148.9491210
 112.8369870  64.1633620 135.6803530 111.9333950  64.4263820 135.5055190
 113.3210490  64.4344790 134.9003490 129.3462920  64.8857610 140.9579730
 129.8700400  64.3920260 140.3269900 129.9322340  65.0207970 141.7027300
 129.5252640  64.9697480 144.4799280 128.5755350  64.9361020 144.5944270
 129.7065650  65.8797590 144.2449050 115.3797080  63.2199160 133.5897910
 116.0888780  62.7982380 133.1045190 114.6637020  63.2874390 132.9581260
 115.0271240  59.2738490 132.6300560 115.7499370  59.8147430 132.9481780
 115.2995760  59.0001910 131.7542100 128.8362890  64.1430960 136.8972140
 129.3322010  63.9101830 137.6821020 128.6378960  63.3042800 136.4809780
 114.7163430  58.5244680 142.5323180 115.3639620  57.9742060 142.0918340
 115.1365270  58.7787830 143.3538990 130.2650050  62.7791910 139.4309820
 130.1549330  62.6247950 140.3692090 131.0257640  62.2512850 139.1885230
 128.6115770  58.7186040 145.8892820 129.2487990  59.3320180 146.2552010
 128.7590660  58.7546700 144.9442050 131.1540320  60.6099830 132.6715960
 132.0789630  60.4781010 132.4634250 131.1316110  60.6892650 133.6252410
 131.2278810  61.3810490 135.2972670 130.4330310  61.3155610 135.8265580
 131.4322090  62.3161130 135.2858020 128.1697230  75.4202040 139.2911060
 128.7656300  75.0986610 138.6145480 128.4275380  74.9473860 140.0824330
 114.4695430  58.6800350 145.2748500 114.1210250  59.1364170 146.0406680
 114.1383130  57.7857480 145.3570930 119.7765830  73.4079540 145.0411410
 119.5357190  73.6754100 144.1541930 120.7168470  73.5785270 145.0962270
 121.9820250  59.8712230 148.7967920 121.9209140  60.4634060 149.5463330
 122.9220630  59.7638190 148.6518180 124.6194810  59.5282290 148.4360210
 125.2335220  59.8461580 147.7741290 125.1644370  59.0430880 149.0556070
 131.0369990  75.4273920 145.8422050 130.5428270  75.8242790 145.1249180
 130.4283280  74.8023130 146.2359330 115.1416070  58.2076550 148.5499270
 115.6899060  58.0264600 147.7865380 115.2071380  57.4170660 149.0855580
 115.9147830  74.7982200 146.5599470 115.3208150  74.6666900 147.2989510
 115.9071670  73.9620340 146.0941570 125.3602850  58.0914430 144.7629500
 124.4862690  58.4249540 144.5602430 125.2513600  57.6187610 145.5881370
 126.2674830  60.2985300 146.1471220 125.9388190  59.4837060 145.7672950
 127.2157130  60.2555110 146.0236910 128.7209440  76.0697340 143.1208790
 128.2612410  76.8213150 142.7466810 128.0921900  75.3503810 143.0623590
 115.5460060  72.1640580 145.5107510 114.8194120  71.5445870 145.4433460
 115.6069210  72.5581190 144.6405590 119.1505160  74.3785580 142.2956920
 119.6670180  73.7672940 141.7705180 119.8002540  74.8814360 142.7867930
 121.8900660  75.2694070 143.1225900 122.1778470  75.0148370 142.2458910
 122.4023880  74.7171430 143.7131470 123.1077670  59.0084270 143.7022410
 122.3249460  59.4829770 143.9819170 122.8140600  58.1039100 143.5935590
 127.6598740  59.7107370 141.7471500 128.1006830  59.6552470 140.8993100
 127.3906330  60.6265380 141.8181680 129.5237310  59.3422610 139.7580320
 129.4625710  58.3983830 139.6111340 130.3029340  59.4502700 140.3033780
 113.8290060  75.4814970 138.7204270 113.6612100  74.8485650 139.4186160
 112.9624570  75.6874370 138.3698460 114.4518080  59.3131750 136.2236130
 115.2097440  59.4260630 135.6500160 113.9895250  60.1500950 136.1779560
 120.9931890  61.4271020 139.2138440 120.1806400  61.0527910 138.8734320
 121.4973530  60.6716100 139.5159630 125.4956870  58.0913470 140.4521510
 126.0986240  58.6633680 140.9270030 124.7549860  58.6552910 140.2295410
 128.6391470  58.4935030 135.7261790 128.8342100  59.3918480 135.9929220
 127.8521340  58.2622110 136.2194740 115.4352760  74.1748200 136.1654410
 114.9100380  74.5556230 135.4616370 115.3597340  74.7998970 136.8864120
 116.8243230  59.8395800 134.7638100 117.3535990  59.0525600 134.6346050
 117.4571550  60.5186990 134.9973630 119.0181070  59.5770940 137.8183490
 118.3883810  58.8758250 137.9853620 118.4786210  60.3375070 137.6016650
 130.1918080  75.7335740 137.4868350 130.3670270  75.0473480 136.8429270
 129.4939650  76.2582790 137.0945020 118.0345730  76.1230580 135.0403660
 118.7664550  75.8389860 134.4927550 118.2939400  75.8843860 135.9303040
 117.1960520  72.2395310 135.0449990 116.5669400  72.7080410 135.5935820
 117.3108350  71.3944530 135.4796180 124.6510240  66.2900970 121.1951190
 124.5704290  65.3755580 120.9242900 124.2374660  66.7868040 120.4890900
 122.7828280  68.0679990 123.0760460 122.0070380  67.5880430 123.3659030
 123.4341210  67.3885640 122.9016620 116.7994110  68.3799800 123.9536220
 115.9678990  68.1248510 124.3532730 117.4075090  68.4510570 124.6894140
 126.8035710  72.4740180 121.8559590 126.3417240  71.7027420 122.1846760
 127.6161260  72.5006250 122.3612040 116.7795370  72.4139890 124.1494240
 117.0823410  71.5237630 123.9704460 117.5238960  72.9710110 123.9216490
 115.2086060  63.3401690 117.7378610 114.3202760  63.6817660 117.6358490
 115.4927250  63.1402010 116.8459440 113.1719070  65.9407340 123.6218310
 113.7435180  65.1729540 123.6221950 113.1720610  66.2396100 122.7124920
 123.0299020  74.7598190 121.4763580 122.4110460  75.2155690 120.9058020
 123.8850800  74.9149650 121.0753280 122.2237270  70.7437180 123.0830620
 122.1545550  69.8027120 122.9219750 122.9857130  70.8338590 123.6553190
 114.4143940  61.3491700 125.4087240 114.2346780  60.4517450 125.6890000
 114.0124020  61.8963570 126.0834190 123.2542440  63.5507560 123.3099550
 123.6307260  62.6779440 123.1973220 123.1561950  63.8866260 122.4189990
 117.3847450  61.9233190 118.7716990 117.4914200  62.8236920 119.0785750
 116.4739810  61.8751160 118.4811640 127.0366560  61.0458000 120.2427890
 127.8576180  60.5554570 120.2853370 127.0700640  61.6355660 120.9959730
 115.0330610  63.8452200 124.0169580 115.7140720  64.1090570 124.6356980
 114.7178660  63.0053070 124.3507590 119.2255180  64.8919560 123.1042170
 119.7333400  65.3900530 123.7447190 119.7568420  64.1154760 122.9281530
 131.3266110  63.0624750 126.8071520 130.6218280  63.4506460 126.2886630
 131.5924030  63.7575040 127.4092450 117.5091280  59.5318120 127.3705590
 117.5109720  60.0490510 126.5651490 116.6795590  59.0548300 127.3475520
 123.8962370  69.6437430 118.8695490 123.2779640  70.1086880 118.3058210
 124.4085620  70.3364910 119.2865000 118.7594130  69.1713300 125.5479090
 118.4263510  69.7982220 126.1900160 118.9360810  69.6975180 124.7680760
 127.2728040  62.9858380 123.0155430 126.5683610  63.2743270 123.5958540
 127.6340200  63.7958490 122.6554990 117.1906610  61.2428080 125.3776040
 117.5323420  62.0870130 125.0829910 116.2522420  61.3911820 125.4941380
 117.9713230  71.1394100 127.3628270 118.5887230  71.8145180 127.0812720
 117.1106350  71.5482080 127.2715770 113.2645570  70.3293960 116.2435120
 112.8873550  70.8181060 115.5120020 113.5218640  71.0019240 116.8741650
 128.8890820  72.6033510 125.2782910 128.2054340  73.2732620 125.2699580
 129.4285110  72.8014160 124.5127770 130.3414960  62.4313170 123.4064640
 129.3939870  62.4652150 123.5380070 130.6664950  63.2452120 123.7914000
 120.8734500  58.7310350 121.7020630 121.1809480  58.1757240 120.9856130
 119.9435200  58.8654810 121.5193620 126.4249560  74.4477640 123.9928090
 126.4376720  74.0439930 123.1250350 125.8724780  75.2224930 123.8889520
 127.7194980  71.1693860 119.0818260 127.6091310  70.2268190 119.2067680
 127.7163230  71.5309500 119.9681020 125.8235000  69.3507480 125.3210700
 126.2403790  69.1367590 124.4864160 126.5474820  69.6080270 125.8919320
 123.2615260  66.7959180 118.4380750 122.3344540  66.7296560 118.6669220
 123.4140080  67.7339310 118.3235990 123.2484340  63.0676180 115.4347910
 122.3088010  63.2290140 115.5200370 123.5667600  63.7861860 114.8883900
 129.7697100  67.7494700 125.4126940 128.9415730  67.8187790 124.9377070
 130.3647580  68.3349010 124.9442770 127.2912550  68.3579480 118.9416000
 126.6724970  68.0199030 118.2942300 127.2737000  67.7139240 119.6495190
 126.7339110  64.5364020 126.3581810 126.3210290  65.3617730 126.6121800
 126.0015060  63.9509060 126.1658170 118.8671900  67.3223920 121.2200480
 118.4628900  66.6101170 120.7246380 118.9535020  66.9777160 122.1088520
 119.3353600  71.0091480 123.3839690 119.0381890  70.4036950 122.7047470
 120.2853420  71.0468790 123.2729050 117.5800520  64.0967130 124.9999520
 118.1315110  64.2062470 124.2252770 118.0944030  64.4704730 125.7154750
 127.4239210  74.5823350 127.0462790 126.9469770  75.3895540 126.8535400
 126.7401000  73.9301680 127.1989000 118.4272030  70.7473170 130.0347490
 117.5300560  70.9713140 130.2820890 118.4524900  70.8708110 129.0858890
 125.4677250  67.5966290 115.9488750 125.9070530  66.7588720 115.8026570
 126.1805670  68.2295690 116.0352890 117.2543250  67.6186490 128.6104860
 117.1151020  68.4909290 128.9792260 116.3724610  67.2759300 128.4652800
 123.5772630  72.5362360 119.9169990 124.0168540  73.2786690 119.5025380
 123.5159520  72.7788930 120.8408950 119.0523600  73.5608190 130.8190010
 119.0239030  73.9651140 129.9518440 118.8888570  72.6318550 130.6561610
 129.0494390  58.8509100 114.2629790 128.7367050  58.9435930 115.1628860
 129.8106860  59.4290130 114.2127220 115.5676530  66.2168900 118.7207130
 115.4474130  66.9430990 118.1088400 115.2577420  65.4471810 118.2435040
 131.0038420  74.3435290 132.1154180 131.4798140  74.8218180 132.7943260
 131.6245580  74.2752780 131.3899680 114.4509530  71.0884230 120.9381950
 114.0437610  71.2298820 120.0835550 115.3422540  70.8044390 120.7353160
 130.4071670  71.5348140 129.2754190 130.5334730  71.2960020 128.3571370
 130.4493050  70.7032680 129.7476270 124.2688410  75.2376140 127.8449000
 124.7833080  75.1484150 128.6471430 123.4257490  75.5835840 128.1376910
 126.2442810  75.5231480 117.2733000 126.0843950  75.2334420 118.1714830
 126.0789520  74.7471610 116.7378230 118.7231190  75.3030010 119.0504620
 118.5473670  74.3865550 118.8372420 117.8686930  75.6617300 119.2902420
 125.9468940  73.0319040 115.8331000 125.2534100  73.0296330 115.1733280
 126.6891800  72.6078360 115.4025170 125.5118870  74.6581750 119.9079490
 125.9675820  73.8771130 120.2218110 125.8511390  75.3688570 120.4520670
 130.2595680  63.5880600 130.2403930 129.6439950  64.0960270 129.7119390
 129.9392100  62.6878930 130.1829870 118.0340190  59.5603970 122.1030800
 117.5908340  60.3413510 121.7715320 118.5925180  59.8833860 122.8101740
 122.3210000  62.4272490 127.7066120 121.8589370  62.6355510 128.5186060
 121.9188110  61.6131840 127.4036790 127.3214510  63.6481440 128.8362780
 126.4708100  63.3487190 129.1571850 127.1616300  63.8923450 127.9246600
 124.4164220  65.1483190 130.9361570 124.7417630  64.3146940 130.5963800
 125.2044550  65.6711710 131.0839900 121.1499010  59.1814670 116.9836630
 120.5253190  59.1774540 117.7089940 121.0629130  58.3145630 116.5872600
 120.0716090  60.1051300 123.9620400 120.3688420  61.0114130 123.8812420
 120.6201650  59.6170080 123.3479970 117.8254410  64.6837540 119.8312050
 117.5995330  64.4674710 120.7358670 117.0446940  65.1166000 119.4858020
 125.0552170  64.6900910 118.4302700 124.4561060  65.4136710 118.2466320
 125.6031780  64.6277690 117.6479150 120.2653620  65.5823120 130.4972320
 120.1697220  64.6417850 130.3472720 121.1085600  65.8038190 130.1020390
 123.6617040  63.3264450 120.4605980 124.0546610  63.6436650 119.6474670
 124.0233890  62.4476330 120.5750500 115.3964160  61.9936790 128.6506100
 115.0027550  62.8412000 128.8578880 114.7082560  61.3563160 128.8414740
 121.9709210  62.0771760 131.7202840 121.2807530  61.8843960 132.3548930
 122.7141510  62.3606400 132.2527140 112.6981210  59.9165250 122.6836180
 112.4094260  60.4868110 123.3961160 113.4426970  59.4369700 123.0467410
 112.8851440  63.8585370 113.8938900 112.8026110  64.8016130 114.0353890
 112.5334500  63.7160280 113.0151250 124.2472180  65.9170200 124.5556760
 123.5153300  66.4257010 124.9046860 123.8496520  65.1000180 124.2545540
 120.6849570  62.5924400 122.9609250 120.6885630  62.1514350 122.1113790
 121.5800690  62.9141730 123.0681070 116.5351950  62.4750890 121.9203460
 116.1952000  62.9526120 122.6770510 115.7729270  62.0216010 121.5604560
 120.7469720  63.5936480 115.9516010 120.8682540  63.5522960 116.9001830
 120.3618230  64.4560630 115.7962740 124.7098090  61.3703880 123.9679700
 124.7270830  61.8212530 124.8121550 124.4613670  60.4709520 124.1813140
 119.7591220  65.9037620 115.3499310 119.1908120  65.4555870 114.7235220
 120.4680220  66.2630400 114.8164460 128.1368840  58.7836060 129.8066080
 128.4614610  58.0525720 130.3324060 128.1725350  58.4649700 128.9047070
 114.8360400  69.8049640 129.2266040 114.4515190  69.1643310 129.8249000
 115.1472590  70.5085760 129.7960770 120.9857540  66.6526180 124.7074660
 121.3527670  66.1784750 125.4536000 120.7962600  67.5267750 125.0483000
 113.8498030  61.3969870 120.8368130 113.5644950  61.0325540 121.6746750
 113.7876890  60.6650330 120.2231270 118.7756910  65.6934820 127.0258870
 118.4713980  66.5726800 127.2509230 119.7303370  65.7534610 127.0616310
 117.3038700  69.8995810 117.6225720 116.5300960  69.3593430 117.4624440
 118.0333330  69.3802420 117.2843480 128.0626680  68.8961170 123.4152110
 128.7825800  69.3916460 123.0248220 127.8608500  68.2179060 122.7705980
 123.5236620  60.2899130 117.5581500 122.7101230  59.7912300 117.4826810
 123.3298570  61.1297380 117.1417850 123.4445480  68.9670230 129.3021110
 123.3782790  68.0465900 129.0478700 122.8150620  69.0645670 130.0165750
 126.2385010  64.6618780 115.8543660 127.1264630  64.9736010 115.6795000
 126.2090100  63.7891030 115.4624240 117.3476100  69.5676190 121.2604530
 117.8654770  68.7644450 121.2061420 116.8960120  69.5055330 122.1021360
 122.2345600  70.8342470 116.5331830 122.5761300  71.5784700 116.0375150
 121.4058310  71.1473590 116.8956660 114.8320640  66.5337560 128.1730230
 114.4735580  67.1991410 128.7603570 114.5375200  65.7021110 128.5442850
 118.0333760  66.9921800 131.0569780 117.7333900  67.1378980 130.1597600
 118.8045000  66.4327090 130.9643170 123.3762210  71.7890800 129.0524910
 123.3906750  70.8571760 128.8343820 122.6687310  71.8750560 129.6914680
 128.5099280  65.9730620 115.3223520 128.4263000  66.4044840 114.4719960
 129.2293470  66.4328970 115.7550340 129.5873420  68.4298140 128.3993490
 128.8621610  69.0226920 128.2022880 130.1148880  68.4221680 127.6006860
 129.5386530  72.8272880 118.0505650 128.8962690  72.1728500 118.3249370
 129.1517190  73.2327970 117.2746320 125.1173010  70.1558310 121.8977340
 125.4696830  69.5586440 121.2378710 124.2335340  69.8302540 122.0685590
 121.2036290  70.9156000 119.3047750 121.8907420  71.4625210 119.6855340
 120.4168710  71.4596730 119.3397360 113.3428690  66.5328820 114.7964830
 114.2123540  66.8153620 115.0800750 112.8519010  67.3464690 114.6813640
 120.5063500  67.9202030 118.9173110 120.9626280  68.7307280 119.1433300
 120.1551710  67.6025170 119.7491600 122.8096110  73.4308370 126.1465410
 123.4538330  73.6367750 126.8238830 123.1725550  72.6696770 125.6936260
 116.4075280  58.2639680 119.3895630 116.2789910  58.2557580 120.3380550
 115.5837300  58.6022770 119.0386640 124.0828190  71.4340720 124.8642860
 124.7250420  70.7333880 124.9775030 124.6077540  72.2139160 124.6839750
 127.9283910  71.7189340 114.5882000 127.7021490  71.0019780 115.1806640
 127.5380110  71.4701780 113.7503750 125.8565810  72.2335620 128.0678920
 126.1922050  72.8202310 128.7456840 124.9366150  72.1028330 128.2976710
 113.7099940  75.7456200 115.3626460 114.0697580  76.3445540 114.7083730
 113.5692280  76.2916090 116.1361490 113.4069210  60.0230800 128.8502330
 112.6927730  60.2227720 129.4554940 113.8264250  59.2470370 129.2217130
 127.5100160  69.6361280 116.2496160 127.2221860  70.0973970 117.0374040
 128.3052330  69.1759050 116.5180380 113.6941800  74.0111060 129.8368860
 113.8032920  73.0705800 129.6964250 113.0422360  74.2765810 129.1882590
 121.6854390  72.2826950 131.2366980 121.3651260  71.5636190 131.7812670
 121.0112750  72.9582020 131.3103040 119.7268560  73.1287400 116.1800130
 119.7178660  73.8617090 115.5644640 118.8066920  72.8818980 116.2727090
 115.3275200  68.3502290 116.9246890 114.7203150  69.0901190 116.9342190
 115.8024550  68.4401650 116.0985090 124.9007990  62.5153110 126.6003780
 125.2688810  61.6948320 126.9283350 124.0406190  62.5755000 127.0159430
 128.2670020  61.4710050 117.4091340 127.6383180  61.5755720 116.6949570
 127.7721940  61.6906830 118.1985220 122.7128160  73.1915640 114.8425320
 122.8140140  72.9879630 113.9127300 121.8129900  72.9373920 115.0473100
 120.2354050  63.7496000 118.8249220 119.5270200  64.2182340 119.2662830
 120.5198530  63.0918010 119.4594410 121.8609980  65.1692700 126.8241750
 122.3595230  65.6438520 127.4893600 122.0032930  64.2456220 127.0311780
 124.2669480  60.4746660 120.2645010 124.1437260  60.4932790 119.3154520
 125.2154040  60.5225600 120.3843410 121.3546270  75.7101960 119.5372990
 121.6087770  75.6723350 118.6152360 120.4058750  75.5835290 119.5301240
 118.4389070  62.0581080 116.1999930 119.2879600  62.4951230 116.1340120
 118.0720340  62.3701340 117.0271990 129.0676840  61.3860660 127.6670140
 128.5650440  62.1266060 128.0063950 129.8833500  61.7744660 127.3506930
 127.3598850  66.6293840 121.1131500 126.4188990  66.6444070 121.2879190
 127.6742920  65.8429800 121.5591800 117.3380490  68.3113440 114.6735460
 118.1043760  68.1994800 115.2360890 117.4155180  67.6151410 114.0212230
 116.0327250  65.7438510 115.3568350 116.1130840  64.7966020 115.4685750
 116.9247000  66.0745390 115.4629010 129.3624430  73.8002690 122.7885760
 129.4871850  74.6233860 123.2609570 130.2289990  73.5893420 122.4409910
 116.8341960  75.8933900 122.4602890 117.5704440  75.3449360 122.7311460
 117.2182880  76.7589910 122.3208880 113.7187440  71.9607470 118.3344400
 112.7927220  72.2028610 118.3249810 114.1843870  72.7881730 118.2129150
 115.8400240  75.0779970 131.6488470 116.6412970  75.3992020 132.0623870
 115.3252060  74.7175550 132.3708380 119.9444270  75.0664210 114.2828460
 120.7372880  75.3553040 113.8310250 119.4248620  74.6356380 113.6040940
 124.6764870  71.1859840 131.5963880 124.0703030  71.2091440 130.8559630
 124.3718980  70.4542880 132.1331130 126.1065240  74.9140130 130.2073290
 127.0586990  74.8298150 130.1573530 125.9593460  75.5781840 130.8807080
 128.9974440  74.2934340 115.7065200 128.7115950  73.8799480 114.8919380
 128.7993990  75.2222050 115.5865720 113.5598050  67.5653430 130.5924520
 114.0637070  66.9860710 131.1640750 112.8205470  67.8493660 131.1300890
 120.4621670  70.2867620 114.1470810 120.3572310  69.6719970 114.8732190
 120.2945890  69.7633510 113.3633820 120.6135990  68.9724420 130.1260040
 119.8481660  69.5409420 130.0414710 120.7951950  68.6800630 129.2328270
 123.7024400  69.3487650 114.7512800 123.1534500  69.7956950 115.3955540
 124.3243660  68.8436900 115.2750470 127.7559340  70.7029750 130.6835060
 128.4968810  71.0405510 130.1802520 126.9932020  70.8721810 130.1304830
 115.5921130  65.7083020 131.4874590 115.6326470  65.4096890 132.3959820
 116.4466630  66.1090630 131.3282110 119.3699520  68.3078570 116.6478100
 119.7915940  68.1418440 117.4909490 119.4950360  67.4978800 116.1533240
 117.5326940  64.2875120 129.4549080 117.0023400  63.7966070 128.8272420
 118.2015010  64.7159320 128.9207010 121.8827160  67.3316180 113.8955200
 122.4032820  66.6165200 113.5296350 122.5295560  67.9702050 114.1955710
 126.4305000  68.7544580 129.2190270 126.8446020  68.9089660 130.0680690
 125.4956000  68.8799800 129.3816050 126.9027170  66.0940740 131.2229420
 127.4847940  65.3393060 131.1349900 127.0788940  66.6248180 130.4460900
 118.0199240  61.2537490 129.5346370 117.9256110  60.6358240 128.8097240
 117.4396630  61.9803780 129.3076280 120.7860680  59.8110730 126.5673760
 120.3377980  59.8334990 125.7219310 120.1525880  59.4129750 127.1644060
 121.1920230  68.7065060 127.1886200 121.6108340  69.5497790 127.0162440
 120.2728860  68.8437100 126.9592980 123.5284130  66.4381240 128.5724040
 123.6480340  65.8422380 129.3118880 124.3878130  66.4750930 128.1525340
 125.8672030  66.9918430 127.1486550 125.3407250  67.5161050 126.5451690
 126.2103370  67.6245820 127.7796280 118.2658420  64.3811800 113.5936260
 118.0647480  63.5179160 113.9549600 118.0950470  64.2945160 112.6557860
 119.0427650  75.0118070 128.3043930 118.5048740  75.7364130 127.9852630
 119.2961610  74.5348410 127.5141270 120.2952900  62.9802590 129.8299860
 120.8852590  62.6718440 130.5177680 119.4773140  62.5082340 129.9859760
 125.1146330  62.5968400 130.0632880 124.4261850  61.9349940 129.9982870
 125.8352350  62.1506670 130.5081340 125.7446730  59.1920030 116.1223140
 126.0249020  58.3487930 116.4782560 124.9712460  59.4243140 116.6361890
 117.0641220  61.4812420 113.5814140 117.3667120  61.4879850 112.6733290
 117.8035810  61.1310280 114.0781800 121.8989860  76.2469280 128.5630580
 121.8248560  77.1504420 128.8702950 120.9968700  75.9281180 128.5352650
 120.2826150  60.4247040 114.5670340 119.9348150  59.7471030 113.9872790
 120.4838920  59.9636550 115.3813730 122.4475190  75.4127790 116.1856940
 123.3425980  75.7512760 116.2075700 122.4792820  74.6907200 115.5581220
 116.0871350  70.7854840 114.4143940 116.5246220  71.3284510 115.0701520
 116.5719080  69.9601790 114.4240280 113.3017150  73.5743870 121.8664200
 113.6320160  72.7064930 121.6342840 113.7308150  73.7802390 122.6969160
 117.8979070  71.9052880 119.5266170 117.5974610  71.7817850 120.4270080
 117.7916560  71.0461470 119.1181900 113.7907360  74.4414460 124.6045830
 113.3538350  74.6215260 125.4369980 114.3585040  75.1989080 124.4627550
 129.4269540  73.9431460 128.8923140 128.8271530  74.0024020 128.1487060
 129.5563440  73.0036440 129.0219990 130.6670990  71.6849280 114.2292850
 129.8363950  71.7525930 114.7000080 130.8442820  72.5753400 113.9259710
 130.1227450  68.4296760 116.7327050 130.8846360  68.9993410 116.8386740
 130.1381820  67.8623960 117.5035360 113.6231790  66.9534690 120.9634710
 112.9680630  66.6846330 120.3194410 114.4609740  66.8439170 120.5136690
 131.1287420  69.2846860 121.5768980 131.4996250  68.5014180 121.1704950
 131.7689350  69.9735960 121.3986280 128.1121180  70.6683440 126.9899300
 127.2981020  71.0980600 127.2525090 128.5195380  71.2801850 126.3768350
 130.1746620  68.7231130 113.8899570 130.4495460  69.6310010 113.7618790
 129.9857360  68.6593660 114.8261560 126.5722230  61.7475980 115.1853200
 126.9907110  61.5606960 114.3449860 126.2658290  60.8955030 115.4956130
 130.0711960  66.6600120 118.8829000 129.6955560  65.8928050 118.4510290
 129.3415080  67.0422820 119.3703930 114.6607720  67.3387260 125.5038050
 115.0280760  67.2514660 126.3834070 114.0918540  66.5753810 125.4044910
 129.4611580  65.8071640 128.5168520 129.2297670  65.5784390 127.6166470
 129.7216130  66.7271190 128.4713410 114.2123720  64.2496350 129.4096470
 113.3179770  64.2163110 129.7490180 114.7521270  64.4483140 130.1747720
 127.8999650  61.0328070 131.2948220 128.7769830  61.0411470 131.6782220
 127.9120490  60.2958910 130.6840570 112.8369870  64.1633620 116.9060040
 111.9333950  64.4263820 116.7311700 113.3210490  64.4344790 116.1260000
 129.3462920  64.8857610 122.1836240 129.8700400  64.3920260 121.5526410
 129.9322340  65.0207970 122.9283810 129.5252640  64.9697480 125.7055790
 128.5755350  64.9361020 125.8200780 129.7065650  65.8797590 125.4705560
 115.3797080  63.2199160 114.8154420 116.0888780  62.7982380 114.3301700
 114.6637020  63.2874390 114.1837770 115.0271240  59.2738490 113.8557070
 115.7499370  59.8147430 114.1738290 115.2995760  59.0001910 112.9798610
 128.8362890  64.1430960 118.1228650 129.3322010  63.9101830 118.9077530
 128.6378960  63.3042800 117.7066290 114.7163430  58.5244680 123.7579690
 115.3639620  57.9742060 123.3174850 115.1365270  58.7787830 124.5795500
 130.2650050  62.7791910 120.6566330 130.1549330  62.6247950 121.5948600
 131.0257640  62.2512850 120.4141740 128.6115770  58.7186040 127.1149330
 129.2487990  59.3320180 127.4808520 128.7590660  58.7546700 126.1698560
 131.1540320  60.6099830 113.8972470 132.0789630  60.4781010 113.6890760
 131.1316110  60.6892650 114.8508920 131.2278810  61.3810490 116.5229180
 130.4330310  61.3155610 117.0522090 131.4322090  62.3161130 116.5114530
 128.1697230  75.4202040 120.5167570 128.7656300  75.0986610 119.8401990
 128.4275380  74.9473860 121.3080840 114.4695430  58.6800350 126.5005010
 114.1210250  59.1364170 127.2663190 114.1383130  57.7857480 126.5827440
 116.0759800  71.8519950 130.6658200 116.0329430  71.4812860 131.5472660
 116.2070810  72.7897520 130.8060020 119.7765830  73.4079540 126.2667920
 119.5357190  73.6754100 125.3798440 120.7168470  73.5785270 126.3218780
 121.9820250  59.8712230 130.0224430 121.9209140  60.4634060 130.7719840
 122.9220630  59.7638190 129.8774690 124.6194810  59.5282290 129.6616720
 125.2335220  59.8461580 128.9997800 125.1644370  59.0430880 130.2812580
 131.0369990  75.4273920 127.0678560 130.5428270  75.8242790 126.3505690
 130.4283280  74.8023130 127.4615840 115.1416070  58.2076550 129.7755780
 115.6899060  58.0264600 129.0121890 115.2071380  57.4170660 130.3112090
 115.9147830  74.7982200 127.7855980 115.3208150  74.6666900 128.5246020
 115.9071670  73.9620340 127.3198080 125.3602850  58.0914430 125.9886010
 124.4862690  58.4249540 125.7858940 125.2513600  57.6187610 126.8137880
 126.2674830  60.2985300 127.3727730 125.9388190  59.4837060 126.9929460
 127.2157130  60.2555110 127.2493420 128.7209440  76.0697340 124.3465300
 128.2612410  76.8213150 123.9723320 128.0921900  75.3503810 124.2880100
 115.5460060  72.1640580 126.7364020 114.8194120  71.5445870 126.6689970
 115.6069210  72.5581190 125.8662100 119.1505160  74.3785580 123.5213430
 119.6670180  73.7672940 122.9961690 119.8002540  74.8814360 124.0124440
 121.8900660  75.2694070 124.3482410 122.1778470  75.0148370 123.4715420
 122.4023880  74.7171430 124.9387980 123.1077670  59.0084270 124.9278920
 122.3249460  59.4829770 125.2075680 122.8140600  58.1039100 124.8192100
 127.6598740  59.7107370 122.9728010 128.1006830  59.6552470 122.1249610
 127.3906330  60.6265380 123.0438190 129.5237310  59.3422610 120.9836830
 129.4625710  58.3983830 120.8367850 130.3029340  59.4502700 121.5290290
 113.8290060  75.4814970 119.9460780 113.6612100  74.8485650 120.6442670
 112.9624570  75.6874370 119.5954970 114.4518080  59.3131750 117.4492640
 115.2097440  59.4260630 116.8756670 113.9895250  60.1500950 117.4036070
 120.9931890  61.4271020 120.4394950 120.1806400  61.0527910 120.0990830
 121.4973530  60.6716100 120.7416140 125.4956870  58.0913470 121.6778020
 126.0986240  58.6633680 122.1526540 124.7549860  58.6552910 121.4551920
 128.6391470  58.4935030 116.9518300 128.8342100  59.3918480 117.2185730
 127.8521340  58.2622110 117.4451250 115.4352760  74.1748200 117.3910920
 114.9100380  74.5556230 116.6872880 115.3597340  74.7998970 118.1120630
 116.8243230  59.8395800 115.9894610 117.3535990  59.0525600 115.8602560
 117.4571550  60.5186990 116.2230140 119.0181070  59.5770940 119.0440000
 118.3883810  58.8758250 119.2110130 118.4786210  60.3375070 118.8273160
 121.9573020  76.1910170 131.7150610 122.8840330  75.9554440 131.7586570
 121.9423450  77.0182170 131.2336640 130.1918080  75.7335740 118.7124860
 130.3670270  75.0473480 118.0685780 129.4939650  76.2582790 118.3201530
 119.1436630  58.8554920 131.4792490 118.8620900  59.3588520 130.7153310
 119.5256330  58.0576670 131.1134620 118.0345730  76.1230580 116.2660170
 118.7664550  75.8389860 115.7184060 118.2939400  75.8843860 117.1559550
 117.1960520  72.2395310 116.2706500 116.5669400  72.7080410 116.8192330
 117.3108350  71.3944530 116.7052690 125.7452090  58.2708500 132.0572960
 125.6317540  58.5903110 132.9524480 126.5621830  58.6721010 131.7610240
 128.5250580  75.4180030 131.5391650 129.3175900  74.9229260 131.3317610
 128.8183730  76.0970170 132.1467260 122.7828280  68.0679990 104.3016970
 122.0070380  67.5880430 104.5915540 123.4341210  67.3885640 104.1273130
 116.7994110  68.3799800 105.1792730 115.9678990  68.1248510 105.5789240
 117.4075090  68.4510570 105.9150650 126.8035710  72.4740180 103.0816100
 126.3417240  71.7027420 103.4103270 127.6161260  72.5006250 103.5868550
 116.7795370  72.4139890 105.3750750 117.0823410  71.5237630 105.1960970
 117.5238960  72.9710110 105.1473000 113.1719070  65.9407340 104.8474820
 113.7435180  65.1729540 104.8478460 113.1720610  66.2396100 103.9381430
 123.0299020  74.7598190 102.7020090 122.4110460  75.2155690 102.1314530
 123.8850800  74.9149650 102.3009790 122.2237270  70.7437180 104.3087130
 122.1545550  69.8027120 104.1476260 122.9857130  70.8338590 104.8809700
 127.0366560  61.0458000 101.4684400 127.8576180  60.5554570 101.5109880
 127.0700640  61.6355660 102.2216240 115.0330610  63.8452200 105.2426090
 115.7140720  64.1090570 105.8613490 114.7178660  63.0053070 105.5764100
 131.3266110  63.0624750 108.0328030 130.6218280  63.4506460 107.5143140
 131.5924030  63.7575040 108.6348960 123.8962370  69.6437430 100.0952000
 123.2779640  70.1086880  99.5314720 124.4085620  70.3364910 100.5121510
 118.7594130  69.1713300 106.7735600 118.4263510  69.7982220 107.4156670
 118.9360810  69.6975180 105.9937270 127.2728040  62.9858380 104.2411940
 126.5683610  63.2743270 104.8215050 127.6340200  63.7958490 103.8811500
 117.1906610  61.2428080 106.6032550 117.5323420  62.0870130 106.3086420
 116.2522420  61.3911820 106.7197890 117.9713230  71.1394100 108.5884780
 118.5887230  71.8145180 108.3069230 117.1106350  71.5482080 108.4972280
 128.8890820  72.6033510 106.5039420 128.2054340  73.2732620 106.4956090
 129.4285110  72.8014160 105.7384280 130.3414960  62.4313170 104.6321150
 129.3939870  62.4652150 104.7636580 130.6664950  63.2452120 105.0170510
 120.8734500  58.7310350 102.9277140 121.1809480  58.1757240 102.2112640
 119.9435200  58.8654810 102.7450130 126.4249560  74.4477640 105.2184600
 126.4376720  74.0439930 104.3506860 125.8724780  75.2224930 105.1146030
 127.7194980  71.1693860 100.3074770 127.6091310  70.2268190 100.4324190
 127.7163230  71.5309500 101.1937530 123.2484340  63.0676180  96.6604420
 122.3088010  63.2290140  96.7456880 123.5667600  63.7861860  96.1140410
 129.7697100  67.7494700 106.6383450 128.9415730  67.8187790 106.1633580
 130.3647580  68.3349010 106.1699280 127.2912550  68.3579480 100.1672510
 126.6724970  68.0199030  99.5198810 127.2737000  67.7139240 100.8751700
 126.7339110  64.5364020 107.5838320 126.3210290  65.3617730 107.8378310
 126.0015060  63.9509060 107.3914680 119.3353600  71.0091480 104.6096200
 119.0381890  70.4036950 103.9303980 120.2853420  71.0468790 104.4985560
 117.5800520  64.0967130 106.2256030 118.1315110  64.2062470 105.4509280
 118.0944030  64.4704730 106.9411260 127.4239210  74.5823350 108.2719300
 126.9469770  75.3895540 108.0791910 126.7401000  73.9301680 108.4245510
 118.4272030  70.7473170 111.2604000 117.5300560  70.9713140 111.5077400
 118.4524900  70.8708110 110.3115400 125.4677250  67.5966290  97.1745260
 125.9070530  66.7588720  97.0283080 126.1805670  68.2295690  97.2609400
 117.2543250  67.6186490 109.8361370 117.1151020  68.4909290 110.2048770
 116.3724610  67.2759300 109.6909310 123.5772630  72.5362360 101.1426500
 124.0168540  73.2786690 100.7281890 123.5159520  72.7788930 102.0665460
 119.0523600  73.5608190 112.0446520 119.0239030  73.9651140 111.1774950
 118.8888570  72.6318550 111.8818120 129.0494390  58.8509100  95.4886300
 128.7367050  58.9435930  96.3885370 129.8106860  59.4290130  95.4383730
 131.0038420  74.3435290 113.3410690 131.4798140  74.8218180 114.0199770
 131.6245580  74.2752780 112.6156190 113.2061900  69.3884040 105.7532280
 113.2842320  69.5232810 104.8088000 113.8203580  68.6799930 105.9460400
 130.4071670  71.5348140 110.5010700 130.5334730  71.2960020 109.5827880
 130.4493050  70.7032680 110.9732780 124.2688410  75.2376140 109.0705510
 124.7833080  75.1484150 109.8727940 123.4257490  75.5835840 109.3633420
 126.2442810  75.5231480  98.4989510 126.0843950  75.2334420  99.3971340
 126.0789520  74.7471610  97.9634740 118.7231190  75.3030010 100.2761130
 118.5473670  74.3865550 100.0628930 117.8686930  75.6617300 100.5158930
 125.9468940  73.0319040  97.0587510 125.2534100  73.0296330  96.3989790
 126.6891800  72.6078360  96.6281680 125.5118870  74.6581750 101.1336000
 125.9675820  73.8771130 101.4474620 125.8511390  75.3688570 101.6777180
 130.2595680  63.5880600 111.4660440 129.6439950  64.0960270 110.9375900
 129.9392100  62.6878930 111.4086380 113.2621420  70.4298210 108.2926740
 113.4252460  69.9603570 107.4746110 113.7273870  69.9221770 108.9575580
 118.0340190  59.5603970 103.3287310 117.5908340  60.3413510 102.9971830
 118.5925180  59.8833860 104.0358250 122.3210000  62.4272490 108.9322630
 121.8589370  62.6355510 109.7442570 121.9188110  61.6131840 108.6293300
 127.3214510  63.6481440 110.0619290 126.4708100  63.3487190 110.3828360
 127.1616300  63.8923450 109.1503110 121.1499010  59.1814670  98.2093140
 120.5253190  59.1774540  98.9346450 121.0629130  58.3145630  97.8129110
 120.0716090  60.1051300 105.1876910 120.3688420  61.0114130 105.1068930
 120.6201650  59.6170080 104.5736480 125.0552170  64.6900910  99.6559210
 124.4561060  65.4136710  99.4722830 125.6031780  64.6277690  98.8735660
 115.3964160  61.9936790 109.8762610 115.0027550  62.8412000 110.0835390
 114.7082560  61.3563160 110.0671250 121.9709210  62.0771760 112.9459350
 121.2807530  61.8843960 113.5805440 122.7141510  62.3606400 113.4783650
 124.2472180  65.9170200 105.7813270 123.5153300  66.4257010 106.1303370
 123.8496520  65.1000180 105.4802050 120.7469720  63.5936480  97.1772520
 120.8682540  63.5522960  98.1258340 120.3618230  64.4560630  97.0219250
 124.7098090  61.3703880 105.1936210 124.7270830  61.8212530 106.0378060
 124.4613670  60.4709520 105.4069650 119.7591220  65.9037620  96.5755820
 119.1908120  65.4555870  95.9491730 120.4680220  66.2630400  96.0420970
 128.1368840  58.7836060 111.0322590 128.4614610  58.0525720 111.5580570
 128.1725350  58.4649700 110.1303580 114.8360400  69.8049640 110.4522550
 114.4515190  69.1643310 111.0505510 115.1472590  70.5085760 111.0217280
 120.9857540  66.6526180 105.9331170 121.3527670  66.1784750 106.6792510
 120.7962600  67.5267750 106.2739510 128.0626680  68.8961170 104.6408620
 128.7825800  69.3916460 104.2504730 127.8608500  68.2179060 103.9962490
 123.5236620  60.2899130  98.7838010 122.7101230  59.7912300  98.7083320
 123.3298570  61.1297380  98.3674360 126.2385010  64.6618780  97.0800170
 127.1264630  64.9736010  96.9051510 126.2090100  63.7891030  96.6880750
 122.2345600  70.8342470  97.7588340 122.5761300  71.5784700  97.2631660
 121.4058310  71.1473590  98.1213170 114.8320640  66.5337560 109.3986740
 114.4735580  67.1991410 109.9860080 114.5375200  65.7021110 109.7699360
 118.0333760  66.9921800 112.2826290 117.7333900  67.1378980 111.3854110
 118.8045000  66.4327090 112.1899680 128.5099280  65.9730620  96.5480030
 128.4263000  66.4044840  95.6976470 129.2293470  66.4328970  96.9806850
 129.5873420  68.4298140 109.6250000 128.8621610  69.0226920 109.4279390
 130.1148880  68.4221680 108.8263370 129.5386530  72.8272880  99.2762160
 128.8962690  72.1728500  99.5505880 129.1517190  73.2327970  98.5002830
 125.1173010  70.1558310 103.1233850 125.4696830  69.5586440 102.4635220
 124.2335340  69.8302540 103.2942100 121.2036290  70.9156000 100.5304260
 121.8907420  71.4625210 100.9111850 120.4168710  71.4596730 100.5653870
 122.8096110  73.4308370 107.3721920 123.4538330  73.6367750 108.0495340
 123.1725550  72.6696770 106.9192770 116.4075280  58.2639680 100.6152140
 116.2789910  58.2557580 101.5637060 115.5837300  58.6022770 100.2643150
 124.0828190  71.4340720 106.0899370 124.7250420  70.7333880 106.2031540
 124.6077540  72.2139160 105.9096260 125.8565810  72.2335620 109.2935430
 126.1922050  72.8202310 109.9713350 124.9366150  72.1028330 109.5233220
 113.7099940  75.7456200  96.5882970 114.0697580  76.3445540  95.9340240
 113.5692280  76.2916090  97.3618000 127.5100160  69.6361280  97.4752670
 127.2221860  70.0973970  98.2630550 128.3052330  69.1759050  97.7436890
 121.6854390  72.2826950 112.4623490 121.3651260  71.5636190 113.0069180
 121.0112750  72.9582020 112.5359550 124.9007990  62.5153110 107.8260290
 125.2688810  61.6948320 108.1539860 124.0406190  62.5755000 108.2415940
 128.2670020  61.4710050  98.6347850 127.6383180  61.5755720  97.9206080
 127.7721940  61.6906830  99.4241730 124.2669480  60.4746660 101.4901520
 124.1437260  60.4932790 100.5411030 125.2154040  60.5225600 101.6099920
 121.3546270  75.7101960 100.7629500 121.6087770  75.6723350  99.8408870
 120.4058750  75.5835290 100.7557750 118.4389070  62.0581080  97.4256440
 119.2879600  62.4951230  97.3596630 118.0720340  62.3701340  98.2528500
 129.0676840  61.3860660 108.8926650 128.5650440  62.1266060 109.2320460
 129.8833500  61.7744660 108.5763440 127.3598850  66.6293840 102.3388010
 126.4188990  66.6444070 102.5135700 127.6742920  65.8429800 102.7848310
 129.3624430  73.8002690 104.0142270 129.4871850  74.6233860 104.4866080
 130.2289990  73.5893420 103.6666420 116.8341960  75.8933900 103.6859400
 117.5704440  75.3449360 103.9567970 117.2182880  76.7589910 103.5465390
 115.8400240  75.0779970 112.8744980 116.6412970  75.3992020 113.2880380
 115.3252060  74.7175550 113.5964890 119.9444270  75.0664210  95.5084970
 120.7372880  75.3553040  95.0566760 119.4248620  74.6356380  94.8297450
 124.6764870  71.1859840 112.8220390 124.0703030  71.2091440 112.0816140
 124.3718980  70.4542880 113.3587640 126.1065240  74.9140130 111.4329800
 127.0586990  74.8298150 111.3830040 125.9593460  75.5781840 112.1063590
 128.9974440  74.2934340  96.9321710 128.7115950  73.8799480  96.1175890
 128.7993990  75.2222050  96.8122230 113.5598050  67.5653430 111.8181030
 114.0637070  66.9860710 112.3897260 112.8205470  67.8493660 112.3557400
 123.7024400  69.3487650  95.9769310 123.1534500  69.7956950  96.6212050
 124.3243660  68.8436900  96.5006980 127.7559340  70.7029750 111.9091570
 128.4968810  71.0405510 111.4059030 126.9932020  70.8721810 111.3561340
 115.5921130  65.7083020 112.7131100 115.6326470  65.4096890 113.6216330
 116.4466630  66.1090630 112.5538620 117.5326940  64.2875120 110.6805590
 117.0023400  63.7966070 110.0528930 118.2015010  64.7159320 110.1463520
 121.8827160  67.3316180  95.1211710 122.4032820  66.6165200  94.7552860
 122.5295560  67.9702050  95.4212220 126.4305000  68.7544580 110.4446780
 126.8446020  68.9089660 111.2937200 125.4956000  68.8799800 110.6072560
 126.9027170  66.0940740 112.4485930 127.4847940  65.3393060 112.3606410
 127.0788940  66.6248180 111.6717410 118.0199240  61.2537490 110.7602880
 117.9256110  60.6358240 110.0353750 117.4396630  61.9803780 110.5332790
 120.7860680  59.8110730 107.7930270 120.3377980  59.8334990 106.9475820
 120.1525880  59.4129750 108.3900570 118.2658420  64.3811800  94.8192770
 118.0647480  63.5179160  95.1806110 118.0950470  64.2945160  93.8814370
 120.2952900  62.9802590 111.0556370 120.8852590  62.6718440 111.7434190
 119.4773140  62.5082340 111.2116270 125.1146330  62.5968400 111.2889390
 124.4261850  61.9349940 111.2239380 125.8352350  62.1506670 111.7337850
 125.7446730  59.1920030  97.3479650 126.0249020  58.3487930  97.7039070
 124.9712460  59.4243140  97.8618400 117.0641220  61.4812420  94.8070650
 117.3667120  61.4879850  93.8989800 117.8035810  61.1310280  95.3038310
 121.8989860  76.2469280 109.7887090 121.8248560  77.1504420 110.0959460
 120.9968700  75.9281180 109.7609160 120.2826150  60.4247040  95.7926850
 119.9348150  59.7471030  95.2129300 120.4838920  59.9636550  96.6070240
 122.4475190  75.4127790  97.4113450 123.3425980  75.7512760  97.4332210
 122.4792820  74.6907200  96.7837730 129.4269540  73.9431460 110.1179650
 128.8271530  74.0024020 109.3743570 129.5563440  73.0036440 110.2476500
 130.6670990  71.6849280  95.4549360 129.8363950  71.7525930  95.9256590
 130.8442820  72.5753400  95.1516220 130.1227450  68.4296760  97.9583560
 130.8846360  68.9993410  98.0643250 130.1381820  67.8623960  98.7291870
 131.1287420  69.2846860 102.8025490 131.4996250  68.5014180 102.3961460
 131.7689350  69.9735960 102.6242790 128.1121180  70.6683440 108.2155810
 127.2981020  71.0980600 108.4781600 128.5195380  71.2801850 107.6024860
 130.1746620  68.7231130  95.1156080 130.4495460  69.6310010  94.9875300
 129.9857360  68.6593660  96.0518070 126.5722230  61.7475980  96.4109710
 126.9907110  61.5606960  95.5706370 126.2658290  60.8955030  96.7212640
 130.0711960  66.6600120 100.1085510 129.6955560  65.8928050  99.6766800
 129.3415080  67.0422820 100.5960440 114.6607720  67.3387260 106.7294560
 115.0280760  67.2514660 107.6090580 114.0918540  66.5753810 106.6301420
 129.4611580  65.8071640 109.7425030 129.2297670  65.5784390 108.8422980
 129.7216130  66.7271190 109.6969920 114.2123720  64.2496350 110.6352980
 113.3179770  64.2163110 110.9746690 114.7521270  64.4483140 111.4004230
 127.8999650  61.0328070 112.5204730 128.7769830  61.0411470 112.9038730
 127.9120490  60.2958910 111.9097080 129.3462920  64.8857610 103.4092750
 129.8700400  64.3920260 102.7782920 129.9322340  65.0207970 104.1540320
 129.5252640  64.9697480 106.9312300 128.5755350  64.9361020 107.0457290
 129.7065650  65.8797590 106.6962070 115.0271240  59.2738490  95.0813580
 115.7499370  59.8147430  95.3994800 115.2995760  59.0001910  94.2055120
 128.8362890  64.1430960  99.3485160 129.3322010  63.9101830 100.1334040
 128.6378960  63.3042800  98.9322800 130.2650050  62.7791910 101.8822840
 130.1549330  62.6247950 102.8205110 131.0257640  62.2512850 101.6398250
 128.6115770  58.7186040 108.3405840 129.2487990  59.3320180 108.7065030
 128.7590660  58.7546700 107.3955070 131.1540320  60.6099830  95.1228980
 132.0789630  60.4781010  94.9147270 131.1316110  60.6892650  96.0765430
 131.2278810  61.3810490  97.7485690 130.4330310  61.3155610  98.2778600
 131.4322090  62.3161130  97.7371040 128.1697230  75.4202040 101.7424080
 128.7656300  75.0986610 101.0658500 128.4275380  74.9473860 102.5337350
 116.0759800  71.8519950 111.8914710 116.0329430  71.4812860 112.7729170
 116.2070810  72.7897520 112.0316530 119.7765830  73.4079540 107.4924430
 119.5357190  73.6754100 106.6054950 120.7168470  73.5785270 107.5475290
 121.9820250  59.8712230 111.2480940 121.9209140  60.4634060 111.9976350
 122.9220630  59.7638190 111.1031200 124.6194810  59.5282290 110.8873230
 125.2335220  59.8461580 110.2254310 125.1644370  59.0430880 111.5069090
 131.0369990  75.4273920 108.2935070 130.5428270  75.8242790 107.5762200
 130.4283280  74.8023130 108.6872350 125.3602850  58.0914430 107.2142520
 124.4862690  58.4249540 107.0115450 125.2513600  57.6187610 108.0394390
 126.2674830  60.2985300 108.5984240 125.9388190  59.4837060 108.2185970
 127.2157130  60.2555110 108.4749930 128.7209440  76.0697340 105.5721810
 128.2612410  76.8213150 105.1979830 128.0921900  75.3503810 105.5136610
 119.1505160  74.3785580 104.7469940 119.6670180  73.7672940 104.2218200
 119.8002540  74.8814360 105.2380950 121.8900660  75.2694070 105.5738920
 122.1778470  75.0148370 104.6971930 122.4023880  74.7171430 106.1644490
 123.1077670  59.0084270 106.1535430 122.3249460  59.4829770 106.4332190
 122.8140600  58.1039100 106.0448610 127.6598740  59.7107370 104.1984520
 128.1006830  59.6552470 103.3506120 127.3906330  60.6265380 104.2694700
 129.5237310  59.3422610 102.2093340 129.4625710  58.3983830 102.0624360
 130.3029340  59.4502700 102.7546800 113.8290060  75.4814970 101.1717290
 113.6612100  74.8485650 101.8699180 112.9624570  75.6874370 100.8211480
 125.4956870  58.0913470 102.9034530 126.0986240  58.6633680 103.3783050
 124.7549860  58.6552910 102.6808430 128.6391470  58.4935030  98.1774810
 128.8342100  59.3918480  98.4442240 127.8521340  58.2622110  98.6707760
 119.0181070  59.5770940 100.2696510 118.3883810  58.8758250 100.4366640
 118.4786210  60.3375070 100.0529670 121.9573020  76.1910170 112.9407120
 122.8840330  75.9554440 112.9843080 121.9423450  77.0182170 112.4593150
 130.1918080  75.7335740  99.9381370 130.3670270  75.0473480  99.2942290
 129.4939650  76.2582790  99.5458040 119.1436630  58.8554920 112.7049000
 118.8620900  59.3588520 111.9409820 119.5256330  58.0576670 112.3391130
 118.0345730  76.1230580  97.4916680 118.7664550  75.8389860  96.9440570
 118.2939400  75.8843860  98.3816060 125.7452090  58.2708500 113.2829470
 125.6317540  58.5903110 114.1780990 126.5621830  58.6721010 112.9866750
 128.5250580  75.4180030 112.7648160 129.3175900  74.9229260 112.5574120
 128.8183730  76.0970170 113.3723770 124.6510240  66.2900970  83.6464210
 124.5704290  65.3755580  83.3755920 124.2374660  66.7868040  82.9403920
 126.8035710  72.4740180  84.3072610 126.3417240  71.7027420  84.6359780
 127.6161260  72.5006250  84.8125060 115.2086060  63.3401690  80.1891630
 114.3202760  63.6817660  80.0871510 115.4927250  63.1402010  79.2972460
 113.1719070  65.9407340  86.0731330 113.7435180  65.1729540  86.0734970
 113.1720610  66.2396100  85.1637940 123.0299020  74.7598190  83.9276600
 122.4110460  75.2155690  83.3571040 123.8850800  74.9149650  83.5266300
 114.4143940  61.3491700  87.8600260 114.2346780  60.4517450  88.1403020
 114.0124020  61.8963570  88.5347210 123.2542440  63.5507560  85.7612570
 123.6307260  62.6779440  85.6486240 123.1561950  63.8866260  84.8703010
 127.0366560  61.0458000  82.6940910 127.8576180  60.5554570  82.7366390
 127.0700640  61.6355660  83.4472750 115.0330610  63.8452200  86.4682600
 115.7140720  64.1090570  87.0870000 114.7178660  63.0053070  86.8020610
 119.2255180  64.8919560  85.5555190 119.7333400  65.3900530  86.1960210
 119.7568420  64.1154760  85.3794550 123.8962370  69.6437430  81.3208510
 123.2779640  70.1086880  80.7571230 124.4085620  70.3364910  81.7378020
 117.9713230  71.1394100  89.8141290 118.5887230  71.8145180  89.5325740
 117.1106350  71.5482080  89.7228790 128.8890820  72.6033510  87.7295930
 128.2054340  73.2732620  87.7212600 129.4285110  72.8014160  86.9640790
 120.8734500  58.7310350  84.1533650 121.1809480  58.1757240  83.4369150
 119.9435200  58.8654810  83.9706640 126.4249560  74.4477640  86.4441110
 126.4376720  74.0439930  85.5763370 125.8724780  75.2224930  86.3402540
 127.7194980  71.1693860  81.5331280 127.6091310  70.2268190  81.6580700
 127.7163230  71.5309500  82.4194040 123.2615260  66.7959180  80.8893770
 122.3344540  66.7296560  81.1182240 123.4140080  67.7339310  80.7749010
 127.2912550  68.3579480  81.3929020 126.6724970  68.0199030  80.7455320
 127.2737000  67.7139240  82.1008210 117.5800520  64.0967130  87.4512540
 118.1315110  64.2062470  86.6765790 118.0944030  64.4704730  88.1667770
 127.4239210  74.5823350  89.4975810 126.9469770  75.3895540  89.3048420
 126.7401000  73.9301680  89.6502020 118.4272030  70.7473170  92.4860510
 117.5300560  70.9713140  92.7333910 118.4524900  70.8708110  91.5371910
 125.4677250  67.5966290  78.4001770 125.9070530  66.7588720  78.2539590
 126.1805670  68.2295690  78.4865910 117.2543250  67.6186490  91.0617880
 117.1151020  68.4909290  91.4305280 116.3724610  67.2759300  90.9165820
 123.5772630  72.5362360  82.3683010 124.0168540  73.2786690  81.9538400
 123.5159520  72.7788930  83.2921970 119.0523600  73.5608190  93.2703030
 119.0239030  73.9651140  92.4031460 118.8888570  72.6318550  93.1074630
 129.0494390  58.8509100  76.7142810 128.7367050  58.9435930  77.6141880
 129.8106860  59.4290130  76.6640240 131.0038420  74.3435290  94.5667200
 131.4798140  74.8218180  95.2456280 131.6245580  74.2752780  93.8412700
 113.2061900  69.3884040  86.9788790 113.2842320  69.5232810  86.0344510
 113.8203580  68.6799930  87.1716910 130.4071670  71.5348140  91.7267210
 130.5334730  71.2960020  90.8084390 130.4493050  70.7032680  92.1989290
 126.2442810  75.5231480  79.7246020 126.0843950  75.2334420  80.6227850
 126.0789520  74.7471610  79.1891250 118.7231190  75.3030010  81.5017640
 118.5473670  74.3865550  81.2885440 117.8686930  75.6617300  81.7415440
 125.9468940  73.0319040  78.2844020 125.2534100  73.0296330  77.6246300
 126.6891800  72.6078360  77.8538190 125.5118870  74.6581750  82.3592510
 125.9675820  73.8771130  82.6731130 125.8511390  75.3688570  82.9033690
 130.2595680  63.5880600  92.6916950 129.6439950  64.0960270  92.1632410
 129.9392100  62.6878930  92.6342890 113.2621420  70.4298210  89.5183250
 113.4252460  69.9603570  88.7002620 113.7273870  69.9221770  90.1832090
 122.3210000  62.4272490  90.1579140 121.8589370  62.6355510  90.9699080
 121.9188110  61.6131840  89.8549810 127.3214510  63.6481440  91.2875800
 126.4708100  63.3487190  91.6084870 127.1616300  63.8923450  90.3759620
 124.4164220  65.1483190  93.3874590 124.7417630  64.3146940  93.0476820
 125.2044550  65.6711710  93.5352920 117.8254410  64.6837540  82.2825070
 117.5995330  64.4674710  83.1871690 117.0446940  65.1166000  81.9371040
 125.0552170  64.6900910  80.8815720 124.4561060  65.4136710  80.6979340
 125.6031780  64.6277690  80.0992170 120.2653620  65.5823120  92.9485340
 120.1697220  64.6417850  92.7985740 121.1085600  65.8038190  92.5533410
 115.3964160  61.9936790  91.1019120 115.0027550  62.8412000  91.3091900
 114.7082560  61.3563160  91.2927760 121.9709210  62.0771760  94.1715860
 121.2807530  61.8843960  94.8061950 122.7141510  62.3606400  94.7040160
 116.5351950  62.4750890  84.3716480 116.1952000  62.9526120  85.1283530
 115.7729270  62.0216010  84.0117580 124.7098090  61.3703880  86.4192720
 124.7270830  61.8212530  87.2634570 124.4613670  60.4709520  86.6326160
 119.7591220  65.9037620  77.8012330 119.1908120  65.4555870  77.1748240
 120.4680220  66.2630400  77.2677480 128.1368840  58.7836060  92.2579100
 128.4614610  58.0525720  92.7837080 128.1725350  58.4649700  91.3560090
 114.8360400  69.8049640  91.6779060 114.4515190  69.1643310  92.2762020
 115.1472590  70.5085760  92.2473790 113.8498030  61.3969870  83.2881150
 113.5644950  61.0325540  84.1259770 113.7876890  60.6650330  82.6744290
 118.7756910  65.6934820  89.4771890 118.4713980  66.5726800  89.7022250
 119.7303370  65.7534610  89.5129330 126.2385010  64.6618780  78.3056680
 127.1264630  64.9736010  78.1308020 126.2090100  63.7891030  77.9137260
 122.2345600  70.8342470  78.9844850 122.5761300  71.5784700  78.4888170
 121.4058310  71.1473590  79.3469680 114.8320640  66.5337560  90.6243250
 114.4735580  67.1991410  91.2116590 114.5375200  65.7021110  90.9955870
 118.0333760  66.9921800  93.5082800 117.7333900  67.1378980  92.6110620
 118.8045000  66.4327090  93.4156190 129.5386530  72.8272880  80.5018670
 128.8962690  72.1728500  80.7762390 129.1517190  73.2327970  79.7259340
 116.4075280  58.2639680  81.8408650 116.2789910  58.2557580  82.7893570
 115.5837300  58.6022770  81.4899660 127.9283910  71.7189340  77.0395020
 127.7021490  71.0019780  77.6319660 127.5380110  71.4701780  76.2016770
 113.7099940  75.7456200  77.8139480 114.0697580  76.3445540  77.1596750
 113.5692280  76.2916090  78.5874510 113.4069210  60.0230800  91.3015350
 112.6927730  60.2227720  91.9067960 113.8264250  59.2470370  91.6730150
 127.5100160  69.6361280  78.7009180 127.2221860  70.0973970  79.4887060
 128.3052330  69.1759050  78.9693400 113.6941800  74.0111060  92.2881880
 113.8032920  73.0705800  92.1477270 113.0422360  74.2765810  91.6395610
 124.9007990  62.5153110  89.0516800 125.2688810  61.6948320  89.3796370
 124.0406190  62.5755000  89.4672450 122.7128160  73.1915640  77.2938340
 122.8140140  72.9879630  76.3640320 121.8129900  72.9373920  77.4986120
 124.2669480  60.4746660  82.7158030 124.1437260  60.4932790  81.7667540
 125.2154040  60.5225600  82.8356430 129.0676840  61.3860660  90.1183160
 128.5650440  62.1266060  90.4576970 129.8833500  61.7744660  89.8019950
 116.0327250  65.7438510  77.8081370 116.1130840  64.7966020  77.9198770
 116.9247000  66.0745390  77.9142030 129.3624430  73.8002690  85.2398780
 129.4871850  74.6233860  85.7122590 130.2289990  73.5893420  84.8922930
 115.8400240  75.0779970  94.1001490 116.6412970  75.3992020  94.5136890
 115.3252060  74.7175550  94.8221400 119.9444270  75.0664210  76.7341480
 120.7372880  75.3553040  76.2823270 119.4248620  74.6356380  76.0553960
 128.9974440  74.2934340  78.1578220 128.7115950  73.8799480  77.3432400
 128.7993990  75.2222050  78.0378740 113.5598050  67.5653430  93.0437540
 114.0637070  66.9860710  93.6153770 112.8205470  67.8493660  93.5813910
 123.7024400  69.3487650  77.2025820 123.1534500  69.7956950  77.8468560
 124.3243660  68.8436900  77.7263490 115.5921130  65.7083020  93.9387610
 115.6326470  65.4096890  94.8472840 116.4466630  66.1090630  93.7795130
 117.5326940  64.2875120  91.9062100 117.0023400  63.7966070  91.2785440
 118.2015010  64.7159320  91.3720030 121.8827160  67.3316180  76.3468220
 122.4032820  66.6165200  75.9809370 122.5295560  67.9702050  76.6468730
 126.9027170  66.0940740  93.6742440 127.4847940  65.3393060  93.5862920
 127.0788940  66.6248180  92.8973920 118.0199240  61.2537490  91.9859390
 117.9256110  60.6358240  91.2610260 117.4396630  61.9803780  91.7589300
 118.2658420  64.3811800  76.0449280 118.0647480  63.5179160  76.4062620
 118.0950470  64.2945160  75.1070880 119.0427650  75.0118070  90.7556950
 118.5048740  75.7364130  90.4365650 119.2961610  74.5348410  89.9654290
 120.2952900  62.9802590  92.2812880 120.8852590  62.6718440  92.9690700
 119.4773140  62.5082340  92.4372780 125.1146330  62.5968400  92.5145900
 124.4261850  61.9349940  92.4495890 125.8352350  62.1506670  92.9594360
 125.7446730  59.1920030  78.5736160 126.0249020  58.3487930  78.9295580
 124.9712460  59.4243140  79.0874910 117.0641220  61.4812420  76.0327160
 117.3667120  61.4879850  75.1246310 117.8035810  61.1310280  76.5294820
 121.8989860  76.2469280  91.0143600 121.8248560  77.1504420  91.3215970
 120.9968700  75.9281180  90.9865670 122.4475190  75.4127790  78.6369960
 123.3425980  75.7512760  78.6588720 122.4792820  74.6907200  78.0094240
 113.6231790  66.9534690  83.4147730 112.9680630  66.6846330  82.7707430
 114.4609740  66.8439170  82.9649710 128.1121180  70.6683440  89.4412320
 127.2981020  71.0980600  89.7038110 128.5195380  71.2801850  88.8281370
 130.1746620  68.7231130  76.3412590 130.4495460  69.6310010  76.2131810
 129.9857360  68.6593660  77.2774580 126.5722230  61.7475980  77.6366220
 126.9907110  61.5606960  76.7962880 126.2658290  60.8955030  77.9469150
 114.6607720  67.3387260  87.9551070 115.0280760  67.2514660  88.8347090
 114.0918540  66.5753810  87.8557930 114.2123720  64.2496350  91.8609490
 113.3179770  64.2163110  92.2003200 114.7521270  64.4483140  92.6260740
 127.8999650  61.0328070  93.7461240 128.7769830  61.0411470  94.1295240
 127.9120490  60.2958910  93.1353590 112.8369870  64.1633620  79.3573060
 111.9333950  64.4263820  79.1824720 113.3210490  64.4344790  78.5773020
 115.3797080  63.2199160  77.2667440 116.0888780  62.7982380  76.7814720
 114.6637020  63.2874390  76.6350790 115.0271240  59.2738490  76.3070090
 115.7499370  59.8147430  76.6251310 115.2995760  59.0001910  75.4311630
 128.6115770  58.7186040  89.5662350 129.2487990  59.3320180  89.9321540
 128.7590660  58.7546700  88.6211580 128.1697230  75.4202040  82.9680590
 128.7656300  75.0986610  82.2915010 128.4275380  74.9473860  83.7593860
 116.0759800  71.8519950  93.1171220 116.0329430  71.4812860  93.9985680
 116.2070810  72.7897520  93.2573040 121.9820250  59.8712230  92.4737450
 121.9209140  60.4634060  93.2232860 122.9220630  59.7638190  92.3287710
 124.6194810  59.5282290  92.1129740 125.2335220  59.8461580  91.4510820
 125.1644370  59.0430880  92.7325600 131.0369990  75.4273920  89.5191580
 130.5428270  75.8242790  88.8018710 130.4283280  74.8023130  89.9128860
 115.1416070  58.2076550  92.2268800 115.6899060  58.0264600  91.4634910
 115.2071380  57.4170660  92.7625110 125.3602850  58.0914430  88.4399030
 124.4862690  58.4249540  88.2371960 125.2513600  57.6187610  89.2650900
 126.2674830  60.2985300  89.8240750 125.9388190  59.4837060  89.4442480
 127.2157130  60.2555110  89.7006440 128.7209440  76.0697340  86.7978320
 128.2612410  76.8213150  86.4236340 128.0921900  75.3503810  86.7393120
 121.8900660  75.2694070  86.7995430 122.1778470  75.0148370  85.9228440
 122.4023880  74.7171430  87.3901000 127.6598740  59.7107370  85.4241030
 128.1006830  59.6552470  84.5762630 127.3906330  60.6265380  85.4951210
 129.5237310  59.3422610  83.4349850 129.4625710  58.3983830  83.2880870
 130.3029340  59.4502700  83.9803310 113.8290060  75.4814970  82.3973800
 113.6612100  74.8485650  83.0955690 112.9624570  75.6874370  82.0467990
 114.4518080  59.3131750  79.9005660 115.2097440  59.4260630  79.3269690
 113.9895250  60.1500950  79.8549090 125.4956870  58.0913470  84.1291040
 126.0986240  58.6633680  84.6039560 124.7549860  58.6552910  83.9064940
 115.4352760  74.1748200  79.8423940 114.9100380  74.5556230  79.1385900
 115.3597340  74.7998970  80.5633650 116.8243230  59.8395800  78.4407630
 117.3535990  59.0525600  78.3115580 117.4571550  60.5186990  78.6743160
 130.1918080  75.7335740  81.1637880 130.3670270  75.0473480  80.5198800
 129.4939650  76.2582790  80.7714550 118.0345730  76.1230580  78.7173190
 118.7664550  75.8389860  78.1697080 118.2939400  75.8843860  79.6072570
 125.7452090  58.2708500  94.5085980 125.6317540  58.5903110  95.4037500
 126.5621830  58.6721010  94.2123260 124.6510240  66.2900970  64.8720720
 124.5704290  65.3755580  64.6012430 124.2374660  66.7868040  64.1660430
 126.8035710  72.4740180  65.5329120 126.3417240  71.7027420  65.8616290
 127.6161260  72.5006250  66.0381570 115.2086060  63.3401690  61.4148140
 114.3202760  63.6817660  61.3128020 115.4927250  63.1402010  60.5228970
 122.2237270  70.7437180  66.7600150 122.1545550  69.8027120  66.5989280
 122.9857130  70.8338590  67.3322720 123.2542440  63.5507560  66.9869080
 123.6307260  62.6779440  66.8742750 123.1561950  63.8866260  66.0959520
 117.3847450  61.9233190  62.4486520 117.4914200  62.8236920  62.7555280
 116.4739810  61.8751160  62.1581170 127.0366560  61.0458000  63.9197420
 127.8576180  60.5554570  63.9622900 127.0700640  61.6355660  64.6729260
 119.2255180  64.8919560  66.7811700 119.7333400  65.3900530  67.4216720
 119.7568420  64.1154760  66.6051060 131.3266110  63.0624750  70.4841050
 130.6218280  63.4506460  69.9656160 131.5924030  63.7575040  71.0861980
 117.5091280  59.5318120  71.0475120 117.5109720  60.0490510  70.2421020
 116.6795590  59.0548300  71.0245050 123.8962370  69.6437430  62.5465020
 123.2779640  70.1086880  61.9827740 124.4085620  70.3364910  62.9634530
 118.7594130  69.1713300  69.2248620 118.4263510  69.7982220  69.8669690
 118.9360810  69.6975180  68.4450290 127.2728040  62.9858380  66.6924960
 126.5683610  63.2743270  67.2728070 127.6340200  63.7958490  66.3324520
 113.2645570  70.3293960  59.9204650 112.8873550  70.8181060  59.1889550
 113.5218640  71.0019240  60.5511180 130.3414960  62.4313170  67.0834170
 129.3939870  62.4652150  67.2149600 130.6664950  63.2452120  67.4683530
 120.8734500  58.7310350  65.3790160 121.1809480  58.1757240  64.6625660
 119.9435200  58.8654810  65.1963150 126.4249560  74.4477640  67.6697620
 126.4376720  74.0439930  66.8019880 125.8724780  75.2224930  67.5659050
 127.7194980  71.1693860  62.7587790 127.6091310  70.2268190  62.8837210
 127.7163230  71.5309500  63.6450550 123.2615260  66.7959180  62.1150280
 122.3344540  66.7296560  62.3438750 123.4140080  67.7339310  62.0005520
 123.2484340  63.0676180  59.1117440 122.3088010  63.2290140  59.1969900
 123.5667600  63.7861860  58.5653430 127.2912550  68.3579480  62.6185530
 126.6724970  68.0199030  61.9711830 127.2737000  67.7139240  63.3264720
 118.8671900  67.3223920  64.8970010 118.4628900  66.6101170  64.4015910
 118.9535020  66.9777160  65.7858050 119.3353600  71.0091480  67.0609220
 119.0381890  70.4036950  66.3817000 120.2853420  71.0468790  66.9498580
 125.4677250  67.5966290  59.6258280 125.9070530  66.7588720  59.4796100
 126.1805670  68.2295690  59.7122420 117.2543250  67.6186490  72.2874390
 117.1151020  68.4909290  72.6561790 116.3724610  67.2759300  72.1422330
 123.5772630  72.5362360  63.5939520 124.0168540  73.2786690  63.1794910
 123.5159520  72.7788930  64.5178480 115.5676530  66.2168900  62.3976660
 115.4474130  66.9430990  61.7857930 115.2577420  65.4471810  61.9204570
 114.4509530  71.0884230  64.6151480 114.0437610  71.2298820  63.7605080
 115.3422540  70.8044390  64.4122690 130.4071670  71.5348140  72.9523720
 130.5334730  71.2960020  72.0340900 130.4493050  70.7032680  73.4245800
 126.2442810  75.5231480  60.9502530 126.0843950  75.2334420  61.8484360
 126.0789520  74.7471610  60.4147760 125.5118870  74.6581750  63.5849020
 125.9675820  73.8771130  63.8987640 125.8511390  75.3688570  64.1290200
 130.2595680  63.5880600  73.9173460 129.6439950  64.0960270  73.3888920
 129.9392100  62.6878930  73.8599400 113.2621420  70.4298210  70.7439760
 113.4252460  69.9603570  69.9259130 113.7273870  69.9221770  71.4088600
 122.3210000  62.4272490  71.3835650 121.8589370  62.6355510  72.1955590
 121.9188110  61.6131840  71.0806320 127.3214510  63.6481440  72.5132310
 126.4708100  63.3487190  72.8341380 127.1616300  63.8923450  71.6016130
 120.0716090  60.1051300  67.6389930 120.3688420  61.0114130  67.5581950
 120.6201650  59.6170080  67.0249500 117.8254410  64.6837540  63.5081580
 117.5995330  64.4674710  64.4128200 117.0446940  65.1166000  63.1627550
 125.0552170  64.6900910  62.1072230 124.4561060  65.4136710  61.9235850
 125.6031780  64.6277690  61.3248680 120.2653620  65.5823120  74.1741850
 120.1697220  64.6417850  74.0242250 121.1085600  65.8038190  73.7789920
 123.6617040  63.3264450  64.1375510 124.0546610  63.6436650  63.3244200
 124.0233890  62.4476330  64.2520030 115.3964160  61.9936790  72.3275630
 115.0027550  62.8412000  72.5348410 114.7082560  61.3563160  72.5184270
 121.9709210  62.0771760  75.3972370 121.2807530  61.8843960  76.0318460
 122.7141510  62.3606400  75.9296670 112.8851440  63.8585370  57.5708430
 112.8026110  64.8016130  57.7123420 112.5334500  63.7160280  56.6920780
 120.6849570  62.5924400  66.6378780 120.6885630  62.1514350  65.7883320
 121.5800690  62.9141730  66.7450600 120.7469720  63.5936480  59.6285540
 120.8682540  63.5522960  60.5771360 120.3618230  64.4560630  59.4732270
 124.7098090  61.3703880  67.6449230 124.7270830  61.8212530  68.4891080
 124.4613670  60.4709520  67.8582670 119.7591220  65.9037620  59.0268840
 119.1908120  65.4555870  58.4004750 120.4680220  66.2630400  58.4933990
 128.1368840  58.7836060  73.4835610 128.4614610  58.0525720  74.0093590
 128.1725350  58.4649700  72.5816600 117.3038700  69.8995810  61.2995250
 116.5300960  69.3593430  61.1393970 118.0333330  69.3802420  60.9613010
 126.2385010  64.6618780  59.5313190 127.1264630  64.9736010  59.3564530
 126.2090100  63.7891030  59.1393770 117.3476100  69.5676190  64.9374060
 117.8654770  68.7644450  64.8830950 116.8960120  69.5055330  65.7790890
 122.2345600  70.8342470  60.2101360 122.5761300  71.5784700  59.7144680
 121.4058310  71.1473590  60.5726190 123.3762210  71.7890800  72.7294440
 123.3906750  70.8571760  72.5113350 122.6687310  71.8750560  73.3684210
 129.5386530  72.8272880  61.7275180 128.8962690  72.1728500  62.0018900
 129.1517190  73.2327970  60.9515850 125.1173010  70.1558310  65.5746870
 125.4696830  69.5586440  64.9148240 124.2335340  69.8302540  65.7455120
 121.2036290  70.9156000  62.9817280 121.8907420  71.4625210  63.3624870
 120.4168710  71.4596730  63.0166890 113.3428690  66.5328820  58.4734360
 114.2123540  66.8153620  58.7570280 112.8519010  67.3464690  58.3583170
 120.5063500  67.9202030  62.5942640 120.9626280  68.7307280  62.8202830
 120.1551710  67.6025170  63.4261130 116.4075280  58.2639680  63.0665160
 116.2789910  58.2557580  64.0150080 115.5837300  58.6022770  62.7156170
 125.8565810  72.2335620  71.7448450 126.1922050  72.8202310  72.4226370
 124.9366150  72.1028330  71.9746240 113.7099940  75.7456200  59.0395990
 114.0697580  76.3445540  58.3853260 113.5692280  76.2916090  59.8131020
 127.5100160  69.6361280  59.9265690 127.2221860  70.0973970  60.7143570
 128.3052330  69.1759050  60.1949910 121.6854390  72.2826950  74.9136510
 121.3651260  71.5636190  75.4582200 121.0112750  72.9582020  74.9872570
 119.7268560  73.1287400  59.8569660 119.7178660  73.8617090  59.2414170
 118.8066920  72.8818980  59.9496620 115.3275200  68.3502290  60.6016420
 114.7203150  69.0901190  60.6111720 115.8024550  68.4401650  59.7754620
 128.2670020  61.4710050  61.0860870 127.6383180  61.5755720  60.3719100
 127.7721940  61.6906830  61.8754750 122.7128160  73.1915640  58.5194850
 122.8140140  72.9879630  57.5896830 121.8129900  72.9373920  58.7242630
 120.2354050  63.7496000  62.5018750 119.5270200  64.2182340  62.9432360
 120.5198530  63.0918010  63.1363940 118.4389070  62.0581080  59.8769460
 119.2879600  62.4951230  59.8109650 118.0720340  62.3701340  60.7041520
 129.0676840  61.3860660  71.3439670 128.5650440  62.1266060  71.6833480
 129.8833500  61.7744660  71.0276460 127.3598850  66.6293840  64.7901030
 126.4188990  66.6444070  64.9648720 127.6742920  65.8429800  65.2361330
 117.3380490  68.3113440  58.3504990 118.1043760  68.1994800  58.9130420
 117.4155180  67.6151410  57.6981760 116.0327250  65.7438510  59.0337880
 116.1130840  64.7966020  59.1455280 116.9247000  66.0745390  59.1398540
 129.3624430  73.8002690  66.4655290 129.4871850  74.6233860  66.9379100
 130.2289990  73.5893420  66.1179440 113.7187440  71.9607470  62.0113930
 112.7927220  72.2028610  62.0019340 114.1843870  72.7881730  61.8898680
 124.6764870  71.1859840  75.2733410 124.0703030  71.2091440  74.5329160
 124.3718980  70.4542880  75.8100660 113.5598050  67.5653430  74.2694050
 114.0637070  66.9860710  74.8410280 112.8205470  67.8493660  74.8070420
 120.4621670  70.2867620  57.8240340 120.3572310  69.6719970  58.5501720
 120.2945890  69.7633510  57.0403350 120.6135990  68.9724420  73.8029570
 119.8481660  69.5409420  73.7184240 120.7951950  68.6800630  72.9097800
 123.7024400  69.3487650  58.4282330 123.1534500  69.7956950  59.0725070
 124.3243660  68.8436900  58.9520000 127.7559340  70.7029750  74.3604590
 128.4968810  71.0405510  73.8572050 126.9932020  70.8721810  73.8074360
 115.5921130  65.7083020  75.1644120 115.6326470  65.4096890  76.0729350
 116.4466630  66.1090630  75.0051640 119.3699520  68.3078570  60.3247630
 119.7915940  68.1418440  61.1679020 119.4950360  67.4978800  59.8302770
 117.5326940  64.2875120  73.1318610 117.0023400  63.7966070  72.5041950
 118.2015010  64.7159320  72.5976540 121.8827160  67.3316180  57.5724730
 122.4032820  66.6165200  57.2065880 122.5295560  67.9702050  57.8725240
 126.9027170  66.0940740  74.8998950 127.4847940  65.3393060  74.8119430
 127.0788940  66.6248180  74.1230430 118.0199240  61.2537490  73.2115900
 117.9256110  60.6358240  72.4866770 117.4396630  61.9803780  72.9845810
 120.7860680  59.8110730  70.2443290 120.3377980  59.8334990  69.3988840
 120.1525880  59.4129750  70.8413590 118.2658420  64.3811800  57.2705790
 118.0647480  63.5179160  57.6319130 118.0950470  64.2945160  56.3327390
 120.2952900  62.9802590  73.5069390 120.8852590  62.6718440  74.1947210
 119.4773140  62.5082340  73.6629290 125.1146330  62.5968400  73.7402410
 124.4261850  61.9349940  73.6752400 125.8352350  62.1506670  74.1850870
 117.0641220  61.4812420  57.2583670 117.3667120  61.4879850  56.3502820
 117.8035810  61.1310280  57.7551330 120.2826150  60.4247040  58.2439870
 119.9348150  59.7471030  57.6642320 120.4838920  59.9636550  59.0583260
 122.4475190  75.4127790  59.8626470 123.3425980  75.7512760  59.8845230
 122.4792820  74.6907200  59.2350750 116.0871350  70.7854840  58.0913470
 116.5246220  71.3284510  58.7471050 116.5719080  69.9601790  58.1009810
 113.3017150  73.5743870  65.5433730 113.6320160  72.7064930  65.3112370
 113.7308150  73.7802390  66.3738690 117.8979070  71.9052880  63.2035700
 117.5974610  71.7817850  64.1039610 117.7916560  71.0461470  62.7951430
 113.7907360  74.4414460  68.2815360 113.3538350  74.6215260  69.1139510
 114.3585040  75.1989080  68.1397080 129.4269540  73.9431460  72.5692670
 128.8271530  74.0024020  71.8256590 129.5563440  73.0036440  72.6989520
 130.1227450  68.4296760  60.4096580 130.8846360  68.9993410  60.5156270
 130.1381820  67.8623960  61.1804890 113.6231790  66.9534690  64.6404240
 112.9680630  66.6846330  63.9963940 114.4609740  66.8439170  64.1906220
 126.5722230  61.7475980  58.8622730 126.9907110  61.5606960  58.0219390
 126.2658290  60.8955030  59.1725660 130.0711960  66.6600120  62.5598530
 129.6955560  65.8928050  62.1279820 129.3415080  67.0422820  63.0473460
 127.8999650  61.0328070  74.9717750 128.7769830  61.0411470  75.3551750
 127.9120490  60.2958910  74.3610100 112.8369870  64.1633620  60.5829570
 111.9333950  64.4263820  60.4081230 113.3210490  64.4344790  59.8029530
 129.3462920  64.8857610  65.8605770 129.8700400  64.3920260  65.2295940
 129.9322340  65.0207970  66.6053340 115.3797080  63.2199160  58.4923950
 116.0888780  62.7982380  58.0071230 114.6637020  63.2874390  57.8607300
 115.0271240  59.2738490  57.5326600 115.7499370  59.8147430  57.8507820
 115.2995760  59.0001910  56.6568140 128.8362890  64.1430960  61.7998180
 129.3322010  63.9101830  62.5847060 128.6378960  63.3042800  61.3835820
 130.2650050  62.7791910  64.3335860 130.1549330  62.6247950  65.2718130
 131.0257640  62.2512850  64.0911270 131.2278810  61.3810490  60.1998710
 130.4330310  61.3155610  60.7291620 131.4322090  62.3161130  60.1884060
 128.1697230  75.4202040  64.1937100 128.7656300  75.0986610  63.5171520
 128.4275380  74.9473860  64.9850370 119.7765830  73.4079540  69.9437450
 119.5357190  73.6754100  69.0567970 120.7168470  73.5785270  69.9988310
 121.9820250  59.8712230  73.6993960 121.9209140  60.4634060  74.4489370
 122.9220630  59.7638190  73.5544220 131.0369990  75.4273920  70.7448090
 130.5428270  75.8242790  70.0275220 130.4283280  74.8023130  71.1385370
 115.1416070  58.2076550  73.4525310 115.6899060  58.0264600  72.6891420
 115.2071380  57.4170660  73.9881620 128.7209440  76.0697340  68.0234830
 128.2612410  76.8213150  67.6492850 128.0921900  75.3503810  67.9649630
 127.6598740  59.7107370  66.6497540 128.1006830  59.6552470  65.8019140
 127.3906330  60.6265380  66.7207720 129.5237310  59.3422610  64.6606360
 129.4625710  58.3983830  64.5137380 130.3029340  59.4502700  65.2059820
 113.8290060  75.4814970  63.6230310 113.6612100  74.8485650  64.3212200
 112.9624570  75.6874370  63.2724500 125.4956870  58.0913470  65.3547550
 126.0986240  58.6633680  65.8296070 124.7549860  58.6552910  65.1321450
 115.4352760  74.1748200  61.0680450 114.9100380  74.5556230  60.3642410
 115.3597340  74.7998970  61.7890160 116.8243230  59.8395800  59.6664140
 117.3535990  59.0525600  59.5372090 117.4571550  60.5186990  59.8999670
 121.9573020  76.1910170  75.3920140 122.8840330  75.9554440  75.4356100
 121.9423450  77.0182170  74.9106170 130.1918080  75.7335740  62.3894390
 130.3670270  75.0473480  61.7455310 129.4939650  76.2582790  61.9971060
 119.1436630  58.8554920  75.1562020 118.8620900  59.3588520  74.3922840
 119.5256330  58.0576670  74.7904150 118.0345730  76.1230580  59.9429700
 118.7664550  75.8389860  59.3953590 118.2939400  75.8843860  60.8329080
 117.1960520  72.2395310  59.9476030 116.5669400  72.7080410  60.4961860
 117.3108350  71.3944530  60.3822220 125.7452090  58.2708500  75.7342490
 125.6317540  58.5903110  76.6294010 126.5621830  58.6721010  75.4379770
 128.5250580  75.4180030  75.2161180 129.3175900  74.9229260  75.0087140
 128.8183730  76.0970170  75.8236790 124.6510240  66.2900970  46.0977230
 124.5704290  65.3755580  45.8268940 124.2374660  66.7868040  45.3916940
 122.7828280  68.0679990  47.9786500 122.0070380  67.5880430  48.2685070
 123.4341210  67.3885640  47.8042660 126.8035710  72.4740180  46.7585630
 126.3417240  71.7027420  47.0872800 127.6161260  72.5006250  47.2638080
 115.2086060  63.3401690  42.6404650 114.3202760  63.6817660  42.5384530
 115.4927250  63.1402010  41.7485480 123.0299020  74.7598190  46.3789620
 122.4110460  75.2155690  45.8084060 123.8850800  74.9149650  45.9779320
 123.2542440  63.5507560  48.2125590 123.6307260  62.6779440  48.0999260
 123.1561950  63.8866260  47.3216030 117.3847450  61.9233190  43.6743030
 117.4914200  62.8236920  43.9811790 116.4739810  61.8751160  43.3837680
 127.0366560  61.0458000  45.1453930 127.8576180  60.5554570  45.1879410
 127.0700640  61.6355660  45.8985770 119.2255180  64.8919560  48.0068210
 119.7333400  65.3900530  48.6473230 119.7568420  64.1154760  47.8307570
 117.5091280  59.5318120  52.2731630 117.5109720  60.0490510  51.4677530
 116.6795590  59.0548300  52.2501560 118.7594130  69.1713300  50.4505130
 118.4263510  69.7982220  51.0926200 118.9360810  69.6975180  49.6706800
 117.1906610  61.2428080  50.2802080 117.5323420  62.0870130  49.9855950
 116.2522420  61.3911820  50.3967420 117.9713230  71.1394100  52.2654310
 118.5887230  71.8145180  51.9838760 117.1106350  71.5482080  52.1741810
 113.2645570  70.3293960  41.1461160 112.8873550  70.8181060  40.4146060
 113.5218640  71.0019240  41.7767690 128.8890820  72.6033510  50.1808950
 128.2054340  73.2732620  50.1725620 129.4285110  72.8014160  49.4153810
 120.8734500  58.7310350  46.6046670 121.1809480  58.1757240  45.8882170
 119.9435200  58.8654810  46.4219660 126.4249560  74.4477640  48.8954130
 126.4376720  74.0439930  48.0276390 125.8724780  75.2224930  48.7915560
 127.7194980  71.1693860  43.9844300 127.6091310  70.2268190  44.1093720
 127.7163230  71.5309500  44.8707060 125.8235000  69.3507480  50.2236740
 126.2403790  69.1367590  49.3890200 126.5474820  69.6080270  50.7945360
 123.2615260  66.7959180  43.3406790 122.3344540  66.7296560  43.5695260
 123.4140080  67.7339310  43.2262030 127.2912550  68.3579480  43.8442040
 126.6724970  68.0199030  43.1968340 127.2737000  67.7139240  44.5521230
 119.3353600  71.0091480  48.2865730 119.0381890  70.4036950  47.6073510
 120.2853420  71.0468790  48.1755090 117.5800520  64.0967130  49.9025560
 118.1315110  64.2062470  49.1278810 118.0944030  64.4704730  50.6180790
 118.4272030  70.7473170  54.9373530 117.5300560  70.9713140  55.1846930
 118.4524900  70.8708110  53.9884930 125.4677250  67.5966290  40.8514790
 125.9070530  66.7588720  40.7052610 126.1805670  68.2295690  40.9378930
 117.2543250  67.6186490  53.5130900 117.1151020  68.4909290  53.8818300
 116.3724610  67.2759300  53.3678840 119.0523600  73.5608190  55.7216050
 119.0239030  73.9651140  54.8544480 118.8888570  72.6318550  55.5587650
 129.0494390  58.8509100  39.1655830 128.7367050  58.9435930  40.0654900
 129.8106860  59.4290130  39.1153260 126.2442810  75.5231480  42.1759040
 126.0843950  75.2334420  43.0740870 126.0789520  74.7471610  41.6404270
 125.9468940  73.0319040  40.7357040 125.2534100  73.0296330  40.0759320
 126.6891800  72.6078360  40.3051210 125.5118870  74.6581750  44.8105530
 125.9675820  73.8771130  45.1244150 125.8511390  75.3688570  45.3546710
 113.2621420  70.4298210  51.9696270 113.4252460  69.9603570  51.1515640
 113.7273870  69.9221770  52.6345110 118.0340190  59.5603970  47.0056840
 117.5908340  60.3413510  46.6741360 118.5925180  59.8833860  47.7127780
 122.3210000  62.4272490  52.6092160 121.8589370  62.6355510  53.4212100
 121.9188110  61.6131840  52.3062830 124.4164220  65.1483190  55.8387610
 124.7417630  64.3146940  55.4989840 125.2044550  65.6711710  55.9865940
 120.0716090  60.1051300  48.8646440 120.3688420  61.0114130  48.7838460
 120.6201650  59.6170080  48.2506010 117.8254410  64.6837540  44.7338090
 117.5995330  64.4674710  45.6384710 117.0446940  65.1166000  44.3884060
 125.0552170  64.6900910  43.3328740 124.4561060  65.4136710  43.1492360
 125.6031780  64.6277690  42.5505190 120.2653620  65.5823120  55.3998360
 120.1697220  64.6417850  55.2498760 121.1085600  65.8038190  55.0046430
 123.6617040  63.3264450  45.3632020 124.0546610  63.6436650  44.5500710
 124.0233890  62.4476330  45.4776540 121.9709210  62.0771760  56.6228880
 121.2807530  61.8843960  57.2574970 122.7141510  62.3606400  57.1553180
 112.8851440  63.8585370  38.7964940 112.8026110  64.8016130  38.9379930
 112.5334500  63.7160280  37.9177290 124.2472180  65.9170200  49.4582800
 123.5153300  66.4257010  49.8072900 123.8496520  65.1000180  49.1571580
 120.6849570  62.5924400  47.8635290 120.6885630  62.1514350  47.0139830
 121.5800690  62.9141730  47.9707110 116.5351950  62.4750890  46.8229500
 116.1952000  62.9526120  47.5796550 115.7729270  62.0216010  46.4630600
 124.7098090  61.3703880  48.8705740 124.7270830  61.8212530  49.7147590
 124.4613670  60.4709520  49.0839180 119.7591220  65.9037620  40.2525350
 119.1908120  65.4555870  39.6261260 120.4680220  66.2630400  39.7190500
 114.8360400  69.8049640  54.1292080 114.4515190  69.1643310  54.7275040
 115.1472590  70.5085760  54.6986810 120.9857540  66.6526180  49.6100700
 121.3527670  66.1784750  50.3562040 120.7962600  67.5267750  49.9509040
 113.8498030  61.3969870  45.7394170 113.5644950  61.0325540  46.5772790
 113.7876890  60.6650330  45.1257310 118.7756910  65.6934820  51.9284910
 118.4713980  66.5726800  52.1535270 119.7303370  65.7534610  51.9642350
 117.3038700  69.8995810  42.5251760 116.5300960  69.3593430  42.3650480
 118.0333330  69.3802420  42.1869520 128.0626680  68.8961170  48.3178150
 128.7825800  69.3916460  47.9274260 127.8608500  68.2179060  47.6732020
 123.4445480  68.9670230  54.2047150 123.3782790  68.0465900  53.9504740
 122.8150620  69.0645670  54.9191790 126.2385010  64.6618780  40.7569700
 127.1264630  64.9736010  40.5821040 126.2090100  63.7891030  40.3650280
 114.8320640  66.5337560  53.0756270 114.4735580  67.1991410  53.6629610
 114.5375200  65.7021110  53.4468890 118.0333760  66.9921800  55.9595820
 117.7333900  67.1378980  55.0623640 118.8045000  66.4327090  55.8669210
 123.3762210  71.7890800  53.9550950 123.3906750  70.8571760  53.7369860
 122.6687310  71.8750560  54.5940720 128.5099280  65.9730620  40.2249560
 128.4263000  66.4044840  39.3746000 129.2293470  66.4328970  40.6576380
 129.5386530  72.8272880  42.9531690 128.8962690  72.1728500  43.2275410
 129.1517190  73.2327970  42.1772360 125.1173010  70.1558310  46.8003380
 125.4696830  69.5586440  46.1404750 124.2335340  69.8302540  46.9711630
 113.3428690  66.5328820  39.6990870 114.2123540  66.8153620  39.9826790
 112.8519010  67.3464690  39.5839680 122.8096110  73.4308370  51.0491450
 123.4538330  73.6367750  51.7264870 123.1725550  72.6696770  50.5962300
 116.4075280  58.2639680  44.2921670 116.2789910  58.2557580  45.2406590
 115.5837300  58.6022770  43.9412680 124.0828190  71.4340720  49.7668900
 124.7250420  70.7333880  49.8801070 124.6077540  72.2139160  49.5865790
 127.9283910  71.7189340  39.4908040 127.7021490  71.0019780  40.0832680
 127.5380110  71.4701780  38.6529790 127.5100160  69.6361280  41.1522200
 127.2221860  70.0973970  41.9400080 128.3052330  69.1759050  41.4206420
 113.6941800  74.0111060  54.7394900 113.8032920  73.0705800  54.5990290
 113.0422360  74.2765810  54.0908630 121.6854390  72.2826950  56.1393020
 121.3651260  71.5636190  56.6838710 121.0112750  72.9582020  56.2129080
 115.3275200  68.3502290  41.8272930 114.7203150  69.0901190  41.8368230
 115.8024550  68.4401650  41.0011130 128.2670020  61.4710050  42.3117380
 127.6383180  61.5755720  41.5975610 127.7721940  61.6906830  43.1011260
 120.2354050  63.7496000  43.7275260 119.5270200  64.2182340  44.1688870
 120.5198530  63.0918010  44.3620450 121.8609980  65.1692700  51.7267790
 122.3595230  65.6438520  52.3919640 122.0032930  64.2456220  51.9337820
 124.2669480  60.4746660  45.1671050 124.1437260  60.4932790  44.2180560
 125.2154040  60.5225600  45.2869450 127.3598850  66.6293840  46.0157540
 126.4188990  66.6444070  46.1905230 127.6742920  65.8429800  46.4617840
 116.0327250  65.7438510  40.2594390 116.1130840  64.7966020  40.3711790
 116.9247000  66.0745390  40.3655050 129.3624430  73.8002690  47.6911800
 129.4871850  74.6233860  48.1635610 130.2289990  73.5893420  47.3435950
 115.8400240  75.0779970  56.5514510 116.6412970  75.3992020  56.9649910
 115.3252060  74.7175550  57.2734420 119.9444270  75.0664210  39.1854500
 120.7372880  75.3553040  38.7336290 119.4248620  74.6356380  38.5066980
 128.9974440  74.2934340  40.6091240 128.7115950  73.8799480  39.7945420
 128.7993990  75.2222050  40.4891760 113.5598050  67.5653430  55.4950560
 114.0637070  66.9860710  56.0666790 112.8205470  67.8493660  56.0326930
 120.6135990  68.9724420  55.0286080 119.8481660  69.5409420  54.9440750
 120.7951950  68.6800630  54.1354310 115.5921130  65.7083020  56.3900630
 115.6326470  65.4096890  57.2985860 116.4466630  66.1090630  56.2308150
 119.3699520  68.3078570  41.5504140 119.7915940  68.1418440  42.3935530
 119.4950360  67.4978800  41.0559280 117.5326940  64.2875120  54.3575120
 117.0023400  63.7966070  53.7298460 118.2015010  64.7159320  53.8233050
 121.8827160  67.3316180  38.7981240 122.4032820  66.6165200  38.4322390
 122.5295560  67.9702050  39.0981750 118.0199240  61.2537490  54.4372410
 117.9256110  60.6358240  53.7123280 117.4396630  61.9803780  54.2102320
 120.7860680  59.8110730  51.4699800 120.3377980  59.8334990  50.6245350
 120.1525880  59.4129750  52.0670100 121.1920230  68.7065060  52.0912240
 121.6108340  69.5497790  51.9188480 120.2728860  68.8437100  51.8619020
 123.5284130  66.4381240  53.4750080 123.6480340  65.8422380  54.2144920
 124.3878130  66.4750930  53.0551380 119.0427650  75.0118070  53.2069970
 118.5048740  75.7364130  52.8878670 119.2961610  74.5348410  52.4167310
 120.2952900  62.9802590  54.7325900 120.8852590  62.6718440  55.4203720
 119.4773140  62.5082340  54.8885800 125.1146330  62.5968400  54.9658920
 124.4261850  61.9349940  54.9008910 125.8352350  62.1506670  55.4107380
 125.7446730  59.1920030  41.0249180 126.0249020  58.3487930  41.3808600
 124.9712460  59.4243140  41.5387930 113.7907360  74.4414460  49.5071870
 113.3538350  74.6215260  50.3396020 114.3585040  75.1989080  49.3653590
 130.6670990  71.6849280  39.1318890 129.8363950  71.7525930  39.6026120
 130.8442820  72.5753400  38.8285750 130.1227450  68.4296760  41.6353090
 130.8846360  68.9993410  41.7412780 130.1381820  67.8623960  42.4061400
 131.1287420  69.2846860  46.4795020 131.4996250  68.5014180  46.0730990
 131.7689350  69.9735960  46.3012320 130.1746620  68.7231130  38.7925610
 130.4495460  69.6310010  38.6644830 129.9857360  68.6593660  39.7287600
 126.5722230  61.7475980  40.0879240 126.9907110  61.5606960  39.2475900
 126.2658290  60.8955030  40.3982170 130.0711960  66.6600120  43.7855040
 129.6955560  65.8928050  43.3536330 129.3415080  67.0422820  44.2729970
 114.2123720  64.2496350  54.3122510 113.3179770  64.2163110  54.6516220
 114.7521270  64.4483140  55.0773760 112.8369870  64.1633620  41.8086080
 111.9333950  64.4263820  41.6337740 113.3210490  64.4344790  41.0286040
 115.3797080  63.2199160  39.7180460 116.0888780  62.7982380  39.2327740
 114.6637020  63.2874390  39.0863810 115.0271240  59.2738490  38.7583110
 115.7499370  59.8147430  39.0764330 115.2995760  59.0001910  37.8824650
 128.8362890  64.1430960  43.0254690 129.3322010  63.9101830  43.8103570
 128.6378960  63.3042800  42.6092330 114.7163430  58.5244680  48.6605730
 115.3639620  57.9742060  48.2200890 115.1365270  58.7787830  49.4821540
 130.2650050  62.7791910  45.5592370 130.1549330  62.6247950  46.4974640
 131.0257640  62.2512850  45.3167780 131.1540320  60.6099830  38.7998510
 132.0789630  60.4781010  38.5916800 131.1316110  60.6892650  39.7534960
 131.2278810  61.3810490  41.4255220 130.4330310  61.3155610  41.9548130
 131.4322090  62.3161130  41.4140570 128.1697230  75.4202040  45.4193610
 128.7656300  75.0986610  44.7428030 128.4275380  74.9473860  46.2106880
 116.0759800  71.8519950  55.5684240 116.0329430  71.4812860  56.4498700
 116.2070810  72.7897520  55.7086060 119.7765830  73.4079540  51.1693960
 119.5357190  73.6754100  50.2824480 120.7168470  73.5785270  51.2244820
 121.9820250  59.8712230  54.9250470 121.9209140  60.4634060  55.6745880
 122.9220630  59.7638190  54.7800730 115.1416070  58.2076550  54.6781820
 115.6899060  58.0264600  53.9147930 115.2071380  57.4170660  55.2138130
 115.9147830  74.7982200  52.6882020 115.3208150  74.6666900  53.4272060
 115.9071670  73.9620340  52.2224120 128.7209440  76.0697340  49.2491340
 128.2612410  76.8213150  48.8749360 128.0921900  75.3503810  49.1906140
 115.5460060  72.1640580  51.6390060 114.8194120  71.5445870  51.5716010
 115.6069210  72.5581190  50.7688140 119.1505160  74.3785580  48.4239470
 119.6670180  73.7672940  47.8987730 119.8002540  74.8814360  48.9150480
 121.8900660  75.2694070  49.2508450 122.1778470  75.0148370  48.3741460
 122.4023880  74.7171430  49.8414020 129.5237310  59.3422610  45.8862870
 129.4625710  58.3983830  45.7393890 130.3029340  59.4502700  46.4316330
 114.4518080  59.3131750  42.3518680 115.2097440  59.4260630  41.7782710
 113.9895250  60.1500950  42.3062110 128.6391470  58.4935030  41.8544340
 128.8342100  59.3918480  42.1211770 127.8521340  58.2622110  42.3477290
 130.1918080  75.7335740  43.6150900 130.3670270  75.0473480  42.9711820
 129.4939650  76.2582790  43.2227570 119.1436630  58.8554920  56.3818530
 118.8620900  59.3588520  55.6179350 119.5256330  58.0576670  56.0160660
 124.6510240  66.2900970  27.3233740 124.5704290  65.3755580  27.0525450
 124.2374660  66.7868040  26.6173450 122.7828280  68.0679990  29.2043010
 122.0070380  67.5880430  29.4941580 123.4341210  67.3885640  29.0299170
 116.7994110  68.3799800  30.0818770 115.9678990  68.1248510  30.4815280
 117.4075090  68.4510570  30.8176690 126.8035710  72.4740180  27.9842140
 126.3417240  71.7027420  28.3129310 127.6161260  72.5006250  28.4894590
 116.7795370  72.4139890  30.2776790 117.0823410  71.5237630  30.0987010
 117.5238960  72.9710110  30.0499040 123.0299020  74.7598190  27.6046130
 122.4110460  75.2155690  27.0340570 123.8850800  74.9149650  27.2035830
 122.2237270  70.7437180  29.2113170 122.1545550  69.8027120  29.0502300
 122.9857130  70.8338590  29.7835740 114.4143940  61.3491700  31.5369790
 114.2346780  60.4517450  31.8172550 114.0124020  61.8963570  32.2116740
 123.2542440  63.5507560  29.4382100 123.6307260  62.6779440  29.3255770
 123.1561950  63.8866260  28.5472540 117.3847450  61.9233190  24.8999540
 117.4914200  62.8236920  25.2068300 116.4739810  61.8751160  24.6094190
 127.0366560  61.0458000  26.3710440 127.8576180  60.5554570  26.4135920
 127.0700640  61.6355660  27.1242280 119.2255180  64.8919560  29.2324720
 119.7333400  65.3900530  29.8729740 119.7568420  64.1154760  29.0564080
 131.3266110  63.0624750  32.9354070 130.6218280  63.4506460  32.4169180
 131.5924030  63.7575040  33.5375000 117.5091280  59.5318120  33.4988140
 117.5109720  60.0490510  32.6934040 116.6795590  59.0548300  33.4758070
 123.8962370  69.6437430  24.9978040 123.2779640  70.1086880  24.4340760
 124.4085620  70.3364910  25.4147550 118.7594130  69.1713300  31.6761640
 118.4263510  69.7982220  32.3182710 118.9360810  69.6975180  30.8963310
 127.2728040  62.9858380  29.1437980 126.5683610  63.2743270  29.7241090
 127.6340200  63.7958490  28.7837540 117.1906610  61.2428080  31.5058590
 117.5323420  62.0870130  31.2112460 116.2522420  61.3911820  31.6223930
 117.9713230  71.1394100  33.4910820 118.5887230  71.8145180  33.2095270
 117.1106350  71.5482080  33.3998320 128.8890820  72.6033510  31.4065460
 128.2054340  73.2732620  31.3982130 129.4285110  72.8014160  30.6410320
 130.3414960  62.4313170  29.5347190 129.3939870  62.4652150  29.6662620
 130.6664950  63.2452120  29.9196550 120.8734500  58.7310350  27.8303180
 121.1809480  58.1757240  27.1138680 119.9435200  58.8654810  27.6476170
 126.4249560  74.4477640  30.1210640 126.4376720  74.0439930  29.2532900
 125.8724780  75.2224930  30.0172070 127.7194980  71.1693860  25.2100810
 127.6091310  70.2268190  25.3350230 127.7163230  71.5309500  26.0963570
 125.8235000  69.3507480  31.4493250 126.2403790  69.1367590  30.6146710
 126.5474820  69.6080270  32.0201870 123.2615260  66.7959180  24.5663300
 122.3344540  66.7296560  24.7951770 123.4140080  67.7339310  24.4518540
 123.2484340  63.0676180  21.5630460 122.3088010  63.2290140  21.6482920
 123.5667600  63.7861860  21.0166450 129.7697100  67.7494700  31.5409490
 128.9415730  67.8187790  31.0659620 130.3647580  68.3349010  31.0725320
 127.2912550  68.3579480  25.0698550 126.6724970  68.0199030  24.4224850
 127.2737000  67.7139240  25.7777740 126.7339110  64.5364020  32.4864360
 126.3210290  65.3617730  32.7404350 126.0015060  63.9509060  32.2940720
 118.8671900  67.3223920  27.3483030 118.4628900  66.6101170  26.8528930
 118.9535020  66.9777160  28.2371070 119.3353600  71.0091480  29.5122240
 119.0381890  70.4036950  28.8330020 120.2853420  71.0468790  29.4011600
 117.5800520  64.0967130  31.1282070 118.1315110  64.2062470  30.3535320
 118.0944030  64.4704730  31.8437300 127.4239210  74.5823350  33.1745340
 126.9469770  75.3895540  32.9817950 126.7401000  73.9301680  33.3271550
 125.4677250  67.5966290  22.0771300 125.9070530  66.7588720  21.9309120
 126.1805670  68.2295690  22.1635440 123.5772630  72.5362360  26.0452540
 124.0168540  73.2786690  25.6307930 123.5159520  72.7788930  26.9691500
 119.0523600  73.5608190  36.9472560 119.0239030  73.9651140  36.0800990
 118.8888570  72.6318550  36.7844160 129.0494390  58.8509100  20.3912340
 128.7367050  58.9435930  21.2911410 129.8106860  59.4290130  20.3409770
 131.0038420  74.3435290  38.2436730 131.4798140  74.8218180  38.9225810
 131.6245580  74.2752780  37.5182230 113.2061900  69.3884040  30.6558320
 113.2842320  69.5232810  29.7114040 113.8203580  68.6799930  30.8486440
 114.4509530  71.0884230  27.0664500 114.0437610  71.2298820  26.2118100
 115.3422540  70.8044390  26.8635710 130.4071670  71.5348140  35.4036740
 130.5334730  71.2960020  34.4853920 130.4493050  70.7032680  35.8758820
 124.2688410  75.2376140  33.9731550 124.7833080  75.1484150  34.7753980
 123.4257490  75.5835840  34.2659460 126.2442810  75.5231480  23.4015550
 126.0843950  75.2334420  24.2997380 126.0789520  74.7471610  22.8660780
 118.7231190  75.3030010  25.1787170 118.5473670  74.3865550  24.9654970
 117.8686930  75.6617300  25.4184970 125.9468940  73.0319040  21.9613550
 125.2534100  73.0296330  21.3015830 126.6891800  72.6078360  21.5307720
 125.5118870  74.6581750  26.0362040 125.9675820  73.8771130  26.3500660
 125.8511390  75.3688570  26.5803220 130.2595680  63.5880600  36.3686480
 129.6439950  64.0960270  35.8401940 129.9392100  62.6878930  36.3112420
 113.2621420  70.4298210  33.1952780 113.4252460  69.9603570  32.3772150
 113.7273870  69.9221770  33.8601620 118.0340190  59.5603970  28.2313350
 117.5908340  60.3413510  27.8997870 118.5925180  59.8833860  28.9384290
 122.3210000  62.4272490  33.8348670 121.8589370  62.6355510  34.6468610
 121.9188110  61.6131840  33.5319340 127.3214510  63.6481440  34.9645330
 126.4708100  63.3487190  35.2854400 127.1616300  63.8923450  34.0529150
 124.4164220  65.1483190  37.0644120 124.7417630  64.3146940  36.7246350
 125.2044550  65.6711710  37.2122450 121.1499010  59.1814670  23.1119180
 120.5253190  59.1774540  23.8372490 121.0629130  58.3145630  22.7155150
 120.0716090  60.1051300  30.0902950 120.3688420  61.0114130  30.0094970
 120.6201650  59.6170080  29.4762520 117.8254410  64.6837540  25.9594600
 117.5995330  64.4674710  26.8641220 117.0446940  65.1166000  25.6140570
 125.0552170  64.6900910  24.5585250 124.4561060  65.4136710  24.3748870
 125.6031780  64.6277690  23.7761700 123.6617040  63.3264450  26.5888530
 124.0546610  63.6436650  25.7757220 124.0233890  62.4476330  26.7033050
 115.3964160  61.9936790  34.7788650 115.0027550  62.8412000  34.9861430
 114.7082560  61.3563160  34.9697290 112.8851440  63.8585370  20.0221450
 112.8026110  64.8016130  20.1636440 112.5334500  63.7160280  19.1433800
 124.2472180  65.9170200  30.6839310 123.5153300  66.4257010  31.0329410
 123.8496520  65.1000180  30.3828090 120.6849570  62.5924400  29.0891800
 120.6885630  62.1514350  28.2396340 121.5800690  62.9141730  29.1963620
 116.5351950  62.4750890  28.0486010 116.1952000  62.9526120  28.8053060
 115.7729270  62.0216010  27.6887110 120.7469720  63.5936480  22.0798560
 120.8682540  63.5522960  23.0284380 120.3618230  64.4560630  21.9245290
 124.7098090  61.3703880  30.0962250 124.7270830  61.8212530  30.9404100
 124.4613670  60.4709520  30.3095690 119.7591220  65.9037620  21.4781860
 119.1908120  65.4555870  20.8517770 120.4680220  66.2630400  20.9447010
 128.1368840  58.7836060  35.9348630 128.4614610  58.0525720  36.4606610
 128.1725350  58.4649700  35.0329620 120.9857540  66.6526180  30.8357210
 121.3527670  66.1784750  31.5818550 120.7962600  67.5267750  31.1765550
 118.7756910  65.6934820  33.1541420 118.4713980  66.5726800  33.3791780
 119.7303370  65.7534610  33.1898860 117.3038700  69.8995810  23.7508270
 116.5300960  69.3593430  23.5906990 118.0333330  69.3802420  23.4126030
 128.0626680  68.8961170  29.5434660 128.7825800  69.3916460  29.1530770
 127.8608500  68.2179060  28.8988530 123.5236620  60.2899130  23.6864050
 122.7101230  59.7912300  23.6109360 123.3298570  61.1297380  23.2700400
 123.4445480  68.9670230  35.4303660 123.3782790  68.0465900  35.1761250
 122.8150620  69.0645670  36.1448300 126.2385010  64.6618780  21.9826210
 127.1264630  64.9736010  21.8077550 126.2090100  63.7891030  21.5906790
 117.3476100  69.5676190  27.3887080 117.8654770  68.7644450  27.3343970
 116.8960120  69.5055330  28.2303910 122.2345600  70.8342470  22.6614380
 122.5761300  71.5784700  22.1657700 121.4058310  71.1473590  23.0239210
 123.3762210  71.7890800  35.1807460 123.3906750  70.8571760  34.9626370
 122.6687310  71.8750560  35.8197230 128.5099280  65.9730620  21.4506070
 128.4263000  66.4044840  20.6002510 129.2293470  66.4328970  21.8832890
 129.5873420  68.4298140  34.5276040 128.8621610  69.0226920  34.3305430
 130.1148880  68.4221680  33.7289410 129.5386530  72.8272880  24.1788200
 128.8962690  72.1728500  24.4531920 129.1517190  73.2327970  23.4028870
 125.1173010  70.1558310  28.0259890 125.4696830  69.5586440  27.3661260
 124.2335340  69.8302540  28.1968140 121.2036290  70.9156000  25.4330300
 121.8907420  71.4625210  25.8137890 120.4168710  71.4596730  25.4679910
 113.3428690  66.5328820  20.9247380 114.2123540  66.8153620  21.2083300
 112.8519010  67.3464690  20.8096190 120.5063500  67.9202030  25.0455660
 120.9626280  68.7307280  25.2715850 120.1551710  67.6025170  25.8774150
 122.8096110  73.4308370  32.2747960 123.4538330  73.6367750  32.9521380
 123.1725550  72.6696770  31.8218810 116.4075280  58.2639680  25.5178180
 116.2789910  58.2557580  26.4663100 115.5837300  58.6022770  25.1669190
 124.0828190  71.4340720  30.9925410 124.7250420  70.7333880  31.1057580
 124.6077540  72.2139160  30.8122300 127.9283910  71.7189340  20.7164550
 127.7021490  71.0019780  21.3089190 127.5380110  71.4701780  19.8786300
 125.8565810  72.2335620  34.1961470 126.1922050  72.8202310  34.8739390
 124.9366150  72.1028330  34.4259260 113.7099940  75.7456200  21.4909010
 114.0697580  76.3445540  20.8366280 113.5692280  76.2916090  22.2644040
 113.4069210  60.0230800  34.9784880 112.6927730  60.2227720  35.5837490
 113.8264250  59.2470370  35.3499680 127.5100160  69.6361280  22.3778710
 127.2221860  70.0973970  23.1656590 128.3052330  69.1759050  22.6462930
 113.6941800  74.0111060  35.9651410 113.8032920  73.0705800  35.8246800
 113.0422360  74.2765810  35.3165140 121.6854390  72.2826950  37.3649530
 121.3651260  71.5636190  37.9095220 121.0112750  72.9582020  37.4385590
 119.7268560  73.1287400  22.3082680 119.7178660  73.8617090  21.6927190
 118.8066920  72.8818980  22.4009640 115.3275200  68.3502290  23.0529440
 114.7203150  69.0901190  23.0624740 115.8024550  68.4401650  22.2267640
 124.9007990  62.5153110  32.7286330 125.2688810  61.6948320  33.0565900
 124.0406190  62.5755000  33.1441980 128.2670020  61.4710050  23.5373890
 127.6383180  61.5755720  22.8232120 127.7721940  61.6906830  24.3267770
 122.7128160  73.1915640  20.9707870 122.8140140  72.9879630  20.0409850
 121.8129900  72.9373920  21.1755650 120.2354050  63.7496000  24.9531770
 119.5270200  64.2182340  25.3945380 120.5198530  63.0918010  25.5876960
 121.8609980  65.1692700  32.9524300 122.3595230  65.6438520  33.6176150
 122.0032930  64.2456220  33.1594330 124.2669480  60.4746660  26.3927560
 124.1437260  60.4932790  25.4437070 125.2154040  60.5225600  26.5125960
 121.3546270  75.7101960  25.6655540 121.6087770  75.6723350  24.7434910
 120.4058750  75.5835290  25.6583790 118.4389070  62.0581080  22.3282480
 119.2879600  62.4951230  22.2622670 118.0720340  62.3701340  23.1554540
 129.0676840  61.3860660  33.7952690 128.5650440  62.1266060  34.1346500
 129.8833500  61.7744660  33.4789480 127.3598850  66.6293840  27.2414050
 126.4188990  66.6444070  27.4161740 127.6742920  65.8429800  27.6874350
 117.3380490  68.3113440  20.8018010 118.1043760  68.1994800  21.3643440
 117.4155180  67.6151410  20.1494780 116.0327250  65.7438510  21.4850900
 116.1130840  64.7966020  21.5968300 116.9247000  66.0745390  21.5911560
 129.3624430  73.8002690  28.9168310 129.4871850  74.6233860  29.3892120
 130.2289990  73.5893420  28.5692460 116.8341960  75.8933900  28.5885440
 117.5704440  75.3449360  28.8594010 117.2182880  76.7589910  28.4491430
 115.8400240  75.0779970  37.7771020 116.6412970  75.3992020  38.1906420
 115.3252060  74.7175550  38.4990930 119.9444270  75.0664210  20.4111010
 120.7372880  75.3553040  19.9592800 119.4248620  74.6356380  19.7323490
 124.6764870  71.1859840  37.7246430 124.0703030  71.2091440  36.9842180
 124.3718980  70.4542880  38.2613680 126.1065240  74.9140130  36.3355840
 127.0586990  74.8298150  36.2856080 125.9593460  75.5781840  37.0089630
 128.9974440  74.2934340  21.8347750 128.7115950  73.8799480  21.0201930
 128.7993990  75.2222050  21.7148270 120.4621670  70.2867620  20.2753360
 120.3572310  69.6719970  21.0014740 120.2945890  69.7633510  19.4916370
 120.6135990  68.9724420  36.2542590 119.8481660  69.5409420  36.1697260
 120.7951950  68.6800630  35.3610820 123.7024400  69.3487650  20.8795350
 123.1534500  69.7956950  21.5238090 124.3243660  68.8436900  21.4033020
 127.7559340  70.7029750  36.8117610 128.4968810  71.0405510  36.3085070
 126.9932020  70.8721810  36.2587380 119.3699520  68.3078570  22.7760650
 119.7915940  68.1418440  23.6192040 119.4950360  67.4978800  22.2815790
 121.8827160  67.3316180  20.0237750 122.4032820  66.6165200  19.6578900
 122.5295560  67.9702050  20.3238260 126.4305000  68.7544580  35.3472820
 126.8446020  68.9089660  36.1963240 125.4956000  68.8799800  35.5098600
 126.9027170  66.0940740  37.3511970 127.4847940  65.3393060  37.2632450
 127.0788940  66.6248180  36.5743450 118.0199240  61.2537490  35.6628920
 117.9256110  60.6358240  34.9379790 117.4396630  61.9803780  35.4358830
 120.7860680  59.8110730  32.6956310 120.3377980  59.8334990  31.8501860
 120.1525880  59.4129750  33.2926610 121.1920230  68.7065060  33.3168750
 121.6108340  69.5497790  33.1444990 120.2728860  68.8437100  33.0875530
 123.5284130  66.4381240  34.7006590 123.6480340  65.8422380  35.4401430
 124.3878130  66.4750930  34.2807890 125.8672030  66.9918430  33.2769100
 125.3407250  67.5161050  32.6734240 126.2103370  67.6245820  33.9078830
 118.2658420  64.3811800  19.7218810 118.0647480  63.5179160  20.0832150
 118.0950470  64.2945160  18.7840410 119.0427650  75.0118070  34.4326480
 118.5048740  75.7364130  34.1135180 119.2961610  74.5348410  33.6423820
 120.2952900  62.9802590  35.9582410 120.8852590  62.6718440  36.6460230
 119.4773140  62.5082340  36.1142310 125.1146330  62.5968400  36.1915430
 124.4261850  61.9349940  36.1265420 125.8352350  62.1506670  36.6363890
 125.7446730  59.1920030  22.2505690 126.0249020  58.3487930  22.6065110
 124.9712460  59.4243140  22.7644440 117.0641220  61.4812420  19.7096690
 117.3667120  61.4879850  18.8015840 117.8035810  61.1310280  20.2064350
 121.8989860  76.2469280  34.6913130 121.8248560  77.1504420  34.9985500
 120.9968700  75.9281180  34.6635200 120.2826150  60.4247040  20.6952890
 119.9348150  59.7471030  20.1155340 120.4838920  59.9636550  21.5096280
 122.4475190  75.4127790  22.3139490 123.3425980  75.7512760  22.3358250
 122.4792820  74.6907200  21.6863770 116.0871350  70.7854840  20.5426490
 116.5246220  71.3284510  21.1984070 116.5719080  69.9601790  20.5522830
 113.3017150  73.5743870  27.9946750 113.6320160  72.7064930  27.7625390
 113.7308150  73.7802390  28.8251710 117.8979070  71.9052880  25.6548720
 117.5974610  71.7817850  26.5552630 117.7916560  71.0461470  25.2464450
 113.7907360  74.4414460  30.7328380 113.3538350  74.6215260  31.5652530
 114.3585040  75.1989080  30.5910100 129.4269540  73.9431460  35.0205690
 128.8271530  74.0024020  34.2769610 129.5563440  73.0036440  35.1502540
 130.6670990  71.6849280  20.3575400 129.8363950  71.7525930  20.8282630
 130.8442820  72.5753400  20.0542260 130.1227450  68.4296760  22.8609600
 130.8846360  68.9993410  22.9669290 130.1381820  67.8623960  23.6317910
 131.1287420  69.2846860  27.7051530 131.4996250  68.5014180  27.2987500
 131.7689350  69.9735960  27.5268830 128.1121180  70.6683440  33.1181850
 127.2981020  71.0980600  33.3807640 128.5195380  71.2801850  32.5050900
 130.1746620  68.7231130  20.0182120 130.4495460  69.6310010  19.8901340
 129.9857360  68.6593660  20.9544110 126.5722230  61.7475980  21.3135750
 126.9907110  61.5606960  20.4732410 126.2658290  60.8955030  21.6238680
 130.0711960  66.6600120  25.0111550 129.6955560  65.8928050  24.5792840
 129.3415080  67.0422820  25.4986480 129.4611580  65.8071640  34.6451070
 129.2297670  65.5784390  33.7449020 129.7216130  66.7271190  34.5995960
 127.8999650  61.0328070  37.4230770 128.7769830  61.0411470  37.8064770
 127.9120490  60.2958910  36.8123120 129.3462920  64.8857610  28.3118790
 129.8700400  64.3920260  27.6808960 129.9322340  65.0207970  29.0566360
 129.5252640  64.9697480  31.8338340 128.5755350  64.9361020  31.9483330
 129.7065650  65.8797590  31.5988110 115.3797080  63.2199160  20.9436970
 116.0888780  62.7982380  20.4584250 114.6637020  63.2874390  20.3120320
 115.0271240  59.2738490  19.9839620 115.7499370  59.8147430  20.3020840
 115.2995760  59.0001910  19.1081160 128.8362890  64.1430960  24.2511200
 129.3322010  63.9101830  25.0360080 128.6378960  63.3042800  23.8348840
 114.7163430  58.5244680  29.8862240 115.3639620  57.9742060  29.4457400
 115.1365270  58.7787830  30.7078050 130.2650050  62.7791910  26.7848880
 130.1549330  62.6247950  27.7231150 131.0257640  62.2512850  26.5424290
 128.6115770  58.7186040  33.2431880 129.2487990  59.3320180  33.6091070
 128.7590660  58.7546700  32.2981110 131.1540320  60.6099830  20.0255020
 132.0789630  60.4781010  19.8173310 131.1316110  60.6892650  20.9791470
 131.2278810  61.3810490  22.6511730 130.4330310  61.3155610  23.1804640
 131.4322090  62.3161130  22.6397080 128.1697230  75.4202040  26.6450120
 128.7656300  75.0986610  25.9684540 128.4275380  74.9473860  27.4363390
 114.4695430  58.6800350  32.6287560 114.1210250  59.1364170  33.3945740
 114.1383130  57.7857480  32.7109990 119.7765830  73.4079540  32.3950470
 119.5357190  73.6754100  31.5080990 120.7168470  73.5785270  32.4501330
 121.9820250  59.8712230  36.1506980 121.9209140  60.4634060  36.9002390
 122.9220630  59.7638190  36.0057240 124.6194810  59.5282290  35.7899270
 125.2335220  59.8461580  35.1280350 125.1644370  59.0430880  36.4095130
 131.0369990  75.4273920  33.1961110 130.5428270  75.8242790  32.4788240
 130.4283280  74.8023130  33.5898390 115.1416070  58.2076550  35.9038330
 115.6899060  58.0264600  35.1404440 115.2071380  57.4170660  36.4394640
 115.9147830  74.7982200  33.9138530 115.3208150  74.6666900  34.6528570
 115.9071670  73.9620340  33.4480630 125.3602850  58.0914430  32.1168560
 124.4862690  58.4249540  31.9141490 125.2513600  57.6187610  32.9420430
 126.2674830  60.2985300  33.5010280 125.9388190  59.4837060  33.1212010
 127.2157130  60.2555110  33.3775970 128.7209440  76.0697340  30.4747850
 128.2612410  76.8213150  30.1005870 128.0921900  75.3503810  30.4162650
 115.5460060  72.1640580  32.8646570 114.8194120  71.5445870  32.7972520
 115.6069210  72.5581190  31.9944650 119.1505160  74.3785580  29.6495980
 119.6670180  73.7672940  29.1244240 119.8002540  74.8814360  30.1406990
 121.8900660  75.2694070  30.4764960 122.1778470  75.0148370  29.5997970
 122.4023880  74.7171430  31.0670530 123.1077670  59.0084270  31.0561470
 122.3249460  59.4829770  31.3358230 122.8140600  58.1039100  30.9474650
 127.6598740  59.7107370  29.1010560 128.1006830  59.6552470  28.2532160
 127.3906330  60.6265380  29.1720740 129.5237310  59.3422610  27.1119380
 129.4625710  58.3983830  26.9650400 130.3029340  59.4502700  27.6572840
 113.8290060  75.4814970  26.0743330 113.6612100  74.8485650  26.7725220
 112.9624570  75.6874370  25.7237520 114.4518080  59.3131750  23.5775190
 115.2097440  59.4260630  23.0039220 113.9895250  60.1500950  23.5318620
 120.9931890  61.4271020  26.5677500 120.1806400  61.0527910  26.2273380
 121.4973530  60.6716100  26.8698690 125.4956870  58.0913470  27.8060570
 126.0986240  58.6633680  28.2809090 124.7549860  58.6552910  27.5834470
 128.6391470  58.4935030  23.0800850 128.8342100  59.3918480  23.3468280
 127.8521340  58.2622110  23.5733800 115.4352760  74.1748200  23.5193470
 114.9100380  74.5556230  22.8155430 115.3597340  74.7998970  24.2403180
 116.8243230  59.8395800  22.1177160 117.3535990  59.0525600  21.9885110
 117.4571550  60.5186990  22.3512690 119.0181070  59.5770940  25.1722550
 118.3883810  58.8758250  25.3392680 118.4786210  60.3375070  24.9555710
 121.9573020  76.1910170  37.8433160 122.8840330  75.9554440  37.8869120
 121.9423450  77.0182170  37.3619190 130.1918080  75.7335740  24.8407410
 130.3670270  75.0473480  24.1968330 129.4939650  76.2582790  24.4484080
 118.0345730  76.1230580  22.3942720 118.7664550  75.8389860  21.8466610
 118.2939400  75.8843860  23.2842100 117.1960520  72.2395310  22.3989050
 116.5669400  72.7080410  22.9474880 117.3108350  71.3944530  22.8335240
 125.7452090  58.2708500  38.1855510 125.6317540  58.5903110  39.0807030
 126.5621830  58.6721010  37.8892790 128.5250580  75.4180030  37.6674200
 129.3175900  74.9229260  37.4600160 128.8183730  76.0970170  38.2749810
 124.6510240  66.2900970   8.5490250 124.5704290  65.3755580   8.2781960
 124.2374660  66.7868040   7.8429960 122.7828280  68.0679990  10.4299520
 122.0070380  67.5880430  10.7198090 123.4341210  67.3885640  10.2555680
 116.7994110  68.3799800  11.3075280 115.9678990  68.1248510  11.7071790
 117.4075090  68.4510570  12.0433200 126.8035710  72.4740180   9.2098650
 126.3417240  71.7027420   9.5385820 127.6161260  72.5006250   9.7151100
 116.7795370  72.4139890  11.5033300 117.0823410  71.5237630  11.3243520
 117.5238960  72.9710110  11.2755550 115.2086060  63.3401690   5.0917670
 114.3202760  63.6817660   4.9897550 115.4927250  63.1402010   4.1998500
 113.1719070  65.9407340  10.9757370 113.7435180  65.1729540  10.9761010
 113.1720610  66.2396100  10.0663980 123.0299020  74.7598190   8.8302640
 122.4110460  75.2155690   8.2597080 123.8850800  74.9149650   8.4292340
 122.2237270  70.7437180  10.4369680 122.1545550  69.8027120  10.2758810
 122.9857130  70.8338590  11.0092250 114.4143940  61.3491700  12.7626300
 114.2346780  60.4517450  13.0429060 114.0124020  61.8963570  13.4373250
 123.2542440  63.5507560  10.6638610 123.6307260  62.6779440  10.5512280
 123.1561950  63.8866260   9.7729050 117.3847450  61.9233190   6.1256050
 117.4914200  62.8236920   6.4324810 116.4739810  61.8751160   5.8350700
 127.0366560  61.0458000   7.5966950 127.8576180  60.5554570   7.6392430
 127.0700640  61.6355660   8.3498790 115.0330610  63.8452200  11.3708640
 115.7140720  64.1090570  11.9896040 114.7178660  63.0053070  11.7046650
 119.2255180  64.8919560  10.4581230 119.7333400  65.3900530  11.0986250
 119.7568420  64.1154760  10.2820590 131.3266110  63.0624750  14.1610580
 130.6218280  63.4506460  13.6425690 131.5924030  63.7575040  14.7631510
 117.5091280  59.5318120  14.7244650 117.5109720  60.0490510  13.9190550
 116.6795590  59.0548300  14.7014580 123.8962370  69.6437430   6.2234550
 123.2779640  70.1086880   5.6597270 124.4085620  70.3364910   6.6404060
 118.7594130  69.1713300  12.9018150 118.4263510  69.7982220  13.5439220
 118.9360810  69.6975180  12.1219820 127.2728040  62.9858380  10.3694490
 126.5683610  63.2743270  10.9497600 127.6340200  63.7958490  10.0094050
 117.1906610  61.2428080  12.7315100 117.5323420  62.0870130  12.4368970
 116.2522420  61.3911820  12.8480440 117.9713230  71.1394100  14.7167330
 118.5887230  71.8145180  14.4351780 117.1106350  71.5482080  14.6254830
 113.2645570  70.3293960   3.5974180 112.8873550  70.8181060   2.8659080
 113.5218640  71.0019240   4.2280710 128.8890820  72.6033510  12.6321970
 128.2054340  73.2732620  12.6238640 129.4285110  72.8014160  11.8666830
 130.3414960  62.4313170  10.7603700 129.3939870  62.4652150  10.8919130
 130.6664950  63.2452120  11.1453060 120.8734500  58.7310350   9.0559690
 121.1809480  58.1757240   8.3395190 119.9435200  58.8654810   8.8732680
 126.4249560  74.4477640  11.3467150 126.4376720  74.0439930  10.4789410
 125.8724780  75.2224930  11.2428580 127.7194980  71.1693860   6.4357320
 127.6091310  70.2268190   6.5606740 127.7163230  71.5309500   7.3220080
 125.8235000  69.3507480  12.6749760 126.2403790  69.1367590  11.8403220
 126.5474820  69.6080270  13.2458380 123.2615260  66.7959180   5.7919810
 122.3344540  66.7296560   6.0208280 123.4140080  67.7339310   5.6775050
 123.2484340  63.0676180   2.7886970 122.3088010  63.2290140   2.8739430
 123.5667600  63.7861860   2.2422960 129.7697100  67.7494700  12.7666000
 128.9415730  67.8187790  12.2916130 130.3647580  68.3349010  12.2981830
 127.2912550  68.3579480   6.2955060 126.6724970  68.0199030   5.6481360
 127.2737000  67.7139240   7.0034250 126.7339110  64.5364020  13.7120870
 126.3210290  65.3617730  13.9660860 126.0015060  63.9509060  13.5197230
 118.8671900  67.3223920   8.5739540 118.4628900  66.6101170   8.0785440
 118.9535020  66.9777160   9.4627580 119.3353600  71.0091480  10.7378750
 119.0381890  70.4036950  10.0586530 120.2853420  71.0468790  10.6268110
 117.5800520  64.0967130  12.3538580 118.1315110  64.2062470  11.5791830
 118.0944030  64.4704730  13.0693810 127.4239210  74.5823350  14.4001850
 126.9469770  75.3895540  14.2074460 126.7401000  73.9301680  14.5528060
 118.4272030  70.7473170  17.3886550 117.5300560  70.9713140  17.6359950
 118.4524900  70.8708110  16.4397950 125.4677250  67.5966290   3.3027810
 125.9070530  66.7588720   3.1565630 126.1805670  68.2295690   3.3891950
 117.2543250  67.6186490  15.9643920 117.1151020  68.4909290  16.3331320
 116.3724610  67.2759300  15.8191860 123.5772630  72.5362360   7.2709050
 124.0168540  73.2786690   6.8564440 123.5159520  72.7788930   8.1948010
 119.0523600  73.5608190  18.1729070 119.0239030  73.9651140  17.3057500
 118.8888570  72.6318550  18.0100670 115.5676530  66.2168900   6.0746190
 115.4474130  66.9430990   5.4627460 115.2577420  65.4471810   5.5974100
 131.0038420  74.3435290  19.4693240 131.4798140  74.8218180  20.1482320
 131.6245580  74.2752780  18.7438740 113.2061900  69.3884040  11.8814830
 113.2842320  69.5232810  10.9370550 113.8203580  68.6799930  12.0742950
 114.4509530  71.0884230   8.2921010 114.0437610  71.2298820   7.4374610
 115.3422540  70.8044390   8.0892220 130.4071670  71.5348140  16.6293250
 130.5334730  71.2960020  15.7110430 130.4493050  70.7032680  17.1015330
 124.2688410  75.2376140  15.1988060 124.7833080  75.1484150  16.0010490
 123.4257490  75.5835840  15.4915970 126.2442810  75.5231480   4.6272060
 126.0843950  75.2334420   5.5253890 126.0789520  74.7471610   4.0917290
 118.7231190  75.3030010   6.4043680 118.5473670  74.3865550   6.1911480
 117.8686930  75.6617300   6.6441480 125.9468940  73.0319040   3.1870060
 125.2534100  73.0296330   2.5272340 126.6891800  72.6078360   2.7564230
 125.5118870  74.6581750   7.2618550 125.9675820  73.8771130   7.5757170
 125.8511390  75.3688570   7.8059730 130.2595680  63.5880600  17.5942990
 129.6439950  64.0960270  17.0658450 129.9392100  62.6878930  17.5368930
 113.2621420  70.4298210  14.4209290 113.4252460  69.9603570  13.6028660
 113.7273870  69.9221770  15.0858130 118.0340190  59.5603970   9.4569860
 117.5908340  60.3413510   9.1254380 118.5925180  59.8833860  10.1640800
 122.3210000  62.4272490  15.0605180 121.8589370  62.6355510  15.8725120
 121.9188110  61.6131840  14.7575850 127.3214510  63.6481440  16.1901840
 126.4708100  63.3487190  16.5110910 127.1616300  63.8923450  15.2785660
 124.4164220  65.1483190  18.2900630 124.7417630  64.3146940  17.9502860
 125.2044550  65.6711710  18.4378960 121.1499010  59.1814670   4.3375690
 120.5253190  59.1774540   5.0629000 121.0629130  58.3145630   3.9411660
 120.0716090  60.1051300  11.3159460 120.3688420  61.0114130  11.2351480
 120.6201650  59.6170080  10.7019030 117.8254410  64.6837540   7.1851110
 117.5995330  64.4674710   8.0897730 117.0446940  65.1166000   6.8397080
 125.0552170  64.6900910   5.7841760 124.4561060  65.4136710   5.6005380
 125.6031780  64.6277690   5.0018210 120.2653620  65.5823120  17.8511380
 120.1697220  64.6417850  17.7011780 121.1085600  65.8038190  17.4559450
 123.6617040  63.3264450   7.8145040 124.0546610  63.6436650   7.0013730
 124.0233890  62.4476330   7.9289560 115.3964160  61.9936790  16.0045160
 115.0027550  62.8412000  16.2117940 114.7082560  61.3563160  16.1953800
 121.9709210  62.0771760  19.0741900 121.2807530  61.8843960  19.7087990
 122.7141510  62.3606400  19.6066200 112.6981210  59.9165250  10.0375240
 112.4094260  60.4868110  10.7500220 113.4426970  59.4369700  10.4006470
 124.2472180  65.9170200  11.9095820 123.5153300  66.4257010  12.2585920
 123.8496520  65.1000180  11.6084600 120.6849570  62.5924400  10.3148310
 120.6885630  62.1514350   9.4652850 121.5800690  62.9141730  10.4220130
 116.5351950  62.4750890   9.2742520 116.1952000  62.9526120  10.0309570
 115.7729270  62.0216010   8.9143620 120.7469720  63.5936480   3.3055070
 120.8682540  63.5522960   4.2540890 120.3618230  64.4560630   3.1501800
 124.7098090  61.3703880  11.3218760 124.7270830  61.8212530  12.1660610
 124.4613670  60.4709520  11.5352200 119.7591220  65.9037620   2.7038370
 119.1908120  65.4555870   2.0774280 120.4680220  66.2630400   2.1703520
 128.1368840  58.7836060  17.1605140 128.4614610  58.0525720  17.6863120
 128.1725350  58.4649700  16.2586130 114.8360400  69.8049640  16.5805100
 114.4515190  69.1643310  17.1788060 115.1472590  70.5085760  17.1499830
 120.9857540  66.6526180  12.0613720 121.3527670  66.1784750  12.8075060
 120.7962600  67.5267750  12.4022060 113.8498030  61.3969870   8.1907190
 113.5644950  61.0325540   9.0285810 113.7876890  60.6650330   7.5770330
 118.7756910  65.6934820  14.3797930 118.4713980  66.5726800  14.6048290
 119.7303370  65.7534610  14.4155370 117.3038700  69.8995810   4.9764780
 116.5300960  69.3593430   4.8163500 118.0333330  69.3802420   4.6382540
 128.0626680  68.8961170  10.7691170 128.7825800  69.3916460  10.3787280
 127.8608500  68.2179060  10.1245040 123.5236620  60.2899130   4.9120560
 122.7101230  59.7912300   4.8365870 123.3298570  61.1297380   4.4956910
 123.4445480  68.9670230  16.6560170 123.3782790  68.0465900  16.4017760
 122.8150620  69.0645670  17.3704810 126.2385010  64.6618780   3.2082720
 127.1264630  64.9736010   3.0334060 126.2090100  63.7891030   2.8163300
 117.3476100  69.5676190   8.6143590 117.8654770  68.7644450   8.5600480
 116.8960120  69.5055330   9.4560420 122.2345600  70.8342470   3.8870890
 122.5761300  71.5784700   3.3914210 121.4058310  71.1473590   4.2495720
 114.8320640  66.5337560  15.5269290 114.4735580  67.1991410  16.1142630
 114.5375200  65.7021110  15.8981910 118.0333760  66.9921800  18.4108840
 117.7333900  67.1378980  17.5136660 118.8045000  66.4327090  18.3182230
 123.3762210  71.7890800  16.4063970 123.3906750  70.8571760  16.1882880
 122.6687310  71.8750560  17.0453740 128.5099280  65.9730620   2.6762580
 128.4263000  66.4044840   1.8259020 129.2293470  66.4328970   3.1089400
 129.5873420  68.4298140  15.7532550 128.8621610  69.0226920  15.5561940
 130.1148880  68.4221680  14.9545920 129.5386530  72.8272880   5.4044710
 128.8962690  72.1728500   5.6788430 129.1517190  73.2327970   4.6285380
 125.1173010  70.1558310   9.2516400 125.4696830  69.5586440   8.5917770
 124.2335340  69.8302540   9.4224650 121.2036290  70.9156000   6.6586810
 121.8907420  71.4625210   7.0394400 120.4168710  71.4596730   6.6936420
 113.3428690  66.5328820   2.1503890 114.2123540  66.8153620   2.4339810
 112.8519010  67.3464690   2.0352700 120.5063500  67.9202030   6.2712170
 120.9626280  68.7307280   6.4972360 120.1551710  67.6025170   7.1030660
 122.8096110  73.4308370  13.5004470 123.4538330  73.6367750  14.1777890
 123.1725550  72.6696770  13.0475320 116.4075280  58.2639680   6.7434690
 116.2789910  58.2557580   7.6919610 115.5837300  58.6022770   6.3925700
 124.0828190  71.4340720  12.2181920 124.7250420  70.7333880  12.3314090
 124.6077540  72.2139160  12.0378810 125.8565810  72.2335620  15.4217980
 126.1922050  72.8202310  16.0995900 124.9366150  72.1028330  15.6515770
 113.7099940  75.7456200   2.7165520 114.0697580  76.3445540   2.0622790
 113.5692280  76.2916090   3.4900550 113.4069210  60.0230800  16.2041390
 112.6927730  60.2227720  16.8094000 113.8264250  59.2470370  16.5756190
 127.5100160  69.6361280   3.6035220 127.2221860  70.0973970   4.3913100
 128.3052330  69.1759050   3.8719440 113.6941800  74.0111060  17.1907920
 113.8032920  73.0705800  17.0503310 113.0422360  74.2765810  16.5421650
 121.6854390  72.2826950  18.5906040 121.3651260  71.5636190  19.1351730
 121.0112750  72.9582020  18.6642100 119.7268560  73.1287400   3.5339190
 119.7178660  73.8617090   2.9183700 118.8066920  72.8818980   3.6266150
 115.3275200  68.3502290   4.2785950 114.7203150  69.0901190   4.2881250
 115.8024550  68.4401650   3.4524150 124.9007990  62.5153110  13.9542840
 125.2688810  61.6948320  14.2822410 124.0406190  62.5755000  14.3698490
 128.2670020  61.4710050   4.7630400 127.6383180  61.5755720   4.0488630
 127.7721940  61.6906830   5.5524280 120.2354050  63.7496000   6.1788280
 119.5270200  64.2182340   6.6201890 120.5198530  63.0918010   6.8133470
 121.8609980  65.1692700  14.1780810 122.3595230  65.6438520  14.8432660
 122.0032930  64.2456220  14.3850840 124.2669480  60.4746660   7.6184070
 124.1437260  60.4932790   6.6693580 125.2154040  60.5225600   7.7382470
 121.3546270  75.7101960   6.8912050 121.6087770  75.6723350   5.9691420
 120.4058750  75.5835290   6.8840300 118.4389070  62.0581080   3.5538990
 119.2879600  62.4951230   3.4879180 118.0720340  62.3701340   4.3811050
 129.0676840  61.3860660  15.0209200 128.5650440  62.1266060  15.3603010
 129.8833500  61.7744660  14.7045990 127.3598850  66.6293840   8.4670560
 126.4188990  66.6444070   8.6418250 127.6742920  65.8429800   8.9130860
 116.0327250  65.7438510   2.7107410 116.1130840  64.7966020   2.8224810
 116.9247000  66.0745390   2.8168070 129.3624430  73.8002690  10.1424820
 129.4871850  74.6233860  10.6148630 130.2289990  73.5893420   9.7948970
 116.8341960  75.8933900   9.8141950 117.5704440  75.3449360  10.0850520
 117.2182880  76.7589910   9.6747940 113.7187440  71.9607470   5.6883460
 112.7927220  72.2028610   5.6788870 114.1843870  72.7881730   5.5668210
 115.8400240  75.0779970  19.0027530 116.6412970  75.3992020  19.4162930
 115.3252060  74.7175550  19.7247440 124.6764870  71.1859840  18.9502940
 124.0703030  71.2091440  18.2098690 124.3718980  70.4542880  19.4870190
 126.1065240  74.9140130  17.5612350 127.0586990  74.8298150  17.5112590
 125.9593460  75.5781840  18.2346140 128.9974440  74.2934340   3.0604260
 128.7115950  73.8799480   2.2458440 128.7993990  75.2222050   2.9404780
 113.5598050  67.5653430  17.9463580 114.0637070  66.9860710  18.5179810
 112.8205470  67.8493660  18.4839950 120.6135990  68.9724420  17.4799100
 119.8481660  69.5409420  17.3953770 120.7951950  68.6800630  16.5867330
 123.7024400  69.3487650   2.1051860 123.1534500  69.7956950   2.7494600
 124.3243660  68.8436900   2.6289530 127.7559340  70.7029750  18.0374120
 128.4968810  71.0405510  17.5341580 126.9932020  70.8721810  17.4843890
 115.5921130  65.7083020  18.8413650 115.6326470  65.4096890  19.7498880
 116.4466630  66.1090630  18.6821170 119.3699520  68.3078570   4.0017160
 119.7915940  68.1418440   4.8448550 119.4950360  67.4978800   3.5072300
 117.5326940  64.2875120  16.8088140 117.0023400  63.7966070  16.1811480
 118.2015010  64.7159320  16.2746070 126.4305000  68.7544580  16.5729330
 126.8446020  68.9089660  17.4219750 125.4956000  68.8799800  16.7355110
 126.9027170  66.0940740  18.5768480 127.4847940  65.3393060  18.4888960
 127.0788940  66.6248180  17.7999960 118.0199240  61.2537490  16.8885430
 117.9256110  60.6358240  16.1636300 117.4396630  61.9803780  16.6615340
 120.7860680  59.8110730  13.9212820 120.3377980  59.8334990  13.0758370
 120.1525880  59.4129750  14.5183120 121.1920230  68.7065060  14.5425260
 121.6108340  69.5497790  14.3701500 120.2728860  68.8437100  14.3132040
 123.5284130  66.4381240  15.9263100 123.6480340  65.8422380  16.6657940
 124.3878130  66.4750930  15.5064400 125.8672030  66.9918430  14.5025610
 125.3407250  67.5161050  13.8990750 126.2103370  67.6245820  15.1335340
 119.0427650  75.0118070  15.6582990 118.5048740  75.7364130  15.3391690
 119.2961610  74.5348410  14.8680330 120.2952900  62.9802590  17.1838920
 120.8852590  62.6718440  17.8716740 119.4773140  62.5082340  17.3398820
 125.1146330  62.5968400  17.4171940 124.4261850  61.9349940  17.3521930
 125.8352350  62.1506670  17.8620400 125.7446730  59.1920030   3.4762200
 126.0249020  58.3487930   3.8321620 124.9712460  59.4243140   3.9900950
 121.8989860  76.2469280  15.9169640 121.8248560  77.1504420  16.2242010
 120.9968700  75.9281180  15.8891710 122.4475190  75.4127790   3.5396000
 123.3425980  75.7512760   3.5614760 122.4792820  74.6907200   2.9120280
 116.0871350  70.7854840   1.7683000 116.5246220  71.3284510   2.4240580
 116.5719080  69.9601790   1.7779340 113.3017150  73.5743870   9.2203260
 113.6320160  72.7064930   8.9881900 113.7308150  73.7802390  10.0508220
 117.8979070  71.9052880   6.8805230 117.5974610  71.7817850   7.7809140
 117.7916560  71.0461470   6.4720960 113.7907360  74.4414460  11.9584890
 113.3538350  74.6215260  12.7909040 114.3585040  75.1989080  11.8166610
 129.4269540  73.9431460  16.2462200 128.8271530  74.0024020  15.5026120
 129.5563440  73.0036440  16.3759050 130.1227450  68.4296760   4.0866110
 130.8846360  68.9993410   4.1925800 130.1381820  67.8623960   4.8574420
 113.6231790  66.9534690   8.3173770 112.9680630  66.6846330   7.6733470
 114.4609740  66.8439170   7.8675750 131.1287420  69.2846860   8.9308040
 131.4996250  68.5014180   8.5244010 131.7689350  69.9735960   8.7525340
 128.1121180  70.6683440  14.3438360 127.2981020  71.0980600  14.6064150
 128.5195380  71.2801850  13.7307410 126.5722230  61.7475980   2.5392260
 126.9907110  61.5606960   1.6988920 126.2658290  60.8955030   2.8495190
 130.0711960  66.6600120   6.2368060 129.6955560  65.8928050   5.8049350
 129.3415080  67.0422820   6.7242990 114.6607720  67.3387260  12.8577110
 115.0280760  67.2514660  13.7373130 114.0918540  66.5753810  12.7583970
 129.4611580  65.8071640  15.8707580 129.2297670  65.5784390  14.9705530
 129.7216130  66.7271190  15.8252470 114.2123720  64.2496350  16.7635530
 113.3179770  64.2163110  17.1029240 114.7521270  64.4483140  17.5286780
 127.8999650  61.0328070  18.6487280 128.7769830  61.0411470  19.0321280
 127.9120490  60.2958910  18.0379630 112.8369870  64.1633620   4.2599100
 111.9333950  64.4263820   4.0850760 113.3210490  64.4344790   3.4799060
 129.3462920  64.8857610   9.5375300 129.8700400  64.3920260   8.9065470
 129.9322340  65.0207970  10.2822870 129.5252640  64.9697480  13.0594850
 128.5755350  64.9361020  13.1739840 129.7065650  65.8797590  12.8244620
 128.8362890  64.1430960   5.4767710 129.3322010  63.9101830   6.2616590
 128.6378960  63.3042800   5.0605350 114.7163430  58.5244680  11.1118750
 115.3639620  57.9742060  10.6713910 115.1365270  58.7787830  11.9334560
 130.2650050  62.7791910   8.0105390 130.1549330  62.6247950   8.9487660
 131.0257640  62.2512850   7.7680800 128.6115770  58.7186040  14.4688390
 129.2487990  59.3320180  14.8347580 128.7590660  58.7546700  13.5237620
 131.2278810  61.3810490   3.8768240 130.4330310  61.3155610   4.4061150
 131.4322090  62.3161130   3.8653590 128.1697230  75.4202040   7.8706630
 128.7656300  75.0986610   7.1941050 128.4275380  74.9473860   8.6619900
 114.4695430  58.6800350  13.8544070 114.1210250  59.1364170  14.6202250
 114.1383130  57.7857480  13.9366500 116.0759800  71.8519950  18.0197260
 116.0329430  71.4812860  18.9011720 116.2070810  72.7897520  18.1599080
 119.7765830  73.4079540  13.6206980 119.5357190  73.6754100  12.7337500
 120.7168470  73.5785270  13.6757840 121.9820250  59.8712230  17.3763490
 121.9209140  60.4634060  18.1258900 122.9220630  59.7638190  17.2313750
 124.6194810  59.5282290  17.0155780 125.2335220  59.8461580  16.3536860
 125.1644370  59.0430880  17.6351640 131.0369990  75.4273920  14.4217620
 130.5428270  75.8242790  13.7044750 130.4283280  74.8023130  14.8154900
 115.1416070  58.2076550  17.1294840 115.6899060  58.0264600  16.3660950
 115.2071380  57.4170660  17.6651150 115.9147830  74.7982200  15.1395040
 115.3208150  74.6666900  15.8785080 115.9071670  73.9620340  14.6737140
 125.3602850  58.0914430  13.3425070 124.4862690  58.4249540  13.1398000
 125.2513600  57.6187610  14.1676940 126.2674830  60.2985300  14.7266790
 125.9388190  59.4837060  14.3468520 127.2157130  60.2555110  14.6032480
 128.7209440  76.0697340  11.7004360 128.2612410  76.8213150  11.3262380
 128.0921900  75.3503810  11.6419160 115.5460060  72.1640580  14.0903080
 114.8194120  71.5445870  14.0229030 115.6069210  72.5581190  13.2201160
 119.1505160  74.3785580  10.8752490 119.6670180  73.7672940  10.3500750
 119.8002540  74.8814360  11.3663500 121.8900660  75.2694070  11.7021470
 122.1778470  75.0148370  10.8254480 122.4023880  74.7171430  12.2927040
 123.1077670  59.0084270  12.2817980 122.3249460  59.4829770  12.5614740
 122.8140600  58.1039100  12.1731160 127.6598740  59.7107370  10.3267070
 128.1006830  59.6552470   9.4788670 127.3906330  60.6265380  10.3977250
 129.5237310  59.3422610   8.3375890 129.4625710  58.3983830   8.1906910
 130.3029340  59.4502700   8.8829350 113.8290060  75.4814970   7.2999840
 113.6612100  74.8485650   7.9981730 112.9624570  75.6874370   6.9494030
 114.4518080  59.3131750   4.8031700 115.2097440  59.4260630   4.2295730
 113.9895250  60.1500950   4.7575130 120.9931890  61.4271020   7.7934010
 120.1806400  61.0527910   7.4529890 121.4973530  60.6716100   8.0955200
 125.4956870  58.0913470   9.0317080 126.0986240  58.6633680   9.5065600
 124.7549860  58.6552910   8.8090980 128.6391470  58.4935030   4.3057360
 128.8342100  59.3918480   4.5724790 127.8521340  58.2622110   4.7990310
 115.4352760  74.1748200   4.7449980 114.9100380  74.5556230   4.0411940
 115.3597340  74.7998970   5.4659690 116.8243230  59.8395800   3.3433670
 117.3535990  59.0525600   3.2141620 117.4571550  60.5186990   3.5769200
 119.0181070  59.5770940   6.3979060 118.3883810  58.8758250   6.5649190
 118.4786210  60.3375070   6.1812220 121.9573020  76.1910170  19.0689670
 122.8840330  75.9554440  19.1125630 121.9423450  77.0182170  18.5875700
 130.1918080  75.7335740   6.0663920 130.3670270  75.0473480   5.4224840
 129.4939650  76.2582790   5.6740590 119.1436630  58.8554920  18.8331550
 118.8620900  59.3588520  18.0692370 119.5256330  58.0576670  18.4673680
 118.0345730  76.1230580   3.6199230 118.7664550  75.8389860   3.0723120
 118.2939400  75.8843860   4.5098610 117.1960520  72.2395310   3.6245560
 116.5669400  72.7080410   4.1731390 117.3108350  71.3944530   4.0591750
 125.7452090  58.2708500  19.4112020 125.6317540  58.5903110  20.3063540
 126.5621830  58.6721010  19.1149300 128.5250580  75.4180030  18.8930710
 129.3175900  74.9229260  18.6856670 128.8183730  76.0970170  19.5006320
 124.6510240  47.5157480 139.9694680 124.5704290  46.6012090 139.6986390
 124.2374660  48.0124550 139.2634390 122.7828280  49.2936500 141.8503950
 122.0070380  48.8136940 142.1402520 123.4341210  48.6142150 141.6760110
 116.7994110  49.6056310 142.7279710 115.9678990  49.3505020 143.1276220
 117.4075090  49.6767080 143.4637630 126.8035710  53.6996690 140.6303080
 126.3417240  52.9283930 140.9590250 127.6161260  53.7262760 141.1355530
 116.7795370  53.6396400 142.9237730 117.0823410  52.7494140 142.7447950
 117.5238960  54.1966620 142.6959980 115.2086060  44.5658200 136.5122100
 114.3202760  44.9074170 136.4101980 115.4927250  44.3658520 135.6202930
 113.1719070  47.1663850 142.3961800 113.7435180  46.3986050 142.3965440
 113.1720610  47.4652610 141.4868410 123.0299020  55.9854700 140.2507070
 122.4110460  56.4412200 139.6801510 123.8850800  56.1406160 139.8496770
 122.2237270  51.9693690 141.8574110 122.1545550  51.0283630 141.6963240
 122.9857130  52.0595100 142.4296680 114.4143940  42.5748210 144.1830730
 114.2346780  41.6773960 144.4633490 114.0124020  43.1220080 144.8577680
 123.2542440  44.7764070 142.0843040 123.6307260  43.9035950 141.9716710
 123.1561950  45.1122770 141.1933480 117.3847450  43.1489700 137.5460480
 117.4914200  44.0493430 137.8529240 116.4739810  43.1007670 137.2555130
 127.0366560  42.2714510 139.0171380 127.8576180  41.7811080 139.0596860
 127.0700640  42.8612170 139.7703220 115.0330610  45.0708710 142.7913070
 115.7140720  45.3347080 143.4100470 114.7178660  44.2309580 143.1251080
 119.2255180  46.1176070 141.8785660 119.7333400  46.6157040 142.5190680
 119.7568420  45.3411270 141.7025020 131.3266110  44.2881260 145.5815010
 130.6218280  44.6762970 145.0630120 131.5924030  44.9831550 146.1835940
 117.5091280  40.7574630 146.1449080 117.5109720  41.2747020 145.3394980
 116.6795590  40.2804810 146.1219010 123.8962370  50.8693940 137.6438980
 123.2779640  51.3343390 137.0801700 124.4085620  51.5621420 138.0608490
 118.7594130  50.3969810 144.3222580 118.4263510  51.0238730 144.9643650
 118.9360810  50.9231690 143.5424250 127.2728040  44.2114890 141.7898920
 126.5683610  44.4999780 142.3702030 127.6340200  45.0215000 141.4298480
 117.1906610  42.4684590 144.1519530 117.5323420  43.3126640 143.8573400
 116.2522420  42.6168330 144.2684870 117.9713230  52.3650610 146.1371760
 118.5887230  53.0401690 145.8556210 117.1106350  52.7738590 146.0459260
 113.2645570  51.5550470 135.0178610 112.8873550  52.0437570 134.2863510
 113.5218640  52.2275750 135.6485140 128.8890820  53.8290020 144.0526400
 128.2054340  54.4989130 144.0443070 129.4285110  54.0270670 143.2871260
 130.3414960  43.6569680 142.1808130 129.3939870  43.6908660 142.3123560
 130.6664950  44.4708630 142.5657490 120.8734500  39.9566860 140.4764120
 121.1809480  39.4013750 139.7599620 119.9435200  40.0911320 140.2937110
 126.4249560  55.6734150 142.7671580 126.4376720  55.2696440 141.8993840
 125.8724780  56.4481440 142.6633010 127.7194980  52.3950370 137.8561750
 127.6091310  51.4524700 137.9811170 127.7163230  52.7566010 138.7424510
 125.8235000  50.5763990 144.0954190 126.2403790  50.3624100 143.2607650
 126.5474820  50.8336780 144.6662810 123.2615260  48.0215690 137.2124240
 122.3344540  47.9553070 137.4412710 123.4140080  48.9595820 137.0979480
 123.2484340  44.2932690 134.2091400 122.3088010  44.4546650 134.2943860
 123.5667600  45.0118370 133.6627390 129.7697100  48.9751210 144.1870430
 128.9415730  49.0444300 143.7120560 130.3647580  49.5605520 143.7186260
 127.2912550  49.5835990 137.7159490 126.6724970  49.2455540 137.0685790
 127.2737000  48.9395750 138.4238680 126.7339110  45.7620530 145.1325300
 126.3210290  46.5874240 145.3865290 126.0015060  45.1765570 144.9401660
 118.8671900  48.5480430 139.9943970 118.4628900  47.8357680 139.4989870
 118.9535020  48.2033670 140.8832010 119.3353600  52.2347990 142.1583180
 119.0381890  51.6293460 141.4790960 120.2853420  52.2725300 142.0472540
 117.5800520  45.3223640 143.7743010 118.1315110  45.4318980 142.9996260
 118.0944030  45.6961240 144.4898240 127.4239210  55.8079860 145.8206280
 126.9469770  56.6152050 145.6278890 126.7401000  55.1558190 145.9732490
 118.4272030  51.9729680 148.8090980 117.5300560  52.1969650 149.0564380
 118.4524900  52.0964620 147.8602380 125.4677250  48.8222800 134.7232240
 125.9070530  47.9845230 134.5770060 126.1805670  49.4552200 134.8096380
 117.2543250  48.8443000 147.3848350 117.1151020  49.7165800 147.7535750
 116.3724610  48.5015810 147.2396290 123.5772630  53.7618870 138.6913480
 124.0168540  54.5043200 138.2768870 123.5159520  54.0045440 139.6152440
 119.0523600  54.7864700 149.5933500 119.0239030  55.1907650 148.7261930
 118.8888570  53.8575060 149.4305100 129.0494390  40.0765610 133.0373280
 128.7367050  40.1692440 133.9372350 129.8106860  40.6546640 132.9870710
 115.5676530  47.4425410 137.4950620 115.4474130  48.1687500 136.8831890
 115.2577420  46.6728320 137.0178530 113.2061900  50.6140550 143.3019260
 113.2842320  50.7489320 142.3574980 113.8203580  49.9056440 143.4947380
 114.4509530  52.3140740 139.7125440 114.0437610  52.4555330 138.8579040
 115.3422540  52.0300900 139.5096650 130.4071670  52.7604650 148.0497680
 130.5334730  52.5216530 147.1314860 130.4493050  51.9289190 148.5219760
 124.2688410  56.4632650 146.6192490 124.7833080  56.3740660 147.4214920
 123.4257490  56.8092350 146.9120400 126.2442810  56.7487990 136.0476490
 126.0843950  56.4590930 136.9458320 126.0789520  55.9728120 135.5121720
 118.7231190  56.5286520 137.8248110 118.5473670  55.6122060 137.6115910
 117.8686930  56.8873810 138.0645910 125.9468940  54.2575550 134.6074490
 125.2534100  54.2552840 133.9476770 126.6891800  53.8334870 134.1768660
 125.5118870  55.8838260 138.6822980 125.9675820  55.1027640 138.9961600
 125.8511390  56.5945080 139.2264160 130.2595680  44.8137110 149.0147420
 129.6439950  45.3216780 148.4862880 129.9392100  43.9135440 148.9573360
 113.2621420  51.6554720 145.8413720 113.4252460  51.1860080 145.0233090
 113.7273870  51.1478280 146.5062560 118.0340190  40.7860480 140.8774290
 117.5908340  41.5670020 140.5458810 118.5925180  41.1090370 141.5845230
 122.3210000  43.6529000 146.4809610 121.8589370  43.8612020 147.2929550
 121.9188110  42.8388350 146.1780280 127.3214510  44.8737950 147.6106270
 126.4708100  44.5743700 147.9315340 127.1616300  45.1179960 146.6990090
 124.4164220  46.3739700 149.7105060 124.7417630  45.5403450 149.3707290
 125.2044550  46.8968220 149.8583390 121.1499010  40.4071180 135.7580120
 120.5253190  40.4031050 136.4833430 121.0629130  39.5402140 135.3616090
 120.0716090  41.3307810 142.7363890 120.3688420  42.2370640 142.6555910
 120.6201650  40.8426590 142.1223460 117.8254410  45.9094050 138.6055540
 117.5995330  45.6931220 139.5102160 117.0446940  46.3422510 138.2601510
 125.0552170  45.9157420 137.2046190 124.4561060  46.6393220 137.0209810
 125.6031780  45.8534200 136.4222640 120.2653620  46.8079630 149.2715810
 120.1697220  45.8674360 149.1216210 121.1085600  47.0294700 148.8763880
 123.6617040  44.5520960 139.2349470 124.0546610  44.8693160 138.4218160
 124.0233890  43.6732840 139.3493990 115.3964160  43.2193300 147.4249590
 115.0027550  44.0668510 147.6322370 114.7082560  42.5819670 147.6158230
 112.6981210  41.1421760 141.4579670 112.4094260  41.7124620 142.1704650
 113.4426970  40.6626210 141.8210900 112.8851440  45.0841880 132.6682390
 112.8026110  46.0272640 132.8097380 112.5334500  44.9416790 131.7894740
 124.2472180  47.1426710 143.3300250 123.5153300  47.6513520 143.6790350
 123.8496520  46.3256690 143.0289030 120.6849570  43.8180910 141.7352740
 120.6885630  43.3770860 140.8857280 121.5800690  44.1398240 141.8424560
 116.5351950  43.7007400 140.6946950 116.1952000  44.1782630 141.4514000
 115.7729270  43.2472520 140.3348050 120.7469720  44.8192990 134.7259500
 120.8682540  44.7779470 135.6745320 120.3618230  45.6817140 134.5706230
 124.7098090  42.5960390 142.7423190 124.7270830  43.0469040 143.5865040
 124.4613670  41.6966030 142.9556630 119.7591220  47.1294130 134.1242800
 119.1908120  46.6812380 133.4978710 120.4680220  47.4886910 133.5907950
 128.1368840  40.0092570 148.5809570 128.4614610  39.2782230 149.1067550
 128.1725350  39.6906210 147.6790560 114.8360400  51.0306150 148.0009530
 114.4515190  50.3899820 148.5992490 115.1472590  51.7342270 148.5704260
 120.9857540  47.8782690 143.4818150 121.3527670  47.4041260 144.2279490
 120.7962600  48.7524260 143.8226490 113.8498030  42.6226380 139.6111620
 113.5644950  42.2582050 140.4490240 113.7876890  41.8906840 138.9974760
 118.7756910  46.9191330 145.8002360 118.4713980  47.7983310 146.0252720
 119.7303370  46.9791120 145.8359800 117.3038700  51.1252320 136.3969210
 116.5300960  50.5849940 136.2367930 118.0333330  50.6058930 136.0586970
 128.0626680  50.1217680 142.1895600 128.7825800  50.6172970 141.7991710
 127.8608500  49.4435570 141.5449470 123.5236620  41.5155640 136.3324990
 122.7101230  41.0168810 136.2570300 123.3298570  42.3553890 135.9161340
 123.4445480  50.1926740 148.0764600 123.3782790  49.2722410 147.8222190
 122.8150620  50.2902180 148.7909240 126.2385010  45.8875290 134.6287150
 127.1264630  46.1992520 134.4538490 126.2090100  45.0147540 134.2367730
 117.3476100  50.7932700 140.0348020 117.8654770  49.9900960 139.9804910
 116.8960120  50.7311840 140.8764850 122.2345600  52.0598980 135.3075320
 122.5761300  52.8041210 134.8118640 121.4058310  52.3730100 135.6700150
 114.8320640  47.7594070 146.9473720 114.4735580  48.4247920 147.5347060
 114.5375200  46.9277620 147.3186340 118.0333760  48.2178310 149.8313270
 117.7333900  48.3635490 148.9341090 118.8045000  47.6583600 149.7386660
 123.3762210  53.0147310 147.8268400 123.3906750  52.0828270 147.6087310
 122.6687310  53.1007070 148.4658170 128.5099280  47.1987130 134.0967010
 128.4263000  47.6301350 133.2463450 129.2293470  47.6585480 134.5293830
 129.5873420  49.6554650 147.1736980 128.8621610  50.2483430 146.9766370
 130.1148880  49.6478190 146.3750350 129.5386530  54.0529390 136.8249140
 128.8962690  53.3985010 137.0992860 129.1517190  54.4584480 136.0489810
 125.1173010  51.3814820 140.6720830 125.4696830  50.7842950 140.0122200
 124.2335340  51.0559050 140.8429080 121.2036290  52.1412510 138.0791240
 121.8907420  52.6881720 138.4598830 120.4168710  52.6853240 138.1140850
 113.3428690  47.7585330 133.5708320 114.2123540  48.0410130 133.8544240
 112.8519010  48.5721200 133.4557130 120.5063500  49.1458540 137.6916600
 120.9626280  49.9563790 137.9176790 120.1551710  48.8281680 138.5235090
 122.8096110  54.6564880 144.9208900 123.4538330  54.8624260 145.5982320
 123.1725550  53.8953280 144.4679750 116.4075280  39.4896190 138.1639120
 116.2789910  39.4814090 139.1124040 115.5837300  39.8279280 137.8130130
 124.0828190  52.6597230 143.6386350 124.7250420  51.9590390 143.7518520
 124.6077540  53.4395670 143.4583240 127.9283910  52.9445850 133.3625490
 127.7021490  52.2276290 133.9550130 127.5380110  52.6958290 132.5247240
 125.8565810  53.4592130 146.8422410 126.1922050  54.0458820 147.5200330
 124.9366150  53.3284840 147.0720200 113.7099940  56.9712710 134.1369950
 114.0697580  57.5702050 133.4827220 113.5692280  57.5172600 134.9104980
 113.4069210  41.2487310 147.6245820 112.6927730  41.4484230 148.2298430
 113.8264250  40.4726880 147.9960620 127.5100160  50.8617790 135.0239650
 127.2221860  51.3230480 135.8117530 128.3052330  50.4015560 135.2923870
 113.6941800  55.2367570 148.6112350 113.8032920  54.2962310 148.4707740
 113.0422360  55.5022320 147.9626080 119.7268560  54.3543910 134.9543620
 119.7178660  55.0873600 134.3388130 118.8066920  54.1075490 135.0470580
 115.3275200  49.5758800 135.6990380 114.7203150  50.3157700 135.7085680
 115.8024550  49.6658160 134.8728580 124.9007990  43.7409620 145.3747270
 125.2688810  42.9204830 145.7026840 124.0406190  43.8011510 145.7902920
 128.2670020  42.6966560 136.1834830 127.6383180  42.8012230 135.4693060
 127.7721940  42.9163340 136.9728710 122.7128160  54.4172150 133.6168810
 122.8140140  54.2136140 132.6870790 121.8129900  54.1630430 133.8216590
 120.2354050  44.9752510 137.5992710 119.5270200  45.4438850 138.0406320
 120.5198530  44.3174520 138.2337900 121.8609980  46.3949210 145.5985240
 122.3595230  46.8695030 146.2637090 122.0032930  45.4712730 145.8055270
 124.2669480  41.7003170 139.0388500 124.1437260  41.7189300 138.0898010
 125.2154040  41.7482110 139.1586900 121.3546270  56.9358470 138.3116480
 121.6087770  56.8979860 137.3895850 120.4058750  56.8091800 138.3044730
 118.4389070  43.2837590 134.9743420 119.2879600  43.7207740 134.9083610
 118.0720340  43.5957850 135.8015480 129.0676840  42.6117170 146.4413630
 128.5650440  43.3522570 146.7807440 129.8833500  43.0001170 146.1250420
 127.3598850  47.8550350 139.8874990 126.4188990  47.8700580 140.0622680
 127.6742920  47.0686310 140.3335290 117.3380490  49.5369950 133.4478950
 118.1043760  49.4251310 134.0104380 117.4155180  48.8407920 132.7955720
 116.0327250  46.9695020 134.1311840 116.1130840  46.0222530 134.2429240
 116.9247000  47.3001900 134.2372500 129.3624430  55.0259200 141.5629250
 129.4871850  55.8490370 142.0353060 130.2289990  54.8149930 141.2153400
 116.8341960  57.1190410 141.2346380 117.5704440  56.5705870 141.5054950
 117.2182880  57.9846420 141.0952370 113.7187440  53.1863980 137.1087890
 112.7927220  53.4285120 137.0993300 114.1843870  54.0138240 136.9872640
 119.9444270  56.2920720 133.0571950 120.7372880  56.5809550 132.6053740
 119.4248620  55.8612890 132.3784430 126.1065240  56.1396640 148.9816780
 127.0586990  56.0554660 148.9317020 125.9593460  56.8038350 149.6550570
 128.9974440  55.5190850 134.4808690 128.7115950  55.1055990 133.6662870
 128.7993990  56.4478560 134.3609210 113.5598050  48.7909940 149.3668010
 114.0637070  48.2117220 149.9384240 112.8205470  49.0750170 149.9044380
 120.4621670  51.5124130 132.9214300 120.3572310  50.8976480 133.6475680
 120.2945890  50.9890020 132.1377310 120.6135990  50.1980930 148.9003530
 119.8481660  50.7665930 148.8158200 120.7951950  49.9057140 148.0071760
 123.7024400  50.5744160 133.5256290 123.1534500  51.0213460 134.1699030
 124.3243660  50.0693410 134.0493960 127.7559340  51.9286260 149.4578550
 128.4968810  52.2662020 148.9546010 126.9932020  52.0978320 148.9048320
 119.3699520  49.5335080 135.4221590 119.7915940  49.3674950 136.2652980
 119.4950360  48.7235310 134.9276730 117.5326940  45.5131630 148.2292570
 117.0023400  45.0222580 147.6015910 118.2015010  45.9415830 147.6950500
 121.8827160  48.5572690 132.6698690 122.4032820  47.8421710 132.3039840
 122.5295560  49.1958560 132.9699200 126.4305000  49.9801090 147.9933760
 126.8446020  50.1346170 148.8424180 125.4956000  50.1056310 148.1559540
 126.9027170  47.3197250 149.9972910 127.4847940  46.5649570 149.9093390
 127.0788940  47.8504690 149.2204390 118.0199240  42.4794000 148.3089860
 117.9256110  41.8614750 147.5840730 117.4396630  43.2060290 148.0819770
 120.7860680  41.0367240 145.3417250 120.3377980  41.0591500 144.4962800
 120.1525880  40.6386260 145.9387550 121.1920230  49.9321570 145.9629690
 121.6108340  50.7754300 145.7905930 120.2728860  50.0693610 145.7336470
 123.5284130  47.6637750 147.3467530 123.6480340  47.0678890 148.0862370
 124.3878130  47.7007440 146.9268830 125.8672030  48.2174940 145.9230040
 125.3407250  48.7417560 145.3195180 126.2103370  48.8502330 146.5539770
 118.2658420  45.6068310 132.3679750 118.0647480  44.7435670 132.7293090
 118.0950470  45.5201670 131.4301350 119.0427650  56.2374580 147.0787420
 118.5048740  56.9620640 146.7596120 119.2961610  55.7604920 146.2884760
 120.2952900  44.2059100 148.6043350 120.8852590  43.8974950 149.2921170
 119.4773140  43.7338850 148.7603250 125.1146330  43.8224910 148.8376370
 124.4261850  43.1606450 148.7726360 125.8352350  43.3763180 149.2824830
 125.7446730  40.4176540 134.8966630 126.0249020  39.5744440 135.2526050
 124.9712460  40.6499650 135.4105380 117.0641220  42.7068930 132.3557630
 117.3667120  42.7136360 131.4476780 117.8035810  42.3566790 132.8525290
 121.8989860  57.4725790 147.3374070 121.8248560  58.3760930 147.6446440
 120.9968700  57.1537690 147.3096140 120.2826150  41.6503550 133.3413830
 119.9348150  40.9727540 132.7616280 120.4838920  41.1893060 134.1557220
 122.4475190  56.6384300 134.9600430 123.3425980  56.9769270 134.9819190
 122.4792820  55.9163710 134.3324710 116.0871350  52.0111350 133.1887430
 116.5246220  52.5541020 133.8445010 116.5719080  51.1858300 133.1983770
 113.3017150  54.8000380 140.6407690 113.6320160  53.9321440 140.4086330
 113.7308150  55.0058900 141.4712650 117.8979070  53.1309390 138.3009660
 117.5974610  53.0074360 139.2013570 117.7916560  52.2717980 137.8925390
 113.7907360  55.6670970 143.3789320 113.3538350  55.8471770 144.2113470
 114.3585040  56.4245590 143.2371040 129.4269540  55.1687970 147.6666630
 128.8271530  55.2280530 146.9230550 129.5563440  54.2292950 147.7963480
 130.6670990  52.9105790 133.0036340 129.8363950  52.9782440 133.4743570
 130.8442820  53.8009910 132.7003200 130.1227450  49.6553270 135.5070540
 130.8846360  50.2249920 135.6130230 130.1381820  49.0880470 136.2778850
 113.6231790  48.1791200 139.7378200 112.9680630  47.9102840 139.0937900
 114.4609740  48.0695680 139.2880180 131.1287420  50.5103370 140.3512470
 131.4996250  49.7270690 139.9448440 131.7689350  51.1992470 140.1729770
 128.1121180  51.8939950 145.7642790 127.2981020  52.3237110 146.0268580
 128.5195380  52.5058360 145.1511840 130.1746620  49.9487640 132.6643060
 130.4495460  50.8566520 132.5362280 129.9857360  49.8850170 133.6005050
 126.5722230  42.9732490 133.9596690 126.9907110  42.7863470 133.1193350
 126.2658290  42.1211540 134.2699620 130.0711960  47.8856630 137.6572490
 129.6955560  47.1184560 137.2253780 129.3415080  48.2679330 138.1447420
 114.6607720  48.5643770 144.2781540 115.0280760  48.4771170 145.1577560
 114.0918540  47.8010320 144.1788400 129.4611580  47.0328150 147.2912010
 129.2297670  46.8040900 146.3909960 129.7216130  47.9527700 147.2456900
 114.2123720  45.4752860 148.1839960 113.3179770  45.4419620 148.5233670
 114.7521270  45.6739650 148.9491210 112.8369870  45.3890130 135.6803530
 111.9333950  45.6520330 135.5055190 113.3210490  45.6601300 134.9003490
 129.3462920  46.1114120 140.9579730 129.8700400  45.6176770 140.3269900
 129.9322340  46.2464480 141.7027300 129.5252640  46.1953990 144.4799280
 128.5755350  46.1617530 144.5944270 129.7065650  47.1054100 144.2449050
 115.3797080  44.4455670 133.5897910 116.0888780  44.0238890 133.1045190
 114.6637020  44.5130900 132.9581260 115.0271240  40.4995000 132.6300560
 115.7499370  41.0403940 132.9481780 115.2995760  40.2258420 131.7542100
 128.8362890  45.3687470 136.8972140 129.3322010  45.1358340 137.6821020
 128.6378960  44.5299310 136.4809780 114.7163430  39.7501190 142.5323180
 115.3639620  39.1998570 142.0918340 115.1365270  40.0044340 143.3538990
 130.2650050  44.0048420 139.4309820 130.1549330  43.8504460 140.3692090
 131.0257640  43.4769360 139.1885230 128.6115770  39.9442550 145.8892820
 129.2487990  40.5576690 146.2552010 128.7590660  39.9803210 144.9442050
 131.1540320  41.8356340 132.6715960 132.0789630  41.7037520 132.4634250
 131.1316110  41.9149160 133.6252410 131.2278810  42.6067000 135.2972670
 130.4330310  42.5412120 135.8265580 131.4322090  43.5417640 135.2858020
 128.1697230  56.6458550 139.2911060 128.7656300  56.3243120 138.6145480
 128.4275380  56.1730370 140.0824330 114.4695430  39.9056860 145.2748500
 114.1210250  40.3620680 146.0406680 114.1383130  39.0113990 145.3570930
 119.7765830  54.6336050 145.0411410 119.5357190  54.9010610 144.1541930
 120.7168470  54.8041780 145.0962270 121.9820250  41.0968740 148.7967920
 121.9209140  41.6890570 149.5463330 122.9220630  40.9894700 148.6518180
 124.6194810  40.7538800 148.4360210 125.2335220  41.0718090 147.7741290
 125.1644370  40.2687390 149.0556070 131.0369990  56.6530430 145.8422050
 130.5428270  57.0499300 145.1249180 130.4283280  56.0279640 146.2359330
 115.1416070  39.4333060 148.5499270 115.6899060  39.2521110 147.7865380
 115.2071380  38.6427170 149.0855580 115.9147830  56.0238710 146.5599470
 115.3208150  55.8923410 147.2989510 115.9071670  55.1876850 146.0941570
 125.3602850  39.3170940 144.7629500 124.4862690  39.6506050 144.5602430
 125.2513600  38.8444120 145.5881370 126.2674830  41.5241810 146.1471220
 125.9388190  40.7093570 145.7672950 127.2157130  41.4811620 146.0236910
 128.7209440  57.2953850 143.1208790 128.2612410  58.0469660 142.7466810
 128.0921900  56.5760320 143.0623590 115.5460060  53.3897090 145.5107510
 114.8194120  52.7702380 145.4433460 115.6069210  53.7837700 144.6405590
 119.1505160  55.6042090 142.2956920 119.6670180  54.9929450 141.7705180
 119.8002540  56.1070870 142.7867930 121.8900660  56.4950580 143.1225900
 122.1778470  56.2404880 142.2458910 122.4023880  55.9427940 143.7131470
 123.1077670  40.2340780 143.7022410 122.3249460  40.7086280 143.9819170
 122.8140600  39.3295610 143.5935590 127.6598740  40.9363880 141.7471500
 128.1006830  40.8808980 140.8993100 127.3906330  41.8521890 141.8181680
 129.5237310  40.5679120 139.7580320 129.4625710  39.6240340 139.6111340
 130.3029340  40.6759210 140.3033780 113.8290060  56.7071480 138.7204270
 113.6612100  56.0742160 139.4186160 112.9624570  56.9130880 138.3698460
 114.4518080  40.5388260 136.2236130 115.2097440  40.6517140 135.6500160
 113.9895250  41.3757460 136.1779560 120.9931890  42.6527530 139.2138440
 120.1806400  42.2784420 138.8734320 121.4973530  41.8972610 139.5159630
 125.4956870  39.3169980 140.4521510 126.0986240  39.8890190 140.9270030
 124.7549860  39.8809420 140.2295410 128.6391470  39.7191540 135.7261790
 128.8342100  40.6174990 135.9929220 127.8521340  39.4878620 136.2194740
 115.4352760  55.4004710 136.1654410 114.9100380  55.7812740 135.4616370
 115.3597340  56.0255480 136.8864120 116.8243230  41.0652310 134.7638100
 117.3535990  40.2782110 134.6346050 117.4571550  41.7443500 134.9973630
 119.0181070  40.8027450 137.8183490 118.3883810  40.1014760 137.9853620
 118.4786210  41.5631580 137.6016650 130.1918080  56.9592250 137.4868350
 130.3670270  56.2729990 136.8429270 129.4939650  57.4839300 137.0945020
 118.0345730  57.3487090 135.0403660 118.7664550  57.0646370 134.4927550
 118.2939400  57.1100370 135.9303040 117.1960520  53.4651820 135.0449990
 116.5669400  53.9336920 135.5935820 117.3108350  52.6201040 135.4796180
 124.6510240  47.5157480 121.1951190 124.5704290  46.6012090 120.9242900
 124.2374660  48.0124550 120.4890900 122.7828280  49.2936500 123.0760460
 122.0070380  48.8136940 123.3659030 123.4341210  48.6142150 122.9016620
 116.7994110  49.6056310 123.9536220 115.9678990  49.3505020 124.3532730
 117.4075090  49.6767080 124.6894140 126.8035710  53.6996690 121.8559590
 126.3417240  52.9283930 122.1846760 127.6161260  53.7262760 122.3612040
 116.7795370  53.6396400 124.1494240 117.0823410  52.7494140 123.9704460
 117.5238960  54.1966620 123.9216490 115.2086060  44.5658200 117.7378610
 114.3202760  44.9074170 117.6358490 115.4927250  44.3658520 116.8459440
 113.1719070  47.1663850 123.6218310 113.7435180  46.3986050 123.6221950
 113.1720610  47.4652610 122.7124920 123.0299020  55.9854700 121.4763580
 122.4110460  56.4412200 120.9058020 123.8850800  56.1406160 121.0753280
 122.2237270  51.9693690 123.0830620 122.1545550  51.0283630 122.9219750
 122.9857130  52.0595100 123.6553190 114.4143940  42.5748210 125.4087240
 114.2346780  41.6773960 125.6890000 114.0124020  43.1220080 126.0834190
 123.2542440  44.7764070 123.3099550 123.6307260  43.9035950 123.1973220
 123.1561950  45.1122770 122.4189990 117.3847450  43.1489700 118.7716990
 117.4914200  44.0493430 119.0785750 116.4739810  43.1007670 118.4811640
 127.0366560  42.2714510 120.2427890 127.8576180  41.7811080 120.2853370
 127.0700640  42.8612170 120.9959730 115.0330610  45.0708710 124.0169580
 115.7140720  45.3347080 124.6356980 114.7178660  44.2309580 124.3507590
 119.2255180  46.1176070 123.1042170 119.7333400  46.6157040 123.7447190
 119.7568420  45.3411270 122.9281530 131.3266110  44.2881260 126.8071520
 130.6218280  44.6762970 126.2886630 131.5924030  44.9831550 127.4092450
 117.5091280  40.7574630 127.3705590 117.5109720  41.2747020 126.5651490
 116.6795590  40.2804810 127.3475520 123.8962370  50.8693940 118.8695490
 123.2779640  51.3343390 118.3058210 124.4085620  51.5621420 119.2865000
 118.7594130  50.3969810 125.5479090 118.4263510  51.0238730 126.1900160
 118.9360810  50.9231690 124.7680760 127.2728040  44.2114890 123.0155430
 126.5683610  44.4999780 123.5958540 127.6340200  45.0215000 122.6554990
 117.1906610  42.4684590 125.3776040 117.5323420  43.3126640 125.0829910
 116.2522420  42.6168330 125.4941380 117.9713230  52.3650610 127.3628270
 118.5887230  53.0401690 127.0812720 117.1106350  52.7738590 127.2715770
 128.8890820  53.8290020 125.2782910 128.2054340  54.4989130 125.2699580
 129.4285110  54.0270670 124.5127770 130.3414960  43.6569680 123.4064640
 129.3939870  43.6908660 123.5380070 130.6664950  44.4708630 123.7914000
 120.8734500  39.9566860 121.7020630 121.1809480  39.4013750 120.9856130
 119.9435200  40.0911320 121.5193620 126.4249560  55.6734150 123.9928090
 126.4376720  55.2696440 123.1250350 125.8724780  56.4481440 123.8889520
 127.7194980  52.3950370 119.0818260 127.6091310  51.4524700 119.2067680
 127.7163230  52.7566010 119.9681020 125.8235000  50.5763990 125.3210700
 126.2403790  50.3624100 124.4864160 126.5474820  50.8336780 125.8919320
 123.2615260  48.0215690 118.4380750 122.3344540  47.9553070 118.6669220
 123.4140080  48.9595820 118.3235990 123.2484340  44.2932690 115.4347910
 122.3088010  44.4546650 115.5200370 123.5667600  45.0118370 114.8883900
 129.7697100  48.9751210 125.4126940 128.9415730  49.0444300 124.9377070
 130.3647580  49.5605520 124.9442770 127.2912550  49.5835990 118.9416000
 126.6724970  49.2455540 118.2942300 127.2737000  48.9395750 119.6495190
 126.7339110  45.7620530 126.3581810 126.3210290  46.5874240 126.6121800
 126.0015060  45.1765570 126.1658170 118.8671900  48.5480430 121.2200480
 118.4628900  47.8357680 120.7246380 118.9535020  48.2033670 122.1088520
 119.3353600  52.2347990 123.3839690 119.0381890  51.6293460 122.7047470
 120.2853420  52.2725300 123.2729050 117.5800520  45.3223640 124.9999520
 118.1315110  45.4318980 124.2252770 118.0944030  45.6961240 125.7154750
 127.4239210  55.8079860 127.0462790 126.9469770  56.6152050 126.8535400
 126.7401000  55.1558190 127.1989000 118.4272030  51.9729680 130.0347490
 117.5300560  52.1969650 130.2820890 118.4524900  52.0964620 129.0858890
 125.4677250  48.8222800 115.9488750 125.9070530  47.9845230 115.8026570
 126.1805670  49.4552200 116.0352890 117.2543250  48.8443000 128.6104860
 117.1151020  49.7165800 128.9792260 116.3724610  48.5015810 128.4652800
 123.5772630  53.7618870 119.9169990 124.0168540  54.5043200 119.5025380
 123.5159520  54.0045440 120.8408950 119.0523600  54.7864700 130.8190010
 119.0239030  55.1907650 129.9518440 118.8888570  53.8575060 130.6561610
 129.0494390  40.0765610 114.2629790 128.7367050  40.1692440 115.1628860
 129.8106860  40.6546640 114.2127220 115.5676530  47.4425410 118.7207130
 115.4474130  48.1687500 118.1088400 115.2577420  46.6728320 118.2435040
 131.0038420  55.5691800 132.1154180 131.4798140  56.0474690 132.7943260
 131.6245580  55.5009290 131.3899680 113.2061900  50.6140550 124.5275770
 113.2842320  50.7489320 123.5831490 113.8203580  49.9056440 124.7203890
 114.4509530  52.3140740 120.9381950 114.0437610  52.4555330 120.0835550
 115.3422540  52.0300900 120.7353160 130.4071670  52.7604650 129.2754190
 130.5334730  52.5216530 128.3571370 130.4493050  51.9289190 129.7476270
 124.2688410  56.4632650 127.8449000 124.7833080  56.3740660 128.6471430
 123.4257490  56.8092350 128.1376910 126.2442810  56.7487990 117.2733000
 126.0843950  56.4590930 118.1714830 126.0789520  55.9728120 116.7378230
 118.7231190  56.5286520 119.0504620 118.5473670  55.6122060 118.8372420
 117.8686930  56.8873810 119.2902420 125.9468940  54.2575550 115.8331000
 125.2534100  54.2552840 115.1733280 126.6891800  53.8334870 115.4025170
 125.5118870  55.8838260 119.9079490 125.9675820  55.1027640 120.2218110
 125.8511390  56.5945080 120.4520670 130.2595680  44.8137110 130.2403930
 129.6439950  45.3216780 129.7119390 129.9392100  43.9135440 130.1829870
 113.2621420  51.6554720 127.0670230 113.4252460  51.1860080 126.2489600
 113.7273870  51.1478280 127.7319070 118.0340190  40.7860480 122.1030800
 117.5908340  41.5670020 121.7715320 118.5925180  41.1090370 122.8101740
 122.3210000  43.6529000 127.7066120 121.8589370  43.8612020 128.5186060
 121.9188110  42.8388350 127.4036790 127.3214510  44.8737950 128.8362780
 126.4708100  44.5743700 129.1571850 127.1616300  45.1179960 127.9246600
 124.4164220  46.3739700 130.9361570 124.7417630  45.5403450 130.5963800
 125.2044550  46.8968220 131.0839900 121.1499010  40.4071180 116.9836630
 120.5253190  40.4031050 117.7089940 121.0629130  39.5402140 116.5872600
 120.0716090  41.3307810 123.9620400 120.3688420  42.2370640 123.8812420
 120.6201650  40.8426590 123.3479970 117.8254410  45.9094050 119.8312050
 117.5995330  45.6931220 120.7358670 117.0446940  46.3422510 119.4858020
 125.0552170  45.9157420 118.4302700 124.4561060  46.6393220 118.2466320
 125.6031780  45.8534200 117.6479150 120.2653620  46.8079630 130.4972320
 120.1697220  45.8674360 130.3472720 121.1085600  47.0294700 130.1020390
 123.6617040  44.5520960 120.4605980 124.0546610  44.8693160 119.6474670
 124.0233890  43.6732840 120.5750500 115.3964160  43.2193300 128.6506100
 115.0027550  44.0668510 128.8578880 114.7082560  42.5819670 128.8414740
 121.9709210  43.3028270 131.7202840 121.2807530  43.1100470 132.3548930
 122.7141510  43.5862910 132.2527140 112.6981210  41.1421760 122.6836180
 112.4094260  41.7124620 123.3961160 113.4426970  40.6626210 123.0467410
 112.8851440  45.0841880 113.8938900 112.8026110  46.0272640 114.0353890
 112.5334500  44.9416790 113.0151250 124.2472180  47.1426710 124.5556760
 123.5153300  47.6513520 124.9046860 123.8496520  46.3256690 124.2545540
 120.6849570  43.8180910 122.9609250 120.6885630  43.3770860 122.1113790
 121.5800690  44.1398240 123.0681070 116.5351950  43.7007400 121.9203460
 116.1952000  44.1782630 122.6770510 115.7729270  43.2472520 121.5604560
 120.7469720  44.8192990 115.9516010 120.8682540  44.7779470 116.9001830
 120.3618230  45.6817140 115.7962740 124.7098090  42.5960390 123.9679700
 124.7270830  43.0469040 124.8121550 124.4613670  41.6966030 124.1813140
 119.7591220  47.1294130 115.3499310 119.1908120  46.6812380 114.7235220
 120.4680220  47.4886910 114.8164460 128.1368840  40.0092570 129.8066080
 128.4614610  39.2782230 130.3324060 128.1725350  39.6906210 128.9047070
 114.8360400  51.0306150 129.2266040 114.4515190  50.3899820 129.8249000
 115.1472590  51.7342270 129.7960770 120.9857540  47.8782690 124.7074660
 121.3527670  47.4041260 125.4536000 120.7962600  48.7524260 125.0483000
 113.8498030  42.6226380 120.8368130 113.5644950  42.2582050 121.6746750
 113.7876890  41.8906840 120.2231270 118.7756910  46.9191330 127.0258870
 118.4713980  47.7983310 127.2509230 119.7303370  46.9791120 127.0616310
 117.3038700  51.1252320 117.6225720 116.5300960  50.5849940 117.4624440
 118.0333330  50.6058930 117.2843480 128.0626680  50.1217680 123.4152110
 128.7825800  50.6172970 123.0248220 127.8608500  49.4435570 122.7705980
 123.5236620  41.5155640 117.5581500 122.7101230  41.0168810 117.4826810
 123.3298570  42.3553890 117.1417850 123.4445480  50.1926740 129.3021110
 123.3782790  49.2722410 129.0478700 122.8150620  50.2902180 130.0165750
 126.2385010  45.8875290 115.8543660 127.1264630  46.1992520 115.6795000
 126.2090100  45.0147540 115.4624240 117.3476100  50.7932700 121.2604530
 117.8654770  49.9900960 121.2061420 116.8960120  50.7311840 122.1021360
 122.2345600  52.0598980 116.5331830 122.5761300  52.8041210 116.0375150
 121.4058310  52.3730100 116.8956660 114.8320640  47.7594070 128.1730230
 114.4735580  48.4247920 128.7603570 114.5375200  46.9277620 128.5442850
 118.0333760  48.2178310 131.0569780 117.7333900  48.3635490 130.1597600
 118.8045000  47.6583600 130.9643170 123.3762210  53.0147310 129.0524910
 123.3906750  52.0828270 128.8343820 122.6687310  53.1007070 129.6914680
 128.5099280  47.1987130 115.3223520 128.4263000  47.6301350 114.4719960
 129.2293470  47.6585480 115.7550340 129.5873420  49.6554650 128.3993490
 128.8621610  50.2483430 128.2022880 130.1148880  49.6478190 127.6006860
 129.5386530  54.0529390 118.0505650 128.8962690  53.3985010 118.3249370
 129.1517190  54.4584480 117.2746320 125.1173010  51.3814820 121.8977340
 125.4696830  50.7842950 121.2378710 124.2335340  51.0559050 122.0685590
 121.2036290  52.1412510 119.3047750 121.8907420  52.6881720 119.6855340
 120.4168710  52.6853240 119.3397360 113.3428690  47.7585330 114.7964830
 114.2123540  48.0410130 115.0800750 112.8519010  48.5721200 114.6813640
 120.5063500  49.1458540 118.9173110 120.9626280  49.9563790 119.1433300
 120.1551710  48.8281680 119.7491600 122.8096110  54.6564880 126.1465410
 123.4538330  54.8624260 126.8238830 123.1725550  53.8953280 125.6936260
 116.4075280  39.4896190 119.3895630 116.2789910  39.4814090 120.3380550
 115.5837300  39.8279280 119.0386640 124.0828190  52.6597230 124.8642860
 124.7250420  51.9590390 124.9775030 124.6077540  53.4395670 124.6839750
 127.9283910  52.9445850 114.5882000 127.7021490  52.2276290 115.1806640
 127.5380110  52.6958290 113.7503750 125.8565810  53.4592130 128.0678920
 126.1922050  54.0458820 128.7456840 124.9366150  53.3284840 128.2976710
 113.7099940  56.9712710 115.3626460 114.0697580  57.5702050 114.7083730
 113.5692280  57.5172600 116.1361490 113.4069210  41.2487310 128.8502330
 112.6927730  41.4484230 129.4554940 113.8264250  40.4726880 129.2217130
 127.5100160  50.8617790 116.2496160 127.2221860  51.3230480 117.0374040
 128.3052330  50.4015560 116.5180380 113.6941800  55.2367570 129.8368860
 113.8032920  54.2962310 129.6964250 113.0422360  55.5022320 129.1882590
 121.6854390  53.5083460 131.2366980 121.3651260  52.7892700 131.7812670
 121.0112750  54.1838530 131.3103040 119.7268560  54.3543910 116.1800130
 119.7178660  55.0873600 115.5644640 118.8066920  54.1075490 116.2727090
 115.3275200  49.5758800 116.9246890 114.7203150  50.3157700 116.9342190
 115.8024550  49.6658160 116.0985090 124.9007990  43.7409620 126.6003780
 125.2688810  42.9204830 126.9283350 124.0406190  43.8011510 127.0159430
 128.2670020  42.6966560 117.4091340 127.6383180  42.8012230 116.6949570
 127.7721940  42.9163340 118.1985220 122.7128160  54.4172150 114.8425320
 122.8140140  54.2136140 113.9127300 121.8129900  54.1630430 115.0473100
 120.2354050  44.9752510 118.8249220 119.5270200  45.4438850 119.2662830
 120.5198530  44.3174520 119.4594410 121.8609980  46.3949210 126.8241750
 122.3595230  46.8695030 127.4893600 122.0032930  45.4712730 127.0311780
 124.2669480  41.7003170 120.2645010 124.1437260  41.7189300 119.3154520
 125.2154040  41.7482110 120.3843410 121.3546270  56.9358470 119.5372990
 121.6087770  56.8979860 118.6152360 120.4058750  56.8091800 119.5301240
 118.4389070  43.2837590 116.1999930 119.2879600  43.7207740 116.1340120
 118.0720340  43.5957850 117.0271990 129.0676840  42.6117170 127.6670140
 128.5650440  43.3522570 128.0063950 129.8833500  43.0001170 127.3506930
 127.3598850  47.8550350 121.1131500 126.4188990  47.8700580 121.2879190
 127.6742920  47.0686310 121.5591800 117.3380490  49.5369950 114.6735460
 118.1043760  49.4251310 115.2360890 117.4155180  48.8407920 114.0212230
 116.0327250  46.9695020 115.3568350 116.1130840  46.0222530 115.4685750
 116.9247000  47.3001900 115.4629010 129.3624430  55.0259200 122.7885760
 129.4871850  55.8490370 123.2609570 130.2289990  54.8149930 122.4409910
 116.8341960  57.1190410 122.4602890 117.5704440  56.5705870 122.7311460
 117.2182880  57.9846420 122.3208880 113.7187440  53.1863980 118.3344400
 112.7927220  53.4285120 118.3249810 114.1843870  54.0138240 118.2129150
 115.8400240  56.3036480 131.6488470 116.6412970  56.6248530 132.0623870
 115.3252060  55.9432060 132.3708380 119.9444270  56.2920720 114.2828460
 120.7372880  56.5809550 113.8310250 119.4248620  55.8612890 113.6040940
 124.6764870  52.4116350 131.5963880 124.0703030  52.4347950 130.8559630
 124.3718980  51.6799390 132.1331130 126.1065240  56.1396640 130.2073290
 127.0586990  56.0554660 130.1573530 125.9593460  56.8038350 130.8807080
 128.9974440  55.5190850 115.7065200 128.7115950  55.1055990 114.8919380
 128.7993990  56.4478560 115.5865720 113.5598050  48.7909940 130.5924520
 114.0637070  48.2117220 131.1640750 112.8205470  49.0750170 131.1300890
 120.4621670  51.5124130 114.1470810 120.3572310  50.8976480 114.8732190
 120.2945890  50.9890020 113.3633820 120.6135990  50.1980930 130.1260040
 119.8481660  50.7665930 130.0414710 120.7951950  49.9057140 129.2328270
 123.7024400  50.5744160 114.7512800 123.1534500  51.0213460 115.3955540
 124.3243660  50.0693410 115.2750470 127.7559340  51.9286260 130.6835060
 128.4968810  52.2662020 130.1802520 126.9932020  52.0978320 130.1304830
 115.5921130  46.9339530 131.4874590 115.6326470  46.6353400 132.3959820
 116.4466630  47.3347140 131.3282110 119.3699520  49.5335080 116.6478100
 119.7915940  49.3674950 117.4909490 119.4950360  48.7235310 116.1533240
 117.5326940  45.5131630 129.4549080 117.0023400  45.0222580 128.8272420
 118.2015010  45.9415830 128.9207010 121.8827160  48.5572690 113.8955200
 122.4032820  47.8421710 113.5296350 122.5295560  49.1958560 114.1955710
 126.4305000  49.9801090 129.2190270 126.8446020  50.1346170 130.0680690
 125.4956000  50.1056310 129.3816050 126.9027170  47.3197250 131.2229420
 127.4847940  46.5649570 131.1349900 127.0788940  47.8504690 130.4460900
 118.0199240  42.4794000 129.5346370 117.9256110  41.8614750 128.8097240
 117.4396630  43.2060290 129.3076280 120.7860680  41.0367240 126.5673760
 120.3377980  41.0591500 125.7219310 120.1525880  40.6386260 127.1644060
 121.1920230  49.9321570 127.1886200 121.6108340  50.7754300 127.0162440
 120.2728860  50.0693610 126.9592980 123.5284130  47.6637750 128.5724040
 123.6480340  47.0678890 129.3118880 124.3878130  47.7007440 128.1525340
 125.8672030  48.2174940 127.1486550 125.3407250  48.7417560 126.5451690
 126.2103370  48.8502330 127.7796280 118.2658420  45.6068310 113.5936260
 118.0647480  44.7435670 113.9549600 118.0950470  45.5201670 112.6557860
 119.0427650  56.2374580 128.3043930 118.5048740  56.9620640 127.9852630
 119.2961610  55.7604920 127.5141270 120.2952900  44.2059100 129.8299860
 120.8852590  43.8974950 130.5177680 119.4773140  43.7338850 129.9859760
 125.1146330  43.8224910 130.0632880 124.4261850  43.1606450 129.9982870
 125.8352350  43.3763180 130.5081340 125.7446730  40.4176540 116.1223140
 126.0249020  39.5744440 116.4782560 124.9712460  40.6499650 116.6361890
 117.0641220  42.7068930 113.5814140 117.3667120  42.7136360 112.6733290
 117.8035810  42.3566790 114.0781800 121.8989860  57.4725790 128.5630580
 121.8248560  58.3760930 128.8702950 120.9968700  57.1537690 128.5352650
 120.2826150  41.6503550 114.5670340 119.9348150  40.9727540 113.9872790
 120.4838920  41.1893060 115.3813730 122.4475190  56.6384300 116.1856940
 123.3425980  56.9769270 116.2075700 122.4792820  55.9163710 115.5581220
 116.0871350  52.0111350 114.4143940 116.5246220  52.5541020 115.0701520
 116.5719080  51.1858300 114.4240280 113.3017150  54.8000380 121.8664200
 113.6320160  53.9321440 121.6342840 113.7308150  55.0058900 122.6969160
 117.8979070  53.1309390 119.5266170 117.5974610  53.0074360 120.4270080
 117.7916560  52.2717980 119.1181900 113.7907360  55.6670970 124.6045830
 113.3538350  55.8471770 125.4369980 114.3585040  56.4245590 124.4627550
 129.4269540  55.1687970 128.8923140 128.8271530  55.2280530 128.1487060
 129.5563440  54.2292950 129.0219990 130.6670990  52.9105790 114.2292850
 129.8363950  52.9782440 114.7000080 130.8442820  53.8009910 113.9259710
 130.1227450  49.6553270 116.7327050 130.8846360  50.2249920 116.8386740
 130.1381820  49.0880470 117.5035360 113.6231790  48.1791200 120.9634710
 112.9680630  47.9102840 120.3194410 114.4609740  48.0695680 120.5136690
 131.1287420  50.5103370 121.5768980 131.4996250  49.7270690 121.1704950
 131.7689350  51.1992470 121.3986280 128.1121180  51.8939950 126.9899300
 127.2981020  52.3237110 127.2525090 128.5195380  52.5058360 126.3768350
 130.1746620  49.9487640 113.8899570 130.4495460  50.8566520 113.7618790
 129.9857360  49.8850170 114.8261560 126.5722230  42.9732490 115.1853200
 126.9907110  42.7863470 114.3449860 126.2658290  42.1211540 115.4956130
 130.0711960  47.8856630 118.8829000 129.6955560  47.1184560 118.4510290
 129.3415080  48.2679330 119.3703930 114.6607720  48.5643770 125.5038050
 115.0280760  48.4771170 126.3834070 114.0918540  47.8010320 125.4044910
 129.4611580  47.0328150 128.5168520 129.2297670  46.8040900 127.6166470
 129.7216130  47.9527700 128.4713410 114.2123720  45.4752860 129.4096470
 113.3179770  45.4419620 129.7490180 114.7521270  45.6739650 130.1747720
 127.8999650  42.2584580 131.2948220 128.7769830  42.2667980 131.6782220
 127.9120490  41.5215420 130.6840570 112.8369870  45.3890130 116.9060040
 111.9333950  45.6520330 116.7311700 113.3210490  45.6601300 116.1260000
 129.3462920  46.1114120 122.1836240 129.8700400  45.6176770 121.5526410
 129.9322340  46.2464480 122.9283810 129.5252640  46.1953990 125.7055790
 128.5755350  46.1617530 125.8200780 129.7065650  47.1054100 125.4705560
 115.3797080  44.4455670 114.8154420 116.0888780  44.0238890 114.3301700
 114.6637020  44.5130900 114.1837770 115.0271240  40.4995000 113.8557070
 115.7499370  41.0403940 114.1738290 115.2995760  40.2258420 112.9798610
 128.8362890  45.3687470 118.1228650 129.3322010  45.1358340 118.9077530
 128.6378960  44.5299310 117.7066290 114.7163430  39.7501190 123.7579690
 115.3639620  39.1998570 123.3174850 115.1365270  40.0044340 124.5795500
 130.2650050  44.0048420 120.6566330 130.1549330  43.8504460 121.5948600
 131.0257640  43.4769360 120.4141740 128.6115770  39.9442550 127.1149330
 129.2487990  40.5576690 127.4808520 128.7590660  39.9803210 126.1698560
 131.1540320  41.8356340 113.8972470 132.0789630  41.7037520 113.6890760
 131.1316110  41.9149160 114.8508920 131.2278810  42.6067000 116.5229180
 130.4330310  42.5412120 117.0522090 131.4322090  43.5417640 116.5114530
 128.1697230  56.6458550 120.5167570 128.7656300  56.3243120 119.8401990
 128.4275380  56.1730370 121.3080840 114.4695430  39.9056860 126.5005010
 114.1210250  40.3620680 127.2663190 114.1383130  39.0113990 126.5827440
 116.0759800  53.0776460 130.6658200 116.0329430  52.7069370 131.5472660
 116.2070810  54.0154030 130.8060020 119.7765830  54.6336050 126.2667920
 119.5357190  54.9010610 125.3798440 120.7168470  54.8041780 126.3218780
 121.9820250  41.0968740 130.0224430 121.9209140  41.6890570 130.7719840
 122.9220630  40.9894700 129.8774690 124.6194810  40.7538800 129.6616720
 125.2335220  41.0718090 128.9997800 125.1644370  40.2687390 130.2812580
 131.0369990  56.6530430 127.0678560 130.5428270  57.0499300 126.3505690
 130.4283280  56.0279640 127.4615840 115.1416070  39.4333060 129.7755780
 115.6899060  39.2521110 129.0121890 115.2071380  38.6427170 130.3112090
 115.9147830  56.0238710 127.7855980 115.3208150  55.8923410 128.5246020
 115.9071670  55.1876850 127.3198080 125.3602850  39.3170940 125.9886010
 124.4862690  39.6506050 125.7858940 125.2513600  38.8444120 126.8137880
 126.2674830  41.5241810 127.3727730 125.9388190  40.7093570 126.9929460
 127.2157130  41.4811620 127.2493420 128.7209440  57.2953850 124.3465300
 128.2612410  58.0469660 123.9723320 128.0921900  56.5760320 124.2880100
 115.5460060  53.3897090 126.7364020 114.8194120  52.7702380 126.6689970
 115.6069210  53.7837700 125.8662100 119.1505160  55.6042090 123.5213430
 119.6670180  54.9929450 122.9961690 119.8002540  56.1070870 124.0124440
 121.8900660  56.4950580 124.3482410 122.1778470  56.2404880 123.4715420
 122.4023880  55.9427940 124.9387980 123.1077670  40.2340780 124.9278920
 122.3249460  40.7086280 125.2075680 122.8140600  39.3295610 124.8192100
 127.6598740  40.9363880 122.9728010 128.1006830  40.8808980 122.1249610
 127.3906330  41.8521890 123.0438190 129.5237310  40.5679120 120.9836830
 129.4625710  39.6240340 120.8367850 130.3029340  40.6759210 121.5290290
 113.8290060  56.7071480 119.9460780 113.6612100  56.0742160 120.6442670
 112.9624570  56.9130880 119.5954970 114.4518080  40.5388260 117.4492640
 115.2097440  40.6517140 116.8756670 113.9895250  41.3757460 117.4036070
 120.9931890  42.6527530 120.4394950 120.1806400  42.2784420 120.0990830
 121.4973530  41.8972610 120.7416140 125.4956870  39.3169980 121.6778020
 126.0986240  39.8890190 122.1526540 124.7549860  39.8809420 121.4551920
 128.6391470  39.7191540 116.9518300 128.8342100  40.6174990 117.2185730
 127.8521340  39.4878620 117.4451250 115.4352760  55.4004710 117.3910920
 114.9100380  55.7812740 116.6872880 115.3597340  56.0255480 118.1120630
 116.8243230  41.0652310 115.9894610 117.3535990  40.2782110 115.8602560
 117.4571550  41.7443500 116.2230140 119.0181070  40.8027450 119.0440000
 118.3883810  40.1014760 119.2110130 118.4786210  41.5631580 118.8273160
 121.9573020  57.4166680 131.7150610 122.8840330  57.1810950 131.7586570
 121.9423450  58.2438680 131.2336640 130.1918080  56.9592250 118.7124860
 130.3670270  56.2729990 118.0685780 129.4939650  57.4839300 118.3201530
 119.1436630  40.0811430 131.4792490 118.8620900  40.5845030 130.7153310
 119.5256330  39.2833180 131.1134620 118.0345730  57.3487090 116.2660170
 118.7664550  57.0646370 115.7184060 118.2939400  57.1100370 117.1559550
 117.1960520  53.4651820 116.2706500 116.5669400  53.9336920 116.8192330
 117.3108350  52.6201040 116.7052690 125.7452090  39.4965010 132.0572960
 125.6317540  39.8159620 132.9524480 126.5621830  39.8977520 131.7610240
 128.5250580  56.6436540 131.5391650 129.3175900  56.1485770 131.3317610
 128.8183730  57.3226680 132.1467260 124.6510240  47.5157480 102.4207700
 124.5704290  46.6012090 102.1499410 124.2374660  48.0124550 101.7147410
 122.7828280  49.2936500 104.3016970 122.0070380  48.8136940 104.5915540
 123.4341210  48.6142150 104.1273130 126.8035710  53.6996690 103.0816100
 126.3417240  52.9283930 103.4103270 127.6161260  53.7262760 103.5868550
 113.1719070  47.1663850 104.8474820 113.7435180  46.3986050 104.8478460
 113.1720610  47.4652610 103.9381430 123.0299020  55.9854700 102.7020090
 122.4110460  56.4412200 102.1314530 123.8850800  56.1406160 102.3009790
 122.2237270  51.9693690 104.3087130 122.1545550  51.0283630 104.1476260
 122.9857130  52.0595100 104.8809700 123.2542440  44.7764070 104.5356060
 123.6307260  43.9035950 104.4229730 123.1561950  45.1122770 103.6446500
 127.0366560  42.2714510 101.4684400 127.8576180  41.7811080 101.5109880
 127.0700640  42.8612170 102.2216240 131.3266110  44.2881260 108.0328030
 130.6218280  44.6762970 107.5143140 131.5924030  44.9831550 108.6348960
 117.5091280  40.7574630 108.5962100 117.5109720  41.2747020 107.7908000
 116.6795590  40.2804810 108.5732030 123.8962370  50.8693940 100.0952000
 123.2779640  51.3343390  99.5314720 124.4085620  51.5621420 100.5121510
 118.7594130  50.3969810 106.7735600 118.4263510  51.0238730 107.4156670
 118.9360810  50.9231690 105.9937270 127.2728040  44.2114890 104.2411940
 126.5683610  44.4999780 104.8215050 127.6340200  45.0215000 103.8811500
 117.1906610  42.4684590 106.6032550 117.5323420  43.3126640 106.3086420
 116.2522420  42.6168330 106.7197890 113.2645570  51.5550470  97.4691630
 112.8873550  52.0437570  96.7376530 113.5218640  52.2275750  98.0998160
 128.8890820  53.8290020 106.5039420 128.2054340  54.4989130 106.4956090
 129.4285110  54.0270670 105.7384280 130.3414960  43.6569680 104.6321150
 129.3939870  43.6908660 104.7636580 130.6664950  44.4708630 105.0170510
 120.8734500  39.9566860 102.9277140 121.1809480  39.4013750 102.2112640
 119.9435200  40.0911320 102.7450130 126.4249560  55.6734150 105.2184600
 126.4376720  55.2696440 104.3506860 125.8724780  56.4481440 105.1146030
 127.7194980  52.3950370 100.3074770 127.6091310  51.4524700 100.4324190
 127.7163230  52.7566010 101.1937530 125.8235000  50.5763990 106.5467210
 126.2403790  50.3624100 105.7120670 126.5474820  50.8336780 107.1175830
 123.2615260  48.0215690  99.6637260 122.3344540  47.9553070  99.8925730
 123.4140080  48.9595820  99.5492500 129.7697100  48.9751210 106.6383450
 128.9415730  49.0444300 106.1633580 130.3647580  49.5605520 106.1699280
 127.2912550  49.5835990 100.1672510 126.6724970  49.2455540  99.5198810
 127.2737000  48.9395750 100.8751700 126.7339110  45.7620530 107.5838320
 126.3210290  46.5874240 107.8378310 126.0015060  45.1765570 107.3914680
 119.3353600  52.2347990 104.6096200 119.0381890  51.6293460 103.9303980
 120.2853420  52.2725300 104.4985560 127.4239210  55.8079860 108.2719300
 126.9469770  56.6152050 108.0791910 126.7401000  55.1558190 108.4245510
 125.4677250  48.8222800  97.1745260 125.9070530  47.9845230  97.0283080
 126.1805670  49.4552200  97.2609400 117.2543250  48.8443000 109.8361370
 117.1151020  49.7165800 110.2048770 116.3724610  48.5015810 109.6909310
 123.5772630  53.7618870 101.1426500 124.0168540  54.5043200 100.7281890
 123.5159520  54.0045440 102.0665460 129.0494390  40.0765610  95.4886300
 128.7367050  40.1692440  96.3885370 129.8106860  40.6546640  95.4383730
 131.0038420  55.5691800 113.3410690 131.4798140  56.0474690 114.0199770
 131.6245580  55.5009290 112.6156190 113.2061900  50.6140550 105.7532280
 113.2842320  50.7489320 104.8088000 113.8203580  49.9056440 105.9460400
 114.4509530  52.3140740 102.1638460 114.0437610  52.4555330 101.3092060
 115.3422540  52.0300900 101.9609670 130.4071670  52.7604650 110.5010700
 130.5334730  52.5216530 109.5827880 130.4493050  51.9289190 110.9732780
 124.2688410  56.4632650 109.0705510 124.7833080  56.3740660 109.8727940
 123.4257490  56.8092350 109.3633420 126.2442810  56.7487990  98.4989510
 126.0843950  56.4590930  99.3971340 126.0789520  55.9728120  97.9634740
 118.7231190  56.5286520 100.2761130 118.5473670  55.6122060 100.0628930
 117.8686930  56.8873810 100.5158930 125.9468940  54.2575550  97.0587510
 125.2534100  54.2552840  96.3989790 126.6891800  53.8334870  96.6281680
 125.5118870  55.8838260 101.1336000 125.9675820  55.1027640 101.4474620
 125.8511390  56.5945080 101.6777180 130.2595680  44.8137110 111.4660440
 129.6439950  45.3216780 110.9375900 129.9392100  43.9135440 111.4086380
 118.0340190  40.7860480 103.3287310 117.5908340  41.5670020 102.9971830
 118.5925180  41.1090370 104.0358250 122.3210000  43.6529000 108.9322630
 121.8589370  43.8612020 109.7442570 121.9188110  42.8388350 108.6293300
 127.3214510  44.8737950 110.0619290 126.4708100  44.5743700 110.3828360
 127.1616300  45.1179960 109.1503110 124.4164220  46.3739700 112.1618080
 124.7417630  45.5403450 111.8220310 125.2044550  46.8968220 112.3096410
 121.1499010  40.4071180  98.2093140 120.5253190  40.4031050  98.9346450
 121.0629130  39.5402140  97.8129110 120.0716090  41.3307810 105.1876910
 120.3688420  42.2370640 105.1068930 120.6201650  40.8426590 104.5736480
 125.0552170  45.9157420  99.6559210 124.4561060  46.6393220  99.4722830
 125.6031780  45.8534200  98.8735660 120.2653620  46.8079630 111.7228830
 120.1697220  45.8674360 111.5729230 121.1085600  47.0294700 111.3276900
 123.6617040  44.5520960 101.6862490 124.0546610  44.8693160 100.8731180
 124.0233890  43.6732840 101.8007010 115.3964160  43.2193300 109.8762610
 115.0027550  44.0668510 110.0835390 114.7082560  42.5819670 110.0671250
 121.9709210  43.3028270 112.9459350 121.2807530  43.1100470 113.5805440
 122.7141510  43.5862910 113.4783650 112.6981210  41.1421760 103.9092690
 112.4094260  41.7124620 104.6217670 113.4426970  40.6626210 104.2723920
 112.8851440  45.0841880  95.1195410 112.8026110  46.0272640  95.2610400
 112.5334500  44.9416790  94.2407760 124.2472180  47.1426710 105.7813270
 123.5153300  47.6513520 106.1303370 123.8496520  46.3256690 105.4802050
 124.7098090  42.5960390 105.1936210 124.7270830  43.0469040 106.0378060
 124.4613670  41.6966030 105.4069650 128.1368840  40.0092570 111.0322590
 128.4614610  39.2782230 111.5580570 128.1725350  39.6906210 110.1303580
 118.7756910  46.9191330 108.2515380 118.4713980  47.7983310 108.4765740
 119.7303370  46.9791120 108.2872820 117.3038700  51.1252320  98.8482230
 116.5300960  50.5849940  98.6880950 118.0333330  50.6058930  98.5099990
 128.0626680  50.1217680 104.6408620 128.7825800  50.6172970 104.2504730
 127.8608500  49.4435570 103.9962490 123.4445480  50.1926740 110.5277620
 123.3782790  49.2722410 110.2735210 122.8150620  50.2902180 111.2422260
 122.2345600  52.0598980  97.7588340 122.5761300  52.8041210  97.2631660
 121.4058310  52.3730100  98.1213170 114.8320640  47.7594070 109.3986740
 114.4735580  48.4247920 109.9860080 114.5375200  46.9277620 109.7699360
 118.0333760  48.2178310 112.2826290 117.7333900  48.3635490 111.3854110
 118.8045000  47.6583600 112.1899680 123.3762210  53.0147310 110.2781420
 123.3906750  52.0828270 110.0600330 122.6687310  53.1007070 110.9171190
 128.5099280  47.1987130  96.5480030 128.4263000  47.6301350  95.6976470
 129.2293470  47.6585480  96.9806850 129.5873420  49.6554650 109.6250000
 128.8621610  50.2483430 109.4279390 130.1148880  49.6478190 108.8263370
 129.5386530  54.0529390  99.2762160 128.8962690  53.3985010  99.5505880
 129.1517190  54.4584480  98.5002830 125.1173010  51.3814820 103.1233850
 125.4696830  50.7842950 102.4635220 124.2335340  51.0559050 103.2942100
 121.2036290  52.1412510 100.5304260 121.8907420  52.6881720 100.9111850
 120.4168710  52.6853240 100.5653870 113.3428690  47.7585330  96.0221340
 114.2123540  48.0410130  96.3057260 112.8519010  48.5721200  95.9070150
 122.8096110  54.6564880 107.3721920 123.4538330  54.8624260 108.0495340
 123.1725550  53.8953280 106.9192770 116.4075280  39.4896190 100.6152140
 116.2789910  39.4814090 101.5637060 115.5837300  39.8279280 100.2643150
 124.0828190  52.6597230 106.0899370 124.7250420  51.9590390 106.2031540
 124.6077540  53.4395670 105.9096260 127.9283910  52.9445850  95.8138510
 127.7021490  52.2276290  96.4063150 127.5380110  52.6958290  94.9760260
 125.8565810  53.4592130 109.2935430 126.1922050  54.0458820 109.9713350
 124.9366150  53.3284840 109.5233220 113.7099940  56.9712710  96.5882970
 114.0697580  57.5702050  95.9340240 113.5692280  57.5172600  97.3618000
 113.4069210  41.2487310 110.0758840 112.6927730  41.4484230 110.6811450
 113.8264250  40.4726880 110.4473640 127.5100160  50.8617790  97.4752670
 127.2221860  51.3230480  98.2630550 128.3052330  50.4015560  97.7436890
 121.6854390  53.5083460 112.4623490 121.3651260  52.7892700 113.0069180
 121.0112750  54.1838530 112.5359550 115.3275200  49.5758800  98.1503400
 114.7203150  50.3157700  98.1598700 115.8024550  49.6658160  97.3241600
 124.9007990  43.7409620 107.8260290 125.2688810  42.9204830 108.1539860
 124.0406190  43.8011510 108.2415940 128.2670020  42.6966560  98.6347850
 127.6383180  42.8012230  97.9206080 127.7721940  42.9163340  99.4241730
 121.8609980  46.3949210 108.0498260 122.3595230  46.8695030 108.7150110
 122.0032930  45.4712730 108.2568290 124.2669480  41.7003170 101.4901520
 124.1437260  41.7189300 100.5411030 125.2154040  41.7482110 101.6099920
 121.3546270  56.9358470 100.7629500 121.6087770  56.8979860  99.8408870
 120.4058750  56.8091800 100.7557750 129.0676840  42.6117170 108.8926650
 128.5650440  43.3522570 109.2320460 129.8833500  43.0001170 108.5763440
 127.3598850  47.8550350 102.3388010 126.4188990  47.8700580 102.5135700
 127.6742920  47.0686310 102.7848310 117.3380490  49.5369950  95.8991970
 118.1043760  49.4251310  96.4617400 117.4155180  48.8407920  95.2468740
 129.3624430  55.0259200 104.0142270 129.4871850  55.8490370 104.4866080
 130.2289990  54.8149930 103.6666420 113.7187440  53.1863980  99.5600910
 112.7927220  53.4285120  99.5506320 114.1843870  54.0138240  99.4385660
 124.6764870  52.4116350 112.8220390 124.0703030  52.4347950 112.0816140
 124.3718980  51.6799390 113.3587640 126.1065240  56.1396640 111.4329800
 127.0586990  56.0554660 111.3830040 125.9593460  56.8038350 112.1063590
 128.9974440  55.5190850  96.9321710 128.7115950  55.1055990  96.1175890
 128.7993990  56.4478560  96.8122230 120.6135990  50.1980930 111.3516550
 119.8481660  50.7665930 111.2671220 120.7951950  49.9057140 110.4584780
 123.7024400  50.5744160  95.9769310 123.1534500  51.0213460  96.6212050
 124.3243660  50.0693410  96.5006980 127.7559340  51.9286260 111.9091570
 128.4968810  52.2662020 111.4059030 126.9932020  52.0978320 111.3561340
 115.5921130  46.9339530 112.7131100 115.6326470  46.6353400 113.6216330
 116.4466630  47.3347140 112.5538620 119.3699520  49.5335080  97.8734610
 119.7915940  49.3674950  98.7166000 119.4950360  48.7235310  97.3789750
 117.5326940  45.5131630 110.6805590 117.0023400  45.0222580 110.0528930
 118.2015010  45.9415830 110.1463520 121.8827160  48.5572690  95.1211710
 122.4032820  47.8421710  94.7552860 122.5295560  49.1958560  95.4212220
 126.4305000  49.9801090 110.4446780 126.8446020  50.1346170 111.2937200
 125.4956000  50.1056310 110.6072560 126.9027170  47.3197250 112.4485930
 127.4847940  46.5649570 112.3606410 127.0788940  47.8504690 111.6717410
 118.0199240  42.4794000 110.7602880 117.9256110  41.8614750 110.0353750
 117.4396630  43.2060290 110.5332790 120.7860680  41.0367240 107.7930270
 120.3377980  41.0591500 106.9475820 120.1525880  40.6386260 108.3900570
 121.1920230  49.9321570 108.4142710 121.6108340  50.7754300 108.2418950
 120.2728860  50.0693610 108.1849490 123.5284130  47.6637750 109.7980550
 123.6480340  47.0678890 110.5375390 124.3878130  47.7007440 109.3781850
 125.8672030  48.2174940 108.3743060 125.3407250  48.7417560 107.7708200
 126.2103370  48.8502330 109.0052790 120.2952900  44.2059100 111.0556370
 120.8852590  43.8974950 111.7434190 119.4773140  43.7338850 111.2116270
 125.1146330  43.8224910 111.2889390 124.4261850  43.1606450 111.2239380
 125.8352350  43.3763180 111.7337850 125.7446730  40.4176540  97.3479650
 126.0249020  39.5744440  97.7039070 124.9712460  40.6499650  97.8618400
 121.8989860  57.4725790 109.7887090 121.8248560  58.3760930 110.0959460
 120.9968700  57.1537690 109.7609160 122.4475190  56.6384300  97.4113450
 123.3425980  56.9769270  97.4332210 122.4792820  55.9163710  96.7837730
 117.8979070  53.1309390 100.7522680 117.5974610  53.0074360 101.6526590
 117.7916560  52.2717980 100.3438410 129.4269540  55.1687970 110.1179650
 128.8271530  55.2280530 109.3743570 129.5563440  54.2292950 110.2476500
 130.1227450  49.6553270  97.9583560 130.8846360  50.2249920  98.0643250
 130.1381820  49.0880470  98.7291870 113.6231790  48.1791200 102.1891220
 112.9680630  47.9102840 101.5450920 114.4609740  48.0695680 101.7393200
 131.1287420  50.5103370 102.8025490 131.4996250  49.7270690 102.3961460
 131.7689350  51.1992470 102.6242790 128.1121180  51.8939950 108.2155810
 127.2981020  52.3237110 108.4781600 128.5195380  52.5058360 107.6024860
 130.1746620  49.9487640  95.1156080 130.4495460  50.8566520  94.9875300
 129.9857360  49.8850170  96.0518070 130.0711960  47.8856630 100.1085510
 129.6955560  47.1184560  99.6766800 129.3415080  48.2679330 100.5960440
 114.6607720  48.5643770 106.7294560 115.0280760  48.4771170 107.6090580
 114.0918540  47.8010320 106.6301420 129.4611580  47.0328150 109.7425030
 129.2297670  46.8040900 108.8422980 129.7216130  47.9527700 109.6969920
 114.2123720  45.4752860 110.6352980 113.3179770  45.4419620 110.9746690
 114.7521270  45.6739650 111.4004230 127.8999650  42.2584580 112.5204730
 128.7769830  42.2667980 112.9038730 127.9120490  41.5215420 111.9097080
 129.3462920  46.1114120 103.4092750 129.8700400  45.6176770 102.7782920
 129.9322340  46.2464480 104.1540320 129.5252640  46.1953990 106.9312300
 128.5755350  46.1617530 107.0457290 129.7065650  47.1054100 106.6962070
 115.0271240  40.4995000  95.0813580 115.7499370  41.0403940  95.3994800
 115.2995760  40.2258420  94.2055120 128.8362890  45.3687470  99.3485160
 129.3322010  45.1358340 100.1334040 128.6378960  44.5299310  98.9322800
 114.7163430  39.7501190 104.9836200 115.3639620  39.1998570 104.5431360
 115.1365270  40.0044340 105.8052010 130.2650050  44.0048420 101.8822840
 130.1549330  43.8504460 102.8205110 131.0257640  43.4769360 101.6398250
 128.6115770  39.9442550 108.3405840 129.2487990  40.5576690 108.7065030
 128.7590660  39.9803210 107.3955070 131.1540320  41.8356340  95.1228980
 132.0789630  41.7037520  94.9147270 131.1316110  41.9149160  96.0765430
 131.2278810  42.6067000  97.7485690 130.4330310  42.5412120  98.2778600
 131.4322090  43.5417640  97.7371040 128.1697230  56.6458550 101.7424080
 128.7656300  56.3243120 101.0658500 128.4275380  56.1730370 102.5337350
 114.4695430  39.9056860 107.7261520 114.1210250  40.3620680 108.4919700
 114.1383130  39.0113990 107.8083950 121.9820250  41.0968740 111.2480940
 121.9209140  41.6890570 111.9976350 122.9220630  40.9894700 111.1031200
 124.6194810  40.7538800 110.8873230 125.2335220  41.0718090 110.2254310
 125.1644370  40.2687390 111.5069090 131.0369990  56.6530430 108.2935070
 130.5428270  57.0499300 107.5762200 130.4283280  56.0279640 108.6872350
 115.1416070  39.4333060 111.0012290 115.6899060  39.2521110 110.2378400
 115.2071380  38.6427170 111.5368600 125.3602850  39.3170940 107.2142520
 124.4862690  39.6506050 107.0115450 125.2513600  38.8444120 108.0394390
 126.2674830  41.5241810 108.5984240 125.9388190  40.7093570 108.2185970
 127.2157130  41.4811620 108.4749930 128.7209440  57.2953850 105.5721810
 128.2612410  58.0469660 105.1979830 128.0921900  56.5760320 105.5136610
 121.8900660  56.4950580 105.5738920 122.1778470  56.2404880 104.6971930
 122.4023880  55.9427940 106.1644490 123.1077670  40.2340780 106.1535430
 122.3249460  40.7086280 106.4332190 122.8140600  39.3295610 106.0448610
 127.6598740  40.9363880 104.1984520 128.1006830  40.8808980 103.3506120
 127.3906330  41.8521890 104.2694700 129.5237310  40.5679120 102.2093340
 129.4625710  39.6240340 102.0624360 130.3029340  40.6759210 102.7546800
 113.8290060  56.7071480 101.1717290 113.6612100  56.0742160 101.8699180
 112.9624570  56.9130880 100.8211480 114.4518080  40.5388260  98.6749150
 115.2097440  40.6517140  98.1013180 113.9895250  41.3757460  98.6292580
 120.9931890  42.6527530 101.6651460 120.1806400  42.2784420 101.3247340
 121.4973530  41.8972610 101.9672650 125.4956870  39.3169980 102.9034530
 126.0986240  39.8890190 103.3783050 124.7549860  39.8809420 102.6808430
 128.6391470  39.7191540  98.1774810 128.8342100  40.6174990  98.4442240
 127.8521340  39.4878620  98.6707760 115.4352760  55.4004710  98.6167430
 114.9100380  55.7812740  97.9129390 115.3597340  56.0255480  99.3377140
 121.9573020  57.4166680 112.9407120 122.8840330  57.1810950 112.9843080
 121.9423450  58.2438680 112.4593150 130.1918080  56.9592250  99.9381370
 130.3670270  56.2729990  99.2942290 129.4939650  57.4839300  99.5458040
 119.1436630  40.0811430 112.7049000 118.8620900  40.5845030 111.9409820
 119.5256330  39.2833180 112.3391130 118.0345730  57.3487090  97.4916680
 118.7664550  57.0646370  96.9440570 118.2939400  57.1100370  98.3816060
 117.1960520  53.4651820  97.4963010 116.5669400  53.9336920  98.0448840
 117.3108350  52.6201040  97.9309200 125.7452090  39.4965010 113.2829470
 125.6317540  39.8159620 114.1780990 126.5621830  39.8977520 112.9866750
 128.5250580  56.6436540 112.7648160 129.3175900  56.1485770 112.5574120
 128.8183730  57.3226680 113.3723770 122.7828280  49.2936500  85.5273480
 122.0070380  48.8136940  85.8172050 123.4341210  48.6142150  85.3529640
 116.7994110  49.6056310  86.4049240 115.9678990  49.3505020  86.8045750
 117.4075090  49.6767080  87.1407160 126.8035710  53.6996690  84.3072610
 126.3417240  52.9283930  84.6359780 127.6161260  53.7262760  84.8125060
 116.7795370  53.6396400  86.6007260 117.0823410  52.7494140  86.4217480
 117.5238960  54.1966620  86.3729510 113.1719070  47.1663850  86.0731330
 113.7435180  46.3986050  86.0734970 113.1720610  47.4652610  85.1637940
 123.0299020  55.9854700  83.9276600 122.4110460  56.4412200  83.3571040
 123.8850800  56.1406160  83.5266300 122.2237270  51.9693690  85.5343640
 122.1545550  51.0283630  85.3732770 122.9857130  52.0595100  86.1066210
 114.4143940  42.5748210  87.8600260 114.2346780  41.6773960  88.1403020
 114.0124020  43.1220080  88.5347210 117.3847450  43.1489700  81.2230010
 117.4914200  44.0493430  81.5298770 116.4739810  43.1007670  80.9324660
 127.0366560  42.2714510  82.6940910 127.8576180  41.7811080  82.7366390
 127.0700640  42.8612170  83.4472750 115.0330610  45.0708710  86.4682600
 115.7140720  45.3347080  87.0870000 114.7178660  44.2309580  86.8020610
 119.2255180  46.1176070  85.5555190 119.7333400  46.6157040  86.1960210
 119.7568420  45.3411270  85.3794550 131.3266110  44.2881260  89.2584540
 130.6218280  44.6762970  88.7399650 131.5924030  44.9831550  89.8605470
 117.5091280  40.7574630  89.8218610 117.5109720  41.2747020  89.0164510
 116.6795590  40.2804810  89.7988540 117.1906610  42.4684590  87.8289060
 117.5323420  43.3126640  87.5342930 116.2522420  42.6168330  87.9454400
 117.9713230  52.3650610  89.8141290 118.5887230  53.0401690  89.5325740
 117.1106350  52.7738590  89.7228790 128.8890820  53.8290020  87.7295930
 128.2054340  54.4989130  87.7212600 129.4285110  54.0270670  86.9640790
 130.3414960  43.6569680  85.8577660 129.3939870  43.6908660  85.9893090
 130.6664950  44.4708630  86.2427020 120.8734500  39.9566860  84.1533650
 121.1809480  39.4013750  83.4369150 119.9435200  40.0911320  83.9706640
 126.4249560  55.6734150  86.4441110 126.4376720  55.2696440  85.5763370
 125.8724780  56.4481440  86.3402540 127.7194980  52.3950370  81.5331280
 127.6091310  51.4524700  81.6580700 127.7163230  52.7566010  82.4194040
 125.8235000  50.5763990  87.7723720 126.2403790  50.3624100  86.9377180
 126.5474820  50.8336780  88.3432340 123.2484340  44.2932690  77.8860930
 122.3088010  44.4546650  77.9713390 123.5667600  45.0118370  77.3396920
 129.7697100  48.9751210  87.8639960 128.9415730  49.0444300  87.3890090
 130.3647580  49.5605520  87.3955790 118.8671900  48.5480430  83.6713500
 118.4628900  47.8357680  83.1759400 118.9535020  48.2033670  84.5601540
 119.3353600  52.2347990  85.8352710 119.0381890  51.6293460  85.1560490
 120.2853420  52.2725300  85.7242070 123.5772630  53.7618870  82.3683010
 124.0168540  54.5043200  81.9538400 123.5159520  54.0045440  83.2921970
 129.0494390  40.0765610  76.7142810 128.7367050  40.1692440  77.6141880
 129.8106860  40.6546640  76.6640240 115.5676530  47.4425410  81.1720150
 115.4474130  48.1687500  80.5601420 115.2577420  46.6728320  80.6948060
 113.2061900  50.6140550  86.9788790 113.2842320  50.7489320  86.0344510
 113.8203580  49.9056440  87.1716910 114.4509530  52.3140740  83.3894970
 114.0437610  52.4555330  82.5348570 115.3422540  52.0300900  83.1866180
 124.2688410  56.4632650  90.2962020 124.7833080  56.3740660  91.0984450
 123.4257490  56.8092350  90.5889930 126.2442810  56.7487990  79.7246020
 126.0843950  56.4590930  80.6227850 126.0789520  55.9728120  79.1891250
 118.7231190  56.5286520  81.5017640 118.5473670  55.6122060  81.2885440
 117.8686930  56.8873810  81.7415440 125.9468940  54.2575550  78.2844020
 125.2534100  54.2552840  77.6246300 126.6891800  53.8334870  77.8538190
 125.5118870  55.8838260  82.3592510 125.9675820  55.1027640  82.6731130
 125.8511390  56.5945080  82.9033690 130.2595680  44.8137110  92.6916950
 129.6439950  45.3216780  92.1632410 129.9392100  43.9135440  92.6342890
 113.2621420  51.6554720  89.5183250 113.4252460  51.1860080  88.7002620
 113.7273870  51.1478280  90.1832090 118.0340190  40.7860480  84.5543820
 117.5908340  41.5670020  84.2228340 118.5925180  41.1090370  85.2614760
 127.3214510  44.8737950  91.2875800 126.4708100  44.5743700  91.6084870
 127.1616300  45.1179960  90.3759620 124.4164220  46.3739700  93.3874590
 124.7417630  45.5403450  93.0476820 125.2044550  46.8968220  93.5352920
 121.1499010  40.4071180  79.4349650 120.5253190  40.4031050  80.1602960
 121.0629130  39.5402140  79.0385620 120.0716090  41.3307810  86.4133420
 120.3688420  42.2370640  86.3325440 120.6201650  40.8426590  85.7992990
 117.8254410  45.9094050  82.2825070 117.5995330  45.6931220  83.1871690
 117.0446940  46.3422510  81.9371040 115.3964160  43.2193300  91.1019120
 115.0027550  44.0668510  91.3091900 114.7082560  42.5819670  91.2927760
 112.6981210  41.1421760  85.1349200 112.4094260  41.7124620  85.8474180
 113.4426970  40.6626210  85.4980430 116.5351950  43.7007400  84.3716480
 116.1952000  44.1782630  85.1283530 115.7729270  43.2472520  84.0117580
 120.7469720  44.8192990  78.4029030 120.8682540  44.7779470  79.3514850
 120.3618230  45.6817140  78.2475760 119.7591220  47.1294130  77.8012330
 119.1908120  46.6812380  77.1748240 120.4680220  47.4886910  77.2677480
 128.1368840  40.0092570  92.2579100 128.4614610  39.2782230  92.7837080
 128.1725350  39.6906210  91.3560090 114.8360400  51.0306150  91.6779060
 114.4515190  50.3899820  92.2762020 115.1472590  51.7342270  92.2473790
 113.8498030  42.6226380  83.2881150 113.5644950  42.2582050  84.1259770
 113.7876890  41.8906840  82.6744290 117.3038700  51.1252320  80.0738740
 116.5300960  50.5849940  79.9137460 118.0333330  50.6058930  79.7356500
 128.0626680  50.1217680  85.8665130 128.7825800  50.6172970  85.4761240
 127.8608500  49.4435570  85.2219000 123.5236620  41.5155640  80.0094520
 122.7101230  41.0168810  79.9339830 123.3298570  42.3553890  79.5930870
 117.3476100  50.7932700  83.7117550 117.8654770  49.9900960  83.6574440
 116.8960120  50.7311840  84.5534380 122.2345600  52.0598980  78.9844850
 122.5761300  52.8041210  78.4888170 121.4058310  52.3730100  79.3469680
 114.8320640  47.7594070  90.6243250 114.4735580  48.4247920  91.2116590
 114.5375200  46.9277620  90.9955870 123.3762210  53.0147310  91.5037930
 123.3906750  52.0828270  91.2856840 122.6687310  53.1007070  92.1427700
 128.5099280  47.1987130  77.7736540 128.4263000  47.6301350  76.9232980
 129.2293470  47.6585480  78.2063360 129.5386530  54.0529390  80.5018670
 128.8962690  53.3985010  80.7762390 129.1517190  54.4584480  79.7259340
 125.1173010  51.3814820  84.3490360 125.4696830  50.7842950  83.6891730
 124.2335340  51.0559050  84.5198610 121.2036290  52.1412510  81.7560770
 121.8907420  52.6881720  82.1368360 120.4168710  52.6853240  81.7910380
 120.5063500  49.1458540  81.3686130 120.9626280  49.9563790  81.5946320
 120.1551710  48.8281680  82.2004620 122.8096110  54.6564880  88.5978430
 123.4538330  54.8624260  89.2751850 123.1725550  53.8953280  88.1449280
 116.4075280  39.4896190  81.8408650 116.2789910  39.4814090  82.7893570
 115.5837300  39.8279280  81.4899660 124.0828190  52.6597230  87.3155880
 124.7250420  51.9590390  87.4288050 124.6077540  53.4395670  87.1352770
 127.9283910  52.9445850  77.0395020 127.7021490  52.2276290  77.6319660
 127.5380110  52.6958290  76.2016770 113.7099940  56.9712710  77.8139480
 114.0697580  57.5702050  77.1596750 113.5692280  57.5172600  78.5874510
 113.4069210  41.2487310  91.3015350 112.6927730  41.4484230  91.9067960
 113.8264250  40.4726880  91.6730150 113.6941800  55.2367570  92.2881880
 113.8032920  54.2962310  92.1477270 113.0422360  55.5022320  91.6395610
 119.7268560  54.3543910  78.6313150 119.7178660  55.0873600  78.0157660
 118.8066920  54.1075490  78.7240110 128.2670020  42.6966560  79.8604360
 127.6383180  42.8012230  79.1462590 127.7721940  42.9163340  80.6498240
 122.7128160  54.4172150  77.2938340 122.8140140  54.2136140  76.3640320
 121.8129900  54.1630430  77.4986120 120.2354050  44.9752510  81.2762240
 119.5270200  45.4438850  81.7175850 120.5198530  44.3174520  81.9107430
 124.2669480  41.7003170  82.7158030 124.1437260  41.7189300  81.7667540
 125.2154040  41.7482110  82.8356430 121.3546270  56.9358470  81.9886010
 121.6087770  56.8979860  81.0665380 120.4058750  56.8091800  81.9814260
 118.4389070  43.2837590  78.6512950 119.2879600  43.7207740  78.5853140
 118.0720340  43.5957850  79.4785010 129.0676840  42.6117170  90.1183160
 128.5650440  43.3522570  90.4576970 129.8833500  43.0001170  89.8019950
 117.3380490  49.5369950  77.1248480 118.1043760  49.4251310  77.6873910
 117.4155180  48.8407920  76.4725250 116.0327250  46.9695020  77.8081370
 116.1130840  46.0222530  77.9198770 116.9247000  47.3001900  77.9142030
 129.3624430  55.0259200  85.2398780 129.4871850  55.8490370  85.7122590
 130.2289990  54.8149930  84.8922930 116.8341960  57.1190410  84.9115910
 117.5704440  56.5705870  85.1824480 117.2182880  57.9846420  84.7721900
 113.7187440  53.1863980  80.7857420 112.7927220  53.4285120  80.7762830
 114.1843870  54.0138240  80.6642170 119.9444270  56.2920720  76.7341480
 120.7372880  56.5809550  76.2823270 119.4248620  55.8612890  76.0553960
 124.6764870  52.4116350  94.0476900 124.0703030  52.4347950  93.3072650
 124.3718980  51.6799390  94.5844150 113.5598050  48.7909940  93.0437540
 114.0637070  48.2117220  93.6153770 112.8205470  49.0750170  93.5813910
 120.4621670  51.5124130  76.5983830 120.3572310  50.8976480  77.3245210
 120.2945890  50.9890020  75.8146840 123.7024400  50.5744160  77.2025820
 123.1534500  51.0213460  77.8468560 124.3243660  50.0693410  77.7263490
 115.5921130  46.9339530  93.9387610 115.6326470  46.6353400  94.8472840
 116.4466630  47.3347140  93.7795130 119.3699520  49.5335080  79.0991120
 119.7915940  49.3674950  79.9422510 119.4950360  48.7235310  78.6046260
 121.8827160  48.5572690  76.3468220 122.4032820  47.8421710  75.9809370
 122.5295560  49.1958560  76.6468730 126.4305000  49.9801090  91.6703290
 126.8446020  50.1346170  92.5193710 125.4956000  50.1056310  91.8329070
 126.9027170  47.3197250  93.6742440 127.4847940  46.5649570  93.5862920
 127.0788940  47.8504690  92.8973920 118.0199240  42.4794000  91.9859390
 117.9256110  41.8614750  91.2610260 117.4396630  43.2060290  91.7589300
 125.8672030  48.2174940  89.5999570 125.3407250  48.7417560  88.9964710
 126.2103370  48.8502330  90.2309300 118.2658420  45.6068310  76.0449280
 118.0647480  44.7435670  76.4062620 118.0950470  45.5201670  75.1070880
 125.7446730  40.4176540  78.5736160 126.0249020  39.5744440  78.9295580
 124.9712460  40.6499650  79.0874910 117.0641220  42.7068930  76.0327160
 117.3667120  42.7136360  75.1246310 117.8035810  42.3566790  76.5294820
 120.2826150  41.6503550  77.0183360 119.9348150  40.9727540  76.4385810
 120.4838920  41.1893060  77.8326750 122.4475190  56.6384300  78.6369960
 123.3425980  56.9769270  78.6588720 122.4792820  55.9163710  78.0094240
 116.0871350  52.0111350  76.8656960 116.5246220  52.5541020  77.5214540
 116.5719080  51.1858300  76.8753300 113.3017150  54.8000380  84.3177220
 113.6320160  53.9321440  84.0855860 113.7308150  55.0058900  85.1482180
 117.8979070  53.1309390  81.9779190 117.5974610  53.0074360  82.8783100
 117.7916560  52.2717980  81.5694920 113.7907360  55.6670970  87.0558850
 113.3538350  55.8471770  87.8883000 114.3585040  56.4245590  86.9140570
 130.1227450  49.6553270  79.1840070 130.8846360  50.2249920  79.2899760
 130.1381820  49.0880470  79.9548380 131.1287420  50.5103370  84.0282000
 131.4996250  49.7270690  83.6217970 131.7689350  51.1992470  83.8499300
 130.1746620  49.9487640  76.3412590 130.4495460  50.8566520  76.2131810
 129.9857360  49.8850170  77.2774580 126.5722230  42.9732490  77.6366220
 126.9907110  42.7863470  76.7962880 126.2658290  42.1211540  77.9469150
 114.6607720  48.5643770  87.9551070 115.0280760  48.4771170  88.8347090
 114.0918540  47.8010320  87.8557930 129.4611580  47.0328150  90.9681540
 129.2297670  46.8040900  90.0679490 129.7216130  47.9527700  90.9226430
 114.2123720  45.4752860  91.8609490 113.3179770  45.4419620  92.2003200
 114.7521270  45.6739650  92.6260740 127.8999650  42.2584580  93.7461240
 128.7769830  42.2667980  94.1295240 127.9120490  41.5215420  93.1353590
 129.3462920  46.1114120  84.6349260 129.8700400  45.6176770  84.0039430
 129.9322340  46.2464480  85.3796830 129.5252640  46.1953990  88.1568810
 128.5755350  46.1617530  88.2713800 129.7065650  47.1054100  87.9218580
 115.3797080  44.4455670  77.2667440 116.0888780  44.0238890  76.7814720
 114.6637020  44.5130900  76.6350790 115.0271240  40.4995000  76.3070090
 115.7499370  41.0403940  76.6251310 115.2995760  40.2258420  75.4311630
 114.7163430  39.7501190  86.2092710 115.3639620  39.1998570  85.7687870
 115.1365270  40.0044340  87.0308520 130.2650050  44.0048420  83.1079350
 130.1549330  43.8504460  84.0461620 131.0257640  43.4769360  82.8654760
 128.6115770  39.9442550  89.5662350 129.2487990  40.5576690  89.9321540
 128.7590660  39.9803210  88.6211580 131.1540320  41.8356340  76.3485490
 132.0789630  41.7037520  76.1403780 131.1316110  41.9149160  77.3021940
 131.2278810  42.6067000  78.9742200 130.4330310  42.5412120  79.5035110
 131.4322090  43.5417640  78.9627550 128.1697230  56.6458550  82.9680590
 128.7656300  56.3243120  82.2915010 128.4275380  56.1730370  83.7593860
 114.4695430  39.9056860  88.9518030 114.1210250  40.3620680  89.7176210
 114.1383130  39.0113990  89.0340460 119.7765830  54.6336050  88.7180940
 119.5357190  54.9010610  87.8311460 120.7168470  54.8041780  88.7731800
 121.9820250  41.0968740  92.4737450 121.9209140  41.6890570  93.2232860
 122.9220630  40.9894700  92.3287710 124.6194810  40.7538800  92.1129740
 125.2335220  41.0718090  91.4510820 125.1644370  40.2687390  92.7325600
 131.0369990  56.6530430  89.5191580 130.5428270  57.0499300  88.8018710
 130.4283280  56.0279640  89.9128860 115.1416070  39.4333060  92.2268800
 115.6899060  39.2521110  91.4634910 115.2071380  38.6427170  92.7625110
 115.9147830  56.0238710  90.2369000 115.3208150  55.8923410  90.9759040
 115.9071670  55.1876850  89.7711100 125.3602850  39.3170940  88.4399030
 124.4862690  39.6506050  88.2371960 125.2513600  38.8444120  89.2650900
 128.7209440  57.2953850  86.7978320 128.2612410  58.0469660  86.4236340
 128.0921900  56.5760320  86.7393120 115.5460060  53.3897090  89.1877040
 114.8194120  52.7702380  89.1202990 115.6069210  53.7837700  88.3175120
 119.1505160  55.6042090  85.9726450 119.6670180  54.9929450  85.4474710
 119.8002540  56.1070870  86.4637460 127.6598740  40.9363880  85.4241030
 128.1006830  40.8808980  84.5762630 127.3906330  41.8521890  85.4951210
 129.5237310  40.5679120  83.4349850 129.4625710  39.6240340  83.2880870
 130.3029340  40.6759210  83.9803310 113.8290060  56.7071480  82.3973800
 113.6612100  56.0742160  83.0955690 112.9624570  56.9130880  82.0467990
 114.4518080  40.5388260  79.9005660 115.2097440  40.6517140  79.3269690
 113.9895250  41.3757460  79.8549090 120.9931890  42.6527530  82.8907970
 120.1806400  42.2784420  82.5503850 121.4973530  41.8972610  83.1929160
 125.4956870  39.3169980  84.1291040 126.0986240  39.8890190  84.6039560
 124.7549860  39.8809420  83.9064940 128.6391470  39.7191540  79.4031320
 128.8342100  40.6174990  79.6698750 127.8521340  39.4878620  79.8964270
 115.4352760  55.4004710  79.8423940 114.9100380  55.7812740  79.1385900
 115.3597340  56.0255480  80.5633650 116.8243230  41.0652310  78.4407630
 117.3535990  40.2782110  78.3115580 117.4571550  41.7443500  78.6743160
 119.0181070  40.8027450  81.4953020 118.3883810  40.1014760  81.6623150
 118.4786210  41.5631580  81.2786180 130.1918080  56.9592250  81.1637880
 130.3670270  56.2729990  80.5198800 129.4939650  57.4839300  80.7714550
 119.1436630  40.0811430  93.9305510 118.8620900  40.5845030  93.1666330
 119.5256330  39.2833180  93.5647640 118.0345730  57.3487090  78.7173190
 118.7664550  57.0646370  78.1697080 118.2939400  57.1100370  79.6072570
 117.1960520  53.4651820  78.7219520 116.5669400  53.9336920  79.2705350
 117.3108350  52.6201040  79.1565710 125.7452090  39.4965010  94.5085980
 125.6317540  39.8159620  95.4037500 126.5621830  39.8977520  94.2123260
 124.6510240  47.5157480  64.8720720 124.5704290  46.6012090  64.6012430
 124.2374660  48.0124550  64.1660430 122.7828280  49.2936500  66.7529990
 122.0070380  48.8136940  67.0428560 123.4341210  48.6142150  66.5786150
 126.8035710  53.6996690  65.5329120 126.3417240  52.9283930  65.8616290
 127.6161260  53.7262760  66.0381570 116.7795370  53.6396400  67.8263770
 117.0823410  52.7494140  67.6473990 117.5238960  54.1966620  67.5986020
 115.2086060  44.5658200  61.4148140 114.3202760  44.9074170  61.3128020
 115.4927250  44.3658520  60.5228970 113.1719070  47.1663850  67.2987840
 113.7435180  46.3986050  67.2991480 113.1720610  47.4652610  66.3894450
 123.0299020  55.9854700  65.1533110 122.4110460  56.4412200  64.5827550
 123.8850800  56.1406160  64.7522810 122.2237270  51.9693690  66.7600150
 122.1545550  51.0283630  66.5989280 122.9857130  52.0595100  67.3322720
 114.4143940  42.5748210  69.0856770 114.2346780  41.6773960  69.3659530
 114.0124020  43.1220080  69.7603720 123.2542440  44.7764070  66.9869080
 123.6307260  43.9035950  66.8742750 123.1561950  45.1122770  66.0959520
 117.3847450  43.1489700  62.4486520 117.4914200  44.0493430  62.7555280
 116.4739810  43.1007670  62.1581170 127.0366560  42.2714510  63.9197420
 127.8576180  41.7811080  63.9622900 127.0700640  42.8612170  64.6729260
 131.3266110  44.2881260  70.4841050 130.6218280  44.6762970  69.9656160
 131.5924030  44.9831550  71.0861980 117.5091280  40.7574630  71.0475120
 117.5109720  41.2747020  70.2421020 116.6795590  40.2804810  71.0245050
 118.7594130  50.3969810  69.2248620 118.4263510  51.0238730  69.8669690
 118.9360810  50.9231690  68.4450290 127.2728040  44.2114890  66.6924960
 126.5683610  44.4999780  67.2728070 127.6340200  45.0215000  66.3324520
 117.9713230  52.3650610  71.0397800 118.5887230  53.0401690  70.7582250
 117.1106350  52.7738590  70.9485300 130.3414960  43.6569680  67.0834170
 129.3939870  43.6908660  67.2149600 130.6664950  44.4708630  67.4683530
 126.7339110  45.7620530  70.0351340 126.3210290  46.5874240  70.2891330
 126.0015060  45.1765570  69.8427700 118.4272030  51.9729680  73.7117020
 117.5300560  52.1969650  73.9590420 118.4524900  52.0964620  72.7628420
 117.2543250  48.8443000  72.2874390 117.1151020  49.7165800  72.6561790
 116.3724610  48.5015810  72.1422330 119.0523600  54.7864700  74.4959540
 119.0239030  55.1907650  73.6287970 118.8888570  53.8575060  74.3331140
 129.0494390  40.0765610  57.9399320 128.7367050  40.1692440  58.8398390
 129.8106860  40.6546640  57.8896750 113.2061900  50.6140550  68.2045300
 113.2842320  50.7489320  67.2601020 113.8203580  49.9056440  68.3973420
 130.2595680  44.8137110  73.9173460 129.6439950  45.3216780  73.3888920
 129.9392100  43.9135440  73.8599400 113.2621420  51.6554720  70.7439760
 113.4252460  51.1860080  69.9259130 113.7273870  51.1478280  71.4088600
 122.3210000  43.6529000  71.3835650 121.8589370  43.8612020  72.1955590
 121.9188110  42.8388350  71.0806320 127.3214510  44.8737950  72.5132310
 126.4708100  44.5743700  72.8341380 127.1616300  45.1179960  71.6016130
 124.4164220  46.3739700  74.6131100 124.7417630  45.5403450  74.2733330
 125.2044550  46.8968220  74.7609430 121.1499010  40.4071180  60.6606160
 120.5253190  40.4031050  61.3859470 121.0629130  39.5402140  60.2642130
 120.2653620  46.8079630  74.1741850 120.1697220  45.8674360  74.0242250
 121.1085600  47.0294700  73.7789920 123.6617040  44.5520960  64.1375510
 124.0546610  44.8693160  63.3244200 124.0233890  43.6732840  64.2520030
 115.3964160  43.2193300  72.3275630 115.0027550  44.0668510  72.5348410
 114.7082560  42.5819670  72.5184270 121.9709210  43.3028270  75.3972370
 121.2807530  43.1100470  76.0318460 122.7141510  43.5862910  75.9296670
 112.6981210  41.1421760  66.3605710 112.4094260  41.7124620  67.0730690
 113.4426970  40.6626210  66.7236940 112.8851440  45.0841880  57.5708430
 112.8026110  46.0272640  57.7123420 112.5334500  44.9416790  56.6920780
 124.2472180  47.1426710  68.2326290 123.5153300  47.6513520  68.5816390
 123.8496520  46.3256690  67.9315070 124.7098090  42.5960390  67.6449230
 124.7270830  43.0469040  68.4891080 124.4613670  41.6966030  67.8582670
 119.7591220  47.1294130  59.0268840 119.1908120  46.6812380  58.4004750
 120.4680220  47.4886910  58.4933990 128.1368840  40.0092570  73.4835610
 128.4614610  39.2782230  74.0093590 128.1725350  39.6906210  72.5816600
 114.8360400  51.0306150  72.9035570 114.4515190  50.3899820  73.5018530
 115.1472590  51.7342270  73.4730300 120.9857540  47.8782690  68.3844190
 121.3527670  47.4041260  69.1305530 120.7962600  48.7524260  68.7252530
 118.7756910  46.9191330  70.7028400 118.4713980  47.7983310  70.9278760
 119.7303370  46.9791120  70.7385840 123.5236620  41.5155640  61.2351030
 122.7101230  41.0168810  61.1596340 123.3298570  42.3553890  60.8187380
 123.4445480  50.1926740  72.9790640 123.3782790  49.2722410  72.7248230
 122.8150620  50.2902180  73.6935280 114.8320640  47.7594070  71.8499760
 114.4735580  48.4247920  72.4373100 114.5375200  46.9277620  72.2212380
 118.0333760  48.2178310  74.7339310 117.7333900  48.3635490  73.8367130
 118.8045000  47.6583600  74.6412700 129.5386530  54.0529390  61.7275180
 128.8962690  53.3985010  62.0018900 129.1517190  54.4584480  60.9515850
 125.1173010  51.3814820  65.5746870 125.4696830  50.7842950  64.9148240
 124.2335340  51.0559050  65.7455120 116.4075280  39.4896190  63.0665160
 116.2789910  39.4814090  64.0150080 115.5837300  39.8279280  62.7156170
 113.7099940  56.9712710  59.0395990 114.0697580  57.5702050  58.3853260
 113.5692280  57.5172600  59.8131020 113.4069210  41.2487310  72.5271860
 112.6927730  41.4484230  73.1324470 113.8264250  40.4726880  72.8986660
 113.6941800  55.2367570  73.5138390 113.8032920  54.2962310  73.3733780
 113.0422360  55.5022320  72.8652120 121.6854390  53.5083460  74.9136510
 121.3651260  52.7892700  75.4582200 121.0112750  54.1838530  74.9872570
 119.7268560  54.3543910  59.8569660 119.7178660  55.0873600  59.2414170
 118.8066920  54.1075490  59.9496620 124.9007990  43.7409620  70.2773310
 125.2688810  42.9204830  70.6052880 124.0406190  43.8011510  70.6928960
 128.2670020  42.6966560  61.0860870 127.6383180  42.8012230  60.3719100
 127.7721940  42.9163340  61.8754750 120.2354050  44.9752510  62.5018750
 119.5270200  45.4438850  62.9432360 120.5198530  44.3174520  63.1363940
 121.8609980  46.3949210  70.5011280 122.3595230  46.8695030  71.1663130
 122.0032930  45.4712730  70.7081310 124.2669480  41.7003170  63.9414540
 124.1437260  41.7189300  62.9924050 125.2154040  41.7482110  64.0612940
 118.4389070  43.2837590  59.8769460 119.2879600  43.7207740  59.8109650
 118.0720340  43.5957850  60.7041520 129.0676840  42.6117170  71.3439670
 128.5650440  43.3522570  71.6833480 129.8833500  43.0001170  71.0276460
 127.3598850  47.8550350  64.7901030 126.4188990  47.8700580  64.9648720
 127.6742920  47.0686310  65.2361330 117.3380490  49.5369950  58.3504990
 118.1043760  49.4251310  58.9130420 117.4155180  48.8407920  57.6981760
 116.0327250  46.9695020  59.0337880 116.1130840  46.0222530  59.1455280
 116.9247000  47.3001900  59.1398540 113.7187440  53.1863980  62.0113930
 112.7927220  53.4285120  62.0019340 114.1843870  54.0138240  61.8898680
 115.8400240  56.3036480  75.3258000 116.6412970  56.6248530  75.7393400
 115.3252060  55.9432060  76.0477910 124.6764870  52.4116350  75.2733410
 124.0703030  52.4347950  74.5329160 124.3718980  51.6799390  75.8100660
 113.5598050  48.7909940  74.2694050 114.0637070  48.2117220  74.8410280
 112.8205470  49.0750170  74.8070420 120.4621670  51.5124130  57.8240340
 120.3572310  50.8976480  58.5501720 120.2945890  50.9890020  57.0403350
 120.6135990  50.1980930  73.8029570 119.8481660  50.7665930  73.7184240
 120.7951950  49.9057140  72.9097800 115.5921130  46.9339530  75.1644120
 115.6326470  46.6353400  76.0729350 116.4466630  47.3347140  75.0051640
 119.3699520  49.5335080  60.3247630 119.7915940  49.3674950  61.1679020
 119.4950360  48.7235310  59.8302770 117.5326940  45.5131630  73.1318610
 117.0023400  45.0222580  72.5041950 118.2015010  45.9415830  72.5976540
 126.9027170  47.3197250  74.8998950 127.4847940  46.5649570  74.8119430
 127.0788940  47.8504690  74.1230430 118.0199240  42.4794000  73.2115900
 117.9256110  41.8614750  72.4866770 117.4396630  43.2060290  72.9845810
 120.7860680  41.0367240  70.2443290 120.3377980  41.0591500  69.3988840
 120.1525880  40.6386260  70.8413590 121.1920230  49.9321570  70.8655730
 121.6108340  50.7754300  70.6931970 120.2728860  50.0693610  70.6362510
 123.5284130  47.6637750  72.2493570 123.6480340  47.0678890  72.9888410
 124.3878130  47.7007440  71.8294870 118.2658420  45.6068310  57.2705790
 118.0647480  44.7435670  57.6319130 118.0950470  45.5201670  56.3327390
 119.0427650  56.2374580  71.9813460 118.5048740  56.9620640  71.6622160
 119.2961610  55.7604920  71.1910800 120.2952900  44.2059100  73.5069390
 120.8852590  43.8974950  74.1947210 119.4773140  43.7338850  73.6629290
 125.1146330  43.8224910  73.7402410 124.4261850  43.1606450  73.6752400
 125.8352350  43.3763180  74.1850870 125.7446730  40.4176540  59.7992670
 126.0249020  39.5744440  60.1552090 124.9712460  40.6499650  60.3131420
 120.2826150  41.6503550  58.2439870 119.9348150  40.9727540  57.6642320
 120.4838920  41.1893060  59.0583260 116.0871350  52.0111350  58.0913470
 116.5246220  52.5541020  58.7471050 116.5719080  51.1858300  58.1009810
 113.3017150  54.8000380  65.5433730 113.6320160  53.9321440  65.3112370
 113.7308150  55.0058900  66.3738690 117.8979070  53.1309390  63.2035700
 117.5974610  53.0074360  64.1039610 117.7916560  52.2717980  62.7951430
 113.7907360  55.6670970  68.2815360 113.3538350  55.8471770  69.1139510
 114.3585040  56.4245590  68.1397080 130.1227450  49.6553270  60.4096580
 130.8846360  50.2249920  60.5156270 130.1381820  49.0880470  61.1804890
 131.1287420  50.5103370  65.2538510 131.4996250  49.7270690  64.8474480
 131.7689350  51.1992470  65.0755810 130.1746620  49.9487640  57.5669100
 130.4495460  50.8566520  57.4388320 129.9857360  49.8850170  58.5031090
 130.0711960  47.8856630  62.5598530 129.6955560  47.1184560  62.1279820
 129.3415080  48.2679330  63.0473460 114.6607720  48.5643770  69.1807580
 115.0280760  48.4771170  70.0603600 114.0918540  47.8010320  69.0814440
 114.2123720  45.4752860  73.0866000 113.3179770  45.4419620  73.4259710
 114.7521270  45.6739650  73.8517250 127.8999650  42.2584580  74.9717750
 128.7769830  42.2667980  75.3551750 127.9120490  41.5215420  74.3610100
 129.3462920  46.1114120  65.8605770 129.8700400  45.6176770  65.2295940
 129.9322340  46.2464480  66.6053340 129.5252640  46.1953990  69.3825320
 128.5755350  46.1617530  69.4970310 129.7065650  47.1054100  69.1475090
 115.3797080  44.4455670  58.4923950 116.0888780  44.0238890  58.0071230
 114.6637020  44.5130900  57.8607300 115.0271240  40.4995000  57.5326600
 115.7499370  41.0403940  57.8507820 115.2995760  40.2258420  56.6568140
 128.8362890  45.3687470  61.7998180 129.3322010  45.1358340  62.5847060
 128.6378960  44.5299310  61.3835820 114.7163430  39.7501190  67.4349220
 115.3639620  39.1998570  66.9944380 115.1365270  40.0044340  68.2565030
 130.2650050  44.0048420  64.3335860 130.1549330  43.8504460  65.2718130
 131.0257640  43.4769360  64.0911270 128.6115770  39.9442550  70.7918860
 129.2487990  40.5576690  71.1578050 128.7590660  39.9803210  69.8468090
 131.1540320  41.8356340  57.5742000 132.0789630  41.7037520  57.3660290
 131.1316110  41.9149160  58.5278450 131.2278810  42.6067000  60.1998710
 130.4330310  42.5412120  60.7291620 131.4322090  43.5417640  60.1884060
 128.1697230  56.6458550  64.1937100 128.7656300  56.3243120  63.5171520
 128.4275380  56.1730370  64.9850370 114.4695430  39.9056860  70.1774540
 114.1210250  40.3620680  70.9432720 114.1383130  39.0113990  70.2596970
 116.0759800  53.0776460  74.3427730 116.0329430  52.7069370  75.2242190
 116.2070810  54.0154030  74.4829550 119.7765830  54.6336050  69.9437450
 119.5357190  54.9010610  69.0567970 120.7168470  54.8041780  69.9988310
 121.9820250  41.0968740  73.6993960 121.9209140  41.6890570  74.4489370
 122.9220630  40.9894700  73.5544220 124.6194810  40.7538800  73.3386250
 125.2335220  41.0718090  72.6767330 125.1644370  40.2687390  73.9582110
 115.1416070  39.4333060  73.4525310 115.6899060  39.2521110  72.6891420
 115.2071380  38.6427170  73.9881620 115.9147830  56.0238710  71.4625510
 115.3208150  55.8923410  72.2015550 115.9071670  55.1876850  70.9967610
 125.3602850  39.3170940  69.6655540 124.4862690  39.6506050  69.4628470
 125.2513600  38.8444120  70.4907410 126.2674830  41.5241810  71.0497260
 125.9388190  40.7093570  70.6698990 127.2157130  41.4811620  70.9262950
 115.5460060  53.3897090  70.4133550 114.8194120  52.7702380  70.3459500
 115.6069210  53.7837700  69.5431630 119.1505160  55.6042090  67.1982960
 119.6670180  54.9929450  66.6731220 119.8002540  56.1070870  67.6893970
 123.1077670  40.2340780  68.6048450 122.3249460  40.7086280  68.8845210
 122.8140600  39.3295610  68.4961630 127.6598740  40.9363880  66.6497540
 128.1006830  40.8808980  65.8019140 127.3906330  41.8521890  66.7207720
 129.5237310  40.5679120  64.6606360 129.4625710  39.6240340  64.5137380
 130.3029340  40.6759210  65.2059820 114.4518080  40.5388260  61.1262170
 115.2097440  40.6517140  60.5526200 113.9895250  41.3757460  61.0805600
 125.4956870  39.3169980  65.3547550 126.0986240  39.8890190  65.8296070
 124.7549860  39.8809420  65.1321450 128.6391470  39.7191540  60.6287830
 128.8342100  40.6174990  60.8955260 127.8521340  39.4878620  61.1220780
 115.4352760  55.4004710  61.0680450 114.9100380  55.7812740  60.3642410
 115.3597340  56.0255480  61.7890160 116.8243230  41.0652310  59.6664140
 117.3535990  40.2782110  59.5372090 117.4571550  41.7443500  59.8999670
 121.9573020  57.4166680  75.3920140 122.8840330  57.1810950  75.4356100
 121.9423450  58.2438680  74.9106170 130.1918080  56.9592250  62.3894390
 130.3670270  56.2729990  61.7455310 129.4939650  57.4839300  61.9971060
 119.1436630  40.0811430  75.1562020 118.8620900  40.5845030  74.3922840
 119.5256330  39.2833180  74.7904150 118.0345730  57.3487090  59.9429700
 118.7664550  57.0646370  59.3953590 118.2939400  57.1100370  60.8329080
 117.1960520  53.4651820  59.9476030 116.5669400  53.9336920  60.4961860
 117.3108350  52.6201040  60.3822220 125.7452090  39.4965010  75.7342490
 125.6317540  39.8159620  76.6294010 126.5621830  39.8977520  75.4379770
 124.6510240  47.5157480  46.0977230 124.5704290  46.6012090  45.8268940
 124.2374660  48.0124550  45.3916940 116.7994110  49.6056310  48.8562260
 115.9678990  49.3505020  49.2558770 117.4075090  49.6767080  49.5920180
 116.7795370  53.6396400  49.0520280 117.0823410  52.7494140  48.8730500
 117.5238960  54.1966620  48.8242530 115.2086060  44.5658200  42.6404650
 114.3202760  44.9074170  42.5384530 115.4927250  44.3658520  41.7485480
 113.1719070  47.1663850  48.5244350 113.7435180  46.3986050  48.5247990
 113.1720610  47.4652610  47.6150960 123.0299020  55.9854700  46.3789620
 122.4110460  56.4412200  45.8084060 123.8850800  56.1406160  45.9779320
 122.2237270  51.9693690  47.9856660 122.1545550  51.0283630  47.8245790
 122.9857130  52.0595100  48.5579230 114.4143940  42.5748210  50.3113280
 114.2346780  41.6773960  50.5916040 114.0124020  43.1220080  50.9860230
 123.2542440  44.7764070  48.2125590 123.6307260  43.9035950  48.0999260
 123.1561950  45.1122770  47.3216030 117.3847450  43.1489700  43.6743030
 117.4914200  44.0493430  43.9811790 116.4739810  43.1007670  43.3837680
 127.0366560  42.2714510  45.1453930 127.8576180  41.7811080  45.1879410
 127.0700640  42.8612170  45.8985770 115.0330610  45.0708710  48.9195620
 115.7140720  45.3347080  49.5383020 114.7178660  44.2309580  49.2533630
 119.2255180  46.1176070  48.0068210 119.7333400  46.6157040  48.6473230
 119.7568420  45.3411270  47.8307570 131.3266110  44.2881260  51.7097560
 130.6218280  44.6762970  51.1912670 131.5924030  44.9831550  52.3118490
 123.8962370  50.8693940  43.7721530 123.2779640  51.3343390  43.2084250
 124.4085620  51.5621420  44.1891040 118.7594130  50.3969810  50.4505130
 118.4263510  51.0238730  51.0926200 118.9360810  50.9231690  49.6706800
 127.2728040  44.2114890  47.9181470 126.5683610  44.4999780  48.4984580
 127.6340200  45.0215000  47.5581030 117.1906610  42.4684590  50.2802080
 117.5323420  43.3126640  49.9855950 116.2522420  42.6168330  50.3967420
 117.9713230  52.3650610  52.2654310 118.5887230  53.0401690  51.9838760
 117.1106350  52.7738590  52.1741810 128.8890820  53.8290020  50.1808950
 128.2054340  54.4989130  50.1725620 129.4285110  54.0270670  49.4153810
 130.3414960  43.6569680  48.3090680 129.3939870  43.6908660  48.4406110
 130.6664950  44.4708630  48.6940040 120.8734500  39.9566860  46.6046670
 121.1809480  39.4013750  45.8882170 119.9435200  40.0911320  46.4219660
 127.7194980  52.3950370  43.9844300 127.6091310  51.4524700  44.1093720
 127.7163230  52.7566010  44.8707060 123.2615260  48.0215690  43.3406790
 122.3344540  47.9553070  43.5695260 123.4140080  48.9595820  43.2262030
 123.2484340  44.2932690  40.3373950 122.3088010  44.4546650  40.4226410
 123.5667600  45.0118370  39.7909940 129.7697100  48.9751210  50.3152980
 128.9415730  49.0444300  49.8403110 130.3647580  49.5605520  49.8468810
 127.2912550  49.5835990  43.8442040 126.6724970  49.2455540  43.1968340
 127.2737000  48.9395750  44.5521230 118.8671900  48.5480430  46.1226520
 118.4628900  47.8357680  45.6272420 118.9535020  48.2033670  47.0114560
 119.3353600  52.2347990  48.2865730 119.0381890  51.6293460  47.6073510
 120.2853420  52.2725300  48.1755090 118.4272030  51.9729680  54.9373530
 117.5300560  52.1969650  55.1846930 118.4524900  52.0964620  53.9884930
 125.4677250  48.8222800  40.8514790 125.9070530  47.9845230  40.7052610
 126.1805670  49.4552200  40.9378930 117.2543250  48.8443000  53.5130900
 117.1151020  49.7165800  53.8818300 116.3724610  48.5015810  53.3678840
 123.5772630  53.7618870  44.8196030 124.0168540  54.5043200  44.4051420
 123.5159520  54.0045440  45.7434990 129.0494390  40.0765610  39.1655830
 128.7367050  40.1692440  40.0654900 129.8106860  40.6546640  39.1153260
 115.5676530  47.4425410  43.6233170 115.4474130  48.1687500  43.0114440
 115.2577420  46.6728320  43.1461080 113.2061900  50.6140550  49.4301810
 113.2842320  50.7489320  48.4857530 113.8203580  49.9056440  49.6229930
 130.4071670  52.7604650  54.1780230 130.5334730  52.5216530  53.2597410
 130.4493050  51.9289190  54.6502310 126.2442810  56.7487990  42.1759040
 126.0843950  56.4590930  43.0740870 126.0789520  55.9728120  41.6404270
 118.7231190  56.5286520  43.9530660 118.5473670  55.6122060  43.7398460
 117.8686930  56.8873810  44.1928460 125.9468940  54.2575550  40.7357040
 125.2534100  54.2552840  40.0759320 126.6891800  53.8334870  40.3051210
 125.5118870  55.8838260  44.8105530 125.9675820  55.1027640  45.1244150
 125.8511390  56.5945080  45.3546710 130.2595680  44.8137110  55.1429970
 129.6439950  45.3216780  54.6145430 129.9392100  43.9135440  55.0855910
 113.2621420  51.6554720  51.9696270 113.4252460  51.1860080  51.1515640
 113.7273870  51.1478280  52.6345110 118.0340190  40.7860480  47.0056840
 117.5908340  41.5670020  46.6741360 118.5925180  41.1090370  47.7127780
 127.3214510  44.8737950  53.7388820 126.4708100  44.5743700  54.0597890
 127.1616300  45.1179960  52.8272640 124.4164220  46.3739700  55.8387610
 124.7417630  45.5403450  55.4989840 125.2044550  46.8968220  55.9865940
 121.1499010  40.4071180  41.8862670 120.5253190  40.4031050  42.6115980
 121.0629130  39.5402140  41.4898640 120.0716090  41.3307810  48.8646440
 120.3688420  42.2370640  48.7838460 120.6201650  40.8426590  48.2506010
 117.8254410  45.9094050  44.7338090 117.5995330  45.6931220  45.6384710
 117.0446940  46.3422510  44.3884060 125.0552170  45.9157420  43.3328740
 124.4561060  46.6393220  43.1492360 125.6031780  45.8534200  42.5505190
 123.6617040  44.5520960  45.3632020 124.0546610  44.8693160  44.5500710
 124.0233890  43.6732840  45.4776540 121.9709210  43.3028270  56.6228880
 121.2807530  43.1100470  57.2574970 122.7141510  43.5862910  57.1553180
 112.6981210  41.1421760  47.5862220 112.4094260  41.7124620  48.2987200
 113.4426970  40.6626210  47.9493450 112.8851440  45.0841880  38.7964940
 112.8026110  46.0272640  38.9379930 112.5334500  44.9416790  37.9177290
 120.6849570  43.8180910  47.8635290 120.6885630  43.3770860  47.0139830
 121.5800690  44.1398240  47.9707110 116.5351950  43.7007400  46.8229500
 116.1952000  44.1782630  47.5796550 115.7729270  43.2472520  46.4630600
 120.7469720  44.8192990  40.8542050 120.8682540  44.7779470  41.8027870
 120.3618230  45.6817140  40.6988780 124.7098090  42.5960390  48.8705740
 124.7270830  43.0469040  49.7147590 124.4613670  41.6966030  49.0839180
 119.7591220  47.1294130  40.2525350 119.1908120  46.6812380  39.6261260
 120.4680220  47.4886910  39.7190500 128.1368840  40.0092570  54.7092120
 128.4614610  39.2782230  55.2350100 128.1725350  39.6906210  53.8073110
 114.8360400  51.0306150  54.1292080 114.4515190  50.3899820  54.7275040
 115.1472590  51.7342270  54.6986810 120.9857540  47.8782690  49.6100700
 121.3527670  47.4041260  50.3562040 120.7962600  48.7524260  49.9509040
 113.8498030  42.6226380  45.7394170 113.5644950  42.2582050  46.5772790
 113.7876890  41.8906840  45.1257310 117.3038700  51.1252320  42.5251760
 116.5300960  50.5849940  42.3650480 118.0333330  50.6058930  42.1869520
 123.5236620  41.5155640  42.4607540 122.7101230  41.0168810  42.3852850
 123.3298570  42.3553890  42.0443890 126.2385010  45.8875290  40.7569700
 127.1264630  46.1992520  40.5821040 126.2090100  45.0147540  40.3650280
 117.3476100  50.7932700  46.1630570 117.8654770  49.9900960  46.1087460
 116.8960120  50.7311840  47.0047400 122.2345600  52.0598980  41.4357870
 122.5761300  52.8041210  40.9401190 121.4058310  52.3730100  41.7982700
 114.8320640  47.7594070  53.0756270 114.4735580  48.4247920  53.6629610
 114.5375200  46.9277620  53.4468890 118.0333760  48.2178310  55.9595820
 117.7333900  48.3635490  55.0623640 118.8045000  47.6583600  55.8669210
 128.5099280  47.1987130  40.2249560 128.4263000  47.6301350  39.3746000
 129.2293470  47.6585480  40.6576380 129.5873420  49.6554650  53.3019530
 128.8621610  50.2483430  53.1048920 130.1148880  49.6478190  52.5032900
 129.5386530  54.0529390  42.9531690 128.8962690  53.3985010  43.2275410
 129.1517190  54.4584480  42.1772360 121.2036290  52.1412510  44.2073790
 121.8907420  52.6881720  44.5881380 120.4168710  52.6853240  44.2423400
 113.3428690  47.7585330  39.6990870 114.2123540  48.0410130  39.9826790
 112.8519010  48.5721200  39.5839680 120.5063500  49.1458540  43.8199150
 120.9626280  49.9563790  44.0459340 120.1551710  48.8281680  44.6517640
 116.4075280  39.4896190  44.2921670 116.2789910  39.4814090  45.2406590
 115.5837300  39.8279280  43.9412680 127.9283910  52.9445850  39.4908040
 127.7021490  52.2276290  40.0832680 127.5380110  52.6958290  38.6529790
 113.7099940  56.9712710  40.2652500 114.0697580  57.5702050  39.6109770
 113.5692280  57.5172600  41.0387530 113.4069210  41.2487310  53.7528370
 112.6927730  41.4484230  54.3580980 113.8264250  40.4726880  54.1243170
 127.5100160  50.8617790  41.1522200 127.2221860  51.3230480  41.9400080
 128.3052330  50.4015560  41.4206420 113.6941800  55.2367570  54.7394900
 113.8032920  54.2962310  54.5990290 113.0422360  55.5022320  54.0908630
 119.7268560  54.3543910  41.0826170 119.7178660  55.0873600  40.4670680
 118.8066920  54.1075490  41.1753130 115.3275200  49.5758800  41.8272930
 114.7203150  50.3157700  41.8368230 115.8024550  49.6658160  41.0011130
 124.9007990  43.7409620  51.5029820 125.2688810  42.9204830  51.8309390
 124.0406190  43.8011510  51.9185470 128.2670020  42.6966560  42.3117380
 127.6383180  42.8012230  41.5975610 127.7721940  42.9163340  43.1011260
 122.7128160  54.4172150  39.7451360 122.8140140  54.2136140  38.8153340
 121.8129900  54.1630430  39.9499140 120.2354050  44.9752510  43.7275260
 119.5270200  45.4438850  44.1688870 120.5198530  44.3174520  44.3620450
 121.8609980  46.3949210  51.7267790 122.3595230  46.8695030  52.3919640
 122.0032930  45.4712730  51.9337820 124.2669480  41.7003170  45.1671050
 124.1437260  41.7189300  44.2180560 125.2154040  41.7482110  45.2869450
 121.3546270  56.9358470  44.4399030 121.6087770  56.8979860  43.5178400
 120.4058750  56.8091800  44.4327280 118.4389070  43.2837590  41.1025970
 119.2879600  43.7207740  41.0366160 118.0720340  43.5957850  41.9298030
 129.0676840  42.6117170  52.5696180 128.5650440  43.3522570  52.9089990
 129.8833500  43.0001170  52.2532970 127.3598850  47.8550350  46.0157540
 126.4188990  47.8700580  46.1905230 127.6742920  47.0686310  46.4617840
 117.3380490  49.5369950  39.5761500 118.1043760  49.4251310  40.1386930
 117.4155180  48.8407920  38.9238270 116.0327250  46.9695020  40.2594390
 116.1130840  46.0222530  40.3711790 116.9247000  47.3001900  40.3655050
 116.8341960  57.1190410  47.3628930 117.5704440  56.5705870  47.6337500
 117.2182880  57.9846420  47.2234920 115.8400240  56.3036480  56.5514510
 116.6412970  56.6248530  56.9649910 115.3252060  55.9432060  57.2734420
 119.9444270  56.2920720  39.1854500 120.7372880  56.5809550  38.7336290
 119.4248620  55.8612890  38.5066980 128.9974440  55.5190850  40.6091240
 128.7115950  55.1055990  39.7945420 128.7993990  56.4478560  40.4891760
 113.5598050  48.7909940  55.4950560 114.0637070  48.2117220  56.0666790
 112.8205470  49.0750170  56.0326930 120.4621670  51.5124130  39.0496850
 120.3572310  50.8976480  39.7758230 120.2945890  50.9890020  38.2659860
 120.6135990  50.1980930  55.0286080 119.8481660  50.7665930  54.9440750
 120.7951950  49.9057140  54.1354310 123.7024400  50.5744160  39.6538840
 123.1534500  51.0213460  40.2981580 124.3243660  50.0693410  40.1776510
 127.7559340  51.9286260  55.5861100 128.4968810  52.2662020  55.0828560
 126.9932020  52.0978320  55.0330870 115.5921130  46.9339530  56.3900630
 115.6326470  46.6353400  57.2985860 116.4466630  47.3347140  56.2308150
 119.3699520  49.5335080  41.5504140 119.7915940  49.3674950  42.3935530
 119.4950360  48.7235310  41.0559280 121.8827160  48.5572690  38.7981240
 122.4032820  47.8421710  38.4322390 122.5295560  49.1958560  39.0981750
 126.9027170  47.3197250  56.1255460 127.4847940  46.5649570  56.0375940
 127.0788940  47.8504690  55.3486940 120.7860680  41.0367240  51.4699800
 120.3377980  41.0591500  50.6245350 120.1525880  40.6386260  52.0670100
 121.1920230  49.9321570  52.0912240 121.6108340  50.7754300  51.9188480
 120.2728860  50.0693610  51.8619020 118.2658420  45.6068310  38.4962300
 118.0647480  44.7435670  38.8575640 118.0950470  45.5201670  37.5583900
 119.0427650  56.2374580  53.2069970 118.5048740  56.9620640  52.8878670
 119.2961610  55.7604920  52.4167310 125.1146330  43.8224910  54.9658920
 124.4261850  43.1606450  54.9008910 125.8352350  43.3763180  55.4107380
 125.7446730  40.4176540  41.0249180 126.0249020  39.5744440  41.3808600
 124.9712460  40.6499650  41.5387930 117.0641220  42.7068930  38.4840180
 117.3667120  42.7136360  37.5759330 117.8035810  42.3566790  38.9807840
 120.2826150  41.6503550  39.4696380 119.9348150  40.9727540  38.8898830
 120.4838920  41.1893060  40.2839770 122.4475190  56.6384300  41.0882980
 123.3425980  56.9769270  41.1101740 122.4792820  55.9163710  40.4607260
 116.0871350  52.0111350  39.3169980 116.5246220  52.5541020  39.9727560
 116.5719080  51.1858300  39.3266320 117.8979070  53.1309390  44.4292210
 117.5974610  53.0074360  45.3296120 117.7916560  52.2717980  44.0207940
 113.7907360  55.6670970  49.5071870 113.3538350  55.8471770  50.3396020
 114.3585040  56.4245590  49.3653590 130.6670990  52.9105790  39.1318890
 129.8363950  52.9782440  39.6026120 130.8442820  53.8009910  38.8285750
 130.1227450  49.6553270  41.6353090 130.8846360  50.2249920  41.7412780
 130.1381820  49.0880470  42.4061400 113.6231790  48.1791200  45.8660750
 112.9680630  47.9102840  45.2220450 114.4609740  48.0695680  45.4162730
 131.1287420  50.5103370  46.4795020 131.4996250  49.7270690  46.0730990
 131.7689350  51.1992470  46.3012320 130.1746620  49.9487640  38.7925610
 130.4495460  50.8566520  38.6644830 129.9857360  49.8850170  39.7287600
 126.5722230  42.9732490  40.0879240 126.9907110  42.7863470  39.2475900
 126.2658290  42.1211540  40.3982170 130.0711960  47.8856630  43.7855040
 129.6955560  47.1184560  43.3536330 129.3415080  48.2679330  44.2729970
 114.6607720  48.5643770  50.4064090 115.0280760  48.4771170  51.2860110
 114.0918540  47.8010320  50.3070950 129.4611580  47.0328150  53.4194560
 129.2297670  46.8040900  52.5192510 129.7216130  47.9527700  53.3739450
 127.8999650  42.2584580  56.1974260 128.7769830  42.2667980  56.5808260
 127.9120490  41.5215420  55.5866610 112.8369870  45.3890130  41.8086080
 111.9333950  45.6520330  41.6337740 113.3210490  45.6601300  41.0286040
 129.3462920  46.1114120  47.0862280 129.8700400  45.6176770  46.4552450
 129.9322340  46.2464480  47.8309850 129.5252640  46.1953990  50.6081830
 128.5755350  46.1617530  50.7226820 129.7065650  47.1054100  50.3731600
 115.3797080  44.4455670  39.7180460 116.0888780  44.0238890  39.2327740
 114.6637020  44.5130900  39.0863810 115.0271240  40.4995000  38.7583110
 115.7499370  41.0403940  39.0764330 115.2995760  40.2258420  37.8824650
 128.8362890  45.3687470  43.0254690 129.3322010  45.1358340  43.8103570
 128.6378960  44.5299310  42.6092330 114.7163430  39.7501190  48.6605730
 115.3639620  39.1998570  48.2200890 115.1365270  40.0044340  49.4821540
 130.2650050  44.0048420  45.5592370 130.1549330  43.8504460  46.4974640
 131.0257640  43.4769360  45.3167780 128.6115770  39.9442550  52.0175370
 129.2487990  40.5576690  52.3834560 128.7590660  39.9803210  51.0724600
 131.1540320  41.8356340  38.7998510 132.0789630  41.7037520  38.5916800
 131.1316110  41.9149160  39.7534960 131.2278810  42.6067000  41.4255220
 130.4330310  42.5412120  41.9548130 131.4322090  43.5417640  41.4140570
 114.4695430  39.9056860  51.4031050 114.1210250  40.3620680  52.1689230
 114.1383130  39.0113990  51.4853480 116.0759800  53.0776460  55.5684240
 116.0329430  52.7069370  56.4498700 116.2070810  54.0154030  55.7086060
 119.7765830  54.6336050  51.1693960 119.5357190  54.9010610  50.2824480
 120.7168470  54.8041780  51.2244820 121.9820250  41.0968740  54.9250470
 121.9209140  41.6890570  55.6745880 122.9220630  40.9894700  54.7800730
 124.6194810  40.7538800  54.5642760 125.2335220  41.0718090  53.9023840
 125.1644370  40.2687390  55.1838620 131.0369990  56.6530430  51.9704600
 130.5428270  57.0499300  51.2531730 130.4283280  56.0279640  52.3641880
 115.1416070  39.4333060  54.6781820 115.6899060  39.2521110  53.9147930
 115.2071380  38.6427170  55.2138130 115.9147830  56.0238710  52.6882020
 115.3208150  55.8923410  53.4272060 115.9071670  55.1876850  52.2224120
 125.3602850  39.3170940  50.8912050 124.4862690  39.6506050  50.6884980
 125.2513600  38.8444120  51.7163920 126.2674830  41.5241810  52.2753770
 125.9388190  40.7093570  51.8955500 127.2157130  41.4811620  52.1519460
 115.5460060  53.3897090  51.6390060 114.8194120  52.7702380  51.5716010
 115.6069210  53.7837700  50.7688140 119.1505160  55.6042090  48.4239470
 119.6670180  54.9929450  47.8987730 119.8002540  56.1070870  48.9150480
 123.1077670  40.2340780  49.8304960 122.3249460  40.7086280  50.1101720
 122.8140600  39.3295610  49.7218140 127.6598740  40.9363880  47.8754050
 128.1006830  40.8808980  47.0275650 127.3906330  41.8521890  47.9464230
 129.5237310  40.5679120  45.8862870 129.4625710  39.6240340  45.7393890
 130.3029340  40.6759210  46.4316330 114.4518080  40.5388260  42.3518680
 115.2097440  40.6517140  41.7782710 113.9895250  41.3757460  42.3062110
 120.9931890  42.6527530  45.3420990 120.1806400  42.2784420  45.0016870
 121.4973530  41.8972610  45.6442180 125.4956870  39.3169980  46.5804060
 126.0986240  39.8890190  47.0552580 124.7549860  39.8809420  46.3577960
 128.6391470  39.7191540  41.8544340 128.8342100  40.6174990  42.1211770
 127.8521340  39.4878620  42.3477290 115.4352760  55.4004710  42.2936960
 114.9100380  55.7812740  41.5898920 115.3597340  56.0255480  43.0146670
 116.8243230  41.0652310  40.8920650 117.3535990  40.2782110  40.7628600
 117.4571550  41.7443500  41.1256180 119.0181070  40.8027450  43.9466040
 118.3883810  40.1014760  44.1136170 118.4786210  41.5631580  43.7299200
 130.1918080  56.9592250  43.6150900 130.3670270  56.2729990  42.9711820
 129.4939650  57.4839300  43.2227570 119.1436630  40.0811430  56.3818530
 118.8620900  40.5845030  55.6179350 119.5256330  39.2833180  56.0160660
 118.0345730  57.3487090  41.1686210 118.7664550  57.0646370  40.6210100
 118.2939400  57.1100370  42.0585590 117.1960520  53.4651820  41.1732540
 116.5669400  53.9336920  41.7218370 117.3108350  52.6201040  41.6078730
 125.7452090  39.4965010  56.9599000 125.6317540  39.8159620  57.8550520
 126.5621830  39.8977520  56.6636280 124.6510240  47.5157480  27.3233740
 124.5704290  46.6012090  27.0525450 124.2374660  48.0124550  26.6173450
 122.7828280  49.2936500  29.2043010 122.0070380  48.8136940  29.4941580
 123.4341210  48.6142150  29.0299170 116.7994110  49.6056310  30.0818770
 115.9678990  49.3505020  30.4815280 117.4075090  49.6767080  30.8176690
 126.8035710  53.6996690  27.9842140 126.3417240  52.9283930  28.3129310
 127.6161260  53.7262760  28.4894590 116.7795370  53.6396400  30.2776790
 117.0823410  52.7494140  30.0987010 117.5238960  54.1966620  30.0499040
 115.2086060  44.5658200  23.8661160 114.3202760  44.9074170  23.7641040
 115.4927250  44.3658520  22.9741990 113.1719070  47.1663850  29.7500860
 113.7435180  46.3986050  29.7504500 113.1720610  47.4652610  28.8407470
 123.0299020  55.9854700  27.6046130 122.4110460  56.4412200  27.0340570
 123.8850800  56.1406160  27.2035830 122.2237270  51.9693690  29.2113170
 122.1545550  51.0283630  29.0502300 122.9857130  52.0595100  29.7835740
 114.4143940  42.5748210  31.5369790 114.2346780  41.6773960  31.8172550
 114.0124020  43.1220080  32.2116740 123.2542440  44.7764070  29.4382100
 123.6307260  43.9035950  29.3255770 123.1561950  45.1122770  28.5472540
 117.3847450  43.1489700  24.8999540 117.4914200  44.0493430  25.2068300
 116.4739810  43.1007670  24.6094190 127.0366560  42.2714510  26.3710440
 127.8576180  41.7811080  26.4135920 127.0700640  42.8612170  27.1242280
 115.0330610  45.0708710  30.1452130 115.7140720  45.3347080  30.7639530
 114.7178660  44.2309580  30.4790140 119.2255180  46.1176070  29.2324720
 119.7333400  46.6157040  29.8729740 119.7568420  45.3411270  29.0564080
 131.3266110  44.2881260  32.9354070 130.6218280  44.6762970  32.4169180
 131.5924030  44.9831550  33.5375000 117.5091280  40.7574630  33.4988140
 117.5109720  41.2747020  32.6934040 116.6795590  40.2804810  33.4758070
 123.8962370  50.8693940  24.9978040 123.2779640  51.3343390  24.4340760
 124.4085620  51.5621420  25.4147550 118.7594130  50.3969810  31.6761640
 118.4263510  51.0238730  32.3182710 118.9360810  50.9231690  30.8963310
 127.2728040  44.2114890  29.1437980 126.5683610  44.4999780  29.7241090
 127.6340200  45.0215000  28.7837540 117.1906610  42.4684590  31.5058590
 117.5323420  43.3126640  31.2112460 116.2522420  42.6168330  31.6223930
 117.9713230  52.3650610  33.4910820 118.5887230  53.0401690  33.2095270
 117.1106350  52.7738590  33.3998320 113.2645570  51.5550470  22.3717670
 112.8873550  52.0437570  21.6402570 113.5218640  52.2275750  23.0024200
 128.8890820  53.8290020  31.4065460 128.2054340  54.4989130  31.3982130
 129.4285110  54.0270670  30.6410320 130.3414960  43.6569680  29.5347190
 129.3939870  43.6908660  29.6662620 130.6664950  44.4708630  29.9196550
 120.8734500  39.9566860  27.8303180 121.1809480  39.4013750  27.1138680
 119.9435200  40.0911320  27.6476170 126.4249560  55.6734150  30.1210640
 126.4376720  55.2696440  29.2532900 125.8724780  56.4481440  30.0172070
 127.7194980  52.3950370  25.2100810 127.6091310  51.4524700  25.3350230
 127.7163230  52.7566010  26.0963570 125.8235000  50.5763990  31.4493250
 126.2403790  50.3624100  30.6146710 126.5474820  50.8336780  32.0201870
 123.2615260  48.0215690  24.5663300 122.3344540  47.9553070  24.7951770
 123.4140080  48.9595820  24.4518540 123.2484340  44.2932690  21.5630460
 122.3088010  44.4546650  21.6482920 123.5667600  45.0118370  21.0166450
 129.7697100  48.9751210  31.5409490 128.9415730  49.0444300  31.0659620
 130.3647580  49.5605520  31.0725320 127.2912550  49.5835990  25.0698550
 126.6724970  49.2455540  24.4224850 127.2737000  48.9395750  25.7777740
 126.7339110  45.7620530  32.4864360 126.3210290  46.5874240  32.7404350
 126.0015060  45.1765570  32.2940720 118.8671900  48.5480430  27.3483030
 118.4628900  47.8357680  26.8528930 118.9535020  48.2033670  28.2371070
 119.3353600  52.2347990  29.5122240 119.0381890  51.6293460  28.8330020
 120.2853420  52.2725300  29.4011600 117.5800520  45.3223640  31.1282070
 118.1315110  45.4318980  30.3535320 118.0944030  45.6961240  31.8437300
 127.4239210  55.8079860  33.1745340 126.9469770  56.6152050  32.9817950
 126.7401000  55.1558190  33.3271550 118.4272030  51.9729680  36.1630040
 117.5300560  52.1969650  36.4103440 118.4524900  52.0964620  35.2141440
 125.4677250  48.8222800  22.0771300 125.9070530  47.9845230  21.9309120
 126.1805670  49.4552200  22.1635440 117.2543250  48.8443000  34.7387410
 117.1151020  49.7165800  35.1074810 116.3724610  48.5015810  34.5935350
 123.5772630  53.7618870  26.0452540 124.0168540  54.5043200  25.6307930
 123.5159520  54.0045440  26.9691500 119.0523600  54.7864700  36.9472560
 119.0239030  55.1907650  36.0800990 118.8888570  53.8575060  36.7844160
 129.0494390  40.0765610  20.3912340 128.7367050  40.1692440  21.2911410
 129.8106860  40.6546640  20.3409770 115.5676530  47.4425410  24.8489680
 115.4474130  48.1687500  24.2370950 115.2577420  46.6728320  24.3717590
 131.0038420  55.5691800  38.2436730 131.4798140  56.0474690  38.9225810
 131.6245580  55.5009290  37.5182230 113.2061900  50.6140550  30.6558320
 113.2842320  50.7489320  29.7114040 113.8203580  49.9056440  30.8486440
 114.4509530  52.3140740  27.0664500 114.0437610  52.4555330  26.2118100
 115.3422540  52.0300900  26.8635710 130.4071670  52.7604650  35.4036740
 130.5334730  52.5216530  34.4853920 130.4493050  51.9289190  35.8758820
 124.2688410  56.4632650  33.9731550 124.7833080  56.3740660  34.7753980
 123.4257490  56.8092350  34.2659460 126.2442810  56.7487990  23.4015550
 126.0843950  56.4590930  24.2997380 126.0789520  55.9728120  22.8660780
 118.7231190  56.5286520  25.1787170 118.5473670  55.6122060  24.9654970
 117.8686930  56.8873810  25.4184970 125.9468940  54.2575550  21.9613550
 125.2534100  54.2552840  21.3015830 126.6891800  53.8334870  21.5307720
 125.5118870  55.8838260  26.0362040 125.9675820  55.1027640  26.3500660
 125.8511390  56.5945080  26.5803220 130.2595680  44.8137110  36.3686480
 129.6439950  45.3216780  35.8401940 129.9392100  43.9135440  36.3112420
 113.2621420  51.6554720  33.1952780 113.4252460  51.1860080  32.3772150
 113.7273870  51.1478280  33.8601620 118.0340190  40.7860480  28.2313350
 117.5908340  41.5670020  27.8997870 118.5925180  41.1090370  28.9384290
 122.3210000  43.6529000  33.8348670 121.8589370  43.8612020  34.6468610
 121.9188110  42.8388350  33.5319340 127.3214510  44.8737950  34.9645330
 126.4708100  44.5743700  35.2854400 127.1616300  45.1179960  34.0529150
 124.4164220  46.3739700  37.0644120 124.7417630  45.5403450  36.7246350
 125.2044550  46.8968220  37.2122450 121.1499010  40.4071180  23.1119180
 120.5253190  40.4031050  23.8372490 121.0629130  39.5402140  22.7155150
 120.0716090  41.3307810  30.0902950 120.3688420  42.2370640  30.0094970
 120.6201650  40.8426590  29.4762520 117.8254410  45.9094050  25.9594600
 117.5995330  45.6931220  26.8641220 117.0446940  46.3422510  25.6140570
 125.0552170  45.9157420  24.5585250 124.4561060  46.6393220  24.3748870
 125.6031780  45.8534200  23.7761700 120.2653620  46.8079630  36.6254870
 120.1697220  45.8674360  36.4755270 121.1085600  47.0294700  36.2302940
 123.6617040  44.5520960  26.5888530 124.0546610  44.8693160  25.7757220
 124.0233890  43.6732840  26.7033050 115.3964160  43.2193300  34.7788650
 115.0027550  44.0668510  34.9861430 114.7082560  42.5819670  34.9697290
 121.9709210  43.3028270  37.8485390 121.2807530  43.1100470  38.4831480
 122.7141510  43.5862910  38.3809690 112.6981210  41.1421760  28.8118730
 112.4094260  41.7124620  29.5243710 113.4426970  40.6626210  29.1749960
 112.8851440  45.0841880  20.0221450 112.8026110  46.0272640  20.1636440
 112.5334500  44.9416790  19.1433800 124.2472180  47.1426710  30.6839310
 123.5153300  47.6513520  31.0329410 123.8496520  46.3256690  30.3828090
 120.6849570  43.8180910  29.0891800 120.6885630  43.3770860  28.2396340
 121.5800690  44.1398240  29.1963620 116.5351950  43.7007400  28.0486010
 116.1952000  44.1782630  28.8053060 115.7729270  43.2472520  27.6887110
 120.7469720  44.8192990  22.0798560 120.8682540  44.7779470  23.0284380
 120.3618230  45.6817140  21.9245290 124.7098090  42.5960390  30.0962250
 124.7270830  43.0469040  30.9404100 124.4613670  41.6966030  30.3095690
 119.7591220  47.1294130  21.4781860 119.1908120  46.6812380  20.8517770
 120.4680220  47.4886910  20.9447010 128.1368840  40.0092570  35.9348630
 128.4614610  39.2782230  36.4606610 128.1725350  39.6906210  35.0329620
 114.8360400  51.0306150  35.3548590 114.4515190  50.3899820  35.9531550
 115.1472590  51.7342270  35.9243320 120.9857540  47.8782690  30.8357210
 121.3527670  47.4041260  31.5818550 120.7962600  48.7524260  31.1765550
 113.8498030  42.6226380  26.9650680 113.5644950  42.2582050  27.8029300
 113.7876890  41.8906840  26.3513820 118.7756910  46.9191330  33.1541420
 118.4713980  47.7983310  33.3791780 119.7303370  46.9791120  33.1898860
 117.3038700  51.1252320  23.7508270 116.5300960  50.5849940  23.5906990
 118.0333330  50.6058930  23.4126030 128.0626680  50.1217680  29.5434660
 128.7825800  50.6172970  29.1530770 127.8608500  49.4435570  28.8988530
 123.5236620  41.5155640  23.6864050 122.7101230  41.0168810  23.6109360
 123.3298570  42.3553890  23.2700400 123.4445480  50.1926740  35.4303660
 123.3782790  49.2722410  35.1761250 122.8150620  50.2902180  36.1448300
 126.2385010  45.8875290  21.9826210 127.1264630  46.1992520  21.8077550
 126.2090100  45.0147540  21.5906790 117.3476100  50.7932700  27.3887080
 117.8654770  49.9900960  27.3343970 116.8960120  50.7311840  28.2303910
 122.2345600  52.0598980  22.6614380 122.5761300  52.8041210  22.1657700
 121.4058310  52.3730100  23.0239210 114.8320640  47.7594070  34.3012780
 114.4735580  48.4247920  34.8886120 114.5375200  46.9277620  34.6725400
 118.0333760  48.2178310  37.1852330 117.7333900  48.3635490  36.2880150
 118.8045000  47.6583600  37.0925720 123.3762210  53.0147310  35.1807460
 123.3906750  52.0828270  34.9626370 122.6687310  53.1007070  35.8197230
 128.5099280  47.1987130  21.4506070 128.4263000  47.6301350  20.6002510
 129.2293470  47.6585480  21.8832890 129.5873420  49.6554650  34.5276040
 128.8621610  50.2483430  34.3305430 130.1148880  49.6478190  33.7289410
 129.5386530  54.0529390  24.1788200 128.8962690  53.3985010  24.4531920
 129.1517190  54.4584480  23.4028870 125.1173010  51.3814820  28.0259890
 125.4696830  50.7842950  27.3661260 124.2335340  51.0559050  28.1968140
 121.2036290  52.1412510  25.4330300 121.8907420  52.6881720  25.8137890
 120.4168710  52.6853240  25.4679910 113.3428690  47.7585330  20.9247380
 114.2123540  48.0410130  21.2083300 112.8519010  48.5721200  20.8096190
 120.5063500  49.1458540  25.0455660 120.9626280  49.9563790  25.2715850
 120.1551710  48.8281680  25.8774150 122.8096110  54.6564880  32.2747960
 123.4538330  54.8624260  32.9521380 123.1725550  53.8953280  31.8218810
 116.4075280  39.4896190  25.5178180 116.2789910  39.4814090  26.4663100
 115.5837300  39.8279280  25.1669190 124.0828190  52.6597230  30.9925410
 124.7250420  51.9590390  31.1057580 124.6077540  53.4395670  30.8122300
 127.9283910  52.9445850  20.7164550 127.7021490  52.2276290  21.3089190
 127.5380110  52.6958290  19.8786300 125.8565810  53.4592130  34.1961470
 126.1922050  54.0458820  34.8739390 124.9366150  53.3284840  34.4259260
 113.7099940  56.9712710  21.4909010 114.0697580  57.5702050  20.8366280
 113.5692280  57.5172600  22.2644040 113.4069210  41.2487310  34.9784880
 112.6927730  41.4484230  35.5837490 113.8264250  40.4726880  35.3499680
 127.5100160  50.8617790  22.3778710 127.2221860  51.3230480  23.1656590
 128.3052330  50.4015560  22.6462930 113.6941800  55.2367570  35.9651410
 113.8032920  54.2962310  35.8246800 113.0422360  55.5022320  35.3165140
 121.6854390  53.5083460  37.3649530 121.3651260  52.7892700  37.9095220
 121.0112750  54.1838530  37.4385590 119.7268560  54.3543910  22.3082680
 119.7178660  55.0873600  21.6927190 118.8066920  54.1075490  22.4009640
 115.3275200  49.5758800  23.0529440 114.7203150  50.3157700  23.0624740
 115.8024550  49.6658160  22.2267640 124.9007990  43.7409620  32.7286330
 125.2688810  42.9204830  33.0565900 124.0406190  43.8011510  33.1441980
 128.2670020  42.6966560  23.5373890 127.6383180  42.8012230  22.8232120
 127.7721940  42.9163340  24.3267770 122.7128160  54.4172150  20.9707870
 122.8140140  54.2136140  20.0409850 121.8129900  54.1630430  21.1755650
 120.2354050  44.9752510  24.9531770 119.5270200  45.4438850  25.3945380
 120.5198530  44.3174520  25.5876960 121.8609980  46.3949210  32.9524300
 122.3595230  46.8695030  33.6176150 122.0032930  45.4712730  33.1594330
 124.2669480  41.7003170  26.3927560 124.1437260  41.7189300  25.4437070
 125.2154040  41.7482110  26.5125960 121.3546270  56.9358470  25.6655540
 121.6087770  56.8979860  24.7434910 120.4058750  56.8091800  25.6583790
 118.4389070  43.2837590  22.3282480 119.2879600  43.7207740  22.2622670
 118.0720340  43.5957850  23.1554540 129.0676840  42.6117170  33.7952690
 128.5650440  43.3522570  34.1346500 129.8833500  43.0001170  33.4789480
 127.3598850  47.8550350  27.2414050 126.4188990  47.8700580  27.4161740
 127.6742920  47.0686310  27.6874350 117.3380490  49.5369950  20.8018010
 118.1043760  49.4251310  21.3643440 117.4155180  48.8407920  20.1494780
 116.0327250  46.9695020  21.4850900 116.1130840  46.0222530  21.5968300
 116.9247000  47.3001900  21.5911560 129.3624430  55.0259200  28.9168310
 129.4871850  55.8490370  29.3892120 130.2289990  54.8149930  28.5692460
 116.8341960  57.1190410  28.5885440 117.5704440  56.5705870  28.8594010
 117.2182880  57.9846420  28.4491430 113.7187440  53.1863980  24.4626950
 112.7927220  53.4285120  24.4532360 114.1843870  54.0138240  24.3411700
 115.8400240  56.3036480  37.7771020 116.6412970  56.6248530  38.1906420
 115.3252060  55.9432060  38.4990930 119.9444270  56.2920720  20.4111010
 120.7372880  56.5809550  19.9592800 119.4248620  55.8612890  19.7323490
 124.6764870  52.4116350  37.7246430 124.0703030  52.4347950  36.9842180
 124.3718980  51.6799390  38.2613680 126.1065240  56.1396640  36.3355840
 127.0586990  56.0554660  36.2856080 125.9593460  56.8038350  37.0089630
 128.9974440  55.5190850  21.8347750 128.7115950  55.1055990  21.0201930
 128.7993990  56.4478560  21.7148270 113.5598050  48.7909940  36.7207070
 114.0637070  48.2117220  37.2923300 112.8205470  49.0750170  37.2583440
 120.4621670  51.5124130  20.2753360 120.3572310  50.8976480  21.0014740
 120.2945890  50.9890020  19.4916370 120.6135990  50.1980930  36.2542590
 119.8481660  50.7665930  36.1697260 120.7951950  49.9057140  35.3610820
 123.7024400  50.5744160  20.8795350 123.1534500  51.0213460  21.5238090
 124.3243660  50.0693410  21.4033020 127.7559340  51.9286260  36.8117610
 128.4968810  52.2662020  36.3085070 126.9932020  52.0978320  36.2587380
 115.5921130  46.9339530  37.6157140 115.6326470  46.6353400  38.5242370
 116.4466630  47.3347140  37.4564660 119.3699520  49.5335080  22.7760650
 119.7915940  49.3674950  23.6192040 119.4950360  48.7235310  22.2815790
 117.5326940  45.5131630  35.5831630 117.0023400  45.0222580  34.9554970
 118.2015010  45.9415830  35.0489560 121.8827160  48.5572690  20.0237750
 122.4032820  47.8421710  19.6578900 122.5295560  49.1958560  20.3238260
 126.4305000  49.9801090  35.3472820 126.8446020  50.1346170  36.1963240
 125.4956000  50.1056310  35.5098600 126.9027170  47.3197250  37.3511970
 127.4847940  46.5649570  37.2632450 127.0788940  47.8504690  36.5743450
 118.0199240  42.4794000  35.6628920 117.9256110  41.8614750  34.9379790
 117.4396630  43.2060290  35.4358830 120.7860680  41.0367240  32.6956310
 120.3377980  41.0591500  31.8501860 120.1525880  40.6386260  33.2926610
 121.1920230  49.9321570  33.3168750 121.6108340  50.7754300  33.1444990
 120.2728860  50.0693610  33.0875530 123.5284130  47.6637750  34.7006590
 123.6480340  47.0678890  35.4401430 124.3878130  47.7007440  34.2807890
 125.8672030  48.2174940  33.2769100 125.3407250  48.7417560  32.6734240
 126.2103370  48.8502330  33.9078830 118.2658420  45.6068310  19.7218810
 118.0647480  44.7435670  20.0832150 118.0950470  45.5201670  18.7840410
 119.0427650  56.2374580  34.4326480 118.5048740  56.9620640  34.1135180
 119.2961610  55.7604920  33.6423820 120.2952900  44.2059100  35.9582410
 120.8852590  43.8974950  36.6460230 119.4773140  43.7338850  36.1142310
 125.1146330  43.8224910  36.1915430 124.4261850  43.1606450  36.1265420
 125.8352350  43.3763180  36.6363890 125.7446730  40.4176540  22.2505690
 126.0249020  39.5744440  22.6065110 124.9712460  40.6499650  22.7644440
 117.0641220  42.7068930  19.7096690 117.3667120  42.7136360  18.8015840
 117.8035810  42.3566790  20.2064350 121.8989860  57.4725790  34.6913130
 121.8248560  58.3760930  34.9985500 120.9968700  57.1537690  34.6635200
 120.2826150  41.6503550  20.6952890 119.9348150  40.9727540  20.1155340
 120.4838920  41.1893060  21.5096280 122.4475190  56.6384300  22.3139490
 123.3425980  56.9769270  22.3358250 122.4792820  55.9163710  21.6863770
 116.0871350  52.0111350  20.5426490 116.5246220  52.5541020  21.1984070
 116.5719080  51.1858300  20.5522830 113.3017150  54.8000380  27.9946750
 113.6320160  53.9321440  27.7625390 113.7308150  55.0058900  28.8251710
 117.8979070  53.1309390  25.6548720 117.5974610  53.0074360  26.5552630
 117.7916560  52.2717980  25.2464450 113.7907360  55.6670970  30.7328380
 113.3538350  55.8471770  31.5652530 114.3585040  56.4245590  30.5910100
 129.4269540  55.1687970  35.0205690 128.8271530  55.2280530  34.2769610
 129.5563440  54.2292950  35.1502540 130.6670990  52.9105790  20.3575400
 129.8363950  52.9782440  20.8282630 130.8442820  53.8009910  20.0542260
 130.1227450  49.6553270  22.8609600 130.8846360  50.2249920  22.9669290
 130.1381820  49.0880470  23.6317910 113.6231790  48.1791200  27.0917260
 112.9680630  47.9102840  26.4476960 114.4609740  48.0695680  26.6419240
 131.1287420  50.5103370  27.7051530 131.4996250  49.7270690  27.2987500
 131.7689350  51.1992470  27.5268830 128.1121180  51.8939950  33.1181850
 127.2981020  52.3237110  33.3807640 128.5195380  52.5058360  32.5050900
 130.1746620  49.9487640  20.0182120 130.4495460  50.8566520  19.8901340
 129.9857360  49.8850170  20.9544110 126.5722230  42.9732490  21.3135750
 126.9907110  42.7863470  20.4732410 126.2658290  42.1211540  21.6238680
 130.0711960  47.8856630  25.0111550 129.6955560  47.1184560  24.5792840
 129.3415080  48.2679330  25.4986480 114.6607720  48.5643770  31.6320600
 115.0280760  48.4771170  32.5116620 114.0918540  47.8010320  31.5327460
 129.4611580  47.0328150  34.6451070 129.2297670  46.8040900  33.7449020
 129.7216130  47.9527700  34.5995960 114.2123720  45.4752860  35.5379020
 113.3179770  45.4419620  35.8772730 114.7521270  45.6739650  36.3030270
 127.8999650  42.2584580  37.4230770 128.7769830  42.2667980  37.8064770
 127.9120490  41.5215420  36.8123120 112.8369870  45.3890130  23.0342590
 111.9333950  45.6520330  22.8594250 113.3210490  45.6601300  22.2542550
 129.3462920  46.1114120  28.3118790 129.8700400  45.6176770  27.6808960
 129.9322340  46.2464480  29.0566360 129.5252640  46.1953990  31.8338340
 128.5755350  46.1617530  31.9483330 129.7065650  47.1054100  31.5988110
 115.3797080  44.4455670  20.9436970 116.0888780  44.0238890  20.4584250
 114.6637020  44.5130900  20.3120320 115.0271240  40.4995000  19.9839620
 115.7499370  41.0403940  20.3020840 115.2995760  40.2258420  19.1081160
 128.8362890  45.3687470  24.2511200 129.3322010  45.1358340  25.0360080
 128.6378960  44.5299310  23.8348840 114.7163430  39.7501190  29.8862240
 115.3639620  39.1998570  29.4457400 115.1365270  40.0044340  30.7078050
 130.2650050  44.0048420  26.7848880 130.1549330  43.8504460  27.7231150
 131.0257640  43.4769360  26.5424290 128.6115770  39.9442550  33.2431880
 129.2487990  40.5576690  33.6091070 128.7590660  39.9803210  32.2981110
 131.1540320  41.8356340  20.0255020 132.0789630  41.7037520  19.8173310
 131.1316110  41.9149160  20.9791470 131.2278810  42.6067000  22.6511730
 130.4330310  42.5412120  23.1804640 131.4322090  43.5417640  22.6397080
 128.1697230  56.6458550  26.6450120 128.7656300  56.3243120  25.9684540
 128.4275380  56.1730370  27.4363390 114.4695430  39.9056860  32.6287560
 114.1210250  40.3620680  33.3945740 114.1383130  39.0113990  32.7109990
 116.0759800  53.0776460  36.7940750 116.0329430  52.7069370  37.6755210
 116.2070810  54.0154030  36.9342570 119.7765830  54.6336050  32.3950470
 119.5357190  54.9010610  31.5080990 120.7168470  54.8041780  32.4501330
 121.9820250  41.0968740  36.1506980 121.9209140  41.6890570  36.9002390
 122.9220630  40.9894700  36.0057240 124.6194810  40.7538800  35.7899270
 125.2335220  41.0718090  35.1280350 125.1644370  40.2687390  36.4095130
 131.0369990  56.6530430  33.1961110 130.5428270  57.0499300  32.4788240
 130.4283280  56.0279640  33.5898390 115.1416070  39.4333060  35.9038330
 115.6899060  39.2521110  35.1404440 115.2071380  38.6427170  36.4394640
 115.9147830  56.0238710  33.9138530 115.3208150  55.8923410  34.6528570
 115.9071670  55.1876850  33.4480630 125.3602850  39.3170940  32.1168560
 124.4862690  39.6506050  31.9141490 125.2513600  38.8444120  32.9420430
 126.2674830  41.5241810  33.5010280 125.9388190  40.7093570  33.1212010
 127.2157130  41.4811620  33.3775970 128.7209440  57.2953850  30.4747850
 128.2612410  58.0469660  30.1005870 128.0921900  56.5760320  30.4162650
 115.5460060  53.3897090  32.8646570 114.8194120  52.7702380  32.7972520
 115.6069210  53.7837700  31.9944650 119.1505160  55.6042090  29.6495980
 119.6670180  54.9929450  29.1244240 119.8002540  56.1070870  30.1406990
 121.8900660  56.4950580  30.4764960 122.1778470  56.2404880  29.5997970
 122.4023880  55.9427940  31.0670530 123.1077670  40.2340780  31.0561470
 122.3249460  40.7086280  31.3358230 122.8140600  39.3295610  30.9474650
 127.6598740  40.9363880  29.1010560 128.1006830  40.8808980  28.2532160
 127.3906330  41.8521890  29.1720740 129.5237310  40.5679120  27.1119380
 129.4625710  39.6240340  26.9650400 130.3029340  40.6759210  27.6572840
 113.8290060  56.7071480  26.0743330 113.6612100  56.0742160  26.7725220
 112.9624570  56.9130880  25.7237520 114.4518080  40.5388260  23.5775190
 115.2097440  40.6517140  23.0039220 113.9895250  41.3757460  23.5318620
 120.9931890  42.6527530  26.5677500 120.1806400  42.2784420  26.2273380
 121.4973530  41.8972610  26.8698690 125.4956870  39.3169980  27.8060570
 126.0986240  39.8890190  28.2809090 124.7549860  39.8809420  27.5834470
 128.6391470  39.7191540  23.0800850 128.8342100  40.6174990  23.3468280
 127.8521340  39.4878620  23.5733800 115.4352760  55.4004710  23.5193470
 114.9100380  55.7812740  22.8155430 115.3597340  56.0255480  24.2403180
 116.8243230  41.0652310  22.1177160 117.3535990  40.2782110  21.9885110
 117.4571550  41.7443500  22.3512690 119.0181070  40.8027450  25.1722550
 118.3883810  40.1014760  25.3392680 118.4786210  41.5631580  24.9555710
 121.9573020  57.4166680  37.8433160 122.8840330  57.1810950  37.8869120
 121.9423450  58.2438680  37.3619190 130.1918080  56.9592250  24.8407410
 130.3670270  56.2729990  24.1968330 129.4939650  57.4839300  24.4484080
 119.1436630  40.0811430  37.6075040 118.8620900  40.5845030  36.8435860
 119.5256330  39.2833180  37.2417170 118.0345730  57.3487090  22.3942720
 118.7664550  57.0646370  21.8466610 118.2939400  57.1100370  23.2842100
 117.1960520  53.4651820  22.3989050 116.5669400  53.9336920  22.9474880
 117.3108350  52.6201040  22.8335240 125.7452090  39.4965010  38.1855510
 125.6317540  39.8159620  39.0807030 126.5621830  39.8977520  37.8892790
 128.5250580  56.6436540  37.6674200 129.3175900  56.1485770  37.4600160
 128.8183730  57.3226680  38.2749810 124.6510240  47.5157480   8.5490250
 124.5704290  46.6012090   8.2781960 124.2374660  48.0124550   7.8429960
 122.7828280  49.2936500  10.4299520 122.0070380  48.8136940  10.7198090
 123.4341210  48.6142150  10.2555680 116.7994110  49.6056310  11.3075280
 115.9678990  49.3505020  11.7071790 117.4075090  49.6767080  12.0433200
 126.8035710  53.6996690   9.2098650 126.3417240  52.9283930   9.5385820
 127.6161260  53.7262760   9.7151100 116.7795370  53.6396400  11.5033300
 117.0823410  52.7494140  11.3243520 117.5238960  54.1966620  11.2755550
 115.2086060  44.5658200   5.0917670 114.3202760  44.9074170   4.9897550
 115.4927250  44.3658520   4.1998500 113.1719070  47.1663850  10.9757370
 113.7435180  46.3986050  10.9761010 113.1720610  47.4652610  10.0663980
 123.0299020  55.9854700   8.8302640 122.4110460  56.4412200   8.2597080
 123.8850800  56.1406160   8.4292340 122.2237270  51.9693690  10.4369680
 122.1545550  51.0283630  10.2758810 122.9857130  52.0595100  11.0092250
 114.4143940  42.5748210  12.7626300 114.2346780  41.6773960  13.0429060
 114.0124020  43.1220080  13.4373250 123.2542440  44.7764070  10.6638610
 123.6307260  43.9035950  10.5512280 123.1561950  45.1122770   9.7729050
 117.3847450  43.1489700   6.1256050 117.4914200  44.0493430   6.4324810
 116.4739810  43.1007670   5.8350700 127.0366560  42.2714510   7.5966950
 127.8576180  41.7811080   7.6392430 127.0700640  42.8612170   8.3498790
 115.0330610  45.0708710  11.3708640 115.7140720  45.3347080  11.9896040
 114.7178660  44.2309580  11.7046650 119.2255180  46.1176070  10.4581230
 119.7333400  46.6157040  11.0986250 119.7568420  45.3411270  10.2820590
 131.3266110  44.2881260  14.1610580 130.6218280  44.6762970  13.6425690
 131.5924030  44.9831550  14.7631510 117.5091280  40.7574630  14.7244650
 117.5109720  41.2747020  13.9190550 116.6795590  40.2804810  14.7014580
 123.8962370  50.8693940   6.2234550 123.2779640  51.3343390   5.6597270
 124.4085620  51.5621420   6.6404060 118.7594130  50.3969810  12.9018150
 118.4263510  51.0238730  13.5439220 118.9360810  50.9231690  12.1219820
 127.2728040  44.2114890  10.3694490 126.5683610  44.4999780  10.9497600
 127.6340200  45.0215000  10.0094050 117.1906610  42.4684590  12.7315100
 117.5323420  43.3126640  12.4368970 116.2522420  42.6168330  12.8480440
 117.9713230  52.3650610  14.7167330 118.5887230  53.0401690  14.4351780
 117.1106350  52.7738590  14.6254830 113.2645570  51.5550470   3.5974180
 112.8873550  52.0437570   2.8659080 113.5218640  52.2275750   4.2280710
 128.8890820  53.8290020  12.6321970 128.2054340  54.4989130  12.6238640
 129.4285110  54.0270670  11.8666830 130.3414960  43.6569680  10.7603700
 129.3939870  43.6908660  10.8919130 130.6664950  44.4708630  11.1453060
 120.8734500  39.9566860   9.0559690 121.1809480  39.4013750   8.3395190
 119.9435200  40.0911320   8.8732680 126.4249560  55.6734150  11.3467150
 126.4376720  55.2696440  10.4789410 125.8724780  56.4481440  11.2428580
 127.7194980  52.3950370   6.4357320 127.6091310  51.4524700   6.5606740
 127.7163230  52.7566010   7.3220080 125.8235000  50.5763990  12.6749760
 126.2403790  50.3624100  11.8403220 126.5474820  50.8336780  13.2458380
 123.2615260  48.0215690   5.7919810 122.3344540  47.9553070   6.0208280
 123.4140080  48.9595820   5.6775050 123.2484340  44.2932690   2.7886970
 122.3088010  44.4546650   2.8739430 123.5667600  45.0118370   2.2422960
 129.7697100  48.9751210  12.7666000 128.9415730  49.0444300  12.2916130
 130.3647580  49.5605520  12.2981830 127.2912550  49.5835990   6.2955060
 126.6724970  49.2455540   5.6481360 127.2737000  48.9395750   7.0034250
 126.7339110  45.7620530  13.7120870 126.3210290  46.5874240  13.9660860
 126.0015060  45.1765570  13.5197230 118.8671900  48.5480430   8.5739540
 118.4628900  47.8357680   8.0785440 118.9535020  48.2033670   9.4627580
 119.3353600  52.2347990  10.7378750 119.0381890  51.6293460  10.0586530
 120.2853420  52.2725300  10.6268110 117.5800520  45.3223640  12.3538580
 118.1315110  45.4318980  11.5791830 118.0944030  45.6961240  13.0693810
 127.4239210  55.8079860  14.4001850 126.9469770  56.6152050  14.2074460
 126.7401000  55.1558190  14.5528060 118.4272030  51.9729680  17.3886550
 117.5300560  52.1969650  17.6359950 118.4524900  52.0964620  16.4397950
 125.4677250  48.8222800   3.3027810 125.9070530  47.9845230   3.1565630
 126.1805670  49.4552200   3.3891950 117.2543250  48.8443000  15.9643920
 117.1151020  49.7165800  16.3331320 116.3724610  48.5015810  15.8191860
 123.5772630  53.7618870   7.2709050 124.0168540  54.5043200   6.8564440
 123.5159520  54.0045440   8.1948010 119.0523600  54.7864700  18.1729070
 119.0239030  55.1907650  17.3057500 118.8888570  53.8575060  18.0100670
 115.5676530  47.4425410   6.0746190 115.4474130  48.1687500   5.4627460
 115.2577420  46.6728320   5.5974100 131.0038420  55.5691800  19.4693240
 131.4798140  56.0474690  20.1482320 131.6245580  55.5009290  18.7438740
 113.2061900  50.6140550  11.8814830 113.2842320  50.7489320  10.9370550
 113.8203580  49.9056440  12.0742950 114.4509530  52.3140740   8.2921010
 114.0437610  52.4555330   7.4374610 115.3422540  52.0300900   8.0892220
 130.4071670  52.7604650  16.6293250 130.5334730  52.5216530  15.7110430
 130.4493050  51.9289190  17.1015330 124.2688410  56.4632650  15.1988060
 124.7833080  56.3740660  16.0010490 123.4257490  56.8092350  15.4915970
 126.2442810  56.7487990   4.6272060 126.0843950  56.4590930   5.5253890
 126.0789520  55.9728120   4.0917290 118.7231190  56.5286520   6.4043680
 118.5473670  55.6122060   6.1911480 117.8686930  56.8873810   6.6441480
 125.9468940  54.2575550   3.1870060 125.2534100  54.2552840   2.5272340
 126.6891800  53.8334870   2.7564230 125.5118870  55.8838260   7.2618550
 125.9675820  55.1027640   7.5757170 125.8511390  56.5945080   7.8059730
 130.2595680  44.8137110  17.5942990 129.6439950  45.3216780  17.0658450
 129.9392100  43.9135440  17.5368930 113.2621420  51.6554720  14.4209290
 113.4252460  51.1860080  13.6028660 113.7273870  51.1478280  15.0858130
 118.0340190  40.7860480   9.4569860 117.5908340  41.5670020   9.1254380
 118.5925180  41.1090370  10.1640800 122.3210000  43.6529000  15.0605180
 121.8589370  43.8612020  15.8725120 121.9188110  42.8388350  14.7575850
 127.3214510  44.8737950  16.1901840 126.4708100  44.5743700  16.5110910
 127.1616300  45.1179960  15.2785660 124.4164220  46.3739700  18.2900630
 124.7417630  45.5403450  17.9502860 125.2044550  46.8968220  18.4378960
 121.1499010  40.4071180   4.3375690 120.5253190  40.4031050   5.0629000
 121.0629130  39.5402140   3.9411660 120.0716090  41.3307810  11.3159460
 120.3688420  42.2370640  11.2351480 120.6201650  40.8426590  10.7019030
 117.8254410  45.9094050   7.1851110 117.5995330  45.6931220   8.0897730
 117.0446940  46.3422510   6.8397080 125.0552170  45.9157420   5.7841760
 124.4561060  46.6393220   5.6005380 125.6031780  45.8534200   5.0018210
 120.2653620  46.8079630  17.8511380 120.1697220  45.8674360  17.7011780
 121.1085600  47.0294700  17.4559450 123.6617040  44.5520960   7.8145040
 124.0546610  44.8693160   7.0013730 124.0233890  43.6732840   7.9289560
 115.3964160  43.2193300  16.0045160 115.0027550  44.0668510  16.2117940
 114.7082560  42.5819670  16.1953800 121.9709210  43.3028270  19.0741900
 121.2807530  43.1100470  19.7087990 122.7141510  43.5862910  19.6066200
 112.6981210  41.1421760  10.0375240 112.4094260  41.7124620  10.7500220
 113.4426970  40.6626210  10.4006470 124.2472180  47.1426710  11.9095820
 123.5153300  47.6513520  12.2585920 123.8496520  46.3256690  11.6084600
 120.6849570  43.8180910  10.3148310 120.6885630  43.3770860   9.4652850
 121.5800690  44.1398240  10.4220130 116.5351950  43.7007400   9.2742520
 116.1952000  44.1782630  10.0309570 115.7729270  43.2472520   8.9143620
 120.7469720  44.8192990   3.3055070 120.8682540  44.7779470   4.2540890
 120.3618230  45.6817140   3.1501800 124.7098090  42.5960390  11.3218760
 124.7270830  43.0469040  12.1660610 124.4613670  41.6966030  11.5352200
 119.7591220  47.1294130   2.7038370 119.1908120  46.6812380   2.0774280
 120.4680220  47.4886910   2.1703520 128.1368840  40.0092570  17.1605140
 128.4614610  39.2782230  17.6863120 128.1725350  39.6906210  16.2586130
 114.8360400  51.0306150  16.5805100 114.4515190  50.3899820  17.1788060
 115.1472590  51.7342270  17.1499830 120.9857540  47.8782690  12.0613720
 121.3527670  47.4041260  12.8075060 120.7962600  48.7524260  12.4022060
 113.8498030  42.6226380   8.1907190 113.5644950  42.2582050   9.0285810
 113.7876890  41.8906840   7.5770330 118.7756910  46.9191330  14.3797930
 118.4713980  47.7983310  14.6048290 119.7303370  46.9791120  14.4155370
 117.3038700  51.1252320   4.9764780 116.5300960  50.5849940   4.8163500
 118.0333330  50.6058930   4.6382540 128.0626680  50.1217680  10.7691170
 128.7825800  50.6172970  10.3787280 127.8608500  49.4435570  10.1245040
 123.5236620  41.5155640   4.9120560 122.7101230  41.0168810   4.8365870
 123.3298570  42.3553890   4.4956910 123.4445480  50.1926740  16.6560170
 123.3782790  49.2722410  16.4017760 122.8150620  50.2902180  17.3704810
 126.2385010  45.8875290   3.2082720 127.1264630  46.1992520   3.0334060
 126.2090100  45.0147540   2.8163300 117.3476100  50.7932700   8.6143590
 117.8654770  49.9900960   8.5600480 116.8960120  50.7311840   9.4560420
 122.2345600  52.0598980   3.8870890 122.5761300  52.8041210   3.3914210
 121.4058310  52.3730100   4.2495720 114.8320640  47.7594070  15.5269290
 114.4735580  48.4247920  16.1142630 114.5375200  46.9277620  15.8981910
 118.0333760  48.2178310  18.4108840 117.7333900  48.3635490  17.5136660
 118.8045000  47.6583600  18.3182230 123.3762210  53.0147310  16.4063970
 123.3906750  52.0828270  16.1882880 122.6687310  53.1007070  17.0453740
 128.5099280  47.1987130   2.6762580 128.4263000  47.6301350   1.8259020
 129.2293470  47.6585480   3.1089400 129.5873420  49.6554650  15.7532550
 128.8621610  50.2483430  15.5561940 130.1148880  49.6478190  14.9545920
 129.5386530  54.0529390   5.4044710 128.8962690  53.3985010   5.6788430
 129.1517190  54.4584480   4.6285380 125.1173010  51.3814820   9.2516400
 125.4696830  50.7842950   8.5917770 124.2335340  51.0559050   9.4224650
 121.2036290  52.1412510   6.6586810 121.8907420  52.6881720   7.0394400
 120.4168710  52.6853240   6.6936420 113.3428690  47.7585330   2.1503890
 114.2123540  48.0410130   2.4339810 112.8519010  48.5721200   2.0352700
 120.5063500  49.1458540   6.2712170 120.9626280  49.9563790   6.4972360
 120.1551710  48.8281680   7.1030660 122.8096110  54.6564880  13.5004470
 123.4538330  54.8624260  14.1777890 123.1725550  53.8953280  13.0475320
 116.4075280  39.4896190   6.7434690 116.2789910  39.4814090   7.6919610
 115.5837300  39.8279280   6.3925700 124.0828190  52.6597230  12.2181920
 124.7250420  51.9590390  12.3314090 124.6077540  53.4395670  12.0378810
 125.8565810  53.4592130  15.4217980 126.1922050  54.0458820  16.0995900
 124.9366150  53.3284840  15.6515770 113.7099940  56.9712710   2.7165520
 114.0697580  57.5702050   2.0622790 113.5692280  57.5172600   3.4900550
 113.4069210  41.2487310  16.2041390 112.6927730  41.4484230  16.8094000
 113.8264250  40.4726880  16.5756190 127.5100160  50.8617790   3.6035220
 127.2221860  51.3230480   4.3913100 128.3052330  50.4015560   3.8719440
 113.6941800  55.2367570  17.1907920 113.8032920  54.2962310  17.0503310
 113.0422360  55.5022320  16.5421650 121.6854390  53.5083460  18.5906040
 121.3651260  52.7892700  19.1351730 121.0112750  54.1838530  18.6642100
 119.7268560  54.3543910   3.5339190 119.7178660  55.0873600   2.9183700
 118.8066920  54.1075490   3.6266150 115.3275200  49.5758800   4.2785950
 114.7203150  50.3157700   4.2881250 115.8024550  49.6658160   3.4524150
 124.9007990  43.7409620  13.9542840 125.2688810  42.9204830  14.2822410
 124.0406190  43.8011510  14.3698490 128.2670020  42.6966560   4.7630400
 127.6383180  42.8012230   4.0488630 127.7721940  42.9163340   5.5524280
 120.2354050  44.9752510   6.1788280 119.5270200  45.4438850   6.6201890
 120.5198530  44.3174520   6.8133470 121.8609980  46.3949210  14.1780810
 122.3595230  46.8695030  14.8432660 122.0032930  45.4712730  14.3850840
 124.2669480  41.7003170   7.6184070 124.1437260  41.7189300   6.6693580
 125.2154040  41.7482110   7.7382470 121.3546270  56.9358470   6.8912050
 121.6087770  56.8979860   5.9691420 120.4058750  56.8091800   6.8840300
 118.4389070  43.2837590   3.5538990 119.2879600  43.7207740   3.4879180
 118.0720340  43.5957850   4.3811050 129.0676840  42.6117170  15.0209200
 128.5650440  43.3522570  15.3603010 129.8833500  43.0001170  14.7045990
 127.3598850  47.8550350   8.4670560 126.4188990  47.8700580   8.6418250
 127.6742920  47.0686310   8.9130860 116.0327250  46.9695020   2.7107410
 116.1130840  46.0222530   2.8224810 116.9247000  47.3001900   2.8168070
 129.3624430  55.0259200  10.1424820 129.4871850  55.8490370  10.6148630
 130.2289990  54.8149930   9.7948970 116.8341960  57.1190410   9.8141950
 117.5704440  56.5705870  10.0850520 117.2182880  57.9846420   9.6747940
 113.7187440  53.1863980   5.6883460 112.7927220  53.4285120   5.6788870
 114.1843870  54.0138240   5.5668210 115.8400240  56.3036480  19.0027530
 116.6412970  56.6248530  19.4162930 115.3252060  55.9432060  19.7247440
 124.6764870  52.4116350  18.9502940 124.0703030  52.4347950  18.2098690
 124.3718980  51.6799390  19.4870190 126.1065240  56.1396640  17.5612350
 127.0586990  56.0554660  17.5112590 125.9593460  56.8038350  18.2346140
 128.9974440  55.5190850   3.0604260 128.7115950  55.1055990   2.2458440
 128.7993990  56.4478560   2.9404780 113.5598050  48.7909940  17.9463580
 114.0637070  48.2117220  18.5179810 112.8205470  49.0750170  18.4839950
 120.6135990  50.1980930  17.4799100 119.8481660  50.7665930  17.3953770
 120.7951950  49.9057140  16.5867330 123.7024400  50.5744160   2.1051860
 123.1534500  51.0213460   2.7494600 124.3243660  50.0693410   2.6289530
 127.7559340  51.9286260  18.0374120 128.4968810  52.2662020  17.5341580
 126.9932020  52.0978320  17.4843890 115.5921130  46.9339530  18.8413650
 115.6326470  46.6353400  19.7498880 116.4466630  47.3347140  18.6821170
 119.3699520  49.5335080   4.0017160 119.7915940  49.3674950   4.8448550
 119.4950360  48.7235310   3.5072300 117.5326940  45.5131630  16.8088140
 117.0023400  45.0222580  16.1811480 118.2015010  45.9415830  16.2746070
 126.4305000  49.9801090  16.5729330 126.8446020  50.1346170  17.4219750
 125.4956000  50.1056310  16.7355110 126.9027170  47.3197250  18.5768480
 127.4847940  46.5649570  18.4888960 127.0788940  47.8504690  17.7999960
 118.0199240  42.4794000  16.8885430 117.9256110  41.8614750  16.1636300
 117.4396630  43.2060290  16.6615340 120.7860680  41.0367240  13.9212820
 120.3377980  41.0591500  13.0758370 120.1525880  40.6386260  14.5183120
 121.1920230  49.9321570  14.5425260 121.6108340  50.7754300  14.3701500
 120.2728860  50.0693610  14.3132040 123.5284130  47.6637750  15.9263100
 123.6480340  47.0678890  16.6657940 124.3878130  47.7007440  15.5064400
 125.8672030  48.2174940  14.5025610 125.3407250  48.7417560  13.8990750
 126.2103370  48.8502330  15.1335340 119.0427650  56.2374580  15.6582990
 118.5048740  56.9620640  15.3391690 119.2961610  55.7604920  14.8680330
 120.2952900  44.2059100  17.1838920 120.8852590  43.8974950  17.8716740
 119.4773140  43.7338850  17.3398820 125.1146330  43.8224910  17.4171940
 124.4261850  43.1606450  17.3521930 125.8352350  43.3763180  17.8620400
 125.7446730  40.4176540   3.4762200 126.0249020  39.5744440   3.8321620
 124.9712460  40.6499650   3.9900950 121.8989860  57.4725790  15.9169640
 121.8248560  58.3760930  16.2242010 120.9968700  57.1537690  15.8891710
 122.4475190  56.6384300   3.5396000 123.3425980  56.9769270   3.5614760
 122.4792820  55.9163710   2.9120280 116.0871350  52.0111350   1.7683000
 116.5246220  52.5541020   2.4240580 116.5719080  51.1858300   1.7779340
 113.3017150  54.8000380   9.2203260 113.6320160  53.9321440   8.9881900
 113.7308150  55.0058900  10.0508220 117.8979070  53.1309390   6.8805230
 117.5974610  53.0074360   7.7809140 117.7916560  52.2717980   6.4720960
 113.7907360  55.6670970  11.9584890 113.3538350  55.8471770  12.7909040
 114.3585040  56.4245590  11.8166610 129.4269540  55.1687970  16.2462200
 128.8271530  55.2280530  15.5026120 129.5563440  54.2292950  16.3759050
 130.1227450  49.6553270   4.0866110 130.8846360  50.2249920   4.1925800
 130.1381820  49.0880470   4.8574420 113.6231790  48.1791200   8.3173770
 112.9680630  47.9102840   7.6733470 114.4609740  48.0695680   7.8675750
 131.1287420  50.5103370   8.9308040 131.4996250  49.7270690   8.5244010
 131.7689350  51.1992470   8.7525340 128.1121180  51.8939950  14.3438360
 127.2981020  52.3237110  14.6064150 128.5195380  52.5058360  13.7307410
 126.5722230  42.9732490   2.5392260 126.9907110  42.7863470   1.6988920
 126.2658290  42.1211540   2.8495190 130.0711960  47.8856630   6.2368060
 129.6955560  47.1184560   5.8049350 129.3415080  48.2679330   6.7242990
 114.6607720  48.5643770  12.8577110 115.0280760  48.4771170  13.7373130
 114.0918540  47.8010320  12.7583970 129.4611580  47.0328150  15.8707580
 129.2297670  46.8040900  14.9705530 129.7216130  47.9527700  15.8252470
 114.2123720  45.4752860  16.7635530 113.3179770  45.4419620  17.1029240
 114.7521270  45.6739650  17.5286780 127.8999650  42.2584580  18.6487280
 128.7769830  42.2667980  19.0321280 127.9120490  41.5215420  18.0379630
 112.8369870  45.3890130   4.2599100 111.9333950  45.6520330   4.0850760
 113.3210490  45.6601300   3.4799060 129.3462920  46.1114120   9.5375300
 129.8700400  45.6176770   8.9065470 129.9322340  46.2464480  10.2822870
 129.5252640  46.1953990  13.0594850 128.5755350  46.1617530  13.1739840
 129.7065650  47.1054100  12.8244620 128.8362890  45.3687470   5.4767710
 129.3322010  45.1358340   6.2616590 128.6378960  44.5299310   5.0605350
 114.7163430  39.7501190  11.1118750 115.3639620  39.1998570  10.6713910
 115.1365270  40.0044340  11.9334560 130.2650050  44.0048420   8.0105390
 130.1549330  43.8504460   8.9487660 131.0257640  43.4769360   7.7680800
 128.6115770  39.9442550  14.4688390 129.2487990  40.5576690  14.8347580
 128.7590660  39.9803210  13.5237620 131.2278810  42.6067000   3.8768240
 130.4330310  42.5412120   4.4061150 131.4322090  43.5417640   3.8653590
 128.1697230  56.6458550   7.8706630 128.7656300  56.3243120   7.1941050
 128.4275380  56.1730370   8.6619900 114.4695430  39.9056860  13.8544070
 114.1210250  40.3620680  14.6202250 114.1383130  39.0113990  13.9366500
 116.0759800  53.0776460  18.0197260 116.0329430  52.7069370  18.9011720
 116.2070810  54.0154030  18.1599080 119.7765830  54.6336050  13.6206980
 119.5357190  54.9010610  12.7337500 120.7168470  54.8041780  13.6757840
 121.9820250  41.0968740  17.3763490 121.9209140  41.6890570  18.1258900
 122.9220630  40.9894700  17.2313750 124.6194810  40.7538800  17.0155780
 125.2335220  41.0718090  16.3536860 125.1644370  40.2687390  17.6351640
 131.0369990  56.6530430  14.4217620 130.5428270  57.0499300  13.7044750
 130.4283280  56.0279640  14.8154900 115.1416070  39.4333060  17.1294840
 115.6899060  39.2521110  16.3660950 115.2071380  38.6427170  17.6651150
 115.9147830  56.0238710  15.1395040 115.3208150  55.8923410  15.8785080
 115.9071670  55.1876850  14.6737140 125.3602850  39.3170940  13.3425070
 124.4862690  39.6506050  13.1398000 125.2513600  38.8444120  14.1676940
 126.2674830  41.5241810  14.7266790 125.9388190  40.7093570  14.3468520
 127.2157130  41.4811620  14.6032480 128.7209440  57.2953850  11.7004360
 128.2612410  58.0469660  11.3262380 128.0921900  56.5760320  11.6419160
 115.5460060  53.3897090  14.0903080 114.8194120  52.7702380  14.0229030
 115.6069210  53.7837700  13.2201160 119.1505160  55.6042090  10.8752490
 119.6670180  54.9929450  10.3500750 119.8002540  56.1070870  11.3663500
 121.8900660  56.4950580  11.7021470 122.1778470  56.2404880  10.8254480
 122.4023880  55.9427940  12.2927040 123.1077670  40.2340780  12.2817980
 122.3249460  40.7086280  12.5614740 122.8140600  39.3295610  12.1731160
 127.6598740  40.9363880  10.3267070 128.1006830  40.8808980   9.4788670
 127.3906330  41.8521890  10.3977250 129.5237310  40.5679120   8.3375890
 129.4625710  39.6240340   8.1906910 130.3029340  40.6759210   8.8829350
 113.8290060  56.7071480   7.2999840 113.6612100  56.0742160   7.9981730
 112.9624570  56.9130880   6.9494030 114.4518080  40.5388260   4.8031700
 115.2097440  40.6517140   4.2295730 113.9895250  41.3757460   4.7575130
 120.9931890  42.6527530   7.7934010 120.1806400  42.2784420   7.4529890
 121.4973530  41.8972610   8.0955200 125.4956870  39.3169980   9.0317080
 126.0986240  39.8890190   9.5065600 124.7549860  39.8809420   8.8090980
 128.6391470  39.7191540   4.3057360 128.8342100  40.6174990   4.5724790
 127.8521340  39.4878620   4.7990310 115.4352760  55.4004710   4.7449980
 114.9100380  55.7812740   4.0411940 115.3597340  56.0255480   5.4659690
 116.8243230  41.0652310   3.3433670 117.3535990  40.2782110   3.2141620
 117.4571550  41.7443500   3.5769200 119.0181070  40.8027450   6.3979060
 118.3883810  40.1014760   6.5649190 118.4786210  41.5631580   6.1812220
 121.9573020  57.4166680  19.0689670 122.8840330  57.1810950  19.1125630
 121.9423450  58.2438680  18.5875700 130.1918080  56.9592250   6.0663920
 130.3670270  56.2729990   5.4224840 129.4939650  57.4839300   5.6740590
 119.1436630  40.0811430  18.8331550 118.8620900  40.5845030  18.0692370
 119.5256330  39.2833180  18.4673680 118.0345730  57.3487090   3.6199230
 118.7664550  57.0646370   3.0723120 118.2939400  57.1100370   4.5098610
 117.1960520  53.4651820   3.6245560 116.5669400  53.9336920   4.1731390
 117.3108350  52.6201040   4.0591750 125.7452090  39.4965010  19.4112020
 125.6317540  39.8159620  20.3063540 126.5621830  39.8977520  19.1149300
 128.5250580  56.6436540  18.8930710 129.3175900  56.1485770  18.6856670
 128.8183730  57.3226680  19.5006320 124.6510240  28.7413990 139.9694680
 124.5704290  27.8268600 139.6986390 124.2374660  29.2381060 139.2634390
 122.7828280  30.5193010 141.8503950 122.0070380  30.0393450 142.1402520
 123.4341210  29.8398660 141.6760110 116.7994110  30.8312820 142.7279710
 115.9678990  30.5761530 143.1276220 117.4075090  30.9023590 143.4637630
 126.8035710  34.9253200 140.6303080 126.3417240  34.1540440 140.9590250
 127.6161260  34.9519270 141.1355530 116.7795370  34.8652910 142.9237730
 117.0823410  33.9750650 142.7447950 117.5238960  35.4223130 142.6959980
 115.2086060  25.7914710 136.5122100 114.3202760  26.1330680 136.4101980
 115.4927250  25.5915030 135.6202930 113.1719070  28.3920360 142.3961800
 113.7435180  27.6242560 142.3965440 113.1720610  28.6909120 141.4868410
 123.0299020  37.2111210 140.2507070 122.4110460  37.6668710 139.6801510
 123.8850800  37.3662670 139.8496770 122.2237270  33.1950200 141.8574110
 122.1545550  32.2540140 141.6963240 122.9857130  33.2851610 142.4296680
 114.4143940  23.8004720 144.1830730 114.2346780  22.9030470 144.4633490
 114.0124020  24.3476590 144.8577680 123.2542440  26.0020580 142.0843040
 123.6307260  25.1292460 141.9716710 123.1561950  26.3379280 141.1933480
 117.3847450  24.3746210 137.5460480 117.4914200  25.2749940 137.8529240
 116.4739810  24.3264180 137.2555130 127.0366560  23.4971020 139.0171380
 127.8576180  23.0067590 139.0596860 127.0700640  24.0868680 139.7703220
 115.0330610  26.2965220 142.7913070 115.7140720  26.5603590 143.4100470
 114.7178660  25.4566090 143.1251080 119.2255180  27.3432580 141.8785660
 119.7333400  27.8413550 142.5190680 119.7568420  26.5667780 141.7025020
 131.3266110  25.5137770 145.5815010 130.6218280  25.9019480 145.0630120
 131.5924030  26.2088060 146.1835940 117.5091280  21.9831140 146.1449080
 117.5109720  22.5003530 145.3394980 116.6795590  21.5061320 146.1219010
 123.8962370  32.0950450 137.6438980 123.2779640  32.5599900 137.0801700
 124.4085620  32.7877930 138.0608490 118.7594130  31.6226320 144.3222580
 118.4263510  32.2495240 144.9643650 118.9360810  32.1488200 143.5424250
 127.2728040  25.4371400 141.7898920 126.5683610  25.7256290 142.3702030
 127.6340200  26.2471510 141.4298480 117.1906610  23.6941100 144.1519530
 117.5323420  24.5383150 143.8573400 116.2522420  23.8424840 144.2684870
 117.9713230  33.5907120 146.1371760 118.5887230  34.2658200 145.8556210
 117.1106350  33.9995100 146.0459260 113.2645570  32.7806980 135.0178610
 112.8873550  33.2694080 134.2863510 113.5218640  33.4532260 135.6485140
 128.8890820  35.0546530 144.0526400 128.2054340  35.7245640 144.0443070
 129.4285110  35.2527180 143.2871260 130.3414960  24.8826190 142.1808130
 129.3939870  24.9165170 142.3123560 130.6664950  25.6965140 142.5657490
 120.8734500  21.1823370 140.4764120 121.1809480  20.6270260 139.7599620
 119.9435200  21.3167830 140.2937110 126.4249560  36.8990660 142.7671580
 126.4376720  36.4952950 141.8993840 125.8724780  37.6737950 142.6633010
 127.7194980  33.6206880 137.8561750 127.6091310  32.6781210 137.9811170
 127.7163230  33.9822520 138.7424510 125.8235000  31.8020500 144.0954190
 126.2403790  31.5880610 143.2607650 126.5474820  32.0593290 144.6662810
 123.2615260  29.2472200 137.2124240 122.3344540  29.1809580 137.4412710
 123.4140080  30.1852330 137.0979480 123.2484340  25.5189200 134.2091400
 122.3088010  25.6803160 134.2943860 123.5667600  26.2374880 133.6627390
 129.7697100  30.2007720 144.1870430 128.9415730  30.2700810 143.7120560
 130.3647580  30.7862030 143.7186260 127.2912550  30.8092500 137.7159490
 126.6724970  30.4712050 137.0685790 127.2737000  30.1652260 138.4238680
 126.7339110  26.9877040 145.1325300 126.3210290  27.8130750 145.3865290
 126.0015060  26.4022080 144.9401660 118.8671900  29.7736940 139.9943970
 118.4628900  29.0614190 139.4989870 118.9535020  29.4290180 140.8832010
 119.3353600  33.4604500 142.1583180 119.0381890  32.8549970 141.4790960
 120.2853420  33.4981810 142.0472540 117.5800520  26.5480150 143.7743010
 118.1315110  26.6575490 142.9996260 118.0944030  26.9217750 144.4898240
 127.4239210  37.0336370 145.8206280 126.9469770  37.8408560 145.6278890
 126.7401000  36.3814700 145.9732490 118.4272030  33.1986190 148.8090980
 117.5300560  33.4226160 149.0564380 118.4524900  33.3221130 147.8602380
 125.4677250  30.0479310 134.7232240 125.9070530  29.2101740 134.5770060
 126.1805670  30.6808710 134.8096380 117.2543250  30.0699510 147.3848350
 117.1151020  30.9422310 147.7535750 116.3724610  29.7272320 147.2396290
 123.5772630  34.9875380 138.6913480 124.0168540  35.7299710 138.2768870
 123.5159520  35.2301950 139.6152440 119.0523600  36.0121210 149.5933500
 119.0239030  36.4164160 148.7261930 118.8888570  35.0831570 149.4305100
 129.0494390  21.3022120 133.0373280 128.7367050  21.3948950 133.9372350
 129.8106860  21.8803150 132.9870710 115.5676530  28.6681920 137.4950620
 115.4474130  29.3944010 136.8831890 115.2577420  27.8984830 137.0178530
 113.2061900  31.8397060 143.3019260 113.2842320  31.9745830 142.3574980
 113.8203580  31.1312950 143.4947380 114.4509530  33.5397250 139.7125440
 114.0437610  33.6811840 138.8579040 115.3422540  33.2557410 139.5096650
 130.4071670  33.9861160 148.0497680 130.5334730  33.7473040 147.1314860
 130.4493050  33.1545700 148.5219760 124.2688410  37.6889160 146.6192490
 124.7833080  37.5997170 147.4214920 123.4257490  38.0348860 146.9120400
 126.2442810  37.9744500 136.0476490 126.0843950  37.6847440 136.9458320
 126.0789520  37.1984630 135.5121720 118.7231190  37.7543030 137.8248110
 118.5473670  36.8378570 137.6115910 117.8686930  38.1130320 138.0645910
 125.9468940  35.4832060 134.6074490 125.2534100  35.4809350 133.9476770
 126.6891800  35.0591380 134.1768660 125.5118870  37.1094770 138.6822980
 125.9675820  36.3284150 138.9961600 125.8511390  37.8201590 139.2264160
 130.2595680  26.0393620 149.0147420 129.6439950  26.5473290 148.4862880
 129.9392100  25.1391950 148.9573360 113.2621420  32.8811230 145.8413720
 113.4252460  32.4116590 145.0233090 113.7273870  32.3734790 146.5062560
 118.0340190  22.0116990 140.8774290 117.5908340  22.7926530 140.5458810
 118.5925180  22.3346880 141.5845230 122.3210000  24.8785510 146.4809610
 121.8589370  25.0868530 147.2929550 121.9188110  24.0644860 146.1780280
 127.3214510  26.0994460 147.6106270 126.4708100  25.8000210 147.9315340
 127.1616300  26.3436470 146.6990090 124.4164220  27.5996210 149.7105060
 124.7417630  26.7659960 149.3707290 125.2044550  28.1224730 149.8583390
 121.1499010  21.6327690 135.7580120 120.5253190  21.6287560 136.4833430
 121.0629130  20.7658650 135.3616090 120.0716090  22.5564320 142.7363890
 120.3688420  23.4627150 142.6555910 120.6201650  22.0683100 142.1223460
 117.8254410  27.1350560 138.6055540 117.5995330  26.9187730 139.5102160
 117.0446940  27.5679020 138.2601510 125.0552170  27.1413930 137.2046190
 124.4561060  27.8649730 137.0209810 125.6031780  27.0790710 136.4222640
 120.2653620  28.0336140 149.2715810 120.1697220  27.0930870 149.1216210
 121.1085600  28.2551210 148.8763880 123.6617040  25.7777470 139.2349470
 124.0546610  26.0949670 138.4218160 124.0233890  24.8989350 139.3493990
 115.3964160  24.4449810 147.4249590 115.0027550  25.2925020 147.6322370
 114.7082560  23.8076180 147.6158230 112.6981210  22.3678270 141.4579670
 112.4094260  22.9381130 142.1704650 113.4426970  21.8882720 141.8210900
 112.8851440  26.3098390 132.6682390 112.8026110  27.2529150 132.8097380
 112.5334500  26.1673300 131.7894740 124.2472180  28.3683220 143.3300250
 123.5153300  28.8770030 143.6790350 123.8496520  27.5513200 143.0289030
 120.6849570  25.0437420 141.7352740 120.6885630  24.6027370 140.8857280
 121.5800690  25.3654750 141.8424560 116.5351950  24.9263910 140.6946950
 116.1952000  25.4039140 141.4514000 115.7729270  24.4729030 140.3348050
 120.7469720  26.0449500 134.7259500 120.8682540  26.0035980 135.6745320
 120.3618230  26.9073650 134.5706230 124.7098090  23.8216900 142.7423190
 124.7270830  24.2725550 143.5865040 124.4613670  22.9222540 142.9556630
 119.7591220  28.3550640 134.1242800 119.1908120  27.9068890 133.4978710
 120.4680220  28.7143420 133.5907950 128.1368840  21.2349080 148.5809570
 128.4614610  20.5038740 149.1067550 128.1725350  20.9162720 147.6790560
 114.8360400  32.2562660 148.0009530 114.4515190  31.6156330 148.5992490
 115.1472590  32.9598780 148.5704260 120.9857540  29.1039200 143.4818150
 121.3527670  28.6297770 144.2279490 120.7962600  29.9780770 143.8226490
 113.8498030  23.8482890 139.6111620 113.5644950  23.4838560 140.4490240
 113.7876890  23.1163350 138.9974760 118.7756910  28.1447840 145.8002360
 118.4713980  29.0239820 146.0252720 119.7303370  28.2047630 145.8359800
 117.3038700  32.3508830 136.3969210 116.5300960  31.8106450 136.2367930
 118.0333330  31.8315440 136.0586970 128.0626680  31.3474190 142.1895600
 128.7825800  31.8429480 141.7991710 127.8608500  30.6692080 141.5449470
 123.5236620  22.7412150 136.3324990 122.7101230  22.2425320 136.2570300
 123.3298570  23.5810400 135.9161340 123.4445480  31.4183250 148.0764600
 123.3782790  30.4978920 147.8222190 122.8150620  31.5158690 148.7909240
 126.2385010  27.1131800 134.6287150 127.1264630  27.4249030 134.4538490
 126.2090100  26.2404050 134.2367730 117.3476100  32.0189210 140.0348020
 117.8654770  31.2157470 139.9804910 116.8960120  31.9568350 140.8764850
 122.2345600  33.2855490 135.3075320 122.5761300  34.0297720 134.8118640
 121.4058310  33.5986610 135.6700150 114.8320640  28.9850580 146.9473720
 114.4735580  29.6504430 147.5347060 114.5375200  28.1534130 147.3186340
 118.0333760  29.4434820 149.8313270 117.7333900  29.5892000 148.9341090
 118.8045000  28.8840110 149.7386660 123.3762210  34.2403820 147.8268400
 123.3906750  33.3084780 147.6087310 122.6687310  34.3263580 148.4658170
 128.5099280  28.4243640 134.0967010 128.4263000  28.8557860 133.2463450
 129.2293470  28.8841990 134.5293830 129.5873420  30.8811160 147.1736980
 128.8621610  31.4739940 146.9766370 130.1148880  30.8734700 146.3750350
 129.5386530  35.2785900 136.8249140 128.8962690  34.6241520 137.0992860
 129.1517190  35.6840990 136.0489810 125.1173010  32.6071330 140.6720830
 125.4696830  32.0099460 140.0122200 124.2335340  32.2815560 140.8429080
 121.2036290  33.3669020 138.0791240 121.8907420  33.9138230 138.4598830
 120.4168710  33.9109750 138.1140850 113.3428690  28.9841840 133.5708320
 114.2123540  29.2666640 133.8544240 112.8519010  29.7977710 133.4557130
 120.5063500  30.3715050 137.6916600 120.9626280  31.1820300 137.9176790
 120.1551710  30.0538190 138.5235090 122.8096110  35.8821390 144.9208900
 123.4538330  36.0880770 145.5982320 123.1725550  35.1209790 144.4679750
 116.4075280  20.7152700 138.1639120 116.2789910  20.7070600 139.1124040
 115.5837300  21.0535790 137.8130130 124.0828190  33.8853740 143.6386350
 124.7250420  33.1846900 143.7518520 124.6077540  34.6652180 143.4583240
 127.9283910  34.1702360 133.3625490 127.7021490  33.4532800 133.9550130
 127.5380110  33.9214800 132.5247240 125.8565810  34.6848640 146.8422410
 126.1922050  35.2715330 147.5200330 124.9366150  34.5541350 147.0720200
 113.7099940  38.1969220 134.1369950 114.0697580  38.7958560 133.4827220
 113.5692280  38.7429110 134.9104980 113.4069210  22.4743820 147.6245820
 112.6927730  22.6740740 148.2298430 113.8264250  21.6983390 147.9960620
 127.5100160  32.0874300 135.0239650 127.2221860  32.5486990 135.8117530
 128.3052330  31.6272070 135.2923870 113.6941800  36.4624080 148.6112350
 113.8032920  35.5218820 148.4707740 113.0422360  36.7278830 147.9626080
 119.7268560  35.5800420 134.9543620 119.7178660  36.3130110 134.3388130
 118.8066920  35.3332000 135.0470580 115.3275200  30.8015310 135.6990380
 114.7203150  31.5414210 135.7085680 115.8024550  30.8914670 134.8728580
 124.9007990  24.9666130 145.3747270 125.2688810  24.1461340 145.7026840
 124.0406190  25.0268020 145.7902920 128.2670020  23.9223070 136.1834830
 127.6383180  24.0268740 135.4693060 127.7721940  24.1419850 136.9728710
 122.7128160  35.6428660 133.6168810 122.8140140  35.4392650 132.6870790
 121.8129900  35.3886940 133.8216590 120.2354050  26.2009020 137.5992710
 119.5270200  26.6695360 138.0406320 120.5198530  25.5431030 138.2337900
 121.8609980  27.6205720 145.5985240 122.3595230  28.0951540 146.2637090
 122.0032930  26.6969240 145.8055270 124.2669480  22.9259680 139.0388500
 124.1437260  22.9445810 138.0898010 125.2154040  22.9738620 139.1586900
 121.3546270  38.1614980 138.3116480 121.6087770  38.1236370 137.3895850
 120.4058750  38.0348310 138.3044730 118.4389070  24.5094100 134.9743420
 119.2879600  24.9464250 134.9083610 118.0720340  24.8214360 135.8015480
 129.0676840  23.8373680 146.4413630 128.5650440  24.5779080 146.7807440
 129.8833500  24.2257680 146.1250420 127.3598850  29.0806860 139.8874990
 126.4188990  29.0957090 140.0622680 127.6742920  28.2942820 140.3335290
 117.3380490  30.7626460 133.4478950 118.1043760  30.6507820 134.0104380
 117.4155180  30.0664430 132.7955720 116.0327250  28.1951530 134.1311840
 116.1130840  27.2479040 134.2429240 116.9247000  28.5258410 134.2372500
 129.3624430  36.2515710 141.5629250 129.4871850  37.0746880 142.0353060
 130.2289990  36.0406440 141.2153400 116.8341960  38.3446920 141.2346380
 117.5704440  37.7962380 141.5054950 117.2182880  39.2102930 141.0952370
 113.7187440  34.4120490 137.1087890 112.7927220  34.6541630 137.0993300
 114.1843870  35.2394750 136.9872640 119.9444270  37.5177230 133.0571950
 120.7372880  37.8066060 132.6053740 119.4248620  37.0869400 132.3784430
 126.1065240  37.3653150 148.9816780 127.0586990  37.2811170 148.9317020
 125.9593460  38.0294860 149.6550570 128.9974440  36.7447360 134.4808690
 128.7115950  36.3312500 133.6662870 128.7993990  37.6735070 134.3609210
 113.5598050  30.0166450 149.3668010 114.0637070  29.4373730 149.9384240
 112.8205470  30.3006680 149.9044380 120.4621670  32.7380640 132.9214300
 120.3572310  32.1232990 133.6475680 120.2945890  32.2146530 132.1377310
 120.6135990  31.4237440 148.9003530 119.8481660  31.9922440 148.8158200
 120.7951950  31.1313650 148.0071760 123.7024400  31.8000670 133.5256290
 123.1534500  32.2469970 134.1699030 124.3243660  31.2949920 134.0493960
 127.7559340  33.1542770 149.4578550 128.4968810  33.4918530 148.9546010
 126.9932020  33.3234830 148.9048320 119.3699520  30.7591590 135.4221590
 119.7915940  30.5931460 136.2652980 119.4950360  29.9491820 134.9276730
 117.5326940  26.7388140 148.2292570 117.0023400  26.2479090 147.6015910
 118.2015010  27.1672340 147.6950500 121.8827160  29.7829200 132.6698690
 122.4032820  29.0678220 132.3039840 122.5295560  30.4215070 132.9699200
 126.4305000  31.2057600 147.9933760 126.8446020  31.3602680 148.8424180
 125.4956000  31.3312820 148.1559540 126.9027170  28.5453760 149.9972910
 127.4847940  27.7906080 149.9093390 127.0788940  29.0761200 149.2204390
 118.0199240  23.7050510 148.3089860 117.9256110  23.0871260 147.5840730
 117.4396630  24.4316800 148.0819770 120.7860680  22.2623750 145.3417250
 120.3377980  22.2848010 144.4962800 120.1525880  21.8642770 145.9387550
 121.1920230  31.1578080 145.9629690 121.6108340  32.0010810 145.7905930
 120.2728860  31.2950120 145.7336470 123.5284130  28.8894260 147.3467530
 123.6480340  28.2935400 148.0862370 124.3878130  28.9263950 146.9268830
 125.8672030  29.4431450 145.9230040 125.3407250  29.9674070 145.3195180
 126.2103370  30.0758840 146.5539770 118.2658420  26.8324820 132.3679750
 118.0647480  25.9692180 132.7293090 118.0950470  26.7458180 131.4301350
 119.0427650  37.4631090 147.0787420 118.5048740  38.1877150 146.7596120
 119.2961610  36.9861430 146.2884760 120.2952900  25.4315610 148.6043350
 120.8852590  25.1231460 149.2921170 119.4773140  24.9595360 148.7603250
 125.1146330  25.0481420 148.8376370 124.4261850  24.3862960 148.7726360
 125.8352350  24.6019690 149.2824830 125.7446730  21.6433050 134.8966630
 126.0249020  20.8000950 135.2526050 124.9712460  21.8756160 135.4105380
 117.0641220  23.9325440 132.3557630 117.3667120  23.9392870 131.4476780
 117.8035810  23.5823300 132.8525290 121.8989860  38.6982300 147.3374070
 121.8248560  39.6017440 147.6446440 120.9968700  38.3794200 147.3096140
 120.2826150  22.8760060 133.3413830 119.9348150  22.1984050 132.7616280
 120.4838920  22.4149570 134.1557220 122.4475190  37.8640810 134.9600430
 123.3425980  38.2025780 134.9819190 122.4792820  37.1420220 134.3324710
 116.0871350  33.2367860 133.1887430 116.5246220  33.7797530 133.8445010
 116.5719080  32.4114810 133.1983770 113.3017150  36.0256890 140.6407690
 113.6320160  35.1577950 140.4086330 113.7308150  36.2315410 141.4712650
 117.8979070  34.3565900 138.3009660 117.5974610  34.2330870 139.2013570
 117.7916560  33.4974490 137.8925390 113.7907360  36.8927480 143.3789320
 113.3538350  37.0728280 144.2113470 114.3585040  37.6502100 143.2371040
 129.4269540  36.3944480 147.6666630 128.8271530  36.4537040 146.9230550
 129.5563440  35.4549460 147.7963480 130.6670990  34.1362300 133.0036340
 129.8363950  34.2038950 133.4743570 130.8442820  35.0266420 132.7003200
 130.1227450  30.8809780 135.5070540 130.8846360  31.4506430 135.6130230
 130.1381820  30.3136980 136.2778850 113.6231790  29.4047710 139.7378200
 112.9680630  29.1359350 139.0937900 114.4609740  29.2952190 139.2880180
 131.1287420  31.7359880 140.3512470 131.4996250  30.9527200 139.9448440
 131.7689350  32.4248980 140.1729770 128.1121180  33.1196460 145.7642790
 127.2981020  33.5493620 146.0268580 128.5195380  33.7314870 145.1511840
 130.1746620  31.1744150 132.6643060 130.4495460  32.0823030 132.5362280
 129.9857360  31.1106680 133.6005050 126.5722230  24.1989000 133.9596690
 126.9907110  24.0119980 133.1193350 126.2658290  23.3468050 134.2699620
 130.0711960  29.1113140 137.6572490 129.6955560  28.3441070 137.2253780
 129.3415080  29.4935840 138.1447420 114.6607720  29.7900280 144.2781540
 115.0280760  29.7027680 145.1577560 114.0918540  29.0266830 144.1788400
 129.4611580  28.2584660 147.2912010 129.2297670  28.0297410 146.3909960
 129.7216130  29.1784210 147.2456900 114.2123720  26.7009370 148.1839960
 113.3179770  26.6676130 148.5233670 114.7521270  26.8996160 148.9491210
 112.8369870  26.6146640 135.6803530 111.9333950  26.8776840 135.5055190
 113.3210490  26.8857810 134.9003490 129.3462920  27.3370630 140.9579730
 129.8700400  26.8433280 140.3269900 129.9322340  27.4720990 141.7027300
 129.5252640  27.4210500 144.4799280 128.5755350  27.3874040 144.5944270
 129.7065650  28.3310610 144.2449050 115.3797080  25.6712180 133.5897910
 116.0888780  25.2495400 133.1045190 114.6637020  25.7387410 132.9581260
 115.0271240  21.7251510 132.6300560 115.7499370  22.2660450 132.9481780
 115.2995760  21.4514930 131.7542100 128.8362890  26.5943980 136.8972140
 129.3322010  26.3614850 137.6821020 128.6378960  25.7555820 136.4809780
 114.7163430  20.9757700 142.5323180 115.3639620  20.4255080 142.0918340
 115.1365270  21.2300850 143.3538990 130.2650050  25.2304930 139.4309820
 130.1549330  25.0760970 140.3692090 131.0257640  24.7025870 139.1885230
 128.6115770  21.1699060 145.8892820 129.2487990  21.7833200 146.2552010
 128.7590660  21.2059720 144.9442050 131.1540320  23.0612850 132.6715960
 132.0789630  22.9294030 132.4634250 131.1316110  23.1405670 133.6252410
 131.2278810  23.8323510 135.2972670 130.4330310  23.7668630 135.8265580
 131.4322090  24.7674150 135.2858020 128.1697230  37.8715060 139.2911060
 128.7656300  37.5499630 138.6145480 128.4275380  37.3986880 140.0824330
 114.4695430  21.1313370 145.2748500 114.1210250  21.5877190 146.0406680
 114.1383130  20.2370500 145.3570930 119.7765830  35.8592560 145.0411410
 119.5357190  36.1267120 144.1541930 120.7168470  36.0298290 145.0962270
 121.9820250  22.3225250 148.7967920 121.9209140  22.9147080 149.5463330
 122.9220630  22.2151210 148.6518180 124.6194810  21.9795310 148.4360210
 125.2335220  22.2974600 147.7741290 125.1644370  21.4943900 149.0556070
 131.0369990  37.8786940 145.8422050 130.5428270  38.2755810 145.1249180
 130.4283280  37.2536150 146.2359330 115.1416070  20.6589570 148.5499270
 115.6899060  20.4777620 147.7865380 115.2071380  19.8683680 149.0855580
 115.9147830  37.2495220 146.5599470 115.3208150  37.1179920 147.2989510
 115.9071670  36.4133360 146.0941570 125.3602850  20.5427450 144.7629500
 124.4862690  20.8762560 144.5602430 125.2513600  20.0700630 145.5881370
 126.2674830  22.7498320 146.1471220 125.9388190  21.9350080 145.7672950
 127.2157130  22.7068130 146.0236910 128.7209440  38.5210360 143.1208790
 128.2612410  39.2726170 142.7466810 128.0921900  37.8016830 143.0623590
 115.5460060  34.6153600 145.5107510 114.8194120  33.9958890 145.4433460
 115.6069210  35.0094210 144.6405590 119.1505160  36.8298600 142.2956920
 119.6670180  36.2185960 141.7705180 119.8002540  37.3327380 142.7867930
 121.8900660  37.7207090 143.1225900 122.1778470  37.4661390 142.2458910
 122.4023880  37.1684450 143.7131470 123.1077670  21.4597290 143.7022410
 122.3249460  21.9342790 143.9819170 122.8140600  20.5552120 143.5935590
 127.6598740  22.1620390 141.7471500 128.1006830  22.1065490 140.8993100
 127.3906330  23.0778400 141.8181680 129.5237310  21.7935630 139.7580320
 129.4625710  20.8496850 139.6111340 130.3029340  21.9015720 140.3033780
 113.8290060  37.9327990 138.7204270 113.6612100  37.2998670 139.4186160
 112.9624570  38.1387390 138.3698460 114.4518080  21.7644770 136.2236130
 115.2097440  21.8773650 135.6500160 113.9895250  22.6013970 136.1779560
 120.9931890  23.8784040 139.2138440 120.1806400  23.5040930 138.8734320
 121.4973530  23.1229120 139.5159630 125.4956870  20.5426490 140.4521510
 126.0986240  21.1146700 140.9270030 124.7549860  21.1065930 140.2295410
 128.6391470  20.9448050 135.7261790 128.8342100  21.8431500 135.9929220
 127.8521340  20.7135130 136.2194740 115.4352760  36.6261220 136.1654410
 114.9100380  37.0069250 135.4616370 115.3597340  37.2511990 136.8864120
 116.8243230  22.2908820 134.7638100 117.3535990  21.5038620 134.6346050
 117.4571550  22.9700010 134.9973630 119.0181070  22.0283960 137.8183490
 118.3883810  21.3271270 137.9853620 118.4786210  22.7888090 137.6016650
 130.1918080  38.1848760 137.4868350 130.3670270  37.4986500 136.8429270
 129.4939650  38.7095810 137.0945020 118.0345730  38.5743600 135.0403660
 118.7664550  38.2902880 134.4927550 118.2939400  38.3356880 135.9303040
 117.1960520  34.6908330 135.0449990 116.5669400  35.1593430 135.5935820
 117.3108350  33.8457550 135.4796180 124.6510240  28.7413990 121.1951190
 124.5704290  27.8268600 120.9242900 124.2374660  29.2381060 120.4890900
 122.7828280  30.5193010 123.0760460 122.0070380  30.0393450 123.3659030
 123.4341210  29.8398660 122.9016620 116.7994110  30.8312820 123.9536220
 115.9678990  30.5761530 124.3532730 117.4075090  30.9023590 124.6894140
 126.8035710  34.9253200 121.8559590 126.3417240  34.1540440 122.1846760
 127.6161260  34.9519270 122.3612040 116.7795370  34.8652910 124.1494240
 117.0823410  33.9750650 123.9704460 117.5238960  35.4223130 123.9216490
 115.2086060  25.7914710 117.7378610 114.3202760  26.1330680 117.6358490
 115.4927250  25.5915030 116.8459440 113.1719070  28.3920360 123.6218310
 113.7435180  27.6242560 123.6221950 113.1720610  28.6909120 122.7124920
 123.0299020  37.2111210 121.4763580 122.4110460  37.6668710 120.9058020
 123.8850800  37.3662670 121.0753280 122.2237270  33.1950200 123.0830620
 122.1545550  32.2540140 122.9219750 122.9857130  33.2851610 123.6553190
 114.4143940  23.8004720 125.4087240 114.2346780  22.9030470 125.6890000
 114.0124020  24.3476590 126.0834190 123.2542440  26.0020580 123.3099550
 123.6307260  25.1292460 123.1973220 123.1561950  26.3379280 122.4189990
 117.3847450  24.3746210 118.7716990 117.4914200  25.2749940 119.0785750
 116.4739810  24.3264180 118.4811640 127.0366560  23.4971020 120.2427890
 127.8576180  23.0067590 120.2853370 127.0700640  24.0868680 120.9959730
 115.0330610  26.2965220 124.0169580 115.7140720  26.5603590 124.6356980
 114.7178660  25.4566090 124.3507590 119.2255180  27.3432580 123.1042170
 119.7333400  27.8413550 123.7447190 119.7568420  26.5667780 122.9281530
 131.3266110  25.5137770 126.8071520 130.6218280  25.9019480 126.2886630
 131.5924030  26.2088060 127.4092450 117.5091280  21.9831140 127.3705590
 117.5109720  22.5003530 126.5651490 116.6795590  21.5061320 127.3475520
 123.8962370  32.0950450 118.8695490 123.2779640  32.5599900 118.3058210
 124.4085620  32.7877930 119.2865000 118.7594130  31.6226320 125.5479090
 118.4263510  32.2495240 126.1900160 118.9360810  32.1488200 124.7680760
 127.2728040  25.4371400 123.0155430 126.5683610  25.7256290 123.5958540
 127.6340200  26.2471510 122.6554990 117.1906610  23.6941100 125.3776040
 117.5323420  24.5383150 125.0829910 116.2522420  23.8424840 125.4941380
 117.9713230  33.5907120 127.3628270 118.5887230  34.2658200 127.0812720
 117.1106350  33.9995100 127.2715770 113.2645570  32.7806980 116.2435120
 112.8873550  33.2694080 115.5120020 113.5218640  33.4532260 116.8741650
 128.8890820  35.0546530 125.2782910 128.2054340  35.7245640 125.2699580
 129.4285110  35.2527180 124.5127770 130.3414960  24.8826190 123.4064640
 129.3939870  24.9165170 123.5380070 130.6664950  25.6965140 123.7914000
 120.8734500  21.1823370 121.7020630 121.1809480  20.6270260 120.9856130
 119.9435200  21.3167830 121.5193620 126.4249560  36.8990660 123.9928090
 126.4376720  36.4952950 123.1250350 125.8724780  37.6737950 123.8889520
 127.7194980  33.6206880 119.0818260 127.6091310  32.6781210 119.2067680
 127.7163230  33.9822520 119.9681020 125.8235000  31.8020500 125.3210700
 126.2403790  31.5880610 124.4864160 126.5474820  32.0593290 125.8919320
 123.2615260  29.2472200 118.4380750 122.3344540  29.1809580 118.6669220
 123.4140080  30.1852330 118.3235990 123.2484340  25.5189200 115.4347910
 122.3088010  25.6803160 115.5200370 123.5667600  26.2374880 114.8883900
 129.7697100  30.2007720 125.4126940 128.9415730  30.2700810 124.9377070
 130.3647580  30.7862030 124.9442770 127.2912550  30.8092500 118.9416000
 126.6724970  30.4712050 118.2942300 127.2737000  30.1652260 119.6495190
 126.7339110  26.9877040 126.3581810 126.3210290  27.8130750 126.6121800
 126.0015060  26.4022080 126.1658170 118.8671900  29.7736940 121.2200480
 118.4628900  29.0614190 120.7246380 118.9535020  29.4290180 122.1088520
 119.3353600  33.4604500 123.3839690 119.0381890  32.8549970 122.7047470
 120.2853420  33.4981810 123.2729050 117.5800520  26.5480150 124.9999520
 118.1315110  26.6575490 124.2252770 118.0944030  26.9217750 125.7154750
 127.4239210  37.0336370 127.0462790 126.9469770  37.8408560 126.8535400
 126.7401000  36.3814700 127.1989000 118.4272030  33.1986190 130.0347490
 117.5300560  33.4226160 130.2820890 118.4524900  33.3221130 129.0858890
 125.4677250  30.0479310 115.9488750 125.9070530  29.2101740 115.8026570
 126.1805670  30.6808710 116.0352890 117.2543250  30.0699510 128.6104860
 117.1151020  30.9422310 128.9792260 116.3724610  29.7272320 128.4652800
 123.5772630  34.9875380 119.9169990 124.0168540  35.7299710 119.5025380
 123.5159520  35.2301950 120.8408950 119.0523600  36.0121210 130.8190010
 119.0239030  36.4164160 129.9518440 118.8888570  35.0831570 130.6561610
 129.0494390  21.3022120 114.2629790 128.7367050  21.3948950 115.1628860
 129.8106860  21.8803150 114.2127220 115.5676530  28.6681920 118.7207130
 115.4474130  29.3944010 118.1088400 115.2577420  27.8984830 118.2435040
 131.0038420  36.7948310 132.1154180 131.4798140  37.2731200 132.7943260
 131.6245580  36.7265800 131.3899680 113.2061900  31.8397060 124.5275770
 113.2842320  31.9745830 123.5831490 113.8203580  31.1312950 124.7203890
 114.4509530  33.5397250 120.9381950 114.0437610  33.6811840 120.0835550
 115.3422540  33.2557410 120.7353160 130.4071670  33.9861160 129.2754190
 130.5334730  33.7473040 128.3571370 130.4493050  33.1545700 129.7476270
 124.2688410  37.6889160 127.8449000 124.7833080  37.5997170 128.6471430
 123.4257490  38.0348860 128.1376910 126.2442810  37.9744500 117.2733000
 126.0843950  37.6847440 118.1714830 126.0789520  37.1984630 116.7378230
 118.7231190  37.7543030 119.0504620 118.5473670  36.8378570 118.8372420
 117.8686930  38.1130320 119.2902420 125.9468940  35.4832060 115.8331000
 125.2534100  35.4809350 115.1733280 126.6891800  35.0591380 115.4025170
 125.5118870  37.1094770 119.9079490 125.9675820  36.3284150 120.2218110
 125.8511390  37.8201590 120.4520670 130.2595680  26.0393620 130.2403930
 129.6439950  26.5473290 129.7119390 129.9392100  25.1391950 130.1829870
 113.2621420  32.8811230 127.0670230 113.4252460  32.4116590 126.2489600
 113.7273870  32.3734790 127.7319070 118.0340190  22.0116990 122.1030800
 117.5908340  22.7926530 121.7715320 118.5925180  22.3346880 122.8101740
 122.3210000  24.8785510 127.7066120 121.8589370  25.0868530 128.5186060
 121.9188110  24.0644860 127.4036790 127.3214510  26.0994460 128.8362780
 126.4708100  25.8000210 129.1571850 127.1616300  26.3436470 127.9246600
 124.4164220  27.5996210 130.9361570 124.7417630  26.7659960 130.5963800
 125.2044550  28.1224730 131.0839900 121.1499010  21.6327690 116.9836630
 120.5253190  21.6287560 117.7089940 121.0629130  20.7658650 116.5872600
 120.0716090  22.5564320 123.9620400 120.3688420  23.4627150 123.8812420
 120.6201650  22.0683100 123.3479970 117.8254410  27.1350560 119.8312050
 117.5995330  26.9187730 120.7358670 117.0446940  27.5679020 119.4858020
 125.0552170  27.1413930 118.4302700 124.4561060  27.8649730 118.2466320
 125.6031780  27.0790710 117.6479150 120.2653620  28.0336140 130.4972320
 120.1697220  27.0930870 130.3472720 121.1085600  28.2551210 130.1020390
 123.6617040  25.7777470 120.4605980 124.0546610  26.0949670 119.6474670
 124.0233890  24.8989350 120.5750500 115.3964160  24.4449810 128.6506100
 115.0027550  25.2925020 128.8578880 114.7082560  23.8076180 128.8414740
 121.9709210  24.5284780 131.7202840 121.2807530  24.3356980 132.3548930
 122.7141510  24.8119420 132.2527140 112.6981210  22.3678270 122.6836180
 112.4094260  22.9381130 123.3961160 113.4426970  21.8882720 123.0467410
 112.8851440  26.3098390 113.8938900 112.8026110  27.2529150 114.0353890
 112.5334500  26.1673300 113.0151250 124.2472180  28.3683220 124.5556760
 123.5153300  28.8770030 124.9046860 123.8496520  27.5513200 124.2545540
 120.6849570  25.0437420 122.9609250 120.6885630  24.6027370 122.1113790
 121.5800690  25.3654750 123.0681070 116.5351950  24.9263910 121.9203460
 116.1952000  25.4039140 122.6770510 115.7729270  24.4729030 121.5604560
 120.7469720  26.0449500 115.9516010 120.8682540  26.0035980 116.9001830
 120.3618230  26.9073650 115.7962740 124.7098090  23.8216900 123.9679700
 124.7270830  24.2725550 124.8121550 124.4613670  22.9222540 124.1813140
 119.7591220  28.3550640 115.3499310 119.1908120  27.9068890 114.7235220
 120.4680220  28.7143420 114.8164460 128.1368840  21.2349080 129.8066080
 128.4614610  20.5038740 130.3324060 128.1725350  20.9162720 128.9047070
 114.8360400  32.2562660 129.2266040 114.4515190  31.6156330 129.8249000
 115.1472590  32.9598780 129.7960770 120.9857540  29.1039200 124.7074660
 121.3527670  28.6297770 125.4536000 120.7962600  29.9780770 125.0483000
 113.8498030  23.8482890 120.8368130 113.5644950  23.4838560 121.6746750
 113.7876890  23.1163350 120.2231270 118.7756910  28.1447840 127.0258870
 118.4713980  29.0239820 127.2509230 119.7303370  28.2047630 127.0616310
 117.3038700  32.3508830 117.6225720 116.5300960  31.8106450 117.4624440
 118.0333330  31.8315440 117.2843480 128.0626680  31.3474190 123.4152110
 128.7825800  31.8429480 123.0248220 127.8608500  30.6692080 122.7705980
 123.5236620  22.7412150 117.5581500 122.7101230  22.2425320 117.4826810
 123.3298570  23.5810400 117.1417850 123.4445480  31.4183250 129.3021110
 123.3782790  30.4978920 129.0478700 122.8150620  31.5158690 130.0165750
 126.2385010  27.1131800 115.8543660 127.1264630  27.4249030 115.6795000
 126.2090100  26.2404050 115.4624240 117.3476100  32.0189210 121.2604530
 117.8654770  31.2157470 121.2061420 116.8960120  31.9568350 122.1021360
 122.2345600  33.2855490 116.5331830 122.5761300  34.0297720 116.0375150
 121.4058310  33.5986610 116.8956660 114.8320640  28.9850580 128.1730230
 114.4735580  29.6504430 128.7603570 114.5375200  28.1534130 128.5442850
 118.0333760  29.4434820 131.0569780 117.7333900  29.5892000 130.1597600
 118.8045000  28.8840110 130.9643170 123.3762210  34.2403820 129.0524910
 123.3906750  33.3084780 128.8343820 122.6687310  34.3263580 129.6914680
 128.5099280  28.4243640 115.3223520 128.4263000  28.8557860 114.4719960
 129.2293470  28.8841990 115.7550340 129.5873420  30.8811160 128.3993490
 128.8621610  31.4739940 128.2022880 130.1148880  30.8734700 127.6006860
 129.5386530  35.2785900 118.0505650 128.8962690  34.6241520 118.3249370
 129.1517190  35.6840990 117.2746320 125.1173010  32.6071330 121.8977340
 125.4696830  32.0099460 121.2378710 124.2335340  32.2815560 122.0685590
 121.2036290  33.3669020 119.3047750 121.8907420  33.9138230 119.6855340
 120.4168710  33.9109750 119.3397360 113.3428690  28.9841840 114.7964830
 114.2123540  29.2666640 115.0800750 112.8519010  29.7977710 114.6813640
 120.5063500  30.3715050 118.9173110 120.9626280  31.1820300 119.1433300
 120.1551710  30.0538190 119.7491600 122.8096110  35.8821390 126.1465410
 123.4538330  36.0880770 126.8238830 123.1725550  35.1209790 125.6936260
 116.4075280  20.7152700 119.3895630 116.2789910  20.7070600 120.3380550
 115.5837300  21.0535790 119.0386640 124.0828190  33.8853740 124.8642860
 124.7250420  33.1846900 124.9775030 124.6077540  34.6652180 124.6839750
 127.9283910  34.1702360 114.5882000 127.7021490  33.4532800 115.1806640
 127.5380110  33.9214800 113.7503750 125.8565810  34.6848640 128.0678920
 126.1922050  35.2715330 128.7456840 124.9366150  34.5541350 128.2976710
 113.7099940  38.1969220 115.3626460 114.0697580  38.7958560 114.7083730
 113.5692280  38.7429110 116.1361490 113.4069210  22.4743820 128.8502330
 112.6927730  22.6740740 129.4554940 113.8264250  21.6983390 129.2217130
 127.5100160  32.0874300 116.2496160 127.2221860  32.5486990 117.0374040
 128.3052330  31.6272070 116.5180380 113.6941800  36.4624080 129.8368860
 113.8032920  35.5218820 129.6964250 113.0422360  36.7278830 129.1882590
 121.6854390  34.7339970 131.2366980 121.3651260  34.0149210 131.7812670
 121.0112750  35.4095040 131.3103040 119.7268560  35.5800420 116.1800130
 119.7178660  36.3130110 115.5644640 118.8066920  35.3332000 116.2727090
 115.3275200  30.8015310 116.9246890 114.7203150  31.5414210 116.9342190
 115.8024550  30.8914670 116.0985090 124.9007990  24.9666130 126.6003780
 125.2688810  24.1461340 126.9283350 124.0406190  25.0268020 127.0159430
 128.2670020  23.9223070 117.4091340 127.6383180  24.0268740 116.6949570
 127.7721940  24.1419850 118.1985220 122.7128160  35.6428660 114.8425320
 122.8140140  35.4392650 113.9127300 121.8129900  35.3886940 115.0473100
 120.2354050  26.2009020 118.8249220 119.5270200  26.6695360 119.2662830
 120.5198530  25.5431030 119.4594410 121.8609980  27.6205720 126.8241750
 122.3595230  28.0951540 127.4893600 122.0032930  26.6969240 127.0311780
 124.2669480  22.9259680 120.2645010 124.1437260  22.9445810 119.3154520
 125.2154040  22.9738620 120.3843410 121.3546270  38.1614980 119.5372990
 121.6087770  38.1236370 118.6152360 120.4058750  38.0348310 119.5301240
 118.4389070  24.5094100 116.1999930 119.2879600  24.9464250 116.1340120
 118.0720340  24.8214360 117.0271990 129.0676840  23.8373680 127.6670140
 128.5650440  24.5779080 128.0063950 129.8833500  24.2257680 127.3506930
 127.3598850  29.0806860 121.1131500 126.4188990  29.0957090 121.2879190
 127.6742920  28.2942820 121.5591800 117.3380490  30.7626460 114.6735460
 118.1043760  30.6507820 115.2360890 117.4155180  30.0664430 114.0212230
 116.0327250  28.1951530 115.3568350 116.1130840  27.2479040 115.4685750
 116.9247000  28.5258410 115.4629010 129.3624430  36.2515710 122.7885760
 129.4871850  37.0746880 123.2609570 130.2289990  36.0406440 122.4409910
 116.8341960  38.3446920 122.4602890 117.5704440  37.7962380 122.7311460
 117.2182880  39.2102930 122.3208880 113.7187440  34.4120490 118.3344400
 112.7927220  34.6541630 118.3249810 114.1843870  35.2394750 118.2129150
 115.8400240  37.5292990 131.6488470 116.6412970  37.8505040 132.0623870
 115.3252060  37.1688570 132.3708380 119.9444270  37.5177230 114.2828460
 120.7372880  37.8066060 113.8310250 119.4248620  37.0869400 113.6040940
 124.6764870  33.6372860 131.5963880 124.0703030  33.6604460 130.8559630
 124.3718980  32.9055900 132.1331130 126.1065240  37.3653150 130.2073290
 127.0586990  37.2811170 130.1573530 125.9593460  38.0294860 130.8807080
 128.9974440  36.7447360 115.7065200 128.7115950  36.3312500 114.8919380
 128.7993990  37.6735070 115.5865720 113.5598050  30.0166450 130.5924520
 114.0637070  29.4373730 131.1640750 112.8205470  30.3006680 131.1300890
 120.4621670  32.7380640 114.1470810 120.3572310  32.1232990 114.8732190
 120.2945890  32.2146530 113.3633820 120.6135990  31.4237440 130.1260040
 119.8481660  31.9922440 130.0414710 120.7951950  31.1313650 129.2328270
 123.7024400  31.8000670 114.7512800 123.1534500  32.2469970 115.3955540
 124.3243660  31.2949920 115.2750470 127.7559340  33.1542770 130.6835060
 128.4968810  33.4918530 130.1802520 126.9932020  33.3234830 130.1304830
 115.5921130  28.1596040 131.4874590 115.6326470  27.8609910 132.3959820
 116.4466630  28.5603650 131.3282110 119.3699520  30.7591590 116.6478100
 119.7915940  30.5931460 117.4909490 119.4950360  29.9491820 116.1533240
 117.5326940  26.7388140 129.4549080 117.0023400  26.2479090 128.8272420
 118.2015010  27.1672340 128.9207010 121.8827160  29.7829200 113.8955200
 122.4032820  29.0678220 113.5296350 122.5295560  30.4215070 114.1955710
 126.4305000  31.2057600 129.2190270 126.8446020  31.3602680 130.0680690
 125.4956000  31.3312820 129.3816050 126.9027170  28.5453760 131.2229420
 127.4847940  27.7906080 131.1349900 127.0788940  29.0761200 130.4460900
 118.0199240  23.7050510 129.5346370 117.9256110  23.0871260 128.8097240
 117.4396630  24.4316800 129.3076280 120.7860680  22.2623750 126.5673760
 120.3377980  22.2848010 125.7219310 120.1525880  21.8642770 127.1644060
 121.1920230  31.1578080 127.1886200 121.6108340  32.0010810 127.0162440
 120.2728860  31.2950120 126.9592980 123.5284130  28.8894260 128.5724040
 123.6480340  28.2935400 129.3118880 124.3878130  28.9263950 128.1525340
 125.8672030  29.4431450 127.1486550 125.3407250  29.9674070 126.5451690
 126.2103370  30.0758840 127.7796280 118.2658420  26.8324820 113.5936260
 118.0647480  25.9692180 113.9549600 118.0950470  26.7458180 112.6557860
 119.0427650  37.4631090 128.3043930 118.5048740  38.1877150 127.9852630
 119.2961610  36.9861430 127.5141270 120.2952900  25.4315610 129.8299860
 120.8852590  25.1231460 130.5177680 119.4773140  24.9595360 129.9859760
 125.1146330  25.0481420 130.0632880 124.4261850  24.3862960 129.9982870
 125.8352350  24.6019690 130.5081340 125.7446730  21.6433050 116.1223140
 126.0249020  20.8000950 116.4782560 124.9712460  21.8756160 116.6361890
 117.0641220  23.9325440 113.5814140 117.3667120  23.9392870 112.6733290
 117.8035810  23.5823300 114.0781800 121.8989860  38.6982300 128.5630580
 121.8248560  39.6017440 128.8702950 120.9968700  38.3794200 128.5352650
 120.2826150  22.8760060 114.5670340 119.9348150  22.1984050 113.9872790
 120.4838920  22.4149570 115.3813730 122.4475190  37.8640810 116.1856940
 123.3425980  38.2025780 116.2075700 122.4792820  37.1420220 115.5581220
 116.0871350  33.2367860 114.4143940 116.5246220  33.7797530 115.0701520
 116.5719080  32.4114810 114.4240280 113.3017150  36.0256890 121.8664200
 113.6320160  35.1577950 121.6342840 113.7308150  36.2315410 122.6969160
 117.8979070  34.3565900 119.5266170 117.5974610  34.2330870 120.4270080
 117.7916560  33.4974490 119.1181900 113.7907360  36.8927480 124.6045830
 113.3538350  37.0728280 125.4369980 114.3585040  37.6502100 124.4627550
 129.4269540  36.3944480 128.8923140 128.8271530  36.4537040 128.1487060
 129.5563440  35.4549460 129.0219990 130.6670990  34.1362300 114.2292850
 129.8363950  34.2038950 114.7000080 130.8442820  35.0266420 113.9259710
 130.1227450  30.8809780 116.7327050 130.8846360  31.4506430 116.8386740
 130.1381820  30.3136980 117.5035360 113.6231790  29.4047710 120.9634710
 112.9680630  29.1359350 120.3194410 114.4609740  29.2952190 120.5136690
 131.1287420  31.7359880 121.5768980 131.4996250  30.9527200 121.1704950
 131.7689350  32.4248980 121.3986280 128.1121180  33.1196460 126.9899300
 127.2981020  33.5493620 127.2525090 128.5195380  33.7314870 126.3768350
 130.1746620  31.1744150 113.8899570 130.4495460  32.0823030 113.7618790
 129.9857360  31.1106680 114.8261560 126.5722230  24.1989000 115.1853200
 126.9907110  24.0119980 114.3449860 126.2658290  23.3468050 115.4956130
 130.0711960  29.1113140 118.8829000 129.6955560  28.3441070 118.4510290
 129.3415080  29.4935840 119.3703930 114.6607720  29.7900280 125.5038050
 115.0280760  29.7027680 126.3834070 114.0918540  29.0266830 125.4044910
 129.4611580  28.2584660 128.5168520 129.2297670  28.0297410 127.6166470
 129.7216130  29.1784210 128.4713410 114.2123720  26.7009370 129.4096470
 113.3179770  26.6676130 129.7490180 114.7521270  26.8996160 130.1747720
 127.8999650  23.4841090 131.2948220 128.7769830  23.4924490 131.6782220
 127.9120490  22.7471930 130.6840570 112.8369870  26.6146640 116.9060040
 111.9333950  26.8776840 116.7311700 113.3210490  26.8857810 116.1260000
 129.3462920  27.3370630 122.1836240 129.8700400  26.8433280 121.5526410
 129.9322340  27.4720990 122.9283810 129.5252640  27.4210500 125.7055790
 128.5755350  27.3874040 125.8200780 129.7065650  28.3310610 125.4705560
 115.3797080  25.6712180 114.8154420 116.0888780  25.2495400 114.3301700
 114.6637020  25.7387410 114.1837770 115.0271240  21.7251510 113.8557070
 115.7499370  22.2660450 114.1738290 115.2995760  21.4514930 112.9798610
 128.8362890  26.5943980 118.1228650 129.3322010  26.3614850 118.9077530
 128.6378960  25.7555820 117.7066290 114.7163430  20.9757700 123.7579690
 115.3639620  20.4255080 123.3174850 115.1365270  21.2300850 124.5795500
 130.2650050  25.2304930 120.6566330 130.1549330  25.0760970 121.5948600
 131.0257640  24.7025870 120.4141740 128.6115770  21.1699060 127.1149330
 129.2487990  21.7833200 127.4808520 128.7590660  21.2059720 126.1698560
 131.1540320  23.0612850 113.8972470 132.0789630  22.9294030 113.6890760
 131.1316110  23.1405670 114.8508920 131.2278810  23.8323510 116.5229180
 130.4330310  23.7668630 117.0522090 131.4322090  24.7674150 116.5114530
 128.1697230  37.8715060 120.5167570 128.7656300  37.5499630 119.8401990
 128.4275380  37.3986880 121.3080840 114.4695430  21.1313370 126.5005010
 114.1210250  21.5877190 127.2663190 114.1383130  20.2370500 126.5827440
 116.0759800  34.3032970 130.6658200 116.0329430  33.9325880 131.5472660
 116.2070810  35.2410540 130.8060020 119.7765830  35.8592560 126.2667920
 119.5357190  36.1267120 125.3798440 120.7168470  36.0298290 126.3218780
 121.9820250  22.3225250 130.0224430 121.9209140  22.9147080 130.7719840
 122.9220630  22.2151210 129.8774690 124.6194810  21.9795310 129.6616720
 125.2335220  22.2974600 128.9997800 125.1644370  21.4943900 130.2812580
 131.0369990  37.8786940 127.0678560 130.5428270  38.2755810 126.3505690
 130.4283280  37.2536150 127.4615840 115.1416070  20.6589570 129.7755780
 115.6899060  20.4777620 129.0121890 115.2071380  19.8683680 130.3112090
 115.9147830  37.2495220 127.7855980 115.3208150  37.1179920 128.5246020
 115.9071670  36.4133360 127.3198080 125.3602850  20.5427450 125.9886010
 124.4862690  20.8762560 125.7858940 125.2513600  20.0700630 126.8137880
 126.2674830  22.7498320 127.3727730 125.9388190  21.9350080 126.9929460
 127.2157130  22.7068130 127.2493420 128.7209440  38.5210360 124.3465300
 128.2612410  39.2726170 123.9723320 128.0921900  37.8016830 124.2880100
 115.5460060  34.6153600 126.7364020 114.8194120  33.9958890 126.6689970
 115.6069210  35.0094210 125.8662100 119.1505160  36.8298600 123.5213430
 119.6670180  36.2185960 122.9961690 119.8002540  37.3327380 124.0124440
 121.8900660  37.7207090 124.3482410 122.1778470  37.4661390 123.4715420
 122.4023880  37.1684450 124.9387980 123.1077670  21.4597290 124.9278920
 122.3249460  21.9342790 125.2075680 122.8140600  20.5552120 124.8192100
 127.6598740  22.1620390 122.9728010 128.1006830  22.1065490 122.1249610
 127.3906330  23.0778400 123.0438190 129.5237310  21.7935630 120.9836830
 129.4625710  20.8496850 120.8367850 130.3029340  21.9015720 121.5290290
 113.8290060  37.9327990 119.9460780 113.6612100  37.2998670 120.6442670
 112.9624570  38.1387390 119.5954970 114.4518080  21.7644770 117.4492640
 115.2097440  21.8773650 116.8756670 113.9895250  22.6013970 117.4036070
 120.9931890  23.8784040 120.4394950 120.1806400  23.5040930 120.0990830
 121.4973530  23.1229120 120.7416140 125.4956870  20.5426490 121.6778020
 126.0986240  21.1146700 122.1526540 124.7549860  21.1065930 121.4551920
 128.6391470  20.9448050 116.9518300 128.8342100  21.8431500 117.2185730
 127.8521340  20.7135130 117.4451250 115.4352760  36.6261220 117.3910920
 114.9100380  37.0069250 116.6872880 115.3597340  37.2511990 118.1120630
 116.8243230  22.2908820 115.9894610 117.3535990  21.5038620 115.8602560
 117.4571550  22.9700010 116.2230140 119.0181070  22.0283960 119.0440000
 118.3883810  21.3271270 119.2110130 118.4786210  22.7888090 118.8273160
 121.9573020  38.6423190 131.7150610 122.8840330  38.4067460 131.7586570
 121.9423450  39.4695190 131.2336640 130.1918080  38.1848760 118.7124860
 130.3670270  37.4986500 118.0685780 129.4939650  38.7095810 118.3201530
 119.1436630  21.3067940 131.4792490 118.8620900  21.8101540 130.7153310
 119.5256330  20.5089690 131.1134620 118.0345730  38.5743600 116.2660170
 118.7664550  38.2902880 115.7184060 118.2939400  38.3356880 117.1559550
 117.1960520  34.6908330 116.2706500 116.5669400  35.1593430 116.8192330
 117.3108350  33.8457550 116.7052690 125.7452090  20.7221520 132.0572960
 125.6317540  21.0416130 132.9524480 126.5621830  21.1234030 131.7610240
 128.5250580  37.8693050 131.5391650 129.3175900  37.3742280 131.3317610
 128.8183730  38.5483190 132.1467260 124.6510240  28.7413990 102.4207700
 124.5704290  27.8268600 102.1499410 124.2374660  29.2381060 101.7147410
 122.7828280  30.5193010 104.3016970 122.0070380  30.0393450 104.5915540
 123.4341210  29.8398660 104.1273130 116.7994110  30.8312820 105.1792730
 115.9678990  30.5761530 105.5789240 117.4075090  30.9023590 105.9150650
 126.8035710  34.9253200 103.0816100 126.3417240  34.1540440 103.4103270
 127.6161260  34.9519270 103.5868550 116.7795370  34.8652910 105.3750750
 117.0823410  33.9750650 105.1960970 117.5238960  35.4223130 105.1473000
 115.2086060  25.7914710  98.9635120 114.3202760  26.1330680  98.8615000
 115.4927250  25.5915030  98.0715950 113.1719070  28.3920360 104.8474820
 113.7435180  27.6242560 104.8478460 113.1720610  28.6909120 103.9381430
 123.0299020  37.2111210 102.7020090 122.4110460  37.6668710 102.1314530
 123.8850800  37.3662670 102.3009790 122.2237270  33.1950200 104.3087130
 122.1545550  32.2540140 104.1476260 122.9857130  33.2851610 104.8809700
 114.4143940  23.8004720 106.6343750 114.2346780  22.9030470 106.9146510
 114.0124020  24.3476590 107.3090700 123.2542440  26.0020580 104.5356060
 123.6307260  25.1292460 104.4229730 123.1561950  26.3379280 103.6446500
 117.3847450  24.3746210  99.9973500 117.4914200  25.2749940 100.3042260
 116.4739810  24.3264180  99.7068150 127.0366560  23.4971020 101.4684400
 127.8576180  23.0067590 101.5109880 127.0700640  24.0868680 102.2216240
 115.0330610  26.2965220 105.2426090 115.7140720  26.5603590 105.8613490
 114.7178660  25.4566090 105.5764100 119.2255180  27.3432580 104.3298680
 119.7333400  27.8413550 104.9703700 119.7568420  26.5667780 104.1538040
 131.3266110  25.5137770 108.0328030 130.6218280  25.9019480 107.5143140
 131.5924030  26.2088060 108.6348960 117.5091280  21.9831140 108.5962100
 117.5109720  22.5003530 107.7908000 116.6795590  21.5061320 108.5732030
 123.8962370  32.0950450 100.0952000 123.2779640  32.5599900  99.5314720
 124.4085620  32.7877930 100.5121510 118.7594130  31.6226320 106.7735600
 118.4263510  32.2495240 107.4156670 118.9360810  32.1488200 105.9937270
 127.2728040  25.4371400 104.2411940 126.5683610  25.7256290 104.8215050
 127.6340200  26.2471510 103.8811500 117.1906610  23.6941100 106.6032550
 117.5323420  24.5383150 106.3086420 116.2522420  23.8424840 106.7197890
 117.9713230  33.5907120 108.5884780 118.5887230  34.2658200 108.3069230
 117.1106350  33.9995100 108.4972280 113.2645570  32.7806980  97.4691630
 112.8873550  33.2694080  96.7376530 113.5218640  33.4532260  98.0998160
 128.8890820  35.0546530 106.5039420 128.2054340  35.7245640 106.4956090
 129.4285110  35.2527180 105.7384280 130.3414960  24.8826190 104.6321150
 129.3939870  24.9165170 104.7636580 130.6664950  25.6965140 105.0170510
 120.8734500  21.1823370 102.9277140 121.1809480  20.6270260 102.2112640
 119.9435200  21.3167830 102.7450130 126.4249560  36.8990660 105.2184600
 126.4376720  36.4952950 104.3506860 125.8724780  37.6737950 105.1146030
 127.7194980  33.6206880 100.3074770 127.6091310  32.6781210 100.4324190
 127.7163230  33.9822520 101.1937530 125.8235000  31.8020500 106.5467210
 126.2403790  31.5880610 105.7120670 126.5474820  32.0593290 107.1175830
 123.2615260  29.2472200  99.6637260 122.3344540  29.1809580  99.8925730
 123.4140080  30.1852330  99.5492500 123.2484340  25.5189200  96.6604420
 122.3088010  25.6803160  96.7456880 123.5667600  26.2374880  96.1140410
 129.7697100  30.2007720 106.6383450 128.9415730  30.2700810 106.1633580
 130.3647580  30.7862030 106.1699280 127.2912550  30.8092500 100.1672510
 126.6724970  30.4712050  99.5198810 127.2737000  30.1652260 100.8751700
 126.7339110  26.9877040 107.5838320 126.3210290  27.8130750 107.8378310
 126.0015060  26.4022080 107.3914680 118.8671900  29.7736940 102.4456990
 118.4628900  29.0614190 101.9502890 118.9535020  29.4290180 103.3345030
 119.3353600  33.4604500 104.6096200 119.0381890  32.8549970 103.9303980
 120.2853420  33.4981810 104.4985560 117.5800520  26.5480150 106.2256030
 118.1315110  26.6575490 105.4509280 118.0944030  26.9217750 106.9411260
 127.4239210  37.0336370 108.2719300 126.9469770  37.8408560 108.0791910
 126.7401000  36.3814700 108.4245510 118.4272030  33.1986190 111.2604000
 117.5300560  33.4226160 111.5077400 118.4524900  33.3221130 110.3115400
 125.4677250  30.0479310  97.1745260 125.9070530  29.2101740  97.0283080
 126.1805670  30.6808710  97.2609400 117.2543250  30.0699510 109.8361370
 117.1151020  30.9422310 110.2048770 116.3724610  29.7272320 109.6909310
 123.5772630  34.9875380 101.1426500 124.0168540  35.7299710 100.7281890
 123.5159520  35.2301950 102.0665460 119.0523600  36.0121210 112.0446520
 119.0239030  36.4164160 111.1774950 118.8888570  35.0831570 111.8818120
 129.0494390  21.3022120  95.4886300 128.7367050  21.3948950  96.3885370
 129.8106860  21.8803150  95.4383730 115.5676530  28.6681920  99.9463640
 115.4474130  29.3944010  99.3344910 115.2577420  27.8984830  99.4691550
 131.0038420  36.7948310 113.3410690 131.4798140  37.2731200 114.0199770
 131.6245580  36.7265800 112.6156190 113.2061900  31.8397060 105.7532280
 113.2842320  31.9745830 104.8088000 113.8203580  31.1312950 105.9460400
 114.4509530  33.5397250 102.1638460 114.0437610  33.6811840 101.3092060
 115.3422540  33.2557410 101.9609670 130.4071670  33.9861160 110.5010700
 130.5334730  33.7473040 109.5827880 130.4493050  33.1545700 110.9732780
 124.2688410  37.6889160 109.0705510 124.7833080  37.5997170 109.8727940
 123.4257490  38.0348860 109.3633420 126.2442810  37.9744500  98.4989510
 126.0843950  37.6847440  99.3971340 126.0789520  37.1984630  97.9634740
 118.7231190  37.7543030 100.2761130 118.5473670  36.8378570 100.0628930
 117.8686930  38.1130320 100.5158930 125.9468940  35.4832060  97.0587510
 125.2534100  35.4809350  96.3989790 126.6891800  35.0591380  96.6281680
 125.5118870  37.1094770 101.1336000 125.9675820  36.3284150 101.4474620
 125.8511390  37.8201590 101.6777180 130.2595680  26.0393620 111.4660440
 129.6439950  26.5473290 110.9375900 129.9392100  25.1391950 111.4086380
 113.2621420  32.8811230 108.2926740 113.4252460  32.4116590 107.4746110
 113.7273870  32.3734790 108.9575580 118.0340190  22.0116990 103.3287310
 117.5908340  22.7926530 102.9971830 118.5925180  22.3346880 104.0358250
 122.3210000  24.8785510 108.9322630 121.8589370  25.0868530 109.7442570
 121.9188110  24.0644860 108.6293300 127.3214510  26.0994460 110.0619290
 126.4708100  25.8000210 110.3828360 127.1616300  26.3436470 109.1503110
 124.4164220  27.5996210 112.1618080 124.7417630  26.7659960 111.8220310
 125.2044550  28.1224730 112.3096410 121.1499010  21.6327690  98.2093140
 120.5253190  21.6287560  98.9346450 121.0629130  20.7658650  97.8129110
 120.0716090  22.5564320 105.1876910 120.3688420  23.4627150 105.1068930
 120.6201650  22.0683100 104.5736480 117.8254410  27.1350560 101.0568560
 117.5995330  26.9187730 101.9615180 117.0446940  27.5679020 100.7114530
 125.0552170  27.1413930  99.6559210 124.4561060  27.8649730  99.4722830
 125.6031780  27.0790710  98.8735660 120.2653620  28.0336140 111.7228830
 120.1697220  27.0930870 111.5729230 121.1085600  28.2551210 111.3276900
 123.6617040  25.7777470 101.6862490 124.0546610  26.0949670 100.8731180
 124.0233890  24.8989350 101.8007010 115.3964160  24.4449810 109.8762610
 115.0027550  25.2925020 110.0835390 114.7082560  23.8076180 110.0671250
 121.9709210  24.5284780 112.9459350 121.2807530  24.3356980 113.5805440
 122.7141510  24.8119420 113.4783650 112.6981210  22.3678270 103.9092690
 112.4094260  22.9381130 104.6217670 113.4426970  21.8882720 104.2723920
 112.8851440  26.3098390  95.1195410 112.8026110  27.2529150  95.2610400
 112.5334500  26.1673300  94.2407760 124.2472180  28.3683220 105.7813270
 123.5153300  28.8770030 106.1303370 123.8496520  27.5513200 105.4802050
 120.6849570  25.0437420 104.1865760 120.6885630  24.6027370 103.3370300
 121.5800690  25.3654750 104.2937580 116.5351950  24.9263910 103.1459970
 116.1952000  25.4039140 103.9027020 115.7729270  24.4729030 102.7861070
 120.7469720  26.0449500  97.1772520 120.8682540  26.0035980  98.1258340
 120.3618230  26.9073650  97.0219250 124.7098090  23.8216900 105.1936210
 124.7270830  24.2725550 106.0378060 124.4613670  22.9222540 105.4069650
 119.7591220  28.3550640  96.5755820 119.1908120  27.9068890  95.9491730
 120.4680220  28.7143420  96.0420970 128.1368840  21.2349080 111.0322590
 128.4614610  20.5038740 111.5580570 128.1725350  20.9162720 110.1303580
 114.8360400  32.2562660 110.4522550 114.4515190  31.6156330 111.0505510
 115.1472590  32.9598780 111.0217280 120.9857540  29.1039200 105.9331170
 121.3527670  28.6297770 106.6792510 120.7962600  29.9780770 106.2739510
 113.8498030  23.8482890 102.0624640 113.5644950  23.4838560 102.9003260
 113.7876890  23.1163350 101.4487780 118.7756910  28.1447840 108.2515380
 118.4713980  29.0239820 108.4765740 119.7303370  28.2047630 108.2872820
 117.3038700  32.3508830  98.8482230 116.5300960  31.8106450  98.6880950
 118.0333330  31.8315440  98.5099990 128.0626680  31.3474190 104.6408620
 128.7825800  31.8429480 104.2504730 127.8608500  30.6692080 103.9962490
 123.5236620  22.7412150  98.7838010 122.7101230  22.2425320  98.7083320
 123.3298570  23.5810400  98.3674360 123.4445480  31.4183250 110.5277620
 123.3782790  30.4978920 110.2735210 122.8150620  31.5158690 111.2422260
 126.2385010  27.1131800  97.0800170 127.1264630  27.4249030  96.9051510
 126.2090100  26.2404050  96.6880750 117.3476100  32.0189210 102.4861040
 117.8654770  31.2157470 102.4317930 116.8960120  31.9568350 103.3277870
 122.2345600  33.2855490  97.7588340 122.5761300  34.0297720  97.2631660
 121.4058310  33.5986610  98.1213170 114.8320640  28.9850580 109.3986740
 114.4735580  29.6504430 109.9860080 114.5375200  28.1534130 109.7699360
 118.0333760  29.4434820 112.2826290 117.7333900  29.5892000 111.3854110
 118.8045000  28.8840110 112.1899680 123.3762210  34.2403820 110.2781420
 123.3906750  33.3084780 110.0600330 122.6687310  34.3263580 110.9171190
 128.5099280  28.4243640  96.5480030 128.4263000  28.8557860  95.6976470
 129.2293470  28.8841990  96.9806850 129.5873420  30.8811160 109.6250000
 128.8621610  31.4739940 109.4279390 130.1148880  30.8734700 108.8263370
 129.5386530  35.2785900  99.2762160 128.8962690  34.6241520  99.5505880
 129.1517190  35.6840990  98.5002830 125.1173010  32.6071330 103.1233850
 125.4696830  32.0099460 102.4635220 124.2335340  32.2815560 103.2942100
 121.2036290  33.3669020 100.5304260 121.8907420  33.9138230 100.9111850
 120.4168710  33.9109750 100.5653870 113.3428690  28.9841840  96.0221340
 114.2123540  29.2666640  96.3057260 112.8519010  29.7977710  95.9070150
 120.5063500  30.3715050 100.1429620 120.9626280  31.1820300 100.3689810
 120.1551710  30.0538190 100.9748110 122.8096110  35.8821390 107.3721920
 123.4538330  36.0880770 108.0495340 123.1725550  35.1209790 106.9192770
 116.4075280  20.7152700 100.6152140 116.2789910  20.7070600 101.5637060
 115.5837300  21.0535790 100.2643150 124.0828190  33.8853740 106.0899370
 124.7250420  33.1846900 106.2031540 124.6077540  34.6652180 105.9096260
 127.9283910  34.1702360  95.8138510 127.7021490  33.4532800  96.4063150
 127.5380110  33.9214800  94.9760260 125.8565810  34.6848640 109.2935430
 126.1922050  35.2715330 109.9713350 124.9366150  34.5541350 109.5233220
 113.7099940  38.1969220  96.5882970 114.0697580  38.7958560  95.9340240
 113.5692280  38.7429110  97.3618000 113.4069210  22.4743820 110.0758840
 112.6927730  22.6740740 110.6811450 113.8264250  21.6983390 110.4473640
 127.5100160  32.0874300  97.4752670 127.2221860  32.5486990  98.2630550
 128.3052330  31.6272070  97.7436890 113.6941800  36.4624080 111.0625370
 113.8032920  35.5218820 110.9220760 113.0422360  36.7278830 110.4139100
 121.6854390  34.7339970 112.4623490 121.3651260  34.0149210 113.0069180
 121.0112750  35.4095040 112.5359550 119.7268560  35.5800420  97.4056640
 119.7178660  36.3130110  96.7901150 118.8066920  35.3332000  97.4983600
 115.3275200  30.8015310  98.1503400 114.7203150  31.5414210  98.1598700
 115.8024550  30.8914670  97.3241600 124.9007990  24.9666130 107.8260290
 125.2688810  24.1461340 108.1539860 124.0406190  25.0268020 108.2415940
 128.2670020  23.9223070  98.6347850 127.6383180  24.0268740  97.9206080
 127.7721940  24.1419850  99.4241730 122.7128160  35.6428660  96.0681830
 122.8140140  35.4392650  95.1383810 121.8129900  35.3886940  96.2729610
 120.2354050  26.2009020 100.0505730 119.5270200  26.6695360 100.4919340
 120.5198530  25.5431030 100.6850920 121.8609980  27.6205720 108.0498260
 122.3595230  28.0951540 108.7150110 122.0032930  26.6969240 108.2568290
 124.2669480  22.9259680 101.4901520 124.1437260  22.9445810 100.5411030
 125.2154040  22.9738620 101.6099920 121.3546270  38.1614980 100.7629500
 121.6087770  38.1236370  99.8408870 120.4058750  38.0348310 100.7557750
 118.4389070  24.5094100  97.4256440 119.2879600  24.9464250  97.3596630
 118.0720340  24.8214360  98.2528500 129.0676840  23.8373680 108.8926650
 128.5650440  24.5779080 109.2320460 129.8833500  24.2257680 108.5763440
 127.3598850  29.0806860 102.3388010 126.4188990  29.0957090 102.5135700
 127.6742920  28.2942820 102.7848310 117.3380490  30.7626460  95.8991970
 118.1043760  30.6507820  96.4617400 117.4155180  30.0664430  95.2468740
 116.0327250  28.1951530  96.5824860 116.1130840  27.2479040  96.6942260
 116.9247000  28.5258410  96.6885520 129.3624430  36.2515710 104.0142270
 129.4871850  37.0746880 104.4866080 130.2289990  36.0406440 103.6666420
 116.8341960  38.3446920 103.6859400 117.5704440  37.7962380 103.9567970
 117.2182880  39.2102930 103.5465390 113.7187440  34.4120490  99.5600910
 112.7927220  34.6541630  99.5506320 114.1843870  35.2394750  99.4385660
 115.8400240  37.5292990 112.8744980 116.6412970  37.8505040 113.2880380
 115.3252060  37.1688570 113.5964890 119.9444270  37.5177230  95.5084970
 120.7372880  37.8066060  95.0566760 119.4248620  37.0869400  94.8297450
 124.6764870  33.6372860 112.8220390 124.0703030  33.6604460 112.0816140
 124.3718980  32.9055900 113.3587640 126.1065240  37.3653150 111.4329800
 127.0586990  37.2811170 111.3830040 125.9593460  38.0294860 112.1063590
 128.9974440  36.7447360  96.9321710 128.7115950  36.3312500  96.1175890
 128.7993990  37.6735070  96.8122230 113.5598050  30.0166450 111.8181030
 114.0637070  29.4373730 112.3897260 112.8205470  30.3006680 112.3557400
 120.4621670  32.7380640  95.3727320 120.3572310  32.1232990  96.0988700
 120.2945890  32.2146530  94.5890330 120.6135990  31.4237440 111.3516550
 119.8481660  31.9922440 111.2671220 120.7951950  31.1313650 110.4584780
 123.7024400  31.8000670  95.9769310 123.1534500  32.2469970  96.6212050
 124.3243660  31.2949920  96.5006980 127.7559340  33.1542770 111.9091570
 128.4968810  33.4918530 111.4059030 126.9932020  33.3234830 111.3561340
 115.5921130  28.1596040 112.7131100 115.6326470  27.8609910 113.6216330
 116.4466630  28.5603650 112.5538620 119.3699520  30.7591590  97.8734610
 119.7915940  30.5931460  98.7166000 119.4950360  29.9491820  97.3789750
 117.5326940  26.7388140 110.6805590 117.0023400  26.2479090 110.0528930
 118.2015010  27.1672340 110.1463520 121.8827160  29.7829200  95.1211710
 122.4032820  29.0678220  94.7552860 122.5295560  30.4215070  95.4212220
 126.4305000  31.2057600 110.4446780 126.8446020  31.3602680 111.2937200
 125.4956000  31.3312820 110.6072560 126.9027170  28.5453760 112.4485930
 127.4847940  27.7906080 112.3606410 127.0788940  29.0761200 111.6717410
 118.0199240  23.7050510 110.7602880 117.9256110  23.0871260 110.0353750
 117.4396630  24.4316800 110.5332790 120.7860680  22.2623750 107.7930270
 120.3377980  22.2848010 106.9475820 120.1525880  21.8642770 108.3900570
 121.1920230  31.1578080 108.4142710 121.6108340  32.0010810 108.2418950
 120.2728860  31.2950120 108.1849490 123.5284130  28.8894260 109.7980550
 123.6480340  28.2935400 110.5375390 124.3878130  28.9263950 109.3781850
 125.8672030  29.4431450 108.3743060 125.3407250  29.9674070 107.7708200
 126.2103370  30.0758840 109.0052790 118.2658420  26.8324820  94.8192770
 118.0647480  25.9692180  95.1806110 118.0950470  26.7458180  93.8814370
 119.0427650  37.4631090 109.5300440 118.5048740  38.1877150 109.2109140
 119.2961610  36.9861430 108.7397780 120.2952900  25.4315610 111.0556370
 120.8852590  25.1231460 111.7434190 119.4773140  24.9595360 111.2116270
 125.1146330  25.0481420 111.2889390 124.4261850  24.3862960 111.2239380
 125.8352350  24.6019690 111.7337850 125.7446730  21.6433050  97.3479650
 126.0249020  20.8000950  97.7039070 124.9712460  21.8756160  97.8618400
 117.0641220  23.9325440  94.8070650 117.3667120  23.9392870  93.8989800
 117.8035810  23.5823300  95.3038310 121.8989860  38.6982300 109.7887090
 121.8248560  39.6017440 110.0959460 120.9968700  38.3794200 109.7609160
 120.2826150  22.8760060  95.7926850 119.9348150  22.1984050  95.2129300
 120.4838920  22.4149570  96.6070240 122.4475190  37.8640810  97.4113450
 123.3425980  38.2025780  97.4332210 122.4792820  37.1420220  96.7837730
 116.0871350  33.2367860  95.6400450 116.5246220  33.7797530  96.2958030
 116.5719080  32.4114810  95.6496790 113.3017150  36.0256890 103.0920710
 113.6320160  35.1577950 102.8599350 113.7308150  36.2315410 103.9225670
 117.8979070  34.3565900 100.7522680 117.5974610  34.2330870 101.6526590
 117.7916560  33.4974490 100.3438410 113.7907360  36.8927480 105.8302340
 113.3538350  37.0728280 106.6626490 114.3585040  37.6502100 105.6884060
 129.4269540  36.3944480 110.1179650 128.8271530  36.4537040 109.3743570
 129.5563440  35.4549460 110.2476500 130.6670990  34.1362300  95.4549360
 129.8363950  34.2038950  95.9256590 130.8442820  35.0266420  95.1516220
 130.1227450  30.8809780  97.9583560 130.8846360  31.4506430  98.0643250
 130.1381820  30.3136980  98.7291870 113.6231790  29.4047710 102.1891220
 112.9680630  29.1359350 101.5450920 114.4609740  29.2952190 101.7393200
 131.1287420  31.7359880 102.8025490 131.4996250  30.9527200 102.3961460
 131.7689350  32.4248980 102.6242790 128.1121180  33.1196460 108.2155810
 127.2981020  33.5493620 108.4781600 128.5195380  33.7314870 107.6024860
 130.1746620  31.1744150  95.1156080 130.4495460  32.0823030  94.9875300
 129.9857360  31.1106680  96.0518070 126.5722230  24.1989000  96.4109710
 126.9907110  24.0119980  95.5706370 126.2658290  23.3468050  96.7212640
 130.0711960  29.1113140 100.1085510 129.6955560  28.3441070  99.6766800
 129.3415080  29.4935840 100.5960440 114.6607720  29.7900280 106.7294560
 115.0280760  29.7027680 107.6090580 114.0918540  29.0266830 106.6301420
 129.4611580  28.2584660 109.7425030 129.2297670  28.0297410 108.8422980
 129.7216130  29.1784210 109.6969920 114.2123720  26.7009370 110.6352980
 113.3179770  26.6676130 110.9746690 114.7521270  26.8996160 111.4004230
 127.8999650  23.4841090 112.5204730 128.7769830  23.4924490 112.9038730
 127.9120490  22.7471930 111.9097080 112.8369870  26.6146640  98.1316550
 111.9333950  26.8776840  97.9568210 113.3210490  26.8857810  97.3516510
 129.3462920  27.3370630 103.4092750 129.8700400  26.8433280 102.7782920
 129.9322340  27.4720990 104.1540320 129.5252640  27.4210500 106.9312300
 128.5755350  27.3874040 107.0457290 129.7065650  28.3310610 106.6962070
 115.3797080  25.6712180  96.0410930 116.0888780  25.2495400  95.5558210
 114.6637020  25.7387410  95.4094280 115.0271240  21.7251510  95.0813580
 115.7499370  22.2660450  95.3994800 115.2995760  21.4514930  94.2055120
 128.8362890  26.5943980  99.3485160 129.3322010  26.3614850 100.1334040
 128.6378960  25.7555820  98.9322800 114.7163430  20.9757700 104.9836200
 115.3639620  20.4255080 104.5431360 115.1365270  21.2300850 105.8052010
 130.2650050  25.2304930 101.8822840 130.1549330  25.0760970 102.8205110
 131.0257640  24.7025870 101.6398250 128.6115770  21.1699060 108.3405840
 129.2487990  21.7833200 108.7065030 128.7590660  21.2059720 107.3955070
 131.1540320  23.0612850  95.1228980 132.0789630  22.9294030  94.9147270
 131.1316110  23.1405670  96.0765430 131.2278810  23.8323510  97.7485690
 130.4330310  23.7668630  98.2778600 131.4322090  24.7674150  97.7371040
 128.1697230  37.8715060 101.7424080 128.7656300  37.5499630 101.0658500
 128.4275380  37.3986880 102.5337350 114.4695430  21.1313370 107.7261520
 114.1210250  21.5877190 108.4919700 114.1383130  20.2370500 107.8083950
 116.0759800  34.3032970 111.8914710 116.0329430  33.9325880 112.7729170
 116.2070810  35.2410540 112.0316530 119.7765830  35.8592560 107.4924430
 119.5357190  36.1267120 106.6054950 120.7168470  36.0298290 107.5475290
 121.9820250  22.3225250 111.2480940 121.9209140  22.9147080 111.9976350
 122.9220630  22.2151210 111.1031200 124.6194810  21.9795310 110.8873230
 125.2335220  22.2974600 110.2254310 125.1644370  21.4943900 111.5069090
 131.0369990  37.8786940 108.2935070 130.5428270  38.2755810 107.5762200
 130.4283280  37.2536150 108.6872350 115.1416070  20.6589570 111.0012290
 115.6899060  20.4777620 110.2378400 115.2071380  19.8683680 111.5368600
 115.9147830  37.2495220 109.0112490 115.3208150  37.1179920 109.7502530
 115.9071670  36.4133360 108.5454590 125.3602850  20.5427450 107.2142520
 124.4862690  20.8762560 107.0115450 125.2513600  20.0700630 108.0394390
 126.2674830  22.7498320 108.5984240 125.9388190  21.9350080 108.2185970
 127.2157130  22.7068130 108.4749930 128.7209440  38.5210360 105.5721810
 128.2612410  39.2726170 105.1979830 128.0921900  37.8016830 105.5136610
 115.5460060  34.6153600 107.9620530 114.8194120  33.9958890 107.8946480
 115.6069210  35.0094210 107.0918610 119.1505160  36.8298600 104.7469940
 119.6670180  36.2185960 104.2218200 119.8002540  37.3327380 105.2380950
 121.8900660  37.7207090 105.5738920 122.1778470  37.4661390 104.6971930
 122.4023880  37.1684450 106.1644490 123.1077670  21.4597290 106.1535430
 122.3249460  21.9342790 106.4332190 122.8140600  20.5552120 106.0448610
 127.6598740  22.1620390 104.1984520 128.1006830  22.1065490 103.3506120
 127.3906330  23.0778400 104.2694700 129.5237310  21.7935630 102.2093340
 129.4625710  20.8496850 102.0624360 130.3029340  21.9015720 102.7546800
 113.8290060  37.9327990 101.1717290 113.6612100  37.2998670 101.8699180
 112.9624570  38.1387390 100.8211480 114.4518080  21.7644770  98.6749150
 115.2097440  21.8773650  98.1013180 113.9895250  22.6013970  98.6292580
 120.9931890  23.8784040 101.6651460 120.1806400  23.5040930 101.3247340
 121.4973530  23.1229120 101.9672650 125.4956870  20.5426490 102.9034530
 126.0986240  21.1146700 103.3783050 124.7549860  21.1065930 102.6808430
 128.6391470  20.9448050  98.1774810 128.8342100  21.8431500  98.4442240
 127.8521340  20.7135130  98.6707760 115.4352760  36.6261220  98.6167430
 114.9100380  37.0069250  97.9129390 115.3597340  37.2511990  99.3377140
 116.8243230  22.2908820  97.2151120 117.3535990  21.5038620  97.0859070
 117.4571550  22.9700010  97.4486650 119.0181070  22.0283960 100.2696510
 118.3883810  21.3271270 100.4366640 118.4786210  22.7888090 100.0529670
 121.9573020  38.6423190 112.9407120 122.8840330  38.4067460 112.9843080
 121.9423450  39.4695190 112.4593150 130.1918080  38.1848760  99.9381370
 130.3670270  37.4986500  99.2942290 129.4939650  38.7095810  99.5458040
 119.1436630  21.3067940 112.7049000 118.8620900  21.8101540 111.9409820
 119.5256330  20.5089690 112.3391130 118.0345730  38.5743600  97.4916680
 118.7664550  38.2902880  96.9440570 118.2939400  38.3356880  98.3816060
 117.1960520  34.6908330  97.4963010 116.5669400  35.1593430  98.0448840
 117.3108350  33.8457550  97.9309200 125.7452090  20.7221520 113.2829470
 125.6317540  21.0416130 114.1780990 126.5621830  21.1234030 112.9866750
 128.5250580  37.8693050 112.7648160 129.3175900  37.3742280 112.5574120
 128.8183730  38.5483190 113.3723770 124.6510240  28.7413990  83.6464210
 124.5704290  27.8268600  83.3755920 124.2374660  29.2381060  82.9403920
 122.7828280  30.5193010  85.5273480 122.0070380  30.0393450  85.8172050
 123.4341210  29.8398660  85.3529640 116.7994110  30.8312820  86.4049240
 115.9678990  30.5761530  86.8045750 117.4075090  30.9023590  87.1407160
 126.8035710  34.9253200  84.3072610 126.3417240  34.1540440  84.6359780
 127.6161260  34.9519270  84.8125060 115.2086060  25.7914710  80.1891630
 114.3202760  26.1330680  80.0871510 115.4927250  25.5915030  79.2972460
 113.1719070  28.3920360  86.0731330 113.7435180  27.6242560  86.0734970
 113.1720610  28.6909120  85.1637940 123.0299020  37.2111210  83.9276600
 122.4110460  37.6668710  83.3571040 123.8850800  37.3662670  83.5266300
 122.2237270  33.1950200  85.5343640 122.1545550  32.2540140  85.3732770
 122.9857130  33.2851610  86.1066210 114.4143940  23.8004720  87.8600260
 114.2346780  22.9030470  88.1403020 114.0124020  24.3476590  88.5347210
 123.2542440  26.0020580  85.7612570 123.6307260  25.1292460  85.6486240
 123.1561950  26.3379280  84.8703010 117.3847450  24.3746210  81.2230010
 117.4914200  25.2749940  81.5298770 116.4739810  24.3264180  80.9324660
 127.0366560  23.4971020  82.6940910 127.8576180  23.0067590  82.7366390
 127.0700640  24.0868680  83.4472750 115.0330610  26.2965220  86.4682600
 115.7140720  26.5603590  87.0870000 114.7178660  25.4566090  86.8020610
 119.2255180  27.3432580  85.5555190 119.7333400  27.8413550  86.1960210
 119.7568420  26.5667780  85.3794550 131.3266110  25.5137770  89.2584540
 130.6218280  25.9019480  88.7399650 131.5924030  26.2088060  89.8605470
 117.5091280  21.9831140  89.8218610 117.5109720  22.5003530  89.0164510
 116.6795590  21.5061320  89.7988540 123.8962370  32.0950450  81.3208510
 123.2779640  32.5599900  80.7571230 124.4085620  32.7877930  81.7378020
 118.7594130  31.6226320  87.9992110 118.4263510  32.2495240  88.6413180
 118.9360810  32.1488200  87.2193780 127.2728040  25.4371400  85.4668450
 126.5683610  25.7256290  86.0471560 127.6340200  26.2471510  85.1068010
 117.1906610  23.6941100  87.8289060 117.5323420  24.5383150  87.5342930
 116.2522420  23.8424840  87.9454400 117.9713230  33.5907120  89.8141290
 118.5887230  34.2658200  89.5325740 117.1106350  33.9995100  89.7228790
 113.2645570  32.7806980  78.6948140 112.8873550  33.2694080  77.9633040
 113.5218640  33.4532260  79.3254670 128.8890820  35.0546530  87.7295930
 128.2054340  35.7245640  87.7212600 129.4285110  35.2527180  86.9640790
 130.3414960  24.8826190  85.8577660 129.3939870  24.9165170  85.9893090
 130.6664950  25.6965140  86.2427020 120.8734500  21.1823370  84.1533650
 121.1809480  20.6270260  83.4369150 119.9435200  21.3167830  83.9706640
 126.4249560  36.8990660  86.4441110 126.4376720  36.4952950  85.5763370
 125.8724780  37.6737950  86.3402540 127.7194980  33.6206880  81.5331280
 127.6091310  32.6781210  81.6580700 127.7163230  33.9822520  82.4194040
 125.8235000  31.8020500  87.7723720 126.2403790  31.5880610  86.9377180
 126.5474820  32.0593290  88.3432340 123.2615260  29.2472200  80.8893770
 122.3344540  29.1809580  81.1182240 123.4140080  30.1852330  80.7749010
 123.2484340  25.5189200  77.8860930 122.3088010  25.6803160  77.9713390
 123.5667600  26.2374880  77.3396920 129.7697100  30.2007720  87.8639960
 128.9415730  30.2700810  87.3890090 130.3647580  30.7862030  87.3955790
 127.2912550  30.8092500  81.3929020 126.6724970  30.4712050  80.7455320
 127.2737000  30.1652260  82.1008210 126.7339110  26.9877040  88.8094830
 126.3210290  27.8130750  89.0634820 126.0015060  26.4022080  88.6171190
 118.8671900  29.7736940  83.6713500 118.4628900  29.0614190  83.1759400
 118.9535020  29.4290180  84.5601540 119.3353600  33.4604500  85.8352710
 119.0381890  32.8549970  85.1560490 120.2853420  33.4981810  85.7242070
 117.5800520  26.5480150  87.4512540 118.1315110  26.6575490  86.6765790
 118.0944030  26.9217750  88.1667770 127.4239210  37.0336370  89.4975810
 126.9469770  37.8408560  89.3048420 126.7401000  36.3814700  89.6502020
 118.4272030  33.1986190  92.4860510 117.5300560  33.4226160  92.7333910
 118.4524900  33.3221130  91.5371910 125.4677250  30.0479310  78.4001770
 125.9070530  29.2101740  78.2539590 126.1805670  30.6808710  78.4865910
 123.5772630  34.9875380  82.3683010 124.0168540  35.7299710  81.9538400
 123.5159520  35.2301950  83.2921970 119.0523600  36.0121210  93.2703030
 119.0239030  36.4164160  92.4031460 118.8888570  35.0831570  93.1074630
 129.0494390  21.3022120  76.7142810 128.7367050  21.3948950  77.6141880
 129.8106860  21.8803150  76.6640240 115.5676530  28.6681920  81.1720150
 115.4474130  29.3944010  80.5601420 115.2577420  27.8984830  80.6948060
 131.0038420  36.7948310  94.5667200 131.4798140  37.2731200  95.2456280
 131.6245580  36.7265800  93.8412700 130.4071670  33.9861160  91.7267210
 130.5334730  33.7473040  90.8084390 130.4493050  33.1545700  92.1989290
 124.2688410  37.6889160  90.2962020 124.7833080  37.5997170  91.0984450
 123.4257490  38.0348860  90.5889930 126.2442810  37.9744500  79.7246020
 126.0843950  37.6847440  80.6227850 126.0789520  37.1984630  79.1891250
 118.7231190  37.7543030  81.5017640 118.5473670  36.8378570  81.2885440
 117.8686930  38.1130320  81.7415440 125.9468940  35.4832060  78.2844020
 125.2534100  35.4809350  77.6246300 126.6891800  35.0591380  77.8538190
 125.5118870  37.1094770  82.3592510 125.9675820  36.3284150  82.6731130
 125.8511390  37.8201590  82.9033690 130.2595680  26.0393620  92.6916950
 129.6439950  26.5473290  92.1632410 129.9392100  25.1391950  92.6342890
 118.0340190  22.0116990  84.5543820 117.5908340  22.7926530  84.2228340
 118.5925180  22.3346880  85.2614760 122.3210000  24.8785510  90.1579140
 121.8589370  25.0868530  90.9699080 121.9188110  24.0644860  89.8549810
 127.3214510  26.0994460  91.2875800 126.4708100  25.8000210  91.6084870
 127.1616300  26.3436470  90.3759620 124.4164220  27.5996210  93.3874590
 124.7417630  26.7659960  93.0476820 125.2044550  28.1224730  93.5352920
 121.1499010  21.6327690  79.4349650 120.5253190  21.6287560  80.1602960
 121.0629130  20.7658650  79.0385620 120.0716090  22.5564320  86.4133420
 120.3688420  23.4627150  86.3325440 120.6201650  22.0683100  85.7992990
 117.8254410  27.1350560  82.2825070 117.5995330  26.9187730  83.1871690
 117.0446940  27.5679020  81.9371040 125.0552170  27.1413930  80.8815720
 124.4561060  27.8649730  80.6979340 125.6031780  27.0790710  80.0992170
 120.2653620  28.0336140  92.9485340 120.1697220  27.0930870  92.7985740
 121.1085600  28.2551210  92.5533410 123.6617040  25.7777470  82.9119000
 124.0546610  26.0949670  82.0987690 124.0233890  24.8989350  83.0263520
 115.3964160  24.4449810  91.1019120 115.0027550  25.2925020  91.3091900
 114.7082560  23.8076180  91.2927760 121.9709210  24.5284780  94.1715860
 121.2807530  24.3356980  94.8061950 122.7141510  24.8119420  94.7040160
 112.6981210  22.3678270  85.1349200 112.4094260  22.9381130  85.8474180
 113.4426970  21.8882720  85.4980430 124.2472180  28.3683220  87.0069780
 123.5153300  28.8770030  87.3559880 123.8496520  27.5513200  86.7058560
 120.6849570  25.0437420  85.4122270 120.6885630  24.6027370  84.5626810
 121.5800690  25.3654750  85.5194090 116.5351950  24.9263910  84.3716480
 116.1952000  25.4039140  85.1283530 115.7729270  24.4729030  84.0117580
 120.7469720  26.0449500  78.4029030 120.8682540  26.0035980  79.3514850
 120.3618230  26.9073650  78.2475760 124.7098090  23.8216900  86.4192720
 124.7270830  24.2725550  87.2634570 124.4613670  22.9222540  86.6326160
 119.7591220  28.3550640  77.8012330 119.1908120  27.9068890  77.1748240
 120.4680220  28.7143420  77.2677480 128.1368840  21.2349080  92.2579100
 128.4614610  20.5038740  92.7837080 128.1725350  20.9162720  91.3560090
 120.9857540  29.1039200  87.1587680 121.3527670  28.6297770  87.9049020
 120.7962600  29.9780770  87.4996020 113.8498030  23.8482890  83.2881150
 113.5644950  23.4838560  84.1259770 113.7876890  23.1163350  82.6744290
 118.7756910  28.1447840  89.4771890 118.4713980  29.0239820  89.7022250
 119.7303370  28.2047630  89.5129330 117.3038700  32.3508830  80.0738740
 116.5300960  31.8106450  79.9137460 118.0333330  31.8315440  79.7356500
 128.0626680  31.3474190  85.8665130 128.7825800  31.8429480  85.4761240
 127.8608500  30.6692080  85.2219000 123.5236620  22.7412150  80.0094520
 122.7101230  22.2425320  79.9339830 123.3298570  23.5810400  79.5930870
 123.4445480  31.4183250  91.7534130 123.3782790  30.4978920  91.4991720
 122.8150620  31.5158690  92.4678770 126.2385010  27.1131800  78.3056680
 127.1264630  27.4249030  78.1308020 126.2090100  26.2404050  77.9137260
 117.3476100  32.0189210  83.7117550 117.8654770  31.2157470  83.6574440
 116.8960120  31.9568350  84.5534380 122.2345600  33.2855490  78.9844850
 122.5761300  34.0297720  78.4888170 121.4058310  33.5986610  79.3469680
 118.0333760  29.4434820  93.5082800 117.7333900  29.5892000  92.6110620
 118.8045000  28.8840110  93.4156190 123.3762210  34.2403820  91.5037930
 123.3906750  33.3084780  91.2856840 122.6687310  34.3263580  92.1427700
 128.5099280  28.4243640  77.7736540 128.4263000  28.8557860  76.9232980
 129.2293470  28.8841990  78.2063360 129.5873420  30.8811160  90.8506510
 128.8621610  31.4739940  90.6535900 130.1148880  30.8734700  90.0519880
 129.5386530  35.2785900  80.5018670 128.8962690  34.6241520  80.7762390
 129.1517190  35.6840990  79.7259340 125.1173010  32.6071330  84.3490360
 125.4696830  32.0099460  83.6891730 124.2335340  32.2815560  84.5198610
 121.2036290  33.3669020  81.7560770 121.8907420  33.9138230  82.1368360
 120.4168710  33.9109750  81.7910380 113.3428690  28.9841840  77.2477850
 114.2123540  29.2666640  77.5313770 112.8519010  29.7977710  77.1326660
 120.5063500  30.3715050  81.3686130 120.9626280  31.1820300  81.5946320
 120.1551710  30.0538190  82.2004620 122.8096110  35.8821390  88.5978430
 123.4538330  36.0880770  89.2751850 123.1725550  35.1209790  88.1449280
 116.4075280  20.7152700  81.8408650 116.2789910  20.7070600  82.7893570
 115.5837300  21.0535790  81.4899660 124.0828190  33.8853740  87.3155880
 124.7250420  33.1846900  87.4288050 124.6077540  34.6652180  87.1352770
 127.9283910  34.1702360  77.0395020 127.7021490  33.4532800  77.6319660
 127.5380110  33.9214800  76.2016770 125.8565810  34.6848640  90.5191940
 126.1922050  35.2715330  91.1969860 124.9366150  34.5541350  90.7489730
 113.7099940  38.1969220  77.8139480 114.0697580  38.7958560  77.1596750
 113.5692280  38.7429110  78.5874510 113.4069210  22.4743820  91.3015350
 112.6927730  22.6740740  91.9067960 113.8264250  21.6983390  91.6730150
 127.5100160  32.0874300  78.7009180 127.2221860  32.5486990  79.4887060
 128.3052330  31.6272070  78.9693400 113.6941800  36.4624080  92.2881880
 113.8032920  35.5218820  92.1477270 113.0422360  36.7278830  91.6395610
 121.6854390  34.7339970  93.6880000 121.3651260  34.0149210  94.2325690
 121.0112750  35.4095040  93.7616060 119.7268560  35.5800420  78.6313150
 119.7178660  36.3130110  78.0157660 118.8066920  35.3332000  78.7240110
 115.3275200  30.8015310  79.3759910 114.7203150  31.5414210  79.3855210
 115.8024550  30.8914670  78.5498110 124.9007990  24.9666130  89.0516800
 125.2688810  24.1461340  89.3796370 124.0406190  25.0268020  89.4672450
 128.2670020  23.9223070  79.8604360 127.6383180  24.0268740  79.1462590
 127.7721940  24.1419850  80.6498240 122.7128160  35.6428660  77.2938340
 122.8140140  35.4392650  76.3640320 121.8129900  35.3886940  77.4986120
 120.2354050  26.2009020  81.2762240 119.5270200  26.6695360  81.7175850
 120.5198530  25.5431030  81.9107430 121.8609980  27.6205720  89.2754770
 122.3595230  28.0951540  89.9406620 122.0032930  26.6969240  89.4824800
 124.2669480  22.9259680  82.7158030 124.1437260  22.9445810  81.7667540
 125.2154040  22.9738620  82.8356430 121.3546270  38.1614980  81.9886010
 121.6087770  38.1236370  81.0665380 120.4058750  38.0348310  81.9814260
 118.4389070  24.5094100  78.6512950 119.2879600  24.9464250  78.5853140
 118.0720340  24.8214360  79.4785010 129.0676840  23.8373680  90.1183160
 128.5650440  24.5779080  90.4576970 129.8833500  24.2257680  89.8019950
 127.3598850  29.0806860  83.5644520 126.4188990  29.0957090  83.7392210
 127.6742920  28.2942820  84.0104820 117.3380490  30.7626460  77.1248480
 118.1043760  30.6507820  77.6873910 117.4155180  30.0664430  76.4725250
 116.0327250  28.1951530  77.8081370 116.1130840  27.2479040  77.9198770
 116.9247000  28.5258410  77.9142030 129.3624430  36.2515710  85.2398780
 129.4871850  37.0746880  85.7122590 130.2289990  36.0406440  84.8922930
 116.8341960  38.3446920  84.9115910 117.5704440  37.7962380  85.1824480
 117.2182880  39.2102930  84.7721900 113.7187440  34.4120490  80.7857420
 112.7927220  34.6541630  80.7762830 114.1843870  35.2394750  80.6642170
 115.8400240  37.5292990  94.1001490 116.6412970  37.8505040  94.5136890
 115.3252060  37.1688570  94.8221400 119.9444270  37.5177230  76.7341480
 120.7372880  37.8066060  76.2823270 119.4248620  37.0869400  76.0553960
 124.6764870  33.6372860  94.0476900 124.0703030  33.6604460  93.3072650
 124.3718980  32.9055900  94.5844150 126.1065240  37.3653150  92.6586310
 127.0586990  37.2811170  92.6086550 125.9593460  38.0294860  93.3320100
 128.9974440  36.7447360  78.1578220 128.7115950  36.3312500  77.3432400
 128.7993990  37.6735070  78.0378740 120.4621670  32.7380640  76.5983830
 120.3572310  32.1232990  77.3245210 120.2945890  32.2146530  75.8146840
 120.6135990  31.4237440  92.5773060 119.8481660  31.9922440  92.4927730
 120.7951950  31.1313650  91.6841290 123.7024400  31.8000670  77.2025820
 123.1534500  32.2469970  77.8468560 124.3243660  31.2949920  77.7263490
 127.7559340  33.1542770  93.1348080 128.4968810  33.4918530  92.6315540
 126.9932020  33.3234830  92.5817850 119.3699520  30.7591590  79.0991120
 119.7915940  30.5931460  79.9422510 119.4950360  29.9491820  78.6046260
 117.5326940  26.7388140  91.9062100 117.0023400  26.2479090  91.2785440
 118.2015010  27.1672340  91.3720030 121.8827160  29.7829200  76.3468220
 122.4032820  29.0678220  75.9809370 122.5295560  30.4215070  76.6468730
 126.4305000  31.2057600  91.6703290 126.8446020  31.3602680  92.5193710
 125.4956000  31.3312820  91.8329070 126.9027170  28.5453760  93.6742440
 127.4847940  27.7906080  93.5862920 127.0788940  29.0761200  92.8973920
 118.0199240  23.7050510  91.9859390 117.9256110  23.0871260  91.2610260
 117.4396630  24.4316800  91.7589300 120.7860680  22.2623750  89.0186780
 120.3377980  22.2848010  88.1732330 120.1525880  21.8642770  89.6157080
 121.1920230  31.1578080  89.6399220 121.6108340  32.0010810  89.4675460
 120.2728860  31.2950120  89.4106000 123.5284130  28.8894260  91.0237060
 123.6480340  28.2935400  91.7631900 124.3878130  28.9263950  90.6038360
 125.8672030  29.4431450  89.5999570 125.3407250  29.9674070  88.9964710
 126.2103370  30.0758840  90.2309300 118.2658420  26.8324820  76.0449280
 118.0647480  25.9692180  76.4062620 118.0950470  26.7458180  75.1070880
 119.0427650  37.4631090  90.7556950 118.5048740  38.1877150  90.4365650
 119.2961610  36.9861430  89.9654290 120.2952900  25.4315610  92.2812880
 120.8852590  25.1231460  92.9690700 119.4773140  24.9595360  92.4372780
 125.1146330  25.0481420  92.5145900 124.4261850  24.3862960  92.4495890
 125.8352350  24.6019690  92.9594360 125.7446730  21.6433050  78.5736160
 126.0249020  20.8000950  78.9295580 124.9712460  21.8756160  79.0874910
 117.0641220  23.9325440  76.0327160 117.3667120  23.9392870  75.1246310
 117.8035810  23.5823300  76.5294820 121.8989860  38.6982300  91.0143600
 121.8248560  39.6017440  91.3215970 120.9968700  38.3794200  90.9865670
 120.2826150  22.8760060  77.0183360 119.9348150  22.1984050  76.4385810
 120.4838920  22.4149570  77.8326750 122.4475190  37.8640810  78.6369960
 123.3425980  38.2025780  78.6588720 122.4792820  37.1420220  78.0094240
 116.0871350  33.2367860  76.8656960 116.5246220  33.7797530  77.5214540
 116.5719080  32.4114810  76.8753300 117.8979070  34.3565900  81.9779190
 117.5974610  34.2330870  82.8783100 117.7916560  33.4974490  81.5694920
 129.4269540  36.3944480  91.3436160 128.8271530  36.4537040  90.6000080
 129.5563440  35.4549460  91.4733010 130.6670990  34.1362300  76.6805870
 129.8363950  34.2038950  77.1513100 130.8442820  35.0266420  76.3772730
 130.1227450  30.8809780  79.1840070 130.8846360  31.4506430  79.2899760
 130.1381820  30.3136980  79.9548380 113.6231790  29.4047710  83.4147730
 112.9680630  29.1359350  82.7707430 114.4609740  29.2952190  82.9649710
 131.1287420  31.7359880  84.0282000 131.4996250  30.9527200  83.6217970
 131.7689350  32.4248980  83.8499300 128.1121180  33.1196460  89.4412320
 127.2981020  33.5493620  89.7038110 128.5195380  33.7314870  88.8281370
 130.1746620  31.1744150  76.3412590 130.4495460  32.0823030  76.2131810
 129.9857360  31.1106680  77.2774580 126.5722230  24.1989000  77.6366220
 126.9907110  24.0119980  76.7962880 126.2658290  23.3468050  77.9469150
 130.0711960  29.1113140  81.3342020 129.6955560  28.3441070  80.9023310
 129.3415080  29.4935840  81.8216950 129.4611580  28.2584660  90.9681540
 129.2297670  28.0297410  90.0679490 129.7216130  29.1784210  90.9226430
 114.2123720  26.7009370  91.8609490 113.3179770  26.6676130  92.2003200
 114.7521270  26.8996160  92.6260740 127.8999650  23.4841090  93.7461240
 128.7769830  23.4924490  94.1295240 127.9120490  22.7471930  93.1353590
 129.3462920  27.3370630  84.6349260 129.8700400  26.8433280  84.0039430
 129.9322340  27.4720990  85.3796830 129.5252640  27.4210500  88.1568810
 128.5755350  27.3874040  88.2713800 129.7065650  28.3310610  87.9218580
 115.3797080  25.6712180  77.2667440 116.0888780  25.2495400  76.7814720
 114.6637020  25.7387410  76.6350790 115.0271240  21.7251510  76.3070090
 115.7499370  22.2660450  76.6251310 115.2995760  21.4514930  75.4311630
 128.8362890  26.5943980  80.5741670 129.3322010  26.3614850  81.3590550
 128.6378960  25.7555820  80.1579310 114.7163430  20.9757700  86.2092710
 115.3639620  20.4255080  85.7687870 115.1365270  21.2300850  87.0308520
 130.2650050  25.2304930  83.1079350 130.1549330  25.0760970  84.0461620
 131.0257640  24.7025870  82.8654760 128.6115770  21.1699060  89.5662350
 129.2487990  21.7833200  89.9321540 128.7590660  21.2059720  88.6211580
 131.1540320  23.0612850  76.3485490 132.0789630  22.9294030  76.1403780
 131.1316110  23.1405670  77.3021940 131.2278810  23.8323510  78.9742200
 130.4330310  23.7668630  79.5035110 131.4322090  24.7674150  78.9627550
 128.1697230  37.8715060  82.9680590 128.7656300  37.5499630  82.2915010
 128.4275380  37.3986880  83.7593860 114.4695430  21.1313370  88.9518030
 114.1210250  21.5877190  89.7176210 114.1383130  20.2370500  89.0340460
 119.7765830  35.8592560  88.7180940 119.5357190  36.1267120  87.8311460
 120.7168470  36.0298290  88.7731800 121.9820250  22.3225250  92.4737450
 121.9209140  22.9147080  93.2232860 122.9220630  22.2151210  92.3287710
 124.6194810  21.9795310  92.1129740 125.2335220  22.2974600  91.4510820
 125.1644370  21.4943900  92.7325600 131.0369990  37.8786940  89.5191580
 130.5428270  38.2755810  88.8018710 130.4283280  37.2536150  89.9128860
 115.1416070  20.6589570  92.2268800 115.6899060  20.4777620  91.4634910
 115.2071380  19.8683680  92.7625110 125.3602850  20.5427450  88.4399030
 124.4862690  20.8762560  88.2371960 125.2513600  20.0700630  89.2650900
 126.2674830  22.7498320  89.8240750 125.9388190  21.9350080  89.4442480
 127.2157130  22.7068130  89.7006440 128.7209440  38.5210360  86.7978320
 128.2612410  39.2726170  86.4236340 128.0921900  37.8016830  86.7393120
 119.1505160  36.8298600  85.9726450 119.6670180  36.2185960  85.4474710
 119.8002540  37.3327380  86.4637460 121.8900660  37.7207090  86.7995430
 122.1778470  37.4661390  85.9228440 122.4023880  37.1684450  87.3901000
 123.1077670  21.4597290  87.3791940 122.3249460  21.9342790  87.6588700
 122.8140600  20.5552120  87.2705120 127.6598740  22.1620390  85.4241030
 128.1006830  22.1065490  84.5762630 127.3906330  23.0778400  85.4951210
 129.5237310  21.7935630  83.4349850 129.4625710  20.8496850  83.2880870
 130.3029340  21.9015720  83.9803310 113.8290060  37.9327990  82.3973800
 113.6612100  37.2998670  83.0955690 112.9624570  38.1387390  82.0467990
 114.4518080  21.7644770  79.9005660 115.2097440  21.8773650  79.3269690
 113.9895250  22.6013970  79.8549090 120.9931890  23.8784040  82.8907970
 120.1806400  23.5040930  82.5503850 121.4973530  23.1229120  83.1929160
 125.4956870  20.5426490  84.1291040 126.0986240  21.1146700  84.6039560
 124.7549860  21.1065930  83.9064940 128.6391470  20.9448050  79.4031320
 128.8342100  21.8431500  79.6698750 127.8521340  20.7135130  79.8964270
 115.4352760  36.6261220  79.8423940 114.9100380  37.0069250  79.1385900
 115.3597340  37.2511990  80.5633650 116.8243230  22.2908820  78.4407630
 117.3535990  21.5038620  78.3115580 117.4571550  22.9700010  78.6743160
 119.0181070  22.0283960  81.4953020 118.3883810  21.3271270  81.6623150
 118.4786210  22.7888090  81.2786180 121.9573020  38.6423190  94.1663630
 122.8840330  38.4067460  94.2099590 121.9423450  39.4695190  93.6849660
 130.1918080  38.1848760  81.1637880 130.3670270  37.4986500  80.5198800
 129.4939650  38.7095810  80.7714550 119.1436630  21.3067940  93.9305510
 118.8620900  21.8101540  93.1666330 119.5256330  20.5089690  93.5647640
 118.0345730  38.5743600  78.7173190 118.7664550  38.2902880  78.1697080
 118.2939400  38.3356880  79.6072570 117.1960520  34.6908330  78.7219520
 116.5669400  35.1593430  79.2705350 117.3108350  33.8457550  79.1565710
 125.7452090  20.7221520  94.5085980 125.6317540  21.0416130  95.4037500
 126.5621830  21.1234030  94.2123260 128.5250580  37.8693050  93.9904670
 129.3175900  37.3742280  93.7830630 128.8183730  38.5483190  94.5980280
 124.6510240  28.7413990  64.8720720 124.5704290  27.8268600  64.6012430
 124.2374660  29.2381060  64.1660430 122.7828280  30.5193010  66.7529990
 122.0070380  30.0393450  67.0428560 123.4341210  29.8398660  66.5786150
 116.7994110  30.8312820  67.6305750 115.9678990  30.5761530  68.0302260
 117.4075090  30.9023590  68.3663670 126.8035710  34.9253200  65.5329120
 126.3417240  34.1540440  65.8616290 127.6161260  34.9519270  66.0381570
 116.7795370  34.8652910  67.8263770 117.0823410  33.9750650  67.6473990
 117.5238960  35.4223130  67.5986020 115.2086060  25.7914710  61.4148140
 114.3202760  26.1330680  61.3128020 115.4927250  25.5915030  60.5228970
 113.1719070  28.3920360  67.2987840 113.7435180  27.6242560  67.2991480
 113.1720610  28.6909120  66.3894450 123.0299020  37.2111210  65.1533110
 122.4110460  37.6668710  64.5827550 123.8850800  37.3662670  64.7522810
 122.2237270  33.1950200  66.7600150 122.1545550  32.2540140  66.5989280
 122.9857130  33.2851610  67.3322720 114.4143940  23.8004720  69.0856770
 114.2346780  22.9030470  69.3659530 114.0124020  24.3476590  69.7603720
 123.2542440  26.0020580  66.9869080 123.6307260  25.1292460  66.8742750
 123.1561950  26.3379280  66.0959520 117.3847450  24.3746210  62.4486520
 117.4914200  25.2749940  62.7555280 116.4739810  24.3264180  62.1581170
 127.0366560  23.4971020  63.9197420 127.8576180  23.0067590  63.9622900
 127.0700640  24.0868680  64.6729260 115.0330610  26.2965220  67.6939110
 115.7140720  26.5603590  68.3126510 114.7178660  25.4566090  68.0277120
 119.2255180  27.3432580  66.7811700 119.7333400  27.8413550  67.4216720
 119.7568420  26.5667780  66.6051060 131.3266110  25.5137770  70.4841050
 130.6218280  25.9019480  69.9656160 131.5924030  26.2088060  71.0861980
 117.5091280  21.9831140  71.0475120 117.5109720  22.5003530  70.2421020
 116.6795590  21.5061320  71.0245050 123.8962370  32.0950450  62.5465020
 123.2779640  32.5599900  61.9827740 124.4085620  32.7877930  62.9634530
 118.7594130  31.6226320  69.2248620 118.4263510  32.2495240  69.8669690
 118.9360810  32.1488200  68.4450290 127.2728040  25.4371400  66.6924960
 126.5683610  25.7256290  67.2728070 127.6340200  26.2471510  66.3324520
 117.1906610  23.6941100  69.0545570 117.5323420  24.5383150  68.7599440
 116.2522420  23.8424840  69.1710910 117.9713230  33.5907120  71.0397800
 118.5887230  34.2658200  70.7582250 117.1106350  33.9995100  70.9485300
 128.8890820  35.0546530  68.9552440 128.2054340  35.7245640  68.9469110
 129.4285110  35.2527180  68.1897300 130.3414960  24.8826190  67.0834170
 129.3939870  24.9165170  67.2149600 130.6664950  25.6965140  67.4683530
 120.8734500  21.1823370  65.3790160 121.1809480  20.6270260  64.6625660
 119.9435200  21.3167830  65.1963150 126.4249560  36.8990660  67.6697620
 126.4376720  36.4952950  66.8019880 125.8724780  37.6737950  67.5659050
 127.7194980  33.6206880  62.7587790 127.6091310  32.6781210  62.8837210
 127.7163230  33.9822520  63.6450550 125.8235000  31.8020500  68.9980230
 126.2403790  31.5880610  68.1633690 126.5474820  32.0593290  69.5688850
 123.2615260  29.2472200  62.1150280 122.3344540  29.1809580  62.3438750
 123.4140080  30.1852330  62.0005520 123.2484340  25.5189200  59.1117440
 122.3088010  25.6803160  59.1969900 123.5667600  26.2374880  58.5653430
 129.7697100  30.2007720  69.0896470 128.9415730  30.2700810  68.6146600
 130.3647580  30.7862030  68.6212300 127.2912550  30.8092500  62.6185530
 126.6724970  30.4712050  61.9711830 127.2737000  30.1652260  63.3264720
 126.7339110  26.9877040  70.0351340 126.3210290  27.8130750  70.2891330
 126.0015060  26.4022080  69.8427700 118.8671900  29.7736940  64.8970010
 118.4628900  29.0614190  64.4015910 118.9535020  29.4290180  65.7858050
 119.3353600  33.4604500  67.0609220 119.0381890  32.8549970  66.3817000
 120.2853420  33.4981810  66.9498580 117.5800520  26.5480150  68.6769050
 118.1315110  26.6575490  67.9022300 118.0944030  26.9217750  69.3924280
 127.4239210  37.0336370  70.7232320 126.9469770  37.8408560  70.5304930
 126.7401000  36.3814700  70.8758530 118.4272030  33.1986190  73.7117020
 117.5300560  33.4226160  73.9590420 118.4524900  33.3221130  72.7628420
 125.4677250  30.0479310  59.6258280 125.9070530  29.2101740  59.4796100
 126.1805670  30.6808710  59.7122420 117.2543250  30.0699510  72.2874390
 117.1151020  30.9422310  72.6561790 116.3724610  29.7272320  72.1422330
 123.5772630  34.9875380  63.5939520 124.0168540  35.7299710  63.1794910
 123.5159520  35.2301950  64.5178480 119.0523600  36.0121210  74.4959540
 119.0239030  36.4164160  73.6287970 118.8888570  35.0831570  74.3331140
 129.0494390  21.3022120  57.9399320 128.7367050  21.3948950  58.8398390
 129.8106860  21.8803150  57.8896750 115.5676530  28.6681920  62.3976660
 115.4474130  29.3944010  61.7857930 115.2577420  27.8984830  61.9204570
 131.0038420  36.7948310  75.7923710 131.4798140  37.2731200  76.4712790
 131.6245580  36.7265800  75.0669210 113.2061900  31.8397060  68.2045300
 113.2842320  31.9745830  67.2601020 113.8203580  31.1312950  68.3973420
 114.4509530  33.5397250  64.6151480 114.0437610  33.6811840  63.7605080
 115.3422540  33.2557410  64.4122690 130.4071670  33.9861160  72.9523720
 130.5334730  33.7473040  72.0340900 130.4493050  33.1545700  73.4245800
 124.2688410  37.6889160  71.5218530 124.7833080  37.5997170  72.3240960
 123.4257490  38.0348860  71.8146440 126.2442810  37.9744500  60.9502530
 126.0843950  37.6847440  61.8484360 126.0789520  37.1984630  60.4147760
 118.7231190  37.7543030  62.7274150 118.5473670  36.8378570  62.5141950
 117.8686930  38.1130320  62.9671950 125.9468940  35.4832060  59.5100530
 125.2534100  35.4809350  58.8502810 126.6891800  35.0591380  59.0794700
 125.5118870  37.1094770  63.5849020 125.9675820  36.3284150  63.8987640
 125.8511390  37.8201590  64.1290200 130.2595680  26.0393620  73.9173460
 129.6439950  26.5473290  73.3888920 129.9392100  25.1391950  73.8599400
 113.2621420  32.8811230  70.7439760 113.4252460  32.4116590  69.9259130
 113.7273870  32.3734790  71.4088600 118.0340190  22.0116990  65.7800330
 117.5908340  22.7926530  65.4484850 118.5925180  22.3346880  66.4871270
 122.3210000  24.8785510  71.3835650 121.8589370  25.0868530  72.1955590
 121.9188110  24.0644860  71.0806320 127.3214510  26.0994460  72.5132310
 126.4708100  25.8000210  72.8341380 127.1616300  26.3436470  71.6016130
 124.4164220  27.5996210  74.6131100 124.7417630  26.7659960  74.2733330
 125.2044550  28.1224730  74.7609430 121.1499010  21.6327690  60.6606160
 120.5253190  21.6287560  61.3859470 121.0629130  20.7658650  60.2642130
 120.0716090  22.5564320  67.6389930 120.3688420  23.4627150  67.5581950
 120.6201650  22.0683100  67.0249500 117.8254410  27.1350560  63.5081580
 117.5995330  26.9187730  64.4128200 117.0446940  27.5679020  63.1627550
 125.0552170  27.1413930  62.1072230 124.4561060  27.8649730  61.9235850
 125.6031780  27.0790710  61.3248680 120.2653620  28.0336140  74.1741850
 120.1697220  27.0930870  74.0242250 121.1085600  28.2551210  73.7789920
 123.6617040  25.7777470  64.1375510 124.0546610  26.0949670  63.3244200
 124.0233890  24.8989350  64.2520030 115.3964160  24.4449810  72.3275630
 115.0027550  25.2925020  72.5348410 114.7082560  23.8076180  72.5184270
 121.9709210  24.5284780  75.3972370 121.2807530  24.3356980  76.0318460
 122.7141510  24.8119420  75.9296670 112.6981210  22.3678270  66.3605710
 112.4094260  22.9381130  67.0730690 113.4426970  21.8882720  66.7236940
 112.8851440  26.3098390  57.5708430 112.8026110  27.2529150  57.7123420
 112.5334500  26.1673300  56.6920780 124.2472180  28.3683220  68.2326290
 123.5153300  28.8770030  68.5816390 123.8496520  27.5513200  67.9315070
 120.6849570  25.0437420  66.6378780 120.6885630  24.6027370  65.7883320
 121.5800690  25.3654750  66.7450600 116.5351950  24.9263910  65.5972990
 116.1952000  25.4039140  66.3540040 115.7729270  24.4729030  65.2374090
 120.7469720  26.0449500  59.6285540 120.8682540  26.0035980  60.5771360
 120.3618230  26.9073650  59.4732270 124.7098090  23.8216900  67.6449230
 124.7270830  24.2725550  68.4891080 124.4613670  22.9222540  67.8582670
 119.7591220  28.3550640  59.0268840 119.1908120  27.9068890  58.4004750
 120.4680220  28.7143420  58.4933990 128.1368840  21.2349080  73.4835610
 128.4614610  20.5038740  74.0093590 128.1725350  20.9162720  72.5816600
 114.8360400  32.2562660  72.9035570 114.4515190  31.6156330  73.5018530
 115.1472590  32.9598780  73.4730300 120.9857540  29.1039200  68.3844190
 121.3527670  28.6297770  69.1305530 120.7962600  29.9780770  68.7252530
 113.8498030  23.8482890  64.5137660 113.5644950  23.4838560  65.3516280
 113.7876890  23.1163350  63.9000800 118.7756910  28.1447840  70.7028400
 118.4713980  29.0239820  70.9278760 119.7303370  28.2047630  70.7385840
 117.3038700  32.3508830  61.2995250 116.5300960  31.8106450  61.1393970
 118.0333330  31.8315440  60.9613010 128.0626680  31.3474190  67.0921640
 128.7825800  31.8429480  66.7017750 127.8608500  30.6692080  66.4475510
 123.5236620  22.7412150  61.2351030 122.7101230  22.2425320  61.1596340
 123.3298570  23.5810400  60.8187380 123.4445480  31.4183250  72.9790640
 123.3782790  30.4978920  72.7248230 122.8150620  31.5158690  73.6935280
 126.2385010  27.1131800  59.5313190 127.1264630  27.4249030  59.3564530
 126.2090100  26.2404050  59.1393770 117.3476100  32.0189210  64.9374060
 117.8654770  31.2157470  64.8830950 116.8960120  31.9568350  65.7790890
 122.2345600  33.2855490  60.2101360 122.5761300  34.0297720  59.7144680
 121.4058310  33.5986610  60.5726190 114.8320640  28.9850580  71.8499760
 114.4735580  29.6504430  72.4373100 114.5375200  28.1534130  72.2212380
 118.0333760  29.4434820  74.7339310 117.7333900  29.5892000  73.8367130
 118.8045000  28.8840110  74.6412700 123.3762210  34.2403820  72.7294440
 123.3906750  33.3084780  72.5113350 122.6687310  34.3263580  73.3684210
 128.5099280  28.4243640  58.9993050 128.4263000  28.8557860  58.1489490
 129.2293470  28.8841990  59.4319870 129.5873420  30.8811160  72.0763020
 128.8621610  31.4739940  71.8792410 130.1148880  30.8734700  71.2776390
 129.5386530  35.2785900  61.7275180 128.8962690  34.6241520  62.0018900
 129.1517190  35.6840990  60.9515850 125.1173010  32.6071330  65.5746870
 125.4696830  32.0099460  64.9148240 124.2335340  32.2815560  65.7455120
 121.2036290  33.3669020  62.9817280 121.8907420  33.9138230  63.3624870
 120.4168710  33.9109750  63.0166890 113.3428690  28.9841840  58.4734360
 114.2123540  29.2666640  58.7570280 112.8519010  29.7977710  58.3583170
 120.5063500  30.3715050  62.5942640 120.9626280  31.1820300  62.8202830
 120.1551710  30.0538190  63.4261130 122.8096110  35.8821390  69.8234940
 123.4538330  36.0880770  70.5008360 123.1725550  35.1209790  69.3705790
 116.4075280  20.7152700  63.0665160 116.2789910  20.7070600  64.0150080
 115.5837300  21.0535790  62.7156170 124.0828190  33.8853740  68.5412390
 124.7250420  33.1846900  68.6544560 124.6077540  34.6652180  68.3609280
 127.9283910  34.1702360  58.2651530 127.7021490  33.4532800  58.8576170
 127.5380110  33.9214800  57.4273280 125.8565810  34.6848640  71.7448450
 126.1922050  35.2715330  72.4226370 124.9366150  34.5541350  71.9746240
 113.4069210  22.4743820  72.5271860 112.6927730  22.6740740  73.1324470
 113.8264250  21.6983390  72.8986660 127.5100160  32.0874300  59.9265690
 127.2221860  32.5486990  60.7143570 128.3052330  31.6272070  60.1949910
 113.6941800  36.4624080  73.5138390 113.8032920  35.5218820  73.3733780
 113.0422360  36.7278830  72.8652120 121.6854390  34.7339970  74.9136510
 121.3651260  34.0149210  75.4582200 121.0112750  35.4095040  74.9872570
 119.7268560  35.5800420  59.8569660 119.7178660  36.3130110  59.2414170
 118.8066920  35.3332000  59.9496620 115.3275200  30.8015310  60.6016420
 114.7203150  31.5414210  60.6111720 115.8024550  30.8914670  59.7754620
 124.9007990  24.9666130  70.2773310 125.2688810  24.1461340  70.6052880
 124.0406190  25.0268020  70.6928960 128.2670020  23.9223070  61.0860870
 127.6383180  24.0268740  60.3719100 127.7721940  24.1419850  61.8754750
 122.7128160  35.6428660  58.5194850 122.8140140  35.4392650  57.5896830
 121.8129900  35.3886940  58.7242630 120.2354050  26.2009020  62.5018750
 119.5270200  26.6695360  62.9432360 120.5198530  25.5431030  63.1363940
 121.8609980  27.6205720  70.5011280 122.3595230  28.0951540  71.1663130
 122.0032930  26.6969240  70.7081310 124.2669480  22.9259680  63.9414540
 124.1437260  22.9445810  62.9924050 125.2154040  22.9738620  64.0612940
 121.3546270  38.1614980  63.2142520 121.6087770  38.1236370  62.2921890
 120.4058750  38.0348310  63.2070770 118.4389070  24.5094100  59.8769460
 119.2879600  24.9464250  59.8109650 118.0720340  24.8214360  60.7041520
 129.0676840  23.8373680  71.3439670 128.5650440  24.5779080  71.6833480
 129.8833500  24.2257680  71.0276460 127.3598850  29.0806860  64.7901030
 126.4188990  29.0957090  64.9648720 127.6742920  28.2942820  65.2361330
 117.3380490  30.7626460  58.3504990 118.1043760  30.6507820  58.9130420
 117.4155180  30.0664430  57.6981760 116.0327250  28.1951530  59.0337880
 116.1130840  27.2479040  59.1455280 116.9247000  28.5258410  59.1398540
 129.3624430  36.2515710  66.4655290 129.4871850  37.0746880  66.9379100
 130.2289990  36.0406440  66.1179440 113.7187440  34.4120490  62.0113930
 112.7927220  34.6541630  62.0019340 114.1843870  35.2394750  61.8898680
 115.8400240  37.5292990  75.3258000 116.6412970  37.8505040  75.7393400
 115.3252060  37.1688570  76.0477910 119.9444270  37.5177230  57.9597990
 120.7372880  37.8066060  57.5079780 119.4248620  37.0869400  57.2810470
 124.6764870  33.6372860  75.2733410 124.0703030  33.6604460  74.5329160
 124.3718980  32.9055900  75.8100660 126.1065240  37.3653150  73.8842820
 127.0586990  37.2811170  73.8343060 125.9593460  38.0294860  74.5576610
 128.9974440  36.7447360  59.3834730 128.7115950  36.3312500  58.5688910
 128.7993990  37.6735070  59.2635250 113.5598050  30.0166450  74.2694050
 114.0637070  29.4373730  74.8410280 112.8205470  30.3006680  74.8070420
 120.4621670  32.7380640  57.8240340 120.3572310  32.1232990  58.5501720
 120.2945890  32.2146530  57.0403350 120.6135990  31.4237440  73.8029570
 119.8481660  31.9922440  73.7184240 120.7951950  31.1313650  72.9097800
 123.7024400  31.8000670  58.4282330 123.1534500  32.2469970  59.0725070
 124.3243660  31.2949920  58.9520000 127.7559340  33.1542770  74.3604590
 128.4968810  33.4918530  73.8572050 126.9932020  33.3234830  73.8074360
 115.5921130  28.1596040  75.1644120 115.6326470  27.8609910  76.0729350
 116.4466630  28.5603650  75.0051640 119.3699520  30.7591590  60.3247630
 119.7915940  30.5931460  61.1679020 119.4950360  29.9491820  59.8302770
 117.5326940  26.7388140  73.1318610 117.0023400  26.2479090  72.5041950
 118.2015010  27.1672340  72.5976540 121.8827160  29.7829200  57.5724730
 122.4032820  29.0678220  57.2065880 122.5295560  30.4215070  57.8725240
 126.4305000  31.2057600  72.8959800 126.8446020  31.3602680  73.7450220
 125.4956000  31.3312820  73.0585580 126.9027170  28.5453760  74.8998950
 127.4847940  27.7906080  74.8119430 127.0788940  29.0761200  74.1230430
 118.0199240  23.7050510  73.2115900 117.9256110  23.0871260  72.4866770
 117.4396630  24.4316800  72.9845810 120.7860680  22.2623750  70.2443290
 120.3377980  22.2848010  69.3988840 120.1525880  21.8642770  70.8413590
 121.1920230  31.1578080  70.8655730 121.6108340  32.0010810  70.6931970
 120.2728860  31.2950120  70.6362510 123.5284130  28.8894260  72.2493570
 123.6480340  28.2935400  72.9888410 124.3878130  28.9263950  71.8294870
 125.8672030  29.4431450  70.8256080 125.3407250  29.9674070  70.2221220
 126.2103370  30.0758840  71.4565810 118.2658420  26.8324820  57.2705790
 118.0647480  25.9692180  57.6319130 118.0950470  26.7458180  56.3327390
 119.0427650  37.4631090  71.9813460 118.5048740  38.1877150  71.6622160
 119.2961610  36.9861430  71.1910800 120.2952900  25.4315610  73.5069390
 120.8852590  25.1231460  74.1947210 119.4773140  24.9595360  73.6629290
 125.1146330  25.0481420  73.7402410 124.4261850  24.3862960  73.6752400
 125.8352350  24.6019690  74.1850870 125.7446730  21.6433050  59.7992670
 126.0249020  20.8000950  60.1552090 124.9712460  21.8756160  60.3131420
 117.0641220  23.9325440  57.2583670 117.3667120  23.9392870  56.3502820
 117.8035810  23.5823300  57.7551330 121.8989860  38.6982300  72.2400110
 121.8248560  39.6017440  72.5472480 120.9968700  38.3794200  72.2122180
 120.2826150  22.8760060  58.2439870 119.9348150  22.1984050  57.6642320
 120.4838920  22.4149570  59.0583260 122.4475190  37.8640810  59.8626470
 123.3425980  38.2025780  59.8845230 122.4792820  37.1420220  59.2350750
 117.8979070  34.3565900  63.2035700 117.5974610  34.2330870  64.1039610
 117.7916560  33.4974490  62.7951430 113.7907360  36.8927480  68.2815360
 113.3538350  37.0728280  69.1139510 114.3585040  37.6502100  68.1397080
 129.4269540  36.3944480  72.5692670 128.8271530  36.4537040  71.8256590
 129.5563440  35.4549460  72.6989520 130.6670990  34.1362300  57.9062380
 129.8363950  34.2038950  58.3769610 130.8442820  35.0266420  57.6029240
 130.1227450  30.8809780  60.4096580 130.8846360  31.4506430  60.5156270
 130.1381820  30.3136980  61.1804890 113.6231790  29.4047710  64.6404240
 112.9680630  29.1359350  63.9963940 114.4609740  29.2952190  64.1906220
 131.1287420  31.7359880  65.2538510 131.4996250  30.9527200  64.8474480
 131.7689350  32.4248980  65.0755810 128.1121180  33.1196460  70.6668830
 127.2981020  33.5493620  70.9294620 128.5195380  33.7314870  70.0537880
 130.1746620  31.1744150  57.5669100 130.4495460  32.0823030  57.4388320
 129.9857360  31.1106680  58.5031090 126.5722230  24.1989000  58.8622730
 126.9907110  24.0119980  58.0219390 126.2658290  23.3468050  59.1725660
 130.0711960  29.1113140  62.5598530 129.6955560  28.3441070  62.1279820
 129.3415080  29.4935840  63.0473460 114.6607720  29.7900280  69.1807580
 115.0280760  29.7027680  70.0603600 114.0918540  29.0266830  69.0814440
 129.4611580  28.2584660  72.1938050 129.2297670  28.0297410  71.2936000
 129.7216130  29.1784210  72.1482940 114.2123720  26.7009370  73.0866000
 113.3179770  26.6676130  73.4259710 114.7521270  26.8996160  73.8517250
 127.8999650  23.4841090  74.9717750 128.7769830  23.4924490  75.3551750
 127.9120490  22.7471930  74.3610100 112.8369870  26.6146640  60.5829570
 111.9333950  26.8776840  60.4081230 113.3210490  26.8857810  59.8029530
 129.3462920  27.3370630  65.8605770 129.8700400  26.8433280  65.2295940
 129.9322340  27.4720990  66.6053340 129.5252640  27.4210500  69.3825320
 128.5755350  27.3874040  69.4970310 129.7065650  28.3310610  69.1475090
 115.3797080  25.6712180  58.4923950 116.0888780  25.2495400  58.0071230
 114.6637020  25.7387410  57.8607300 115.0271240  21.7251510  57.5326600
 115.7499370  22.2660450  57.8507820 115.2995760  21.4514930  56.6568140
 128.8362890  26.5943980  61.7998180 129.3322010  26.3614850  62.5847060
 128.6378960  25.7555820  61.3835820 114.7163430  20.9757700  67.4349220
 115.3639620  20.4255080  66.9944380 115.1365270  21.2300850  68.2565030
 130.2650050  25.2304930  64.3335860 130.1549330  25.0760970  65.2718130
 131.0257640  24.7025870  64.0911270 128.6115770  21.1699060  70.7918860
 129.2487990  21.7833200  71.1578050 128.7590660  21.2059720  69.8468090
 131.1540320  23.0612850  57.5742000 132.0789630  22.9294030  57.3660290
 131.1316110  23.1405670  58.5278450 131.2278810  23.8323510  60.1998710
 130.4330310  23.7668630  60.7291620 131.4322090  24.7674150  60.1884060
 128.1697230  37.8715060  64.1937100 128.7656300  37.5499630  63.5171520
 128.4275380  37.3986880  64.9850370 114.4695430  21.1313370  70.1774540
 114.1210250  21.5877190  70.9432720 114.1383130  20.2370500  70.2596970
 116.0759800  34.3032970  74.3427730 116.0329430  33.9325880  75.2242190
 116.2070810  35.2410540  74.4829550 119.7765830  35.8592560  69.9437450
 119.5357190  36.1267120  69.0567970 120.7168470  36.0298290  69.9988310
 121.9820250  22.3225250  73.6993960 121.9209140  22.9147080  74.4489370
 122.9220630  22.2151210  73.5544220 124.6194810  21.9795310  73.3386250
 125.2335220  22.2974600  72.6767330 125.1644370  21.4943900  73.9582110
 131.0369990  37.8786940  70.7448090 130.5428270  38.2755810  70.0275220
 130.4283280  37.2536150  71.1385370 115.1416070  20.6589570  73.4525310
 115.6899060  20.4777620  72.6891420 115.2071380  19.8683680  73.9881620
 115.9147830  37.2495220  71.4625510 115.3208150  37.1179920  72.2015550
 115.9071670  36.4133360  70.9967610 125.3602850  20.5427450  69.6655540
 124.4862690  20.8762560  69.4628470 125.2513600  20.0700630  70.4907410
 126.2674830  22.7498320  71.0497260 125.9388190  21.9350080  70.6698990
 127.2157130  22.7068130  70.9262950 128.7209440  38.5210360  68.0234830
 128.2612410  39.2726170  67.6492850 128.0921900  37.8016830  67.9649630
 115.5460060  34.6153600  70.4133550 114.8194120  33.9958890  70.3459500
 115.6069210  35.0094210  69.5431630 119.1505160  36.8298600  67.1982960
 119.6670180  36.2185960  66.6731220 119.8002540  37.3327380  67.6893970
 121.8900660  37.7207090  68.0251940 122.1778470  37.4661390  67.1484950
 122.4023880  37.1684450  68.6157510 123.1077670  21.4597290  68.6048450
 122.3249460  21.9342790  68.8845210 122.8140600  20.5552120  68.4961630
 127.6598740  22.1620390  66.6497540 128.1006830  22.1065490  65.8019140
 127.3906330  23.0778400  66.7207720 129.5237310  21.7935630  64.6606360
 129.4625710  20.8496850  64.5137380 130.3029340  21.9015720  65.2059820
 114.4518080  21.7644770  61.1262170 115.2097440  21.8773650  60.5526200
 113.9895250  22.6013970  61.0805600 120.9931890  23.8784040  64.1164480
 120.1806400  23.5040930  63.7760360 121.4973530  23.1229120  64.4185670
 125.4956870  20.5426490  65.3547550 126.0986240  21.1146700  65.8296070
 124.7549860  21.1065930  65.1321450 128.6391470  20.9448050  60.6287830
 128.8342100  21.8431500  60.8955260 127.8521340  20.7135130  61.1220780
 116.8243230  22.2908820  59.6664140 117.3535990  21.5038620  59.5372090
 117.4571550  22.9700010  59.8999670 119.0181070  22.0283960  62.7209530
 118.3883810  21.3271270  62.8879660 118.4786210  22.7888090  62.5042690
 121.9573020  38.6423190  75.3920140 122.8840330  38.4067460  75.4356100
 121.9423450  39.4695190  74.9106170 130.1918080  38.1848760  62.3894390
 130.3670270  37.4986500  61.7455310 129.4939650  38.7095810  61.9971060
 119.1436630  21.3067940  75.1562020 118.8620900  21.8101540  74.3922840
 119.5256330  20.5089690  74.7904150 118.0345730  38.5743600  59.9429700
 118.7664550  38.2902880  59.3953590 118.2939400  38.3356880  60.8329080
 125.7452090  20.7221520  75.7342490 125.6317540  21.0416130  76.6294010
 126.5621830  21.1234030  75.4379770 128.5250580  37.8693050  75.2161180
 129.3175900  37.3742280  75.0087140 128.8183730  38.5483190  75.8236790
 124.6510240  28.7413990  46.0977230 124.5704290  27.8268600  45.8268940
 124.2374660  29.2381060  45.3916940 122.7828280  30.5193010  47.9786500
 122.0070380  30.0393450  48.2685070 123.4341210  29.8398660  47.8042660
 116.7994110  30.8312820  48.8562260 115.9678990  30.5761530  49.2558770
 117.4075090  30.9023590  49.5920180 126.8035710  34.9253200  46.7585630
 126.3417240  34.1540440  47.0872800 127.6161260  34.9519270  47.2638080
 116.7795370  34.8652910  49.0520280 117.0823410  33.9750650  48.8730500
 117.5238960  35.4223130  48.8242530 115.2086060  25.7914710  42.6404650
 114.3202760  26.1330680  42.5384530 115.4927250  25.5915030  41.7485480
 113.1719070  28.3920360  48.5244350 113.7435180  27.6242560  48.5247990
 113.1720610  28.6909120  47.6150960 123.0299020  37.2111210  46.3789620
 122.4110460  37.6668710  45.8084060 123.8850800  37.3662670  45.9779320
 122.2237270  33.1950200  47.9856660 122.1545550  32.2540140  47.8245790
 122.9857130  33.2851610  48.5579230 114.4143940  23.8004720  50.3113280
 114.2346780  22.9030470  50.5916040 114.0124020  24.3476590  50.9860230
 123.2542440  26.0020580  48.2125590 123.6307260  25.1292460  48.0999260
 123.1561950  26.3379280  47.3216030 117.3847450  24.3746210  43.6743030
 117.4914200  25.2749940  43.9811790 116.4739810  24.3264180  43.3837680
 127.0366560  23.4971020  45.1453930 127.8576180  23.0067590  45.1879410
 127.0700640  24.0868680  45.8985770 115.0330610  26.2965220  48.9195620
 115.7140720  26.5603590  49.5383020 114.7178660  25.4566090  49.2533630
 119.2255180  27.3432580  48.0068210 119.7333400  27.8413550  48.6473230
 119.7568420  26.5667780  47.8307570 131.3266110  25.5137770  51.7097560
 130.6218280  25.9019480  51.1912670 131.5924030  26.2088060  52.3118490
 117.5091280  21.9831140  52.2731630 117.5109720  22.5003530  51.4677530
 116.6795590  21.5061320  52.2501560 123.8962370  32.0950450  43.7721530
 123.2779640  32.5599900  43.2084250 124.4085620  32.7877930  44.1891040
 118.7594130  31.6226320  50.4505130 118.4263510  32.2495240  51.0926200
 118.9360810  32.1488200  49.6706800 127.2728040  25.4371400  47.9181470
 126.5683610  25.7256290  48.4984580 127.6340200  26.2471510  47.5581030
 117.1906610  23.6941100  50.2802080 117.5323420  24.5383150  49.9855950
 116.2522420  23.8424840  50.3967420 117.9713230  33.5907120  52.2654310
 118.5887230  34.2658200  51.9838760 117.1106350  33.9995100  52.1741810
 113.2645570  32.7806980  41.1461160 112.8873550  33.2694080  40.4146060
 113.5218640  33.4532260  41.7767690 128.8890820  35.0546530  50.1808950
 128.2054340  35.7245640  50.1725620 129.4285110  35.2527180  49.4153810
 130.3414960  24.8826190  48.3090680 129.3939870  24.9165170  48.4406110
 130.6664950  25.6965140  48.6940040 120.8734500  21.1823370  46.6046670
 121.1809480  20.6270260  45.8882170 119.9435200  21.3167830  46.4219660
 126.4249560  36.8990660  48.8954130 126.4376720  36.4952950  48.0276390
 125.8724780  37.6737950  48.7915560 127.7194980  33.6206880  43.9844300
 127.6091310  32.6781210  44.1093720 127.7163230  33.9822520  44.8707060
 125.8235000  31.8020500  50.2236740 126.2403790  31.5880610  49.3890200
 126.5474820  32.0593290  50.7945360 123.2615260  29.2472200  43.3406790
 122.3344540  29.1809580  43.5695260 123.4140080  30.1852330  43.2262030
 123.2484340  25.5189200  40.3373950 122.3088010  25.6803160  40.4226410
 123.5667600  26.2374880  39.7909940 129.7697100  30.2007720  50.3152980
 128.9415730  30.2700810  49.8403110 130.3647580  30.7862030  49.8468810
 127.2912550  30.8092500  43.8442040 126.6724970  30.4712050  43.1968340
 127.2737000  30.1652260  44.5521230 126.7339110  26.9877040  51.2607850
 126.3210290  27.8130750  51.5147840 126.0015060  26.4022080  51.0684210
 118.8671900  29.7736940  46.1226520 118.4628900  29.0614190  45.6272420
 118.9535020  29.4290180  47.0114560 119.3353600  33.4604500  48.2865730
 119.0381890  32.8549970  47.6073510 120.2853420  33.4981810  48.1755090
 117.5800520  26.5480150  49.9025560 118.1315110  26.6575490  49.1278810
 118.0944030  26.9217750  50.6180790 127.4239210  37.0336370  51.9488830
 126.9469770  37.8408560  51.7561440 126.7401000  36.3814700  52.1015040
 118.4272030  33.1986190  54.9373530 117.5300560  33.4226160  55.1846930
 118.4524900  33.3221130  53.9884930 125.4677250  30.0479310  40.8514790
 125.9070530  29.2101740  40.7052610 126.1805670  30.6808710  40.9378930
 117.2543250  30.0699510  53.5130900 117.1151020  30.9422310  53.8818300
 116.3724610  29.7272320  53.3678840 123.5772630  34.9875380  44.8196030
 124.0168540  35.7299710  44.4051420 123.5159520  35.2301950  45.7434990
 119.0523600  36.0121210  55.7216050 119.0239030  36.4164160  54.8544480
 118.8888570  35.0831570  55.5587650 129.0494390  21.3022120  39.1655830
 128.7367050  21.3948950  40.0654900 129.8106860  21.8803150  39.1153260
 115.5676530  28.6681920  43.6233170 115.4474130  29.3944010  43.0114440
 115.2577420  27.8984830  43.1461080 131.0038420  36.7948310  57.0180220
 131.4798140  37.2731200  57.6969300 131.6245580  36.7265800  56.2925720
 114.4509530  33.5397250  45.8407990 114.0437610  33.6811840  44.9861590
 115.3422540  33.2557410  45.6379200 130.4071670  33.9861160  54.1780230
 130.5334730  33.7473040  53.2597410 130.4493050  33.1545700  54.6502310
 124.2688410  37.6889160  52.7475040 124.7833080  37.5997170  53.5497470
 123.4257490  38.0348860  53.0402950 126.2442810  37.9744500  42.1759040
 126.0843950  37.6847440  43.0740870 126.0789520  37.1984630  41.6404270
 118.7231190  37.7543030  43.9530660 118.5473670  36.8378570  43.7398460
 117.8686930  38.1130320  44.1928460 125.9468940  35.4832060  40.7357040
 125.2534100  35.4809350  40.0759320 126.6891800  35.0591380  40.3051210
 125.5118870  37.1094770  44.8105530 125.9675820  36.3284150  45.1244150
 125.8511390  37.8201590  45.3546710 130.2595680  26.0393620  55.1429970
 129.6439950  26.5473290  54.6145430 129.9392100  25.1391950  55.0855910
 118.0340190  22.0116990  47.0056840 117.5908340  22.7926530  46.6741360
 118.5925180  22.3346880  47.7127780 122.3210000  24.8785510  52.6092160
 121.8589370  25.0868530  53.4212100 121.9188110  24.0644860  52.3062830
 127.3214510  26.0994460  53.7388820 126.4708100  25.8000210  54.0597890
 127.1616300  26.3436470  52.8272640 124.4164220  27.5996210  55.8387610
 124.7417630  26.7659960  55.4989840 125.2044550  28.1224730  55.9865940
 121.1499010  21.6327690  41.8862670 120.5253190  21.6287560  42.6115980
 121.0629130  20.7658650  41.4898640 120.0716090  22.5564320  48.8646440
 120.3688420  23.4627150  48.7838460 120.6201650  22.0683100  48.2506010
 117.8254410  27.1350560  44.7338090 117.5995330  26.9187730  45.6384710
 117.0446940  27.5679020  44.3884060 125.0552170  27.1413930  43.3328740
 124.4561060  27.8649730  43.1492360 125.6031780  27.0790710  42.5505190
 120.2653620  28.0336140  55.3998360 120.1697220  27.0930870  55.2498760
 121.1085600  28.2551210  55.0046430 123.6617040  25.7777470  45.3632020
 124.0546610  26.0949670  44.5500710 124.0233890  24.8989350  45.4776540
 115.3964160  24.4449810  53.5532140 115.0027550  25.2925020  53.7604920
 114.7082560  23.8076180  53.7440780 121.9709210  24.5284780  56.6228880
 121.2807530  24.3356980  57.2574970 122.7141510  24.8119420  57.1553180
 112.6981210  22.3678270  47.5862220 112.4094260  22.9381130  48.2987200
 113.4426970  21.8882720  47.9493450 112.8851440  26.3098390  38.7964940
 112.8026110  27.2529150  38.9379930 112.5334500  26.1673300  37.9177290
 124.2472180  28.3683220  49.4582800 123.5153300  28.8770030  49.8072900
 123.8496520  27.5513200  49.1571580 120.6849570  25.0437420  47.8635290
 120.6885630  24.6027370  47.0139830 121.5800690  25.3654750  47.9707110
 116.5351950  24.9263910  46.8229500 116.1952000  25.4039140  47.5796550
 115.7729270  24.4729030  46.4630600 120.7469720  26.0449500  40.8542050
 120.8682540  26.0035980  41.8027870 120.3618230  26.9073650  40.6988780
 124.7098090  23.8216900  48.8705740 124.7270830  24.2725550  49.7147590
 124.4613670  22.9222540  49.0839180 119.7591220  28.3550640  40.2525350
 119.1908120  27.9068890  39.6261260 120.4680220  28.7143420  39.7190500
 128.1368840  21.2349080  54.7092120 128.4614610  20.5038740  55.2350100
 128.1725350  20.9162720  53.8073110 120.9857540  29.1039200  49.6100700
 121.3527670  28.6297770  50.3562040 120.7962600  29.9780770  49.9509040
 113.8498030  23.8482890  45.7394170 113.5644950  23.4838560  46.5772790
 113.7876890  23.1163350  45.1257310 118.7756910  28.1447840  51.9284910
 118.4713980  29.0239820  52.1535270 119.7303370  28.2047630  51.9642350
 117.3038700  32.3508830  42.5251760 116.5300960  31.8106450  42.3650480
 118.0333330  31.8315440  42.1869520 128.0626680  31.3474190  48.3178150
 128.7825800  31.8429480  47.9274260 127.8608500  30.6692080  47.6732020
 123.5236620  22.7412150  42.4607540 122.7101230  22.2425320  42.3852850
 123.3298570  23.5810400  42.0443890 123.4445480  31.4183250  54.2047150
 123.3782790  30.4978920  53.9504740 122.8150620  31.5158690  54.9191790
 126.2385010  27.1131800  40.7569700 127.1264630  27.4249030  40.5821040
 126.2090100  26.2404050  40.3650280 117.3476100  32.0189210  46.1630570
 117.8654770  31.2157470  46.1087460 116.8960120  31.9568350  47.0047400
 122.2345600  33.2855490  41.4357870 122.5761300  34.0297720  40.9401190
 121.4058310  33.5986610  41.7982700 114.8320640  28.9850580  53.0756270
 114.4735580  29.6504430  53.6629610 114.5375200  28.1534130  53.4468890
 118.0333760  29.4434820  55.9595820 117.7333900  29.5892000  55.0623640
 118.8045000  28.8840110  55.8669210 123.3762210  34.2403820  53.9550950
 123.3906750  33.3084780  53.7369860 122.6687310  34.3263580  54.5940720
 128.5099280  28.4243640  40.2249560 128.4263000  28.8557860  39.3746000
 129.2293470  28.8841990  40.6576380 129.5873420  30.8811160  53.3019530
 128.8621610  31.4739940  53.1048920 130.1148880  30.8734700  52.5032900
 129.5386530  35.2785900  42.9531690 128.8962690  34.6241520  43.2275410
 129.1517190  35.6840990  42.1772360 125.1173010  32.6071330  46.8003380
 125.4696830  32.0099460  46.1404750 124.2335340  32.2815560  46.9711630
 121.2036290  33.3669020  44.2073790 121.8907420  33.9138230  44.5881380
 120.4168710  33.9109750  44.2423400 113.3428690  28.9841840  39.6990870
 114.2123540  29.2666640  39.9826790 112.8519010  29.7977710  39.5839680
 120.5063500  30.3715050  43.8199150 120.9626280  31.1820300  44.0459340
 120.1551710  30.0538190  44.6517640 122.8096110  35.8821390  51.0491450
 123.4538330  36.0880770  51.7264870 123.1725550  35.1209790  50.5962300
 116.4075280  20.7152700  44.2921670 116.2789910  20.7070600  45.2406590
 115.5837300  21.0535790  43.9412680 124.0828190  33.8853740  49.7668900
 124.7250420  33.1846900  49.8801070 124.6077540  34.6652180  49.5865790
 127.9283910  34.1702360  39.4908040 127.7021490  33.4532800  40.0832680
 127.5380110  33.9214800  38.6529790 125.8565810  34.6848640  52.9704960
 126.1922050  35.2715330  53.6482880 124.9366150  34.5541350  53.2002750
 113.7099940  38.1969220  40.2652500 114.0697580  38.7958560  39.6109770
 113.5692280  38.7429110  41.0387530 113.4069210  22.4743820  53.7528370
 112.6927730  22.6740740  54.3580980 113.8264250  21.6983390  54.1243170
 127.5100160  32.0874300  41.1522200 127.2221860  32.5486990  41.9400080
 128.3052330  31.6272070  41.4206420 121.6854390  34.7339970  56.1393020
 121.3651260  34.0149210  56.6838710 121.0112750  35.4095040  56.2129080
 119.7268560  35.5800420  41.0826170 119.7178660  36.3130110  40.4670680
 118.8066920  35.3332000  41.1753130 115.3275200  30.8015310  41.8272930
 114.7203150  31.5414210  41.8368230 115.8024550  30.8914670  41.0011130
 124.9007990  24.9666130  51.5029820 125.2688810  24.1461340  51.8309390
 124.0406190  25.0268020  51.9185470 128.2670020  23.9223070  42.3117380
 127.6383180  24.0268740  41.5975610 127.7721940  24.1419850  43.1011260
 122.7128160  35.6428660  39.7451360 122.8140140  35.4392650  38.8153340
 121.8129900  35.3886940  39.9499140 120.2354050  26.2009020  43.7275260
 119.5270200  26.6695360  44.1688870 120.5198530  25.5431030  44.3620450
 121.8609980  27.6205720  51.7267790 122.3595230  28.0951540  52.3919640
 122.0032930  26.6969240  51.9337820 124.2669480  22.9259680  45.1671050
 124.1437260  22.9445810  44.2180560 125.2154040  22.9738620  45.2869450
 121.3546270  38.1614980  44.4399030 121.6087770  38.1236370  43.5178400
 120.4058750  38.0348310  44.4327280 118.4389070  24.5094100  41.1025970
 119.2879600  24.9464250  41.0366160 118.0720340  24.8214360  41.9298030
 129.0676840  23.8373680  52.5696180 128.5650440  24.5779080  52.9089990
 129.8833500  24.2257680  52.2532970 127.3598850  29.0806860  46.0157540
 126.4188990  29.0957090  46.1905230 127.6742920  28.2942820  46.4617840
 117.3380490  30.7626460  39.5761500 118.1043760  30.6507820  40.1386930
 117.4155180  30.0664430  38.9238270 116.0327250  28.1951530  40.2594390
 116.1130840  27.2479040  40.3711790 116.9247000  28.5258410  40.3655050
 129.3624430  36.2515710  47.6911800 129.4871850  37.0746880  48.1635610
 130.2289990  36.0406440  47.3435950 116.8341960  38.3446920  47.3628930
 117.5704440  37.7962380  47.6337500 117.2182880  39.2102930  47.2234920
 113.7187440  34.4120490  43.2370440 112.7927220  34.6541630  43.2275850
 114.1843870  35.2394750  43.1155190 119.9444270  37.5177230  39.1854500
 120.7372880  37.8066060  38.7336290 119.4248620  37.0869400  38.5066980
 124.6764870  33.6372860  56.4989920 124.0703030  33.6604460  55.7585670
 124.3718980  32.9055900  57.0357170 126.1065240  37.3653150  55.1099330
 127.0586990  37.2811170  55.0599570 125.9593460  38.0294860  55.7833120
 128.9974440  36.7447360  40.6091240 128.7115950  36.3312500  39.7945420
 128.7993990  37.6735070  40.4891760 113.5598050  30.0166450  55.4950560
 114.0637070  29.4373730  56.0666790 112.8205470  30.3006680  56.0326930
 120.4621670  32.7380640  39.0496850 120.3572310  32.1232990  39.7758230
 120.2945890  32.2146530  38.2659860 120.6135990  31.4237440  55.0286080
 119.8481660  31.9922440  54.9440750 120.7951950  31.1313650  54.1354310
 123.7024400  31.8000670  39.6538840 123.1534500  32.2469970  40.2981580
 124.3243660  31.2949920  40.1776510 127.7559340  33.1542770  55.5861100
 128.4968810  33.4918530  55.0828560 126.9932020  33.3234830  55.0330870
 115.5921130  28.1596040  56.3900630 115.6326470  27.8609910  57.2985860
 116.4466630  28.5603650  56.2308150 119.3699520  30.7591590  41.5504140
 119.7915940  30.5931460  42.3935530 119.4950360  29.9491820  41.0559280
 117.5326940  26.7388140  54.3575120 117.0023400  26.2479090  53.7298460
 118.2015010  27.1672340  53.8233050 121.8827160  29.7829200  38.7981240
 122.4032820  29.0678220  38.4322390 122.5295560  30.4215070  39.0981750
 126.4305000  31.2057600  54.1216310 126.8446020  31.3602680  54.9706730
 125.4956000  31.3312820  54.2842090 126.9027170  28.5453760  56.1255460
 127.4847940  27.7906080  56.0375940 127.0788940  29.0761200  55.3486940
 118.0199240  23.7050510  54.4372410 117.9256110  23.0871260  53.7123280
 117.4396630  24.4316800  54.2102320 120.7860680  22.2623750  51.4699800
 120.3377980  22.2848010  50.6245350 120.1525880  21.8642770  52.0670100
 121.1920230  31.1578080  52.0912240 121.6108340  32.0010810  51.9188480
 120.2728860  31.2950120  51.8619020 123.5284130  28.8894260  53.4750080
 123.6480340  28.2935400  54.2144920 124.3878130  28.9263950  53.0551380
 125.8672030  29.4431450  52.0512590 125.3407250  29.9674070  51.4477730
 126.2103370  30.0758840  52.6822320 118.2658420  26.8324820  38.4962300
 118.0647480  25.9692180  38.8575640 118.0950470  26.7458180  37.5583900
 119.0427650  37.4631090  53.2069970 118.5048740  38.1877150  52.8878670
 119.2961610  36.9861430  52.4167310 120.2952900  25.4315610  54.7325900
 120.8852590  25.1231460  55.4203720 119.4773140  24.9595360  54.8885800
 125.1146330  25.0481420  54.9658920 124.4261850  24.3862960  54.9008910
 125.8352350  24.6019690  55.4107380 125.7446730  21.6433050  41.0249180
 126.0249020  20.8000950  41.3808600 124.9712460  21.8756160  41.5387930
 117.0641220  23.9325440  38.4840180 117.3667120  23.9392870  37.5759330
 117.8035810  23.5823300  38.9807840 121.8989860  38.6982300  53.4656620
 121.8248560  39.6017440  53.7728990 120.9968700  38.3794200  53.4378690
 120.2826150  22.8760060  39.4696380 119.9348150  22.1984050  38.8898830
 120.4838920  22.4149570  40.2839770 122.4475190  37.8640810  41.0882980
 123.3425980  38.2025780  41.1101740 122.4792820  37.1420220  40.4607260
 116.0871350  33.2367860  39.3169980 116.5246220  33.7797530  39.9727560
 116.5719080  32.4114810  39.3266320 113.3017150  36.0256890  46.7690240
 113.6320160  35.1577950  46.5368880 113.7308150  36.2315410  47.5995200
 117.8979070  34.3565900  44.4292210 117.5974610  34.2330870  45.3296120
 117.7916560  33.4974490  44.0207940 113.7907360  36.8927480  49.5071870
 113.3538350  37.0728280  50.3396020 114.3585040  37.6502100  49.3653590
 129.4269540  36.3944480  53.7949180 128.8271530  36.4537040  53.0513100
 129.5563440  35.4549460  53.9246030 130.6670990  34.1362300  39.1318890
 129.8363950  34.2038950  39.6026120 130.8442820  35.0266420  38.8285750
 130.1227450  30.8809780  41.6353090 130.8846360  31.4506430  41.7412780
 130.1381820  30.3136980  42.4061400 113.6231790  29.4047710  45.8660750
 112.9680630  29.1359350  45.2220450 114.4609740  29.2952190  45.4162730
 131.1287420  31.7359880  46.4795020 131.4996250  30.9527200  46.0730990
 131.7689350  32.4248980  46.3012320 128.1121180  33.1196460  51.8925340
 127.2981020  33.5493620  52.1551130 128.5195380  33.7314870  51.2794390
 130.1746620  31.1744150  38.7925610 130.4495460  32.0823030  38.6644830
 129.9857360  31.1106680  39.7287600 126.5722230  24.1989000  40.0879240
 126.9907110  24.0119980  39.2475900 126.2658290  23.3468050  40.3982170
 130.0711960  29.1113140  43.7855040 129.6955560  28.3441070  43.3536330
 129.3415080  29.4935840  44.2729970 129.4611580  28.2584660  53.4194560
 129.2297670  28.0297410  52.5192510 129.7216130  29.1784210  53.3739450
 114.2123720  26.7009370  54.3122510 113.3179770  26.6676130  54.6516220
 114.7521270  26.8996160  55.0773760 127.8999650  23.4841090  56.1974260
 128.7769830  23.4924490  56.5808260 127.9120490  22.7471930  55.5866610
 112.8369870  26.6146640  41.8086080 111.9333950  26.8776840  41.6337740
 113.3210490  26.8857810  41.0286040 129.3462920  27.3370630  47.0862280
 129.8700400  26.8433280  46.4552450 129.9322340  27.4720990  47.8309850
 129.5252640  27.4210500  50.6081830 128.5755350  27.3874040  50.7226820
 129.7065650  28.3310610  50.3731600 115.3797080  25.6712180  39.7180460
 116.0888780  25.2495400  39.2327740 114.6637020  25.7387410  39.0863810
 115.0271240  21.7251510  38.7583110 115.7499370  22.2660450  39.0764330
 115.2995760  21.4514930  37.8824650 128.8362890  26.5943980  43.0254690
 129.3322010  26.3614850  43.8103570 128.6378960  25.7555820  42.6092330
 114.7163430  20.9757700  48.6605730 115.3639620  20.4255080  48.2200890
 115.1365270  21.2300850  49.4821540 130.2650050  25.2304930  45.5592370
 130.1549330  25.0760970  46.4974640 131.0257640  24.7025870  45.3167780
 128.6115770  21.1699060  52.0175370 129.2487990  21.7833200  52.3834560
 128.7590660  21.2059720  51.0724600 131.1540320  23.0612850  38.7998510
 132.0789630  22.9294030  38.5916800 131.1316110  23.1405670  39.7534960
 131.2278810  23.8323510  41.4255220 130.4330310  23.7668630  41.9548130
 131.4322090  24.7674150  41.4140570 128.1697230  37.8715060  45.4193610
 128.7656300  37.5499630  44.7428030 128.4275380  37.3986880  46.2106880
 114.4695430  21.1313370  51.4031050 114.1210250  21.5877190  52.1689230
 114.1383130  20.2370500  51.4853480 119.7765830  35.8592560  51.1693960
 119.5357190  36.1267120  50.2824480 120.7168470  36.0298290  51.2244820
 121.9820250  22.3225250  54.9250470 121.9209140  22.9147080  55.6745880
 122.9220630  22.2151210  54.7800730 124.6194810  21.9795310  54.5642760
 125.2335220  22.2974600  53.9023840 125.1644370  21.4943900  55.1838620
 131.0369990  37.8786940  51.9704600 130.5428270  38.2755810  51.2531730
 130.4283280  37.2536150  52.3641880 115.1416070  20.6589570  54.6781820
 115.6899060  20.4777620  53.9147930 115.2071380  19.8683680  55.2138130
 115.9147830  37.2495220  52.6882020 115.3208150  37.1179920  53.4272060
 115.9071670  36.4133360  52.2224120 125.3602850  20.5427450  50.8912050
 124.4862690  20.8762560  50.6884980 125.2513600  20.0700630  51.7163920
 126.2674830  22.7498320  52.2753770 125.9388190  21.9350080  51.8955500
 127.2157130  22.7068130  52.1519460 128.7209440  38.5210360  49.2491340
 128.2612410  39.2726170  48.8749360 128.0921900  37.8016830  49.1906140
 119.1505160  36.8298600  48.4239470 119.6670180  36.2185960  47.8987730
 119.8002540  37.3327380  48.9150480 121.8900660  37.7207090  49.2508450
 122.1778470  37.4661390  48.3741460 122.4023880  37.1684450  49.8414020
 123.1077670  21.4597290  49.8304960 122.3249460  21.9342790  50.1101720
 122.8140600  20.5552120  49.7218140 127.6598740  22.1620390  47.8754050
 128.1006830  22.1065490  47.0275650 127.3906330  23.0778400  47.9464230
 129.5237310  21.7935630  45.8862870 129.4625710  20.8496850  45.7393890
 130.3029340  21.9015720  46.4316330 113.8290060  37.9327990  44.8486820
 113.6612100  37.2998670  45.5468710 112.9624570  38.1387390  44.4981010
 114.4518080  21.7644770  42.3518680 115.2097440  21.8773650  41.7782710
 113.9895250  22.6013970  42.3062110 120.9931890  23.8784040  45.3420990
 120.1806400  23.5040930  45.0016870 121.4973530  23.1229120  45.6442180
 125.4956870  20.5426490  46.5804060 126.0986240  21.1146700  47.0552580
 124.7549860  21.1065930  46.3577960 128.6391470  20.9448050  41.8544340
 128.8342100  21.8431500  42.1211770 127.8521340  20.7135130  42.3477290
 115.4352760  36.6261220  42.2936960 114.9100380  37.0069250  41.5898920
 115.3597340  37.2511990  43.0146670 116.8243230  22.2908820  40.8920650
 117.3535990  21.5038620  40.7628600 117.4571550  22.9700010  41.1256180
 119.0181070  22.0283960  43.9466040 118.3883810  21.3271270  44.1136170
 118.4786210  22.7888090  43.7299200 121.9573020  38.6423190  56.6176650
 122.8840330  38.4067460  56.6612610 121.9423450  39.4695190  56.1362680
 130.1918080  38.1848760  43.6150900 130.3670270  37.4986500  42.9711820
 129.4939650  38.7095810  43.2227570 119.1436630  21.3067940  56.3818530
 118.8620900  21.8101540  55.6179350 119.5256330  20.5089690  56.0160660
 118.0345730  38.5743600  41.1686210 118.7664550  38.2902880  40.6210100
 118.2939400  38.3356880  42.0585590 117.1960520  34.6908330  41.1732540
 116.5669400  35.1593430  41.7218370 117.3108350  33.8457550  41.6078730
 125.7452090  20.7221520  56.9599000 125.6317540  21.0416130  57.8550520
 126.5621830  21.1234030  56.6636280 128.5250580  37.8693050  56.4417690
 129.3175900  37.3742280  56.2343650 128.8183730  38.5483190  57.0493300
 124.6510240  28.7413990  27.3233740 124.5704290  27.8268600  27.0525450
 124.2374660  29.2381060  26.6173450 122.7828280  30.5193010  29.2043010
 122.0070380  30.0393450  29.4941580 123.4341210  29.8398660  29.0299170
 116.7994110  30.8312820  30.0818770 115.9678990  30.5761530  30.4815280
 117.4075090  30.9023590  30.8176690 126.8035710  34.9253200  27.9842140
 126.3417240  34.1540440  28.3129310 127.6161260  34.9519270  28.4894590
 116.7795370  34.8652910  30.2776790 117.0823410  33.9750650  30.0987010
 117.5238960  35.4223130  30.0499040 115.2086060  25.7914710  23.8661160
 114.3202760  26.1330680  23.7641040 115.4927250  25.5915030  22.9741990
 113.1719070  28.3920360  29.7500860 113.7435180  27.6242560  29.7504500
 113.1720610  28.6909120  28.8407470 123.0299020  37.2111210  27.6046130
 122.4110460  37.6668710  27.0340570 123.8850800  37.3662670  27.2035830
 122.2237270  33.1950200  29.2113170 122.1545550  32.2540140  29.0502300
 122.9857130  33.2851610  29.7835740 114.4143940  23.8004720  31.5369790
 114.2346780  22.9030470  31.8172550 114.0124020  24.3476590  32.2116740
 123.2542440  26.0020580  29.4382100 123.6307260  25.1292460  29.3255770
 123.1561950  26.3379280  28.5472540 117.3847450  24.3746210  24.8999540
 117.4914200  25.2749940  25.2068300 116.4739810  24.3264180  24.6094190
 127.0366560  23.4971020  26.3710440 127.8576180  23.0067590  26.4135920
 127.0700640  24.0868680  27.1242280 115.0330610  26.2965220  30.1452130
 115.7140720  26.5603590  30.7639530 114.7178660  25.4566090  30.4790140
 119.2255180  27.3432580  29.2324720 119.7333400  27.8413550  29.8729740
 119.7568420  26.5667780  29.0564080 131.3266110  25.5137770  32.9354070
 130.6218280  25.9019480  32.4169180 131.5924030  26.2088060  33.5375000
 117.5091280  21.9831140  33.4988140 117.5109720  22.5003530  32.6934040
 116.6795590  21.5061320  33.4758070 123.8962370  32.0950450  24.9978040
 123.2779640  32.5599900  24.4340760 124.4085620  32.7877930  25.4147550
 118.7594130  31.6226320  31.6761640 118.4263510  32.2495240  32.3182710
 118.9360810  32.1488200  30.8963310 127.2728040  25.4371400  29.1437980
 126.5683610  25.7256290  29.7241090 127.6340200  26.2471510  28.7837540
 117.1906610  23.6941100  31.5058590 117.5323420  24.5383150  31.2112460
 116.2522420  23.8424840  31.6223930 117.9713230  33.5907120  33.4910820
 118.5887230  34.2658200  33.2095270 117.1106350  33.9995100  33.3998320
 113.2645570  32.7806980  22.3717670 112.8873550  33.2694080  21.6402570
 113.5218640  33.4532260  23.0024200 128.8890820  35.0546530  31.4065460
 128.2054340  35.7245640  31.3982130 129.4285110  35.2527180  30.6410320
 130.3414960  24.8826190  29.5347190 129.3939870  24.9165170  29.6662620
 130.6664950  25.6965140  29.9196550 120.8734500  21.1823370  27.8303180
 121.1809480  20.6270260  27.1138680 119.9435200  21.3167830  27.6476170
 126.4249560  36.8990660  30.1210640 126.4376720  36.4952950  29.2532900
 125.8724780  37.6737950  30.0172070 127.7194980  33.6206880  25.2100810
 127.6091310  32.6781210  25.3350230 127.7163230  33.9822520  26.0963570
 125.8235000  31.8020500  31.4493250 126.2403790  31.5880610  30.6146710
 126.5474820  32.0593290  32.0201870 123.2615260  29.2472200  24.5663300
 122.3344540  29.1809580  24.7951770 123.4140080  30.1852330  24.4518540
 123.2484340  25.5189200  21.5630460 122.3088010  25.6803160  21.6482920
 123.5667600  26.2374880  21.0166450 129.7697100  30.2007720  31.5409490
 128.9415730  30.2700810  31.0659620 130.3647580  30.7862030  31.0725320
 127.2912550  30.8092500  25.0698550 126.6724970  30.4712050  24.4224850
 127.2737000  30.1652260  25.7777740 126.7339110  26.9877040  32.4864360
 126.3210290  27.8130750  32.7404350 126.0015060  26.4022080  32.2940720
 118.8671900  29.7736940  27.3483030 118.4628900  29.0614190  26.8528930
 118.9535020  29.4290180  28.2371070 119.3353600  33.4604500  29.5122240
 119.0381890  32.8549970  28.8330020 120.2853420  33.4981810  29.4011600
 117.5800520  26.5480150  31.1282070 118.1315110  26.6575490  30.3535320
 118.0944030  26.9217750  31.8437300 127.4239210  37.0336370  33.1745340
 126.9469770  37.8408560  32.9817950 126.7401000  36.3814700  33.3271550
 118.4272030  33.1986190  36.1630040 117.5300560  33.4226160  36.4103440
 118.4524900  33.3221130  35.2141440 125.4677250  30.0479310  22.0771300
 125.9070530  29.2101740  21.9309120 126.1805670  30.6808710  22.1635440
 117.2543250  30.0699510  34.7387410 117.1151020  30.9422310  35.1074810
 116.3724610  29.7272320  34.5935350 123.5772630  34.9875380  26.0452540
 124.0168540  35.7299710  25.6307930 123.5159520  35.2301950  26.9691500
 119.0523600  36.0121210  36.9472560 119.0239030  36.4164160  36.0800990
 118.8888570  35.0831570  36.7844160 129.0494390  21.3022120  20.3912340
 128.7367050  21.3948950  21.2911410 129.8106860  21.8803150  20.3409770
 115.5676530  28.6681920  24.8489680 115.4474130  29.3944010  24.2370950
 115.2577420  27.8984830  24.3717590 131.0038420  36.7948310  38.2436730
 131.4798140  37.2731200  38.9225810 131.6245580  36.7265800  37.5182230
 113.2061900  31.8397060  30.6558320 113.2842320  31.9745830  29.7114040
 113.8203580  31.1312950  30.8486440 114.4509530  33.5397250  27.0664500
 114.0437610  33.6811840  26.2118100 115.3422540  33.2557410  26.8635710
 130.4071670  33.9861160  35.4036740 130.5334730  33.7473040  34.4853920
 130.4493050  33.1545700  35.8758820 124.2688410  37.6889160  33.9731550
 124.7833080  37.5997170  34.7753980 123.4257490  38.0348860  34.2659460
 126.2442810  37.9744500  23.4015550 126.0843950  37.6847440  24.2997380
 126.0789520  37.1984630  22.8660780 118.7231190  37.7543030  25.1787170
 118.5473670  36.8378570  24.9654970 117.8686930  38.1130320  25.4184970
 125.9468940  35.4832060  21.9613550 125.2534100  35.4809350  21.3015830
 126.6891800  35.0591380  21.5307720 125.5118870  37.1094770  26.0362040
 125.9675820  36.3284150  26.3500660 125.8511390  37.8201590  26.5803220
 130.2595680  26.0393620  36.3686480 129.6439950  26.5473290  35.8401940
 129.9392100  25.1391950  36.3112420 113.2621420  32.8811230  33.1952780
 113.4252460  32.4116590  32.3772150 113.7273870  32.3734790  33.8601620
 118.0340190  22.0116990  28.2313350 117.5908340  22.7926530  27.8997870
 118.5925180  22.3346880  28.9384290 122.3210000  24.8785510  33.8348670
 121.8589370  25.0868530  34.6468610 121.9188110  24.0644860  33.5319340
 127.3214510  26.0994460  34.9645330 126.4708100  25.8000210  35.2854400
 127.1616300  26.3436470  34.0529150 124.4164220  27.5996210  37.0644120
 124.7417630  26.7659960  36.7246350 125.2044550  28.1224730  37.2122450
 121.1499010  21.6327690  23.1119180 120.5253190  21.6287560  23.8372490
 121.0629130  20.7658650  22.7155150 120.0716090  22.5564320  30.0902950
 120.3688420  23.4627150  30.0094970 120.6201650  22.0683100  29.4762520
 117.8254410  27.1350560  25.9594600 117.5995330  26.9187730  26.8641220
 117.0446940  27.5679020  25.6140570 125.0552170  27.1413930  24.5585250
 124.4561060  27.8649730  24.3748870 125.6031780  27.0790710  23.7761700
 120.2653620  28.0336140  36.6254870 120.1697220  27.0930870  36.4755270
 121.1085600  28.2551210  36.2302940 123.6617040  25.7777470  26.5888530
 124.0546610  26.0949670  25.7757220 124.0233890  24.8989350  26.7033050
 115.3964160  24.4449810  34.7788650 115.0027550  25.2925020  34.9861430
 114.7082560  23.8076180  34.9697290 121.9709210  24.5284780  37.8485390
 121.2807530  24.3356980  38.4831480 122.7141510  24.8119420  38.3809690
 112.6981210  22.3678270  28.8118730 112.4094260  22.9381130  29.5243710
 113.4426970  21.8882720  29.1749960 112.8851440  26.3098390  20.0221450
 112.8026110  27.2529150  20.1636440 112.5334500  26.1673300  19.1433800
 124.2472180  28.3683220  30.6839310 123.5153300  28.8770030  31.0329410
 123.8496520  27.5513200  30.3828090 120.6849570  25.0437420  29.0891800
 120.6885630  24.6027370  28.2396340 121.5800690  25.3654750  29.1963620
 116.5351950  24.9263910  28.0486010 116.1952000  25.4039140  28.8053060
 115.7729270  24.4729030  27.6887110 120.7469720  26.0449500  22.0798560
 120.8682540  26.0035980  23.0284380 120.3618230  26.9073650  21.9245290
 124.7098090  23.8216900  30.0962250 124.7270830  24.2725550  30.9404100
 124.4613670  22.9222540  30.3095690 119.7591220  28.3550640  21.4781860
 119.1908120  27.9068890  20.8517770 120.4680220  28.7143420  20.9447010
 128.1368840  21.2349080  35.9348630 128.4614610  20.5038740  36.4606610
 128.1725350  20.9162720  35.0329620 114.8360400  32.2562660  35.3548590
 114.4515190  31.6156330  35.9531550 115.1472590  32.9598780  35.9243320
 120.9857540  29.1039200  30.8357210 121.3527670  28.6297770  31.5818550
 120.7962600  29.9780770  31.1765550 113.8498030  23.8482890  26.9650680
 113.5644950  23.4838560  27.8029300 113.7876890  23.1163350  26.3513820
 118.7756910  28.1447840  33.1541420 118.4713980  29.0239820  33.3791780
 119.7303370  28.2047630  33.1898860 117.3038700  32.3508830  23.7508270
 116.5300960  31.8106450  23.5906990 118.0333330  31.8315440  23.4126030
 128.0626680  31.3474190  29.5434660 128.7825800  31.8429480  29.1530770
 127.8608500  30.6692080  28.8988530 123.5236620  22.7412150  23.6864050
 122.7101230  22.2425320  23.6109360 123.3298570  23.5810400  23.2700400
 123.4445480  31.4183250  35.4303660 123.3782790  30.4978920  35.1761250
 122.8150620  31.5158690  36.1448300 126.2385010  27.1131800  21.9826210
 127.1264630  27.4249030  21.8077550 126.2090100  26.2404050  21.5906790
 117.3476100  32.0189210  27.3887080 117.8654770  31.2157470  27.3343970
 116.8960120  31.9568350  28.2303910 122.2345600  33.2855490  22.6614380
 122.5761300  34.0297720  22.1657700 121.4058310  33.5986610  23.0239210
 114.8320640  28.9850580  34.3012780 114.4735580  29.6504430  34.8886120
 114.5375200  28.1534130  34.6725400 118.0333760  29.4434820  37.1852330
 117.7333900  29.5892000  36.2880150 118.8045000  28.8840110  37.0925720
 123.3762210  34.2403820  35.1807460 123.3906750  33.3084780  34.9626370
 122.6687310  34.3263580  35.8197230 128.5099280  28.4243640  21.4506070
 128.4263000  28.8557860  20.6002510 129.2293470  28.8841990  21.8832890
 129.5873420  30.8811160  34.5276040 128.8621610  31.4739940  34.3305430
 130.1148880  30.8734700  33.7289410 129.5386530  35.2785900  24.1788200
 128.8962690  34.6241520  24.4531920 129.1517190  35.6840990  23.4028870
 125.1173010  32.6071330  28.0259890 125.4696830  32.0099460  27.3661260
 124.2335340  32.2815560  28.1968140 121.2036290  33.3669020  25.4330300
 121.8907420  33.9138230  25.8137890 120.4168710  33.9109750  25.4679910
 113.3428690  28.9841840  20.9247380 114.2123540  29.2666640  21.2083300
 112.8519010  29.7977710  20.8096190 120.5063500  30.3715050  25.0455660
 120.9626280  31.1820300  25.2715850 120.1551710  30.0538190  25.8774150
 122.8096110  35.8821390  32.2747960 123.4538330  36.0880770  32.9521380
 123.1725550  35.1209790  31.8218810 116.4075280  20.7152700  25.5178180
 116.2789910  20.7070600  26.4663100 115.5837300  21.0535790  25.1669190
 124.0828190  33.8853740  30.9925410 124.7250420  33.1846900  31.1057580
 124.6077540  34.6652180  30.8122300 127.9283910  34.1702360  20.7164550
 127.7021490  33.4532800  21.3089190 127.5380110  33.9214800  19.8786300
 125.8565810  34.6848640  34.1961470 126.1922050  35.2715330  34.8739390
 124.9366150  34.5541350  34.4259260 113.7099940  38.1969220  21.4909010
 114.0697580  38.7958560  20.8366280 113.5692280  38.7429110  22.2644040
 113.4069210  22.4743820  34.9784880 112.6927730  22.6740740  35.5837490
 113.8264250  21.6983390  35.3499680 127.5100160  32.0874300  22.3778710
 127.2221860  32.5486990  23.1656590 128.3052330  31.6272070  22.6462930
 113.6941800  36.4624080  35.9651410 113.8032920  35.5218820  35.8246800
 113.0422360  36.7278830  35.3165140 121.6854390  34.7339970  37.3649530
 121.3651260  34.0149210  37.9095220 121.0112750  35.4095040  37.4385590
 119.7268560  35.5800420  22.3082680 119.7178660  36.3130110  21.6927190
 118.8066920  35.3332000  22.4009640 115.3275200  30.8015310  23.0529440
 114.7203150  31.5414210  23.0624740 115.8024550  30.8914670  22.2267640
 124.9007990  24.9666130  32.7286330 125.2688810  24.1461340  33.0565900
 124.0406190  25.0268020  33.1441980 128.2670020  23.9223070  23.5373890
 127.6383180  24.0268740  22.8232120 127.7721940  24.1419850  24.3267770
 122.7128160  35.6428660  20.9707870 122.8140140  35.4392650  20.0409850
 121.8129900  35.3886940  21.1755650 120.2354050  26.2009020  24.9531770
 119.5270200  26.6695360  25.3945380 120.5198530  25.5431030  25.5876960
 121.8609980  27.6205720  32.9524300 122.3595230  28.0951540  33.6176150
 122.0032930  26.6969240  33.1594330 124.2669480  22.9259680  26.3927560
 124.1437260  22.9445810  25.4437070 125.2154040  22.9738620  26.5125960
 121.3546270  38.1614980  25.6655540 121.6087770  38.1236370  24.7434910
 120.4058750  38.0348310  25.6583790 118.4389070  24.5094100  22.3282480
 119.2879600  24.9464250  22.2622670 118.0720340  24.8214360  23.1554540
 129.0676840  23.8373680  33.7952690 128.5650440  24.5779080  34.1346500
 129.8833500  24.2257680  33.4789480 127.3598850  29.0806860  27.2414050
 126.4188990  29.0957090  27.4161740 127.6742920  28.2942820  27.6874350
 117.3380490  30.7626460  20.8018010 118.1043760  30.6507820  21.3643440
 117.4155180  30.0664430  20.1494780 116.0327250  28.1951530  21.4850900
 116.1130840  27.2479040  21.5968300 116.9247000  28.5258410  21.5911560
 129.3624430  36.2515710  28.9168310 129.4871850  37.0746880  29.3892120
 130.2289990  36.0406440  28.5692460 116.8341960  38.3446920  28.5885440
 117.5704440  37.7962380  28.8594010 117.2182880  39.2102930  28.4491430
 113.7187440  34.4120490  24.4626950 112.7927220  34.6541630  24.4532360
 114.1843870  35.2394750  24.3411700 115.8400240  37.5292990  37.7771020
 116.6412970  37.8505040  38.1906420 115.3252060  37.1688570  38.4990930
 119.9444270  37.5177230  20.4111010 120.7372880  37.8066060  19.9592800
 119.4248620  37.0869400  19.7323490 124.6764870  33.6372860  37.7246430
 124.0703030  33.6604460  36.9842180 124.3718980  32.9055900  38.2613680
 126.1065240  37.3653150  36.3355840 127.0586990  37.2811170  36.2856080
 125.9593460  38.0294860  37.0089630 128.9974440  36.7447360  21.8347750
 128.7115950  36.3312500  21.0201930 128.7993990  37.6735070  21.7148270
 113.5598050  30.0166450  36.7207070 114.0637070  29.4373730  37.2923300
 112.8205470  30.3006680  37.2583440 120.4621670  32.7380640  20.2753360
 120.3572310  32.1232990  21.0014740 120.2945890  32.2146530  19.4916370
 120.6135990  31.4237440  36.2542590 119.8481660  31.9922440  36.1697260
 120.7951950  31.1313650  35.3610820 123.7024400  31.8000670  20.8795350
 123.1534500  32.2469970  21.5238090 124.3243660  31.2949920  21.4033020
 127.7559340  33.1542770  36.8117610 128.4968810  33.4918530  36.3085070
 126.9932020  33.3234830  36.2587380 115.5921130  28.1596040  37.6157140
 115.6326470  27.8609910  38.5242370 116.4466630  28.5603650  37.4564660
 119.3699520  30.7591590  22.7760650 119.7915940  30.5931460  23.6192040
 119.4950360  29.9491820  22.2815790 117.5326940  26.7388140  35.5831630
 117.0023400  26.2479090  34.9554970 118.2015010  27.1672340  35.0489560
 121.8827160  29.7829200  20.0237750 122.4032820  29.0678220  19.6578900
 122.5295560  30.4215070  20.3238260 126.4305000  31.2057600  35.3472820
 126.8446020  31.3602680  36.1963240 125.4956000  31.3312820  35.5098600
 126.9027170  28.5453760  37.3511970 127.4847940  27.7906080  37.2632450
 127.0788940  29.0761200  36.5743450 118.0199240  23.7050510  35.6628920
 117.9256110  23.0871260  34.9379790 117.4396630  24.4316800  35.4358830
 120.7860680  22.2623750  32.6956310 120.3377980  22.2848010  31.8501860
 120.1525880  21.8642770  33.2926610 121.1920230  31.1578080  33.3168750
 121.6108340  32.0010810  33.1444990 120.2728860  31.2950120  33.0875530
 123.5284130  28.8894260  34.7006590 123.6480340  28.2935400  35.4401430
 124.3878130  28.9263950  34.2807890 125.8672030  29.4431450  33.2769100
 125.3407250  29.9674070  32.6734240 126.2103370  30.0758840  33.9078830
 118.2658420  26.8324820  19.7218810 118.0647480  25.9692180  20.0832150
 118.0950470  26.7458180  18.7840410 119.0427650  37.4631090  34.4326480
 118.5048740  38.1877150  34.1135180 119.2961610  36.9861430  33.6423820
 120.2952900  25.4315610  35.9582410 120.8852590  25.1231460  36.6460230
 119.4773140  24.9595360  36.1142310 125.1146330  25.0481420  36.1915430
 124.4261850  24.3862960  36.1265420 125.8352350  24.6019690  36.6363890
 125.7446730  21.6433050  22.2505690 126.0249020  20.8000950  22.6065110
 124.9712460  21.8756160  22.7644440 117.0641220  23.9325440  19.7096690
 117.3667120  23.9392870  18.8015840 117.8035810  23.5823300  20.2064350
 121.8989860  38.6982300  34.6913130 121.8248560  39.6017440  34.9985500
 120.9968700  38.3794200  34.6635200 120.2826150  22.8760060  20.6952890
 119.9348150  22.1984050  20.1155340 120.4838920  22.4149570  21.5096280
 122.4475190  37.8640810  22.3139490 123.3425980  38.2025780  22.3358250
 122.4792820  37.1420220  21.6863770 116.0871350  33.2367860  20.5426490
 116.5246220  33.7797530  21.1984070 116.5719080  32.4114810  20.5522830
 113.3017150  36.0256890  27.9946750 113.6320160  35.1577950  27.7625390
 113.7308150  36.2315410  28.8251710 117.8979070  34.3565900  25.6548720
 117.5974610  34.2330870  26.5552630 117.7916560  33.4974490  25.2464450
 113.7907360  36.8927480  30.7328380 113.3538350  37.0728280  31.5652530
 114.3585040  37.6502100  30.5910100 129.4269540  36.3944480  35.0205690
 128.8271530  36.4537040  34.2769610 129.5563440  35.4549460  35.1502540
 130.6670990  34.1362300  20.3575400 129.8363950  34.2038950  20.8282630
 130.8442820  35.0266420  20.0542260 130.1227450  30.8809780  22.8609600
 130.8846360  31.4506430  22.9669290 130.1381820  30.3136980  23.6317910
 113.6231790  29.4047710  27.0917260 112.9680630  29.1359350  26.4476960
 114.4609740  29.2952190  26.6419240 131.1287420  31.7359880  27.7051530
 131.4996250  30.9527200  27.2987500 131.7689350  32.4248980  27.5268830
 128.1121180  33.1196460  33.1181850 127.2981020  33.5493620  33.3807640
 128.5195380  33.7314870  32.5050900 130.1746620  31.1744150  20.0182120
 130.4495460  32.0823030  19.8901340 129.9857360  31.1106680  20.9544110
 126.5722230  24.1989000  21.3135750 126.9907110  24.0119980  20.4732410
 126.2658290  23.3468050  21.6238680 130.0711960  29.1113140  25.0111550
 129.6955560  28.3441070  24.5792840 129.3415080  29.4935840  25.4986480
 114.6607720  29.7900280  31.6320600 115.0280760  29.7027680  32.5116620
 114.0918540  29.0266830  31.5327460 129.4611580  28.2584660  34.6451070
 129.2297670  28.0297410  33.7449020 129.7216130  29.1784210  34.5995960
 114.2123720  26.7009370  35.5379020 113.3179770  26.6676130  35.8772730
 114.7521270  26.8996160  36.3030270 127.8999650  23.4841090  37.4230770
 128.7769830  23.4924490  37.8064770 127.9120490  22.7471930  36.8123120
 112.8369870  26.6146640  23.0342590 111.9333950  26.8776840  22.8594250
 113.3210490  26.8857810  22.2542550 129.3462920  27.3370630  28.3118790
 129.8700400  26.8433280  27.6808960 129.9322340  27.4720990  29.0566360
 129.5252640  27.4210500  31.8338340 128.5755350  27.3874040  31.9483330
 129.7065650  28.3310610  31.5988110 115.3797080  25.6712180  20.9436970
 116.0888780  25.2495400  20.4584250 114.6637020  25.7387410  20.3120320
 115.0271240  21.7251510  19.9839620 115.7499370  22.2660450  20.3020840
 115.2995760  21.4514930  19.1081160 128.8362890  26.5943980  24.2511200
 129.3322010  26.3614850  25.0360080 128.6378960  25.7555820  23.8348840
 114.7163430  20.9757700  29.8862240 115.3639620  20.4255080  29.4457400
 115.1365270  21.2300850  30.7078050 130.2650050  25.2304930  26.7848880
 130.1549330  25.0760970  27.7231150 131.0257640  24.7025870  26.5424290
 128.6115770  21.1699060  33.2431880 129.2487990  21.7833200  33.6091070
 128.7590660  21.2059720  32.2981110 131.1540320  23.0612850  20.0255020
 132.0789630  22.9294030  19.8173310 131.1316110  23.1405670  20.9791470
 131.2278810  23.8323510  22.6511730 130.4330310  23.7668630  23.1804640
 131.4322090  24.7674150  22.6397080 128.1697230  37.8715060  26.6450120
 128.7656300  37.5499630  25.9684540 128.4275380  37.3986880  27.4363390
 114.4695430  21.1313370  32.6287560 114.1210250  21.5877190  33.3945740
 114.1383130  20.2370500  32.7109990 116.0759800  34.3032970  36.7940750
 116.0329430  33.9325880  37.6755210 116.2070810  35.2410540  36.9342570
 119.7765830  35.8592560  32.3950470 119.5357190  36.1267120  31.5080990
 120.7168470  36.0298290  32.4501330 121.9820250  22.3225250  36.1506980
 121.9209140  22.9147080  36.9002390 122.9220630  22.2151210  36.0057240
 124.6194810  21.9795310  35.7899270 125.2335220  22.2974600  35.1280350
 125.1644370  21.4943900  36.4095130 131.0369990  37.8786940  33.1961110
 130.5428270  38.2755810  32.4788240 130.4283280  37.2536150  33.5898390
 115.1416070  20.6589570  35.9038330 115.6899060  20.4777620  35.1404440
 115.2071380  19.8683680  36.4394640 115.9147830  37.2495220  33.9138530
 115.3208150  37.1179920  34.6528570 115.9071670  36.4133360  33.4480630
 125.3602850  20.5427450  32.1168560 124.4862690  20.8762560  31.9141490
 125.2513600  20.0700630  32.9420430 126.2674830  22.7498320  33.5010280
 125.9388190  21.9350080  33.1212010 127.2157130  22.7068130  33.3775970
 128.7209440  38.5210360  30.4747850 128.2612410  39.2726170  30.1005870
 128.0921900  37.8016830  30.4162650 115.5460060  34.6153600  32.8646570
 114.8194120  33.9958890  32.7972520 115.6069210  35.0094210  31.9944650
 119.1505160  36.8298600  29.6495980 119.6670180  36.2185960  29.1244240
 119.8002540  37.3327380  30.1406990 121.8900660  37.7207090  30.4764960
 122.1778470  37.4661390  29.5997970 122.4023880  37.1684450  31.0670530
 123.1077670  21.4597290  31.0561470 122.3249460  21.9342790  31.3358230
 122.8140600  20.5552120  30.9474650 127.6598740  22.1620390  29.1010560
 128.1006830  22.1065490  28.2532160 127.3906330  23.0778400  29.1720740
 129.5237310  21.7935630  27.1119380 129.4625710  20.8496850  26.9650400
 130.3029340  21.9015720  27.6572840 113.8290060  37.9327990  26.0743330
 113.6612100  37.2998670  26.7725220 112.9624570  38.1387390  25.7237520
 114.4518080  21.7644770  23.5775190 115.2097440  21.8773650  23.0039220
 113.9895250  22.6013970  23.5318620 120.9931890  23.8784040  26.5677500
 120.1806400  23.5040930  26.2273380 121.4973530  23.1229120  26.8698690
 125.4956870  20.5426490  27.8060570 126.0986240  21.1146700  28.2809090
 124.7549860  21.1065930  27.5834470 128.6391470  20.9448050  23.0800850
 128.8342100  21.8431500  23.3468280 127.8521340  20.7135130  23.5733800
 115.4352760  36.6261220  23.5193470 114.9100380  37.0069250  22.8155430
 115.3597340  37.2511990  24.2403180 116.8243230  22.2908820  22.1177160
 117.3535990  21.5038620  21.9885110 117.4571550  22.9700010  22.3512690
 119.0181070  22.0283960  25.1722550 118.3883810  21.3271270  25.3392680
 118.4786210  22.7888090  24.9555710 121.9573020  38.6423190  37.8433160
 122.8840330  38.4067460  37.8869120 121.9423450  39.4695190  37.3619190
 130.1918080  38.1848760  24.8407410 130.3670270  37.4986500  24.1968330
 129.4939650  38.7095810  24.4484080 119.1436630  21.3067940  37.6075040
 118.8620900  21.8101540  36.8435860 119.5256330  20.5089690  37.2417170
 118.0345730  38.5743600  22.3942720 118.7664550  38.2902880  21.8466610
 118.2939400  38.3356880  23.2842100 117.1960520  34.6908330  22.3989050
 116.5669400  35.1593430  22.9474880 117.3108350  33.8457550  22.8335240
 125.7452090  20.7221520  38.1855510 125.6317540  21.0416130  39.0807030
 126.5621830  21.1234030  37.8892790 128.5250580  37.8693050  37.6674200
 129.3175900  37.3742280  37.4600160 128.8183730  38.5483190  38.2749810
 124.6510240  28.7413990   8.5490250 124.5704290  27.8268600   8.2781960
 124.2374660  29.2381060   7.8429960 122.7828280  30.5193010  10.4299520
 122.0070380  30.0393450  10.7198090 123.4341210  29.8398660  10.2555680
 116.7994110  30.8312820  11.3075280 115.9678990  30.5761530  11.7071790
 117.4075090  30.9023590  12.0433200 126.8035710  34.9253200   9.2098650
 126.3417240  34.1540440   9.5385820 127.6161260  34.9519270   9.7151100
 116.7795370  34.8652910  11.5033300 117.0823410  33.9750650  11.3243520
 117.5238960  35.4223130  11.2755550 115.2086060  25.7914710   5.0917670
 114.3202760  26.1330680   4.9897550 115.4927250  25.5915030   4.1998500
 113.1719070  28.3920360  10.9757370 113.7435180  27.6242560  10.9761010
 113.1720610  28.6909120  10.0663980 123.0299020  37.2111210   8.8302640
 122.4110460  37.6668710   8.2597080 123.8850800  37.3662670   8.4292340
 122.2237270  33.1950200  10.4369680 122.1545550  32.2540140  10.2758810
 122.9857130  33.2851610  11.0092250 114.4143940  23.8004720  12.7626300
 114.2346780  22.9030470  13.0429060 114.0124020  24.3476590  13.4373250
 123.2542440  26.0020580  10.6638610 123.6307260  25.1292460  10.5512280
 123.1561950  26.3379280   9.7729050 117.3847450  24.3746210   6.1256050
 117.4914200  25.2749940   6.4324810 116.4739810  24.3264180   5.8350700
 127.0366560  23.4971020   7.5966950 127.8576180  23.0067590   7.6392430
 127.0700640  24.0868680   8.3498790 115.0330610  26.2965220  11.3708640
 115.7140720  26.5603590  11.9896040 114.7178660  25.4566090  11.7046650
 119.2255180  27.3432580  10.4581230 119.7333400  27.8413550  11.0986250
 119.7568420  26.5667780  10.2820590 131.3266110  25.5137770  14.1610580
 130.6218280  25.9019480  13.6425690 131.5924030  26.2088060  14.7631510
 117.5091280  21.9831140  14.7244650 117.5109720  22.5003530  13.9190550
 116.6795590  21.5061320  14.7014580 123.8962370  32.0950450   6.2234550
 123.2779640  32.5599900   5.6597270 124.4085620  32.7877930   6.6404060
 118.7594130  31.6226320  12.9018150 118.4263510  32.2495240  13.5439220
 118.9360810  32.1488200  12.1219820 127.2728040  25.4371400  10.3694490
 126.5683610  25.7256290  10.9497600 127.6340200  26.2471510  10.0094050
 117.1906610  23.6941100  12.7315100 117.5323420  24.5383150  12.4368970
 116.2522420  23.8424840  12.8480440 117.9713230  33.5907120  14.7167330
 118.5887230  34.2658200  14.4351780 117.1106350  33.9995100  14.6254830
 113.2645570  32.7806980   3.5974180 112.8873550  33.2694080   2.8659080
 113.5218640  33.4532260   4.2280710 128.8890820  35.0546530  12.6321970
 128.2054340  35.7245640  12.6238640 129.4285110  35.2527180  11.8666830
 130.3414960  24.8826190  10.7603700 129.3939870  24.9165170  10.8919130
 130.6664950  25.6965140  11.1453060 120.8734500  21.1823370   9.0559690
 121.1809480  20.6270260   8.3395190 119.9435200  21.3167830   8.8732680
 126.4249560  36.8990660  11.3467150 126.4376720  36.4952950  10.4789410
 125.8724780  37.6737950  11.2428580 127.7194980  33.6206880   6.4357320
 127.6091310  32.6781210   6.5606740 127.7163230  33.9822520   7.3220080
 125.8235000  31.8020500  12.6749760 126.2403790  31.5880610  11.8403220
 126.5474820  32.0593290  13.2458380 123.2615260  29.2472200   5.7919810
 122.3344540  29.1809580   6.0208280 123.4140080  30.1852330   5.6775050
 123.2484340  25.5189200   2.7886970 122.3088010  25.6803160   2.8739430
 123.5667600  26.2374880   2.2422960 129.7697100  30.2007720  12.7666000
 128.9415730  30.2700810  12.2916130 130.3647580  30.7862030  12.2981830
 127.2912550  30.8092500   6.2955060 126.6724970  30.4712050   5.6481360
 127.2737000  30.1652260   7.0034250 126.7339110  26.9877040  13.7120870
 126.3210290  27.8130750  13.9660860 126.0015060  26.4022080  13.5197230
 118.8671900  29.7736940   8.5739540 118.4628900  29.0614190   8.0785440
 118.9535020  29.4290180   9.4627580 119.3353600  33.4604500  10.7378750
 119.0381890  32.8549970  10.0586530 120.2853420  33.4981810  10.6268110
 117.5800520  26.5480150  12.3538580 118.1315110  26.6575490  11.5791830
 118.0944030  26.9217750  13.0693810 127.4239210  37.0336370  14.4001850
 126.9469770  37.8408560  14.2074460 126.7401000  36.3814700  14.5528060
 118.4272030  33.1986190  17.3886550 117.5300560  33.4226160  17.6359950
 118.4524900  33.3221130  16.4397950 125.4677250  30.0479310   3.3027810
 125.9070530  29.2101740   3.1565630 126.1805670  30.6808710   3.3891950
 117.2543250  30.0699510  15.9643920 117.1151020  30.9422310  16.3331320
 116.3724610  29.7272320  15.8191860 123.5772630  34.9875380   7.2709050
 124.0168540  35.7299710   6.8564440 123.5159520  35.2301950   8.1948010
 119.0523600  36.0121210  18.1729070 119.0239030  36.4164160  17.3057500
 118.8888570  35.0831570  18.0100670 115.5676530  28.6681920   6.0746190
 115.4474130  29.3944010   5.4627460 115.2577420  27.8984830   5.5974100
 131.0038420  36.7948310  19.4693240 131.4798140  37.2731200  20.1482320
 131.6245580  36.7265800  18.7438740 113.2061900  31.8397060  11.8814830
 113.2842320  31.9745830  10.9370550 113.8203580  31.1312950  12.0742950
 114.4509530  33.5397250   8.2921010 114.0437610  33.6811840   7.4374610
 115.3422540  33.2557410   8.0892220 130.4071670  33.9861160  16.6293250
 130.5334730  33.7473040  15.7110430 130.4493050  33.1545700  17.1015330
 124.2688410  37.6889160  15.1988060 124.7833080  37.5997170  16.0010490
 123.4257490  38.0348860  15.4915970 126.2442810  37.9744500   4.6272060
 126.0843950  37.6847440   5.5253890 126.0789520  37.1984630   4.0917290
 118.7231190  37.7543030   6.4043680 118.5473670  36.8378570   6.1911480
 117.8686930  38.1130320   6.6441480 125.9468940  35.4832060   3.1870060
 125.2534100  35.4809350   2.5272340 126.6891800  35.0591380   2.7564230
 125.5118870  37.1094770   7.2618550 125.9675820  36.3284150   7.5757170
 125.8511390  37.8201590   7.8059730 130.2595680  26.0393620  17.5942990
 129.6439950  26.5473290  17.0658450 129.9392100  25.1391950  17.5368930
 113.2621420  32.8811230  14.4209290 113.4252460  32.4116590  13.6028660
 113.7273870  32.3734790  15.0858130 118.0340190  22.0116990   9.4569860
 117.5908340  22.7926530   9.1254380 118.5925180  22.3346880  10.1640800
 122.3210000  24.8785510  15.0605180 121.8589370  25.0868530  15.8725120
 121.9188110  24.0644860  14.7575850 127.3214510  26.0994460  16.1901840
 126.4708100  25.8000210  16.5110910 127.1616300  26.3436470  15.2785660
 124.4164220  27.5996210  18.2900630 124.7417630  26.7659960  17.9502860
 125.2044550  28.1224730  18.4378960 121.1499010  21.6327690   4.3375690
 120.5253190  21.6287560   5.0629000 121.0629130  20.7658650   3.9411660
 120.0716090  22.5564320  11.3159460 120.3688420  23.4627150  11.2351480
 120.6201650  22.0683100  10.7019030 117.8254410  27.1350560   7.1851110
 117.5995330  26.9187730   8.0897730 117.0446940  27.5679020   6.8397080
 125.0552170  27.1413930   5.7841760 124.4561060  27.8649730   5.6005380
 125.6031780  27.0790710   5.0018210 120.2653620  28.0336140  17.8511380
 120.1697220  27.0930870  17.7011780 121.1085600  28.2551210  17.4559450
 123.6617040  25.7777470   7.8145040 124.0546610  26.0949670   7.0013730
 124.0233890  24.8989350   7.9289560 115.3964160  24.4449810  16.0045160
 115.0027550  25.2925020  16.2117940 114.7082560  23.8076180  16.1953800
 121.9709210  24.5284780  19.0741900 121.2807530  24.3356980  19.7087990
 122.7141510  24.8119420  19.6066200 112.6981210  22.3678270  10.0375240
 112.4094260  22.9381130  10.7500220 113.4426970  21.8882720  10.4006470
 124.2472180  28.3683220  11.9095820 123.5153300  28.8770030  12.2585920
 123.8496520  27.5513200  11.6084600 120.6849570  25.0437420  10.3148310
 120.6885630  24.6027370   9.4652850 121.5800690  25.3654750  10.4220130
 116.5351950  24.9263910   9.2742520 116.1952000  25.4039140  10.0309570
 115.7729270  24.4729030   8.9143620 120.7469720  26.0449500   3.3055070
 120.8682540  26.0035980   4.2540890 120.3618230  26.9073650   3.1501800
 124.7098090  23.8216900  11.3218760 124.7270830  24.2725550  12.1660610
 124.4613670  22.9222540  11.5352200 119.7591220  28.3550640   2.7038370
 119.1908120  27.9068890   2.0774280 120.4680220  28.7143420   2.1703520
 128.1368840  21.2349080  17.1605140 128.4614610  20.5038740  17.6863120
 128.1725350  20.9162720  16.2586130 114.8360400  32.2562660  16.5805100
 114.4515190  31.6156330  17.1788060 115.1472590  32.9598780  17.1499830
 120.9857540  29.1039200  12.0613720 121.3527670  28.6297770  12.8075060
 120.7962600  29.9780770  12.4022060 113.8498030  23.8482890   8.1907190
 113.5644950  23.4838560   9.0285810 113.7876890  23.1163350   7.5770330
 118.7756910  28.1447840  14.3797930 118.4713980  29.0239820  14.6048290
 119.7303370  28.2047630  14.4155370 117.3038700  32.3508830   4.9764780
 116.5300960  31.8106450   4.8163500 118.0333330  31.8315440   4.6382540
 128.0626680  31.3474190  10.7691170 128.7825800  31.8429480  10.3787280
 127.8608500  30.6692080  10.1245040 123.5236620  22.7412150   4.9120560
 122.7101230  22.2425320   4.8365870 123.3298570  23.5810400   4.4956910
 123.4445480  31.4183250  16.6560170 123.3782790  30.4978920  16.4017760
 122.8150620  31.5158690  17.3704810 126.2385010  27.1131800   3.2082720
 127.1264630  27.4249030   3.0334060 126.2090100  26.2404050   2.8163300
 117.3476100  32.0189210   8.6143590 117.8654770  31.2157470   8.5600480
 116.8960120  31.9568350   9.4560420 122.2345600  33.2855490   3.8870890
 122.5761300  34.0297720   3.3914210 121.4058310  33.5986610   4.2495720
 114.8320640  28.9850580  15.5269290 114.4735580  29.6504430  16.1142630
 114.5375200  28.1534130  15.8981910 118.0333760  29.4434820  18.4108840
 117.7333900  29.5892000  17.5136660 118.8045000  28.8840110  18.3182230
 123.3762210  34.2403820  16.4063970 123.3906750  33.3084780  16.1882880
 122.6687310  34.3263580  17.0453740 128.5099280  28.4243640   2.6762580
 128.4263000  28.8557860   1.8259020 129.2293470  28.8841990   3.1089400
 129.5873420  30.8811160  15.7532550 128.8621610  31.4739940  15.5561940
 130.1148880  30.8734700  14.9545920 129.5386530  35.2785900   5.4044710
 128.8962690  34.6241520   5.6788430 129.1517190  35.6840990   4.6285380
 125.1173010  32.6071330   9.2516400 125.4696830  32.0099460   8.5917770
 124.2335340  32.2815560   9.4224650 121.2036290  33.3669020   6.6586810
 121.8907420  33.9138230   7.0394400 120.4168710  33.9109750   6.6936420
 113.3428690  28.9841840   2.1503890 114.2123540  29.2666640   2.4339810
 112.8519010  29.7977710   2.0352700 120.5063500  30.3715050   6.2712170
 120.9626280  31.1820300   6.4972360 120.1551710  30.0538190   7.1030660
 122.8096110  35.8821390  13.5004470 123.4538330  36.0880770  14.1777890
 123.1725550  35.1209790  13.0475320 116.4075280  20.7152700   6.7434690
 116.2789910  20.7070600   7.6919610 115.5837300  21.0535790   6.3925700
 124.0828190  33.8853740  12.2181920 124.7250420  33.1846900  12.3314090
 124.6077540  34.6652180  12.0378810 125.8565810  34.6848640  15.4217980
 126.1922050  35.2715330  16.0995900 124.9366150  34.5541350  15.6515770
 113.7099940  38.1969220   2.7165520 114.0697580  38.7958560   2.0622790
 113.5692280  38.7429110   3.4900550 113.4069210  22.4743820  16.2041390
 112.6927730  22.6740740  16.8094000 113.8264250  21.6983390  16.5756190
 127.5100160  32.0874300   3.6035220 127.2221860  32.5486990   4.3913100
 128.3052330  31.6272070   3.8719440 113.6941800  36.4624080  17.1907920
 113.8032920  35.5218820  17.0503310 113.0422360  36.7278830  16.5421650
 121.6854390  34.7339970  18.5906040 121.3651260  34.0149210  19.1351730
 121.0112750  35.4095040  18.6642100 119.7268560  35.5800420   3.5339190
 119.7178660  36.3130110   2.9183700 118.8066920  35.3332000   3.6266150
 115.3275200  30.8015310   4.2785950 114.7203150  31.5414210   4.2881250
 115.8024550  30.8914670   3.4524150 124.9007990  24.9666130  13.9542840
 125.2688810  24.1461340  14.2822410 124.0406190  25.0268020  14.3698490
 128.2670020  23.9223070   4.7630400 127.6383180  24.0268740   4.0488630
 127.7721940  24.1419850   5.5524280 120.2354050  26.2009020   6.1788280
 119.5270200  26.6695360   6.6201890 120.5198530  25.5431030   6.8133470
 121.8609980  27.6205720  14.1780810 122.3595230  28.0951540  14.8432660
 122.0032930  26.6969240  14.3850840 124.2669480  22.9259680   7.6184070
 124.1437260  22.9445810   6.6693580 125.2154040  22.9738620   7.7382470
 121.3546270  38.1614980   6.8912050 121.6087770  38.1236370   5.9691420
 120.4058750  38.0348310   6.8840300 118.4389070  24.5094100   3.5538990
 119.2879600  24.9464250   3.4879180 118.0720340  24.8214360   4.3811050
 129.0676840  23.8373680  15.0209200 128.5650440  24.5779080  15.3603010
 129.8833500  24.2257680  14.7045990 127.3598850  29.0806860   8.4670560
 126.4188990  29.0957090   8.6418250 127.6742920  28.2942820   8.9130860
 116.0327250  28.1951530   2.7107410 116.1130840  27.2479040   2.8224810
 116.9247000  28.5258410   2.8168070 129.3624430  36.2515710  10.1424820
 129.4871850  37.0746880  10.6148630 130.2289990  36.0406440   9.7948970
 116.8341960  38.3446920   9.8141950 117.5704440  37.7962380  10.0850520
 117.2182880  39.2102930   9.6747940 113.7187440  34.4120490   5.6883460
 112.7927220  34.6541630   5.6788870 114.1843870  35.2394750   5.5668210
 115.8400240  37.5292990  19.0027530 116.6412970  37.8505040  19.4162930
 115.3252060  37.1688570  19.7247440 124.6764870  33.6372860  18.9502940
 124.0703030  33.6604460  18.2098690 124.3718980  32.9055900  19.4870190
 126.1065240  37.3653150  17.5612350 127.0586990  37.2811170  17.5112590
 125.9593460  38.0294860  18.2346140 128.9974440  36.7447360   3.0604260
 128.7115950  36.3312500   2.2458440 128.7993990  37.6735070   2.9404780
 113.5598050  30.0166450  17.9463580 114.0637070  29.4373730  18.5179810
 112.8205470  30.3006680  18.4839950 120.6135990  31.4237440  17.4799100
 119.8481660  31.9922440  17.3953770 120.7951950  31.1313650  16.5867330
 123.7024400  31.8000670   2.1051860 123.1534500  32.2469970   2.7494600
 124.3243660  31.2949920   2.6289530 127.7559340  33.1542770  18.0374120
 128.4968810  33.4918530  17.5341580 126.9932020  33.3234830  17.4843890
 115.5921130  28.1596040  18.8413650 115.6326470  27.8609910  19.7498880
 116.4466630  28.5603650  18.6821170 119.3699520  30.7591590   4.0017160
 119.7915940  30.5931460   4.8448550 119.4950360  29.9491820   3.5072300
 117.5326940  26.7388140  16.8088140 117.0023400  26.2479090  16.1811480
 118.2015010  27.1672340  16.2746070 126.4305000  31.2057600  16.5729330
 126.8446020  31.3602680  17.4219750 125.4956000  31.3312820  16.7355110
 126.9027170  28.5453760  18.5768480 127.4847940  27.7906080  18.4888960
 127.0788940  29.0761200  17.7999960 118.0199240  23.7050510  16.8885430
 117.9256110  23.0871260  16.1636300 117.4396630  24.4316800  16.6615340
 120.7860680  22.2623750  13.9212820 120.3377980  22.2848010  13.0758370
 120.1525880  21.8642770  14.5183120 121.1920230  31.1578080  14.5425260
 121.6108340  32.0010810  14.3701500 120.2728860  31.2950120  14.3132040
 123.5284130  28.8894260  15.9263100 123.6480340  28.2935400  16.6657940
 124.3878130  28.9263950  15.5064400 125.8672030  29.4431450  14.5025610
 125.3407250  29.9674070  13.8990750 126.2103370  30.0758840  15.1335340
 119.0427650  37.4631090  15.6582990 118.5048740  38.1877150  15.3391690
 119.2961610  36.9861430  14.8680330 120.2952900  25.4315610  17.1838920
 120.8852590  25.1231460  17.8716740 119.4773140  24.9595360  17.3398820
 125.1146330  25.0481420  17.4171940 124.4261850  24.3862960  17.3521930
 125.8352350  24.6019690  17.8620400 125.7446730  21.6433050   3.4762200
 126.0249020  20.8000950   3.8321620 124.9712460  21.8756160   3.9900950
 121.8989860  38.6982300  15.9169640 121.8248560  39.6017440  16.2242010
 120.9968700  38.3794200  15.8891710 122.4475190  37.8640810   3.5396000
 123.3425980  38.2025780   3.5614760 122.4792820  37.1420220   2.9120280
 116.0871350  33.2367860   1.7683000 116.5246220  33.7797530   2.4240580
 116.5719080  32.4114810   1.7779340 113.3017150  36.0256890   9.2203260
 113.6320160  35.1577950   8.9881900 113.7308150  36.2315410  10.0508220
 117.8979070  34.3565900   6.8805230 117.5974610  34.2330870   7.7809140
 117.7916560  33.4974490   6.4720960 113.7907360  36.8927480  11.9584890
 113.3538350  37.0728280  12.7909040 114.3585040  37.6502100  11.8166610
 129.4269540  36.3944480  16.2462200 128.8271530  36.4537040  15.5026120
 129.5563440  35.4549460  16.3759050 130.1227450  30.8809780   4.0866110
 130.8846360  31.4506430   4.1925800 130.1381820  30.3136980   4.8574420
 113.6231790  29.4047710   8.3173770 112.9680630  29.1359350   7.6733470
 114.4609740  29.2952190   7.8675750 131.1287420  31.7359880   8.9308040
 131.4996250  30.9527200   8.5244010 131.7689350  32.4248980   8.7525340
 128.1121180  33.1196460  14.3438360 127.2981020  33.5493620  14.6064150
 128.5195380  33.7314870  13.7307410 126.5722230  24.1989000   2.5392260
 126.9907110  24.0119980   1.6988920 126.2658290  23.3468050   2.8495190
 130.0711960  29.1113140   6.2368060 129.6955560  28.3441070   5.8049350
 129.3415080  29.4935840   6.7242990 114.6607720  29.7900280  12.8577110
 115.0280760  29.7027680  13.7373130 114.0918540  29.0266830  12.7583970
 129.4611580  28.2584660  15.8707580 129.2297670  28.0297410  14.9705530
 129.7216130  29.1784210  15.8252470 114.2123720  26.7009370  16.7635530
 113.3179770  26.6676130  17.1029240 114.7521270  26.8996160  17.5286780
 127.8999650  23.4841090  18.6487280 128.7769830  23.4924490  19.0321280
 127.9120490  22.7471930  18.0379630 112.8369870  26.6146640   4.2599100
 111.9333950  26.8776840   4.0850760 113.3210490  26.8857810   3.4799060
 129.3462920  27.3370630   9.5375300 129.8700400  26.8433280   8.9065470
 129.9322340  27.4720990  10.2822870 129.5252640  27.4210500  13.0594850
 128.5755350  27.3874040  13.1739840 129.7065650  28.3310610  12.8244620
 128.8362890  26.5943980   5.4767710 129.3322010  26.3614850   6.2616590
 128.6378960  25.7555820   5.0605350 114.7163430  20.9757700  11.1118750
 115.3639620  20.4255080  10.6713910 115.1365270  21.2300850  11.9334560
 130.2650050  25.2304930   8.0105390 130.1549330  25.0760970   8.9487660
 131.0257640  24.7025870   7.7680800 128.6115770  21.1699060  14.4688390
 129.2487990  21.7833200  14.8347580 128.7590660  21.2059720  13.5237620
 131.2278810  23.8323510   3.8768240 130.4330310  23.7668630   4.4061150
 131.4322090  24.7674150   3.8653590 128.1697230  37.8715060   7.8706630
 128.7656300  37.5499630   7.1941050 128.4275380  37.3986880   8.6619900
 114.4695430  21.1313370  13.8544070 114.1210250  21.5877190  14.6202250
 114.1383130  20.2370500  13.9366500 116.0759800  34.3032970  18.0197260
 116.0329430  33.9325880  18.9011720 116.2070810  35.2410540  18.1599080
 119.7765830  35.8592560  13.6206980 119.5357190  36.1267120  12.7337500
 120.7168470  36.0298290  13.6757840 121.9820250  22.3225250  17.3763490
 121.9209140  22.9147080  18.1258900 122.9220630  22.2151210  17.2313750
 124.6194810  21.9795310  17.0155780 125.2335220  22.2974600  16.3536860
 125.1644370  21.4943900  17.6351640 131.0369990  37.8786940  14.4217620
 130.5428270  38.2755810  13.7044750 130.4283280  37.2536150  14.8154900
 115.1416070  20.6589570  17.1294840 115.6899060  20.4777620  16.3660950
 115.2071380  19.8683680  17.6651150 115.9147830  37.2495220  15.1395040
 115.3208150  37.1179920  15.8785080 115.9071670  36.4133360  14.6737140
 125.3602850  20.5427450  13.3425070 124.4862690  20.8762560  13.1398000
 125.2513600  20.0700630  14.1676940 126.2674830  22.7498320  14.7266790
 125.9388190  21.9350080  14.3468520 127.2157130  22.7068130  14.6032480
 128.7209440  38.5210360  11.7004360 128.2612410  39.2726170  11.3262380
 128.0921900  37.8016830  11.6419160 115.5460060  34.6153600  14.0903080
 114.8194120  33.9958890  14.0229030 115.6069210  35.0094210  13.2201160
 119.1505160  36.8298600  10.8752490 119.6670180  36.2185960  10.3500750
 119.8002540  37.3327380  11.3663500 121.8900660  37.7207090  11.7021470
 122.1778470  37.4661390  10.8254480 122.4023880  37.1684450  12.2927040
 123.1077670  21.4597290  12.2817980 122.3249460  21.9342790  12.5614740
 122.8140600  20.5552120  12.1731160 127.6598740  22.1620390  10.3267070
 128.1006830  22.1065490   9.4788670 127.3906330  23.0778400  10.3977250
 129.5237310  21.7935630   8.3375890 129.4625710  20.8496850   8.1906910
 130.3029340  21.9015720   8.8829350 113.8290060  37.9327990   7.2999840
 113.6612100  37.2998670   7.9981730 112.9624570  38.1387390   6.9494030
 114.4518080  21.7644770   4.8031700 115.2097440  21.8773650   4.2295730
 113.9895250  22.6013970   4.7575130 120.9931890  23.8784040   7.7934010
 120.1806400  23.5040930   7.4529890 121.4973530  23.1229120   8.0955200
 125.4956870  20.5426490   9.0317080 126.0986240  21.1146700   9.5065600
 124.7549860  21.1065930   8.8090980 128.6391470  20.9448050   4.3057360
 128.8342100  21.8431500   4.5724790 127.8521340  20.7135130   4.7990310
 115.4352760  36.6261220   4.7449980 114.9100380  37.0069250   4.0411940
 115.3597340  37.2511990   5.4659690 116.8243230  22.2908820   3.3433670
 117.3535990  21.5038620   3.2141620 117.4571550  22.9700010   3.5769200
 119.0181070  22.0283960   6.3979060 118.3883810  21.3271270   6.5649190
 118.4786210  22.7888090   6.1812220 121.9573020  38.6423190  19.0689670
 122.8840330  38.4067460  19.1125630 121.9423450  39.4695190  18.5875700
 130.1918080  38.1848760   6.0663920 130.3670270  37.4986500   5.4224840
 129.4939650  38.7095810   5.6740590 119.1436630  21.3067940  18.8331550
 118.8620900  21.8101540  18.0692370 119.5256330  20.5089690  18.4673680
 118.0345730  38.5743600   3.6199230 118.7664550  38.2902880   3.0723120
 118.2939400  38.3356880   4.5098610 117.1960520  34.6908330   3.6245560
 116.5669400  35.1593430   4.1731390 117.3108350  33.8457550   4.0591750
 125.7452090  20.7221520  19.4112020 125.6317540  21.0416130  20.3063540
 126.5621830  21.1234030  19.1149300 128.5250580  37.8693050  18.8930710
 129.3175900  37.3742280  18.6856670 128.8183730  38.5483190  19.5006320
 124.6510240   9.9670500 139.9694680 124.5704290   9.0525110 139.6986390
 124.2374660  10.4637570 139.2634390 122.7828280  11.7449520 141.8503950
 122.0070380  11.2649960 142.1402520 123.4341210  11.0655170 141.6760110
 116.7994110  12.0569330 142.7279710 115.9678990  11.8018040 143.1276220
 117.4075090  12.1280100 143.4637630 126.8035710  16.1509710 140.6303080
 126.3417240  15.3796950 140.9590250 127.6161260  16.1775780 141.1355530
 116.7795370  16.0909420 142.9237730 117.0823410  15.2007160 142.7447950
 117.5238960  16.6479640 142.6959980 115.2086060   7.0171220 136.5122100
 114.3202760   7.3587190 136.4101980 115.4927250   6.8171540 135.6202930
 113.1719070   9.6176870 142.3961800 113.7435180   8.8499070 142.3965440
 113.1720610   9.9165630 141.4868410 123.0299020  18.4367720 140.2507070
 122.4110460  18.8925220 139.6801510 123.8850800  18.5919180 139.8496770
 122.2237270  14.4206710 141.8574110 122.1545550  13.4796650 141.6963240
 122.9857130  14.5108120 142.4296680 114.4143940   5.0261230 144.1830730
 114.2346780   4.1286980 144.4633490 114.0124020   5.5733100 144.8577680
 123.2542440   7.2277090 142.0843040 123.6307260   6.3548970 141.9716710
 123.1561950   7.5635790 141.1933480 117.3847450   5.6002720 137.5460480
 117.4914200   6.5006450 137.8529240 116.4739810   5.5520690 137.2555130
 127.0366560   4.7227530 139.0171380 127.8576180   4.2324100 139.0596860
 127.0700640   5.3125190 139.7703220 115.0330610   7.5221730 142.7913070
 115.7140720   7.7860100 143.4100470 114.7178660   6.6822600 143.1251080
 119.2255180   8.5689090 141.8785660 119.7333400   9.0670060 142.5190680
 119.7568420   7.7924290 141.7025020 131.3266110   6.7394280 145.5815010
 130.6218280   7.1275990 145.0630120 131.5924030   7.4344570 146.1835940
 117.5091280   3.2087650 146.1449080 117.5109720   3.7260040 145.3394980
 116.6795590   2.7317830 146.1219010 123.8962370  13.3206960 137.6438980
 123.2779640  13.7856410 137.0801700 124.4085620  14.0134440 138.0608490
 118.7594130  12.8482830 144.3222580 118.4263510  13.4751750 144.9643650
 118.9360810  13.3744710 143.5424250 127.2728040   6.6627910 141.7898920
 126.5683610   6.9512800 142.3702030 127.6340200   7.4728020 141.4298480
 117.1906610   4.9197610 144.1519530 117.5323420   5.7639660 143.8573400
 116.2522420   5.0681350 144.2684870 117.9713230  14.8163630 146.1371760
 118.5887230  15.4914710 145.8556210 117.1106350  15.2251610 146.0459260
 113.2645570  14.0063490 135.0178610 112.8873550  14.4950590 134.2863510
 113.5218640  14.6788770 135.6485140 128.8890820  16.2803040 144.0526400
 128.2054340  16.9502150 144.0443070 129.4285110  16.4783690 143.2871260
 130.3414960   6.1082700 142.1808130 129.3939870   6.1421680 142.3123560
 130.6664950   6.9221650 142.5657490 120.8734500   2.4079880 140.4764120
 121.1809480   1.8526770 139.7599620 119.9435200   2.5424340 140.2937110
 126.4249560  18.1247170 142.7671580 126.4376720  17.7209460 141.8993840
 125.8724780  18.8994460 142.6633010 127.7194980  14.8463390 137.8561750
 127.6091310  13.9037720 137.9811170 127.7163230  15.2079030 138.7424510
 125.8235000  13.0277010 144.0954190 126.2403790  12.8137120 143.2607650
 126.5474820  13.2849800 144.6662810 123.2615260  10.4728710 137.2124240
 122.3344540  10.4066090 137.4412710 123.4140080  11.4108840 137.0979480
 123.2484340   6.7445710 134.2091400 122.3088010   6.9059670 134.2943860
 123.5667600   7.4631390 133.6627390 129.7697100  11.4264230 144.1870430
 128.9415730  11.4957320 143.7120560 130.3647580  12.0118540 143.7186260
 127.2912550  12.0349010 137.7159490 126.6724970  11.6968560 137.0685790
 127.2737000  11.3908770 138.4238680 126.7339110   8.2133550 145.1325300
 126.3210290   9.0387260 145.3865290 126.0015060   7.6278590 144.9401660
 118.8671900  10.9993450 139.9943970 118.4628900  10.2870700 139.4989870
 118.9535020  10.6546690 140.8832010 119.3353600  14.6861010 142.1583180
 119.0381890  14.0806480 141.4790960 120.2853420  14.7238320 142.0472540
 117.5800520   7.7736660 143.7743010 118.1315110   7.8832000 142.9996260
 118.0944030   8.1474260 144.4898240 127.4239210  18.2592880 145.8206280
 126.9469770  19.0665070 145.6278890 126.7401000  17.6071210 145.9732490
 118.4272030  14.4242700 148.8090980 117.5300560  14.6482670 149.0564380
 118.4524900  14.5477640 147.8602380 125.4677250  11.2735820 134.7232240
 125.9070530  10.4358250 134.5770060 126.1805670  11.9065220 134.8096380
 117.2543250  11.2956020 147.3848350 117.1151020  12.1678820 147.7535750
 116.3724610  10.9528830 147.2396290 123.5772630  16.2131890 138.6913480
 124.0168540  16.9556220 138.2768870 123.5159520  16.4558460 139.6152440
 119.0523600  17.2377720 149.5933500 119.0239030  17.6420670 148.7261930
 118.8888570  16.3088080 149.4305100 129.0494390   2.5278630 133.0373280
 128.7367050   2.6205460 133.9372350 129.8106860   3.1059660 132.9870710
 115.5676530   9.8938430 137.4950620 115.4474130  10.6200520 136.8831890
 115.2577420   9.1241340 137.0178530 113.2061900  13.0653570 143.3019260
 113.2842320  13.2002340 142.3574980 113.8203580  12.3569460 143.4947380
 114.4509530  14.7653760 139.7125440 114.0437610  14.9068350 138.8579040
 115.3422540  14.4813920 139.5096650 130.4071670  15.2117670 148.0497680
 130.5334730  14.9729550 147.1314860 130.4493050  14.3802210 148.5219760
 124.2688410  18.9145670 146.6192490 124.7833080  18.8253680 147.4214920
 123.4257490  19.2605370 146.9120400 126.2442810  19.2001010 136.0476490
 126.0843950  18.9103950 136.9458320 126.0789520  18.4241140 135.5121720
 118.7231190  18.9799540 137.8248110 118.5473670  18.0635080 137.6115910
 117.8686930  19.3386830 138.0645910 125.9468940  16.7088570 134.6074490
 125.2534100  16.7065860 133.9476770 126.6891800  16.2847890 134.1768660
 125.5118870  18.3351280 138.6822980 125.9675820  17.5540660 138.9961600
 125.8511390  19.0458100 139.2264160 130.2595680   7.2650130 149.0147420
 129.6439950   7.7729800 148.4862880 129.9392100   6.3648460 148.9573360
 113.2621420  14.1067740 145.8413720 113.4252460  13.6373100 145.0233090
 113.7273870  13.5991300 146.5062560 118.0340190   3.2373500 140.8774290
 117.5908340   4.0183040 140.5458810 118.5925180   3.5603390 141.5845230
 122.3210000   6.1042020 146.4809610 121.8589370   6.3125040 147.2929550
 121.9188110   5.2901370 146.1780280 127.3214510   7.3250970 147.6106270
 126.4708100   7.0256720 147.9315340 127.1616300   7.5692980 146.6990090
 124.4164220   8.8252720 149.7105060 124.7417630   7.9916470 149.3707290
 125.2044550   9.3481240 149.8583390 121.1499010   2.8584200 135.7580120
 120.5253190   2.8544070 136.4833430 121.0629130   1.9915160 135.3616090
 120.0716090   3.7820830 142.7363890 120.3688420   4.6883660 142.6555910
 120.6201650   3.2939610 142.1223460 117.8254410   8.3607070 138.6055540
 117.5995330   8.1444240 139.5102160 117.0446940   8.7935530 138.2601510
 125.0552170   8.3670440 137.2046190 124.4561060   9.0906240 137.0209810
 125.6031780   8.3047220 136.4222640 120.2653620   9.2592650 149.2715810
 120.1697220   8.3187380 149.1216210 121.1085600   9.4807720 148.8763880
 123.6617040   7.0033980 139.2349470 124.0546610   7.3206180 138.4218160
 124.0233890   6.1245860 139.3493990 115.3964160   5.6706320 147.4249590
 115.0027550   6.5181530 147.6322370 114.7082560   5.0332690 147.6158230
 112.6981210   3.5934780 141.4579670 112.4094260   4.1637640 142.1704650
 113.4426970   3.1139230 141.8210900 112.8851440   7.5354900 132.6682390
 112.8026110   8.4785660 132.8097380 112.5334500   7.3929810 131.7894740
 124.2472180   9.5939730 143.3300250 123.5153300  10.1026540 143.6790350
 123.8496520   8.7769710 143.0289030 120.6849570   6.2693930 141.7352740
 120.6885630   5.8283880 140.8857280 121.5800690   6.5911260 141.8424560
 116.5351950   6.1520420 140.6946950 116.1952000   6.6295650 141.4514000
 115.7729270   5.6985540 140.3348050 120.7469720   7.2706010 134.7259500
 120.8682540   7.2292490 135.6745320 120.3618230   8.1330160 134.5706230
 124.7098090   5.0473410 142.7423190 124.7270830   5.4982060 143.5865040
 124.4613670   4.1479050 142.9556630 119.7591220   9.5807150 134.1242800
 119.1908120   9.1325400 133.4978710 120.4680220   9.9399930 133.5907950
 128.1368840   2.4605590 148.5809570 128.4614610   1.7295250 149.1067550
 128.1725350   2.1419230 147.6790560 114.8360400  13.4819170 148.0009530
 114.4515190  12.8412840 148.5992490 115.1472590  14.1855290 148.5704260
 120.9857540  10.3295710 143.4818150 121.3527670   9.8554280 144.2279490
 120.7962600  11.2037280 143.8226490 113.8498030   5.0739400 139.6111620
 113.5644950   4.7095070 140.4490240 113.7876890   4.3419860 138.9974760
 118.7756910   9.3704350 145.8002360 118.4713980  10.2496330 146.0252720
 119.7303370   9.4304140 145.8359800 117.3038700  13.5765340 136.3969210
 116.5300960  13.0362960 136.2367930 118.0333330  13.0571950 136.0586970
 128.0626680  12.5730700 142.1895600 128.7825800  13.0685990 141.7991710
 127.8608500  11.8948590 141.5449470 123.5236620   3.9668660 136.3324990
 122.7101230   3.4681830 136.2570300 123.3298570   4.8066910 135.9161340
 123.4445480  12.6439760 148.0764600 123.3782790  11.7235430 147.8222190
 122.8150620  12.7415200 148.7909240 126.2385010   8.3388310 134.6287150
 127.1264630   8.6505540 134.4538490 126.2090100   7.4660560 134.2367730
 117.3476100  13.2445720 140.0348020 117.8654770  12.4413980 139.9804910
 116.8960120  13.1824860 140.8764850 122.2345600  14.5112000 135.3075320
 122.5761300  15.2554230 134.8118640 121.4058310  14.8243120 135.6700150
 114.8320640  10.2107090 146.9473720 114.4735580  10.8760940 147.5347060
 114.5375200   9.3790640 147.3186340 118.0333760  10.6691330 149.8313270
 117.7333900  10.8148510 148.9341090 118.8045000  10.1096620 149.7386660
 123.3762210  15.4660330 147.8268400 123.3906750  14.5341290 147.6087310
 122.6687310  15.5520090 148.4658170 128.5099280   9.6500150 134.0967010
 128.4263000  10.0814370 133.2463450 129.2293470  10.1098500 134.5293830
 129.5873420  12.1067670 147.1736980 128.8621610  12.6996450 146.9766370
 130.1148880  12.0991210 146.3750350 129.5386530  16.5042410 136.8249140
 128.8962690  15.8498030 137.0992860 129.1517190  16.9097500 136.0489810
 125.1173010  13.8327840 140.6720830 125.4696830  13.2355970 140.0122200
 124.2335340  13.5072070 140.8429080 121.2036290  14.5925530 138.0791240
 121.8907420  15.1394740 138.4598830 120.4168710  15.1366260 138.1140850
 113.3428690  10.2098350 133.5708320 114.2123540  10.4923150 133.8544240
 112.8519010  11.0234220 133.4557130 120.5063500  11.5971560 137.6916600
 120.9626280  12.4076810 137.9176790 120.1551710  11.2794700 138.5235090
 122.8096110  17.1077900 144.9208900 123.4538330  17.3137280 145.5982320
 123.1725550  16.3466300 144.4679750 116.4075280   1.9409210 138.1639120
 116.2789910   1.9327110 139.1124040 115.5837300   2.2792300 137.8130130
 124.0828190  15.1110250 143.6386350 124.7250420  14.4103410 143.7518520
 124.6077540  15.8908690 143.4583240 127.9283910  15.3958870 133.3625490
 127.7021490  14.6789310 133.9550130 127.5380110  15.1471310 132.5247240
 125.8565810  15.9105150 146.8422410 126.1922050  16.4971840 147.5200330
 124.9366150  15.7797860 147.0720200 113.7099940  19.4225730 134.1369950
 114.0697580  20.0215070 133.4827220 113.5692280  19.9685620 134.9104980
 113.4069210   3.7000330 147.6245820 112.6927730   3.8997250 148.2298430
 113.8264250   2.9239900 147.9960620 127.5100160  13.3130810 135.0239650
 127.2221860  13.7743500 135.8117530 128.3052330  12.8528580 135.2923870
 113.6941800  17.6880590 148.6112350 113.8032920  16.7475330 148.4707740
 113.0422360  17.9535340 147.9626080 119.7268560  16.8056930 134.9543620
 119.7178660  17.5386620 134.3388130 118.8066920  16.5588510 135.0470580
 115.3275200  12.0271820 135.6990380 114.7203150  12.7670720 135.7085680
 115.8024550  12.1171180 134.8728580 124.9007990   6.1922640 145.3747270
 125.2688810   5.3717850 145.7026840 124.0406190   6.2524530 145.7902920
 128.2670020   5.1479580 136.1834830 127.6383180   5.2525250 135.4693060
 127.7721940   5.3676360 136.9728710 122.7128160  16.8685170 133.6168810
 122.8140140  16.6649160 132.6870790 121.8129900  16.6143450 133.8216590
 120.2354050   7.4265530 137.5992710 119.5270200   7.8951870 138.0406320
 120.5198530   6.7687540 138.2337900 121.8609980   8.8462230 145.5985240
 122.3595230   9.3208050 146.2637090 122.0032930   7.9225750 145.8055270
 124.2669480   4.1516190 139.0388500 124.1437260   4.1702320 138.0898010
 125.2154040   4.1995130 139.1586900 121.3546270  19.3871490 138.3116480
 121.6087770  19.3492880 137.3895850 120.4058750  19.2604820 138.3044730
 118.4389070   5.7350610 134.9743420 119.2879600   6.1720760 134.9083610
 118.0720340   6.0470870 135.8015480 129.0676840   5.0630190 146.4413630
 128.5650440   5.8035590 146.7807440 129.8833500   5.4514190 146.1250420
 127.3598850  10.3063370 139.8874990 126.4188990  10.3213600 140.0622680
 127.6742920   9.5199330 140.3335290 117.3380490  11.9882970 133.4478950
 118.1043760  11.8764330 134.0104380 117.4155180  11.2920940 132.7955720
 116.0327250   9.4208040 134.1311840 116.1130840   8.4735550 134.2429240
 116.9247000   9.7514920 134.2372500 129.3624430  17.4772220 141.5629250
 129.4871850  18.3003390 142.0353060 130.2289990  17.2662950 141.2153400
 116.8341960  19.5703430 141.2346380 117.5704440  19.0218890 141.5054950
 117.2182880  20.4359440 141.0952370 113.7187440  15.6377000 137.1087890
 112.7927220  15.8798140 137.0993300 114.1843870  16.4651260 136.9872640
 119.9444270  18.7433740 133.0571950 120.7372880  19.0322570 132.6053740
 119.4248620  18.3125910 132.3784430 126.1065240  18.5909660 148.9816780
 127.0586990  18.5067680 148.9317020 125.9593460  19.2551370 149.6550570
 128.9974440  17.9703870 134.4808690 128.7115950  17.5569010 133.6662870
 128.7993990  18.8991580 134.3609210 113.5598050  11.2422960 149.3668010
 114.0637070  10.6630240 149.9384240 112.8205470  11.5263190 149.9044380
 120.4621670  13.9637150 132.9214300 120.3572310  13.3489500 133.6475680
 120.2945890  13.4403040 132.1377310 120.6135990  12.6493950 148.9003530
 119.8481660  13.2178950 148.8158200 120.7951950  12.3570160 148.0071760
 123.7024400  13.0257180 133.5256290 123.1534500  13.4726480 134.1699030
 124.3243660  12.5206430 134.0493960 127.7559340  14.3799280 149.4578550
 128.4968810  14.7175040 148.9546010 126.9932020  14.5491340 148.9048320
 119.3699520  11.9848100 135.4221590 119.7915940  11.8187970 136.2652980
 119.4950360  11.1748330 134.9276730 117.5326940   7.9644650 148.2292570
 117.0023400   7.4735600 147.6015910 118.2015010   8.3928850 147.6950500
 121.8827160  11.0085710 132.6698690 122.4032820  10.2934730 132.3039840
 122.5295560  11.6471580 132.9699200 126.4305000  12.4314110 147.9933760
 126.8446020  12.5859190 148.8424180 125.4956000  12.5569330 148.1559540
 126.9027170   9.7710270 149.9972910 127.4847940   9.0162590 149.9093390
 127.0788940  10.3017710 149.2204390 118.0199240   4.9307020 148.3089860
 117.9256110   4.3127770 147.5840730 117.4396630   5.6573310 148.0819770
 120.7860680   3.4880260 145.3417250 120.3377980   3.5104520 144.4962800
 120.1525880   3.0899280 145.9387550 121.1920230  12.3834590 145.9629690
 121.6108340  13.2267320 145.7905930 120.2728860  12.5206630 145.7336470
 123.5284130  10.1150770 147.3467530 123.6480340   9.5191910 148.0862370
 124.3878130  10.1520460 146.9268830 125.8672030  10.6687960 145.9230040
 125.3407250  11.1930580 145.3195180 126.2103370  11.3015350 146.5539770
 118.2658420   8.0581330 132.3679750 118.0647480   7.1948690 132.7293090
 118.0950470   7.9714690 131.4301350 119.0427650  18.6887600 147.0787420
 118.5048740  19.4133660 146.7596120 119.2961610  18.2117940 146.2884760
 120.2952900   6.6572120 148.6043350 120.8852590   6.3487970 149.2921170
 119.4773140   6.1851870 148.7603250 125.1146330   6.2737930 148.8376370
 124.4261850   5.6119470 148.7726360 125.8352350   5.8276200 149.2824830
 125.7446730   2.8689560 134.8966630 126.0249020   2.0257460 135.2526050
 124.9712460   3.1012670 135.4105380 117.0641220   5.1581950 132.3557630
 117.3667120   5.1649380 131.4476780 117.8035810   4.8079810 132.8525290
 121.8989860  19.9238810 147.3374070 121.8248560  20.8273950 147.6446440
 120.9968700  19.6050710 147.3096140 120.2826150   4.1016570 133.3413830
 119.9348150   3.4240560 132.7616280 120.4838920   3.6406080 134.1557220
 122.4475190  19.0897320 134.9600430 123.3425980  19.4282290 134.9819190
 122.4792820  18.3676730 134.3324710 116.0871350  14.4624370 133.1887430
 116.5246220  15.0054040 133.8445010 116.5719080  13.6371320 133.1983770
 113.3017150  17.2513400 140.6407690 113.6320160  16.3834460 140.4086330
 113.7308150  17.4571920 141.4712650 117.8979070  15.5822410 138.3009660
 117.5974610  15.4587380 139.2013570 117.7916560  14.7231000 137.8925390
 113.7907360  18.1183990 143.3789320 113.3538350  18.2984790 144.2113470
 114.3585040  18.8758610 143.2371040 129.4269540  17.6200990 147.6666630
 128.8271530  17.6793550 146.9230550 129.5563440  16.6805970 147.7963480
 130.6670990  15.3618810 133.0036340 129.8363950  15.4295460 133.4743570
 130.8442820  16.2522930 132.7003200 130.1227450  12.1066290 135.5070540
 130.8846360  12.6762940 135.6130230 130.1381820  11.5393490 136.2778850
 113.6231790  10.6304220 139.7378200 112.9680630  10.3615860 139.0937900
 114.4609740  10.5208700 139.2880180 131.1287420  12.9616390 140.3512470
 131.4996250  12.1783710 139.9448440 131.7689350  13.6505490 140.1729770
 128.1121180  14.3452970 145.7642790 127.2981020  14.7750130 146.0268580
 128.5195380  14.9571380 145.1511840 130.1746620  12.4000660 132.6643060
 130.4495460  13.3079540 132.5362280 129.9857360  12.3363190 133.6005050
 126.5722230   5.4245510 133.9596690 126.9907110   5.2376490 133.1193350
 126.2658290   4.5724560 134.2699620 130.0711960  10.3369650 137.6572490
 129.6955560   9.5697580 137.2253780 129.3415080  10.7192350 138.1447420
 114.6607720  11.0156790 144.2781540 115.0280760  10.9284190 145.1577560
 114.0918540  10.2523340 144.1788400 129.4611580   9.4841170 147.2912010
 129.2297670   9.2553920 146.3909960 129.7216130  10.4040720 147.2456900
 114.2123720   7.9265880 148.1839960 113.3179770   7.8932640 148.5233670
 114.7521270   8.1252670 148.9491210 112.8369870   7.8403150 135.6803530
 111.9333950   8.1033350 135.5055190 113.3210490   8.1114320 134.9003490
 129.3462920   8.5627140 140.9579730 129.8700400   8.0689790 140.3269900
 129.9322340   8.6977500 141.7027300 129.5252640   8.6467010 144.4799280
 128.5755350   8.6130550 144.5944270 129.7065650   9.5567120 144.2449050
 115.3797080   6.8968690 133.5897910 116.0888780   6.4751910 133.1045190
 114.6637020   6.9643920 132.9581260 115.0271240   2.9508020 132.6300560
 115.7499370   3.4916960 132.9481780 115.2995760   2.6771440 131.7542100
 128.8362890   7.8200490 136.8972140 129.3322010   7.5871360 137.6821020
 128.6378960   6.9812330 136.4809780 114.7163430   2.2014210 142.5323180
 115.3639620   1.6511590 142.0918340 115.1365270   2.4557360 143.3538990
 130.2650050   6.4561440 139.4309820 130.1549330   6.3017480 140.3692090
 131.0257640   5.9282380 139.1885230 128.6115770   2.3955570 145.8892820
 129.2487990   3.0089710 146.2552010 128.7590660   2.4316230 144.9442050
 131.1540320   4.2869360 132.6715960 132.0789630   4.1550540 132.4634250
 131.1316110   4.3662180 133.6252410 131.2278810   5.0580020 135.2972670
 130.4330310   4.9925140 135.8265580 131.4322090   5.9930660 135.2858020
 128.1697230  19.0971570 139.2911060 128.7656300  18.7756140 138.6145480
 128.4275380  18.6243390 140.0824330 114.4695430   2.3569880 145.2748500
 114.1210250   2.8133700 146.0406680 114.1383130   1.4627010 145.3570930
 119.7765830  17.0849070 145.0411410 119.5357190  17.3523630 144.1541930
 120.7168470  17.2554800 145.0962270 121.9820250   3.5481760 148.7967920
 121.9209140   4.1403590 149.5463330 122.9220630   3.4407720 148.6518180
 124.6194810   3.2051820 148.4360210 125.2335220   3.5231110 147.7741290
 125.1644370   2.7200410 149.0556070 131.0369990  19.1043450 145.8422050
 130.5428270  19.5012320 145.1249180 130.4283280  18.4792660 146.2359330
 115.9147830  18.4751730 146.5599470 115.3208150  18.3436430 147.2989510
 115.9071670  17.6389870 146.0941570 126.2674830   3.9754830 146.1471220
 125.9388190   3.1606590 145.7672950 127.2157130   3.9324640 146.0236910
 128.7209440  19.7466870 143.1208790 128.2612410  20.4982680 142.7466810
 128.0921900  19.0273340 143.0623590 115.5460060  15.8410110 145.5107510
 114.8194120  15.2215400 145.4433460 115.6069210  16.2350720 144.6405590
 119.1505160  18.0555110 142.2956920 119.6670180  17.4442470 141.7705180
 119.8002540  18.5583890 142.7867930 121.8900660  18.9463600 143.1225900
 122.1778470  18.6917900 142.2458910 122.4023880  18.3940960 143.7131470
 123.1077670   2.6853800 143.7022410 122.3249460   3.1599300 143.9819170
 122.8140600   1.7808630 143.5935590 127.6598740   3.3876900 141.7471500
 128.1006830   3.3322000 140.8993100 127.3906330   4.3034910 141.8181680
 129.5237310   3.0192140 139.7580320 129.4625710   2.0753360 139.6111340
 130.3029340   3.1272230 140.3033780 113.8290060  19.1584500 138.7204270
 113.6612100  18.5255180 139.4186160 112.9624570  19.3643900 138.3698460
 114.4518080   2.9901280 136.2236130 115.2097440   3.1030160 135.6500160
 113.9895250   3.8270480 136.1779560 120.9931890   5.1040550 139.2138440
 120.1806400   4.7297440 138.8734320 121.4973530   4.3485630 139.5159630
 125.4956870   1.7683000 140.4521510 126.0986240   2.3403210 140.9270030
 124.7549860   2.3322440 140.2295410 128.6391470   2.1704560 135.7261790
 128.8342100   3.0688010 135.9929220 127.8521340   1.9391640 136.2194740
 115.4352760  17.8517730 136.1654410 114.9100380  18.2325760 135.4616370
 115.3597340  18.4768500 136.8864120 116.8243230   3.5165330 134.7638100
 117.3535990   2.7295130 134.6346050 117.4571550   4.1956520 134.9973630
 119.0181070   3.2540470 137.8183490 118.3883810   2.5527780 137.9853620
 118.4786210   4.0144600 137.6016650 130.1918080  19.4105270 137.4868350
 130.3670270  18.7243010 136.8429270 129.4939650  19.9352320 137.0945020
 118.0345730  19.8000110 135.0403660 118.7664550  19.5159390 134.4927550
 118.2939400  19.5613390 135.9303040 117.1960520  15.9164840 135.0449990
 116.5669400  16.3849940 135.5935820 117.3108350  15.0714060 135.4796180
 124.6510240   9.9670500 121.1951190 124.5704290   9.0525110 120.9242900
 124.2374660  10.4637570 120.4890900 122.7828280  11.7449520 123.0760460
 122.0070380  11.2649960 123.3659030 123.4341210  11.0655170 122.9016620
 116.7994110  12.0569330 123.9536220 115.9678990  11.8018040 124.3532730
 117.4075090  12.1280100 124.6894140 126.8035710  16.1509710 121.8559590
 126.3417240  15.3796950 122.1846760 127.6161260  16.1775780 122.3612040
 116.7795370  16.0909420 124.1494240 117.0823410  15.2007160 123.9704460
 117.5238960  16.6479640 123.9216490 115.2086060   7.0171220 117.7378610
 114.3202760   7.3587190 117.6358490 115.4927250   6.8171540 116.8459440
 113.1719070   9.6176870 123.6218310 113.7435180   8.8499070 123.6221950
 113.1720610   9.9165630 122.7124920 123.0299020  18.4367720 121.4763580
 122.4110460  18.8925220 120.9058020 123.8850800  18.5919180 121.0753280
 122.2237270  14.4206710 123.0830620 122.1545550  13.4796650 122.9219750
 122.9857130  14.5108120 123.6553190 114.4143940   5.0261230 125.4087240
 114.2346780   4.1286980 125.6890000 114.0124020   5.5733100 126.0834190
 123.2542440   7.2277090 123.3099550 123.6307260   6.3548970 123.1973220
 123.1561950   7.5635790 122.4189990 117.3847450   5.6002720 118.7716990
 117.4914200   6.5006450 119.0785750 116.4739810   5.5520690 118.4811640
 127.0366560   4.7227530 120.2427890 127.8576180   4.2324100 120.2853370
 127.0700640   5.3125190 120.9959730 115.0330610   7.5221730 124.0169580
 115.7140720   7.7860100 124.6356980 114.7178660   6.6822600 124.3507590
 119.2255180   8.5689090 123.1042170 119.7333400   9.0670060 123.7447190
 119.7568420   7.7924290 122.9281530 131.3266110   6.7394280 126.8071520
 130.6218280   7.1275990 126.2886630 131.5924030   7.4344570 127.4092450
 117.5091280   3.2087650 127.3705590 117.5109720   3.7260040 126.5651490
 116.6795590   2.7317830 127.3475520 123.8962370  13.3206960 118.8695490
 123.2779640  13.7856410 118.3058210 124.4085620  14.0134440 119.2865000
 118.7594130  12.8482830 125.5479090 118.4263510  13.4751750 126.1900160
 118.9360810  13.3744710 124.7680760 127.2728040   6.6627910 123.0155430
 126.5683610   6.9512800 123.5958540 127.6340200   7.4728020 122.6554990
 117.1906610   4.9197610 125.3776040 117.5323420   5.7639660 125.0829910
 116.2522420   5.0681350 125.4941380 117.9713230  14.8163630 127.3628270
 118.5887230  15.4914710 127.0812720 117.1106350  15.2251610 127.2715770
 113.2645570  14.0063490 116.2435120 112.8873550  14.4950590 115.5120020
 113.5218640  14.6788770 116.8741650 128.8890820  16.2803040 125.2782910
 128.2054340  16.9502150 125.2699580 129.4285110  16.4783690 124.5127770
 130.3414960   6.1082700 123.4064640 129.3939870   6.1421680 123.5380070
 130.6664950   6.9221650 123.7914000 120.8734500   2.4079880 121.7020630
 121.1809480   1.8526770 120.9856130 119.9435200   2.5424340 121.5193620
 126.4249560  18.1247170 123.9928090 126.4376720  17.7209460 123.1250350
 125.8724780  18.8994460 123.8889520 127.7194980  14.8463390 119.0818260
 127.6091310  13.9037720 119.2067680 127.7163230  15.2079030 119.9681020
 125.8235000  13.0277010 125.3210700 126.2403790  12.8137120 124.4864160
 126.5474820  13.2849800 125.8919320 123.2615260  10.4728710 118.4380750
 122.3344540  10.4066090 118.6669220 123.4140080  11.4108840 118.3235990
 123.2484340   6.7445710 115.4347910 122.3088010   6.9059670 115.5200370
 123.5667600   7.4631390 114.8883900 129.7697100  11.4264230 125.4126940
 128.9415730  11.4957320 124.9377070 130.3647580  12.0118540 124.9442770
 127.2912550  12.0349010 118.9416000 126.6724970  11.6968560 118.2942300
 127.2737000  11.3908770 119.6495190 126.7339110   8.2133550 126.3581810
 126.3210290   9.0387260 126.6121800 126.0015060   7.6278590 126.1658170
 118.8671900  10.9993450 121.2200480 118.4628900  10.2870700 120.7246380
 118.9535020  10.6546690 122.1088520 119.3353600  14.6861010 123.3839690
 119.0381890  14.0806480 122.7047470 120.2853420  14.7238320 123.2729050
 117.5800520   7.7736660 124.9999520 118.1315110   7.8832000 124.2252770
 118.0944030   8.1474260 125.7154750 127.4239210  18.2592880 127.0462790
 126.9469770  19.0665070 126.8535400 126.7401000  17.6071210 127.1989000
 118.4272030  14.4242700 130.0347490 117.5300560  14.6482670 130.2820890
 118.4524900  14.5477640 129.0858890 125.4677250  11.2735820 115.9488750
 125.9070530  10.4358250 115.8026570 126.1805670  11.9065220 116.0352890
 117.2543250  11.2956020 128.6104860 117.1151020  12.1678820 128.9792260
 116.3724610  10.9528830 128.4652800 123.5772630  16.2131890 119.9169990
 124.0168540  16.9556220 119.5025380 123.5159520  16.4558460 120.8408950
 119.0523600  17.2377720 130.8190010 119.0239030  17.6420670 129.9518440
 118.8888570  16.3088080 130.6561610 129.0494390   2.5278630 114.2629790
 128.7367050   2.6205460 115.1628860 129.8106860   3.1059660 114.2127220
 115.5676530   9.8938430 118.7207130 115.4474130  10.6200520 118.1088400
 115.2577420   9.1241340 118.2435040 131.0038420  18.0204820 132.1154180
 131.4798140  18.4987710 132.7943260 131.6245580  17.9522310 131.3899680
 113.2061900  13.0653570 124.5275770 113.2842320  13.2002340 123.5831490
 113.8203580  12.3569460 124.7203890 114.4509530  14.7653760 120.9381950
 114.0437610  14.9068350 120.0835550 115.3422540  14.4813920 120.7353160
 130.4071670  15.2117670 129.2754190 130.5334730  14.9729550 128.3571370
 130.4493050  14.3802210 129.7476270 124.2688410  18.9145670 127.8449000
 124.7833080  18.8253680 128.6471430 123.4257490  19.2605370 128.1376910
 126.2442810  19.2001010 117.2733000 126.0843950  18.9103950 118.1714830
 126.0789520  18.4241140 116.7378230 118.7231190  18.9799540 119.0504620
 118.5473670  18.0635080 118.8372420 117.8686930  19.3386830 119.2902420
 125.9468940  16.7088570 115.8331000 125.2534100  16.7065860 115.1733280
 126.6891800  16.2847890 115.4025170 125.5118870  18.3351280 119.9079490
 125.9675820  17.5540660 120.2218110 125.8511390  19.0458100 120.4520670
 130.2595680   7.2650130 130.2403930 129.6439950   7.7729800 129.7119390
 129.9392100   6.3648460 130.1829870 113.2621420  14.1067740 127.0670230
 113.4252460  13.6373100 126.2489600 113.7273870  13.5991300 127.7319070
 118.0340190   3.2373500 122.1030800 117.5908340   4.0183040 121.7715320
 118.5925180   3.5603390 122.8101740 122.3210000   6.1042020 127.7066120
 121.8589370   6.3125040 128.5186060 121.9188110   5.2901370 127.4036790
 127.3214510   7.3250970 128.8362780 126.4708100   7.0256720 129.1571850
 127.1616300   7.5692980 127.9246600 124.4164220   8.8252720 130.9361570
 124.7417630   7.9916470 130.5963800 125.2044550   9.3481240 131.0839900
 121.1499010   2.8584200 116.9836630 120.5253190   2.8544070 117.7089940
 121.0629130   1.9915160 116.5872600 120.0716090   3.7820830 123.9620400
 120.3688420   4.6883660 123.8812420 120.6201650   3.2939610 123.3479970
 117.8254410   8.3607070 119.8312050 117.5995330   8.1444240 120.7358670
 117.0446940   8.7935530 119.4858020 125.0552170   8.3670440 118.4302700
 124.4561060   9.0906240 118.2466320 125.6031780   8.3047220 117.6479150
 120.2653620   9.2592650 130.4972320 120.1697220   8.3187380 130.3472720
 121.1085600   9.4807720 130.1020390 123.6617040   7.0033980 120.4605980
 124.0546610   7.3206180 119.6474670 124.0233890   6.1245860 120.5750500
 115.3964160   5.6706320 128.6506100 115.0027550   6.5181530 128.8578880
 114.7082560   5.0332690 128.8414740 121.9709210   5.7541290 131.7202840
 121.2807530   5.5613490 132.3548930 122.7141510   6.0375930 132.2527140
 112.6981210   3.5934780 122.6836180 112.4094260   4.1637640 123.3961160
 113.4426970   3.1139230 123.0467410 112.8851440   7.5354900 113.8938900
 112.8026110   8.4785660 114.0353890 112.5334500   7.3929810 113.0151250
 124.2472180   9.5939730 124.5556760 123.5153300  10.1026540 124.9046860
 123.8496520   8.7769710 124.2545540 120.6849570   6.2693930 122.9609250
 120.6885630   5.8283880 122.1113790 121.5800690   6.5911260 123.0681070
 116.5351950   6.1520420 121.9203460 116.1952000   6.6295650 122.6770510
 115.7729270   5.6985540 121.5604560 120.7469720   7.2706010 115.9516010
 120.8682540   7.2292490 116.9001830 120.3618230   8.1330160 115.7962740
 124.7098090   5.0473410 123.9679700 124.7270830   5.4982060 124.8121550
 124.4613670   4.1479050 124.1813140 119.7591220   9.5807150 115.3499310
 119.1908120   9.1325400 114.7235220 120.4680220   9.9399930 114.8164460
 128.1368840   2.4605590 129.8066080 128.4614610   1.7295250 130.3324060
 128.1725350   2.1419230 128.9047070 114.8360400  13.4819170 129.2266040
 114.4515190  12.8412840 129.8249000 115.1472590  14.1855290 129.7960770
 120.9857540  10.3295710 124.7074660 121.3527670   9.8554280 125.4536000
 120.7962600  11.2037280 125.0483000 113.8498030   5.0739400 120.8368130
 113.5644950   4.7095070 121.6746750 113.7876890   4.3419860 120.2231270
 118.7756910   9.3704350 127.0258870 118.4713980  10.2496330 127.2509230
 119.7303370   9.4304140 127.0616310 117.3038700  13.5765340 117.6225720
 116.5300960  13.0362960 117.4624440 118.0333330  13.0571950 117.2843480
 128.0626680  12.5730700 123.4152110 128.7825800  13.0685990 123.0248220
 127.8608500  11.8948590 122.7705980 123.5236620   3.9668660 117.5581500
 122.7101230   3.4681830 117.4826810 123.3298570   4.8066910 117.1417850
 123.4445480  12.6439760 129.3021110 123.3782790  11.7235430 129.0478700
 122.8150620  12.7415200 130.0165750 126.2385010   8.3388310 115.8543660
 127.1264630   8.6505540 115.6795000 126.2090100   7.4660560 115.4624240
 117.3476100  13.2445720 121.2604530 117.8654770  12.4413980 121.2061420
 116.8960120  13.1824860 122.1021360 122.2345600  14.5112000 116.5331830
 122.5761300  15.2554230 116.0375150 121.4058310  14.8243120 116.8956660
 114.8320640  10.2107090 128.1730230 114.4735580  10.8760940 128.7603570
 114.5375200   9.3790640 128.5442850 118.0333760  10.6691330 131.0569780
 117.7333900  10.8148510 130.1597600 118.8045000  10.1096620 130.9643170
 123.3762210  15.4660330 129.0524910 123.3906750  14.5341290 128.8343820
 122.6687310  15.5520090 129.6914680 128.5099280   9.6500150 115.3223520
 128.4263000  10.0814370 114.4719960 129.2293470  10.1098500 115.7550340
 129.5873420  12.1067670 128.3993490 128.8621610  12.6996450 128.2022880
 130.1148880  12.0991210 127.6006860 129.5386530  16.5042410 118.0505650
 128.8962690  15.8498030 118.3249370 129.1517190  16.9097500 117.2746320
 125.1173010  13.8327840 121.8977340 125.4696830  13.2355970 121.2378710
 124.2335340  13.5072070 122.0685590 121.2036290  14.5925530 119.3047750
 121.8907420  15.1394740 119.6855340 120.4168710  15.1366260 119.3397360
 113.3428690  10.2098350 114.7964830 114.2123540  10.4923150 115.0800750
 112.8519010  11.0234220 114.6813640 120.5063500  11.5971560 118.9173110
 120.9626280  12.4076810 119.1433300 120.1551710  11.2794700 119.7491600
 122.8096110  17.1077900 126.1465410 123.4538330  17.3137280 126.8238830
 123.1725550  16.3466300 125.6936260 116.4075280   1.9409210 119.3895630
 116.2789910   1.9327110 120.3380550 115.5837300   2.2792300 119.0386640
 124.0828190  15.1110250 124.8642860 124.7250420  14.4103410 124.9775030
 124.6077540  15.8908690 124.6839750 127.9283910  15.3958870 114.5882000
 127.7021490  14.6789310 115.1806640 127.5380110  15.1471310 113.7503750
 125.8565810  15.9105150 128.0678920 126.1922050  16.4971840 128.7456840
 124.9366150  15.7797860 128.2976710 113.7099940  19.4225730 115.3626460
 114.0697580  20.0215070 114.7083730 113.5692280  19.9685620 116.1361490
 113.4069210   3.7000330 128.8502330 112.6927730   3.8997250 129.4554940
 113.8264250   2.9239900 129.2217130 127.5100160  13.3130810 116.2496160
 127.2221860  13.7743500 117.0374040 128.3052330  12.8528580 116.5180380
 113.6941800  17.6880590 129.8368860 113.8032920  16.7475330 129.6964250
 113.0422360  17.9535340 129.1882590 121.6854390  15.9596480 131.2366980
 121.3651260  15.2405720 131.7812670 121.0112750  16.6351550 131.3103040
 119.7268560  16.8056930 116.1800130 119.7178660  17.5386620 115.5644640
 118.8066920  16.5588510 116.2727090 115.3275200  12.0271820 116.9246890
 114.7203150  12.7670720 116.9342190 115.8024550  12.1171180 116.0985090
 124.9007990   6.1922640 126.6003780 125.2688810   5.3717850 126.9283350
 124.0406190   6.2524530 127.0159430 128.2670020   5.1479580 117.4091340
 127.6383180   5.2525250 116.6949570 127.7721940   5.3676360 118.1985220
 122.7128160  16.8685170 114.8425320 122.8140140  16.6649160 113.9127300
 121.8129900  16.6143450 115.0473100 120.2354050   7.4265530 118.8249220
 119.5270200   7.8951870 119.2662830 120.5198530   6.7687540 119.4594410
 121.8609980   8.8462230 126.8241750 122.3595230   9.3208050 127.4893600
 122.0032930   7.9225750 127.0311780 124.2669480   4.1516190 120.2645010
 124.1437260   4.1702320 119.3154520 125.2154040   4.1995130 120.3843410
 121.3546270  19.3871490 119.5372990 121.6087770  19.3492880 118.6152360
 120.4058750  19.2604820 119.5301240 118.4389070   5.7350610 116.1999930
 119.2879600   6.1720760 116.1340120 118.0720340   6.0470870 117.0271990
 129.0676840   5.0630190 127.6670140 128.5650440   5.8035590 128.0063950
 129.8833500   5.4514190 127.3506930 127.3598850  10.3063370 121.1131500
 126.4188990  10.3213600 121.2879190 127.6742920   9.5199330 121.5591800
 117.3380490  11.9882970 114.6735460 118.1043760  11.8764330 115.2360890
 117.4155180  11.2920940 114.0212230 116.0327250   9.4208040 115.3568350
 116.1130840   8.4735550 115.4685750 116.9247000   9.7514920 115.4629010
 129.3624430  17.4772220 122.7885760 129.4871850  18.3003390 123.2609570
 130.2289990  17.2662950 122.4409910 116.8341960  19.5703430 122.4602890
 117.5704440  19.0218890 122.7311460 117.2182880  20.4359440 122.3208880
 113.7187440  15.6377000 118.3344400 112.7927220  15.8798140 118.3249810
 114.1843870  16.4651260 118.2129150 115.8400240  18.7549500 131.6488470
 116.6412970  19.0761550 132.0623870 115.3252060  18.3945080 132.3708380
 119.9444270  18.7433740 114.2828460 120.7372880  19.0322570 113.8310250
 119.4248620  18.3125910 113.6040940 124.6764870  14.8629370 131.5963880
 124.0703030  14.8860970 130.8559630 124.3718980  14.1312410 132.1331130
 126.1065240  18.5909660 130.2073290 127.0586990  18.5067680 130.1573530
 125.9593460  19.2551370 130.8807080 128.9974440  17.9703870 115.7065200
 128.7115950  17.5569010 114.8919380 128.7993990  18.8991580 115.5865720
 113.5598050  11.2422960 130.5924520 114.0637070  10.6630240 131.1640750
 112.8205470  11.5263190 131.1300890 120.4621670  13.9637150 114.1470810
 120.3572310  13.3489500 114.8732190 120.2945890  13.4403040 113.3633820
 120.6135990  12.6493950 130.1260040 119.8481660  13.2178950 130.0414710
 120.7951950  12.3570160 129.2328270 123.7024400  13.0257180 114.7512800
 123.1534500  13.4726480 115.3955540 124.3243660  12.5206430 115.2750470
 127.7559340  14.3799280 130.6835060 128.4968810  14.7175040 130.1802520
 126.9932020  14.5491340 130.1304830 115.5921130   9.3852550 131.4874590
 115.6326470   9.0866420 132.3959820 116.4466630   9.7860160 131.3282110
 119.3699520  11.9848100 116.6478100 119.7915940  11.8187970 117.4909490
 119.4950360  11.1748330 116.1533240 117.5326940   7.9644650 129.4549080
 117.0023400   7.4735600 128.8272420 118.2015010   8.3928850 128.9207010
 121.8827160  11.0085710 113.8955200 122.4032820  10.2934730 113.5296350
 122.5295560  11.6471580 114.1955710 126.4305000  12.4314110 129.2190270
 126.8446020  12.5859190 130.0680690 125.4956000  12.5569330 129.3816050
 126.9027170   9.7710270 131.2229420 127.4847940   9.0162590 131.1349900
 127.0788940  10.3017710 130.4460900 118.0199240   4.9307020 129.5346370
 117.9256110   4.3127770 128.8097240 117.4396630   5.6573310 129.3076280
 120.7860680   3.4880260 126.5673760 120.3377980   3.5104520 125.7219310
 120.1525880   3.0899280 127.1644060 121.1920230  12.3834590 127.1886200
 121.6108340  13.2267320 127.0162440 120.2728860  12.5206630 126.9592980
 123.5284130  10.1150770 128.5724040 123.6480340   9.5191910 129.3118880
 124.3878130  10.1520460 128.1525340 125.8672030  10.6687960 127.1486550
 125.3407250  11.1930580 126.5451690 126.2103370  11.3015350 127.7796280
 118.2658420   8.0581330 113.5936260 118.0647480   7.1948690 113.9549600
 118.0950470   7.9714690 112.6557860 119.0427650  18.6887600 128.3043930
 118.5048740  19.4133660 127.9852630 119.2961610  18.2117940 127.5141270
 120.2952900   6.6572120 129.8299860 120.8852590   6.3487970 130.5177680
 119.4773140   6.1851870 129.9859760 125.1146330   6.2737930 130.0632880
 124.4261850   5.6119470 129.9982870 125.8352350   5.8276200 130.5081340
 125.7446730   2.8689560 116.1223140 126.0249020   2.0257460 116.4782560
 124.9712460   3.1012670 116.6361890 117.0641220   5.1581950 113.5814140
 117.3667120   5.1649380 112.6733290 117.8035810   4.8079810 114.0781800
 121.8989860  19.9238810 128.5630580 121.8248560  20.8273950 128.8702950
 120.9968700  19.6050710 128.5352650 120.2826150   4.1016570 114.5670340
 119.9348150   3.4240560 113.9872790 120.4838920   3.6406080 115.3813730
 122.4475190  19.0897320 116.1856940 123.3425980  19.4282290 116.2075700
 122.4792820  18.3676730 115.5581220 116.0871350  14.4624370 114.4143940
 116.5246220  15.0054040 115.0701520 116.5719080  13.6371320 114.4240280
 113.3017150  17.2513400 121.8664200 113.6320160  16.3834460 121.6342840
 113.7308150  17.4571920 122.6969160 117.8979070  15.5822410 119.5266170
 117.5974610  15.4587380 120.4270080 117.7916560  14.7231000 119.1181900
 113.7907360  18.1183990 124.6045830 113.3538350  18.2984790 125.4369980
 114.3585040  18.8758610 124.4627550 129.4269540  17.6200990 128.8923140
 128.8271530  17.6793550 128.1487060 129.5563440  16.6805970 129.0219990
 130.6670990  15.3618810 114.2292850 129.8363950  15.4295460 114.7000080
 130.8442820  16.2522930 113.9259710 130.1227450  12.1066290 116.7327050
 130.8846360  12.6762940 116.8386740 130.1381820  11.5393490 117.5035360
 113.6231790  10.6304220 120.9634710 112.9680630  10.3615860 120.3194410
 114.4609740  10.5208700 120.5136690 131.1287420  12.9616390 121.5768980
 131.4996250  12.1783710 121.1704950 131.7689350  13.6505490 121.3986280
 128.1121180  14.3452970 126.9899300 127.2981020  14.7750130 127.2525090
 128.5195380  14.9571380 126.3768350 130.1746620  12.4000660 113.8899570
 130.4495460  13.3079540 113.7618790 129.9857360  12.3363190 114.8261560
 126.5722230   5.4245510 115.1853200 126.9907110   5.2376490 114.3449860
 126.2658290   4.5724560 115.4956130 130.0711960  10.3369650 118.8829000
 129.6955560   9.5697580 118.4510290 129.3415080  10.7192350 119.3703930
 114.6607720  11.0156790 125.5038050 115.0280760  10.9284190 126.3834070
 114.0918540  10.2523340 125.4044910 129.4611580   9.4841170 128.5168520
 129.2297670   9.2553920 127.6166470 129.7216130  10.4040720 128.4713410
 114.2123720   7.9265880 129.4096470 113.3179770   7.8932640 129.7490180
 114.7521270   8.1252670 130.1747720 127.8999650   4.7097600 131.2948220
 128.7769830   4.7181000 131.6782220 127.9120490   3.9728440 130.6840570
 112.8369870   7.8403150 116.9060040 111.9333950   8.1033350 116.7311700
 113.3210490   8.1114320 116.1260000 129.3462920   8.5627140 122.1836240
 129.8700400   8.0689790 121.5526410 129.9322340   8.6977500 122.9283810
 129.5252640   8.6467010 125.7055790 128.5755350   8.6130550 125.8200780
 129.7065650   9.5567120 125.4705560 115.3797080   6.8968690 114.8154420
 116.0888780   6.4751910 114.3301700 114.6637020   6.9643920 114.1837770
 115.0271240   2.9508020 113.8557070 115.7499370   3.4916960 114.1738290
 115.2995760   2.6771440 112.9798610 128.8362890   7.8200490 118.1228650
 129.3322010   7.5871360 118.9077530 128.6378960   6.9812330 117.7066290
 114.7163430   2.2014210 123.7579690 115.3639620   1.6511590 123.3174850
 115.1365270   2.4557360 124.5795500 130.2650050   6.4561440 120.6566330
 130.1549330   6.3017480 121.5948600 131.0257640   5.9282380 120.4141740
 128.6115770   2.3955570 127.1149330 129.2487990   3.0089710 127.4808520
 128.7590660   2.4316230 126.1698560 131.1540320   4.2869360 113.8972470
 132.0789630   4.1550540 113.6890760 131.1316110   4.3662180 114.8508920
 131.2278810   5.0580020 116.5229180 130.4330310   4.9925140 117.0522090
 131.4322090   5.9930660 116.5114530 128.1697230  19.0971570 120.5167570
 128.7656300  18.7756140 119.8401990 128.4275380  18.6243390 121.3080840
 114.4695430   2.3569880 126.5005010 114.1210250   2.8133700 127.2663190
 114.1383130   1.4627010 126.5827440 116.0759800  15.5289480 130.6658200
 116.0329430  15.1582390 131.5472660 116.2070810  16.4667050 130.8060020
 119.7765830  17.0849070 126.2667920 119.5357190  17.3523630 125.3798440
 120.7168470  17.2554800 126.3218780 121.9820250   3.5481760 130.0224430
 121.9209140   4.1403590 130.7719840 122.9220630   3.4407720 129.8774690
 124.6194810   3.2051820 129.6616720 125.2335220   3.5231110 128.9997800
 125.1644370   2.7200410 130.2812580 131.0369990  19.1043450 127.0678560
 130.5428270  19.5012320 126.3505690 130.4283280  18.4792660 127.4615840
 115.9147830  18.4751730 127.7855980 115.3208150  18.3436430 128.5246020
 115.9071670  17.6389870 127.3198080 126.2674830   3.9754830 127.3727730
 125.9388190   3.1606590 126.9929460 127.2157130   3.9324640 127.2493420
 128.7209440  19.7466870 124.3465300 128.2612410  20.4982680 123.9723320
 128.0921900  19.0273340 124.2880100 115.5460060  15.8410110 126.7364020
 114.8194120  15.2215400 126.6689970 115.6069210  16.2350720 125.8662100
 119.1505160  18.0555110 123.5213430 119.6670180  17.4442470 122.9961690
 119.8002540  18.5583890 124.0124440 121.8900660  18.9463600 124.3482410
 122.1778470  18.6917900 123.4715420 122.4023880  18.3940960 124.9387980
 123.1077670   2.6853800 124.9278920 122.3249460   3.1599300 125.2075680
 122.8140600   1.7808630 124.8192100 127.6598740   3.3876900 122.9728010
 128.1006830   3.3322000 122.1249610 127.3906330   4.3034910 123.0438190
 129.5237310   3.0192140 120.9836830 129.4625710   2.0753360 120.8367850
 130.3029340   3.1272230 121.5290290 113.8290060  19.1584500 119.9460780
 113.6612100  18.5255180 120.6442670 112.9624570  19.3643900 119.5954970
 114.4518080   2.9901280 117.4492640 115.2097440   3.1030160 116.8756670
 113.9895250   3.8270480 117.4036070 120.9931890   5.1040550 120.4394950
 120.1806400   4.7297440 120.0990830 121.4973530   4.3485630 120.7416140
 125.4956870   1.7683000 121.6778020 126.0986240   2.3403210 122.1526540
 124.7549860   2.3322440 121.4551920 128.6391470   2.1704560 116.9518300
 128.8342100   3.0688010 117.2185730 127.8521340   1.9391640 117.4451250
 115.4352760  17.8517730 117.3910920 114.9100380  18.2325760 116.6872880
 115.3597340  18.4768500 118.1120630 116.8243230   3.5165330 115.9894610
 117.3535990   2.7295130 115.8602560 117.4571550   4.1956520 116.2230140
 119.0181070   3.2540470 119.0440000 118.3883810   2.5527780 119.2110130
 118.4786210   4.0144600 118.8273160 121.9573020  19.8679700 131.7150610
 122.8840330  19.6323970 131.7586570 121.9423450  20.6951700 131.2336640
 130.1918080  19.4105270 118.7124860 130.3670270  18.7243010 118.0685780
 129.4939650  19.9352320 118.3201530 119.1436630   2.5324450 131.4792490
 118.8620900   3.0358050 130.7153310 119.5256330   1.7346200 131.1134620
 118.0345730  19.8000110 116.2660170 118.7664550  19.5159390 115.7184060
 118.2939400  19.5613390 117.1559550 117.1960520  15.9164840 116.2706500
 116.5669400  16.3849940 116.8192330 117.3108350  15.0714060 116.7052690
 125.7452090   1.9478030 132.0572960 125.6317540   2.2672640 132.9524480
 126.5621830   2.3490540 131.7610240 128.5250580  19.0949560 131.5391650
 129.3175900  18.5998790 131.3317610 128.8183730  19.7739700 132.1467260
 124.6510240   9.9670500 102.4207700 124.5704290   9.0525110 102.1499410
 124.2374660  10.4637570 101.7147410 122.7828280  11.7449520 104.3016970
 122.0070380  11.2649960 104.5915540 123.4341210  11.0655170 104.1273130
 116.7994110  12.0569330 105.1792730 115.9678990  11.8018040 105.5789240
 117.4075090  12.1280100 105.9150650 126.8035710  16.1509710 103.0816100
 126.3417240  15.3796950 103.4103270 127.6161260  16.1775780 103.5868550
 116.7795370  16.0909420 105.3750750 117.0823410  15.2007160 105.1960970
 117.5238960  16.6479640 105.1473000 115.2086060   7.0171220  98.9635120
 114.3202760   7.3587190  98.8615000 115.4927250   6.8171540  98.0715950
 113.1719070   9.6176870 104.8474820 113.7435180   8.8499070 104.8478460
 113.1720610   9.9165630 103.9381430 123.0299020  18.4367720 102.7020090
 122.4110460  18.8925220 102.1314530 123.8850800  18.5919180 102.3009790
 122.2237270  14.4206710 104.3087130 122.1545550  13.4796650 104.1476260
 122.9857130  14.5108120 104.8809700 114.4143940   5.0261230 106.6343750
 114.2346780   4.1286980 106.9146510 114.0124020   5.5733100 107.3090700
 123.2542440   7.2277090 104.5356060 123.6307260   6.3548970 104.4229730
 123.1561950   7.5635790 103.6446500 117.3847450   5.6002720  99.9973500
 117.4914200   6.5006450 100.3042260 116.4739810   5.5520690  99.7068150
 127.0366560   4.7227530 101.4684400 127.8576180   4.2324100 101.5109880
 127.0700640   5.3125190 102.2216240 115.0330610   7.5221730 105.2426090
 115.7140720   7.7860100 105.8613490 114.7178660   6.6822600 105.5764100
 119.2255180   8.5689090 104.3298680 119.7333400   9.0670060 104.9703700
 119.7568420   7.7924290 104.1538040 131.3266110   6.7394280 108.0328030
 130.6218280   7.1275990 107.5143140 131.5924030   7.4344570 108.6348960
 117.5091280   3.2087650 108.5962100 117.5109720   3.7260040 107.7908000
 116.6795590   2.7317830 108.5732030 123.8962370  13.3206960 100.0952000
 123.2779640  13.7856410  99.5314720 124.4085620  14.0134440 100.5121510
 118.7594130  12.8482830 106.7735600 118.4263510  13.4751750 107.4156670
 118.9360810  13.3744710 105.9937270 127.2728040   6.6627910 104.2411940
 126.5683610   6.9512800 104.8215050 127.6340200   7.4728020 103.8811500
 117.1906610   4.9197610 106.6032550 117.5323420   5.7639660 106.3086420
 116.2522420   5.0681350 106.7197890 117.9713230  14.8163630 108.5884780
 118.5887230  15.4914710 108.3069230 117.1106350  15.2251610 108.4972280
 113.2645570  14.0063490  97.4691630 112.8873550  14.4950590  96.7376530
 113.5218640  14.6788770  98.0998160 128.8890820  16.2803040 106.5039420
 128.2054340  16.9502150 106.4956090 129.4285110  16.4783690 105.7384280
 130.3414960   6.1082700 104.6321150 129.3939870   6.1421680 104.7636580
 130.6664950   6.9221650 105.0170510 120.8734500   2.4079880 102.9277140
 121.1809480   1.8526770 102.2112640 119.9435200   2.5424340 102.7450130
 126.4249560  18.1247170 105.2184600 126.4376720  17.7209460 104.3506860
 125.8724780  18.8994460 105.1146030 127.7194980  14.8463390 100.3074770
 127.6091310  13.9037720 100.4324190 127.7163230  15.2079030 101.1937530
 125.8235000  13.0277010 106.5467210 126.2403790  12.8137120 105.7120670
 126.5474820  13.2849800 107.1175830 123.2615260  10.4728710  99.6637260
 122.3344540  10.4066090  99.8925730 123.4140080  11.4108840  99.5492500
 123.2484340   6.7445710  96.6604420 122.3088010   6.9059670  96.7456880
 123.5667600   7.4631390  96.1140410 129.7697100  11.4264230 106.6383450
 128.9415730  11.4957320 106.1633580 130.3647580  12.0118540 106.1699280
 127.2912550  12.0349010 100.1672510 126.6724970  11.6968560  99.5198810
 127.2737000  11.3908770 100.8751700 126.7339110   8.2133550 107.5838320
 126.3210290   9.0387260 107.8378310 126.0015060   7.6278590 107.3914680
 118.8671900  10.9993450 102.4456990 118.4628900  10.2870700 101.9502890
 118.9535020  10.6546690 103.3345030 119.3353600  14.6861010 104.6096200
 119.0381890  14.0806480 103.9303980 120.2853420  14.7238320 104.4985560
 117.5800520   7.7736660 106.2256030 118.1315110   7.8832000 105.4509280
 118.0944030   8.1474260 106.9411260 127.4239210  18.2592880 108.2719300
 126.9469770  19.0665070 108.0791910 126.7401000  17.6071210 108.4245510
 118.4272030  14.4242700 111.2604000 117.5300560  14.6482670 111.5077400
 118.4524900  14.5477640 110.3115400 125.4677250  11.2735820  97.1745260
 125.9070530  10.4358250  97.0283080 126.1805670  11.9065220  97.2609400
 117.2543250  11.2956020 109.8361370 117.1151020  12.1678820 110.2048770
 116.3724610  10.9528830 109.6909310 123.5772630  16.2131890 101.1426500
 124.0168540  16.9556220 100.7281890 123.5159520  16.4558460 102.0665460
 119.0523600  17.2377720 112.0446520 119.0239030  17.6420670 111.1774950
 118.8888570  16.3088080 111.8818120 129.0494390   2.5278630  95.4886300
 128.7367050   2.6205460  96.3885370 129.8106860   3.1059660  95.4383730
 115.5676530   9.8938430  99.9463640 115.4474130  10.6200520  99.3344910
 115.2577420   9.1241340  99.4691550 131.0038420  18.0204820 113.3410690
 131.4798140  18.4987710 114.0199770 131.6245580  17.9522310 112.6156190
 113.2061900  13.0653570 105.7532280 113.2842320  13.2002340 104.8088000
 113.8203580  12.3569460 105.9460400 114.4509530  14.7653760 102.1638460
 114.0437610  14.9068350 101.3092060 115.3422540  14.4813920 101.9609670
 130.4071670  15.2117670 110.5010700 130.5334730  14.9729550 109.5827880
 130.4493050  14.3802210 110.9732780 124.2688410  18.9145670 109.0705510
 124.7833080  18.8253680 109.8727940 123.4257490  19.2605370 109.3633420
 126.2442810  19.2001010  98.4989510 126.0843950  18.9103950  99.3971340
 126.0789520  18.4241140  97.9634740 118.7231190  18.9799540 100.2761130
 118.5473670  18.0635080 100.0628930 117.8686930  19.3386830 100.5158930
 125.9468940  16.7088570  97.0587510 125.2534100  16.7065860  96.3989790
 126.6891800  16.2847890  96.6281680 125.5118870  18.3351280 101.1336000
 125.9675820  17.5540660 101.4474620 125.8511390  19.0458100 101.6777180
 130.2595680   7.2650130 111.4660440 129.6439950   7.7729800 110.9375900
 129.9392100   6.3648460 111.4086380 113.2621420  14.1067740 108.2926740
 113.4252460  13.6373100 107.4746110 113.7273870  13.5991300 108.9575580
 118.0340190   3.2373500 103.3287310 117.5908340   4.0183040 102.9971830
 118.5925180   3.5603390 104.0358250 122.3210000   6.1042020 108.9322630
 121.8589370   6.3125040 109.7442570 121.9188110   5.2901370 108.6293300
 127.3214510   7.3250970 110.0619290 126.4708100   7.0256720 110.3828360
 127.1616300   7.5692980 109.1503110 124.4164220   8.8252720 112.1618080
 124.7417630   7.9916470 111.8220310 125.2044550   9.3481240 112.3096410
 121.1499010   2.8584200  98.2093140 120.5253190   2.8544070  98.9346450
 121.0629130   1.9915160  97.8129110 120.0716090   3.7820830 105.1876910
 120.3688420   4.6883660 105.1068930 120.6201650   3.2939610 104.5736480
 117.8254410   8.3607070 101.0568560 117.5995330   8.1444240 101.9615180
 117.0446940   8.7935530 100.7114530 125.0552170   8.3670440  99.6559210
 124.4561060   9.0906240  99.4722830 125.6031780   8.3047220  98.8735660
 120.2653620   9.2592650 111.7228830 120.1697220   8.3187380 111.5729230
 121.1085600   9.4807720 111.3276900 123.6617040   7.0033980 101.6862490
 124.0546610   7.3206180 100.8731180 124.0233890   6.1245860 101.8007010
 115.3964160   5.6706320 109.8762610 115.0027550   6.5181530 110.0835390
 114.7082560   5.0332690 110.0671250 121.9709210   5.7541290 112.9459350
 121.2807530   5.5613490 113.5805440 122.7141510   6.0375930 113.4783650
 112.6981210   3.5934780 103.9092690 112.4094260   4.1637640 104.6217670
 113.4426970   3.1139230 104.2723920 112.8851440   7.5354900  95.1195410
 112.8026110   8.4785660  95.2610400 112.5334500   7.3929810  94.2407760
 124.2472180   9.5939730 105.7813270 123.5153300  10.1026540 106.1303370
 123.8496520   8.7769710 105.4802050 120.6849570   6.2693930 104.1865760
 120.6885630   5.8283880 103.3370300 121.5800690   6.5911260 104.2937580
 116.5351950   6.1520420 103.1459970 116.1952000   6.6295650 103.9027020
 115.7729270   5.6985540 102.7861070 120.7469720   7.2706010  97.1772520
 120.8682540   7.2292490  98.1258340 120.3618230   8.1330160  97.0219250
 124.7098090   5.0473410 105.1936210 124.7270830   5.4982060 106.0378060
 124.4613670   4.1479050 105.4069650 119.7591220   9.5807150  96.5755820
 119.1908120   9.1325400  95.9491730 120.4680220   9.9399930  96.0420970
 128.1368840   2.4605590 111.0322590 128.4614610   1.7295250 111.5580570
 128.1725350   2.1419230 110.1303580 114.8360400  13.4819170 110.4522550
 114.4515190  12.8412840 111.0505510 115.1472590  14.1855290 111.0217280
 120.9857540  10.3295710 105.9331170 121.3527670   9.8554280 106.6792510
 120.7962600  11.2037280 106.2739510 113.8498030   5.0739400 102.0624640
 113.5644950   4.7095070 102.9003260 113.7876890   4.3419860 101.4487780
 118.7756910   9.3704350 108.2515380 118.4713980  10.2496330 108.4765740
 119.7303370   9.4304140 108.2872820 117.3038700  13.5765340  98.8482230
 116.5300960  13.0362960  98.6880950 118.0333330  13.0571950  98.5099990
 128.0626680  12.5730700 104.6408620 128.7825800  13.0685990 104.2504730
 127.8608500  11.8948590 103.9962490 123.5236620   3.9668660  98.7838010
 122.7101230   3.4681830  98.7083320 123.3298570   4.8066910  98.3674360
 123.4445480  12.6439760 110.5277620 123.3782790  11.7235430 110.2735210
 122.8150620  12.7415200 111.2422260 126.2385010   8.3388310  97.0800170
 127.1264630   8.6505540  96.9051510 126.2090100   7.4660560  96.6880750
 117.3476100  13.2445720 102.4861040 117.8654770  12.4413980 102.4317930
 116.8960120  13.1824860 103.3277870 122.2345600  14.5112000  97.7588340
 122.5761300  15.2554230  97.2631660 121.4058310  14.8243120  98.1213170
 114.8320640  10.2107090 109.3986740 114.4735580  10.8760940 109.9860080
 114.5375200   9.3790640 109.7699360 118.0333760  10.6691330 112.2826290
 117.7333900  10.8148510 111.3854110 118.8045000  10.1096620 112.1899680
 123.3762210  15.4660330 110.2781420 123.3906750  14.5341290 110.0600330
 122.6687310  15.5520090 110.9171190 128.5099280   9.6500150  96.5480030
 128.4263000  10.0814370  95.6976470 129.2293470  10.1098500  96.9806850
 129.5873420  12.1067670 109.6250000 128.8621610  12.6996450 109.4279390
 130.1148880  12.0991210 108.8263370 129.5386530  16.5042410  99.2762160
 128.8962690  15.8498030  99.5505880 129.1517190  16.9097500  98.5002830
 125.1173010  13.8327840 103.1233850 125.4696830  13.2355970 102.4635220
 124.2335340  13.5072070 103.2942100 121.2036290  14.5925530 100.5304260
 121.8907420  15.1394740 100.9111850 120.4168710  15.1366260 100.5653870
 113.3428690  10.2098350  96.0221340 114.2123540  10.4923150  96.3057260
 112.8519010  11.0234220  95.9070150 120.5063500  11.5971560 100.1429620
 120.9626280  12.4076810 100.3689810 120.1551710  11.2794700 100.9748110
 122.8096110  17.1077900 107.3721920 123.4538330  17.3137280 108.0495340
 123.1725550  16.3466300 106.9192770 116.4075280   1.9409210 100.6152140
 116.2789910   1.9327110 101.5637060 115.5837300   2.2792300 100.2643150
 124.0828190  15.1110250 106.0899370 124.7250420  14.4103410 106.2031540
 124.6077540  15.8908690 105.9096260 127.9283910  15.3958870  95.8138510
 127.7021490  14.6789310  96.4063150 127.5380110  15.1471310  94.9760260
 125.8565810  15.9105150 109.2935430 126.1922050  16.4971840 109.9713350
 124.9366150  15.7797860 109.5233220 113.7099940  19.4225730  96.5882970
 114.0697580  20.0215070  95.9340240 113.5692280  19.9685620  97.3618000
 113.4069210   3.7000330 110.0758840 112.6927730   3.8997250 110.6811450
 113.8264250   2.9239900 110.4473640 127.5100160  13.3130810  97.4752670
 127.2221860  13.7743500  98.2630550 128.3052330  12.8528580  97.7436890
 113.6941800  17.6880590 111.0625370 113.8032920  16.7475330 110.9220760
 113.0422360  17.9535340 110.4139100 121.6854390  15.9596480 112.4623490
 121.3651260  15.2405720 113.0069180 121.0112750  16.6351550 112.5359550
 119.7268560  16.8056930  97.4056640 119.7178660  17.5386620  96.7901150
 118.8066920  16.5588510  97.4983600 115.3275200  12.0271820  98.1503400
 114.7203150  12.7670720  98.1598700 115.8024550  12.1171180  97.3241600
 124.9007990   6.1922640 107.8260290 125.2688810   5.3717850 108.1539860
 124.0406190   6.2524530 108.2415940 128.2670020   5.1479580  98.6347850
 127.6383180   5.2525250  97.9206080 127.7721940   5.3676360  99.4241730
 122.7128160  16.8685170  96.0681830 122.8140140  16.6649160  95.1383810
 121.8129900  16.6143450  96.2729610 120.2354050   7.4265530 100.0505730
 119.5270200   7.8951870 100.4919340 120.5198530   6.7687540 100.6850920
 121.8609980   8.8462230 108.0498260 122.3595230   9.3208050 108.7150110
 122.0032930   7.9225750 108.2568290 124.2669480   4.1516190 101.4901520
 124.1437260   4.1702320 100.5411030 125.2154040   4.1995130 101.6099920
 121.3546270  19.3871490 100.7629500 121.6087770  19.3492880  99.8408870
 120.4058750  19.2604820 100.7557750 118.4389070   5.7350610  97.4256440
 119.2879600   6.1720760  97.3596630 118.0720340   6.0470870  98.2528500
 129.0676840   5.0630190 108.8926650 128.5650440   5.8035590 109.2320460
 129.8833500   5.4514190 108.5763440 127.3598850  10.3063370 102.3388010
 126.4188990  10.3213600 102.5135700 127.6742920   9.5199330 102.7848310
 117.3380490  11.9882970  95.8991970 118.1043760  11.8764330  96.4617400
 117.4155180  11.2920940  95.2468740 116.0327250   9.4208040  96.5824860
 116.1130840   8.4735550  96.6942260 116.9247000   9.7514920  96.6885520
 129.3624430  17.4772220 104.0142270 129.4871850  18.3003390 104.4866080
 130.2289990  17.2662950 103.6666420 116.8341960  19.5703430 103.6859400
 117.5704440  19.0218890 103.9567970 117.2182880  20.4359440 103.5465390
 113.7187440  15.6377000  99.5600910 112.7927220  15.8798140  99.5506320
 114.1843870  16.4651260  99.4385660 115.8400240  18.7549500 112.8744980
 116.6412970  19.0761550 113.2880380 115.3252060  18.3945080 113.5964890
 119.9444270  18.7433740  95.5084970 120.7372880  19.0322570  95.0566760
 119.4248620  18.3125910  94.8297450 124.6764870  14.8629370 112.8220390
 124.0703030  14.8860970 112.0816140 124.3718980  14.1312410 113.3587640
 126.1065240  18.5909660 111.4329800 127.0586990  18.5067680 111.3830040
 125.9593460  19.2551370 112.1063590 128.9974440  17.9703870  96.9321710
 128.7115950  17.5569010  96.1175890 128.7993990  18.8991580  96.8122230
 113.5598050  11.2422960 111.8181030 114.0637070  10.6630240 112.3897260
 112.8205470  11.5263190 112.3557400 120.4621670  13.9637150  95.3727320
 120.3572310  13.3489500  96.0988700 120.2945890  13.4403040  94.5890330
 120.6135990  12.6493950 111.3516550 119.8481660  13.2178950 111.2671220
 120.7951950  12.3570160 110.4584780 123.7024400  13.0257180  95.9769310
 123.1534500  13.4726480  96.6212050 124.3243660  12.5206430  96.5006980
 127.7559340  14.3799280 111.9091570 128.4968810  14.7175040 111.4059030
 126.9932020  14.5491340 111.3561340 115.5921130   9.3852550 112.7131100
 115.6326470   9.0866420 113.6216330 116.4466630   9.7860160 112.5538620
 119.3699520  11.9848100  97.8734610 119.7915940  11.8187970  98.7166000
 119.4950360  11.1748330  97.3789750 117.5326940   7.9644650 110.6805590
 117.0023400   7.4735600 110.0528930 118.2015010   8.3928850 110.1463520
 121.8827160  11.0085710  95.1211710 122.4032820  10.2934730  94.7552860
 122.5295560  11.6471580  95.4212220 126.4305000  12.4314110 110.4446780
 126.8446020  12.5859190 111.2937200 125.4956000  12.5569330 110.6072560
 126.9027170   9.7710270 112.4485930 127.4847940   9.0162590 112.3606410
 127.0788940  10.3017710 111.6717410 118.0199240   4.9307020 110.7602880
 117.9256110   4.3127770 110.0353750 117.4396630   5.6573310 110.5332790
 120.7860680   3.4880260 107.7930270 120.3377980   3.5104520 106.9475820
 120.1525880   3.0899280 108.3900570 121.1920230  12.3834590 108.4142710
 121.6108340  13.2267320 108.2418950 120.2728860  12.5206630 108.1849490
 123.5284130  10.1150770 109.7980550 123.6480340   9.5191910 110.5375390
 124.3878130  10.1520460 109.3781850 125.8672030  10.6687960 108.3743060
 125.3407250  11.1930580 107.7708200 126.2103370  11.3015350 109.0052790
 118.2658420   8.0581330  94.8192770 118.0647480   7.1948690  95.1806110
 118.0950470   7.9714690  93.8814370 119.0427650  18.6887600 109.5300440
 118.5048740  19.4133660 109.2109140 119.2961610  18.2117940 108.7397780
 120.2952900   6.6572120 111.0556370 120.8852590   6.3487970 111.7434190
 119.4773140   6.1851870 111.2116270 125.1146330   6.2737930 111.2889390
 124.4261850   5.6119470 111.2239380 125.8352350   5.8276200 111.7337850
 125.7446730   2.8689560  97.3479650 126.0249020   2.0257460  97.7039070
 124.9712460   3.1012670  97.8618400 117.0641220   5.1581950  94.8070650
 117.3667120   5.1649380  93.8989800 117.8035810   4.8079810  95.3038310
 121.8989860  19.9238810 109.7887090 121.8248560  20.8273950 110.0959460
 120.9968700  19.6050710 109.7609160 120.2826150   4.1016570  95.7926850
 119.9348150   3.4240560  95.2129300 120.4838920   3.6406080  96.6070240
 122.4475190  19.0897320  97.4113450 123.3425980  19.4282290  97.4332210
 122.4792820  18.3676730  96.7837730 116.0871350  14.4624370  95.6400450
 116.5246220  15.0054040  96.2958030 116.5719080  13.6371320  95.6496790
 113.3017150  17.2513400 103.0920710 113.6320160  16.3834460 102.8599350
 113.7308150  17.4571920 103.9225670 117.8979070  15.5822410 100.7522680
 117.5974610  15.4587380 101.6526590 117.7916560  14.7231000 100.3438410
 113.7907360  18.1183990 105.8302340 113.3538350  18.2984790 106.6626490
 114.3585040  18.8758610 105.6884060 129.4269540  17.6200990 110.1179650
 128.8271530  17.6793550 109.3743570 129.5563440  16.6805970 110.2476500
 130.6670990  15.3618810  95.4549360 129.8363950  15.4295460  95.9256590
 130.8442820  16.2522930  95.1516220 130.1227450  12.1066290  97.9583560
 130.8846360  12.6762940  98.0643250 130.1381820  11.5393490  98.7291870
 113.6231790  10.6304220 102.1891220 112.9680630  10.3615860 101.5450920
 114.4609740  10.5208700 101.7393200 131.1287420  12.9616390 102.8025490
 131.4996250  12.1783710 102.3961460 131.7689350  13.6505490 102.6242790
 128.1121180  14.3452970 108.2155810 127.2981020  14.7750130 108.4781600
 128.5195380  14.9571380 107.6024860 130.1746620  12.4000660  95.1156080
 130.4495460  13.3079540  94.9875300 129.9857360  12.3363190  96.0518070
 126.5722230   5.4245510  96.4109710 126.9907110   5.2376490  95.5706370
 126.2658290   4.5724560  96.7212640 130.0711960  10.3369650 100.1085510
 129.6955560   9.5697580  99.6766800 129.3415080  10.7192350 100.5960440
 114.6607720  11.0156790 106.7294560 115.0280760  10.9284190 107.6090580
 114.0918540  10.2523340 106.6301420 129.4611580   9.4841170 109.7425030
 129.2297670   9.2553920 108.8422980 129.7216130  10.4040720 109.6969920
 114.2123720   7.9265880 110.6352980 113.3179770   7.8932640 110.9746690
 114.7521270   8.1252670 111.4004230 127.8999650   4.7097600 112.5204730
 128.7769830   4.7181000 112.9038730 127.9120490   3.9728440 111.9097080
 112.8369870   7.8403150  98.1316550 111.9333950   8.1033350  97.9568210
 113.3210490   8.1114320  97.3516510 129.3462920   8.5627140 103.4092750
 129.8700400   8.0689790 102.7782920 129.9322340   8.6977500 104.1540320
 129.5252640   8.6467010 106.9312300 128.5755350   8.6130550 107.0457290
 129.7065650   9.5567120 106.6962070 115.3797080   6.8968690  96.0410930
 116.0888780   6.4751910  95.5558210 114.6637020   6.9643920  95.4094280
 115.0271240   2.9508020  95.0813580 115.7499370   3.4916960  95.3994800
 115.2995760   2.6771440  94.2055120 128.8362890   7.8200490  99.3485160
 129.3322010   7.5871360 100.1334040 128.6378960   6.9812330  98.9322800
 114.7163430   2.2014210 104.9836200 115.3639620   1.6511590 104.5431360
 115.1365270   2.4557360 105.8052010 130.2650050   6.4561440 101.8822840
 130.1549330   6.3017480 102.8205110 131.0257640   5.9282380 101.6398250
 128.6115770   2.3955570 108.3405840 129.2487990   3.0089710 108.7065030
 128.7590660   2.4316230 107.3955070 131.1540320   4.2869360  95.1228980
 132.0789630   4.1550540  94.9147270 131.1316110   4.3662180  96.0765430
 131.2278810   5.0580020  97.7485690 130.4330310   4.9925140  98.2778600
 131.4322090   5.9930660  97.7371040 128.1697230  19.0971570 101.7424080
 128.7656300  18.7756140 101.0658500 128.4275380  18.6243390 102.5337350
 114.4695430   2.3569880 107.7261520 114.1210250   2.8133700 108.4919700
 114.1383130   1.4627010 107.8083950 116.0759800  15.5289480 111.8914710
 116.0329430  15.1582390 112.7729170 116.2070810  16.4667050 112.0316530
 119.7765830  17.0849070 107.4924430 119.5357190  17.3523630 106.6054950
 120.7168470  17.2554800 107.5475290 121.9820250   3.5481760 111.2480940
 121.9209140   4.1403590 111.9976350 122.9220630   3.4407720 111.1031200
 124.6194810   3.2051820 110.8873230 125.2335220   3.5231110 110.2254310
 125.1644370   2.7200410 111.5069090 131.0369990  19.1043450 108.2935070
 130.5428270  19.5012320 107.5762200 130.4283280  18.4792660 108.6872350
 115.9147830  18.4751730 109.0112490 115.3208150  18.3436430 109.7502530
 115.9071670  17.6389870 108.5454590 126.2674830   3.9754830 108.5984240
 125.9388190   3.1606590 108.2185970 127.2157130   3.9324640 108.4749930
 128.7209440  19.7466870 105.5721810 128.2612410  20.4982680 105.1979830
 128.0921900  19.0273340 105.5136610 115.5460060  15.8410110 107.9620530
 114.8194120  15.2215400 107.8946480 115.6069210  16.2350720 107.0918610
 119.1505160  18.0555110 104.7469940 119.6670180  17.4442470 104.2218200
 119.8002540  18.5583890 105.2380950 121.8900660  18.9463600 105.5738920
 122.1778470  18.6917900 104.6971930 122.4023880  18.3940960 106.1644490
 123.1077670   2.6853800 106.1535430 122.3249460   3.1599300 106.4332190
 122.8140600   1.7808630 106.0448610 127.6598740   3.3876900 104.1984520
 128.1006830   3.3322000 103.3506120 127.3906330   4.3034910 104.2694700
 129.5237310   3.0192140 102.2093340 129.4625710   2.0753360 102.0624360
 130.3029340   3.1272230 102.7546800 113.8290060  19.1584500 101.1717290
 113.6612100  18.5255180 101.8699180 112.9624570  19.3643900 100.8211480
 114.4518080   2.9901280  98.6749150 115.2097440   3.1030160  98.1013180
 113.9895250   3.8270480  98.6292580 120.9931890   5.1040550 101.6651460
 120.1806400   4.7297440 101.3247340 121.4973530   4.3485630 101.9672650
 125.4956870   1.7683000 102.9034530 126.0986240   2.3403210 103.3783050
 124.7549860   2.3322440 102.6808430 128.6391470   2.1704560  98.1774810
 128.8342100   3.0688010  98.4442240 127.8521340   1.9391640  98.6707760
 115.4352760  17.8517730  98.6167430 114.9100380  18.2325760  97.9129390
 115.3597340  18.4768500  99.3377140 116.8243230   3.5165330  97.2151120
 117.3535990   2.7295130  97.0859070 117.4571550   4.1956520  97.4486650
 119.0181070   3.2540470 100.2696510 118.3883810   2.5527780 100.4366640
 118.4786210   4.0144600 100.0529670 121.9573020  19.8679700 112.9407120
 122.8840330  19.6323970 112.9843080 121.9423450  20.6951700 112.4593150
 130.1918080  19.4105270  99.9381370 130.3670270  18.7243010  99.2942290
 129.4939650  19.9352320  99.5458040 119.1436630   2.5324450 112.7049000
 118.8620900   3.0358050 111.9409820 119.5256330   1.7346200 112.3391130
 118.0345730  19.8000110  97.4916680 118.7664550  19.5159390  96.9440570
 118.2939400  19.5613390  98.3816060 117.1960520  15.9164840  97.4963010
 116.5669400  16.3849940  98.0448840 117.3108350  15.0714060  97.9309200
 125.7452090   1.9478030 113.2829470 125.6317540   2.2672640 114.1780990
 126.5621830   2.3490540 112.9866750 128.5250580  19.0949560 112.7648160
 129.3175900  18.5998790 112.5574120 128.8183730  19.7739700 113.3723770
 124.6510240   9.9670500  83.6464210 124.5704290   9.0525110  83.3755920
 124.2374660  10.4637570  82.9403920 122.7828280  11.7449520  85.5273480
 122.0070380  11.2649960  85.8172050 123.4341210  11.0655170  85.3529640
 116.7994110  12.0569330  86.4049240 115.9678990  11.8018040  86.8045750
 117.4075090  12.1280100  87.1407160 126.8035710  16.1509710  84.3072610
 126.3417240  15.3796950  84.6359780 127.6161260  16.1775780  84.8125060
 116.7795370  16.0909420  86.6007260 117.0823410  15.2007160  86.4217480
 117.5238960  16.6479640  86.3729510 115.2086060   7.0171220  80.1891630
 114.3202760   7.3587190  80.0871510 115.4927250   6.8171540  79.2972460
 113.1719070   9.6176870  86.0731330 113.7435180   8.8499070  86.0734970
 113.1720610   9.9165630  85.1637940 123.0299020  18.4367720  83.9276600
 122.4110460  18.8925220  83.3571040 123.8850800  18.5919180  83.5266300
 122.2237270  14.4206710  85.5343640 122.1545550  13.4796650  85.3732770
 122.9857130  14.5108120  86.1066210 114.4143940   5.0261230  87.8600260
 114.2346780   4.1286980  88.1403020 114.0124020   5.5733100  88.5347210
 123.2542440   7.2277090  85.7612570 123.6307260   6.3548970  85.6486240
 123.1561950   7.5635790  84.8703010 117.3847450   5.6002720  81.2230010
 117.4914200   6.5006450  81.5298770 116.4739810   5.5520690  80.9324660
 127.0366560   4.7227530  82.6940910 127.8576180   4.2324100  82.7366390
 127.0700640   5.3125190  83.4472750 115.0330610   7.5221730  86.4682600
 115.7140720   7.7860100  87.0870000 114.7178660   6.6822600  86.8020610
 119.2255180   8.5689090  85.5555190 119.7333400   9.0670060  86.1960210
 119.7568420   7.7924290  85.3794550 131.3266110   6.7394280  89.2584540
 130.6218280   7.1275990  88.7399650 131.5924030   7.4344570  89.8605470
 117.5091280   3.2087650  89.8218610 117.5109720   3.7260040  89.0164510
 116.6795590   2.7317830  89.7988540 123.8962370  13.3206960  81.3208510
 123.2779640  13.7856410  80.7571230 124.4085620  14.0134440  81.7378020
 118.7594130  12.8482830  87.9992110 118.4263510  13.4751750  88.6413180
 118.9360810  13.3744710  87.2193780 127.2728040   6.6627910  85.4668450
 126.5683610   6.9512800  86.0471560 127.6340200   7.4728020  85.1068010
 117.1906610   4.9197610  87.8289060 117.5323420   5.7639660  87.5342930
 116.2522420   5.0681350  87.9454400 117.9713230  14.8163630  89.8141290
 118.5887230  15.4914710  89.5325740 117.1106350  15.2251610  89.7228790
 113.2645570  14.0063490  78.6948140 112.8873550  14.4950590  77.9633040
 113.5218640  14.6788770  79.3254670 128.8890820  16.2803040  87.7295930
 128.2054340  16.9502150  87.7212600 129.4285110  16.4783690  86.9640790
 130.3414960   6.1082700  85.8577660 129.3939870   6.1421680  85.9893090
 130.6664950   6.9221650  86.2427020 120.8734500   2.4079880  84.1533650
 121.1809480   1.8526770  83.4369150 119.9435200   2.5424340  83.9706640
 126.4249560  18.1247170  86.4441110 126.4376720  17.7209460  85.5763370
 125.8724780  18.8994460  86.3402540 127.7194980  14.8463390  81.5331280
 127.6091310  13.9037720  81.6580700 127.7163230  15.2079030  82.4194040
 125.8235000  13.0277010  87.7723720 126.2403790  12.8137120  86.9377180
 126.5474820  13.2849800  88.3432340 123.2615260  10.4728710  80.8893770
 122.3344540  10.4066090  81.1182240 123.4140080  11.4108840  80.7749010
 123.2484340   6.7445710  77.8860930 122.3088010   6.9059670  77.9713390
 123.5667600   7.4631390  77.3396920 129.7697100  11.4264230  87.8639960
 128.9415730  11.4957320  87.3890090 130.3647580  12.0118540  87.3955790
 127.2912550  12.0349010  81.3929020 126.6724970  11.6968560  80.7455320
 127.2737000  11.3908770  82.1008210 126.7339110   8.2133550  88.8094830
 126.3210290   9.0387260  89.0634820 126.0015060   7.6278590  88.6171190
 118.8671900  10.9993450  83.6713500 118.4628900  10.2870700  83.1759400
 118.9535020  10.6546690  84.5601540 119.3353600  14.6861010  85.8352710
 119.0381890  14.0806480  85.1560490 120.2853420  14.7238320  85.7242070
 117.5800520   7.7736660  87.4512540 118.1315110   7.8832000  86.6765790
 118.0944030   8.1474260  88.1667770 127.4239210  18.2592880  89.4975810
 126.9469770  19.0665070  89.3048420 126.7401000  17.6071210  89.6502020
 118.4272030  14.4242700  92.4860510 117.5300560  14.6482670  92.7333910
 118.4524900  14.5477640  91.5371910 125.4677250  11.2735820  78.4001770
 125.9070530  10.4358250  78.2539590 126.1805670  11.9065220  78.4865910
 117.2543250  11.2956020  91.0617880 117.1151020  12.1678820  91.4305280
 116.3724610  10.9528830  90.9165820 123.5772630  16.2131890  82.3683010
 124.0168540  16.9556220  81.9538400 123.5159520  16.4558460  83.2921970
 119.0523600  17.2377720  93.2703030 119.0239030  17.6420670  92.4031460
 118.8888570  16.3088080  93.1074630 129.0494390   2.5278630  76.7142810
 128.7367050   2.6205460  77.6141880 129.8106860   3.1059660  76.6640240
 115.5676530   9.8938430  81.1720150 115.4474130  10.6200520  80.5601420
 115.2577420   9.1241340  80.6948060 131.0038420  18.0204820  94.5667200
 131.4798140  18.4987710  95.2456280 131.6245580  17.9522310  93.8412700
 113.2061900  13.0653570  86.9788790 113.2842320  13.2002340  86.0344510
 113.8203580  12.3569460  87.1716910 114.4509530  14.7653760  83.3894970
 114.0437610  14.9068350  82.5348570 115.3422540  14.4813920  83.1866180
 130.4071670  15.2117670  91.7267210 130.5334730  14.9729550  90.8084390
 130.4493050  14.3802210  92.1989290 124.2688410  18.9145670  90.2962020
 124.7833080  18.8253680  91.0984450 123.4257490  19.2605370  90.5889930
 126.2442810  19.2001010  79.7246020 126.0843950  18.9103950  80.6227850
 126.0789520  18.4241140  79.1891250 118.7231190  18.9799540  81.5017640
 118.5473670  18.0635080  81.2885440 117.8686930  19.3386830  81.7415440
 125.9468940  16.7088570  78.2844020 125.2534100  16.7065860  77.6246300
 126.6891800  16.2847890  77.8538190 125.5118870  18.3351280  82.3592510
 125.9675820  17.5540660  82.6731130 125.8511390  19.0458100  82.9033690
 130.2595680   7.2650130  92.6916950 129.6439950   7.7729800  92.1632410
 129.9392100   6.3648460  92.6342890 113.2621420  14.1067740  89.5183250
 113.4252460  13.6373100  88.7002620 113.7273870  13.5991300  90.1832090
 118.0340190   3.2373500  84.5543820 117.5908340   4.0183040  84.2228340
 118.5925180   3.5603390  85.2614760 122.3210000   6.1042020  90.1579140
 121.8589370   6.3125040  90.9699080 121.9188110   5.2901370  89.8549810
 127.3214510   7.3250970  91.2875800 126.4708100   7.0256720  91.6084870
 127.1616300   7.5692980  90.3759620 124.4164220   8.8252720  93.3874590
 124.7417630   7.9916470  93.0476820 125.2044550   9.3481240  93.5352920
 121.1499010   2.8584200  79.4349650 120.5253190   2.8544070  80.1602960
 121.0629130   1.9915160  79.0385620 120.0716090   3.7820830  86.4133420
 120.3688420   4.6883660  86.3325440 120.6201650   3.2939610  85.7992990
 117.8254410   8.3607070  82.2825070 117.5995330   8.1444240  83.1871690
 117.0446940   8.7935530  81.9371040 125.0552170   8.3670440  80.8815720
 124.4561060   9.0906240  80.6979340 125.6031780   8.3047220  80.0992170
 120.2653620   9.2592650  92.9485340 120.1697220   8.3187380  92.7985740
 121.1085600   9.4807720  92.5533410 123.6617040   7.0033980  82.9119000
 124.0546610   7.3206180  82.0987690 124.0233890   6.1245860  83.0263520
 115.3964160   5.6706320  91.1019120 115.0027550   6.5181530  91.3091900
 114.7082560   5.0332690  91.2927760 121.9709210   5.7541290  94.1715860
 121.2807530   5.5613490  94.8061950 122.7141510   6.0375930  94.7040160
 112.6981210   3.5934780  85.1349200 112.4094260   4.1637640  85.8474180
 113.4426970   3.1139230  85.4980430 112.8851440   7.5354900  76.3451920
 112.8026110   8.4785660  76.4866910 112.5334500   7.3929810  75.4664270
 124.2472180   9.5939730  87.0069780 123.5153300  10.1026540  87.3559880
 123.8496520   8.7769710  86.7058560 120.6849570   6.2693930  85.4122270
 120.6885630   5.8283880  84.5626810 121.5800690   6.5911260  85.5194090
 116.5351950   6.1520420  84.3716480 116.1952000   6.6295650  85.1283530
 115.7729270   5.6985540  84.0117580 120.7469720   7.2706010  78.4029030
 120.8682540   7.2292490  79.3514850 120.3618230   8.1330160  78.2475760
 124.7098090   5.0473410  86.4192720 124.7270830   5.4982060  87.2634570
 124.4613670   4.1479050  86.6326160 119.7591220   9.5807150  77.8012330
 119.1908120   9.1325400  77.1748240 120.4680220   9.9399930  77.2677480
 128.1368840   2.4605590  92.2579100 128.4614610   1.7295250  92.7837080
 128.1725350   2.1419230  91.3560090 114.8360400  13.4819170  91.6779060
 114.4515190  12.8412840  92.2762020 115.1472590  14.1855290  92.2473790
 120.9857540  10.3295710  87.1587680 121.3527670   9.8554280  87.9049020
 120.7962600  11.2037280  87.4996020 113.8498030   5.0739400  83.2881150
 113.5644950   4.7095070  84.1259770 113.7876890   4.3419860  82.6744290
 118.7756910   9.3704350  89.4771890 118.4713980  10.2496330  89.7022250
 119.7303370   9.4304140  89.5129330 117.3038700  13.5765340  80.0738740
 116.5300960  13.0362960  79.9137460 118.0333330  13.0571950  79.7356500
 128.0626680  12.5730700  85.8665130 128.7825800  13.0685990  85.4761240
 127.8608500  11.8948590  85.2219000 123.5236620   3.9668660  80.0094520
 122.7101230   3.4681830  79.9339830 123.3298570   4.8066910  79.5930870
 123.4445480  12.6439760  91.7534130 123.3782790  11.7235430  91.4991720
 122.8150620  12.7415200  92.4678770 126.2385010   8.3388310  78.3056680
 127.1264630   8.6505540  78.1308020 126.2090100   7.4660560  77.9137260
 117.3476100  13.2445720  83.7117550 117.8654770  12.4413980  83.6574440
 116.8960120  13.1824860  84.5534380 122.2345600  14.5112000  78.9844850
 122.5761300  15.2554230  78.4888170 121.4058310  14.8243120  79.3469680
 114.8320640  10.2107090  90.6243250 114.4735580  10.8760940  91.2116590
 114.5375200   9.3790640  90.9955870 118.0333760  10.6691330  93.5082800
 117.7333900  10.8148510  92.6110620 118.8045000  10.1096620  93.4156190
 123.3762210  15.4660330  91.5037930 123.3906750  14.5341290  91.2856840
 122.6687310  15.5520090  92.1427700 128.5099280   9.6500150  77.7736540
 128.4263000  10.0814370  76.9232980 129.2293470  10.1098500  78.2063360
 129.5873420  12.1067670  90.8506510 128.8621610  12.6996450  90.6535900
 130.1148880  12.0991210  90.0519880 129.5386530  16.5042410  80.5018670
 128.8962690  15.8498030  80.7762390 129.1517190  16.9097500  79.7259340
 125.1173010  13.8327840  84.3490360 125.4696830  13.2355970  83.6891730
 124.2335340  13.5072070  84.5198610 121.2036290  14.5925530  81.7560770
 121.8907420  15.1394740  82.1368360 120.4168710  15.1366260  81.7910380
 113.3428690  10.2098350  77.2477850 114.2123540  10.4923150  77.5313770
 112.8519010  11.0234220  77.1326660 120.5063500  11.5971560  81.3686130
 120.9626280  12.4076810  81.5946320 120.1551710  11.2794700  82.2004620
 122.8096110  17.1077900  88.5978430 123.4538330  17.3137280  89.2751850
 123.1725550  16.3466300  88.1449280 116.4075280   1.9409210  81.8408650
 116.2789910   1.9327110  82.7893570 115.5837300   2.2792300  81.4899660
 124.0828190  15.1110250  87.3155880 124.7250420  14.4103410  87.4288050
 124.6077540  15.8908690  87.1352770 127.9283910  15.3958870  77.0395020
 127.7021490  14.6789310  77.6319660 127.5380110  15.1471310  76.2016770
 125.8565810  15.9105150  90.5191940 126.1922050  16.4971840  91.1969860
 124.9366150  15.7797860  90.7489730 113.7099940  19.4225730  77.8139480
 114.0697580  20.0215070  77.1596750 113.5692280  19.9685620  78.5874510
 113.4069210   3.7000330  91.3015350 112.6927730   3.8997250  91.9067960
 113.8264250   2.9239900  91.6730150 127.5100160  13.3130810  78.7009180
 127.2221860  13.7743500  79.4887060 128.3052330  12.8528580  78.9693400
 113.6941800  17.6880590  92.2881880 113.8032920  16.7475330  92.1477270
 113.0422360  17.9535340  91.6395610 121.6854390  15.9596480  93.6880000
 121.3651260  15.2405720  94.2325690 121.0112750  16.6351550  93.7616060
 119.7268560  16.8056930  78.6313150 119.7178660  17.5386620  78.0157660
 118.8066920  16.5588510  78.7240110 115.3275200  12.0271820  79.3759910
 114.7203150  12.7670720  79.3855210 115.8024550  12.1171180  78.5498110
 124.9007990   6.1922640  89.0516800 125.2688810   5.3717850  89.3796370
 124.0406190   6.2524530  89.4672450 128.2670020   5.1479580  79.8604360
 127.6383180   5.2525250  79.1462590 127.7721940   5.3676360  80.6498240
 122.7128160  16.8685170  77.2938340 122.8140140  16.6649160  76.3640320
 121.8129900  16.6143450  77.4986120 120.2354050   7.4265530  81.2762240
 119.5270200   7.8951870  81.7175850 120.5198530   6.7687540  81.9107430
 121.8609980   8.8462230  89.2754770 122.3595230   9.3208050  89.9406620
 122.0032930   7.9225750  89.4824800 124.2669480   4.1516190  82.7158030
 124.1437260   4.1702320  81.7667540 125.2154040   4.1995130  82.8356430
 121.3546270  19.3871490  81.9886010 121.6087770  19.3492880  81.0665380
 120.4058750  19.2604820  81.9814260 118.4389070   5.7350610  78.6512950
 119.2879600   6.1720760  78.5853140 118.0720340   6.0470870  79.4785010
 129.0676840   5.0630190  90.1183160 128.5650440   5.8035590  90.4576970
 129.8833500   5.4514190  89.8019950 127.3598850  10.3063370  83.5644520
 126.4188990  10.3213600  83.7392210 127.6742920   9.5199330  84.0104820
 117.3380490  11.9882970  77.1248480 118.1043760  11.8764330  77.6873910
 117.4155180  11.2920940  76.4725250 116.0327250   9.4208040  77.8081370
 116.1130840   8.4735550  77.9198770 116.9247000   9.7514920  77.9142030
 129.3624430  17.4772220  85.2398780 129.4871850  18.3003390  85.7122590
 130.2289990  17.2662950  84.8922930 116.8341960  19.5703430  84.9115910
 117.5704440  19.0218890  85.1824480 117.2182880  20.4359440  84.7721900
 113.7187440  15.6377000  80.7857420 112.7927220  15.8798140  80.7762830
 114.1843870  16.4651260  80.6642170 115.8400240  18.7549500  94.1001490
 116.6412970  19.0761550  94.5136890 115.3252060  18.3945080  94.8221400
 119.9444270  18.7433740  76.7341480 120.7372880  19.0322570  76.2823270
 119.4248620  18.3125910  76.0553960 124.6764870  14.8629370  94.0476900
 124.0703030  14.8860970  93.3072650 124.3718980  14.1312410  94.5844150
 126.1065240  18.5909660  92.6586310 127.0586990  18.5067680  92.6086550
 125.9593460  19.2551370  93.3320100 128.9974440  17.9703870  78.1578220
 128.7115950  17.5569010  77.3432400 128.7993990  18.8991580  78.0378740
 113.5598050  11.2422960  93.0437540 114.0637070  10.6630240  93.6153770
 112.8205470  11.5263190  93.5813910 120.4621670  13.9637150  76.5983830
 120.3572310  13.3489500  77.3245210 120.2945890  13.4403040  75.8146840
 120.6135990  12.6493950  92.5773060 119.8481660  13.2178950  92.4927730
 120.7951950  12.3570160  91.6841290 123.7024400  13.0257180  77.2025820
 123.1534500  13.4726480  77.8468560 124.3243660  12.5206430  77.7263490
 127.7559340  14.3799280  93.1348080 128.4968810  14.7175040  92.6315540
 126.9932020  14.5491340  92.5817850 115.5921130   9.3852550  93.9387610
 115.6326470   9.0866420  94.8472840 116.4466630   9.7860160  93.7795130
 119.3699520  11.9848100  79.0991120 119.7915940  11.8187970  79.9422510
 119.4950360  11.1748330  78.6046260 117.5326940   7.9644650  91.9062100
 117.0023400   7.4735600  91.2785440 118.2015010   8.3928850  91.3720030
 121.8827160  11.0085710  76.3468220 122.4032820  10.2934730  75.9809370
 122.5295560  11.6471580  76.6468730 126.4305000  12.4314110  91.6703290
 126.8446020  12.5859190  92.5193710 125.4956000  12.5569330  91.8329070
 126.9027170   9.7710270  93.6742440 127.4847940   9.0162590  93.5862920
 127.0788940  10.3017710  92.8973920 118.0199240   4.9307020  91.9859390
 117.9256110   4.3127770  91.2610260 117.4396630   5.6573310  91.7589300
 120.7860680   3.4880260  89.0186780 120.3377980   3.5104520  88.1732330
 120.1525880   3.0899280  89.6157080 121.1920230  12.3834590  89.6399220
 121.6108340  13.2267320  89.4675460 120.2728860  12.5206630  89.4106000
 123.5284130  10.1150770  91.0237060 123.6480340   9.5191910  91.7631900
 124.3878130  10.1520460  90.6038360 125.8672030  10.6687960  89.5999570
 125.3407250  11.1930580  88.9964710 126.2103370  11.3015350  90.2309300
 118.2658420   8.0581330  76.0449280 118.0647480   7.1948690  76.4062620
 118.0950470   7.9714690  75.1070880 119.0427650  18.6887600  90.7556950
 118.5048740  19.4133660  90.4365650 119.2961610  18.2117940  89.9654290
 120.2952900   6.6572120  92.2812880 120.8852590   6.3487970  92.9690700
 119.4773140   6.1851870  92.4372780 125.1146330   6.2737930  92.5145900
 124.4261850   5.6119470  92.4495890 125.8352350   5.8276200  92.9594360
 125.7446730   2.8689560  78.5736160 126.0249020   2.0257460  78.9295580
 124.9712460   3.1012670  79.0874910 117.0641220   5.1581950  76.0327160
 117.3667120   5.1649380  75.1246310 117.8035810   4.8079810  76.5294820
 121.8989860  19.9238810  91.0143600 121.8248560  20.8273950  91.3215970
 120.9968700  19.6050710  90.9865670 120.2826150   4.1016570  77.0183360
 119.9348150   3.4240560  76.4385810 120.4838920   3.6406080  77.8326750
 122.4475190  19.0897320  78.6369960 123.3425980  19.4282290  78.6588720
 122.4792820  18.3676730  78.0094240 116.0871350  14.4624370  76.8656960
 116.5246220  15.0054040  77.5214540 116.5719080  13.6371320  76.8753300
 113.3017150  17.2513400  84.3177220 113.6320160  16.3834460  84.0855860
 113.7308150  17.4571920  85.1482180 117.8979070  15.5822410  81.9779190
 117.5974610  15.4587380  82.8783100 117.7916560  14.7231000  81.5694920
 113.7907360  18.1183990  87.0558850 113.3538350  18.2984790  87.8883000
 114.3585040  18.8758610  86.9140570 129.4269540  17.6200990  91.3436160
 128.8271530  17.6793550  90.6000080 129.5563440  16.6805970  91.4733010
 130.6670990  15.3618810  76.6805870 129.8363950  15.4295460  77.1513100
 130.8442820  16.2522930  76.3772730 130.1227450  12.1066290  79.1840070
 130.8846360  12.6762940  79.2899760 130.1381820  11.5393490  79.9548380
 113.6231790  10.6304220  83.4147730 112.9680630  10.3615860  82.7707430
 114.4609740  10.5208700  82.9649710 131.1287420  12.9616390  84.0282000
 131.4996250  12.1783710  83.6217970 131.7689350  13.6505490  83.8499300
 128.1121180  14.3452970  89.4412320 127.2981020  14.7750130  89.7038110
 128.5195380  14.9571380  88.8281370 130.1746620  12.4000660  76.3412590
 130.4495460  13.3079540  76.2131810 129.9857360  12.3363190  77.2774580
 126.5722230   5.4245510  77.6366220 126.9907110   5.2376490  76.7962880
 126.2658290   4.5724560  77.9469150 130.0711960  10.3369650  81.3342020
 129.6955560   9.5697580  80.9023310 129.3415080  10.7192350  81.8216950
 114.6607720  11.0156790  87.9551070 115.0280760  10.9284190  88.8347090
 114.0918540  10.2523340  87.8557930 129.4611580   9.4841170  90.9681540
 129.2297670   9.2553920  90.0679490 129.7216130  10.4040720  90.9226430
 114.2123720   7.9265880  91.8609490 113.3179770   7.8932640  92.2003200
 114.7521270   8.1252670  92.6260740 127.8999650   4.7097600  93.7461240
 128.7769830   4.7181000  94.1295240 127.9120490   3.9728440  93.1353590
 112.8369870   7.8403150  79.3573060 111.9333950   8.1033350  79.1824720
 113.3210490   8.1114320  78.5773020 129.3462920   8.5627140  84.6349260
 129.8700400   8.0689790  84.0039430 129.9322340   8.6977500  85.3796830
 129.5252640   8.6467010  88.1568810 128.5755350   8.6130550  88.2713800
 129.7065650   9.5567120  87.9218580 115.3797080   6.8968690  77.2667440
 116.0888780   6.4751910  76.7814720 114.6637020   6.9643920  76.6350790
 115.0271240   2.9508020  76.3070090 115.7499370   3.4916960  76.6251310
 115.2995760   2.6771440  75.4311630 128.8362890   7.8200490  80.5741670
 129.3322010   7.5871360  81.3590550 128.6378960   6.9812330  80.1579310
 114.7163430   2.2014210  86.2092710 115.3639620   1.6511590  85.7687870
 115.1365270   2.4557360  87.0308520 130.2650050   6.4561440  83.1079350
 130.1549330   6.3017480  84.0461620 131.0257640   5.9282380  82.8654760
 128.6115770   2.3955570  89.5662350 129.2487990   3.0089710  89.9321540
 128.7590660   2.4316230  88.6211580 131.1540320   4.2869360  76.3485490
 132.0789630   4.1550540  76.1403780 131.1316110   4.3662180  77.3021940
 131.2278810   5.0580020  78.9742200 130.4330310   4.9925140  79.5035110
 131.4322090   5.9930660  78.9627550 128.1697230  19.0971570  82.9680590
 128.7656300  18.7756140  82.2915010 128.4275380  18.6243390  83.7593860
 114.4695430   2.3569880  88.9518030 114.1210250   2.8133700  89.7176210
 114.1383130   1.4627010  89.0340460 116.0759800  15.5289480  93.1171220
 116.0329430  15.1582390  93.9985680 116.2070810  16.4667050  93.2573040
 119.7765830  17.0849070  88.7180940 119.5357190  17.3523630  87.8311460
 120.7168470  17.2554800  88.7731800 121.9820250   3.5481760  92.4737450
 121.9209140   4.1403590  93.2232860 122.9220630   3.4407720  92.3287710
 124.6194810   3.2051820  92.1129740 125.2335220   3.5231110  91.4510820
 125.1644370   2.7200410  92.7325600 131.0369990  19.1043450  89.5191580
 130.5428270  19.5012320  88.8018710 130.4283280  18.4792660  89.9128860
 115.9147830  18.4751730  90.2369000 115.3208150  18.3436430  90.9759040
 115.9071670  17.6389870  89.7711100 126.2674830   3.9754830  89.8240750
 125.9388190   3.1606590  89.4442480 127.2157130   3.9324640  89.7006440
 128.7209440  19.7466870  86.7978320 128.2612410  20.4982680  86.4236340
 128.0921900  19.0273340  86.7393120 115.5460060  15.8410110  89.1877040
 114.8194120  15.2215400  89.1202990 115.6069210  16.2350720  88.3175120
 119.1505160  18.0555110  85.9726450 119.6670180  17.4442470  85.4474710
 119.8002540  18.5583890  86.4637460 121.8900660  18.9463600  86.7995430
 122.1778470  18.6917900  85.9228440 122.4023880  18.3940960  87.3901000
 123.1077670   2.6853800  87.3791940 122.3249460   3.1599300  87.6588700
 122.8140600   1.7808630  87.2705120 127.6598740   3.3876900  85.4241030
 128.1006830   3.3322000  84.5762630 127.3906330   4.3034910  85.4951210
 129.5237310   3.0192140  83.4349850 129.4625710   2.0753360  83.2880870
 130.3029340   3.1272230  83.9803310 113.8290060  19.1584500  82.3973800
 113.6612100  18.5255180  83.0955690 112.9624570  19.3643900  82.0467990
 114.4518080   2.9901280  79.9005660 115.2097440   3.1030160  79.3269690
 113.9895250   3.8270480  79.8549090 120.9931890   5.1040550  82.8907970
 120.1806400   4.7297440  82.5503850 121.4973530   4.3485630  83.1929160
 125.4956870   1.7683000  84.1291040 126.0986240   2.3403210  84.6039560
 124.7549860   2.3322440  83.9064940 128.6391470   2.1704560  79.4031320
 128.8342100   3.0688010  79.6698750 127.8521340   1.9391640  79.8964270
 115.4352760  17.8517730  79.8423940 114.9100380  18.2325760  79.1385900
 115.3597340  18.4768500  80.5633650 116.8243230   3.5165330  78.4407630
 117.3535990   2.7295130  78.3115580 117.4571550   4.1956520  78.6743160
 119.0181070   3.2540470  81.4953020 118.3883810   2.5527780  81.6623150
 118.4786210   4.0144600  81.2786180 121.9573020  19.8679700  94.1663630
 122.8840330  19.6323970  94.2099590 121.9423450  20.6951700  93.6849660
 130.1918080  19.4105270  81.1637880 130.3670270  18.7243010  80.5198800
 129.4939650  19.9352320  80.7714550 119.1436630   2.5324450  93.9305510
 118.8620900   3.0358050  93.1666330 119.5256330   1.7346200  93.5647640
 118.0345730  19.8000110  78.7173190 118.7664550  19.5159390  78.1697080
 118.2939400  19.5613390  79.6072570 117.1960520  15.9164840  78.7219520
 116.5669400  16.3849940  79.2705350 117.3108350  15.0714060  79.1565710
 125.7452090   1.9478030  94.5085980 125.6317540   2.2672640  95.4037500
 126.5621830   2.3490540  94.2123260 128.5250580  19.0949560  93.9904670
 129.3175900  18.5998790  93.7830630 128.8183730  19.7739700  94.5980280
 124.6510240   9.9670500  64.8720720 124.5704290   9.0525110  64.6012430
 124.2374660  10.4637570  64.1660430 122.7828280  11.7449520  66.7529990
 122.0070380  11.2649960  67.0428560 123.4341210  11.0655170  66.5786150
 116.7994110  12.0569330  67.6305750 115.9678990  11.8018040  68.0302260
 117.4075090  12.1280100  68.3663670 126.8035710  16.1509710  65.5329120
 126.3417240  15.3796950  65.8616290 127.6161260  16.1775780  66.0381570
 116.7795370  16.0909420  67.8263770 117.0823410  15.2007160  67.6473990
 117.5238960  16.6479640  67.5986020 115.2086060   7.0171220  61.4148140
 114.3202760   7.3587190  61.3128020 115.4927250   6.8171540  60.5228970
 113.1719070   9.6176870  67.2987840 113.7435180   8.8499070  67.2991480
 113.1720610   9.9165630  66.3894450 123.0299020  18.4367720  65.1533110
 122.4110460  18.8925220  64.5827550 123.8850800  18.5919180  64.7522810
 122.2237270  14.4206710  66.7600150 122.1545550  13.4796650  66.5989280
 122.9857130  14.5108120  67.3322720 114.4143940   5.0261230  69.0856770
 114.2346780   4.1286980  69.3659530 114.0124020   5.5733100  69.7603720
 123.2542440   7.2277090  66.9869080 123.6307260   6.3548970  66.8742750
 123.1561950   7.5635790  66.0959520 117.3847450   5.6002720  62.4486520
 117.4914200   6.5006450  62.7555280 116.4739810   5.5520690  62.1581170
 127.0366560   4.7227530  63.9197420 127.8576180   4.2324100  63.9622900
 127.0700640   5.3125190  64.6729260 115.0330610   7.5221730  67.6939110
 115.7140720   7.7860100  68.3126510 114.7178660   6.6822600  68.0277120
 119.2255180   8.5689090  66.7811700 119.7333400   9.0670060  67.4216720
 119.7568420   7.7924290  66.6051060 131.3266110   6.7394280  70.4841050
 130.6218280   7.1275990  69.9656160 131.5924030   7.4344570  71.0861980
 117.5091280   3.2087650  71.0475120 117.5109720   3.7260040  70.2421020
 116.6795590   2.7317830  71.0245050 123.8962370  13.3206960  62.5465020
 123.2779640  13.7856410  61.9827740 124.4085620  14.0134440  62.9634530
 118.7594130  12.8482830  69.2248620 118.4263510  13.4751750  69.8669690
 118.9360810  13.3744710  68.4450290 127.2728040   6.6627910  66.6924960
 126.5683610   6.9512800  67.2728070 127.6340200   7.4728020  66.3324520
 117.1906610   4.9197610  69.0545570 117.5323420   5.7639660  68.7599440
 116.2522420   5.0681350  69.1710910 117.9713230  14.8163630  71.0397800
 118.5887230  15.4914710  70.7582250 117.1106350  15.2251610  70.9485300
 113.2645570  14.0063490  59.9204650 112.8873550  14.4950590  59.1889550
 113.5218640  14.6788770  60.5511180 128.8890820  16.2803040  68.9552440
 128.2054340  16.9502150  68.9469110 129.4285110  16.4783690  68.1897300
 130.3414960   6.1082700  67.0834170 129.3939870   6.1421680  67.2149600
 130.6664950   6.9221650  67.4683530 120.8734500   2.4079880  65.3790160
 121.1809480   1.8526770  64.6625660 119.9435200   2.5424340  65.1963150
 126.4249560  18.1247170  67.6697620 126.4376720  17.7209460  66.8019880
 125.8724780  18.8994460  67.5659050 127.7194980  14.8463390  62.7587790
 127.6091310  13.9037720  62.8837210 127.7163230  15.2079030  63.6450550
 125.8235000  13.0277010  68.9980230 126.2403790  12.8137120  68.1633690
 126.5474820  13.2849800  69.5688850 123.2615260  10.4728710  62.1150280
 122.3344540  10.4066090  62.3438750 123.4140080  11.4108840  62.0005520
 123.2484340   6.7445710  59.1117440 122.3088010   6.9059670  59.1969900
 123.5667600   7.4631390  58.5653430 129.7697100  11.4264230  69.0896470
 128.9415730  11.4957320  68.6146600 130.3647580  12.0118540  68.6212300
 127.2912550  12.0349010  62.6185530 126.6724970  11.6968560  61.9711830
 127.2737000  11.3908770  63.3264720 126.7339110   8.2133550  70.0351340
 126.3210290   9.0387260  70.2891330 126.0015060   7.6278590  69.8427700
 118.8671900  10.9993450  64.8970010 118.4628900  10.2870700  64.4015910
 118.9535020  10.6546690  65.7858050 119.3353600  14.6861010  67.0609220
 119.0381890  14.0806480  66.3817000 120.2853420  14.7238320  66.9498580
 117.5800520   7.7736660  68.6769050 118.1315110   7.8832000  67.9022300
 118.0944030   8.1474260  69.3924280 127.4239210  18.2592880  70.7232320
 126.9469770  19.0665070  70.5304930 126.7401000  17.6071210  70.8758530
 118.4272030  14.4242700  73.7117020 117.5300560  14.6482670  73.9590420
 118.4524900  14.5477640  72.7628420 125.4677250  11.2735820  59.6258280
 125.9070530  10.4358250  59.4796100 126.1805670  11.9065220  59.7122420
 117.2543250  11.2956020  72.2874390 117.1151020  12.1678820  72.6561790
 116.3724610  10.9528830  72.1422330 123.5772630  16.2131890  63.5939520
 124.0168540  16.9556220  63.1794910 123.5159520  16.4558460  64.5178480
 119.0523600  17.2377720  74.4959540 119.0239030  17.6420670  73.6287970
 118.8888570  16.3088080  74.3331140 129.0494390   2.5278630  57.9399320
 128.7367050   2.6205460  58.8398390 129.8106860   3.1059660  57.8896750
 115.5676530   9.8938430  62.3976660 115.4474130  10.6200520  61.7857930
 115.2577420   9.1241340  61.9204570 131.0038420  18.0204820  75.7923710
 131.4798140  18.4987710  76.4712790 131.6245580  17.9522310  75.0669210
 113.2061900  13.0653570  68.2045300 113.2842320  13.2002340  67.2601020
 113.8203580  12.3569460  68.3973420 114.4509530  14.7653760  64.6151480
 114.0437610  14.9068350  63.7605080 115.3422540  14.4813920  64.4122690
 130.4071670  15.2117670  72.9523720 130.5334730  14.9729550  72.0340900
 130.4493050  14.3802210  73.4245800 124.2688410  18.9145670  71.5218530
 124.7833080  18.8253680  72.3240960 123.4257490  19.2605370  71.8146440
 126.2442810  19.2001010  60.9502530 126.0843950  18.9103950  61.8484360
 126.0789520  18.4241140  60.4147760 118.7231190  18.9799540  62.7274150
 118.5473670  18.0635080  62.5141950 117.8686930  19.3386830  62.9671950
 125.9468940  16.7088570  59.5100530 125.2534100  16.7065860  58.8502810
 126.6891800  16.2847890  59.0794700 125.5118870  18.3351280  63.5849020
 125.9675820  17.5540660  63.8987640 125.8511390  19.0458100  64.1290200
 130.2595680   7.2650130  73.9173460 129.6439950   7.7729800  73.3888920
 129.9392100   6.3648460  73.8599400 113.2621420  14.1067740  70.7439760
 113.4252460  13.6373100  69.9259130 113.7273870  13.5991300  71.4088600
 118.0340190   3.2373500  65.7800330 117.5908340   4.0183040  65.4484850
 118.5925180   3.5603390  66.4871270 122.3210000   6.1042020  71.3835650
 121.8589370   6.3125040  72.1955590 121.9188110   5.2901370  71.0806320
 127.3214510   7.3250970  72.5132310 126.4708100   7.0256720  72.8341380
 127.1616300   7.5692980  71.6016130 124.4164220   8.8252720  74.6131100
 124.7417630   7.9916470  74.2733330 125.2044550   9.3481240  74.7609430
 121.1499010   2.8584200  60.6606160 120.5253190   2.8544070  61.3859470
 121.0629130   1.9915160  60.2642130 120.0716090   3.7820830  67.6389930
 120.3688420   4.6883660  67.5581950 120.6201650   3.2939610  67.0249500
 117.8254410   8.3607070  63.5081580 117.5995330   8.1444240  64.4128200
 117.0446940   8.7935530  63.1627550 125.0552170   8.3670440  62.1072230
 124.4561060   9.0906240  61.9235850 125.6031780   8.3047220  61.3248680
 120.2653620   9.2592650  74.1741850 120.1697220   8.3187380  74.0242250
 121.1085600   9.4807720  73.7789920 123.6617040   7.0033980  64.1375510
 124.0546610   7.3206180  63.3244200 124.0233890   6.1245860  64.2520030
 115.3964160   5.6706320  72.3275630 115.0027550   6.5181530  72.5348410
 114.7082560   5.0332690  72.5184270 121.9709210   5.7541290  75.3972370
 121.2807530   5.5613490  76.0318460 122.7141510   6.0375930  75.9296670
 112.6981210   3.5934780  66.3605710 112.4094260   4.1637640  67.0730690
 113.4426970   3.1139230  66.7236940 112.8851440   7.5354900  57.5708430
 112.8026110   8.4785660  57.7123420 112.5334500   7.3929810  56.6920780
 124.2472180   9.5939730  68.2326290 123.5153300  10.1026540  68.5816390
 123.8496520   8.7769710  67.9315070 120.6849570   6.2693930  66.6378780
 120.6885630   5.8283880  65.7883320 121.5800690   6.5911260  66.7450600
 116.5351950   6.1520420  65.5972990 116.1952000   6.6295650  66.3540040
 115.7729270   5.6985540  65.2374090 120.7469720   7.2706010  59.6285540
 120.8682540   7.2292490  60.5771360 120.3618230   8.1330160  59.4732270
 124.7098090   5.0473410  67.6449230 124.7270830   5.4982060  68.4891080
 124.4613670   4.1479050  67.8582670 119.7591220   9.5807150  59.0268840
 119.1908120   9.1325400  58.4004750 120.4680220   9.9399930  58.4933990
 128.1368840   2.4605590  73.4835610 128.4614610   1.7295250  74.0093590
 128.1725350   2.1419230  72.5816600 114.8360400  13.4819170  72.9035570
 114.4515190  12.8412840  73.5018530 115.1472590  14.1855290  73.4730300
 120.9857540  10.3295710  68.3844190 121.3527670   9.8554280  69.1305530
 120.7962600  11.2037280  68.7252530 113.8498030   5.0739400  64.5137660
 113.5644950   4.7095070  65.3516280 113.7876890   4.3419860  63.9000800
 118.7756910   9.3704350  70.7028400 118.4713980  10.2496330  70.9278760
 119.7303370   9.4304140  70.7385840 117.3038700  13.5765340  61.2995250
 116.5300960  13.0362960  61.1393970 118.0333330  13.0571950  60.9613010
 128.0626680  12.5730700  67.0921640 128.7825800  13.0685990  66.7017750
 127.8608500  11.8948590  66.4475510 123.5236620   3.9668660  61.2351030
 122.7101230   3.4681830  61.1596340 123.3298570   4.8066910  60.8187380
 123.4445480  12.6439760  72.9790640 123.3782790  11.7235430  72.7248230
 122.8150620  12.7415200  73.6935280 126.2385010   8.3388310  59.5313190
 127.1264630   8.6505540  59.3564530 126.2090100   7.4660560  59.1393770
 117.3476100  13.2445720  64.9374060 117.8654770  12.4413980  64.8830950
 116.8960120  13.1824860  65.7790890 122.2345600  14.5112000  60.2101360
 122.5761300  15.2554230  59.7144680 121.4058310  14.8243120  60.5726190
 114.8320640  10.2107090  71.8499760 114.4735580  10.8760940  72.4373100
 114.5375200   9.3790640  72.2212380 118.0333760  10.6691330  74.7339310
 117.7333900  10.8148510  73.8367130 118.8045000  10.1096620  74.6412700
 123.3762210  15.4660330  72.7294440 123.3906750  14.5341290  72.5113350
 122.6687310  15.5520090  73.3684210 128.5099280   9.6500150  58.9993050
 128.4263000  10.0814370  58.1489490 129.2293470  10.1098500  59.4319870
 129.5873420  12.1067670  72.0763020 128.8621610  12.6996450  71.8792410
 130.1148880  12.0991210  71.2776390 129.5386530  16.5042410  61.7275180
 128.8962690  15.8498030  62.0018900 129.1517190  16.9097500  60.9515850
 125.1173010  13.8327840  65.5746870 125.4696830  13.2355970  64.9148240
 124.2335340  13.5072070  65.7455120 121.2036290  14.5925530  62.9817280
 121.8907420  15.1394740  63.3624870 120.4168710  15.1366260  63.0166890
 113.3428690  10.2098350  58.4734360 114.2123540  10.4923150  58.7570280
 112.8519010  11.0234220  58.3583170 120.5063500  11.5971560  62.5942640
 120.9626280  12.4076810  62.8202830 120.1551710  11.2794700  63.4261130
 122.8096110  17.1077900  69.8234940 123.4538330  17.3137280  70.5008360
 123.1725550  16.3466300  69.3705790 116.4075280   1.9409210  63.0665160
 116.2789910   1.9327110  64.0150080 115.5837300   2.2792300  62.7156170
 124.0828190  15.1110250  68.5412390 124.7250420  14.4103410  68.6544560
 124.6077540  15.8908690  68.3609280 127.9283910  15.3958870  58.2651530
 127.7021490  14.6789310  58.8576170 127.5380110  15.1471310  57.4273280
 125.8565810  15.9105150  71.7448450 126.1922050  16.4971840  72.4226370
 124.9366150  15.7797860  71.9746240 113.7099940  19.4225730  59.0395990
 114.0697580  20.0215070  58.3853260 113.5692280  19.9685620  59.8131020
 113.4069210   3.7000330  72.5271860 112.6927730   3.8997250  73.1324470
 113.8264250   2.9239900  72.8986660 127.5100160  13.3130810  59.9265690
 127.2221860  13.7743500  60.7143570 128.3052330  12.8528580  60.1949910
 113.6941800  17.6880590  73.5138390 113.8032920  16.7475330  73.3733780
 113.0422360  17.9535340  72.8652120 121.6854390  15.9596480  74.9136510
 121.3651260  15.2405720  75.4582200 121.0112750  16.6351550  74.9872570
 119.7268560  16.8056930  59.8569660 119.7178660  17.5386620  59.2414170
 118.8066920  16.5588510  59.9496620 115.3275200  12.0271820  60.6016420
 114.7203150  12.7670720  60.6111720 115.8024550  12.1171180  59.7754620
 124.9007990   6.1922640  70.2773310 125.2688810   5.3717850  70.6052880
 124.0406190   6.2524530  70.6928960 128.2670020   5.1479580  61.0860870
 127.6383180   5.2525250  60.3719100 127.7721940   5.3676360  61.8754750
 122.7128160  16.8685170  58.5194850 122.8140140  16.6649160  57.5896830
 121.8129900  16.6143450  58.7242630 120.2354050   7.4265530  62.5018750
 119.5270200   7.8951870  62.9432360 120.5198530   6.7687540  63.1363940
 121.8609980   8.8462230  70.5011280 122.3595230   9.3208050  71.1663130
 122.0032930   7.9225750  70.7081310 124.2669480   4.1516190  63.9414540
 124.1437260   4.1702320  62.9924050 125.2154040   4.1995130  64.0612940
 121.3546270  19.3871490  63.2142520 121.6087770  19.3492880  62.2921890
 120.4058750  19.2604820  63.2070770 118.4389070   5.7350610  59.8769460
 119.2879600   6.1720760  59.8109650 118.0720340   6.0470870  60.7041520
 129.0676840   5.0630190  71.3439670 128.5650440   5.8035590  71.6833480
 129.8833500   5.4514190  71.0276460 127.3598850  10.3063370  64.7901030
 126.4188990  10.3213600  64.9648720 127.6742920   9.5199330  65.2361330
 117.3380490  11.9882970  58.3504990 118.1043760  11.8764330  58.9130420
 117.4155180  11.2920940  57.6981760 116.0327250   9.4208040  59.0337880
 116.1130840   8.4735550  59.1455280 116.9247000   9.7514920  59.1398540
 129.3624430  17.4772220  66.4655290 129.4871850  18.3003390  66.9379100
 130.2289990  17.2662950  66.1179440 116.8341960  19.5703430  66.1372420
 117.5704440  19.0218890  66.4080990 117.2182880  20.4359440  65.9978410
 113.7187440  15.6377000  62.0113930 112.7927220  15.8798140  62.0019340
 114.1843870  16.4651260  61.8898680 115.8400240  18.7549500  75.3258000
 116.6412970  19.0761550  75.7393400 115.3252060  18.3945080  76.0477910
 119.9444270  18.7433740  57.9597990 120.7372880  19.0322570  57.5079780
 119.4248620  18.3125910  57.2810470 124.6764870  14.8629370  75.2733410
 124.0703030  14.8860970  74.5329160 124.3718980  14.1312410  75.8100660
 126.1065240  18.5909660  73.8842820 127.0586990  18.5067680  73.8343060
 125.9593460  19.2551370  74.5576610 128.9974440  17.9703870  59.3834730
 128.7115950  17.5569010  58.5688910 128.7993990  18.8991580  59.2635250
 113.5598050  11.2422960  74.2694050 114.0637070  10.6630240  74.8410280
 112.8205470  11.5263190  74.8070420 120.4621670  13.9637150  57.8240340
 120.3572310  13.3489500  58.5501720 120.2945890  13.4403040  57.0403350
 120.6135990  12.6493950  73.8029570 119.8481660  13.2178950  73.7184240
 120.7951950  12.3570160  72.9097800 123.7024400  13.0257180  58.4282330
 123.1534500  13.4726480  59.0725070 124.3243660  12.5206430  58.9520000
 127.7559340  14.3799280  74.3604590 128.4968810  14.7175040  73.8572050
 126.9932020  14.5491340  73.8074360 115.5921130   9.3852550  75.1644120
 115.6326470   9.0866420  76.0729350 116.4466630   9.7860160  75.0051640
 119.3699520  11.9848100  60.3247630 119.7915940  11.8187970  61.1679020
 119.4950360  11.1748330  59.8302770 117.5326940   7.9644650  73.1318610
 117.0023400   7.4735600  72.5041950 118.2015010   8.3928850  72.5976540
 121.8827160  11.0085710  57.5724730 122.4032820  10.2934730  57.2065880
 122.5295560  11.6471580  57.8725240 126.4305000  12.4314110  72.8959800
 126.8446020  12.5859190  73.7450220 125.4956000  12.5569330  73.0585580
 126.9027170   9.7710270  74.8998950 127.4847940   9.0162590  74.8119430
 127.0788940  10.3017710  74.1230430 118.0199240   4.9307020  73.2115900
 117.9256110   4.3127770  72.4866770 117.4396630   5.6573310  72.9845810
 120.7860680   3.4880260  70.2443290 120.3377980   3.5104520  69.3988840
 120.1525880   3.0899280  70.8413590 121.1920230  12.3834590  70.8655730
 121.6108340  13.2267320  70.6931970 120.2728860  12.5206630  70.6362510
 123.5284130  10.1150770  72.2493570 123.6480340   9.5191910  72.9888410
 124.3878130  10.1520460  71.8294870 125.8672030  10.6687960  70.8256080
 125.3407250  11.1930580  70.2221220 126.2103370  11.3015350  71.4565810
 118.2658420   8.0581330  57.2705790 118.0647480   7.1948690  57.6319130
 118.0950470   7.9714690  56.3327390 119.0427650  18.6887600  71.9813460
 118.5048740  19.4133660  71.6622160 119.2961610  18.2117940  71.1910800
 120.2952900   6.6572120  73.5069390 120.8852590   6.3487970  74.1947210
 119.4773140   6.1851870  73.6629290 125.1146330   6.2737930  73.7402410
 124.4261850   5.6119470  73.6752400 125.8352350   5.8276200  74.1850870
 125.7446730   2.8689560  59.7992670 126.0249020   2.0257460  60.1552090
 124.9712460   3.1012670  60.3131420 117.0641220   5.1581950  57.2583670
 117.3667120   5.1649380  56.3502820 117.8035810   4.8079810  57.7551330
 121.8989860  19.9238810  72.2400110 121.8248560  20.8273950  72.5472480
 120.9968700  19.6050710  72.2122180 120.2826150   4.1016570  58.2439870
 119.9348150   3.4240560  57.6642320 120.4838920   3.6406080  59.0583260
 122.4475190  19.0897320  59.8626470 123.3425980  19.4282290  59.8845230
 122.4792820  18.3676730  59.2350750 116.0871350  14.4624370  58.0913470
 116.5246220  15.0054040  58.7471050 116.5719080  13.6371320  58.1009810
 113.3017150  17.2513400  65.5433730 113.6320160  16.3834460  65.3112370
 113.7308150  17.4571920  66.3738690 117.8979070  15.5822410  63.2035700
 117.5974610  15.4587380  64.1039610 117.7916560  14.7231000  62.7951430
 113.7907360  18.1183990  68.2815360 113.3538350  18.2984790  69.1139510
 114.3585040  18.8758610  68.1397080 129.4269540  17.6200990  72.5692670
 128.8271530  17.6793550  71.8256590 129.5563440  16.6805970  72.6989520
 130.6670990  15.3618810  57.9062380 129.8363950  15.4295460  58.3769610
 130.8442820  16.2522930  57.6029240 130.1227450  12.1066290  60.4096580
 130.8846360  12.6762940  60.5156270 130.1381820  11.5393490  61.1804890
 113.6231790  10.6304220  64.6404240 112.9680630  10.3615860  63.9963940
 114.4609740  10.5208700  64.1906220 131.1287420  12.9616390  65.2538510
 131.4996250  12.1783710  64.8474480 131.7689350  13.6505490  65.0755810
 128.1121180  14.3452970  70.6668830 127.2981020  14.7750130  70.9294620
 128.5195380  14.9571380  70.0537880 130.1746620  12.4000660  57.5669100
 130.4495460  13.3079540  57.4388320 129.9857360  12.3363190  58.5031090
 126.5722230   5.4245510  58.8622730 126.9907110   5.2376490  58.0219390
 126.2658290   4.5724560  59.1725660 130.0711960  10.3369650  62.5598530
 129.6955560   9.5697580  62.1279820 129.3415080  10.7192350  63.0473460
 114.6607720  11.0156790  69.1807580 115.0280760  10.9284190  70.0603600
 114.0918540  10.2523340  69.0814440 129.4611580   9.4841170  72.1938050
 129.2297670   9.2553920  71.2936000 129.7216130  10.4040720  72.1482940
 114.2123720   7.9265880  73.0866000 113.3179770   7.8932640  73.4259710
 114.7521270   8.1252670  73.8517250 127.8999650   4.7097600  74.9717750
 128.7769830   4.7181000  75.3551750 127.9120490   3.9728440  74.3610100
 112.8369870   7.8403150  60.5829570 111.9333950   8.1033350  60.4081230
 113.3210490   8.1114320  59.8029530 129.3462920   8.5627140  65.8605770
 129.8700400   8.0689790  65.2295940 129.9322340   8.6977500  66.6053340
 129.5252640   8.6467010  69.3825320 128.5755350   8.6130550  69.4970310
 129.7065650   9.5567120  69.1475090 115.3797080   6.8968690  58.4923950
 116.0888780   6.4751910  58.0071230 114.6637020   6.9643920  57.8607300
 115.0271240   2.9508020  57.5326600 115.7499370   3.4916960  57.8507820
 115.2995760   2.6771440  56.6568140 128.8362890   7.8200490  61.7998180
 129.3322010   7.5871360  62.5847060 128.6378960   6.9812330  61.3835820
 114.7163430   2.2014210  67.4349220 115.3639620   1.6511590  66.9944380
 115.1365270   2.4557360  68.2565030 130.2650050   6.4561440  64.3335860
 130.1549330   6.3017480  65.2718130 131.0257640   5.9282380  64.0911270
 128.6115770   2.3955570  70.7918860 129.2487990   3.0089710  71.1578050
 128.7590660   2.4316230  69.8468090 131.1540320   4.2869360  57.5742000
 132.0789630   4.1550540  57.3660290 131.1316110   4.3662180  58.5278450
 131.2278810   5.0580020  60.1998710 130.4330310   4.9925140  60.7291620
 131.4322090   5.9930660  60.1884060 128.1697230  19.0971570  64.1937100
 128.7656300  18.7756140  63.5171520 128.4275380  18.6243390  64.9850370
 114.4695430   2.3569880  70.1774540 114.1210250   2.8133700  70.9432720
 114.1383130   1.4627010  70.2596970 116.0759800  15.5289480  74.3427730
 116.0329430  15.1582390  75.2242190 116.2070810  16.4667050  74.4829550
 119.7765830  17.0849070  69.9437450 119.5357190  17.3523630  69.0567970
 120.7168470  17.2554800  69.9988310 121.9820250   3.5481760  73.6993960
 121.9209140   4.1403590  74.4489370 122.9220630   3.4407720  73.5544220
 124.6194810   3.2051820  73.3386250 125.2335220   3.5231110  72.6767330
 125.1644370   2.7200410  73.9582110 131.0369990  19.1043450  70.7448090
 130.5428270  19.5012320  70.0275220 130.4283280  18.4792660  71.1385370
 115.9147830  18.4751730  71.4625510 115.3208150  18.3436430  72.2015550
 115.9071670  17.6389870  70.9967610 126.2674830   3.9754830  71.0497260
 125.9388190   3.1606590  70.6698990 127.2157130   3.9324640  70.9262950
 128.7209440  19.7466870  68.0234830 128.2612410  20.4982680  67.6492850
 128.0921900  19.0273340  67.9649630 115.5460060  15.8410110  70.4133550
 114.8194120  15.2215400  70.3459500 115.6069210  16.2350720  69.5431630
 119.1505160  18.0555110  67.1982960 119.6670180  17.4442470  66.6731220
 119.8002540  18.5583890  67.6893970 121.8900660  18.9463600  68.0251940
 122.1778470  18.6917900  67.1484950 122.4023880  18.3940960  68.6157510
 123.1077670   2.6853800  68.6048450 122.3249460   3.1599300  68.8845210
 122.8140600   1.7808630  68.4961630 127.6598740   3.3876900  66.6497540
 128.1006830   3.3322000  65.8019140 127.3906330   4.3034910  66.7207720
 129.5237310   3.0192140  64.6606360 129.4625710   2.0753360  64.5137380
 130.3029340   3.1272230  65.2059820 113.8290060  19.1584500  63.6230310
 113.6612100  18.5255180  64.3212200 112.9624570  19.3643900  63.2724500
 114.4518080   2.9901280  61.1262170 115.2097440   3.1030160  60.5526200
 113.9895250   3.8270480  61.0805600 120.9931890   5.1040550  64.1164480
 120.1806400   4.7297440  63.7760360 121.4973530   4.3485630  64.4185670
 125.4956870   1.7683000  65.3547550 126.0986240   2.3403210  65.8296070
 124.7549860   2.3322440  65.1321450 128.6391470   2.1704560  60.6287830
 128.8342100   3.0688010  60.8955260 127.8521340   1.9391640  61.1220780
 115.4352760  17.8517730  61.0680450 114.9100380  18.2325760  60.3642410
 115.3597340  18.4768500  61.7890160 116.8243230   3.5165330  59.6664140
 117.3535990   2.7295130  59.5372090 117.4571550   4.1956520  59.8999670
 119.0181070   3.2540470  62.7209530 118.3883810   2.5527780  62.8879660
 118.4786210   4.0144600  62.5042690 121.9573020  19.8679700  75.3920140
 122.8840330  19.6323970  75.4356100 121.9423450  20.6951700  74.9106170
 130.1918080  19.4105270  62.3894390 130.3670270  18.7243010  61.7455310
 129.4939650  19.9352320  61.9971060 119.1436630   2.5324450  75.1562020
 118.8620900   3.0358050  74.3922840 119.5256330   1.7346200  74.7904150
 118.0345730  19.8000110  59.9429700 118.7664550  19.5159390  59.3953590
 118.2939400  19.5613390  60.8329080 117.1960520  15.9164840  59.9476030
 116.5669400  16.3849940  60.4961860 117.3108350  15.0714060  60.3822220
 125.7452090   1.9478030  75.7342490 125.6317540   2.2672640  76.6294010
 126.5621830   2.3490540  75.4379770 128.5250580  19.0949560  75.2161180
 129.3175900  18.5998790  75.0087140 128.8183730  19.7739700  75.8236790
 124.6510240   9.9670500  46.0977230 124.5704290   9.0525110  45.8268940
 124.2374660  10.4637570  45.3916940 122.7828280  11.7449520  47.9786500
 122.0070380  11.2649960  48.2685070 123.4341210  11.0655170  47.8042660
 116.7994110  12.0569330  48.8562260 115.9678990  11.8018040  49.2558770
 117.4075090  12.1280100  49.5920180 126.8035710  16.1509710  46.7585630
 126.3417240  15.3796950  47.0872800 127.6161260  16.1775780  47.2638080
 116.7795370  16.0909420  49.0520280 117.0823410  15.2007160  48.8730500
 117.5238960  16.6479640  48.8242530 115.2086060   7.0171220  42.6404650
 114.3202760   7.3587190  42.5384530 115.4927250   6.8171540  41.7485480
 113.1719070   9.6176870  48.5244350 113.7435180   8.8499070  48.5247990
 113.1720610   9.9165630  47.6150960 123.0299020  18.4367720  46.3789620
 122.4110460  18.8925220  45.8084060 123.8850800  18.5919180  45.9779320
 122.2237270  14.4206710  47.9856660 122.1545550  13.4796650  47.8245790
 122.9857130  14.5108120  48.5579230 114.4143940   5.0261230  50.3113280
 114.2346780   4.1286980  50.5916040 114.0124020   5.5733100  50.9860230
 123.2542440   7.2277090  48.2125590 123.6307260   6.3548970  48.0999260
 123.1561950   7.5635790  47.3216030 117.3847450   5.6002720  43.6743030
 117.4914200   6.5006450  43.9811790 116.4739810   5.5520690  43.3837680
 127.0366560   4.7227530  45.1453930 127.8576180   4.2324100  45.1879410
 127.0700640   5.3125190  45.8985770 115.0330610   7.5221730  48.9195620
 115.7140720   7.7860100  49.5383020 114.7178660   6.6822600  49.2533630
 119.2255180   8.5689090  48.0068210 119.7333400   9.0670060  48.6473230
 119.7568420   7.7924290  47.8307570 131.3266110   6.7394280  51.7097560
 130.6218280   7.1275990  51.1912670 131.5924030   7.4344570  52.3118490
 117.5091280   3.2087650  52.2731630 117.5109720   3.7260040  51.4677530
 116.6795590   2.7317830  52.2501560 123.8962370  13.3206960  43.7721530
 123.2779640  13.7856410  43.2084250 124.4085620  14.0134440  44.1891040
 118.7594130  12.8482830  50.4505130 118.4263510  13.4751750  51.0926200
 118.9360810  13.3744710  49.6706800 127.2728040   6.6627910  47.9181470
 126.5683610   6.9512800  48.4984580 127.6340200   7.4728020  47.5581030
 117.1906610   4.9197610  50.2802080 117.5323420   5.7639660  49.9855950
 116.2522420   5.0681350  50.3967420 117.9713230  14.8163630  52.2654310
 118.5887230  15.4914710  51.9838760 117.1106350  15.2251610  52.1741810
 113.2645570  14.0063490  41.1461160 112.8873550  14.4950590  40.4146060
 113.5218640  14.6788770  41.7767690 128.8890820  16.2803040  50.1808950
 128.2054340  16.9502150  50.1725620 129.4285110  16.4783690  49.4153810
 130.3414960   6.1082700  48.3090680 129.3939870   6.1421680  48.4406110
 130.6664950   6.9221650  48.6940040 120.8734500   2.4079880  46.6046670
 121.1809480   1.8526770  45.8882170 119.9435200   2.5424340  46.4219660
 126.4249560  18.1247170  48.8954130 126.4376720  17.7209460  48.0276390
 125.8724780  18.8994460  48.7915560 127.7194980  14.8463390  43.9844300
 127.6091310  13.9037720  44.1093720 127.7163230  15.2079030  44.8707060
 125.8235000  13.0277010  50.2236740 126.2403790  12.8137120  49.3890200
 126.5474820  13.2849800  50.7945360 123.2615260  10.4728710  43.3406790
 122.3344540  10.4066090  43.5695260 123.4140080  11.4108840  43.2262030
 123.2484340   6.7445710  40.3373950 122.3088010   6.9059670  40.4226410
 123.5667600   7.4631390  39.7909940 129.7697100  11.4264230  50.3152980
 128.9415730  11.4957320  49.8403110 130.3647580  12.0118540  49.8468810
 127.2912550  12.0349010  43.8442040 126.6724970  11.6968560  43.1968340
 127.2737000  11.3908770  44.5521230 126.7339110   8.2133550  51.2607850
 126.3210290   9.0387260  51.5147840 126.0015060   7.6278590  51.0684210
 118.8671900  10.9993450  46.1226520 118.4628900  10.2870700  45.6272420
 118.9535020  10.6546690  47.0114560 119.3353600  14.6861010  48.2865730
 119.0381890  14.0806480  47.6073510 120.2853420  14.7238320  48.1755090
 117.5800520   7.7736660  49.9025560 118.1315110   7.8832000  49.1278810
 118.0944030   8.1474260  50.6180790 127.4239210  18.2592880  51.9488830
 126.9469770  19.0665070  51.7561440 126.7401000  17.6071210  52.1015040
 118.4272030  14.4242700  54.9373530 117.5300560  14.6482670  55.1846930
 118.4524900  14.5477640  53.9884930 125.4677250  11.2735820  40.8514790
 125.9070530  10.4358250  40.7052610 126.1805670  11.9065220  40.9378930
 117.2543250  11.2956020  53.5130900 117.1151020  12.1678820  53.8818300
 116.3724610  10.9528830  53.3678840 123.5772630  16.2131890  44.8196030
 124.0168540  16.9556220  44.4051420 123.5159520  16.4558460  45.7434990
 119.0523600  17.2377720  55.7216050 119.0239030  17.6420670  54.8544480
 118.8888570  16.3088080  55.5587650 129.0494390   2.5278630  39.1655830
 128.7367050   2.6205460  40.0654900 129.8106860   3.1059660  39.1153260
 115.5676530   9.8938430  43.6233170 115.4474130  10.6200520  43.0114440
 115.2577420   9.1241340  43.1461080 131.0038420  18.0204820  57.0180220
 131.4798140  18.4987710  57.6969300 131.6245580  17.9522310  56.2925720
 113.2061900  13.0653570  49.4301810 113.2842320  13.2002340  48.4857530
 113.8203580  12.3569460  49.6229930 114.4509530  14.7653760  45.8407990
 114.0437610  14.9068350  44.9861590 115.3422540  14.4813920  45.6379200
 130.4071670  15.2117670  54.1780230 130.5334730  14.9729550  53.2597410
 130.4493050  14.3802210  54.6502310 124.2688410  18.9145670  52.7475040
 124.7833080  18.8253680  53.5497470 123.4257490  19.2605370  53.0402950
 126.2442810  19.2001010  42.1759040 126.0843950  18.9103950  43.0740870
 126.0789520  18.4241140  41.6404270 118.7231190  18.9799540  43.9530660
 118.5473670  18.0635080  43.7398460 117.8686930  19.3386830  44.1928460
 125.9468940  16.7088570  40.7357040 125.2534100  16.7065860  40.0759320
 126.6891800  16.2847890  40.3051210 125.5118870  18.3351280  44.8105530
 125.9675820  17.5540660  45.1244150 125.8511390  19.0458100  45.3546710
 130.2595680   7.2650130  55.1429970 129.6439950   7.7729800  54.6145430
 129.9392100   6.3648460  55.0855910 113.2621420  14.1067740  51.9696270
 113.4252460  13.6373100  51.1515640 113.7273870  13.5991300  52.6345110
 118.0340190   3.2373500  47.0056840 117.5908340   4.0183040  46.6741360
 118.5925180   3.5603390  47.7127780 122.3210000   6.1042020  52.6092160
 121.8589370   6.3125040  53.4212100 121.9188110   5.2901370  52.3062830
 127.3214510   7.3250970  53.7388820 126.4708100   7.0256720  54.0597890
 127.1616300   7.5692980  52.8272640 124.4164220   8.8252720  55.8387610
 124.7417630   7.9916470  55.4989840 125.2044550   9.3481240  55.9865940
 121.1499010   2.8584200  41.8862670 120.5253190   2.8544070  42.6115980
 121.0629130   1.9915160  41.4898640 120.0716090   3.7820830  48.8646440
 120.3688420   4.6883660  48.7838460 120.6201650   3.2939610  48.2506010
 117.8254410   8.3607070  44.7338090 117.5995330   8.1444240  45.6384710
 117.0446940   8.7935530  44.3884060 125.0552170   8.3670440  43.3328740
 124.4561060   9.0906240  43.1492360 125.6031780   8.3047220  42.5505190
 120.2653620   9.2592650  55.3998360 120.1697220   8.3187380  55.2498760
 121.1085600   9.4807720  55.0046430 123.6617040   7.0033980  45.3632020
 124.0546610   7.3206180  44.5500710 124.0233890   6.1245860  45.4776540
 115.3964160   5.6706320  53.5532140 115.0027550   6.5181530  53.7604920
 114.7082560   5.0332690  53.7440780 121.9709210   5.7541290  56.6228880
 121.2807530   5.5613490  57.2574970 122.7141510   6.0375930  57.1553180
 112.6981210   3.5934780  47.5862220 112.4094260   4.1637640  48.2987200
 113.4426970   3.1139230  47.9493450 112.8851440   7.5354900  38.7964940
 112.8026110   8.4785660  38.9379930 112.5334500   7.3929810  37.9177290
 124.2472180   9.5939730  49.4582800 123.5153300  10.1026540  49.8072900
 123.8496520   8.7769710  49.1571580 120.6849570   6.2693930  47.8635290
 120.6885630   5.8283880  47.0139830 121.5800690   6.5911260  47.9707110
 116.5351950   6.1520420  46.8229500 116.1952000   6.6295650  47.5796550
 115.7729270   5.6985540  46.4630600 120.7469720   7.2706010  40.8542050
 120.8682540   7.2292490  41.8027870 120.3618230   8.1330160  40.6988780
 124.7098090   5.0473410  48.8705740 124.7270830   5.4982060  49.7147590
 124.4613670   4.1479050  49.0839180 119.7591220   9.5807150  40.2525350
 119.1908120   9.1325400  39.6261260 120.4680220   9.9399930  39.7190500
 128.1368840   2.4605590  54.7092120 128.4614610   1.7295250  55.2350100
 128.1725350   2.1419230  53.8073110 114.8360400  13.4819170  54.1292080
 114.4515190  12.8412840  54.7275040 115.1472590  14.1855290  54.6986810
 120.9857540  10.3295710  49.6100700 121.3527670   9.8554280  50.3562040
 120.7962600  11.2037280  49.9509040 113.8498030   5.0739400  45.7394170
 113.5644950   4.7095070  46.5772790 113.7876890   4.3419860  45.1257310
 118.7756910   9.3704350  51.9284910 118.4713980  10.2496330  52.1535270
 119.7303370   9.4304140  51.9642350 117.3038700  13.5765340  42.5251760
 116.5300960  13.0362960  42.3650480 118.0333330  13.0571950  42.1869520
 128.0626680  12.5730700  48.3178150 128.7825800  13.0685990  47.9274260
 127.8608500  11.8948590  47.6732020 123.5236620   3.9668660  42.4607540
 122.7101230   3.4681830  42.3852850 123.3298570   4.8066910  42.0443890
 123.4445480  12.6439760  54.2047150 123.3782790  11.7235430  53.9504740
 122.8150620  12.7415200  54.9191790 126.2385010   8.3388310  40.7569700
 127.1264630   8.6505540  40.5821040 126.2090100   7.4660560  40.3650280
 117.3476100  13.2445720  46.1630570 117.8654770  12.4413980  46.1087460
 116.8960120  13.1824860  47.0047400 122.2345600  14.5112000  41.4357870
 122.5761300  15.2554230  40.9401190 121.4058310  14.8243120  41.7982700
 114.8320640  10.2107090  53.0756270 114.4735580  10.8760940  53.6629610
 114.5375200   9.3790640  53.4468890 118.0333760  10.6691330  55.9595820
 117.7333900  10.8148510  55.0623640 118.8045000  10.1096620  55.8669210
 123.3762210  15.4660330  53.9550950 123.3906750  14.5341290  53.7369860
 122.6687310  15.5520090  54.5940720 128.5099280   9.6500150  40.2249560
 128.4263000  10.0814370  39.3746000 129.2293470  10.1098500  40.6576380
 129.5873420  12.1067670  53.3019530 128.8621610  12.6996450  53.1048920
 130.1148880  12.0991210  52.5032900 129.5386530  16.5042410  42.9531690
 128.8962690  15.8498030  43.2275410 129.1517190  16.9097500  42.1772360
 125.1173010  13.8327840  46.8003380 125.4696830  13.2355970  46.1404750
 124.2335340  13.5072070  46.9711630 121.2036290  14.5925530  44.2073790
 121.8907420  15.1394740  44.5881380 120.4168710  15.1366260  44.2423400
 113.3428690  10.2098350  39.6990870 114.2123540  10.4923150  39.9826790
 112.8519010  11.0234220  39.5839680 120.5063500  11.5971560  43.8199150
 120.9626280  12.4076810  44.0459340 120.1551710  11.2794700  44.6517640
 122.8096110  17.1077900  51.0491450 123.4538330  17.3137280  51.7264870
 123.1725550  16.3466300  50.5962300 116.4075280   1.9409210  44.2921670
 116.2789910   1.9327110  45.2406590 115.5837300   2.2792300  43.9412680
 124.0828190  15.1110250  49.7668900 124.7250420  14.4103410  49.8801070
 124.6077540  15.8908690  49.5865790 127.9283910  15.3958870  39.4908040
 127.7021490  14.6789310  40.0832680 127.5380110  15.1471310  38.6529790
 125.8565810  15.9105150  52.9704960 126.1922050  16.4971840  53.6482880
 124.9366150  15.7797860  53.2002750 113.7099940  19.4225730  40.2652500
 114.0697580  20.0215070  39.6109770 113.5692280  19.9685620  41.0387530
 113.4069210   3.7000330  53.7528370 112.6927730   3.8997250  54.3580980
 113.8264250   2.9239900  54.1243170 127.5100160  13.3130810  41.1522200
 127.2221860  13.7743500  41.9400080 128.3052330  12.8528580  41.4206420
 113.6941800  17.6880590  54.7394900 113.8032920  16.7475330  54.5990290
 113.0422360  17.9535340  54.0908630 121.6854390  15.9596480  56.1393020
 121.3651260  15.2405720  56.6838710 121.0112750  16.6351550  56.2129080
 119.7268560  16.8056930  41.0826170 119.7178660  17.5386620  40.4670680
 118.8066920  16.5588510  41.1753130 115.3275200  12.0271820  41.8272930
 114.7203150  12.7670720  41.8368230 115.8024550  12.1171180  41.0011130
 124.9007990   6.1922640  51.5029820 125.2688810   5.3717850  51.8309390
 124.0406190   6.2524530  51.9185470 128.2670020   5.1479580  42.3117380
 127.6383180   5.2525250  41.5975610 127.7721940   5.3676360  43.1011260
 122.7128160  16.8685170  39.7451360 122.8140140  16.6649160  38.8153340
 121.8129900  16.6143450  39.9499140 120.2354050   7.4265530  43.7275260
 119.5270200   7.8951870  44.1688870 120.5198530   6.7687540  44.3620450
 121.8609980   8.8462230  51.7267790 122.3595230   9.3208050  52.3919640
 122.0032930   7.9225750  51.9337820 124.2669480   4.1516190  45.1671050
 124.1437260   4.1702320  44.2180560 125.2154040   4.1995130  45.2869450
 121.3546270  19.3871490  44.4399030 121.6087770  19.3492880  43.5178400
 120.4058750  19.2604820  44.4327280 118.4389070   5.7350610  41.1025970
 119.2879600   6.1720760  41.0366160 118.0720340   6.0470870  41.9298030
 129.0676840   5.0630190  52.5696180 128.5650440   5.8035590  52.9089990
 129.8833500   5.4514190  52.2532970 127.3598850  10.3063370  46.0157540
 126.4188990  10.3213600  46.1905230 127.6742920   9.5199330  46.4617840
 117.3380490  11.9882970  39.5761500 118.1043760  11.8764330  40.1386930
 117.4155180  11.2920940  38.9238270 116.0327250   9.4208040  40.2594390
 116.1130840   8.4735550  40.3711790 116.9247000   9.7514920  40.3655050
 129.3624430  17.4772220  47.6911800 129.4871850  18.3003390  48.1635610
 130.2289990  17.2662950  47.3435950 116.8341960  19.5703430  47.3628930
 117.5704440  19.0218890  47.6337500 117.2182880  20.4359440  47.2234920
 113.7187440  15.6377000  43.2370440 112.7927220  15.8798140  43.2275850
 114.1843870  16.4651260  43.1155190 115.8400240  18.7549500  56.5514510
 116.6412970  19.0761550  56.9649910 115.3252060  18.3945080  57.2734420
 119.9444270  18.7433740  39.1854500 120.7372880  19.0322570  38.7336290
 119.4248620  18.3125910  38.5066980 124.6764870  14.8629370  56.4989920
 124.0703030  14.8860970  55.7585670 124.3718980  14.1312410  57.0357170
 126.1065240  18.5909660  55.1099330 127.0586990  18.5067680  55.0599570
 125.9593460  19.2551370  55.7833120 128.9974440  17.9703870  40.6091240
 128.7115950  17.5569010  39.7945420 128.7993990  18.8991580  40.4891760
 113.5598050  11.2422960  55.4950560 114.0637070  10.6630240  56.0666790
 112.8205470  11.5263190  56.0326930 120.4621670  13.9637150  39.0496850
 120.3572310  13.3489500  39.7758230 120.2945890  13.4403040  38.2659860
 120.6135990  12.6493950  55.0286080 119.8481660  13.2178950  54.9440750
 120.7951950  12.3570160  54.1354310 123.7024400  13.0257180  39.6538840
 123.1534500  13.4726480  40.2981580 124.3243660  12.5206430  40.1776510
 127.7559340  14.3799280  55.5861100 128.4968810  14.7175040  55.0828560
 126.9932020  14.5491340  55.0330870 115.5921130   9.3852550  56.3900630
 115.6326470   9.0866420  57.2985860 116.4466630   9.7860160  56.2308150
 119.3699520  11.9848100  41.5504140 119.7915940  11.8187970  42.3935530
 119.4950360  11.1748330  41.0559280 117.5326940   7.9644650  54.3575120
 117.0023400   7.4735600  53.7298460 118.2015010   8.3928850  53.8233050
 121.8827160  11.0085710  38.7981240 122.4032820  10.2934730  38.4322390
 122.5295560  11.6471580  39.0981750 126.4305000  12.4314110  54.1216310
 126.8446020  12.5859190  54.9706730 125.4956000  12.5569330  54.2842090
 126.9027170   9.7710270  56.1255460 127.4847940   9.0162590  56.0375940
 127.0788940  10.3017710  55.3486940 118.0199240   4.9307020  54.4372410
 117.9256110   4.3127770  53.7123280 117.4396630   5.6573310  54.2102320
 120.7860680   3.4880260  51.4699800 120.3377980   3.5104520  50.6245350
 120.1525880   3.0899280  52.0670100 121.1920230  12.3834590  52.0912240
 121.6108340  13.2267320  51.9188480 120.2728860  12.5206630  51.8619020
 123.5284130  10.1150770  53.4750080 123.6480340   9.5191910  54.2144920
 124.3878130  10.1520460  53.0551380 125.8672030  10.6687960  52.0512590
 125.3407250  11.1930580  51.4477730 126.2103370  11.3015350  52.6822320
 118.2658420   8.0581330  38.4962300 118.0647480   7.1948690  38.8575640
 118.0950470   7.9714690  37.5583900 119.0427650  18.6887600  53.2069970
 118.5048740  19.4133660  52.8878670 119.2961610  18.2117940  52.4167310
 120.2952900   6.6572120  54.7325900 120.8852590   6.3487970  55.4203720
 119.4773140   6.1851870  54.8885800 125.1146330   6.2737930  54.9658920
 124.4261850   5.6119470  54.9008910 125.8352350   5.8276200  55.4107380
 125.7446730   2.8689560  41.0249180 126.0249020   2.0257460  41.3808600
 124.9712460   3.1012670  41.5387930 117.0641220   5.1581950  38.4840180
 117.3667120   5.1649380  37.5759330 117.8035810   4.8079810  38.9807840
 121.8989860  19.9238810  53.4656620 121.8248560  20.8273950  53.7728990
 120.9968700  19.6050710  53.4378690 120.2826150   4.1016570  39.4696380
 119.9348150   3.4240560  38.8898830 120.4838920   3.6406080  40.2839770
 122.4475190  19.0897320  41.0882980 123.3425980  19.4282290  41.1101740
 122.4792820  18.3676730  40.4607260 116.0871350  14.4624370  39.3169980
 116.5246220  15.0054040  39.9727560 116.5719080  13.6371320  39.3266320
 113.3017150  17.2513400  46.7690240 113.6320160  16.3834460  46.5368880
 113.7308150  17.4571920  47.5995200 117.8979070  15.5822410  44.4292210
 117.5974610  15.4587380  45.3296120 117.7916560  14.7231000  44.0207940
 113.7907360  18.1183990  49.5071870 113.3538350  18.2984790  50.3396020
 114.3585040  18.8758610  49.3653590 129.4269540  17.6200990  53.7949180
 128.8271530  17.6793550  53.0513100 129.5563440  16.6805970  53.9246030
 130.6670990  15.3618810  39.1318890 129.8363950  15.4295460  39.6026120
 130.8442820  16.2522930  38.8285750 130.1227450  12.1066290  41.6353090
 130.8846360  12.6762940  41.7412780 130.1381820  11.5393490  42.4061400
 113.6231790  10.6304220  45.8660750 112.9680630  10.3615860  45.2220450
 114.4609740  10.5208700  45.4162730 131.1287420  12.9616390  46.4795020
 131.4996250  12.1783710  46.0730990 131.7689350  13.6505490  46.3012320
 128.1121180  14.3452970  51.8925340 127.2981020  14.7750130  52.1551130
 128.5195380  14.9571380  51.2794390 130.1746620  12.4000660  38.7925610
 130.4495460  13.3079540  38.6644830 129.9857360  12.3363190  39.7287600
 126.5722230   5.4245510  40.0879240 126.9907110   5.2376490  39.2475900
 126.2658290   4.5724560  40.3982170 130.0711960  10.3369650  43.7855040
 129.6955560   9.5697580  43.3536330 129.3415080  10.7192350  44.2729970
 114.6607720  11.0156790  50.4064090 115.0280760  10.9284190  51.2860110
 114.0918540  10.2523340  50.3070950 129.4611580   9.4841170  53.4194560
 129.2297670   9.2553920  52.5192510 129.7216130  10.4040720  53.3739450
 114.2123720   7.9265880  54.3122510 113.3179770   7.8932640  54.6516220
 114.7521270   8.1252670  55.0773760 127.8999650   4.7097600  56.1974260
 128.7769830   4.7181000  56.5808260 127.9120490   3.9728440  55.5866610
 112.8369870   7.8403150  41.8086080 111.9333950   8.1033350  41.6337740
 113.3210490   8.1114320  41.0286040 129.3462920   8.5627140  47.0862280
 129.8700400   8.0689790  46.4552450 129.9322340   8.6977500  47.8309850
 129.5252640   8.6467010  50.6081830 128.5755350   8.6130550  50.7226820
 129.7065650   9.5567120  50.3731600 115.3797080   6.8968690  39.7180460
 116.0888780   6.4751910  39.2327740 114.6637020   6.9643920  39.0863810
 115.0271240   2.9508020  38.7583110 115.7499370   3.4916960  39.0764330
 115.2995760   2.6771440  37.8824650 128.8362890   7.8200490  43.0254690
 129.3322010   7.5871360  43.8103570 128.6378960   6.9812330  42.6092330
 114.7163430   2.2014210  48.6605730 115.3639620   1.6511590  48.2200890
 115.1365270   2.4557360  49.4821540 130.2650050   6.4561440  45.5592370
 130.1549330   6.3017480  46.4974640 131.0257640   5.9282380  45.3167780
 128.6115770   2.3955570  52.0175370 129.2487990   3.0089710  52.3834560
 128.7590660   2.4316230  51.0724600 131.1540320   4.2869360  38.7998510
 132.0789630   4.1550540  38.5916800 131.1316110   4.3662180  39.7534960
 131.2278810   5.0580020  41.4255220 130.4330310   4.9925140  41.9548130
 131.4322090   5.9930660  41.4140570 128.1697230  19.0971570  45.4193610
 128.7656300  18.7756140  44.7428030 128.4275380  18.6243390  46.2106880
 114.4695430   2.3569880  51.4031050 114.1210250   2.8133700  52.1689230
 114.1383130   1.4627010  51.4853480 116.0759800  15.5289480  55.5684240
 116.0329430  15.1582390  56.4498700 116.2070810  16.4667050  55.7086060
 119.7765830  17.0849070  51.1693960 119.5357190  17.3523630  50.2824480
 120.7168470  17.2554800  51.2244820 121.9820250   3.5481760  54.9250470
 121.9209140   4.1403590  55.6745880 122.9220630   3.4407720  54.7800730
 124.6194810   3.2051820  54.5642760 125.2335220   3.5231110  53.9023840
 125.1644370   2.7200410  55.1838620 131.0369990  19.1043450  51.9704600
 130.5428270  19.5012320  51.2531730 130.4283280  18.4792660  52.3641880
 115.9147830  18.4751730  52.6882020 115.3208150  18.3436430  53.4272060
 115.9071670  17.6389870  52.2224120 126.2674830   3.9754830  52.2753770
 125.9388190   3.1606590  51.8955500 127.2157130   3.9324640  52.1519460
 128.7209440  19.7466870  49.2491340 128.2612410  20.4982680  48.8749360
 128.0921900  19.0273340  49.1906140 115.5460060  15.8410110  51.6390060
 114.8194120  15.2215400  51.5716010 115.6069210  16.2350720  50.7688140
 119.1505160  18.0555110  48.4239470 119.6670180  17.4442470  47.8987730
 119.8002540  18.5583890  48.9150480 121.8900660  18.9463600  49.2508450
 122.1778470  18.6917900  48.3741460 122.4023880  18.3940960  49.8414020
 123.1077670   2.6853800  49.8304960 122.3249460   3.1599300  50.1101720
 122.8140600   1.7808630  49.7218140 127.6598740   3.3876900  47.8754050
 128.1006830   3.3322000  47.0275650 127.3906330   4.3034910  47.9464230
 129.5237310   3.0192140  45.8862870 129.4625710   2.0753360  45.7393890
 130.3029340   3.1272230  46.4316330 113.8290060  19.1584500  44.8486820
 113.6612100  18.5255180  45.5468710 112.9624570  19.3643900  44.4981010
 114.4518080   2.9901280  42.3518680 115.2097440   3.1030160  41.7782710
 113.9895250   3.8270480  42.3062110 120.9931890   5.1040550  45.3420990
 120.1806400   4.7297440  45.0016870 121.4973530   4.3485630  45.6442180
 125.4956870   1.7683000  46.5804060 126.0986240   2.3403210  47.0552580
 124.7549860   2.3322440  46.3577960 128.6391470   2.1704560  41.8544340
 128.8342100   3.0688010  42.1211770 127.8521340   1.9391640  42.3477290
 115.4352760  17.8517730  42.2936960 114.9100380  18.2325760  41.5898920
 115.3597340  18.4768500  43.0146670 116.8243230   3.5165330  40.8920650
 117.3535990   2.7295130  40.7628600 117.4571550   4.1956520  41.1256180
 119.0181070   3.2540470  43.9466040 118.3883810   2.5527780  44.1136170
 118.4786210   4.0144600  43.7299200 121.9573020  19.8679700  56.6176650
 122.8840330  19.6323970  56.6612610 121.9423450  20.6951700  56.1362680
 130.1918080  19.4105270  43.6150900 130.3670270  18.7243010  42.9711820
 129.4939650  19.9352320  43.2227570 119.1436630   2.5324450  56.3818530
 118.8620900   3.0358050  55.6179350 119.5256330   1.7346200  56.0160660
 118.0345730  19.8000110  41.1686210 118.7664550  19.5159390  40.6210100
 118.2939400  19.5613390  42.0585590 117.1960520  15.9164840  41.1732540
 116.5669400  16.3849940  41.7218370 117.3108350  15.0714060  41.6078730
 125.7452090   1.9478030  56.9599000 125.6317540   2.2672640  57.8550520
 126.5621830   2.3490540  56.6636280 128.5250580  19.0949560  56.4417690
 129.3175900  18.5998790  56.2343650 128.8183730  19.7739700  57.0493300
 124.6510240   9.9670500  27.3233740 124.5704290   9.0525110  27.0525450
 124.2374660  10.4637570  26.6173450 122.7828280  11.7449520  29.2043010
 122.0070380  11.2649960  29.4941580 123.4341210  11.0655170  29.0299170
 116.7994110  12.0569330  30.0818770 115.9678990  11.8018040  30.4815280
 117.4075090  12.1280100  30.8176690 126.8035710  16.1509710  27.9842140
 126.3417240  15.3796950  28.3129310 127.6161260  16.1775780  28.4894590
 116.7795370  16.0909420  30.2776790 117.0823410  15.2007160  30.0987010
 117.5238960  16.6479640  30.0499040 115.2086060   7.0171220  23.8661160
 114.3202760   7.3587190  23.7641040 115.4927250   6.8171540  22.9741990
 113.1719070   9.6176870  29.7500860 113.7435180   8.8499070  29.7504500
 113.1720610   9.9165630  28.8407470 123.0299020  18.4367720  27.6046130
 122.4110460  18.8925220  27.0340570 123.8850800  18.5919180  27.2035830
 122.2237270  14.4206710  29.2113170 122.1545550  13.4796650  29.0502300
 122.9857130  14.5108120  29.7835740 114.4143940   5.0261230  31.5369790
 114.2346780   4.1286980  31.8172550 114.0124020   5.5733100  32.2116740
 123.2542440   7.2277090  29.4382100 123.6307260   6.3548970  29.3255770
 123.1561950   7.5635790  28.5472540 117.3847450   5.6002720  24.8999540
 117.4914200   6.5006450  25.2068300 116.4739810   5.5520690  24.6094190
 127.0366560   4.7227530  26.3710440 127.8576180   4.2324100  26.4135920
 127.0700640   5.3125190  27.1242280 115.0330610   7.5221730  30.1452130
 115.7140720   7.7860100  30.7639530 114.7178660   6.6822600  30.4790140
 119.2255180   8.5689090  29.2324720 119.7333400   9.0670060  29.8729740
 119.7568420   7.7924290  29.0564080 131.3266110   6.7394280  32.9354070
 130.6218280   7.1275990  32.4169180 131.5924030   7.4344570  33.5375000
 117.5091280   3.2087650  33.4988140 117.5109720   3.7260040  32.6934040
 116.6795590   2.7317830  33.4758070 123.8962370  13.3206960  24.9978040
 123.2779640  13.7856410  24.4340760 124.4085620  14.0134440  25.4147550
 118.7594130  12.8482830  31.6761640 118.4263510  13.4751750  32.3182710
 118.9360810  13.3744710  30.8963310 127.2728040   6.6627910  29.1437980
 126.5683610   6.9512800  29.7241090 127.6340200   7.4728020  28.7837540
 117.1906610   4.9197610  31.5058590 117.5323420   5.7639660  31.2112460
 116.2522420   5.0681350  31.6223930 117.9713230  14.8163630  33.4910820
 118.5887230  15.4914710  33.2095270 117.1106350  15.2251610  33.3998320
 113.2645570  14.0063490  22.3717670 112.8873550  14.4950590  21.6402570
 113.5218640  14.6788770  23.0024200 128.8890820  16.2803040  31.4065460
 128.2054340  16.9502150  31.3982130 129.4285110  16.4783690  30.6410320
 130.3414960   6.1082700  29.5347190 129.3939870   6.1421680  29.6662620
 130.6664950   6.9221650  29.9196550 120.8734500   2.4079880  27.8303180
 121.1809480   1.8526770  27.1138680 119.9435200   2.5424340  27.6476170
 126.4249560  18.1247170  30.1210640 126.4376720  17.7209460  29.2532900
 125.8724780  18.8994460  30.0172070 127.7194980  14.8463390  25.2100810
 127.6091310  13.9037720  25.3350230 127.7163230  15.2079030  26.0963570
 125.8235000  13.0277010  31.4493250 126.2403790  12.8137120  30.6146710
 126.5474820  13.2849800  32.0201870 123.2615260  10.4728710  24.5663300
 122.3344540  10.4066090  24.7951770 123.4140080  11.4108840  24.4518540
 123.2484340   6.7445710  21.5630460 122.3088010   6.9059670  21.6482920
 123.5667600   7.4631390  21.0166450 129.7697100  11.4264230  31.5409490
 128.9415730  11.4957320  31.0659620 130.3647580  12.0118540  31.0725320
 127.2912550  12.0349010  25.0698550 126.6724970  11.6968560  24.4224850
 127.2737000  11.3908770  25.7777740 126.7339110   8.2133550  32.4864360
 126.3210290   9.0387260  32.7404350 126.0015060   7.6278590  32.2940720
 118.8671900  10.9993450  27.3483030 118.4628900  10.2870700  26.8528930
 118.9535020  10.6546690  28.2371070 119.3353600  14.6861010  29.5122240
 119.0381890  14.0806480  28.8330020 120.2853420  14.7238320  29.4011600
 117.5800520   7.7736660  31.1282070 118.1315110   7.8832000  30.3535320
 118.0944030   8.1474260  31.8437300 127.4239210  18.2592880  33.1745340
 126.9469770  19.0665070  32.9817950 126.7401000  17.6071210  33.3271550
 118.4272030  14.4242700  36.1630040 117.5300560  14.6482670  36.4103440
 118.4524900  14.5477640  35.2141440 125.4677250  11.2735820  22.0771300
 125.9070530  10.4358250  21.9309120 126.1805670  11.9065220  22.1635440
 117.2543250  11.2956020  34.7387410 117.1151020  12.1678820  35.1074810
 116.3724610  10.9528830  34.5935350 123.5772630  16.2131890  26.0452540
 124.0168540  16.9556220  25.6307930 123.5159520  16.4558460  26.9691500
 119.0523600  17.2377720  36.9472560 119.0239030  17.6420670  36.0800990
 118.8888570  16.3088080  36.7844160 129.0494390   2.5278630  20.3912340
 128.7367050   2.6205460  21.2911410 129.8106860   3.1059660  20.3409770
 115.5676530   9.8938430  24.8489680 115.4474130  10.6200520  24.2370950
 115.2577420   9.1241340  24.3717590 131.0038420  18.0204820  38.2436730
 131.4798140  18.4987710  38.9225810 131.6245580  17.9522310  37.5182230
 113.2061900  13.0653570  30.6558320 113.2842320  13.2002340  29.7114040
 113.8203580  12.3569460  30.8486440 114.4509530  14.7653760  27.0664500
 114.0437610  14.9068350  26.2118100 115.3422540  14.4813920  26.8635710
 130.4071670  15.2117670  35.4036740 130.5334730  14.9729550  34.4853920
 130.4493050  14.3802210  35.8758820 124.2688410  18.9145670  33.9731550
 124.7833080  18.8253680  34.7753980 123.4257490  19.2605370  34.2659460
 126.2442810  19.2001010  23.4015550 126.0843950  18.9103950  24.2997380
 126.0789520  18.4241140  22.8660780 118.7231190  18.9799540  25.1787170
 118.5473670  18.0635080  24.9654970 117.8686930  19.3386830  25.4184970
 125.9468940  16.7088570  21.9613550 125.2534100  16.7065860  21.3015830
 126.6891800  16.2847890  21.5307720 125.5118870  18.3351280  26.0362040
 125.9675820  17.5540660  26.3500660 125.8511390  19.0458100  26.5803220
 130.2595680   7.2650130  36.3686480 129.6439950   7.7729800  35.8401940
 129.9392100   6.3648460  36.3112420 113.2621420  14.1067740  33.1952780
 113.4252460  13.6373100  32.3772150 113.7273870  13.5991300  33.8601620
 118.0340190   3.2373500  28.2313350 117.5908340   4.0183040  27.8997870
 118.5925180   3.5603390  28.9384290 122.3210000   6.1042020  33.8348670
 121.8589370   6.3125040  34.6468610 121.9188110   5.2901370  33.5319340
 127.3214510   7.3250970  34.9645330 126.4708100   7.0256720  35.2854400
 127.1616300   7.5692980  34.0529150 124.4164220   8.8252720  37.0644120
 124.7417630   7.9916470  36.7246350 125.2044550   9.3481240  37.2122450
 121.1499010   2.8584200  23.1119180 120.5253190   2.8544070  23.8372490
 121.0629130   1.9915160  22.7155150 120.0716090   3.7820830  30.0902950
 120.3688420   4.6883660  30.0094970 120.6201650   3.2939610  29.4762520
 117.8254410   8.3607070  25.9594600 117.5995330   8.1444240  26.8641220
 117.0446940   8.7935530  25.6140570 125.0552170   8.3670440  24.5585250
 124.4561060   9.0906240  24.3748870 125.6031780   8.3047220  23.7761700
 120.2653620   9.2592650  36.6254870 120.1697220   8.3187380  36.4755270
 121.1085600   9.4807720  36.2302940 123.6617040   7.0033980  26.5888530
 124.0546610   7.3206180  25.7757220 124.0233890   6.1245860  26.7033050
 115.3964160   5.6706320  34.7788650 115.0027550   6.5181530  34.9861430
 114.7082560   5.0332690  34.9697290 121.9709210   5.7541290  37.8485390
 121.2807530   5.5613490  38.4831480 122.7141510   6.0375930  38.3809690
 112.6981210   3.5934780  28.8118730 112.4094260   4.1637640  29.5243710
 113.4426970   3.1139230  29.1749960 112.8851440   7.5354900  20.0221450
 112.8026110   8.4785660  20.1636440 112.5334500   7.3929810  19.1433800
 124.2472180   9.5939730  30.6839310 123.5153300  10.1026540  31.0329410
 123.8496520   8.7769710  30.3828090 120.6849570   6.2693930  29.0891800
 120.6885630   5.8283880  28.2396340 121.5800690   6.5911260  29.1963620
 116.5351950   6.1520420  28.0486010 116.1952000   6.6295650  28.8053060
 115.7729270   5.6985540  27.6887110 120.7469720   7.2706010  22.0798560
 120.8682540   7.2292490  23.0284380 120.3618230   8.1330160  21.9245290
 124.7098090   5.0473410  30.0962250 124.7270830   5.4982060  30.9404100
 124.4613670   4.1479050  30.3095690 119.7591220   9.5807150  21.4781860
 119.1908120   9.1325400  20.8517770 120.4680220   9.9399930  20.9447010
 128.1368840   2.4605590  35.9348630 128.4614610   1.7295250  36.4606610
 128.1725350   2.1419230  35.0329620 114.8360400  13.4819170  35.3548590
 114.4515190  12.8412840  35.9531550 115.1472590  14.1855290  35.9243320
 120.9857540  10.3295710  30.8357210 121.3527670   9.8554280  31.5818550
 120.7962600  11.2037280  31.1765550 113.8498030   5.0739400  26.9650680
 113.5644950   4.7095070  27.8029300 113.7876890   4.3419860  26.3513820
 118.7756910   9.3704350  33.1541420 118.4713980  10.2496330  33.3791780
 119.7303370   9.4304140  33.1898860 117.3038700  13.5765340  23.7508270
 116.5300960  13.0362960  23.5906990 118.0333330  13.0571950  23.4126030
 128.0626680  12.5730700  29.5434660 128.7825800  13.0685990  29.1530770
 127.8608500  11.8948590  28.8988530 123.5236620   3.9668660  23.6864050
 122.7101230   3.4681830  23.6109360 123.3298570   4.8066910  23.2700400
 123.4445480  12.6439760  35.4303660 123.3782790  11.7235430  35.1761250
 122.8150620  12.7415200  36.1448300 126.2385010   8.3388310  21.9826210
 127.1264630   8.6505540  21.8077550 126.2090100   7.4660560  21.5906790
 117.3476100  13.2445720  27.3887080 117.8654770  12.4413980  27.3343970
 116.8960120  13.1824860  28.2303910 122.2345600  14.5112000  22.6614380
 122.5761300  15.2554230  22.1657700 121.4058310  14.8243120  23.0239210
 114.8320640  10.2107090  34.3012780 114.4735580  10.8760940  34.8886120
 114.5375200   9.3790640  34.6725400 118.0333760  10.6691330  37.1852330
 117.7333900  10.8148510  36.2880150 118.8045000  10.1096620  37.0925720
 123.3762210  15.4660330  35.1807460 123.3906750  14.5341290  34.9626370
 122.6687310  15.5520090  35.8197230 128.5099280   9.6500150  21.4506070
 128.4263000  10.0814370  20.6002510 129.2293470  10.1098500  21.8832890
 129.5873420  12.1067670  34.5276040 128.8621610  12.6996450  34.3305430
 130.1148880  12.0991210  33.7289410 129.5386530  16.5042410  24.1788200
 128.8962690  15.8498030  24.4531920 129.1517190  16.9097500  23.4028870
 125.1173010  13.8327840  28.0259890 125.4696830  13.2355970  27.3661260
 124.2335340  13.5072070  28.1968140 121.2036290  14.5925530  25.4330300
 121.8907420  15.1394740  25.8137890 120.4168710  15.1366260  25.4679910
 113.3428690  10.2098350  20.9247380 114.2123540  10.4923150  21.2083300
 112.8519010  11.0234220  20.8096190 120.5063500  11.5971560  25.0455660
 120.9626280  12.4076810  25.2715850 120.1551710  11.2794700  25.8774150
 122.8096110  17.1077900  32.2747960 123.4538330  17.3137280  32.9521380
 123.1725550  16.3466300  31.8218810 116.4075280   1.9409210  25.5178180
 116.2789910   1.9327110  26.4663100 115.5837300   2.2792300  25.1669190
 124.0828190  15.1110250  30.9925410 124.7250420  14.4103410  31.1057580
 124.6077540  15.8908690  30.8122300 127.9283910  15.3958870  20.7164550
 127.7021490  14.6789310  21.3089190 127.5380110  15.1471310  19.8786300
 125.8565810  15.9105150  34.1961470 126.1922050  16.4971840  34.8739390
 124.9366150  15.7797860  34.4259260 113.7099940  19.4225730  21.4909010
 114.0697580  20.0215070  20.8366280 113.5692280  19.9685620  22.2644040
 113.4069210   3.7000330  34.9784880 112.6927730   3.8997250  35.5837490
 113.8264250   2.9239900  35.3499680 127.5100160  13.3130810  22.3778710
 127.2221860  13.7743500  23.1656590 128.3052330  12.8528580  22.6462930
 113.6941800  17.6880590  35.9651410 113.8032920  16.7475330  35.8246800
 113.0422360  17.9535340  35.3165140 121.6854390  15.9596480  37.3649530
 121.3651260  15.2405720  37.9095220 121.0112750  16.6351550  37.4385590
 119.7268560  16.8056930  22.3082680 119.7178660  17.5386620  21.6927190
 118.8066920  16.5588510  22.4009640 115.3275200  12.0271820  23.0529440
 114.7203150  12.7670720  23.0624740 115.8024550  12.1171180  22.2267640
 124.9007990   6.1922640  32.7286330 125.2688810   5.3717850  33.0565900
 124.0406190   6.2524530  33.1441980 128.2670020   5.1479580  23.5373890
 127.6383180   5.2525250  22.8232120 127.7721940   5.3676360  24.3267770
 122.7128160  16.8685170  20.9707870 122.8140140  16.6649160  20.0409850
 121.8129900  16.6143450  21.1755650 120.2354050   7.4265530  24.9531770
 119.5270200   7.8951870  25.3945380 120.5198530   6.7687540  25.5876960
 121.8609980   8.8462230  32.9524300 122.3595230   9.3208050  33.6176150
 122.0032930   7.9225750  33.1594330 124.2669480   4.1516190  26.3927560
 124.1437260   4.1702320  25.4437070 125.2154040   4.1995130  26.5125960
 121.3546270  19.3871490  25.6655540 121.6087770  19.3492880  24.7434910
 120.4058750  19.2604820  25.6583790 118.4389070   5.7350610  22.3282480
 119.2879600   6.1720760  22.2622670 118.0720340   6.0470870  23.1554540
 129.0676840   5.0630190  33.7952690 128.5650440   5.8035590  34.1346500
 129.8833500   5.4514190  33.4789480 127.3598850  10.3063370  27.2414050
 126.4188990  10.3213600  27.4161740 127.6742920   9.5199330  27.6874350
 117.3380490  11.9882970  20.8018010 118.1043760  11.8764330  21.3643440
 117.4155180  11.2920940  20.1494780 116.0327250   9.4208040  21.4850900
 116.1130840   8.4735550  21.5968300 116.9247000   9.7514920  21.5911560
 129.3624430  17.4772220  28.9168310 129.4871850  18.3003390  29.3892120
 130.2289990  17.2662950  28.5692460 116.8341960  19.5703430  28.5885440
 117.5704440  19.0218890  28.8594010 117.2182880  20.4359440  28.4491430
 113.7187440  15.6377000  24.4626950 112.7927220  15.8798140  24.4532360
 114.1843870  16.4651260  24.3411700 115.8400240  18.7549500  37.7771020
 116.6412970  19.0761550  38.1906420 115.3252060  18.3945080  38.4990930
 119.9444270  18.7433740  20.4111010 120.7372880  19.0322570  19.9592800
 119.4248620  18.3125910  19.7323490 124.6764870  14.8629370  37.7246430
 124.0703030  14.8860970  36.9842180 124.3718980  14.1312410  38.2613680
 126.1065240  18.5909660  36.3355840 127.0586990  18.5067680  36.2856080
 125.9593460  19.2551370  37.0089630 128.9974440  17.9703870  21.8347750
 128.7115950  17.5569010  21.0201930 128.7993990  18.8991580  21.7148270
 113.5598050  11.2422960  36.7207070 114.0637070  10.6630240  37.2923300
 112.8205470  11.5263190  37.2583440 120.4621670  13.9637150  20.2753360
 120.3572310  13.3489500  21.0014740 120.2945890  13.4403040  19.4916370
 120.6135990  12.6493950  36.2542590 119.8481660  13.2178950  36.1697260
 120.7951950  12.3570160  35.3610820 123.7024400  13.0257180  20.8795350
 123.1534500  13.4726480  21.5238090 124.3243660  12.5206430  21.4033020
 127.7559340  14.3799280  36.8117610 128.4968810  14.7175040  36.3085070
 126.9932020  14.5491340  36.2587380 115.5921130   9.3852550  37.6157140
 115.6326470   9.0866420  38.5242370 116.4466630   9.7860160  37.4564660
 119.3699520  11.9848100  22.7760650 119.7915940  11.8187970  23.6192040
 119.4950360  11.1748330  22.2815790 117.5326940   7.9644650  35.5831630
 117.0023400   7.4735600  34.9554970 118.2015010   8.3928850  35.0489560
 121.8827160  11.0085710  20.0237750 122.4032820  10.2934730  19.6578900
 122.5295560  11.6471580  20.3238260 126.4305000  12.4314110  35.3472820
 126.8446020  12.5859190  36.1963240 125.4956000  12.5569330  35.5098600
 126.9027170   9.7710270  37.3511970 127.4847940   9.0162590  37.2632450
 127.0788940  10.3017710  36.5743450 118.0199240   4.9307020  35.6628920
 117.9256110   4.3127770  34.9379790 117.4396630   5.6573310  35.4358830
 120.7860680   3.4880260  32.6956310 120.3377980   3.5104520  31.8501860
 120.1525880   3.0899280  33.2926610 121.1920230  12.3834590  33.3168750
 121.6108340  13.2267320  33.1444990 120.2728860  12.5206630  33.0875530
 123.5284130  10.1150770  34.7006590 123.6480340   9.5191910  35.4401430
 124.3878130  10.1520460  34.2807890 125.8672030  10.6687960  33.2769100
 125.3407250  11.1930580  32.6734240 126.2103370  11.3015350  33.9078830
 118.2658420   8.0581330  19.7218810 118.0647480   7.1948690  20.0832150
 118.0950470   7.9714690  18.7840410 119.0427650  18.6887600  34.4326480
 118.5048740  19.4133660  34.1135180 119.2961610  18.2117940  33.6423820
 120.2952900   6.6572120  35.9582410 120.8852590   6.3487970  36.6460230
 119.4773140   6.1851870  36.1142310 125.1146330   6.2737930  36.1915430
 124.4261850   5.6119470  36.1265420 125.8352350   5.8276200  36.6363890
 125.7446730   2.8689560  22.2505690 126.0249020   2.0257460  22.6065110
 124.9712460   3.1012670  22.7644440 117.0641220   5.1581950  19.7096690
 117.3667120   5.1649380  18.8015840 117.8035810   4.8079810  20.2064350
 121.8989860  19.9238810  34.6913130 121.8248560  20.8273950  34.9985500
 120.9968700  19.6050710  34.6635200 120.2826150   4.1016570  20.6952890
 119.9348150   3.4240560  20.1155340 120.4838920   3.6406080  21.5096280
 122.4475190  19.0897320  22.3139490 123.3425980  19.4282290  22.3358250
 122.4792820  18.3676730  21.6863770 116.0871350  14.4624370  20.5426490
 116.5246220  15.0054040  21.1984070 116.5719080  13.6371320  20.5522830
 113.3017150  17.2513400  27.9946750 113.6320160  16.3834460  27.7625390
 113.7308150  17.4571920  28.8251710 117.8979070  15.5822410  25.6548720
 117.5974610  15.4587380  26.5552630 117.7916560  14.7231000  25.2464450
 113.7907360  18.1183990  30.7328380 113.3538350  18.2984790  31.5652530
 114.3585040  18.8758610  30.5910100 129.4269540  17.6200990  35.0205690
 128.8271530  17.6793550  34.2769610 129.5563440  16.6805970  35.1502540
 130.6670990  15.3618810  20.3575400 129.8363950  15.4295460  20.8282630
 130.8442820  16.2522930  20.0542260 130.1227450  12.1066290  22.8609600
 130.8846360  12.6762940  22.9669290 130.1381820  11.5393490  23.6317910
 113.6231790  10.6304220  27.0917260 112.9680630  10.3615860  26.4476960
 114.4609740  10.5208700  26.6419240 131.1287420  12.9616390  27.7051530
 131.4996250  12.1783710  27.2987500 131.7689350  13.6505490  27.5268830
 128.1121180  14.3452970  33.1181850 127.2981020  14.7750130  33.3807640
 128.5195380  14.9571380  32.5050900 130.1746620  12.4000660  20.0182120
 130.4495460  13.3079540  19.8901340 129.9857360  12.3363190  20.9544110
 126.5722230   5.4245510  21.3135750 126.9907110   5.2376490  20.4732410
 126.2658290   4.5724560  21.6238680 130.0711960  10.3369650  25.0111550
 129.6955560   9.5697580  24.5792840 129.3415080  10.7192350  25.4986480
 114.6607720  11.0156790  31.6320600 115.0280760  10.9284190  32.5116620
 114.0918540  10.2523340  31.5327460 129.4611580   9.4841170  34.6451070
 129.2297670   9.2553920  33.7449020 129.7216130  10.4040720  34.5995960
 114.2123720   7.9265880  35.5379020 113.3179770   7.8932640  35.8772730
 114.7521270   8.1252670  36.3030270 127.8999650   4.7097600  37.4230770
 128.7769830   4.7181000  37.8064770 127.9120490   3.9728440  36.8123120
 112.8369870   7.8403150  23.0342590 111.9333950   8.1033350  22.8594250
 113.3210490   8.1114320  22.2542550 129.3462920   8.5627140  28.3118790
 129.8700400   8.0689790  27.6808960 129.9322340   8.6977500  29.0566360
 129.5252640   8.6467010  31.8338340 128.5755350   8.6130550  31.9483330
 129.7065650   9.5567120  31.5988110 115.3797080   6.8968690  20.9436970
 116.0888780   6.4751910  20.4584250 114.6637020   6.9643920  20.3120320
 115.0271240   2.9508020  19.9839620 115.7499370   3.4916960  20.3020840
 115.2995760   2.6771440  19.1081160 128.8362890   7.8200490  24.2511200
 129.3322010   7.5871360  25.0360080 128.6378960   6.9812330  23.8348840
 114.7163430   2.2014210  29.8862240 115.3639620   1.6511590  29.4457400
 115.1365270   2.4557360  30.7078050 130.2650050   6.4561440  26.7848880
 130.1549330   6.3017480  27.7231150 131.0257640   5.9282380  26.5424290
 128.6115770   2.3955570  33.2431880 129.2487990   3.0089710  33.6091070
 128.7590660   2.4316230  32.2981110 131.1540320   4.2869360  20.0255020
 132.0789630   4.1550540  19.8173310 131.1316110   4.3662180  20.9791470
 131.2278810   5.0580020  22.6511730 130.4330310   4.9925140  23.1804640
 131.4322090   5.9930660  22.6397080 128.1697230  19.0971570  26.6450120
 128.7656300  18.7756140  25.9684540 128.4275380  18.6243390  27.4363390
 114.4695430   2.3569880  32.6287560 114.1210250   2.8133700  33.3945740
 114.1383130   1.4627010  32.7109990 116.0759800  15.5289480  36.7940750
 116.0329430  15.1582390  37.6755210 116.2070810  16.4667050  36.9342570
 119.7765830  17.0849070  32.3950470 119.5357190  17.3523630  31.5080990
 120.7168470  17.2554800  32.4501330 121.9820250   3.5481760  36.1506980
 121.9209140   4.1403590  36.9002390 122.9220630   3.4407720  36.0057240
 124.6194810   3.2051820  35.7899270 125.2335220   3.5231110  35.1280350
 125.1644370   2.7200410  36.4095130 131.0369990  19.1043450  33.1961110
 130.5428270  19.5012320  32.4788240 130.4283280  18.4792660  33.5898390
 115.9147830  18.4751730  33.9138530 115.3208150  18.3436430  34.6528570
 115.9071670  17.6389870  33.4480630 126.2674830   3.9754830  33.5010280
 125.9388190   3.1606590  33.1212010 127.2157130   3.9324640  33.3775970
 128.7209440  19.7466870  30.4747850 128.2612410  20.4982680  30.1005870
 128.0921900  19.0273340  30.4162650 115.5460060  15.8410110  32.8646570
 114.8194120  15.2215400  32.7972520 115.6069210  16.2350720  31.9944650
 119.1505160  18.0555110  29.6495980 119.6670180  17.4442470  29.1244240
 119.8002540  18.5583890  30.1406990 121.8900660  18.9463600  30.4764960
 122.1778470  18.6917900  29.5997970 122.4023880  18.3940960  31.0670530
 123.1077670   2.6853800  31.0561470 122.3249460   3.1599300  31.3358230
 122.8140600   1.7808630  30.9474650 127.6598740   3.3876900  29.1010560
 128.1006830   3.3322000  28.2532160 127.3906330   4.3034910  29.1720740
 129.5237310   3.0192140  27.1119380 129.4625710   2.0753360  26.9650400
 130.3029340   3.1272230  27.6572840 113.8290060  19.1584500  26.0743330
 113.6612100  18.5255180  26.7725220 112.9624570  19.3643900  25.7237520
 114.4518080   2.9901280  23.5775190 115.2097440   3.1030160  23.0039220
 113.9895250   3.8270480  23.5318620 120.9931890   5.1040550  26.5677500
 120.1806400   4.7297440  26.2273380 121.4973530   4.3485630  26.8698690
 125.4956870   1.7683000  27.8060570 126.0986240   2.3403210  28.2809090
 124.7549860   2.3322440  27.5834470 128.6391470   2.1704560  23.0800850
 128.8342100   3.0688010  23.3468280 127.8521340   1.9391640  23.5733800
 115.4352760  17.8517730  23.5193470 114.9100380  18.2325760  22.8155430
 115.3597340  18.4768500  24.2403180 116.8243230   3.5165330  22.1177160
 117.3535990   2.7295130  21.9885110 117.4571550   4.1956520  22.3512690
 119.0181070   3.2540470  25.1722550 118.3883810   2.5527780  25.3392680
 118.4786210   4.0144600  24.9555710 121.9573020  19.8679700  37.8433160
 122.8840330  19.6323970  37.8869120 121.9423450  20.6951700  37.3619190
 130.1918080  19.4105270  24.8407410 130.3670270  18.7243010  24.1968330
 129.4939650  19.9352320  24.4484080 119.1436630   2.5324450  37.6075040
 118.8620900   3.0358050  36.8435860 119.5256330   1.7346200  37.2417170
 118.0345730  19.8000110  22.3942720 118.7664550  19.5159390  21.8466610
 118.2939400  19.5613390  23.2842100 117.1960520  15.9164840  22.3989050
 116.5669400  16.3849940  22.9474880 117.3108350  15.0714060  22.8335240
 125.7452090   1.9478030  38.1855510 125.6317540   2.2672640  39.0807030
 126.5621830   2.3490540  37.8892790 128.5250580  19.0949560  37.6674200
 129.3175900  18.5998790  37.4600160 128.8183730  19.7739700  38.2749810
 124.6510240   9.9670500   8.5490250 124.5704290   9.0525110   8.2781960
 124.2374660  10.4637570   7.8429960 122.7828280  11.7449520  10.4299520
 122.0070380  11.2649960  10.7198090 123.4341210  11.0655170  10.2555680
 116.7994110  12.0569330  11.3075280 115.9678990  11.8018040  11.7071790
 117.4075090  12.1280100  12.0433200 126.8035710  16.1509710   9.2098650
 126.3417240  15.3796950   9.5385820 127.6161260  16.1775780   9.7151100
 116.7795370  16.0909420  11.5033300 117.0823410  15.2007160  11.3243520
 117.5238960  16.6479640  11.2755550 115.2086060   7.0171220   5.0917670
 114.3202760   7.3587190   4.9897550 115.4927250   6.8171540   4.1998500
 113.1719070   9.6176870  10.9757370 113.7435180   8.8499070  10.9761010
 113.1720610   9.9165630  10.0663980 123.0299020  18.4367720   8.8302640
 122.4110460  18.8925220   8.2597080 123.8850800  18.5919180   8.4292340
 122.2237270  14.4206710  10.4369680 122.1545550  13.4796650  10.2758810
 122.9857130  14.5108120  11.0092250 114.4143940   5.0261230  12.7626300
 114.2346780   4.1286980  13.0429060 114.0124020   5.5733100  13.4373250
 123.2542440   7.2277090  10.6638610 123.6307260   6.3548970  10.5512280
 123.1561950   7.5635790   9.7729050 117.3847450   5.6002720   6.1256050
 117.4914200   6.5006450   6.4324810 116.4739810   5.5520690   5.8350700
 127.0366560   4.7227530   7.5966950 127.8576180   4.2324100   7.6392430
 127.0700640   5.3125190   8.3498790 115.0330610   7.5221730  11.3708640
 115.7140720   7.7860100  11.9896040 114.7178660   6.6822600  11.7046650
 119.2255180   8.5689090  10.4581230 119.7333400   9.0670060  11.0986250
 119.7568420   7.7924290  10.2820590 131.3266110   6.7394280  14.1610580
 130.6218280   7.1275990  13.6425690 131.5924030   7.4344570  14.7631510
 117.5091280   3.2087650  14.7244650 117.5109720   3.7260040  13.9190550
 116.6795590   2.7317830  14.7014580 123.8962370  13.3206960   6.2234550
 123.2779640  13.7856410   5.6597270 124.4085620  14.0134440   6.6404060
 118.7594130  12.8482830  12.9018150 118.4263510  13.4751750  13.5439220
 118.9360810  13.3744710  12.1219820 127.2728040   6.6627910  10.3694490
 126.5683610   6.9512800  10.9497600 127.6340200   7.4728020  10.0094050
 117.1906610   4.9197610  12.7315100 117.5323420   5.7639660  12.4368970
 116.2522420   5.0681350  12.8480440 117.9713230  14.8163630  14.7167330
 118.5887230  15.4914710  14.4351780 117.1106350  15.2251610  14.6254830
 113.2645570  14.0063490   3.5974180 112.8873550  14.4950590   2.8659080
 113.5218640  14.6788770   4.2280710 128.8890820  16.2803040  12.6321970
 128.2054340  16.9502150  12.6238640 129.4285110  16.4783690  11.8666830
 130.3414960   6.1082700  10.7603700 129.3939870   6.1421680  10.8919130
 130.6664950   6.9221650  11.1453060 120.8734500   2.4079880   9.0559690
 121.1809480   1.8526770   8.3395190 119.9435200   2.5424340   8.8732680
 126.4249560  18.1247170  11.3467150 126.4376720  17.7209460  10.4789410
 125.8724780  18.8994460  11.2428580 127.7194980  14.8463390   6.4357320
 127.6091310  13.9037720   6.5606740 127.7163230  15.2079030   7.3220080
 125.8235000  13.0277010  12.6749760 126.2403790  12.8137120  11.8403220
 126.5474820  13.2849800  13.2458380 123.2615260  10.4728710   5.7919810
 122.3344540  10.4066090   6.0208280 123.4140080  11.4108840   5.6775050
 123.2484340   6.7445710   2.7886970 122.3088010   6.9059670   2.8739430
 123.5667600   7.4631390   2.2422960 129.7697100  11.4264230  12.7666000
 128.9415730  11.4957320  12.2916130 130.3647580  12.0118540  12.2981830
 127.2912550  12.0349010   6.2955060 126.6724970  11.6968560   5.6481360
 127.2737000  11.3908770   7.0034250 126.7339110   8.2133550  13.7120870
 126.3210290   9.0387260  13.9660860 126.0015060   7.6278590  13.5197230
 118.8671900  10.9993450   8.5739540 118.4628900  10.2870700   8.0785440
 118.9535020  10.6546690   9.4627580 119.3353600  14.6861010  10.7378750
 119.0381890  14.0806480  10.0586530 120.2853420  14.7238320  10.6268110
 117.5800520   7.7736660  12.3538580 118.1315110   7.8832000  11.5791830
 118.0944030   8.1474260  13.0693810 127.4239210  18.2592880  14.4001850
 126.9469770  19.0665070  14.2074460 126.7401000  17.6071210  14.5528060
 118.4272030  14.4242700  17.3886550 117.5300560  14.6482670  17.6359950
 118.4524900  14.5477640  16.4397950 125.4677250  11.2735820   3.3027810
 125.9070530  10.4358250   3.1565630 126.1805670  11.9065220   3.3891950
 117.2543250  11.2956020  15.9643920 117.1151020  12.1678820  16.3331320
 116.3724610  10.9528830  15.8191860 123.5772630  16.2131890   7.2709050
 124.0168540  16.9556220   6.8564440 123.5159520  16.4558460   8.1948010
 119.0523600  17.2377720  18.1729070 119.0239030  17.6420670  17.3057500
 118.8888570  16.3088080  18.0100670 115.5676530   9.8938430   6.0746190
 115.4474130  10.6200520   5.4627460 115.2577420   9.1241340   5.5974100
 131.0038420  18.0204820  19.4693240 131.4798140  18.4987710  20.1482320
 131.6245580  17.9522310  18.7438740 113.2061900  13.0653570  11.8814830
 113.2842320  13.2002340  10.9370550 113.8203580  12.3569460  12.0742950
 114.4509530  14.7653760   8.2921010 114.0437610  14.9068350   7.4374610
 115.3422540  14.4813920   8.0892220 130.4071670  15.2117670  16.6293250
 130.5334730  14.9729550  15.7110430 130.4493050  14.3802210  17.1015330
 124.2688410  18.9145670  15.1988060 124.7833080  18.8253680  16.0010490
 123.4257490  19.2605370  15.4915970 126.2442810  19.2001010   4.6272060
 126.0843950  18.9103950   5.5253890 126.0789520  18.4241140   4.0917290
 118.7231190  18.9799540   6.4043680 118.5473670  18.0635080   6.1911480
 117.8686930  19.3386830   6.6441480 125.9468940  16.7088570   3.1870060
 125.2534100  16.7065860   2.5272340 126.6891800  16.2847890   2.7564230
 125.5118870  18.3351280   7.2618550 125.9675820  17.5540660   7.5757170
 125.8511390  19.0458100   7.8059730 130.2595680   7.2650130  17.5942990
 129.6439950   7.7729800  17.0658450 129.9392100   6.3648460  17.5368930
 113.2621420  14.1067740  14.4209290 113.4252460  13.6373100  13.6028660
 113.7273870  13.5991300  15.0858130 118.0340190   3.2373500   9.4569860
 117.5908340   4.0183040   9.1254380 118.5925180   3.5603390  10.1640800
 122.3210000   6.1042020  15.0605180 121.8589370   6.3125040  15.8725120
 121.9188110   5.2901370  14.7575850 127.3214510   7.3250970  16.1901840
 126.4708100   7.0256720  16.5110910 127.1616300   7.5692980  15.2785660
 124.4164220   8.8252720  18.2900630 124.7417630   7.9916470  17.9502860
 125.2044550   9.3481240  18.4378960 121.1499010   2.8584200   4.3375690
 120.5253190   2.8544070   5.0629000 121.0629130   1.9915160   3.9411660
 120.0716090   3.7820830  11.3159460 120.3688420   4.6883660  11.2351480
 120.6201650   3.2939610  10.7019030 117.8254410   8.3607070   7.1851110
 117.5995330   8.1444240   8.0897730 117.0446940   8.7935530   6.8397080
 125.0552170   8.3670440   5.7841760 124.4561060   9.0906240   5.6005380
 125.6031780   8.3047220   5.0018210 120.2653620   9.2592650  17.8511380
 120.1697220   8.3187380  17.7011780 121.1085600   9.4807720  17.4559450
 123.6617040   7.0033980   7.8145040 124.0546610   7.3206180   7.0013730
 124.0233890   6.1245860   7.9289560 115.3964160   5.6706320  16.0045160
 115.0027550   6.5181530  16.2117940 114.7082560   5.0332690  16.1953800
 121.9709210   5.7541290  19.0741900 121.2807530   5.5613490  19.7087990
 122.7141510   6.0375930  19.6066200 112.6981210   3.5934780  10.0375240
 112.4094260   4.1637640  10.7500220 113.4426970   3.1139230  10.4006470
 124.2472180   9.5939730  11.9095820 123.5153300  10.1026540  12.2585920
 123.8496520   8.7769710  11.6084600 120.6849570   6.2693930  10.3148310
 120.6885630   5.8283880   9.4652850 121.5800690   6.5911260  10.4220130
 116.5351950   6.1520420   9.2742520 116.1952000   6.6295650  10.0309570
 115.7729270   5.6985540   8.9143620 120.7469720   7.2706010   3.3055070
 120.8682540   7.2292490   4.2540890 120.3618230   8.1330160   3.1501800
 124.7098090   5.0473410  11.3218760 124.7270830   5.4982060  12.1660610
 124.4613670   4.1479050  11.5352200 119.7591220   9.5807150   2.7038370
 119.1908120   9.1325400   2.0774280 120.4680220   9.9399930   2.1703520
 128.1368840   2.4605590  17.1605140 128.4614610   1.7295250  17.6863120
 128.1725350   2.1419230  16.2586130 114.8360400  13.4819170  16.5805100
 114.4515190  12.8412840  17.1788060 115.1472590  14.1855290  17.1499830
 120.9857540  10.3295710  12.0613720 121.3527670   9.8554280  12.8075060
 120.7962600  11.2037280  12.4022060 113.8498030   5.0739400   8.1907190
 113.5644950   4.7095070   9.0285810 113.7876890   4.3419860   7.5770330
 118.7756910   9.3704350  14.3797930 118.4713980  10.2496330  14.6048290
 119.7303370   9.4304140  14.4155370 117.3038700  13.5765340   4.9764780
 116.5300960  13.0362960   4.8163500 118.0333330  13.0571950   4.6382540
 128.0626680  12.5730700  10.7691170 128.7825800  13.0685990  10.3787280
 127.8608500  11.8948590  10.1245040 123.5236620   3.9668660   4.9120560
 122.7101230   3.4681830   4.8365870 123.3298570   4.8066910   4.4956910
 123.4445480  12.6439760  16.6560170 123.3782790  11.7235430  16.4017760
 122.8150620  12.7415200  17.3704810 126.2385010   8.3388310   3.2082720
 127.1264630   8.6505540   3.0334060 126.2090100   7.4660560   2.8163300
 117.3476100  13.2445720   8.6143590 117.8654770  12.4413980   8.5600480
 116.8960120  13.1824860   9.4560420 122.2345600  14.5112000   3.8870890
 122.5761300  15.2554230   3.3914210 121.4058310  14.8243120   4.2495720
 114.8320640  10.2107090  15.5269290 114.4735580  10.8760940  16.1142630
 114.5375200   9.3790640  15.8981910 118.0333760  10.6691330  18.4108840
 117.7333900  10.8148510  17.5136660 118.8045000  10.1096620  18.3182230
 123.3762210  15.4660330  16.4063970 123.3906750  14.5341290  16.1882880
 122.6687310  15.5520090  17.0453740 128.5099280   9.6500150   2.6762580
 128.4263000  10.0814370   1.8259020 129.2293470  10.1098500   3.1089400
 129.5873420  12.1067670  15.7532550 128.8621610  12.6996450  15.5561940
 130.1148880  12.0991210  14.9545920 129.5386530  16.5042410   5.4044710
 128.8962690  15.8498030   5.6788430 129.1517190  16.9097500   4.6285380
 125.1173010  13.8327840   9.2516400 125.4696830  13.2355970   8.5917770
 124.2335340  13.5072070   9.4224650 121.2036290  14.5925530   6.6586810
 121.8907420  15.1394740   7.0394400 120.4168710  15.1366260   6.6936420
 113.3428690  10.2098350   2.1503890 114.2123540  10.4923150   2.4339810
 112.8519010  11.0234220   2.0352700 120.5063500  11.5971560   6.2712170
 120.9626280  12.4076810   6.4972360 120.1551710  11.2794700   7.1030660
 122.8096110  17.1077900  13.5004470 123.4538330  17.3137280  14.1777890
 123.1725550  16.3466300  13.0475320 116.4075280   1.9409210   6.7434690
 116.2789910   1.9327110   7.6919610 115.5837300   2.2792300   6.3925700
 124.0828190  15.1110250  12.2181920 124.7250420  14.4103410  12.3314090
 124.6077540  15.8908690  12.0378810 125.8565810  15.9105150  15.4217980
 126.1922050  16.4971840  16.0995900 124.9366150  15.7797860  15.6515770
 113.7099940  19.4225730   2.7165520 114.0697580  20.0215070   2.0622790
 113.5692280  19.9685620   3.4900550 113.4069210   3.7000330  16.2041390
 112.6927730   3.8997250  16.8094000 113.8264250   2.9239900  16.5756190
 127.5100160  13.3130810   3.6035220 127.2221860  13.7743500   4.3913100
 128.3052330  12.8528580   3.8719440 113.6941800  17.6880590  17.1907920
 113.8032920  16.7475330  17.0503310 113.0422360  17.9535340  16.5421650
 121.6854390  15.9596480  18.5906040 121.3651260  15.2405720  19.1351730
 121.0112750  16.6351550  18.6642100 119.7268560  16.8056930   3.5339190
 119.7178660  17.5386620   2.9183700 118.8066920  16.5588510   3.6266150
 115.3275200  12.0271820   4.2785950 114.7203150  12.7670720   4.2881250
 115.8024550  12.1171180   3.4524150 124.9007990   6.1922640  13.9542840
 125.2688810   5.3717850  14.2822410 124.0406190   6.2524530  14.3698490
 128.2670020   5.1479580   4.7630400 127.6383180   5.2525250   4.0488630
 127.7721940   5.3676360   5.5524280 120.2354050   7.4265530   6.1788280
 119.5270200   7.8951870   6.6201890 120.5198530   6.7687540   6.8133470
 121.8609980   8.8462230  14.1780810 122.3595230   9.3208050  14.8432660
 122.0032930   7.9225750  14.3850840 124.2669480   4.1516190   7.6184070
 124.1437260   4.1702320   6.6693580 125.2154040   4.1995130   7.7382470
 121.3546270  19.3871490   6.8912050 121.6087770  19.3492880   5.9691420
 120.4058750  19.2604820   6.8840300 118.4389070   5.7350610   3.5538990
 119.2879600   6.1720760   3.4879180 118.0720340   6.0470870   4.3811050
 129.0676840   5.0630190  15.0209200 128.5650440   5.8035590  15.3603010
 129.8833500   5.4514190  14.7045990 127.3598850  10.3063370   8.4670560
 126.4188990  10.3213600   8.6418250 127.6742920   9.5199330   8.9130860
 116.0327250   9.4208040   2.7107410 116.1130840   8.4735550   2.8224810
 116.9247000   9.7514920   2.8168070 129.3624430  17.4772220  10.1424820
 129.4871850  18.3003390  10.6148630 130.2289990  17.2662950   9.7948970
 116.8341960  19.5703430   9.8141950 117.5704440  19.0218890  10.0850520
 117.2182880  20.4359440   9.6747940 113.7187440  15.6377000   5.6883460
 112.7927220  15.8798140   5.6788870 114.1843870  16.4651260   5.5668210
 115.8400240  18.7549500  19.0027530 116.6412970  19.0761550  19.4162930
 115.3252060  18.3945080  19.7247440 124.6764870  14.8629370  18.9502940
 124.0703030  14.8860970  18.2098690 124.3718980  14.1312410  19.4870190
 126.1065240  18.5909660  17.5612350 127.0586990  18.5067680  17.5112590
 125.9593460  19.2551370  18.2346140 128.9974440  17.9703870   3.0604260
 128.7115950  17.5569010   2.2458440 128.7993990  18.8991580   2.9404780
 113.5598050  11.2422960  17.9463580 114.0637070  10.6630240  18.5179810
 112.8205470  11.5263190  18.4839950 120.6135990  12.6493950  17.4799100
 119.8481660  13.2178950  17.3953770 120.7951950  12.3570160  16.5867330
 123.7024400  13.0257180   2.1051860 123.1534500  13.4726480   2.7494600
 124.3243660  12.5206430   2.6289530 127.7559340  14.3799280  18.0374120
 128.4968810  14.7175040  17.5341580 126.9932020  14.5491340  17.4843890
 115.5921130   9.3852550  18.8413650 115.6326470   9.0866420  19.7498880
 116.4466630   9.7860160  18.6821170 119.3699520  11.9848100   4.0017160
 119.7915940  11.8187970   4.8448550 119.4950360  11.1748330   3.5072300
 117.5326940   7.9644650  16.8088140 117.0023400   7.4735600  16.1811480
 118.2015010   8.3928850  16.2746070 126.4305000  12.4314110  16.5729330
 126.8446020  12.5859190  17.4219750 125.4956000  12.5569330  16.7355110
 126.9027170   9.7710270  18.5768480 127.4847940   9.0162590  18.4888960
 127.0788940  10.3017710  17.7999960 118.0199240   4.9307020  16.8885430
 117.9256110   4.3127770  16.1636300 117.4396630   5.6573310  16.6615340
 120.7860680   3.4880260  13.9212820 120.3377980   3.5104520  13.0758370
 120.1525880   3.0899280  14.5183120 121.1920230  12.3834590  14.5425260
 121.6108340  13.2267320  14.3701500 120.2728860  12.5206630  14.3132040
 123.5284130  10.1150770  15.9263100 123.6480340   9.5191910  16.6657940
 124.3878130  10.1520460  15.5064400 125.8672030  10.6687960  14.5025610
 125.3407250  11.1930580  13.8990750 126.2103370  11.3015350  15.1335340
 119.0427650  18.6887600  15.6582990 118.5048740  19.4133660  15.3391690
 119.2961610  18.2117940  14.8680330 120.2952900   6.6572120  17.1838920
 120.8852590   6.3487970  17.8716740 119.4773140   6.1851870  17.3398820
 125.1146330   6.2737930  17.4171940 124.4261850   5.6119470  17.3521930
 125.8352350   5.8276200  17.8620400 125.7446730   2.8689560   3.4762200
 126.0249020   2.0257460   3.8321620 124.9712460   3.1012670   3.9900950
 121.8989860  19.9238810  15.9169640 121.8248560  20.8273950  16.2242010
 120.9968700  19.6050710  15.8891710 122.4475190  19.0897320   3.5396000
 123.3425980  19.4282290   3.5614760 122.4792820  18.3676730   2.9120280
 116.0871350  14.4624370   1.7683000 116.5246220  15.0054040   2.4240580
 116.5719080  13.6371320   1.7779340 113.3017150  17.2513400   9.2203260
 113.6320160  16.3834460   8.9881900 113.7308150  17.4571920  10.0508220
 117.8979070  15.5822410   6.8805230 117.5974610  15.4587380   7.7809140
 117.7916560  14.7231000   6.4720960 113.7907360  18.1183990  11.9584890
 113.3538350  18.2984790  12.7909040 114.3585040  18.8758610  11.8166610
 129.4269540  17.6200990  16.2462200 128.8271530  17.6793550  15.5026120
 129.5563440  16.6805970  16.3759050 130.1227450  12.1066290   4.0866110
 130.8846360  12.6762940   4.1925800 130.1381820  11.5393490   4.8574420
 113.6231790  10.6304220   8.3173770 112.9680630  10.3615860   7.6733470
 114.4609740  10.5208700   7.8675750 131.1287420  12.9616390   8.9308040
 131.4996250  12.1783710   8.5244010 131.7689350  13.6505490   8.7525340
 128.1121180  14.3452970  14.3438360 127.2981020  14.7750130  14.6064150
 128.5195380  14.9571380  13.7307410 126.5722230   5.4245510   2.5392260
 126.9907110   5.2376490   1.6988920 126.2658290   4.5724560   2.8495190
 130.0711960  10.3369650   6.2368060 129.6955560   9.5697580   5.8049350
 129.3415080  10.7192350   6.7242990 114.6607720  11.0156790  12.8577110
 115.0280760  10.9284190  13.7373130 114.0918540  10.2523340  12.7583970
 129.4611580   9.4841170  15.8707580 129.2297670   9.2553920  14.9705530
 129.7216130  10.4040720  15.8252470 114.2123720   7.9265880  16.7635530
 113.3179770   7.8932640  17.1029240 114.7521270   8.1252670  17.5286780
 127.8999650   4.7097600  18.6487280 128.7769830   4.7181000  19.0321280
 127.9120490   3.9728440  18.0379630 112.8369870   7.8403150   4.2599100
 111.9333950   8.1033350   4.0850760 113.3210490   8.1114320   3.4799060
 129.3462920   8.5627140   9.5375300 129.8700400   8.0689790   8.9065470
 129.9322340   8.6977500  10.2822870 129.5252640   8.6467010  13.0594850
 128.5755350   8.6130550  13.1739840 129.7065650   9.5567120  12.8244620
 128.8362890   7.8200490   5.4767710 129.3322010   7.5871360   6.2616590
 128.6378960   6.9812330   5.0605350 114.7163430   2.2014210  11.1118750
 115.3639620   1.6511590  10.6713910 115.1365270   2.4557360  11.9334560
 130.2650050   6.4561440   8.0105390 130.1549330   6.3017480   8.9487660
 131.0257640   5.9282380   7.7680800 128.6115770   2.3955570  14.4688390
 129.2487990   3.0089710  14.8347580 128.7590660   2.4316230  13.5237620
 131.2278810   5.0580020   3.8768240 130.4330310   4.9925140   4.4061150
 131.4322090   5.9930660   3.8653590 128.1697230  19.0971570   7.8706630
 128.7656300  18.7756140   7.1941050 128.4275380  18.6243390   8.6619900
 114.4695430   2.3569880  13.8544070 114.1210250   2.8133700  14.6202250
 114.1383130   1.4627010  13.9366500 116.0759800  15.5289480  18.0197260
 116.0329430  15.1582390  18.9011720 116.2070810  16.4667050  18.1599080
 119.7765830  17.0849070  13.6206980 119.5357190  17.3523630  12.7337500
 120.7168470  17.2554800  13.6757840 121.9820250   3.5481760  17.3763490
 121.9209140   4.1403590  18.1258900 122.9220630   3.4407720  17.2313750
 124.6194810   3.2051820  17.0155780 125.2335220   3.5231110  16.3536860
 125.1644370   2.7200410  17.6351640 131.0369990  19.1043450  14.4217620
 130.5428270  19.5012320  13.7044750 130.4283280  18.4792660  14.8154900
 115.9147830  18.4751730  15.1395040 115.3208150  18.3436430  15.8785080
 115.9071670  17.6389870  14.6737140 126.2674830   3.9754830  14.7266790
 125.9388190   3.1606590  14.3468520 127.2157130   3.9324640  14.6032480
 128.7209440  19.7466870  11.7004360 128.2612410  20.4982680  11.3262380
 128.0921900  19.0273340  11.6419160 115.5460060  15.8410110  14.0903080
 114.8194120  15.2215400  14.0229030 115.6069210  16.2350720  13.2201160
 119.1505160  18.0555110  10.8752490 119.6670180  17.4442470  10.3500750
 119.8002540  18.5583890  11.3663500 121.8900660  18.9463600  11.7021470
 122.1778470  18.6917900  10.8254480 122.4023880  18.3940960  12.2927040
 123.1077670   2.6853800  12.2817980 122.3249460   3.1599300  12.5614740
 122.8140600   1.7808630  12.1731160 127.6598740   3.3876900  10.3267070
 128.1006830   3.3322000   9.4788670 127.3906330   4.3034910  10.3977250
 129.5237310   3.0192140   8.3375890 129.4625710   2.0753360   8.1906910
 130.3029340   3.1272230   8.8829350 113.8290060  19.1584500   7.2999840
 113.6612100  18.5255180   7.9981730 112.9624570  19.3643900   6.9494030
 114.4518080   2.9901280   4.8031700 115.2097440   3.1030160   4.2295730
 113.9895250   3.8270480   4.7575130 120.9931890   5.1040550   7.7934010
 120.1806400   4.7297440   7.4529890 121.4973530   4.3485630   8.0955200
 125.4956870   1.7683000   9.0317080 126.0986240   2.3403210   9.5065600
 124.7549860   2.3322440   8.8090980 128.6391470   2.1704560   4.3057360
 128.8342100   3.0688010   4.5724790 127.8521340   1.9391640   4.7990310
 115.4352760  17.8517730   4.7449980 114.9100380  18.2325760   4.0411940
 115.3597340  18.4768500   5.4659690 116.8243230   3.5165330   3.3433670
 117.3535990   2.7295130   3.2141620 117.4571550   4.1956520   3.5769200
 119.0181070   3.2540470   6.3979060 118.3883810   2.5527780   6.5649190
 118.4786210   4.0144600   6.1812220 121.9573020  19.8679700  19.0689670
 122.8840330  19.6323970  19.1125630 121.9423450  20.6951700  18.5875700
 130.1918080  19.4105270   6.0663920 130.3670270  18.7243010   5.4224840
 129.4939650  19.9352320   5.6740590 119.1436630   2.5324450  18.8331550
 118.8620900   3.0358050  18.0692370 119.5256330   1.7346200  18.4673680
 118.0345730  19.8000110   3.6199230 118.7664550  19.5159390   3.0723120
 118.2939400  19.5613390   4.5098610 117.1960520  15.9164840   3.6245560
 116.5669400  16.3849940   4.1731390 117.3108350  15.0714060   4.0591750
 125.7452090   1.9478030  19.4112020 125.6317540   2.2672640  20.3063540
 126.5621830   2.3490540  19.1149300 128.5250580  19.0949560  18.8930710
 129.3175900  18.5998790  18.6856670 128.8183730  19.7739700  19.5006320
 105.8766750 141.3874930 139.9694680 105.7960800 140.4729540 139.6986390
 105.4631170 141.8842000 139.2634390 104.0084790 143.1653950 141.8503950
 103.2326890 142.6854390 142.1402520 104.6597720 142.4859600 141.6760110
  98.0250620 143.4773760 142.7279710  97.1935500 143.2222470 143.1276220
  98.6331600 143.5484530 143.4637630 108.0292220 147.5714140 140.6303080
 107.5673750 146.8001380 140.9590250 108.8417770 147.5980210 141.1355530
  98.0051880 147.5113850 142.9237730  98.3079920 146.6211590 142.7447950
  98.7495470 148.0684070 142.6959980  96.4342570 138.4375650 136.5122100
  95.5459270 138.7791620 136.4101980  96.7183760 138.2375970 135.6202930
  94.3975580 141.0381300 142.3961800  94.9691690 140.2703500 142.3965440
  94.3977120 141.3370060 141.4868410 104.2555530 149.8572150 140.2507070
 103.6366970 150.3129650 139.6801510 105.1107310 150.0123610 139.8496770
 103.4493780 145.8411140 141.8574110 103.3802060 144.9001080 141.6963240
 104.2113640 145.9312550 142.4296680  95.6400450 136.4465660 144.1830730
  95.4603290 135.5491410 144.4633490  95.2380530 136.9937530 144.8577680
 104.4798950 138.6481520 142.0843040 104.8563770 137.7753400 141.9716710
 104.3818460 138.9840220 141.1933480  98.6103960 137.0207150 137.5460480
  98.7170710 137.9210880 137.8529240  97.6996320 136.9725120 137.2555130
 108.2623070 136.1431960 139.0171380 109.0832690 135.6528530 139.0596860
 108.2957150 136.7329620 139.7703220  96.2587120 138.9426160 142.7913070
  96.9397230 139.2064530 143.4100470  95.9435170 138.1027030 143.1251080
 100.4511690 139.9893520 141.8785660 100.9589910 140.4874490 142.5190680
 100.9824930 139.2128720 141.7025020 112.5522620 138.1598710 145.5815010
 111.8474790 138.5480420 145.0630120 112.8180540 138.8549000 146.1835940
  98.7347790 134.6292080 146.1449080  98.7366230 135.1464470 145.3394980
  97.9052100 134.1522260 146.1219010 105.1218880 144.7411390 137.6438980
 104.5036150 145.2060840 137.0801700 105.6342130 145.4338870 138.0608490
  99.9850640 144.2687260 144.3222580  99.6520020 144.8956180 144.9643650
 100.1617320 144.7949140 143.5424250 108.4984550 138.0832340 141.7898920
 107.7940120 138.3717230 142.3702030 108.8596710 138.8932450 141.4298480
  98.4163120 136.3402040 144.1519530  98.7579930 137.1844090 143.8573400
  97.4778930 136.4885780 144.2684870  99.1969740 146.2368060 146.1371760
  99.8143740 146.9119140 145.8556210  98.3362860 146.6456040 146.0459260
  94.4902080 145.4267920 135.0178610  94.1130060 145.9155020 134.2863510
  94.7475150 146.0993200 135.6485140 110.1147330 147.7007470 144.0526400
 109.4310850 148.3706580 144.0443070 110.6541620 147.8988120 143.2871260
 111.5671470 137.5287130 142.1808130 110.6196380 137.5626110 142.3123560
 111.8921460 138.3426080 142.5657490 102.0991010 133.8284310 140.4764120
 102.4065990 133.2731200 139.7599620 101.1691710 133.9628770 140.2937110
 107.6506070 149.5451600 142.7671580 107.6633230 149.1413890 141.8993840
 107.0981290 150.3198890 142.6633010 108.9451490 146.2667820 137.8561750
 108.8347820 145.3242150 137.9811170 108.9419740 146.6283460 138.7424510
 107.0491510 144.4481440 144.0954190 107.4660300 144.2341550 143.2607650
 107.7731330 144.7054230 144.6662810 104.4871770 141.8933140 137.2124240
 103.5601050 141.8270520 137.4412710 104.6396590 142.8313270 137.0979480
 104.4740850 138.1650140 134.2091400 103.5344520 138.3264100 134.2943860
 104.7924110 138.8835820 133.6627390 110.9953610 142.8468660 144.1870430
 110.1672240 142.9161750 143.7120560 111.5904090 143.4322970 143.7186260
 108.5169060 143.4553440 137.7159490 107.8981480 143.1172990 137.0685790
 108.4993510 142.8113200 138.4238680 107.9595620 139.6337980 145.1325300
 107.5466800 140.4591690 145.3865290 107.2271570 139.0483020 144.9401660
 100.0928410 142.4197880 139.9943970  99.6885410 141.7075130 139.4989870
 100.1791530 142.0751120 140.8832010 100.5610110 146.1065440 142.1583180
 100.2638400 145.5010910 141.4790960 101.5109930 146.1442750 142.0472540
  98.8057030 139.1941090 143.7743010  99.3571620 139.3036430 142.9996260
  99.3200540 139.5678690 144.4898240 108.6495720 149.6797310 145.8206280
 108.1726280 150.4869500 145.6278890 107.9657510 149.0275640 145.9732490
  99.6528540 145.8447130 148.8090980  98.7557070 146.0687100 149.0564380
  99.6781410 145.9682070 147.8602380 106.6933760 142.6940250 134.7232240
 107.1327040 141.8562680 134.5770060 107.4062180 143.3269650 134.8096380
  98.4799760 142.7160450 147.3848350  98.3407530 143.5883250 147.7535750
  97.5981120 142.3733260 147.2396290 104.8029140 147.6336320 138.6913480
 105.2425050 148.3760650 138.2768870 104.7416030 147.8762890 139.6152440
 100.2780110 148.6582150 149.5933500 100.2495540 149.0625100 148.7261930
 100.1145080 147.7292510 149.4305100 110.2750900 133.9483060 133.0373280
 109.9623560 134.0409890 133.9372350 111.0363370 134.5264090 132.9870710
  96.7933040 141.3142860 137.4950620  96.6730640 142.0404950 136.8831890
  96.4833930 140.5445770 137.0178530  94.4318410 144.4858000 143.3019260
  94.5098830 144.6206770 142.3574980  95.0460090 143.7773890 143.4947380
  95.6766040 146.1858190 139.7125440  95.2694120 146.3272780 138.8579040
  96.5679050 145.9018350 139.5096650 111.6328180 146.6322100 148.0497680
 111.7591240 146.3933980 147.1314860 111.6749560 145.8006640 148.5219760
 105.4944920 150.3350100 146.6192490 106.0089590 150.2458110 147.4214920
 104.6514000 150.6809800 146.9120400 107.4699320 150.6205440 136.0476490
 107.3100460 150.3308380 136.9458320 107.3046030 149.8445570 135.5121720
  99.9487700 150.4003970 137.8248110  99.7730180 149.4839510 137.6115910
  99.0943440 150.7591260 138.0645910 107.1725450 148.1293000 134.6074490
 106.4790610 148.1270290 133.9476770 107.9148310 147.7052320 134.1768660
 106.7375380 149.7555710 138.6822980 107.1932330 148.9745090 138.9961600
 107.0767900 150.4662530 139.2264160 111.4852190 138.6854560 149.0147420
 110.8696460 139.1934230 148.4862880 111.1648610 137.7852890 148.9573360
  94.4877930 145.5272170 145.8413720  94.6508970 145.0577530 145.0233090
  94.9530380 145.0195730 146.5062560  99.2596700 134.6577930 140.8774290
  98.8164850 135.4387470 140.5458810  99.8181690 134.9807820 141.5845230
 103.5466510 137.5246450 146.4809610 103.0845880 137.7329470 147.2929550
 103.1444620 136.7105800 146.1780280 108.5471020 138.7455400 147.6106270
 107.6964610 138.4461150 147.9315340 108.3872810 138.9897410 146.6990090
 105.6420730 140.2457150 149.7105060 105.9674140 139.4120900 149.3707290
 106.4301060 140.7685670 149.8583390 102.3755520 134.2788630 135.7580120
 101.7509700 134.2748500 136.4833430 102.2885640 133.4119590 135.3616090
 101.2972600 135.2025260 142.7363890 101.5944930 136.1088090 142.6555910
 101.8458160 134.7144040 142.1223460  99.0510920 139.7811500 138.6055540
  98.8251840 139.5648670 139.5102160  98.2703450 140.2139960 138.2601510
 106.2808680 139.7874870 137.2046190 105.6817570 140.5110670 137.0209810
 106.8288290 139.7251650 136.4222640 101.4910130 140.6797080 149.2715810
 101.3953730 139.7391810 149.1216210 102.3342110 140.9012150 148.8763880
 104.8873550 138.4238410 139.2349470 105.2803120 138.7410610 138.4218160
 105.2490400 137.5450290 139.3493990  96.6220670 137.0910750 147.4249590
  96.2284060 137.9385960 147.6322370  95.9339070 136.4537120 147.6158230
  93.9237720 135.0139210 141.4579670  93.6350770 135.5842070 142.1704650
  94.6683480 134.5343660 141.8210900  94.1107950 138.9559330 132.6682390
  94.0282620 139.8990090 132.8097380  93.7591010 138.8134240 131.7894740
 105.4728690 141.0144160 143.3300250 104.7409810 141.5230970 143.6790350
 105.0753030 140.1974140 143.0289030 101.9106080 137.6898360 141.7352740
 101.9142140 137.2488310 140.8857280 102.8057200 138.0115690 141.8424560
  97.7608460 137.5724850 140.6946950  97.4208510 138.0500080 141.4514000
  96.9985780 137.1189970 140.3348050 101.9726230 138.6910440 134.7259500
 102.0939050 138.6496920 135.6745320 101.5874740 139.5534590 134.5706230
 105.9354600 136.4677840 142.7423190 105.9527340 136.9186490 143.5865040
 105.6870180 135.5683480 142.9556630 100.9847730 141.0011580 134.1242800
 100.4164630 140.5529830 133.4978710 101.6936730 141.3604360 133.5907950
 109.3625350 133.8810020 148.5809570 109.6871120 133.1499680 149.1067550
 109.3981860 133.5623660 147.6790560  96.0616910 144.9023600 148.0009530
  95.6771700 144.2617270 148.5992490  96.3729100 145.6059720 148.5704260
 102.2114050 141.7500140 143.4818150 102.5784180 141.2758710 144.2279490
 102.0219110 142.6241710 143.8226490  95.0754540 136.4943830 139.6111620
  94.7901460 136.1299500 140.4490240  95.0133400 135.7624290 138.9974760
 100.0013420 140.7908780 145.8002360  99.6970490 141.6700760 146.0252720
 100.9559880 140.8508570 145.8359800  98.5295210 144.9969770 136.3969210
  97.7557470 144.4567390 136.2367930  99.2589840 144.4776380 136.0586970
 109.2883190 143.9935130 142.1895600 110.0082310 144.4890420 141.7991710
 109.0865010 143.3153020 141.5449470 104.7493130 135.3873090 136.3324990
 103.9357740 134.8886260 136.2570300 104.5555080 136.2271340 135.9161340
 104.6701990 144.0644190 148.0764600 104.6039300 143.1439860 147.8222190
 104.0407130 144.1619630 148.7909240 107.4641520 139.7592740 134.6287150
 108.3521140 140.0709970 134.4538490 107.4346610 138.8864990 134.2367730
  98.5732610 144.6650150 140.0348020  99.0911280 143.8618410 139.9804910
  98.1216630 144.6029290 140.8764850 103.4602110 145.9316430 135.3075320
 103.8017810 146.6758660 134.8118640 102.6314820 146.2447550 135.6700150
  96.0577150 141.6311520 146.9473720  95.6992090 142.2965370 147.5347060
  95.7631710 140.7995070 147.3186340  99.2590270 142.0895760 149.8313270
  98.9590410 142.2352940 148.9341090 100.0301510 141.5301050 149.7386660
 104.6018720 146.8864760 147.8268400 104.6163260 145.9545720 147.6087310
 103.8943820 146.9724520 148.4658170 109.7355790 141.0704580 134.0967010
 109.6519510 141.5018800 133.2463450 110.4549980 141.5302930 134.5293830
 110.8129930 143.5272100 147.1736980 110.0878120 144.1200880 146.9766370
 111.3405390 143.5195640 146.3750350 110.7643040 147.9246840 136.8249140
 110.1219200 147.2702460 137.0992860 110.3773700 148.3301930 136.0489810
 106.3429520 145.2532270 140.6720830 106.6953340 144.6560400 140.0122200
 105.4591850 144.9276500 140.8429080 102.4292800 146.0129960 138.0791240
 103.1163930 146.5599170 138.4598830 101.6425220 146.5570690 138.1140850
  94.5685200 141.6302780 133.5708320  95.4380050 141.9127580 133.8544240
  94.0775520 142.4438650 133.4557130 101.7320010 143.0175990 137.6916600
 102.1882790 143.8281240 137.9176790 101.3808220 142.6999130 138.5235090
 104.0352620 148.5282330 144.9208900 104.6794840 148.7341710 145.5982320
 104.3982060 147.7670730 144.4679750  97.6331790 133.3613640 138.1639120
  97.5046420 133.3531540 139.1124040  96.8093810 133.6996730 137.8130130
 105.3084700 146.5314680 143.6386350 105.9506930 145.8307840 143.7518520
 105.8334050 147.3113120 143.4583240 109.1540420 146.8163300 133.3625490
 108.9278000 146.0993740 133.9550130 108.7636620 146.5675740 132.5247240
 107.0822320 147.3309580 146.8422410 107.4178560 147.9176270 147.5200330
 106.1622660 147.2002290 147.0720200  94.9356450 150.8430160 134.1369950
  95.2954090 151.4419500 133.4827220  94.7948790 151.3890050 134.9104980
  94.6325720 135.1204760 147.6245820  93.9184240 135.3201680 148.2298430
  95.0520760 134.3444330 147.9960620 108.7356670 144.7335240 135.0239650
 108.4478370 145.1947930 135.8117530 109.5308840 144.2733010 135.2923870
  94.9198310 149.1085020 148.6112350  95.0289430 148.1679760 148.4707740
  94.2678870 149.3739770 147.9626080 100.9525070 148.2261360 134.9543620
 100.9435170 148.9591050 134.3388130 100.0323430 147.9792940 135.0470580
  96.5531710 143.4476250 135.6990380  95.9459660 144.1875150 135.7085680
  97.0281060 143.5375610 134.8728580 106.1264500 137.6127070 145.3747270
 106.4945320 136.7922280 145.7026840 105.2662700 137.6728960 145.7902920
 109.4926530 136.5684010 136.1834830 108.8639690 136.6729680 135.4693060
 108.9978450 136.7880790 136.9728710 103.9384670 148.2889600 133.6168810
 104.0396650 148.0853590 132.6870790 103.0386410 148.0347880 133.8216590
 101.4610560 138.8469960 137.5992710 100.7526710 139.3156300 138.0406320
 101.7455040 138.1891970 138.2337900 103.0866490 140.2666660 145.5985240
 103.5851740 140.7412480 146.2637090 103.2289440 139.3430180 145.8055270
 105.4925990 135.5720620 139.0388500 105.3693770 135.5906750 138.0898010
 106.4410550 135.6199560 139.1586900 102.5802780 150.8075920 138.3116480
 102.8344280 150.7697310 137.3895850 101.6315260 150.6809250 138.3044730
  99.6645580 137.1555040 134.9743420 100.5136110 137.5925190 134.9083610
  99.2976850 137.4675300 135.8015480 110.2933350 136.4834620 146.4413630
 109.7906950 137.2240020 146.7807440 111.1090010 136.8718620 146.1250420
 108.5855360 141.7267800 139.8874990 107.6445500 141.7418030 140.0622680
 108.8999430 140.9403760 140.3335290  98.5637000 143.4087400 133.4478950
  99.3300270 143.2968760 134.0104380  98.6411690 142.7125370 132.7955720
  97.2583760 140.8412470 134.1311840  97.3387350 139.8939980 134.2429240
  98.1503510 141.1719350 134.2372500 110.5880940 148.8976650 141.5629250
 110.7128360 149.7207820 142.0353060 111.4546500 148.6867380 141.2153400
  94.9443950 147.0581430 137.1087890  94.0183730 147.3002570 137.0993300
  95.4100380 147.8855690 136.9872640 101.1700780 150.1638170 133.0571950
 101.9629390 150.4527000 132.6053740 100.6505130 149.7330340 132.3784430
 107.3321750 150.0114090 148.9816780 108.2843500 149.9272110 148.9317020
 107.1849970 150.6755800 149.6550570 110.2230950 149.3908300 134.4808690
 109.9372460 148.9773440 133.6662870 110.0250500 150.3196010 134.3609210
  94.7854560 142.6627390 149.3668010  95.2893580 142.0834670 149.9384240
  94.0461980 142.9467620 149.9044380 101.6878180 145.3841580 132.9214300
 101.5828820 144.7693930 133.6475680 101.5202400 144.8607470 132.1377310
 101.8392500 144.0698380 148.9003530 101.0738170 144.6383380 148.8158200
 102.0208460 143.7774590 148.0071760 104.9280910 144.4461610 133.5256290
 104.3791010 144.8930910 134.1699030 105.5500170 143.9410860 134.0493960
 108.9815850 145.8003710 149.4578550 109.7225320 146.1379470 148.9546010
 108.2188530 145.9695770 148.9048320 100.5956030 143.4052530 135.4221590
 101.0172450 143.2392400 136.2652980 100.7206870 142.5952760 134.9276730
  98.7583450 139.3849080 148.2292570  98.2279910 138.8940030 147.6015910
  99.4271520 139.8133280 147.6950500 103.1083670 142.4290140 132.6698690
 103.6289330 141.7139160 132.3039840 103.7552070 143.0676010 132.9699200
 107.6561510 143.8518540 147.9933760 108.0702530 144.0063620 148.8424180
 106.7212510 143.9773760 148.1559540 108.1283680 141.1914700 149.9972910
 108.7104450 140.4367020 149.9093390 108.3045450 141.7222140 149.2204390
  99.2455750 136.3511450 148.3089860  99.1512620 135.7332200 147.5840730
  98.6653140 137.0777740 148.0819770 102.0117190 134.9084690 145.3417250
 101.5634490 134.9308950 144.4962800 101.3782390 134.5103710 145.9387550
 102.4176740 143.8039020 145.9629690 102.8364850 144.6471750 145.7905930
 101.4985370 143.9411060 145.7336470 104.7540640 141.5355200 147.3467530
 104.8736850 140.9396340 148.0862370 105.6134640 141.5724890 146.9268830
 107.0928540 142.0892390 145.9230040 106.5663760 142.6135010 145.3195180
 107.4359880 142.7219780 146.5539770  99.4914930 139.4785760 132.3679750
  99.2903990 138.6153120 132.7293090  99.3206980 139.3919120 131.4301350
 100.2684160 150.1092030 147.0787420  99.7305250 150.8338090 146.7596120
 100.5218120 149.6322370 146.2884760 101.5209410 138.0776550 148.6043350
 102.1109100 137.7692400 149.2921170 100.7029650 137.6056300 148.7603250
 106.3402840 137.6942360 148.8376370 105.6518360 137.0323900 148.7726360
 107.0608860 137.2480630 149.2824830 106.9703240 134.2893990 134.8966630
 107.2505530 133.4461890 135.2526050 106.1968970 134.5217100 135.4105380
  98.2897730 136.5786380 132.3557630  98.5923630 136.5853810 131.4476780
  99.0292320 136.2284240 132.8525290 101.5082660 135.5221000 133.3413830
 101.1604660 134.8444990 132.7616280 101.7095430 135.0610510 134.1557220
 103.6731700 150.5101750 134.9600430 104.5682490 150.8486720 134.9819190
 103.7049330 149.7881160 134.3324710  97.3127860 145.8828800 133.1887430
  97.7502730 146.4258470 133.8445010  97.7975590 145.0575750 133.1983770
  94.5273660 148.6717830 140.6407690  94.8576670 147.8038890 140.4086330
  94.9564660 148.8776350 141.4712650  99.1235580 147.0026840 138.3009660
  98.8231120 146.8791810 139.2013570  99.0173070 146.1435430 137.8925390
  95.0163870 149.5388420 143.3789320  94.5794860 149.7189220 144.2113470
  95.5841550 150.2963040 143.2371040 110.6526050 149.0405420 147.6666630
 110.0528040 149.0997980 146.9230550 110.7819950 148.1010400 147.7963480
 111.8927500 146.7823240 133.0036340 111.0620460 146.8499890 133.4743570
 112.0699330 147.6727360 132.7003200 111.3483960 143.5270720 135.5070540
 112.1102870 144.0967370 135.6130230 111.3638330 142.9597920 136.2778850
  94.8488300 142.0508650 139.7378200  94.1937140 141.7820290 139.0937900
  95.6866250 141.9413130 139.2880180 112.3543930 144.3820820 140.3512470
 112.7252760 143.5988140 139.9448440 112.9945860 145.0709920 140.1729770
 109.3377690 145.7657400 145.7642790 108.5237530 146.1954560 146.0268580
 109.7451890 146.3775810 145.1511840 111.4003130 143.8205090 132.6643060
 111.6751970 144.7283970 132.5362280 111.2113870 143.7567620 133.6005050
 107.7978740 136.8449940 133.9596690 108.2163620 136.6580920 133.1193350
 107.4914800 135.9928990 134.2699620 111.2968470 141.7574080 137.6572490
 110.9212070 140.9902010 137.2253780 110.5671590 142.1396780 138.1447420
  95.8864230 142.4361220 144.2781540  96.2537270 142.3488620 145.1577560
  95.3175050 141.6727770 144.1788400 110.6868090 140.9045600 147.2912010
 110.4554180 140.6758350 146.3909960 110.9472640 141.8245150 147.2456900
  95.4380230 139.3470310 148.1839960  94.5436280 139.3137070 148.5233670
  95.9777780 139.5457100 148.9491210  94.0626380 139.2607580 135.6803530
  93.1590460 139.5237780 135.5055190  94.5467000 139.5318750 134.9003490
 110.5719430 139.9831570 140.9579730 111.0956910 139.4894220 140.3269900
 111.1578850 140.1181930 141.7027300 110.7509150 140.0671440 144.4799280
 109.8011860 140.0334980 144.5944270 110.9322160 140.9771550 144.2449050
  96.6053590 138.3173120 133.5897910  97.3145290 137.8956340 133.1045190
  95.8893530 138.3848350 132.9581260  96.2527750 134.3712450 132.6300560
  96.9755880 134.9121390 132.9481780  96.5252270 134.0975870 131.7542100
 110.0619400 139.2404920 136.8972140 110.5578520 139.0075790 137.6821020
 109.8635470 138.4016760 136.4809780  95.9419940 133.6218640 142.5323180
  96.5896130 133.0716020 142.0918340  96.3621780 133.8761790 143.3538990
 111.4906560 137.8765870 139.4309820 111.3805840 137.7221910 140.3692090
 112.2514150 137.3486810 139.1885230 109.8372280 133.8160000 145.8892820
 110.4744500 134.4294140 146.2552010 109.9847170 133.8520660 144.9442050
 112.3796830 135.7073790 132.6715960 113.3046140 135.5754970 132.4634250
 112.3572620 135.7866610 133.6252410 112.4535320 136.4784450 135.2972670
 111.6586820 136.4129570 135.8265580 112.6578600 137.4135090 135.2858020
 109.3953740 150.5176000 139.2911060 109.9912810 150.1960570 138.6145480
 109.6531890 150.0447820 140.0824330  95.6951940 133.7774310 145.2748500
  95.3466760 134.2338130 146.0406680  95.3639640 132.8831440 145.3570930
 101.0022340 148.5053500 145.0411410 100.7613700 148.7728060 144.1541930
 101.9424980 148.6759230 145.0962270 103.2076760 134.9686190 148.7967920
 103.1465650 135.5608020 149.5463330 104.1477140 134.8612150 148.6518180
 105.8451320 134.6256250 148.4360210 106.4591730 134.9435540 147.7741290
 106.3900880 134.1404840 149.0556070 112.2626500 150.5247880 145.8422050
 111.7684780 150.9216750 145.1249180 111.6539790 149.8997090 146.2359330
  96.3672580 133.3050510 148.5499270  96.9155570 133.1238560 147.7865380
  96.4327890 132.5144620 149.0855580  97.1404340 149.8956160 146.5599470
  96.5464660 149.7640860 147.2989510  97.1328180 149.0594300 146.0941570
 106.5859360 133.1888390 144.7629500 105.7119200 133.5223500 144.5602430
 106.4770110 132.7161570 145.5881370 107.4931340 135.3959260 146.1471220
 107.1644700 134.5811020 145.7672950 108.4413640 135.3529070 146.0236910
  96.7716570 147.2614540 145.5107510  96.0450630 146.6419830 145.4433460
  96.8325720 147.6555150 144.6405590 100.3761670 149.4759540 142.2956920
 100.8926690 148.8646900 141.7705180 101.0259050 149.9788320 142.7867930
 103.1157170 150.3668030 143.1225900 103.4034980 150.1122330 142.2458910
 103.6280390 149.8145390 143.7131470 104.3334180 134.1058230 143.7022410
 103.5505970 134.5803730 143.9819170 104.0397110 133.2013060 143.5935590
 108.8855250 134.8081330 141.7471500 109.3263340 134.7526430 140.8993100
 108.6162840 135.7239340 141.8181680 110.7493820 134.4396570 139.7580320
 110.6882220 133.4957790 139.6111340 111.5285850 134.5476660 140.3033780
  95.0546570 150.5788930 138.7204270  94.8868610 149.9459610 139.4186160
  94.1881080 150.7848330 138.3698460  95.6774590 134.4105710 136.2236130
  96.4353950 134.5234590 135.6500160  95.2151760 135.2474910 136.1779560
 102.2188400 136.5244980 139.2138440 101.4062910 136.1501870 138.8734320
 102.7230040 135.7690060 139.5159630 106.7213380 133.1887430 140.4521510
 107.3242750 133.7607640 140.9270030 105.9806370 133.7526870 140.2295410
 109.8647980 133.5908990 135.7261790 110.0598610 134.4892440 135.9929220
 109.0777850 133.3596070 136.2194740  96.6609270 149.2722160 136.1654410
  96.1356890 149.6530190 135.4616370  96.5853850 149.8972930 136.8864120
  98.0499740 134.9369760 134.7638100  98.5792500 134.1499560 134.6346050
  98.6828060 135.6160950 134.9973630 100.2437580 134.6744900 137.8183490
  99.6140320 133.9732210 137.9853620  99.7042720 135.4349030 137.6016650
 111.4174590 150.8309700 137.4868350 111.5926780 150.1447440 136.8429270
 110.7196160 151.3556750 137.0945020  99.2602240 151.2204540 135.0403660
  99.9921060 150.9363820 134.4927550  99.5195910 150.9817820 135.9303040
  98.4217030 147.3369270 135.0449990  97.7925910 147.8054370 135.5935820
  98.5364860 146.4918490 135.4796180 105.8766750 141.3874930 121.1951190
 105.7960800 140.4729540 120.9242900 105.4631170 141.8842000 120.4890900
 104.0084790 143.1653950 123.0760460 103.2326890 142.6854390 123.3659030
 104.6597720 142.4859600 122.9016620  98.0250620 143.4773760 123.9536220
  97.1935500 143.2222470 124.3532730  98.6331600 143.5484530 124.6894140
 108.0292220 147.5714140 121.8559590 107.5673750 146.8001380 122.1846760
 108.8417770 147.5980210 122.3612040  98.0051880 147.5113850 124.1494240
  98.3079920 146.6211590 123.9704460  98.7495470 148.0684070 123.9216490
  96.4342570 138.4375650 117.7378610  95.5459270 138.7791620 117.6358490
  96.7183760 138.2375970 116.8459440  94.3975580 141.0381300 123.6218310
  94.9691690 140.2703500 123.6221950  94.3977120 141.3370060 122.7124920
 104.2555530 149.8572150 121.4763580 103.6366970 150.3129650 120.9058020
 105.1107310 150.0123610 121.0753280 103.4493780 145.8411140 123.0830620
 103.3802060 144.9001080 122.9219750 104.2113640 145.9312550 123.6553190
  95.6400450 136.4465660 125.4087240  95.4603290 135.5491410 125.6890000
  95.2380530 136.9937530 126.0834190 104.4798950 138.6481520 123.3099550
 104.8563770 137.7753400 123.1973220 104.3818460 138.9840220 122.4189990
  98.6103960 137.0207150 118.7716990  98.7170710 137.9210880 119.0785750
  97.6996320 136.9725120 118.4811640 108.2623070 136.1431960 120.2427890
 109.0832690 135.6528530 120.2853370 108.2957150 136.7329620 120.9959730
  96.2587120 138.9426160 124.0169580  96.9397230 139.2064530 124.6356980
  95.9435170 138.1027030 124.3507590 100.4511690 139.9893520 123.1042170
 100.9589910 140.4874490 123.7447190 100.9824930 139.2128720 122.9281530
 112.5522620 138.1598710 126.8071520 111.8474790 138.5480420 126.2886630
 112.8180540 138.8549000 127.4092450  98.7347790 134.6292080 127.3705590
  98.7366230 135.1464470 126.5651490  97.9052100 134.1522260 127.3475520
 105.1218880 144.7411390 118.8695490 104.5036150 145.2060840 118.3058210
 105.6342130 145.4338870 119.2865000  99.9850640 144.2687260 125.5479090
  99.6520020 144.8956180 126.1900160 100.1617320 144.7949140 124.7680760
 108.4984550 138.0832340 123.0155430 107.7940120 138.3717230 123.5958540
 108.8596710 138.8932450 122.6554990  98.4163120 136.3402040 125.3776040
  98.7579930 137.1844090 125.0829910  97.4778930 136.4885780 125.4941380
  99.1969740 146.2368060 127.3628270  99.8143740 146.9119140 127.0812720
  98.3362860 146.6456040 127.2715770  94.4902080 145.4267920 116.2435120
  94.1130060 145.9155020 115.5120020  94.7475150 146.0993200 116.8741650
 110.1147330 147.7007470 125.2782910 109.4310850 148.3706580 125.2699580
 110.6541620 147.8988120 124.5127770 111.5671470 137.5287130 123.4064640
 110.6196380 137.5626110 123.5380070 111.8921460 138.3426080 123.7914000
 102.0991010 133.8284310 121.7020630 102.4065990 133.2731200 120.9856130
 101.1691710 133.9628770 121.5193620 107.6506070 149.5451600 123.9928090
 107.6633230 149.1413890 123.1250350 107.0981290 150.3198890 123.8889520
 108.9451490 146.2667820 119.0818260 108.8347820 145.3242150 119.2067680
 108.9419740 146.6283460 119.9681020 107.0491510 144.4481440 125.3210700
 107.4660300 144.2341550 124.4864160 107.7731330 144.7054230 125.8919320
 104.4871770 141.8933140 118.4380750 103.5601050 141.8270520 118.6669220
 104.6396590 142.8313270 118.3235990 104.4740850 138.1650140 115.4347910
 103.5344520 138.3264100 115.5200370 104.7924110 138.8835820 114.8883900
 110.9953610 142.8468660 125.4126940 110.1672240 142.9161750 124.9377070
 111.5904090 143.4322970 124.9442770 108.5169060 143.4553440 118.9416000
 107.8981480 143.1172990 118.2942300 108.4993510 142.8113200 119.6495190
 107.9595620 139.6337980 126.3581810 107.5466800 140.4591690 126.6121800
 107.2271570 139.0483020 126.1658170 100.0928410 142.4197880 121.2200480
  99.6885410 141.7075130 120.7246380 100.1791530 142.0751120 122.1088520
 100.5610110 146.1065440 123.3839690 100.2638400 145.5010910 122.7047470
 101.5109930 146.1442750 123.2729050  98.8057030 139.1941090 124.9999520
  99.3571620 139.3036430 124.2252770  99.3200540 139.5678690 125.7154750
 108.6495720 149.6797310 127.0462790 108.1726280 150.4869500 126.8535400
 107.9657510 149.0275640 127.1989000  99.6528540 145.8447130 130.0347490
  98.7557070 146.0687100 130.2820890  99.6781410 145.9682070 129.0858890
 106.6933760 142.6940250 115.9488750 107.1327040 141.8562680 115.8026570
 107.4062180 143.3269650 116.0352890  98.4799760 142.7160450 128.6104860
  98.3407530 143.5883250 128.9792260  97.5981120 142.3733260 128.4652800
 104.8029140 147.6336320 119.9169990 105.2425050 148.3760650 119.5025380
 104.7416030 147.8762890 120.8408950 100.2780110 148.6582150 130.8190010
 100.2495540 149.0625100 129.9518440 100.1145080 147.7292510 130.6561610
 110.2750900 133.9483060 114.2629790 109.9623560 134.0409890 115.1628860
 111.0363370 134.5264090 114.2127220  96.7933040 141.3142860 118.7207130
  96.6730640 142.0404950 118.1088400  96.4833930 140.5445770 118.2435040
 112.2294930 149.4409250 132.1154180 112.7054650 149.9192140 132.7943260
 112.8502090 149.3726740 131.3899680  94.4318410 144.4858000 124.5275770
  94.5098830 144.6206770 123.5831490  95.0460090 143.7773890 124.7203890
  95.6766040 146.1858190 120.9381950  95.2694120 146.3272780 120.0835550
  96.5679050 145.9018350 120.7353160 111.6328180 146.6322100 129.2754190
 111.7591240 146.3933980 128.3571370 111.6749560 145.8006640 129.7476270
 105.4944920 150.3350100 127.8449000 106.0089590 150.2458110 128.6471430
 104.6514000 150.6809800 128.1376910 107.4699320 150.6205440 117.2733000
 107.3100460 150.3308380 118.1714830 107.3046030 149.8445570 116.7378230
  99.9487700 150.4003970 119.0504620  99.7730180 149.4839510 118.8372420
  99.0943440 150.7591260 119.2902420 107.1725450 148.1293000 115.8331000
 106.4790610 148.1270290 115.1733280 107.9148310 147.7052320 115.4025170
 106.7375380 149.7555710 119.9079490 107.1932330 148.9745090 120.2218110
 107.0767900 150.4662530 120.4520670 111.4852190 138.6854560 130.2403930
 110.8696460 139.1934230 129.7119390 111.1648610 137.7852890 130.1829870
  94.4877930 145.5272170 127.0670230  94.6508970 145.0577530 126.2489600
  94.9530380 145.0195730 127.7319070  99.2596700 134.6577930 122.1030800
  98.8164850 135.4387470 121.7715320  99.8181690 134.9807820 122.8101740
 103.5466510 137.5246450 127.7066120 103.0845880 137.7329470 128.5186060
 103.1444620 136.7105800 127.4036790 108.5471020 138.7455400 128.8362780
 107.6964610 138.4461150 129.1571850 108.3872810 138.9897410 127.9246600
 105.6420730 140.2457150 130.9361570 105.9674140 139.4120900 130.5963800
 106.4301060 140.7685670 131.0839900 102.3755520 134.2788630 116.9836630
 101.7509700 134.2748500 117.7089940 102.2885640 133.4119590 116.5872600
 101.2972600 135.2025260 123.9620400 101.5944930 136.1088090 123.8812420
 101.8458160 134.7144040 123.3479970  99.0510920 139.7811500 119.8312050
  98.8251840 139.5648670 120.7358670  98.2703450 140.2139960 119.4858020
 106.2808680 139.7874870 118.4302700 105.6817570 140.5110670 118.2466320
 106.8288290 139.7251650 117.6479150 101.4910130 140.6797080 130.4972320
 101.3953730 139.7391810 130.3472720 102.3342110 140.9012150 130.1020390
 104.8873550 138.4238410 120.4605980 105.2803120 138.7410610 119.6474670
 105.2490400 137.5450290 120.5750500  96.6220670 137.0910750 128.6506100
  96.2284060 137.9385960 128.8578880  95.9339070 136.4537120 128.8414740
 103.1965720 137.1745720 131.7202840 102.5064040 136.9817920 132.3548930
 103.9398020 137.4580360 132.2527140  93.9237720 135.0139210 122.6836180
  93.6350770 135.5842070 123.3961160  94.6683480 134.5343660 123.0467410
  94.1107950 138.9559330 113.8938900  94.0282620 139.8990090 114.0353890
  93.7591010 138.8134240 113.0151250 105.4728690 141.0144160 124.5556760
 104.7409810 141.5230970 124.9046860 105.0753030 140.1974140 124.2545540
 101.9106080 137.6898360 122.9609250 101.9142140 137.2488310 122.1113790
 102.8057200 138.0115690 123.0681070  97.7608460 137.5724850 121.9203460
  97.4208510 138.0500080 122.6770510  96.9985780 137.1189970 121.5604560
 101.9726230 138.6910440 115.9516010 102.0939050 138.6496920 116.9001830
 101.5874740 139.5534590 115.7962740 105.9354600 136.4677840 123.9679700
 105.9527340 136.9186490 124.8121550 105.6870180 135.5683480 124.1813140
 100.9847730 141.0011580 115.3499310 100.4164630 140.5529830 114.7235220
 101.6936730 141.3604360 114.8164460 109.3625350 133.8810020 129.8066080
 109.6871120 133.1499680 130.3324060 109.3981860 133.5623660 128.9047070
  96.0616910 144.9023600 129.2266040  95.6771700 144.2617270 129.8249000
  96.3729100 145.6059720 129.7960770 102.2114050 141.7500140 124.7074660
 102.5784180 141.2758710 125.4536000 102.0219110 142.6241710 125.0483000
  95.0754540 136.4943830 120.8368130  94.7901460 136.1299500 121.6746750
  95.0133400 135.7624290 120.2231270 100.0013420 140.7908780 127.0258870
  99.6970490 141.6700760 127.2509230 100.9559880 140.8508570 127.0616310
  98.5295210 144.9969770 117.6225720  97.7557470 144.4567390 117.4624440
  99.2589840 144.4776380 117.2843480 109.2883190 143.9935130 123.4152110
 110.0082310 144.4890420 123.0248220 109.0865010 143.3153020 122.7705980
 104.7493130 135.3873090 117.5581500 103.9357740 134.8886260 117.4826810
 104.5555080 136.2271340 117.1417850 104.6701990 144.0644190 129.3021110
 104.6039300 143.1439860 129.0478700 104.0407130 144.1619630 130.0165750
 107.4641520 139.7592740 115.8543660 108.3521140 140.0709970 115.6795000
 107.4346610 138.8864990 115.4624240  98.5732610 144.6650150 121.2604530
  99.0911280 143.8618410 121.2061420  98.1216630 144.6029290 122.1021360
 103.4602110 145.9316430 116.5331830 103.8017810 146.6758660 116.0375150
 102.6314820 146.2447550 116.8956660  96.0577150 141.6311520 128.1730230
  95.6992090 142.2965370 128.7603570  95.7631710 140.7995070 128.5442850
  99.2590270 142.0895760 131.0569780  98.9590410 142.2352940 130.1597600
 100.0301510 141.5301050 130.9643170 104.6018720 146.8864760 129.0524910
 104.6163260 145.9545720 128.8343820 103.8943820 146.9724520 129.6914680
 109.7355790 141.0704580 115.3223520 109.6519510 141.5018800 114.4719960
 110.4549980 141.5302930 115.7550340 110.8129930 143.5272100 128.3993490
 110.0878120 144.1200880 128.2022880 111.3405390 143.5195640 127.6006860
 110.7643040 147.9246840 118.0505650 110.1219200 147.2702460 118.3249370
 110.3773700 148.3301930 117.2746320 106.3429520 145.2532270 121.8977340
 106.6953340 144.6560400 121.2378710 105.4591850 144.9276500 122.0685590
 102.4292800 146.0129960 119.3047750 103.1163930 146.5599170 119.6855340
 101.6425220 146.5570690 119.3397360  94.5685200 141.6302780 114.7964830
  95.4380050 141.9127580 115.0800750  94.0775520 142.4438650 114.6813640
 101.7320010 143.0175990 118.9173110 102.1882790 143.8281240 119.1433300
 101.3808220 142.6999130 119.7491600 104.0352620 148.5282330 126.1465410
 104.6794840 148.7341710 126.8238830 104.3982060 147.7670730 125.6936260
  97.6331790 133.3613640 119.3895630  97.5046420 133.3531540 120.3380550
  96.8093810 133.6996730 119.0386640 105.3084700 146.5314680 124.8642860
 105.9506930 145.8307840 124.9775030 105.8334050 147.3113120 124.6839750
 109.1540420 146.8163300 114.5882000 108.9278000 146.0993740 115.1806640
 108.7636620 146.5675740 113.7503750 107.0822320 147.3309580 128.0678920
 107.4178560 147.9176270 128.7456840 106.1622660 147.2002290 128.2976710
  94.9356450 150.8430160 115.3626460  95.2954090 151.4419500 114.7083730
  94.7948790 151.3890050 116.1361490  94.6325720 135.1204760 128.8502330
  93.9184240 135.3201680 129.4554940  95.0520760 134.3444330 129.2217130
 108.7356670 144.7335240 116.2496160 108.4478370 145.1947930 117.0374040
 109.5308840 144.2733010 116.5180380  94.9198310 149.1085020 129.8368860
  95.0289430 148.1679760 129.6964250  94.2678870 149.3739770 129.1882590
 102.9110900 147.3800910 131.2366980 102.5907770 146.6610150 131.7812670
 102.2369260 148.0555980 131.3103040 100.9525070 148.2261360 116.1800130
 100.9435170 148.9591050 115.5644640 100.0323430 147.9792940 116.2727090
  96.5531710 143.4476250 116.9246890  95.9459660 144.1875150 116.9342190
  97.0281060 143.5375610 116.0985090 106.1264500 137.6127070 126.6003780
 106.4945320 136.7922280 126.9283350 105.2662700 137.6728960 127.0159430
 109.4926530 136.5684010 117.4091340 108.8639690 136.6729680 116.6949570
 108.9978450 136.7880790 118.1985220 103.9384670 148.2889600 114.8425320
 104.0396650 148.0853590 113.9127300 103.0386410 148.0347880 115.0473100
 101.4610560 138.8469960 118.8249220 100.7526710 139.3156300 119.2662830
 101.7455040 138.1891970 119.4594410 103.0866490 140.2666660 126.8241750
 103.5851740 140.7412480 127.4893600 103.2289440 139.3430180 127.0311780
 105.4925990 135.5720620 120.2645010 105.3693770 135.5906750 119.3154520
 106.4410550 135.6199560 120.3843410 102.5802780 150.8075920 119.5372990
 102.8344280 150.7697310 118.6152360 101.6315260 150.6809250 119.5301240
  99.6645580 137.1555040 116.1999930 100.5136110 137.5925190 116.1340120
  99.2976850 137.4675300 117.0271990 110.2933350 136.4834620 127.6670140
 109.7906950 137.2240020 128.0063950 111.1090010 136.8718620 127.3506930
 108.5855360 141.7267800 121.1131500 107.6445500 141.7418030 121.2879190
 108.8999430 140.9403760 121.5591800  98.5637000 143.4087400 114.6735460
  99.3300270 143.2968760 115.2360890  98.6411690 142.7125370 114.0212230
  97.2583760 140.8412470 115.3568350  97.3387350 139.8939980 115.4685750
  98.1503510 141.1719350 115.4629010 110.5880940 148.8976650 122.7885760
 110.7128360 149.7207820 123.2609570 111.4546500 148.6867380 122.4409910
  94.9443950 147.0581430 118.3344400  94.0183730 147.3002570 118.3249810
  95.4100380 147.8855690 118.2129150  97.0656750 150.1753930 131.6488470
  97.8669480 150.4965980 132.0623870  96.5508570 149.8149510 132.3708380
 101.1700780 150.1638170 114.2828460 101.9629390 150.4527000 113.8310250
 100.6505130 149.7330340 113.6040940 105.9021380 146.2833800 131.5963880
 105.2959540 146.3065400 130.8559630 105.5975490 145.5516840 132.1331130
 107.3321750 150.0114090 130.2073290 108.2843500 149.9272110 130.1573530
 107.1849970 150.6755800 130.8807080 110.2230950 149.3908300 115.7065200
 109.9372460 148.9773440 114.8919380 110.0250500 150.3196010 115.5865720
  94.7854560 142.6627390 130.5924520  95.2893580 142.0834670 131.1640750
  94.0461980 142.9467620 131.1300890 101.6878180 145.3841580 114.1470810
 101.5828820 144.7693930 114.8732190 101.5202400 144.8607470 113.3633820
 101.8392500 144.0698380 130.1260040 101.0738170 144.6383380 130.0414710
 102.0208460 143.7774590 129.2328270 104.9280910 144.4461610 114.7512800
 104.3791010 144.8930910 115.3955540 105.5500170 143.9410860 115.2750470
 108.9815850 145.8003710 130.6835060 109.7225320 146.1379470 130.1802520
 108.2188530 145.9695770 130.1304830  96.8177640 140.8056980 131.4874590
  96.8582980 140.5070850 132.3959820  97.6723140 141.2064590 131.3282110
 100.5956030 143.4052530 116.6478100 101.0172450 143.2392400 117.4909490
 100.7206870 142.5952760 116.1533240  98.7583450 139.3849080 129.4549080
  98.2279910 138.8940030 128.8272420  99.4271520 139.8133280 128.9207010
 103.1083670 142.4290140 113.8955200 103.6289330 141.7139160 113.5296350
 103.7552070 143.0676010 114.1955710 107.6561510 143.8518540 129.2190270
 108.0702530 144.0063620 130.0680690 106.7212510 143.9773760 129.3816050
 108.1283680 141.1914700 131.2229420 108.7104450 140.4367020 131.1349900
 108.3045450 141.7222140 130.4460900  99.2455750 136.3511450 129.5346370
  99.1512620 135.7332200 128.8097240  98.6653140 137.0777740 129.3076280
 102.0117190 134.9084690 126.5673760 101.5634490 134.9308950 125.7219310
 101.3782390 134.5103710 127.1644060 102.4176740 143.8039020 127.1886200
 102.8364850 144.6471750 127.0162440 101.4985370 143.9411060 126.9592980
 104.7540640 141.5355200 128.5724040 104.8736850 140.9396340 129.3118880
 105.6134640 141.5724890 128.1525340 107.0928540 142.0892390 127.1486550
 106.5663760 142.6135010 126.5451690 107.4359880 142.7219780 127.7796280
  99.4914930 139.4785760 113.5936260  99.2903990 138.6153120 113.9549600
  99.3206980 139.3919120 112.6557860 100.2684160 150.1092030 128.3043930
  99.7305250 150.8338090 127.9852630 100.5218120 149.6322370 127.5141270
 101.5209410 138.0776550 129.8299860 102.1109100 137.7692400 130.5177680
 100.7029650 137.6056300 129.9859760 106.3402840 137.6942360 130.0632880
 105.6518360 137.0323900 129.9982870 107.0608860 137.2480630 130.5081340
 106.9703240 134.2893990 116.1223140 107.2505530 133.4461890 116.4782560
 106.1968970 134.5217100 116.6361890  98.2897730 136.5786380 113.5814140
  98.5923630 136.5853810 112.6733290  99.0292320 136.2284240 114.0781800
 101.5082660 135.5221000 114.5670340 101.1604660 134.8444990 113.9872790
 101.7095430 135.0610510 115.3813730 103.6731700 150.5101750 116.1856940
 104.5682490 150.8486720 116.2075700 103.7049330 149.7881160 115.5581220
  97.3127860 145.8828800 114.4143940  97.7502730 146.4258470 115.0701520
  97.7975590 145.0575750 114.4240280  94.5273660 148.6717830 121.8664200
  94.8576670 147.8038890 121.6342840  94.9564660 148.8776350 122.6969160
  99.1235580 147.0026840 119.5266170  98.8231120 146.8791810 120.4270080
  99.0173070 146.1435430 119.1181900  95.0163870 149.5388420 124.6045830
  94.5794860 149.7189220 125.4369980  95.5841550 150.2963040 124.4627550
 110.6526050 149.0405420 128.8923140 110.0528040 149.0997980 128.1487060
 110.7819950 148.1010400 129.0219990 111.8927500 146.7823240 114.2292850
 111.0620460 146.8499890 114.7000080 112.0699330 147.6727360 113.9259710
 111.3483960 143.5270720 116.7327050 112.1102870 144.0967370 116.8386740
 111.3638330 142.9597920 117.5035360  94.8488300 142.0508650 120.9634710
  94.1937140 141.7820290 120.3194410  95.6866250 141.9413130 120.5136690
 112.3543930 144.3820820 121.5768980 112.7252760 143.5988140 121.1704950
 112.9945860 145.0709920 121.3986280 109.3377690 145.7657400 126.9899300
 108.5237530 146.1954560 127.2525090 109.7451890 146.3775810 126.3768350
 111.4003130 143.8205090 113.8899570 111.6751970 144.7283970 113.7618790
 111.2113870 143.7567620 114.8261560 107.7978740 136.8449940 115.1853200
 108.2163620 136.6580920 114.3449860 107.4914800 135.9928990 115.4956130
 111.2968470 141.7574080 118.8829000 110.9212070 140.9902010 118.4510290
 110.5671590 142.1396780 119.3703930  95.8864230 142.4361220 125.5038050
  96.2537270 142.3488620 126.3834070  95.3175050 141.6727770 125.4044910
 110.6868090 140.9045600 128.5168520 110.4554180 140.6758350 127.6166470
 110.9472640 141.8245150 128.4713410  95.4380230 139.3470310 129.4096470
  94.5436280 139.3137070 129.7490180  95.9777780 139.5457100 130.1747720
 109.1256160 136.1302030 131.2948220 110.0026340 136.1385430 131.6782220
 109.1377000 135.3932870 130.6840570  94.0626380 139.2607580 116.9060040
  93.1590460 139.5237780 116.7311700  94.5467000 139.5318750 116.1260000
 110.5719430 139.9831570 122.1836240 111.0956910 139.4894220 121.5526410
 111.1578850 140.1181930 122.9283810 110.7509150 140.0671440 125.7055790
 109.8011860 140.0334980 125.8200780 110.9322160 140.9771550 125.4705560
  96.6053590 138.3173120 114.8154420  97.3145290 137.8956340 114.3301700
  95.8893530 138.3848350 114.1837770  96.2527750 134.3712450 113.8557070
  96.9755880 134.9121390 114.1738290  96.5252270 134.0975870 112.9798610
 110.0619400 139.2404920 118.1228650 110.5578520 139.0075790 118.9077530
 109.8635470 138.4016760 117.7066290  95.9419940 133.6218640 123.7579690
  96.5896130 133.0716020 123.3174850  96.3621780 133.8761790 124.5795500
 111.4906560 137.8765870 120.6566330 111.3805840 137.7221910 121.5948600
 112.2514150 137.3486810 120.4141740 109.8372280 133.8160000 127.1149330
 110.4744500 134.4294140 127.4808520 109.9847170 133.8520660 126.1698560
 112.3796830 135.7073790 113.8972470 113.3046140 135.5754970 113.6890760
 112.3572620 135.7866610 114.8508920 112.4535320 136.4784450 116.5229180
 111.6586820 136.4129570 117.0522090 112.6578600 137.4135090 116.5114530
 109.3953740 150.5176000 120.5167570 109.9912810 150.1960570 119.8401990
 109.6531890 150.0447820 121.3080840  95.6951940 133.7774310 126.5005010
  95.3466760 134.2338130 127.2663190  95.3639640 132.8831440 126.5827440
  97.3016310 146.9493910 130.6658200  97.2585940 146.5786820 131.5472660
  97.4327320 147.8871480 130.8060020 101.0022340 148.5053500 126.2667920
 100.7613700 148.7728060 125.3798440 101.9424980 148.6759230 126.3218780
 103.2076760 134.9686190 130.0224430 103.1465650 135.5608020 130.7719840
 104.1477140 134.8612150 129.8774690 105.8451320 134.6256250 129.6616720
 106.4591730 134.9435540 128.9997800 106.3900880 134.1404840 130.2812580
 112.2626500 150.5247880 127.0678560 111.7684780 150.9216750 126.3505690
 111.6539790 149.8997090 127.4615840  96.3672580 133.3050510 129.7755780
  96.9155570 133.1238560 129.0121890  96.4327890 132.5144620 130.3112090
  97.1404340 149.8956160 127.7855980  96.5464660 149.7640860 128.5246020
  97.1328180 149.0594300 127.3198080 106.5859360 133.1888390 125.9886010
 105.7119200 133.5223500 125.7858940 106.4770110 132.7161570 126.8137880
 107.4931340 135.3959260 127.3727730 107.1644700 134.5811020 126.9929460
 108.4413640 135.3529070 127.2493420  96.7716570 147.2614540 126.7364020
  96.0450630 146.6419830 126.6689970  96.8325720 147.6555150 125.8662100
 100.3761670 149.4759540 123.5213430 100.8926690 148.8646900 122.9961690
 101.0259050 149.9788320 124.0124440 103.1157170 150.3668030 124.3482410
 103.4034980 150.1122330 123.4715420 103.6280390 149.8145390 124.9387980
 104.3334180 134.1058230 124.9278920 103.5505970 134.5803730 125.2075680
 104.0397110 133.2013060 124.8192100 108.8855250 134.8081330 122.9728010
 109.3263340 134.7526430 122.1249610 108.6162840 135.7239340 123.0438190
 110.7493820 134.4396570 120.9836830 110.6882220 133.4957790 120.8367850
 111.5285850 134.5476660 121.5290290  95.0546570 150.5788930 119.9460780
  94.8868610 149.9459610 120.6442670  94.1881080 150.7848330 119.5954970
  95.6774590 134.4105710 117.4492640  96.4353950 134.5234590 116.8756670
  95.2151760 135.2474910 117.4036070 102.2188400 136.5244980 120.4394950
 101.4062910 136.1501870 120.0990830 102.7230040 135.7690060 120.7416140
 106.7213380 133.1887430 121.6778020 107.3242750 133.7607640 122.1526540
 105.9806370 133.7526870 121.4551920 109.8647980 133.5908990 116.9518300
 110.0598610 134.4892440 117.2185730 109.0777850 133.3596070 117.4451250
  96.6609270 149.2722160 117.3910920  96.1356890 149.6530190 116.6872880
  96.5853850 149.8972930 118.1120630  98.0499740 134.9369760 115.9894610
  98.5792500 134.1499560 115.8602560  98.6828060 135.6160950 116.2230140
 100.2437580 134.6744900 119.0440000  99.6140320 133.9732210 119.2110130
  99.7042720 135.4349030 118.8273160 111.4174590 150.8309700 118.7124860
 111.5926780 150.1447440 118.0685780 110.7196160 151.3556750 118.3201530
 100.3693140 133.9528880 131.4792490 100.0877410 134.4562480 130.7153310
 100.7512840 133.1550630 131.1134620  99.2602240 151.2204540 116.2660170
  99.9921060 150.9363820 115.7184060  99.5195910 150.9817820 117.1559550
  98.4217030 147.3369270 116.2706500  97.7925910 147.8054370 116.8192330
  98.5364860 146.4918490 116.7052690 106.9708600 133.3682460 132.0572960
 106.8574050 133.6877070 132.9524480 107.7878340 133.7694970 131.7610240
 109.7507090 150.5153990 131.5391650 110.5432410 150.0203220 131.3317610
 110.0440240 151.1944130 132.1467260 105.8766750 141.3874930 102.4207700
 105.7960800 140.4729540 102.1499410 105.4631170 141.8842000 101.7147410
 104.0084790 143.1653950 104.3016970 103.2326890 142.6854390 104.5915540
 104.6597720 142.4859600 104.1273130  98.0250620 143.4773760 105.1792730
  97.1935500 143.2222470 105.5789240  98.6331600 143.5484530 105.9150650
 108.0292220 147.5714140 103.0816100 107.5673750 146.8001380 103.4103270
 108.8417770 147.5980210 103.5868550  98.0051880 147.5113850 105.3750750
  98.3079920 146.6211590 105.1960970  98.7495470 148.0684070 105.1473000
  96.4342570 138.4375650  98.9635120  95.5459270 138.7791620  98.8615000
  96.7183760 138.2375970  98.0715950  94.3975580 141.0381300 104.8474820
  94.9691690 140.2703500 104.8478460  94.3977120 141.3370060 103.9381430
 104.2555530 149.8572150 102.7020090 103.6366970 150.3129650 102.1314530
 105.1107310 150.0123610 102.3009790 103.4493780 145.8411140 104.3087130
 103.3802060 144.9001080 104.1476260 104.2113640 145.9312550 104.8809700
  95.6400450 136.4465660 106.6343750  95.4603290 135.5491410 106.9146510
  95.2380530 136.9937530 107.3090700 104.4798950 138.6481520 104.5356060
 104.8563770 137.7753400 104.4229730 104.3818460 138.9840220 103.6446500
  98.6103960 137.0207150  99.9973500  98.7170710 137.9210880 100.3042260
  97.6996320 136.9725120  99.7068150 108.2623070 136.1431960 101.4684400
 109.0832690 135.6528530 101.5109880 108.2957150 136.7329620 102.2216240
  96.2587120 138.9426160 105.2426090  96.9397230 139.2064530 105.8613490
  95.9435170 138.1027030 105.5764100 100.4511690 139.9893520 104.3298680
 100.9589910 140.4874490 104.9703700 100.9824930 139.2128720 104.1538040
 112.5522620 138.1598710 108.0328030 111.8474790 138.5480420 107.5143140
 112.8180540 138.8549000 108.6348960  98.7347790 134.6292080 108.5962100
  98.7366230 135.1464470 107.7908000  97.9052100 134.1522260 108.5732030
 105.1218880 144.7411390 100.0952000 104.5036150 145.2060840  99.5314720
 105.6342130 145.4338870 100.5121510  99.9850640 144.2687260 106.7735600
  99.6520020 144.8956180 107.4156670 100.1617320 144.7949140 105.9937270
 108.4984550 138.0832340 104.2411940 107.7940120 138.3717230 104.8215050
 108.8596710 138.8932450 103.8811500  98.4163120 136.3402040 106.6032550
  98.7579930 137.1844090 106.3086420  97.4778930 136.4885780 106.7197890
  99.1969740 146.2368060 108.5884780  99.8143740 146.9119140 108.3069230
  98.3362860 146.6456040 108.4972280  94.4902080 145.4267920  97.4691630
  94.1130060 145.9155020  96.7376530  94.7475150 146.0993200  98.0998160
 110.1147330 147.7007470 106.5039420 109.4310850 148.3706580 106.4956090
 110.6541620 147.8988120 105.7384280 111.5671470 137.5287130 104.6321150
 110.6196380 137.5626110 104.7636580 111.8921460 138.3426080 105.0170510
 102.0991010 133.8284310 102.9277140 102.4065990 133.2731200 102.2112640
 101.1691710 133.9628770 102.7450130 107.6506070 149.5451600 105.2184600
 107.6633230 149.1413890 104.3506860 107.0981290 150.3198890 105.1146030
 108.9451490 146.2667820 100.3074770 108.8347820 145.3242150 100.4324190
 108.9419740 146.6283460 101.1937530 107.0491510 144.4481440 106.5467210
 107.4660300 144.2341550 105.7120670 107.7731330 144.7054230 107.1175830
 104.4871770 141.8933140  99.6637260 103.5601050 141.8270520  99.8925730
 104.6396590 142.8313270  99.5492500 104.4740850 138.1650140  96.6604420
 103.5344520 138.3264100  96.7456880 104.7924110 138.8835820  96.1140410
 110.9953610 142.8468660 106.6383450 110.1672240 142.9161750 106.1633580
 111.5904090 143.4322970 106.1699280 108.5169060 143.4553440 100.1672510
 107.8981480 143.1172990  99.5198810 108.4993510 142.8113200 100.8751700
 107.9595620 139.6337980 107.5838320 107.5466800 140.4591690 107.8378310
 107.2271570 139.0483020 107.3914680 100.0928410 142.4197880 102.4456990
  99.6885410 141.7075130 101.9502890 100.1791530 142.0751120 103.3345030
 100.5610110 146.1065440 104.6096200 100.2638400 145.5010910 103.9303980
 101.5109930 146.1442750 104.4985560  98.8057030 139.1941090 106.2256030
  99.3571620 139.3036430 105.4509280  99.3200540 139.5678690 106.9411260
 108.6495720 149.6797310 108.2719300 108.1726280 150.4869500 108.0791910
 107.9657510 149.0275640 108.4245510  99.6528540 145.8447130 111.2604000
  98.7557070 146.0687100 111.5077400  99.6781410 145.9682070 110.3115400
 106.6933760 142.6940250  97.1745260 107.1327040 141.8562680  97.0283080
 107.4062180 143.3269650  97.2609400  98.4799760 142.7160450 109.8361370
  98.3407530 143.5883250 110.2048770  97.5981120 142.3733260 109.6909310
 104.8029140 147.6336320 101.1426500 105.2425050 148.3760650 100.7281890
 104.7416030 147.8762890 102.0665460 100.2780110 148.6582150 112.0446520
 100.2495540 149.0625100 111.1774950 100.1145080 147.7292510 111.8818120
 110.2750900 133.9483060  95.4886300 109.9623560 134.0409890  96.3885370
 111.0363370 134.5264090  95.4383730  96.7933040 141.3142860  99.9463640
  96.6730640 142.0404950  99.3344910  96.4833930 140.5445770  99.4691550
 112.2294930 149.4409250 113.3410690 112.7054650 149.9192140 114.0199770
 112.8502090 149.3726740 112.6156190  94.4318410 144.4858000 105.7532280
  94.5098830 144.6206770 104.8088000  95.0460090 143.7773890 105.9460400
  95.6766040 146.1858190 102.1638460  95.2694120 146.3272780 101.3092060
  96.5679050 145.9018350 101.9609670 111.6328180 146.6322100 110.5010700
 111.7591240 146.3933980 109.5827880 111.6749560 145.8006640 110.9732780
 105.4944920 150.3350100 109.0705510 106.0089590 150.2458110 109.8727940
 104.6514000 150.6809800 109.3633420 107.4699320 150.6205440  98.4989510
 107.3100460 150.3308380  99.3971340 107.3046030 149.8445570  97.9634740
  99.9487700 150.4003970 100.2761130  99.7730180 149.4839510 100.0628930
  99.0943440 150.7591260 100.5158930 107.1725450 148.1293000  97.0587510
 106.4790610 148.1270290  96.3989790 107.9148310 147.7052320  96.6281680
 106.7375380 149.7555710 101.1336000 107.1932330 148.9745090 101.4474620
 107.0767900 150.4662530 101.6777180 111.4852190 138.6854560 111.4660440
 110.8696460 139.1934230 110.9375900 111.1648610 137.7852890 111.4086380
  94.4877930 145.5272170 108.2926740  94.6508970 145.0577530 107.4746110
  94.9530380 145.0195730 108.9575580  99.2596700 134.6577930 103.3287310
  98.8164850 135.4387470 102.9971830  99.8181690 134.9807820 104.0358250
 103.5466510 137.5246450 108.9322630 103.0845880 137.7329470 109.7442570
 103.1444620 136.7105800 108.6293300 108.5471020 138.7455400 110.0619290
 107.6964610 138.4461150 110.3828360 108.3872810 138.9897410 109.1503110
 105.6420730 140.2457150 112.1618080 105.9674140 139.4120900 111.8220310
 106.4301060 140.7685670 112.3096410 102.3755520 134.2788630  98.2093140
 101.7509700 134.2748500  98.9346450 102.2885640 133.4119590  97.8129110
 101.2972600 135.2025260 105.1876910 101.5944930 136.1088090 105.1068930
 101.8458160 134.7144040 104.5736480  99.0510920 139.7811500 101.0568560
  98.8251840 139.5648670 101.9615180  98.2703450 140.2139960 100.7114530
 106.2808680 139.7874870  99.6559210 105.6817570 140.5110670  99.4722830
 106.8288290 139.7251650  98.8735660 101.4910130 140.6797080 111.7228830
 101.3953730 139.7391810 111.5729230 102.3342110 140.9012150 111.3276900
 104.8873550 138.4238410 101.6862490 105.2803120 138.7410610 100.8731180
 105.2490400 137.5450290 101.8007010  96.6220670 137.0910750 109.8762610
  96.2284060 137.9385960 110.0835390  95.9339070 136.4537120 110.0671250
 103.1965720 137.1745720 112.9459350 102.5064040 136.9817920 113.5805440
 103.9398020 137.4580360 113.4783650  93.9237720 135.0139210 103.9092690
  93.6350770 135.5842070 104.6217670  94.6683480 134.5343660 104.2723920
  94.1107950 138.9559330  95.1195410  94.0282620 139.8990090  95.2610400
  93.7591010 138.8134240  94.2407760 105.4728690 141.0144160 105.7813270
 104.7409810 141.5230970 106.1303370 105.0753030 140.1974140 105.4802050
 101.9106080 137.6898360 104.1865760 101.9142140 137.2488310 103.3370300
 102.8057200 138.0115690 104.2937580  97.7608460 137.5724850 103.1459970
  97.4208510 138.0500080 103.9027020  96.9985780 137.1189970 102.7861070
 101.9726230 138.6910440  97.1772520 102.0939050 138.6496920  98.1258340
 101.5874740 139.5534590  97.0219250 105.9354600 136.4677840 105.1936210
 105.9527340 136.9186490 106.0378060 105.6870180 135.5683480 105.4069650
 100.9847730 141.0011580  96.5755820 100.4164630 140.5529830  95.9491730
 101.6936730 141.3604360  96.0420970 109.3625350 133.8810020 111.0322590
 109.6871120 133.1499680 111.5580570 109.3981860 133.5623660 110.1303580
  96.0616910 144.9023600 110.4522550  95.6771700 144.2617270 111.0505510
  96.3729100 145.6059720 111.0217280 102.2114050 141.7500140 105.9331170
 102.5784180 141.2758710 106.6792510 102.0219110 142.6241710 106.2739510
  95.0754540 136.4943830 102.0624640  94.7901460 136.1299500 102.9003260
  95.0133400 135.7624290 101.4487780 100.0013420 140.7908780 108.2515380
  99.6970490 141.6700760 108.4765740 100.9559880 140.8508570 108.2872820
  98.5295210 144.9969770  98.8482230  97.7557470 144.4567390  98.6880950
  99.2589840 144.4776380  98.5099990 109.2883190 143.9935130 104.6408620
 110.0082310 144.4890420 104.2504730 109.0865010 143.3153020 103.9962490
 104.7493130 135.3873090  98.7838010 103.9357740 134.8886260  98.7083320
 104.5555080 136.2271340  98.3674360 104.6701990 144.0644190 110.5277620
 104.6039300 143.1439860 110.2735210 104.0407130 144.1619630 111.2422260
 107.4641520 139.7592740  97.0800170 108.3521140 140.0709970  96.9051510
 107.4346610 138.8864990  96.6880750  98.5732610 144.6650150 102.4861040
  99.0911280 143.8618410 102.4317930  98.1216630 144.6029290 103.3277870
 103.4602110 145.9316430  97.7588340 103.8017810 146.6758660  97.2631660
 102.6314820 146.2447550  98.1213170  96.0577150 141.6311520 109.3986740
  95.6992090 142.2965370 109.9860080  95.7631710 140.7995070 109.7699360
  99.2590270 142.0895760 112.2826290  98.9590410 142.2352940 111.3854110
 100.0301510 141.5301050 112.1899680 104.6018720 146.8864760 110.2781420
 104.6163260 145.9545720 110.0600330 103.8943820 146.9724520 110.9171190
 109.7355790 141.0704580  96.5480030 109.6519510 141.5018800  95.6976470
 110.4549980 141.5302930  96.9806850 110.8129930 143.5272100 109.6250000
 110.0878120 144.1200880 109.4279390 111.3405390 143.5195640 108.8263370
 110.7643040 147.9246840  99.2762160 110.1219200 147.2702460  99.5505880
 110.3773700 148.3301930  98.5002830 106.3429520 145.2532270 103.1233850
 106.6953340 144.6560400 102.4635220 105.4591850 144.9276500 103.2942100
 102.4292800 146.0129960 100.5304260 103.1163930 146.5599170 100.9111850
 101.6425220 146.5570690 100.5653870  94.5685200 141.6302780  96.0221340
  95.4380050 141.9127580  96.3057260  94.0775520 142.4438650  95.9070150
 101.7320010 143.0175990 100.1429620 102.1882790 143.8281240 100.3689810
 101.3808220 142.6999130 100.9748110 104.0352620 148.5282330 107.3721920
 104.6794840 148.7341710 108.0495340 104.3982060 147.7670730 106.9192770
  97.6331790 133.3613640 100.6152140  97.5046420 133.3531540 101.5637060
  96.8093810 133.6996730 100.2643150 105.3084700 146.5314680 106.0899370
 105.9506930 145.8307840 106.2031540 105.8334050 147.3113120 105.9096260
 109.1540420 146.8163300  95.8138510 108.9278000 146.0993740  96.4063150
 108.7636620 146.5675740  94.9760260 107.0822320 147.3309580 109.2935430
 107.4178560 147.9176270 109.9713350 106.1622660 147.2002290 109.5233220
  94.9356450 150.8430160  96.5882970  95.2954090 151.4419500  95.9340240
  94.7948790 151.3890050  97.3618000  94.6325720 135.1204760 110.0758840
  93.9184240 135.3201680 110.6811450  95.0520760 134.3444330 110.4473640
 108.7356670 144.7335240  97.4752670 108.4478370 145.1947930  98.2630550
 109.5308840 144.2733010  97.7436890  94.9198310 149.1085020 111.0625370
  95.0289430 148.1679760 110.9220760  94.2678870 149.3739770 110.4139100
 102.9110900 147.3800910 112.4623490 102.5907770 146.6610150 113.0069180
 102.2369260 148.0555980 112.5359550 100.9525070 148.2261360  97.4056640
 100.9435170 148.9591050  96.7901150 100.0323430 147.9792940  97.4983600
  96.5531710 143.4476250  98.1503400  95.9459660 144.1875150  98.1598700
  97.0281060 143.5375610  97.3241600 106.1264500 137.6127070 107.8260290
 106.4945320 136.7922280 108.1539860 105.2662700 137.6728960 108.2415940
 109.4926530 136.5684010  98.6347850 108.8639690 136.6729680  97.9206080
 108.9978450 136.7880790  99.4241730 103.9384670 148.2889600  96.0681830
 104.0396650 148.0853590  95.1383810 103.0386410 148.0347880  96.2729610
 101.4610560 138.8469960 100.0505730 100.7526710 139.3156300 100.4919340
 101.7455040 138.1891970 100.6850920 103.0866490 140.2666660 108.0498260
 103.5851740 140.7412480 108.7150110 103.2289440 139.3430180 108.2568290
 105.4925990 135.5720620 101.4901520 105.3693770 135.5906750 100.5411030
 106.4410550 135.6199560 101.6099920 102.5802780 150.8075920 100.7629500
 102.8344280 150.7697310  99.8408870 101.6315260 150.6809250 100.7557750
  99.6645580 137.1555040  97.4256440 100.5136110 137.5925190  97.3596630
  99.2976850 137.4675300  98.2528500 110.2933350 136.4834620 108.8926650
 109.7906950 137.2240020 109.2320460 111.1090010 136.8718620 108.5763440
 108.5855360 141.7267800 102.3388010 107.6445500 141.7418030 102.5135700
 108.8999430 140.9403760 102.7848310  98.5637000 143.4087400  95.8991970
  99.3300270 143.2968760  96.4617400  98.6411690 142.7125370  95.2468740
  97.2583760 140.8412470  96.5824860  97.3387350 139.8939980  96.6942260
  98.1503510 141.1719350  96.6885520 110.5880940 148.8976650 104.0142270
 110.7128360 149.7207820 104.4866080 111.4546500 148.6867380 103.6666420
  94.9443950 147.0581430  99.5600910  94.0183730 147.3002570  99.5506320
  95.4100380 147.8855690  99.4385660  97.0656750 150.1753930 112.8744980
  97.8669480 150.4965980 113.2880380  96.5508570 149.8149510 113.5964890
 101.1700780 150.1638170  95.5084970 101.9629390 150.4527000  95.0566760
 100.6505130 149.7330340  94.8297450 105.9021380 146.2833800 112.8220390
 105.2959540 146.3065400 112.0816140 105.5975490 145.5516840 113.3587640
 107.3321750 150.0114090 111.4329800 108.2843500 149.9272110 111.3830040
 107.1849970 150.6755800 112.1063590 110.2230950 149.3908300  96.9321710
 109.9372460 148.9773440  96.1175890 110.0250500 150.3196010  96.8122230
  94.7854560 142.6627390 111.8181030  95.2893580 142.0834670 112.3897260
  94.0461980 142.9467620 112.3557400 101.6878180 145.3841580  95.3727320
 101.5828820 144.7693930  96.0988700 101.5202400 144.8607470  94.5890330
 101.8392500 144.0698380 111.3516550 101.0738170 144.6383380 111.2671220
 102.0208460 143.7774590 110.4584780 104.9280910 144.4461610  95.9769310
 104.3791010 144.8930910  96.6212050 105.5500170 143.9410860  96.5006980
 108.9815850 145.8003710 111.9091570 109.7225320 146.1379470 111.4059030
 108.2188530 145.9695770 111.3561340  96.8177640 140.8056980 112.7131100
  96.8582980 140.5070850 113.6216330  97.6723140 141.2064590 112.5538620
 100.5956030 143.4052530  97.8734610 101.0172450 143.2392400  98.7166000
 100.7206870 142.5952760  97.3789750  98.7583450 139.3849080 110.6805590
  98.2279910 138.8940030 110.0528930  99.4271520 139.8133280 110.1463520
 103.1083670 142.4290140  95.1211710 103.6289330 141.7139160  94.7552860
 103.7552070 143.0676010  95.4212220 107.6561510 143.8518540 110.4446780
 108.0702530 144.0063620 111.2937200 106.7212510 143.9773760 110.6072560
 108.1283680 141.1914700 112.4485930 108.7104450 140.4367020 112.3606410
 108.3045450 141.7222140 111.6717410  99.2455750 136.3511450 110.7602880
  99.1512620 135.7332200 110.0353750  98.6653140 137.0777740 110.5332790
 102.0117190 134.9084690 107.7930270 101.5634490 134.9308950 106.9475820
 101.3782390 134.5103710 108.3900570 102.4176740 143.8039020 108.4142710
 102.8364850 144.6471750 108.2418950 101.4985370 143.9411060 108.1849490
 104.7540640 141.5355200 109.7980550 104.8736850 140.9396340 110.5375390
 105.6134640 141.5724890 109.3781850 107.0928540 142.0892390 108.3743060
 106.5663760 142.6135010 107.7708200 107.4359880 142.7219780 109.0052790
  99.4914930 139.4785760  94.8192770  99.2903990 138.6153120  95.1806110
  99.3206980 139.3919120  93.8814370 100.2684160 150.1092030 109.5300440
  99.7305250 150.8338090 109.2109140 100.5218120 149.6322370 108.7397780
 101.5209410 138.0776550 111.0556370 102.1109100 137.7692400 111.7434190
 100.7029650 137.6056300 111.2116270 106.3402840 137.6942360 111.2889390
 105.6518360 137.0323900 111.2239380 107.0608860 137.2480630 111.7337850
 106.9703240 134.2893990  97.3479650 107.2505530 133.4461890  97.7039070
 106.1968970 134.5217100  97.8618400  98.2897730 136.5786380  94.8070650
  98.5923630 136.5853810  93.8989800  99.0292320 136.2284240  95.3038310
 101.5082660 135.5221000  95.7926850 101.1604660 134.8444990  95.2129300
 101.7095430 135.0610510  96.6070240 103.6731700 150.5101750  97.4113450
 104.5682490 150.8486720  97.4332210 103.7049330 149.7881160  96.7837730
  97.3127860 145.8828800  95.6400450  97.7502730 146.4258470  96.2958030
  97.7975590 145.0575750  95.6496790  94.5273660 148.6717830 103.0920710
  94.8576670 147.8038890 102.8599350  94.9564660 148.8776350 103.9225670
  99.1235580 147.0026840 100.7522680  98.8231120 146.8791810 101.6526590
  99.0173070 146.1435430 100.3438410  95.0163870 149.5388420 105.8302340
  94.5794860 149.7189220 106.6626490  95.5841550 150.2963040 105.6884060
 110.6526050 149.0405420 110.1179650 110.0528040 149.0997980 109.3743570
 110.7819950 148.1010400 110.2476500 111.8927500 146.7823240  95.4549360
 111.0620460 146.8499890  95.9256590 112.0699330 147.6727360  95.1516220
 111.3483960 143.5270720  97.9583560 112.1102870 144.0967370  98.0643250
 111.3638330 142.9597920  98.7291870  94.8488300 142.0508650 102.1891220
  94.1937140 141.7820290 101.5450920  95.6866250 141.9413130 101.7393200
 112.3543930 144.3820820 102.8025490 112.7252760 143.5988140 102.3961460
 112.9945860 145.0709920 102.6242790 109.3377690 145.7657400 108.2155810
 108.5237530 146.1954560 108.4781600 109.7451890 146.3775810 107.6024860
 111.4003130 143.8205090  95.1156080 111.6751970 144.7283970  94.9875300
 111.2113870 143.7567620  96.0518070 107.7978740 136.8449940  96.4109710
 108.2163620 136.6580920  95.5706370 107.4914800 135.9928990  96.7212640
 111.2968470 141.7574080 100.1085510 110.9212070 140.9902010  99.6766800
 110.5671590 142.1396780 100.5960440  95.8864230 142.4361220 106.7294560
  96.2537270 142.3488620 107.6090580  95.3175050 141.6727770 106.6301420
 110.6868090 140.9045600 109.7425030 110.4554180 140.6758350 108.8422980
 110.9472640 141.8245150 109.6969920  95.4380230 139.3470310 110.6352980
  94.5436280 139.3137070 110.9746690  95.9777780 139.5457100 111.4004230
 109.1256160 136.1302030 112.5204730 110.0026340 136.1385430 112.9038730
 109.1377000 135.3932870 111.9097080  94.0626380 139.2607580  98.1316550
  93.1590460 139.5237780  97.9568210  94.5467000 139.5318750  97.3516510
 110.5719430 139.9831570 103.4092750 111.0956910 139.4894220 102.7782920
 111.1578850 140.1181930 104.1540320 110.7509150 140.0671440 106.9312300
 109.8011860 140.0334980 107.0457290 110.9322160 140.9771550 106.6962070
  96.6053590 138.3173120  96.0410930  97.3145290 137.8956340  95.5558210
  95.8893530 138.3848350  95.4094280  96.2527750 134.3712450  95.0813580
  96.9755880 134.9121390  95.3994800  96.5252270 134.0975870  94.2055120
 110.0619400 139.2404920  99.3485160 110.5578520 139.0075790 100.1334040
 109.8635470 138.4016760  98.9322800  95.9419940 133.6218640 104.9836200
  96.5896130 133.0716020 104.5431360  96.3621780 133.8761790 105.8052010
 111.4906560 137.8765870 101.8822840 111.3805840 137.7221910 102.8205110
 112.2514150 137.3486810 101.6398250 109.8372280 133.8160000 108.3405840
 110.4744500 134.4294140 108.7065030 109.9847170 133.8520660 107.3955070
 112.3796830 135.7073790  95.1228980 113.3046140 135.5754970  94.9147270
 112.3572620 135.7866610  96.0765430 112.4535320 136.4784450  97.7485690
 111.6586820 136.4129570  98.2778600 112.6578600 137.4135090  97.7371040
 109.3953740 150.5176000 101.7424080 109.9912810 150.1960570 101.0658500
 109.6531890 150.0447820 102.5337350  95.6951940 133.7774310 107.7261520
  95.3466760 134.2338130 108.4919700  95.3639640 132.8831440 107.8083950
  97.3016310 146.9493910 111.8914710  97.2585940 146.5786820 112.7729170
  97.4327320 147.8871480 112.0316530 101.0022340 148.5053500 107.4924430
 100.7613700 148.7728060 106.6054950 101.9424980 148.6759230 107.5475290
 103.2076760 134.9686190 111.2480940 103.1465650 135.5608020 111.9976350
 104.1477140 134.8612150 111.1031200 105.8451320 134.6256250 110.8873230
 106.4591730 134.9435540 110.2254310 106.3900880 134.1404840 111.5069090
 112.2626500 150.5247880 108.2935070 111.7684780 150.9216750 107.5762200
 111.6539790 149.8997090 108.6872350  96.3672580 133.3050510 111.0012290
  96.9155570 133.1238560 110.2378400  96.4327890 132.5144620 111.5368600
  97.1404340 149.8956160 109.0112490  96.5464660 149.7640860 109.7502530
  97.1328180 149.0594300 108.5454590 106.5859360 133.1888390 107.2142520
 105.7119200 133.5223500 107.0115450 106.4770110 132.7161570 108.0394390
 107.4931340 135.3959260 108.5984240 107.1644700 134.5811020 108.2185970
 108.4413640 135.3529070 108.4749930  96.7716570 147.2614540 107.9620530
  96.0450630 146.6419830 107.8946480  96.8325720 147.6555150 107.0918610
 100.3761670 149.4759540 104.7469940 100.8926690 148.8646900 104.2218200
 101.0259050 149.9788320 105.2380950 103.1157170 150.3668030 105.5738920
 103.4034980 150.1122330 104.6971930 103.6280390 149.8145390 106.1644490
 104.3334180 134.1058230 106.1535430 103.5505970 134.5803730 106.4332190
 104.0397110 133.2013060 106.0448610 108.8855250 134.8081330 104.1984520
 109.3263340 134.7526430 103.3506120 108.6162840 135.7239340 104.2694700
 110.7493820 134.4396570 102.2093340 110.6882220 133.4957790 102.0624360
 111.5285850 134.5476660 102.7546800  95.0546570 150.5788930 101.1717290
  94.8868610 149.9459610 101.8699180  94.1881080 150.7848330 100.8211480
  95.6774590 134.4105710  98.6749150  96.4353950 134.5234590  98.1013180
  95.2151760 135.2474910  98.6292580 102.2188400 136.5244980 101.6651460
 101.4062910 136.1501870 101.3247340 102.7230040 135.7690060 101.9672650
 106.7213380 133.1887430 102.9034530 107.3242750 133.7607640 103.3783050
 105.9806370 133.7526870 102.6808430 109.8647980 133.5908990  98.1774810
 110.0598610 134.4892440  98.4442240 109.0777850 133.3596070  98.6707760
  96.6609270 149.2722160  98.6167430  96.1356890 149.6530190  97.9129390
  96.5853850 149.8972930  99.3377140  98.0499740 134.9369760  97.2151120
  98.5792500 134.1499560  97.0859070  98.6828060 135.6160950  97.4486650
 100.2437580 134.6744900 100.2696510  99.6140320 133.9732210 100.4366640
  99.7042720 135.4349030 100.0529670 111.4174590 150.8309700  99.9381370
 111.5926780 150.1447440  99.2942290 110.7196160 151.3556750  99.5458040
 100.3693140 133.9528880 112.7049000 100.0877410 134.4562480 111.9409820
 100.7512840 133.1550630 112.3391130  99.2602240 151.2204540  97.4916680
  99.9921060 150.9363820  96.9440570  99.5195910 150.9817820  98.3816060
  98.4217030 147.3369270  97.4963010  97.7925910 147.8054370  98.0448840
  98.5364860 146.4918490  97.9309200 106.9708600 133.3682460 113.2829470
 106.8574050 133.6877070 114.1780990 107.7878340 133.7694970 112.9866750
 109.7507090 150.5153990 112.7648160 110.5432410 150.0203220 112.5574120
 110.0440240 151.1944130 113.3723770 105.8766750 141.3874930  83.6464210
 105.7960800 140.4729540  83.3755920 105.4631170 141.8842000  82.9403920
 104.0084790 143.1653950  85.5273480 103.2326890 142.6854390  85.8172050
 104.6597720 142.4859600  85.3529640  98.0250620 143.4773760  86.4049240
  97.1935500 143.2222470  86.8045750  98.6331600 143.5484530  87.1407160
 108.0292220 147.5714140  84.3072610 107.5673750 146.8001380  84.6359780
 108.8417770 147.5980210  84.8125060  98.0051880 147.5113850  86.6007260
  98.3079920 146.6211590  86.4217480  98.7495470 148.0684070  86.3729510
  96.4342570 138.4375650  80.1891630  95.5459270 138.7791620  80.0871510
  96.7183760 138.2375970  79.2972460  94.3975580 141.0381300  86.0731330
  94.9691690 140.2703500  86.0734970  94.3977120 141.3370060  85.1637940
 104.2555530 149.8572150  83.9276600 103.6366970 150.3129650  83.3571040
 105.1107310 150.0123610  83.5266300 103.4493780 145.8411140  85.5343640
 103.3802060 144.9001080  85.3732770 104.2113640 145.9312550  86.1066210
  95.6400450 136.4465660  87.8600260  95.4603290 135.5491410  88.1403020
  95.2380530 136.9937530  88.5347210 104.4798950 138.6481520  85.7612570
 104.8563770 137.7753400  85.6486240 104.3818460 138.9840220  84.8703010
  98.6103960 137.0207150  81.2230010  98.7170710 137.9210880  81.5298770
  97.6996320 136.9725120  80.9324660 108.2623070 136.1431960  82.6940910
 109.0832690 135.6528530  82.7366390 108.2957150 136.7329620  83.4472750
  96.2587120 138.9426160  86.4682600  96.9397230 139.2064530  87.0870000
  95.9435170 138.1027030  86.8020610 100.4511690 139.9893520  85.5555190
 100.9589910 140.4874490  86.1960210 100.9824930 139.2128720  85.3794550
 112.5522620 138.1598710  89.2584540 111.8474790 138.5480420  88.7399650
 112.8180540 138.8549000  89.8605470  98.7347790 134.6292080  89.8218610
  98.7366230 135.1464470  89.0164510  97.9052100 134.1522260  89.7988540
 105.1218880 144.7411390  81.3208510 104.5036150 145.2060840  80.7571230
 105.6342130 145.4338870  81.7378020  99.9850640 144.2687260  87.9992110
  99.6520020 144.8956180  88.6413180 100.1617320 144.7949140  87.2193780
 108.4984550 138.0832340  85.4668450 107.7940120 138.3717230  86.0471560
 108.8596710 138.8932450  85.1068010  98.4163120 136.3402040  87.8289060
  98.7579930 137.1844090  87.5342930  97.4778930 136.4885780  87.9454400
  99.1969740 146.2368060  89.8141290  99.8143740 146.9119140  89.5325740
  98.3362860 146.6456040  89.7228790  94.4902080 145.4267920  78.6948140
  94.1130060 145.9155020  77.9633040  94.7475150 146.0993200  79.3254670
 110.1147330 147.7007470  87.7295930 109.4310850 148.3706580  87.7212600
 110.6541620 147.8988120  86.9640790 111.5671470 137.5287130  85.8577660
 110.6196380 137.5626110  85.9893090 111.8921460 138.3426080  86.2427020
 102.0991010 133.8284310  84.1533650 102.4065990 133.2731200  83.4369150
 101.1691710 133.9628770  83.9706640 107.6506070 149.5451600  86.4441110
 107.6633230 149.1413890  85.5763370 107.0981290 150.3198890  86.3402540
 108.9451490 146.2667820  81.5331280 108.8347820 145.3242150  81.6580700
 108.9419740 146.6283460  82.4194040 107.0491510 144.4481440  87.7723720
 107.4660300 144.2341550  86.9377180 107.7731330 144.7054230  88.3432340
 104.4871770 141.8933140  80.8893770 103.5601050 141.8270520  81.1182240
 104.6396590 142.8313270  80.7749010 104.4740850 138.1650140  77.8860930
 103.5344520 138.3264100  77.9713390 104.7924110 138.8835820  77.3396920
 110.9953610 142.8468660  87.8639960 110.1672240 142.9161750  87.3890090
 111.5904090 143.4322970  87.3955790 108.5169060 143.4553440  81.3929020
 107.8981480 143.1172990  80.7455320 108.4993510 142.8113200  82.1008210
 107.9595620 139.6337980  88.8094830 107.5466800 140.4591690  89.0634820
 107.2271570 139.0483020  88.6171190 100.0928410 142.4197880  83.6713500
  99.6885410 141.7075130  83.1759400 100.1791530 142.0751120  84.5601540
 100.5610110 146.1065440  85.8352710 100.2638400 145.5010910  85.1560490
 101.5109930 146.1442750  85.7242070  98.8057030 139.1941090  87.4512540
  99.3571620 139.3036430  86.6765790  99.3200540 139.5678690  88.1667770
 108.6495720 149.6797310  89.4975810 108.1726280 150.4869500  89.3048420
 107.9657510 149.0275640  89.6502020  99.6528540 145.8447130  92.4860510
  98.7557070 146.0687100  92.7333910  99.6781410 145.9682070  91.5371910
 106.6933760 142.6940250  78.4001770 107.1327040 141.8562680  78.2539590
 107.4062180 143.3269650  78.4865910  98.4799760 142.7160450  91.0617880
  98.3407530 143.5883250  91.4305280  97.5981120 142.3733260  90.9165820
 104.8029140 147.6336320  82.3683010 105.2425050 148.3760650  81.9538400
 104.7416030 147.8762890  83.2921970 100.2780110 148.6582150  93.2703030
 100.2495540 149.0625100  92.4031460 100.1145080 147.7292510  93.1074630
 110.2750900 133.9483060  76.7142810 109.9623560 134.0409890  77.6141880
 111.0363370 134.5264090  76.6640240  96.7933040 141.3142860  81.1720150
  96.6730640 142.0404950  80.5601420  96.4833930 140.5445770  80.6948060
 112.2294930 149.4409250  94.5667200 112.7054650 149.9192140  95.2456280
 112.8502090 149.3726740  93.8412700  94.4318410 144.4858000  86.9788790
  94.5098830 144.6206770  86.0344510  95.0460090 143.7773890  87.1716910
  95.6766040 146.1858190  83.3894970  95.2694120 146.3272780  82.5348570
  96.5679050 145.9018350  83.1866180 111.6328180 146.6322100  91.7267210
 111.7591240 146.3933980  90.8084390 111.6749560 145.8006640  92.1989290
 105.4944920 150.3350100  90.2962020 106.0089590 150.2458110  91.0984450
 104.6514000 150.6809800  90.5889930 107.4699320 150.6205440  79.7246020
 107.3100460 150.3308380  80.6227850 107.3046030 149.8445570  79.1891250
  99.9487700 150.4003970  81.5017640  99.7730180 149.4839510  81.2885440
  99.0943440 150.7591260  81.7415440 107.1725450 148.1293000  78.2844020
 106.4790610 148.1270290  77.6246300 107.9148310 147.7052320  77.8538190
 106.7375380 149.7555710  82.3592510 107.1932330 148.9745090  82.6731130
 107.0767900 150.4662530  82.9033690 111.4852190 138.6854560  92.6916950
 110.8696460 139.1934230  92.1632410 111.1648610 137.7852890  92.6342890
  94.4877930 145.5272170  89.5183250  94.6508970 145.0577530  88.7002620
  94.9530380 145.0195730  90.1832090  99.2596700 134.6577930  84.5543820
  98.8164850 135.4387470  84.2228340  99.8181690 134.9807820  85.2614760
 103.5466510 137.5246450  90.1579140 103.0845880 137.7329470  90.9699080
 103.1444620 136.7105800  89.8549810 108.5471020 138.7455400  91.2875800
 107.6964610 138.4461150  91.6084870 108.3872810 138.9897410  90.3759620
 105.6420730 140.2457150  93.3874590 105.9674140 139.4120900  93.0476820
 106.4301060 140.7685670  93.5352920 102.3755520 134.2788630  79.4349650
 101.7509700 134.2748500  80.1602960 102.2885640 133.4119590  79.0385620
 101.2972600 135.2025260  86.4133420 101.5944930 136.1088090  86.3325440
 101.8458160 134.7144040  85.7992990  99.0510920 139.7811500  82.2825070
  98.8251840 139.5648670  83.1871690  98.2703450 140.2139960  81.9371040
 106.2808680 139.7874870  80.8815720 105.6817570 140.5110670  80.6979340
 106.8288290 139.7251650  80.0992170 101.4910130 140.6797080  92.9485340
 101.3953730 139.7391810  92.7985740 102.3342110 140.9012150  92.5533410
 104.8873550 138.4238410  82.9119000 105.2803120 138.7410610  82.0987690
 105.2490400 137.5450290  83.0263520  96.6220670 137.0910750  91.1019120
  96.2284060 137.9385960  91.3091900  95.9339070 136.4537120  91.2927760
 103.1965720 137.1745720  94.1715860 102.5064040 136.9817920  94.8061950
 103.9398020 137.4580360  94.7040160  93.9237720 135.0139210  85.1349200
  93.6350770 135.5842070  85.8474180  94.6683480 134.5343660  85.4980430
  94.1107950 138.9559330  76.3451920  94.0282620 139.8990090  76.4866910
  93.7591010 138.8134240  75.4664270 105.4728690 141.0144160  87.0069780
 104.7409810 141.5230970  87.3559880 105.0753030 140.1974140  86.7058560
 101.9106080 137.6898360  85.4122270 101.9142140 137.2488310  84.5626810
 102.8057200 138.0115690  85.5194090  97.7608460 137.5724850  84.3716480
  97.4208510 138.0500080  85.1283530  96.9985780 137.1189970  84.0117580
 101.9726230 138.6910440  78.4029030 102.0939050 138.6496920  79.3514850
 101.5874740 139.5534590  78.2475760 105.9354600 136.4677840  86.4192720
 105.9527340 136.9186490  87.2634570 105.6870180 135.5683480  86.6326160
 100.9847730 141.0011580  77.8012330 100.4164630 140.5529830  77.1748240
 101.6936730 141.3604360  77.2677480 109.3625350 133.8810020  92.2579100
 109.6871120 133.1499680  92.7837080 109.3981860 133.5623660  91.3560090
  96.0616910 144.9023600  91.6779060  95.6771700 144.2617270  92.2762020
  96.3729100 145.6059720  92.2473790 102.2114050 141.7500140  87.1587680
 102.5784180 141.2758710  87.9049020 102.0219110 142.6241710  87.4996020
  95.0754540 136.4943830  83.2881150  94.7901460 136.1299500  84.1259770
  95.0133400 135.7624290  82.6744290 100.0013420 140.7908780  89.4771890
  99.6970490 141.6700760  89.7022250 100.9559880 140.8508570  89.5129330
  98.5295210 144.9969770  80.0738740  97.7557470 144.4567390  79.9137460
  99.2589840 144.4776380  79.7356500 109.2883190 143.9935130  85.8665130
 110.0082310 144.4890420  85.4761240 109.0865010 143.3153020  85.2219000
 104.7493130 135.3873090  80.0094520 103.9357740 134.8886260  79.9339830
 104.5555080 136.2271340  79.5930870 104.6701990 144.0644190  91.7534130
 104.6039300 143.1439860  91.4991720 104.0407130 144.1619630  92.4678770
 107.4641520 139.7592740  78.3056680 108.3521140 140.0709970  78.1308020
 107.4346610 138.8864990  77.9137260  98.5732610 144.6650150  83.7117550
  99.0911280 143.8618410  83.6574440  98.1216630 144.6029290  84.5534380
 103.4602110 145.9316430  78.9844850 103.8017810 146.6758660  78.4888170
 102.6314820 146.2447550  79.3469680  96.0577150 141.6311520  90.6243250
  95.6992090 142.2965370  91.2116590  95.7631710 140.7995070  90.9955870
  99.2590270 142.0895760  93.5082800  98.9590410 142.2352940  92.6110620
 100.0301510 141.5301050  93.4156190 104.6018720 146.8864760  91.5037930
 104.6163260 145.9545720  91.2856840 103.8943820 146.9724520  92.1427700
 109.7355790 141.0704580  77.7736540 109.6519510 141.5018800  76.9232980
 110.4549980 141.5302930  78.2063360 110.8129930 143.5272100  90.8506510
 110.0878120 144.1200880  90.6535900 111.3405390 143.5195640  90.0519880
 110.7643040 147.9246840  80.5018670 110.1219200 147.2702460  80.7762390
 110.3773700 148.3301930  79.7259340 106.3429520 145.2532270  84.3490360
 106.6953340 144.6560400  83.6891730 105.4591850 144.9276500  84.5198610
 102.4292800 146.0129960  81.7560770 103.1163930 146.5599170  82.1368360
 101.6425220 146.5570690  81.7910380  94.5685200 141.6302780  77.2477850
  95.4380050 141.9127580  77.5313770  94.0775520 142.4438650  77.1326660
 101.7320010 143.0175990  81.3686130 102.1882790 143.8281240  81.5946320
 101.3808220 142.6999130  82.2004620 104.0352620 148.5282330  88.5978430
 104.6794840 148.7341710  89.2751850 104.3982060 147.7670730  88.1449280
  97.6331790 133.3613640  81.8408650  97.5046420 133.3531540  82.7893570
  96.8093810 133.6996730  81.4899660 105.3084700 146.5314680  87.3155880
 105.9506930 145.8307840  87.4288050 105.8334050 147.3113120  87.1352770
 109.1540420 146.8163300  77.0395020 108.9278000 146.0993740  77.6319660
 108.7636620 146.5675740  76.2016770 107.0822320 147.3309580  90.5191940
 107.4178560 147.9176270  91.1969860 106.1622660 147.2002290  90.7489730
  94.9356450 150.8430160  77.8139480  95.2954090 151.4419500  77.1596750
  94.7948790 151.3890050  78.5874510 108.7356670 144.7335240  78.7009180
 108.4478370 145.1947930  79.4887060 109.5308840 144.2733010  78.9693400
  94.9198310 149.1085020  92.2881880  95.0289430 148.1679760  92.1477270
  94.2678870 149.3739770  91.6395610 102.9110900 147.3800910  93.6880000
 102.5907770 146.6610150  94.2325690 102.2369260 148.0555980  93.7616060
 100.9525070 148.2261360  78.6313150 100.9435170 148.9591050  78.0157660
 100.0323430 147.9792940  78.7240110  96.5531710 143.4476250  79.3759910
  95.9459660 144.1875150  79.3855210  97.0281060 143.5375610  78.5498110
 106.1264500 137.6127070  89.0516800 106.4945320 136.7922280  89.3796370
 105.2662700 137.6728960  89.4672450 109.4926530 136.5684010  79.8604360
 108.8639690 136.6729680  79.1462590 108.9978450 136.7880790  80.6498240
 103.9384670 148.2889600  77.2938340 104.0396650 148.0853590  76.3640320
 103.0386410 148.0347880  77.4986120 101.4610560 138.8469960  81.2762240
 100.7526710 139.3156300  81.7175850 101.7455040 138.1891970  81.9107430
 103.0866490 140.2666660  89.2754770 103.5851740 140.7412480  89.9406620
 103.2289440 139.3430180  89.4824800 105.4925990 135.5720620  82.7158030
 105.3693770 135.5906750  81.7667540 106.4410550 135.6199560  82.8356430
 102.5802780 150.8075920  81.9886010 102.8344280 150.7697310  81.0665380
 101.6315260 150.6809250  81.9814260  99.6645580 137.1555040  78.6512950
 100.5136110 137.5925190  78.5853140  99.2976850 137.4675300  79.4785010
 110.2933350 136.4834620  90.1183160 109.7906950 137.2240020  90.4576970
 111.1090010 136.8718620  89.8019950 108.5855360 141.7267800  83.5644520
 107.6445500 141.7418030  83.7392210 108.8999430 140.9403760  84.0104820
  98.5637000 143.4087400  77.1248480  99.3300270 143.2968760  77.6873910
  98.6411690 142.7125370  76.4725250  97.2583760 140.8412470  77.8081370
  97.3387350 139.8939980  77.9198770  98.1503510 141.1719350  77.9142030
 110.5880940 148.8976650  85.2398780 110.7128360 149.7207820  85.7122590
 111.4546500 148.6867380  84.8922930  94.9443950 147.0581430  80.7857420
  94.0183730 147.3002570  80.7762830  95.4100380 147.8855690  80.6642170
  97.0656750 150.1753930  94.1001490  97.8669480 150.4965980  94.5136890
  96.5508570 149.8149510  94.8221400 101.1700780 150.1638170  76.7341480
 101.9629390 150.4527000  76.2823270 100.6505130 149.7330340  76.0553960
 105.9021380 146.2833800  94.0476900 105.2959540 146.3065400  93.3072650
 105.5975490 145.5516840  94.5844150 107.3321750 150.0114090  92.6586310
 108.2843500 149.9272110  92.6086550 107.1849970 150.6755800  93.3320100
 110.2230950 149.3908300  78.1578220 109.9372460 148.9773440  77.3432400
 110.0250500 150.3196010  78.0378740  94.7854560 142.6627390  93.0437540
  95.2893580 142.0834670  93.6153770  94.0461980 142.9467620  93.5813910
 101.6878180 145.3841580  76.5983830 101.5828820 144.7693930  77.3245210
 101.5202400 144.8607470  75.8146840 101.8392500 144.0698380  92.5773060
 101.0738170 144.6383380  92.4927730 102.0208460 143.7774590  91.6841290
 104.9280910 144.4461610  77.2025820 104.3791010 144.8930910  77.8468560
 105.5500170 143.9410860  77.7263490 108.9815850 145.8003710  93.1348080
 109.7225320 146.1379470  92.6315540 108.2188530 145.9695770  92.5817850
  96.8177640 140.8056980  93.9387610  96.8582980 140.5070850  94.8472840
  97.6723140 141.2064590  93.7795130 100.5956030 143.4052530  79.0991120
 101.0172450 143.2392400  79.9422510 100.7206870 142.5952760  78.6046260
  98.7583450 139.3849080  91.9062100  98.2279910 138.8940030  91.2785440
  99.4271520 139.8133280  91.3720030 103.1083670 142.4290140  76.3468220
 103.6289330 141.7139160  75.9809370 103.7552070 143.0676010  76.6468730
 107.6561510 143.8518540  91.6703290 108.0702530 144.0063620  92.5193710
 106.7212510 143.9773760  91.8329070 108.1283680 141.1914700  93.6742440
 108.7104450 140.4367020  93.5862920 108.3045450 141.7222140  92.8973920
  99.2455750 136.3511450  91.9859390  99.1512620 135.7332200  91.2610260
  98.6653140 137.0777740  91.7589300 102.0117190 134.9084690  89.0186780
 101.5634490 134.9308950  88.1732330 101.3782390 134.5103710  89.6157080
 102.4176740 143.8039020  89.6399220 102.8364850 144.6471750  89.4675460
 101.4985370 143.9411060  89.4106000 104.7540640 141.5355200  91.0237060
 104.8736850 140.9396340  91.7631900 105.6134640 141.5724890  90.6038360
 107.0928540 142.0892390  89.5999570 106.5663760 142.6135010  88.9964710
 107.4359880 142.7219780  90.2309300  99.4914930 139.4785760  76.0449280
  99.2903990 138.6153120  76.4062620  99.3206980 139.3919120  75.1070880
 100.2684160 150.1092030  90.7556950  99.7305250 150.8338090  90.4365650
 100.5218120 149.6322370  89.9654290 101.5209410 138.0776550  92.2812880
 102.1109100 137.7692400  92.9690700 100.7029650 137.6056300  92.4372780
 106.3402840 137.6942360  92.5145900 105.6518360 137.0323900  92.4495890
 107.0608860 137.2480630  92.9594360 106.9703240 134.2893990  78.5736160
 107.2505530 133.4461890  78.9295580 106.1968970 134.5217100  79.0874910
  98.2897730 136.5786380  76.0327160  98.5923630 136.5853810  75.1246310
  99.0292320 136.2284240  76.5294820 101.5082660 135.5221000  77.0183360
 101.1604660 134.8444990  76.4385810 101.7095430 135.0610510  77.8326750
 103.6731700 150.5101750  78.6369960 104.5682490 150.8486720  78.6588720
 103.7049330 149.7881160  78.0094240  97.3127860 145.8828800  76.8656960
  97.7502730 146.4258470  77.5214540  97.7975590 145.0575750  76.8753300
  94.5273660 148.6717830  84.3177220  94.8576670 147.8038890  84.0855860
  94.9564660 148.8776350  85.1482180  99.1235580 147.0026840  81.9779190
  98.8231120 146.8791810  82.8783100  99.0173070 146.1435430  81.5694920
  95.0163870 149.5388420  87.0558850  94.5794860 149.7189220  87.8883000
  95.5841550 150.2963040  86.9140570 110.6526050 149.0405420  91.3436160
 110.0528040 149.0997980  90.6000080 110.7819950 148.1010400  91.4733010
 111.8927500 146.7823240  76.6805870 111.0620460 146.8499890  77.1513100
 112.0699330 147.6727360  76.3772730 111.3483960 143.5270720  79.1840070
 112.1102870 144.0967370  79.2899760 111.3638330 142.9597920  79.9548380
  94.8488300 142.0508650  83.4147730  94.1937140 141.7820290  82.7707430
  95.6866250 141.9413130  82.9649710 112.3543930 144.3820820  84.0282000
 112.7252760 143.5988140  83.6217970 112.9945860 145.0709920  83.8499300
 109.3377690 145.7657400  89.4412320 108.5237530 146.1954560  89.7038110
 109.7451890 146.3775810  88.8281370 111.4003130 143.8205090  76.3412590
 111.6751970 144.7283970  76.2131810 111.2113870 143.7567620  77.2774580
 107.7978740 136.8449940  77.6366220 108.2163620 136.6580920  76.7962880
 107.4914800 135.9928990  77.9469150 111.2968470 141.7574080  81.3342020
 110.9212070 140.9902010  80.9023310 110.5671590 142.1396780  81.8216950
  95.8864230 142.4361220  87.9551070  96.2537270 142.3488620  88.8347090
  95.3175050 141.6727770  87.8557930 110.6868090 140.9045600  90.9681540
 110.4554180 140.6758350  90.0679490 110.9472640 141.8245150  90.9226430
  95.4380230 139.3470310  91.8609490  94.5436280 139.3137070  92.2003200
  95.9777780 139.5457100  92.6260740 109.1256160 136.1302030  93.7461240
 110.0026340 136.1385430  94.1295240 109.1377000 135.3932870  93.1353590
  94.0626380 139.2607580  79.3573060  93.1590460 139.5237780  79.1824720
  94.5467000 139.5318750  78.5773020 110.5719430 139.9831570  84.6349260
 111.0956910 139.4894220  84.0039430 111.1578850 140.1181930  85.3796830
 110.7509150 140.0671440  88.1568810 109.8011860 140.0334980  88.2713800
 110.9322160 140.9771550  87.9218580  96.6053590 138.3173120  77.2667440
  97.3145290 137.8956340  76.7814720  95.8893530 138.3848350  76.6350790
  96.2527750 134.3712450  76.3070090  96.9755880 134.9121390  76.6251310
  96.5252270 134.0975870  75.4311630 110.0619400 139.2404920  80.5741670
 110.5578520 139.0075790  81.3590550 109.8635470 138.4016760  80.1579310
 111.4906560 137.8765870  83.1079350 111.3805840 137.7221910  84.0461620
 112.2514150 137.3486810  82.8654760 109.8372280 133.8160000  89.5662350
 110.4744500 134.4294140  89.9321540 109.9847170 133.8520660  88.6211580
 112.3796830 135.7073790  76.3485490 113.3046140 135.5754970  76.1403780
 112.3572620 135.7866610  77.3021940 112.4535320 136.4784450  78.9742200
 111.6586820 136.4129570  79.5035110 112.6578600 137.4135090  78.9627550
 109.3953740 150.5176000  82.9680590 109.9912810 150.1960570  82.2915010
 109.6531890 150.0447820  83.7593860  97.3016310 146.9493910  93.1171220
  97.2585940 146.5786820  93.9985680  97.4327320 147.8871480  93.2573040
 101.0022340 148.5053500  88.7180940 100.7613700 148.7728060  87.8311460
 101.9424980 148.6759230  88.7731800 103.2076760 134.9686190  92.4737450
 103.1465650 135.5608020  93.2232860 104.1477140 134.8612150  92.3287710
 105.8451320 134.6256250  92.1129740 106.4591730 134.9435540  91.4510820
 106.3900880 134.1404840  92.7325600 112.2626500 150.5247880  89.5191580
 111.7684780 150.9216750  88.8018710 111.6539790 149.8997090  89.9128860
  97.1404340 149.8956160  90.2369000  96.5464660 149.7640860  90.9759040
  97.1328180 149.0594300  89.7711100 106.5859360 133.1888390  88.4399030
 105.7119200 133.5223500  88.2371960 106.4770110 132.7161570  89.2650900
 107.4931340 135.3959260  89.8240750 107.1644700 134.5811020  89.4442480
 108.4413640 135.3529070  89.7006440  96.7716570 147.2614540  89.1877040
  96.0450630 146.6419830  89.1202990  96.8325720 147.6555150  88.3175120
 100.3761670 149.4759540  85.9726450 100.8926690 148.8646900  85.4474710
 101.0259050 149.9788320  86.4637460 103.1157170 150.3668030  86.7995430
 103.4034980 150.1122330  85.9228440 103.6280390 149.8145390  87.3901000
 104.3334180 134.1058230  87.3791940 103.5505970 134.5803730  87.6588700
 104.0397110 133.2013060  87.2705120 108.8855250 134.8081330  85.4241030
 109.3263340 134.7526430  84.5762630 108.6162840 135.7239340  85.4951210
 110.7493820 134.4396570  83.4349850 110.6882220 133.4957790  83.2880870
 111.5285850 134.5476660  83.9803310  95.0546570 150.5788930  82.3973800
  94.8868610 149.9459610  83.0955690  94.1881080 150.7848330  82.0467990
  95.6774590 134.4105710  79.9005660  96.4353950 134.5234590  79.3269690
  95.2151760 135.2474910  79.8549090 102.2188400 136.5244980  82.8907970
 101.4062910 136.1501870  82.5503850 102.7230040 135.7690060  83.1929160
 106.7213380 133.1887430  84.1291040 107.3242750 133.7607640  84.6039560
 105.9806370 133.7526870  83.9064940 109.8647980 133.5908990  79.4031320
 110.0598610 134.4892440  79.6698750 109.0777850 133.3596070  79.8964270
  96.6609270 149.2722160  79.8423940  96.1356890 149.6530190  79.1385900
  96.5853850 149.8972930  80.5633650  98.0499740 134.9369760  78.4407630
  98.5792500 134.1499560  78.3115580  98.6828060 135.6160950  78.6743160
 100.2437580 134.6744900  81.4953020  99.6140320 133.9732210  81.6623150
  99.7042720 135.4349030  81.2786180 111.4174590 150.8309700  81.1637880
 111.5926780 150.1447440  80.5198800 110.7196160 151.3556750  80.7714550
 100.3693140 133.9528880  93.9305510 100.0877410 134.4562480  93.1666330
 100.7512840 133.1550630  93.5647640  99.2602240 151.2204540  78.7173190
  99.9921060 150.9363820  78.1697080  99.5195910 150.9817820  79.6072570
  98.4217030 147.3369270  78.7219520  97.7925910 147.8054370  79.2705350
  98.5364860 146.4918490  79.1565710 106.9708600 133.3682460  94.5085980
 106.8574050 133.6877070  95.4037500 107.7878340 133.7694970  94.2123260
 109.7507090 150.5153990  93.9904670 110.5432410 150.0203220  93.7830630
 110.0440240 151.1944130  94.5980280 105.8766750 141.3874930  64.8720720
 105.7960800 140.4729540  64.6012430 105.4631170 141.8842000  64.1660430
 104.0084790 143.1653950  66.7529990 103.2326890 142.6854390  67.0428560
 104.6597720 142.4859600  66.5786150  98.0250620 143.4773760  67.6305750
  97.1935500 143.2222470  68.0302260  98.6331600 143.5484530  68.3663670
 108.0292220 147.5714140  65.5329120 107.5673750 146.8001380  65.8616290
 108.8417770 147.5980210  66.0381570  98.0051880 147.5113850  67.8263770
  98.3079920 146.6211590  67.6473990  98.7495470 148.0684070  67.5986020
  96.4342570 138.4375650  61.4148140  95.5459270 138.7791620  61.3128020
  96.7183760 138.2375970  60.5228970  94.3975580 141.0381300  67.2987840
  94.9691690 140.2703500  67.2991480  94.3977120 141.3370060  66.3894450
 104.2555530 149.8572150  65.1533110 103.6366970 150.3129650  64.5827550
 105.1107310 150.0123610  64.7522810 103.4493780 145.8411140  66.7600150
 103.3802060 144.9001080  66.5989280 104.2113640 145.9312550  67.3322720
 104.4798950 138.6481520  66.9869080 104.8563770 137.7753400  66.8742750
 104.3818460 138.9840220  66.0959520  98.6103960 137.0207150  62.4486520
  98.7170710 137.9210880  62.7555280  97.6996320 136.9725120  62.1581170
 108.2623070 136.1431960  63.9197420 109.0832690 135.6528530  63.9622900
 108.2957150 136.7329620  64.6729260  96.2587120 138.9426160  67.6939110
  96.9397230 139.2064530  68.3126510  95.9435170 138.1027030  68.0277120
 100.4511690 139.9893520  66.7811700 100.9589910 140.4874490  67.4216720
 100.9824930 139.2128720  66.6051060 112.5522620 138.1598710  70.4841050
 111.8474790 138.5480420  69.9656160 112.8180540 138.8549000  71.0861980
  98.7347790 134.6292080  71.0475120  98.7366230 135.1464470  70.2421020
  97.9052100 134.1522260  71.0245050 105.1218880 144.7411390  62.5465020
 104.5036150 145.2060840  61.9827740 105.6342130 145.4338870  62.9634530
  99.9850640 144.2687260  69.2248620  99.6520020 144.8956180  69.8669690
 100.1617320 144.7949140  68.4450290 108.4984550 138.0832340  66.6924960
 107.7940120 138.3717230  67.2728070 108.8596710 138.8932450  66.3324520
  98.4163120 136.3402040  69.0545570  98.7579930 137.1844090  68.7599440
  97.4778930 136.4885780  69.1710910  99.1969740 146.2368060  71.0397800
  99.8143740 146.9119140  70.7582250  98.3362860 146.6456040  70.9485300
  94.4902080 145.4267920  59.9204650  94.1130060 145.9155020  59.1889550
  94.7475150 146.0993200  60.5511180 110.1147330 147.7007470  68.9552440
 109.4310850 148.3706580  68.9469110 110.6541620 147.8988120  68.1897300
 111.5671470 137.5287130  67.0834170 110.6196380 137.5626110  67.2149600
 111.8921460 138.3426080  67.4683530 102.0991010 133.8284310  65.3790160
 102.4065990 133.2731200  64.6625660 101.1691710 133.9628770  65.1963150
 107.6506070 149.5451600  67.6697620 107.6633230 149.1413890  66.8019880
 107.0981290 150.3198890  67.5659050 108.9451490 146.2667820  62.7587790
 108.8347820 145.3242150  62.8837210 108.9419740 146.6283460  63.6450550
 107.0491510 144.4481440  68.9980230 107.4660300 144.2341550  68.1633690
 107.7731330 144.7054230  69.5688850 104.4871770 141.8933140  62.1150280
 103.5601050 141.8270520  62.3438750 104.6396590 142.8313270  62.0005520
 104.4740850 138.1650140  59.1117440 103.5344520 138.3264100  59.1969900
 104.7924110 138.8835820  58.5653430 110.9953610 142.8468660  69.0896470
 110.1672240 142.9161750  68.6146600 111.5904090 143.4322970  68.6212300
 108.5169060 143.4553440  62.6185530 107.8981480 143.1172990  61.9711830
 108.4993510 142.8113200  63.3264720 107.9595620 139.6337980  70.0351340
 107.5466800 140.4591690  70.2891330 107.2271570 139.0483020  69.8427700
 100.0928410 142.4197880  64.8970010  99.6885410 141.7075130  64.4015910
 100.1791530 142.0751120  65.7858050 100.5610110 146.1065440  67.0609220
 100.2638400 145.5010910  66.3817000 101.5109930 146.1442750  66.9498580
  98.8057030 139.1941090  68.6769050  99.3571620 139.3036430  67.9022300
  99.3200540 139.5678690  69.3924280 108.6495720 149.6797310  70.7232320
 108.1726280 150.4869500  70.5304930 107.9657510 149.0275640  70.8758530
  99.6528540 145.8447130  73.7117020  98.7557070 146.0687100  73.9590420
  99.6781410 145.9682070  72.7628420 106.6933760 142.6940250  59.6258280
 107.1327040 141.8562680  59.4796100 107.4062180 143.3269650  59.7122420
  98.4799760 142.7160450  72.2874390  98.3407530 143.5883250  72.6561790
  97.5981120 142.3733260  72.1422330 104.8029140 147.6336320  63.5939520
 105.2425050 148.3760650  63.1794910 104.7416030 147.8762890  64.5178480
 100.2780110 148.6582150  74.4959540 100.2495540 149.0625100  73.6287970
 100.1145080 147.7292510  74.3331140 110.2750900 133.9483060  57.9399320
 109.9623560 134.0409890  58.8398390 111.0363370 134.5264090  57.8896750
  96.7933040 141.3142860  62.3976660  96.6730640 142.0404950  61.7857930
  96.4833930 140.5445770  61.9204570 112.2294930 149.4409250  75.7923710
 112.7054650 149.9192140  76.4712790 112.8502090 149.3726740  75.0669210
  94.4318410 144.4858000  68.2045300  94.5098830 144.6206770  67.2601020
  95.0460090 143.7773890  68.3973420  95.6766040 146.1858190  64.6151480
  95.2694120 146.3272780  63.7605080  96.5679050 145.9018350  64.4122690
 111.6328180 146.6322100  72.9523720 111.7591240 146.3933980  72.0340900
 111.6749560 145.8006640  73.4245800 105.4944920 150.3350100  71.5218530
 106.0089590 150.2458110  72.3240960 104.6514000 150.6809800  71.8146440
 107.4699320 150.6205440  60.9502530 107.3100460 150.3308380  61.8484360
 107.3046030 149.8445570  60.4147760  99.9487700 150.4003970  62.7274150
  99.7730180 149.4839510  62.5141950  99.0943440 150.7591260  62.9671950
 107.1725450 148.1293000  59.5100530 106.4790610 148.1270290  58.8502810
 107.9148310 147.7052320  59.0794700 106.7375380 149.7555710  63.5849020
 107.1932330 148.9745090  63.8987640 107.0767900 150.4662530  64.1290200
 111.4852190 138.6854560  73.9173460 110.8696460 139.1934230  73.3888920
 111.1648610 137.7852890  73.8599400  94.4877930 145.5272170  70.7439760
  94.6508970 145.0577530  69.9259130  94.9530380 145.0195730  71.4088600
  99.2596700 134.6577930  65.7800330  98.8164850 135.4387470  65.4484850
  99.8181690 134.9807820  66.4871270 103.5466510 137.5246450  71.3835650
 103.0845880 137.7329470  72.1955590 103.1444620 136.7105800  71.0806320
 108.5471020 138.7455400  72.5132310 107.6964610 138.4461150  72.8341380
 108.3872810 138.9897410  71.6016130 105.6420730 140.2457150  74.6131100
 105.9674140 139.4120900  74.2733330 106.4301060 140.7685670  74.7609430
 102.3755520 134.2788630  60.6606160 101.7509700 134.2748500  61.3859470
 102.2885640 133.4119590  60.2642130 101.2972600 135.2025260  67.6389930
 101.5944930 136.1088090  67.5581950 101.8458160 134.7144040  67.0249500
  99.0510920 139.7811500  63.5081580  98.8251840 139.5648670  64.4128200
  98.2703450 140.2139960  63.1627550 106.2808680 139.7874870  62.1072230
 105.6817570 140.5110670  61.9235850 106.8288290 139.7251650  61.3248680
 101.4910130 140.6797080  74.1741850 101.3953730 139.7391810  74.0242250
 102.3342110 140.9012150  73.7789920 104.8873550 138.4238410  64.1375510
 105.2803120 138.7410610  63.3244200 105.2490400 137.5450290  64.2520030
 103.1965720 137.1745720  75.3972370 102.5064040 136.9817920  76.0318460
 103.9398020 137.4580360  75.9296670  93.9237720 135.0139210  66.3605710
  93.6350770 135.5842070  67.0730690  94.6683480 134.5343660  66.7236940
  94.1107950 138.9559330  57.5708430  94.0282620 139.8990090  57.7123420
  93.7591010 138.8134240  56.6920780 105.4728690 141.0144160  68.2326290
 104.7409810 141.5230970  68.5816390 105.0753030 140.1974140  67.9315070
 101.9106080 137.6898360  66.6378780 101.9142140 137.2488310  65.7883320
 102.8057200 138.0115690  66.7450600  97.7608460 137.5724850  65.5972990
  97.4208510 138.0500080  66.3540040  96.9985780 137.1189970  65.2374090
 101.9726230 138.6910440  59.6285540 102.0939050 138.6496920  60.5771360
 101.5874740 139.5534590  59.4732270 105.9354600 136.4677840  67.6449230
 105.9527340 136.9186490  68.4891080 105.6870180 135.5683480  67.8582670
 100.9847730 141.0011580  59.0268840 100.4164630 140.5529830  58.4004750
 101.6936730 141.3604360  58.4933990 109.3625350 133.8810020  73.4835610
 109.6871120 133.1499680  74.0093590 109.3981860 133.5623660  72.5816600
  96.0616910 144.9023600  72.9035570  95.6771700 144.2617270  73.5018530
  96.3729100 145.6059720  73.4730300 102.2114050 141.7500140  68.3844190
 102.5784180 141.2758710  69.1305530 102.0219110 142.6241710  68.7252530
  95.0754540 136.4943830  64.5137660  94.7901460 136.1299500  65.3516280
  95.0133400 135.7624290  63.9000800 100.0013420 140.7908780  70.7028400
  99.6970490 141.6700760  70.9278760 100.9559880 140.8508570  70.7385840
  98.5295210 144.9969770  61.2995250  97.7557470 144.4567390  61.1393970
  99.2589840 144.4776380  60.9613010 109.2883190 143.9935130  67.0921640
 110.0082310 144.4890420  66.7017750 109.0865010 143.3153020  66.4475510
 104.7493130 135.3873090  61.2351030 103.9357740 134.8886260  61.1596340
 104.5555080 136.2271340  60.8187380 104.6701990 144.0644190  72.9790640
 104.6039300 143.1439860  72.7248230 104.0407130 144.1619630  73.6935280
 107.4641520 139.7592740  59.5313190 108.3521140 140.0709970  59.3564530
 107.4346610 138.8864990  59.1393770  98.5732610 144.6650150  64.9374060
  99.0911280 143.8618410  64.8830950  98.1216630 144.6029290  65.7790890
 103.4602110 145.9316430  60.2101360 103.8017810 146.6758660  59.7144680
 102.6314820 146.2447550  60.5726190  96.0577150 141.6311520  71.8499760
  95.6992090 142.2965370  72.4373100  95.7631710 140.7995070  72.2212380
  99.2590270 142.0895760  74.7339310  98.9590410 142.2352940  73.8367130
 100.0301510 141.5301050  74.6412700 104.6018720 146.8864760  72.7294440
 104.6163260 145.9545720  72.5113350 103.8943820 146.9724520  73.3684210
 109.7355790 141.0704580  58.9993050 109.6519510 141.5018800  58.1489490
 110.4549980 141.5302930  59.4319870 110.8129930 143.5272100  72.0763020
 110.0878120 144.1200880  71.8792410 111.3405390 143.5195640  71.2776390
 110.7643040 147.9246840  61.7275180 110.1219200 147.2702460  62.0018900
 110.3773700 148.3301930  60.9515850 106.3429520 145.2532270  65.5746870
 106.6953340 144.6560400  64.9148240 105.4591850 144.9276500  65.7455120
 102.4292800 146.0129960  62.9817280 103.1163930 146.5599170  63.3624870
 101.6425220 146.5570690  63.0166890  94.5685200 141.6302780  58.4734360
  95.4380050 141.9127580  58.7570280  94.0775520 142.4438650  58.3583170
 101.7320010 143.0175990  62.5942640 102.1882790 143.8281240  62.8202830
 101.3808220 142.6999130  63.4261130 104.0352620 148.5282330  69.8234940
 104.6794840 148.7341710  70.5008360 104.3982060 147.7670730  69.3705790
  97.6331790 133.3613640  63.0665160  97.5046420 133.3531540  64.0150080
  96.8093810 133.6996730  62.7156170 105.3084700 146.5314680  68.5412390
 105.9506930 145.8307840  68.6544560 105.8334050 147.3113120  68.3609280
 109.1540420 146.8163300  58.2651530 108.9278000 146.0993740  58.8576170
 108.7636620 146.5675740  57.4273280 107.0822320 147.3309580  71.7448450
 107.4178560 147.9176270  72.4226370 106.1622660 147.2002290  71.9746240
  94.9356450 150.8430160  59.0395990  95.2954090 151.4419500  58.3853260
  94.7948790 151.3890050  59.8131020 108.7356670 144.7335240  59.9265690
 108.4478370 145.1947930  60.7143570 109.5308840 144.2733010  60.1949910
  94.9198310 149.1085020  73.5138390  95.0289430 148.1679760  73.3733780
  94.2678870 149.3739770  72.8652120 102.9110900 147.3800910  74.9136510
 102.5907770 146.6610150  75.4582200 102.2369260 148.0555980  74.9872570
 100.9525070 148.2261360  59.8569660 100.9435170 148.9591050  59.2414170
 100.0323430 147.9792940  59.9496620  96.5531710 143.4476250  60.6016420
  95.9459660 144.1875150  60.6111720  97.0281060 143.5375610  59.7754620
 106.1264500 137.6127070  70.2773310 106.4945320 136.7922280  70.6052880
 105.2662700 137.6728960  70.6928960 109.4926530 136.5684010  61.0860870
 108.8639690 136.6729680  60.3719100 108.9978450 136.7880790  61.8754750
 103.9384670 148.2889600  58.5194850 104.0396650 148.0853590  57.5896830
 103.0386410 148.0347880  58.7242630 101.4610560 138.8469960  62.5018750
 100.7526710 139.3156300  62.9432360 101.7455040 138.1891970  63.1363940
 103.0866490 140.2666660  70.5011280 103.5851740 140.7412480  71.1663130
 103.2289440 139.3430180  70.7081310 105.4925990 135.5720620  63.9414540
 105.3693770 135.5906750  62.9924050 106.4410550 135.6199560  64.0612940
 102.5802780 150.8075920  63.2142520 102.8344280 150.7697310  62.2921890
 101.6315260 150.6809250  63.2070770  99.6645580 137.1555040  59.8769460
 100.5136110 137.5925190  59.8109650  99.2976850 137.4675300  60.7041520
 110.2933350 136.4834620  71.3439670 109.7906950 137.2240020  71.6833480
 111.1090010 136.8718620  71.0276460 108.5855360 141.7267800  64.7901030
 107.6445500 141.7418030  64.9648720 108.8999430 140.9403760  65.2361330
  98.5637000 143.4087400  58.3504990  99.3300270 143.2968760  58.9130420
  98.6411690 142.7125370  57.6981760  97.2583760 140.8412470  59.0337880
  97.3387350 139.8939980  59.1455280  98.1503510 141.1719350  59.1398540
 110.5880940 148.8976650  66.4655290 110.7128360 149.7207820  66.9379100
 111.4546500 148.6867380  66.1179440  94.9443950 147.0581430  62.0113930
  94.0183730 147.3002570  62.0019340  95.4100380 147.8855690  61.8898680
  97.0656750 150.1753930  75.3258000  97.8669480 150.4965980  75.7393400
  96.5508570 149.8149510  76.0477910 101.1700780 150.1638170  57.9597990
 101.9629390 150.4527000  57.5079780 100.6505130 149.7330340  57.2810470
 105.9021380 146.2833800  75.2733410 105.2959540 146.3065400  74.5329160
 105.5975490 145.5516840  75.8100660 107.3321750 150.0114090  73.8842820
 108.2843500 149.9272110  73.8343060 107.1849970 150.6755800  74.5576610
 110.2230950 149.3908300  59.3834730 109.9372460 148.9773440  58.5688910
 110.0250500 150.3196010  59.2635250  94.7854560 142.6627390  74.2694050
  95.2893580 142.0834670  74.8410280  94.0461980 142.9467620  74.8070420
 101.6878180 145.3841580  57.8240340 101.5828820 144.7693930  58.5501720
 101.5202400 144.8607470  57.0403350 101.8392500 144.0698380  73.8029570
 101.0738170 144.6383380  73.7184240 102.0208460 143.7774590  72.9097800
 104.9280910 144.4461610  58.4282330 104.3791010 144.8930910  59.0725070
 105.5500170 143.9410860  58.9520000 108.9815850 145.8003710  74.3604590
 109.7225320 146.1379470  73.8572050 108.2188530 145.9695770  73.8074360
  96.8177640 140.8056980  75.1644120  96.8582980 140.5070850  76.0729350
  97.6723140 141.2064590  75.0051640 100.5956030 143.4052530  60.3247630
 101.0172450 143.2392400  61.1679020 100.7206870 142.5952760  59.8302770
  98.7583450 139.3849080  73.1318610  98.2279910 138.8940030  72.5041950
  99.4271520 139.8133280  72.5976540 103.1083670 142.4290140  57.5724730
 103.6289330 141.7139160  57.2065880 103.7552070 143.0676010  57.8725240
 107.6561510 143.8518540  72.8959800 108.0702530 144.0063620  73.7450220
 106.7212510 143.9773760  73.0585580 108.1283680 141.1914700  74.8998950
 108.7104450 140.4367020  74.8119430 108.3045450 141.7222140  74.1230430
  99.2455750 136.3511450  73.2115900  99.1512620 135.7332200  72.4866770
  98.6653140 137.0777740  72.9845810 102.0117190 134.9084690  70.2443290
 101.5634490 134.9308950  69.3988840 101.3782390 134.5103710  70.8413590
 102.4176740 143.8039020  70.8655730 102.8364850 144.6471750  70.6931970
 101.4985370 143.9411060  70.6362510 104.7540640 141.5355200  72.2493570
 104.8736850 140.9396340  72.9888410 105.6134640 141.5724890  71.8294870
 107.0928540 142.0892390  70.8256080 106.5663760 142.6135010  70.2221220
 107.4359880 142.7219780  71.4565810  99.4914930 139.4785760  57.2705790
  99.2903990 138.6153120  57.6319130  99.3206980 139.3919120  56.3327390
 100.2684160 150.1092030  71.9813460  99.7305250 150.8338090  71.6622160
 100.5218120 149.6322370  71.1910800 101.5209410 138.0776550  73.5069390
 102.1109100 137.7692400  74.1947210 100.7029650 137.6056300  73.6629290
 106.3402840 137.6942360  73.7402410 105.6518360 137.0323900  73.6752400
 107.0608860 137.2480630  74.1850870 106.9703240 134.2893990  59.7992670
 107.2505530 133.4461890  60.1552090 106.1968970 134.5217100  60.3131420
  98.2897730 136.5786380  57.2583670  98.5923630 136.5853810  56.3502820
  99.0292320 136.2284240  57.7551330 101.5082660 135.5221000  58.2439870
 101.1604660 134.8444990  57.6642320 101.7095430 135.0610510  59.0583260
 103.6731700 150.5101750  59.8626470 104.5682490 150.8486720  59.8845230
 103.7049330 149.7881160  59.2350750  97.3127860 145.8828800  58.0913470
  97.7502730 146.4258470  58.7471050  97.7975590 145.0575750  58.1009810
  94.5273660 148.6717830  65.5433730  94.8576670 147.8038890  65.3112370
  94.9564660 148.8776350  66.3738690  99.1235580 147.0026840  63.2035700
  98.8231120 146.8791810  64.1039610  99.0173070 146.1435430  62.7951430
  95.0163870 149.5388420  68.2815360  94.5794860 149.7189220  69.1139510
  95.5841550 150.2963040  68.1397080 110.6526050 149.0405420  72.5692670
 110.0528040 149.0997980  71.8256590 110.7819950 148.1010400  72.6989520
 111.8927500 146.7823240  57.9062380 111.0620460 146.8499890  58.3769610
 112.0699330 147.6727360  57.6029240 111.3483960 143.5270720  60.4096580
 112.1102870 144.0967370  60.5156270 111.3638330 142.9597920  61.1804890
  94.8488300 142.0508650  64.6404240  94.1937140 141.7820290  63.9963940
  95.6866250 141.9413130  64.1906220 112.3543930 144.3820820  65.2538510
 112.7252760 143.5988140  64.8474480 112.9945860 145.0709920  65.0755810
 109.3377690 145.7657400  70.6668830 108.5237530 146.1954560  70.9294620
 109.7451890 146.3775810  70.0537880 111.4003130 143.8205090  57.5669100
 111.6751970 144.7283970  57.4388320 111.2113870 143.7567620  58.5031090
 107.7978740 136.8449940  58.8622730 108.2163620 136.6580920  58.0219390
 107.4914800 135.9928990  59.1725660 111.2968470 141.7574080  62.5598530
 110.9212070 140.9902010  62.1279820 110.5671590 142.1396780  63.0473460
  95.8864230 142.4361220  69.1807580  96.2537270 142.3488620  70.0603600
  95.3175050 141.6727770  69.0814440 110.6868090 140.9045600  72.1938050
 110.4554180 140.6758350  71.2936000 110.9472640 141.8245150  72.1482940
 109.1256160 136.1302030  74.9717750 110.0026340 136.1385430  75.3551750
 109.1377000 135.3932870  74.3610100  94.0626380 139.2607580  60.5829570
  93.1590460 139.5237780  60.4081230  94.5467000 139.5318750  59.8029530
 110.5719430 139.9831570  65.8605770 111.0956910 139.4894220  65.2295940
 111.1578850 140.1181930  66.6053340 110.7509150 140.0671440  69.3825320
 109.8011860 140.0334980  69.4970310 110.9322160 140.9771550  69.1475090
  96.6053590 138.3173120  58.4923950  97.3145290 137.8956340  58.0071230
  95.8893530 138.3848350  57.8607300  96.2527750 134.3712450  57.5326600
  96.9755880 134.9121390  57.8507820  96.5252270 134.0975870  56.6568140
 110.0619400 139.2404920  61.7998180 110.5578520 139.0075790  62.5847060
 109.8635470 138.4016760  61.3835820  95.9419940 133.6218640  67.4349220
  96.5896130 133.0716020  66.9944380  96.3621780 133.8761790  68.2565030
 111.4906560 137.8765870  64.3335860 111.3805840 137.7221910  65.2718130
 112.2514150 137.3486810  64.0911270 109.8372280 133.8160000  70.7918860
 110.4744500 134.4294140  71.1578050 109.9847170 133.8520660  69.8468090
 112.3796830 135.7073790  57.5742000 113.3046140 135.5754970  57.3660290
 112.3572620 135.7866610  58.5278450 112.4535320 136.4784450  60.1998710
 111.6586820 136.4129570  60.7291620 112.6578600 137.4135090  60.1884060
 109.3953740 150.5176000  64.1937100 109.9912810 150.1960570  63.5171520
 109.6531890 150.0447820  64.9850370  97.3016310 146.9493910  74.3427730
  97.2585940 146.5786820  75.2242190  97.4327320 147.8871480  74.4829550
 101.0022340 148.5053500  69.9437450 100.7613700 148.7728060  69.0567970
 101.9424980 148.6759230  69.9988310 103.2076760 134.9686190  73.6993960
 103.1465650 135.5608020  74.4489370 104.1477140 134.8612150  73.5544220
 105.8451320 134.6256250  73.3386250 106.4591730 134.9435540  72.6767330
 106.3900880 134.1404840  73.9582110 112.2626500 150.5247880  70.7448090
 111.7684780 150.9216750  70.0275220 111.6539790 149.8997090  71.1385370
  97.1404340 149.8956160  71.4625510  96.5464660 149.7640860  72.2015550
  97.1328180 149.0594300  70.9967610 106.5859360 133.1888390  69.6655540
 105.7119200 133.5223500  69.4628470 106.4770110 132.7161570  70.4907410
 107.4931340 135.3959260  71.0497260 107.1644700 134.5811020  70.6698990
 108.4413640 135.3529070  70.9262950  96.7716570 147.2614540  70.4133550
  96.0450630 146.6419830  70.3459500  96.8325720 147.6555150  69.5431630
 100.3761670 149.4759540  67.1982960 100.8926690 148.8646900  66.6731220
 101.0259050 149.9788320  67.6893970 103.1157170 150.3668030  68.0251940
 103.4034980 150.1122330  67.1484950 103.6280390 149.8145390  68.6157510
 104.3334180 134.1058230  68.6048450 103.5505970 134.5803730  68.8845210
 104.0397110 133.2013060  68.4961630 108.8855250 134.8081330  66.6497540
 109.3263340 134.7526430  65.8019140 108.6162840 135.7239340  66.7207720
 110.7493820 134.4396570  64.6606360 110.6882220 133.4957790  64.5137380
 111.5285850 134.5476660  65.2059820  95.0546570 150.5788930  63.6230310
  94.8868610 149.9459610  64.3212200  94.1881080 150.7848330  63.2724500
  95.6774590 134.4105710  61.1262170  96.4353950 134.5234590  60.5526200
  95.2151760 135.2474910  61.0805600 102.2188400 136.5244980  64.1164480
 101.4062910 136.1501870  63.7760360 102.7230040 135.7690060  64.4185670
 106.7213380 133.1887430  65.3547550 107.3242750 133.7607640  65.8296070
 105.9806370 133.7526870  65.1321450 109.8647980 133.5908990  60.6287830
 110.0598610 134.4892440  60.8955260 109.0777850 133.3596070  61.1220780
  96.6609270 149.2722160  61.0680450  96.1356890 149.6530190  60.3642410
  96.5853850 149.8972930  61.7890160  98.0499740 134.9369760  59.6664140
  98.5792500 134.1499560  59.5372090  98.6828060 135.6160950  59.8999670
 100.2437580 134.6744900  62.7209530  99.6140320 133.9732210  62.8879660
  99.7042720 135.4349030  62.5042690 111.4174590 150.8309700  62.3894390
 111.5926780 150.1447440  61.7455310 110.7196160 151.3556750  61.9971060
 100.3693140 133.9528880  75.1562020 100.0877410 134.4562480  74.3922840
 100.7512840 133.1550630  74.7904150  99.2602240 151.2204540  59.9429700
  99.9921060 150.9363820  59.3953590  99.5195910 150.9817820  60.8329080
  98.4217030 147.3369270  59.9476030  97.7925910 147.8054370  60.4961860
  98.5364860 146.4918490  60.3822220 106.9708600 133.3682460  75.7342490
 106.8574050 133.6877070  76.6294010 107.7878340 133.7694970  75.4379770
 109.7507090 150.5153990  75.2161180 110.5432410 150.0203220  75.0087140
 110.0440240 151.1944130  75.8236790 105.8766750 141.3874930  46.0977230
 105.7960800 140.4729540  45.8268940 105.4631170 141.8842000  45.3916940
 104.0084790 143.1653950  47.9786500 103.2326890 142.6854390  48.2685070
 104.6597720 142.4859600  47.8042660  98.0250620 143.4773760  48.8562260
  97.1935500 143.2222470  49.2558770  98.6331600 143.5484530  49.5920180
 108.0292220 147.5714140  46.7585630 107.5673750 146.8001380  47.0872800
 108.8417770 147.5980210  47.2638080  98.0051880 147.5113850  49.0520280
  98.3079920 146.6211590  48.8730500  98.7495470 148.0684070  48.8242530
  96.4342570 138.4375650  42.6404650  95.5459270 138.7791620  42.5384530
  96.7183760 138.2375970  41.7485480  94.3975580 141.0381300  48.5244350
  94.9691690 140.2703500  48.5247990  94.3977120 141.3370060  47.6150960
 104.2555530 149.8572150  46.3789620 103.6366970 150.3129650  45.8084060
 105.1107310 150.0123610  45.9779320 103.4493780 145.8411140  47.9856660
 103.3802060 144.9001080  47.8245790 104.2113640 145.9312550  48.5579230
  95.6400450 136.4465660  50.3113280  95.4603290 135.5491410  50.5916040
  95.2380530 136.9937530  50.9860230 104.4798950 138.6481520  48.2125590
 104.8563770 137.7753400  48.0999260 104.3818460 138.9840220  47.3216030
  98.6103960 137.0207150  43.6743030  98.7170710 137.9210880  43.9811790
  97.6996320 136.9725120  43.3837680 108.2623070 136.1431960  45.1453930
 109.0832690 135.6528530  45.1879410 108.2957150 136.7329620  45.8985770
  96.2587120 138.9426160  48.9195620  96.9397230 139.2064530  49.5383020
  95.9435170 138.1027030  49.2533630 100.4511690 139.9893520  48.0068210
 100.9589910 140.4874490  48.6473230 100.9824930 139.2128720  47.8307570
 112.5522620 138.1598710  51.7097560 111.8474790 138.5480420  51.1912670
 112.8180540 138.8549000  52.3118490  98.7347790 134.6292080  52.2731630
  98.7366230 135.1464470  51.4677530  97.9052100 134.1522260  52.2501560
 105.1218880 144.7411390  43.7721530 104.5036150 145.2060840  43.2084250
 105.6342130 145.4338870  44.1891040  99.9850640 144.2687260  50.4505130
  99.6520020 144.8956180  51.0926200 100.1617320 144.7949140  49.6706800
 108.4984550 138.0832340  47.9181470 107.7940120 138.3717230  48.4984580
 108.8596710 138.8932450  47.5581030  98.4163120 136.3402040  50.2802080
  98.7579930 137.1844090  49.9855950  97.4778930 136.4885780  50.3967420
  99.1969740 146.2368060  52.2654310  99.8143740 146.9119140  51.9838760
  98.3362860 146.6456040  52.1741810  94.4902080 145.4267920  41.1461160
  94.1130060 145.9155020  40.4146060  94.7475150 146.0993200  41.7767690
 110.1147330 147.7007470  50.1808950 109.4310850 148.3706580  50.1725620
 110.6541620 147.8988120  49.4153810 111.5671470 137.5287130  48.3090680
 110.6196380 137.5626110  48.4406110 111.8921460 138.3426080  48.6940040
 102.0991010 133.8284310  46.6046670 102.4065990 133.2731200  45.8882170
 101.1691710 133.9628770  46.4219660 107.6506070 149.5451600  48.8954130
 107.6633230 149.1413890  48.0276390 107.0981290 150.3198890  48.7915560
 108.9451490 146.2667820  43.9844300 108.8347820 145.3242150  44.1093720
 108.9419740 146.6283460  44.8707060 107.0491510 144.4481440  50.2236740
 107.4660300 144.2341550  49.3890200 107.7731330 144.7054230  50.7945360
 104.4871770 141.8933140  43.3406790 103.5601050 141.8270520  43.5695260
 104.6396590 142.8313270  43.2262030 104.4740850 138.1650140  40.3373950
 103.5344520 138.3264100  40.4226410 104.7924110 138.8835820  39.7909940
 110.9953610 142.8468660  50.3152980 110.1672240 142.9161750  49.8403110
 111.5904090 143.4322970  49.8468810 108.5169060 143.4553440  43.8442040
 107.8981480 143.1172990  43.1968340 108.4993510 142.8113200  44.5521230
 107.9595620 139.6337980  51.2607850 107.5466800 140.4591690  51.5147840
 107.2271570 139.0483020  51.0684210 100.0928410 142.4197880  46.1226520
  99.6885410 141.7075130  45.6272420 100.1791530 142.0751120  47.0114560
 100.5610110 146.1065440  48.2865730 100.2638400 145.5010910  47.6073510
 101.5109930 146.1442750  48.1755090  98.8057030 139.1941090  49.9025560
  99.3571620 139.3036430  49.1278810  99.3200540 139.5678690  50.6180790
 108.6495720 149.6797310  51.9488830 108.1726280 150.4869500  51.7561440
 107.9657510 149.0275640  52.1015040  99.6528540 145.8447130  54.9373530
  98.7557070 146.0687100  55.1846930  99.6781410 145.9682070  53.9884930
 106.6933760 142.6940250  40.8514790 107.1327040 141.8562680  40.7052610
 107.4062180 143.3269650  40.9378930  98.4799760 142.7160450  53.5130900
  98.3407530 143.5883250  53.8818300  97.5981120 142.3733260  53.3678840
 104.8029140 147.6336320  44.8196030 105.2425050 148.3760650  44.4051420
 104.7416030 147.8762890  45.7434990 100.2780110 148.6582150  55.7216050
 100.2495540 149.0625100  54.8544480 100.1145080 147.7292510  55.5587650
 110.2750900 133.9483060  39.1655830 109.9623560 134.0409890  40.0654900
 111.0363370 134.5264090  39.1153260  96.7933040 141.3142860  43.6233170
  96.6730640 142.0404950  43.0114440  96.4833930 140.5445770  43.1461080
 112.2294930 149.4409250  57.0180220 112.7054650 149.9192140  57.6969300
 112.8502090 149.3726740  56.2925720  94.4318410 144.4858000  49.4301810
  94.5098830 144.6206770  48.4857530  95.0460090 143.7773890  49.6229930
  95.6766040 146.1858190  45.8407990  95.2694120 146.3272780  44.9861590
  96.5679050 145.9018350  45.6379200 111.6328180 146.6322100  54.1780230
 111.7591240 146.3933980  53.2597410 111.6749560 145.8006640  54.6502310
 105.4944920 150.3350100  52.7475040 106.0089590 150.2458110  53.5497470
 104.6514000 150.6809800  53.0402950 107.4699320 150.6205440  42.1759040
 107.3100460 150.3308380  43.0740870 107.3046030 149.8445570  41.6404270
  99.9487700 150.4003970  43.9530660  99.7730180 149.4839510  43.7398460
  99.0943440 150.7591260  44.1928460 107.1725450 148.1293000  40.7357040
 106.4790610 148.1270290  40.0759320 107.9148310 147.7052320  40.3051210
 106.7375380 149.7555710  44.8105530 107.1932330 148.9745090  45.1244150
 107.0767900 150.4662530  45.3546710 111.4852190 138.6854560  55.1429970
 110.8696460 139.1934230  54.6145430 111.1648610 137.7852890  55.0855910
  94.4877930 145.5272170  51.9696270  94.6508970 145.0577530  51.1515640
  94.9530380 145.0195730  52.6345110  99.2596700 134.6577930  47.0056840
  98.8164850 135.4387470  46.6741360  99.8181690 134.9807820  47.7127780
 103.5466510 137.5246450  52.6092160 103.0845880 137.7329470  53.4212100
 103.1444620 136.7105800  52.3062830 108.5471020 138.7455400  53.7388820
 107.6964610 138.4461150  54.0597890 108.3872810 138.9897410  52.8272640
 105.6420730 140.2457150  55.8387610 105.9674140 139.4120900  55.4989840
 106.4301060 140.7685670  55.9865940 102.3755520 134.2788630  41.8862670
 101.7509700 134.2748500  42.6115980 102.2885640 133.4119590  41.4898640
 101.2972600 135.2025260  48.8646440 101.5944930 136.1088090  48.7838460
 101.8458160 134.7144040  48.2506010  99.0510920 139.7811500  44.7338090
  98.8251840 139.5648670  45.6384710  98.2703450 140.2139960  44.3884060
 106.2808680 139.7874870  43.3328740 105.6817570 140.5110670  43.1492360
 106.8288290 139.7251650  42.5505190 101.4910130 140.6797080  55.3998360
 101.3953730 139.7391810  55.2498760 102.3342110 140.9012150  55.0046430
 104.8873550 138.4238410  45.3632020 105.2803120 138.7410610  44.5500710
 105.2490400 137.5450290  45.4776540  96.6220670 137.0910750  53.5532140
  96.2284060 137.9385960  53.7604920  95.9339070 136.4537120  53.7440780
 103.1965720 137.1745720  56.6228880 102.5064040 136.9817920  57.2574970
 103.9398020 137.4580360  57.1553180  93.9237720 135.0139210  47.5862220
  93.6350770 135.5842070  48.2987200  94.6683480 134.5343660  47.9493450
  94.1107950 138.9559330  38.7964940  94.0282620 139.8990090  38.9379930
  93.7591010 138.8134240  37.9177290 105.4728690 141.0144160  49.4582800
 104.7409810 141.5230970  49.8072900 105.0753030 140.1974140  49.1571580
 101.9106080 137.6898360  47.8635290 101.9142140 137.2488310  47.0139830
 102.8057200 138.0115690  47.9707110  97.7608460 137.5724850  46.8229500
  97.4208510 138.0500080  47.5796550  96.9985780 137.1189970  46.4630600
 101.9726230 138.6910440  40.8542050 102.0939050 138.6496920  41.8027870
 101.5874740 139.5534590  40.6988780 105.9354600 136.4677840  48.8705740
 105.9527340 136.9186490  49.7147590 105.6870180 135.5683480  49.0839180
 100.9847730 141.0011580  40.2525350 100.4164630 140.5529830  39.6261260
 101.6936730 141.3604360  39.7190500 109.3625350 133.8810020  54.7092120
 109.6871120 133.1499680  55.2350100 109.3981860 133.5623660  53.8073110
  96.0616910 144.9023600  54.1292080  95.6771700 144.2617270  54.7275040
  96.3729100 145.6059720  54.6986810 102.2114050 141.7500140  49.6100700
 102.5784180 141.2758710  50.3562040 102.0219110 142.6241710  49.9509040
  95.0754540 136.4943830  45.7394170  94.7901460 136.1299500  46.5772790
  95.0133400 135.7624290  45.1257310 100.0013420 140.7908780  51.9284910
  99.6970490 141.6700760  52.1535270 100.9559880 140.8508570  51.9642350
  98.5295210 144.9969770  42.5251760  97.7557470 144.4567390  42.3650480
  99.2589840 144.4776380  42.1869520 109.2883190 143.9935130  48.3178150
 110.0082310 144.4890420  47.9274260 109.0865010 143.3153020  47.6732020
 104.7493130 135.3873090  42.4607540 103.9357740 134.8886260  42.3852850
 104.5555080 136.2271340  42.0443890 104.6701990 144.0644190  54.2047150
 104.6039300 143.1439860  53.9504740 104.0407130 144.1619630  54.9191790
 107.4641520 139.7592740  40.7569700 108.3521140 140.0709970  40.5821040
 107.4346610 138.8864990  40.3650280  98.5732610 144.6650150  46.1630570
  99.0911280 143.8618410  46.1087460  98.1216630 144.6029290  47.0047400
 103.4602110 145.9316430  41.4357870 103.8017810 146.6758660  40.9401190
 102.6314820 146.2447550  41.7982700  96.0577150 141.6311520  53.0756270
  95.6992090 142.2965370  53.6629610  95.7631710 140.7995070  53.4468890
  99.2590270 142.0895760  55.9595820  98.9590410 142.2352940  55.0623640
 100.0301510 141.5301050  55.8669210 104.6018720 146.8864760  53.9550950
 104.6163260 145.9545720  53.7369860 103.8943820 146.9724520  54.5940720
 109.7355790 141.0704580  40.2249560 109.6519510 141.5018800  39.3746000
 110.4549980 141.5302930  40.6576380 110.8129930 143.5272100  53.3019530
 110.0878120 144.1200880  53.1048920 111.3405390 143.5195640  52.5032900
 110.7643040 147.9246840  42.9531690 110.1219200 147.2702460  43.2275410
 110.3773700 148.3301930  42.1772360 106.3429520 145.2532270  46.8003380
 106.6953340 144.6560400  46.1404750 105.4591850 144.9276500  46.9711630
 102.4292800 146.0129960  44.2073790 103.1163930 146.5599170  44.5881380
 101.6425220 146.5570690  44.2423400  94.5685200 141.6302780  39.6990870
  95.4380050 141.9127580  39.9826790  94.0775520 142.4438650  39.5839680
 101.7320010 143.0175990  43.8199150 102.1882790 143.8281240  44.0459340
 101.3808220 142.6999130  44.6517640 104.0352620 148.5282330  51.0491450
 104.6794840 148.7341710  51.7264870 104.3982060 147.7670730  50.5962300
  97.6331790 133.3613640  44.2921670  97.5046420 133.3531540  45.2406590
  96.8093810 133.6996730  43.9412680 105.3084700 146.5314680  49.7668900
 105.9506930 145.8307840  49.8801070 105.8334050 147.3113120  49.5865790
 109.1540420 146.8163300  39.4908040 108.9278000 146.0993740  40.0832680
 108.7636620 146.5675740  38.6529790 107.0822320 147.3309580  52.9704960
 107.4178560 147.9176270  53.6482880 106.1622660 147.2002290  53.2002750
  94.9356450 150.8430160  40.2652500  95.2954090 151.4419500  39.6109770
  94.7948790 151.3890050  41.0387530  94.6325720 135.1204760  53.7528370
  93.9184240 135.3201680  54.3580980  95.0520760 134.3444330  54.1243170
 108.7356670 144.7335240  41.1522200 108.4478370 145.1947930  41.9400080
 109.5308840 144.2733010  41.4206420  94.9198310 149.1085020  54.7394900
  95.0289430 148.1679760  54.5990290  94.2678870 149.3739770  54.0908630
 102.9110900 147.3800910  56.1393020 102.5907770 146.6610150  56.6838710
 102.2369260 148.0555980  56.2129080 100.9525070 148.2261360  41.0826170
 100.9435170 148.9591050  40.4670680 100.0323430 147.9792940  41.1753130
  96.5531710 143.4476250  41.8272930  95.9459660 144.1875150  41.8368230
  97.0281060 143.5375610  41.0011130 106.1264500 137.6127070  51.5029820
 106.4945320 136.7922280  51.8309390 105.2662700 137.6728960  51.9185470
 109.4926530 136.5684010  42.3117380 108.8639690 136.6729680  41.5975610
 108.9978450 136.7880790  43.1011260 103.9384670 148.2889600  39.7451360
 104.0396650 148.0853590  38.8153340 103.0386410 148.0347880  39.9499140
 101.4610560 138.8469960  43.7275260 100.7526710 139.3156300  44.1688870
 101.7455040 138.1891970  44.3620450 103.0866490 140.2666660  51.7267790
 103.5851740 140.7412480  52.3919640 103.2289440 139.3430180  51.9337820
 105.4925990 135.5720620  45.1671050 105.3693770 135.5906750  44.2180560
 106.4410550 135.6199560  45.2869450 102.5802780 150.8075920  44.4399030
 102.8344280 150.7697310  43.5178400 101.6315260 150.6809250  44.4327280
  99.6645580 137.1555040  41.1025970 100.5136110 137.5925190  41.0366160
  99.2976850 137.4675300  41.9298030 110.2933350 136.4834620  52.5696180
 109.7906950 137.2240020  52.9089990 111.1090010 136.8718620  52.2532970
 108.5855360 141.7267800  46.0157540 107.6445500 141.7418030  46.1905230
 108.8999430 140.9403760  46.4617840  98.5637000 143.4087400  39.5761500
  99.3300270 143.2968760  40.1386930  98.6411690 142.7125370  38.9238270
  97.2583760 140.8412470  40.2594390  97.3387350 139.8939980  40.3711790
  98.1503510 141.1719350  40.3655050 110.5880940 148.8976650  47.6911800
 110.7128360 149.7207820  48.1635610 111.4546500 148.6867380  47.3435950
  94.9443950 147.0581430  43.2370440  94.0183730 147.3002570  43.2275850
  95.4100380 147.8855690  43.1155190  97.0656750 150.1753930  56.5514510
  97.8669480 150.4965980  56.9649910  96.5508570 149.8149510  57.2734420
 101.1700780 150.1638170  39.1854500 101.9629390 150.4527000  38.7336290
 100.6505130 149.7330340  38.5066980 105.9021380 146.2833800  56.4989920
 105.2959540 146.3065400  55.7585670 105.5975490 145.5516840  57.0357170
 107.3321750 150.0114090  55.1099330 108.2843500 149.9272110  55.0599570
 107.1849970 150.6755800  55.7833120 110.2230950 149.3908300  40.6091240
 109.9372460 148.9773440  39.7945420 110.0250500 150.3196010  40.4891760
  94.7854560 142.6627390  55.4950560  95.2893580 142.0834670  56.0666790
  94.0461980 142.9467620  56.0326930 101.6878180 145.3841580  39.0496850
 101.5828820 144.7693930  39.7758230 101.5202400 144.8607470  38.2659860
 101.8392500 144.0698380  55.0286080 101.0738170 144.6383380  54.9440750
 102.0208460 143.7774590  54.1354310 104.9280910 144.4461610  39.6538840
 104.3791010 144.8930910  40.2981580 105.5500170 143.9410860  40.1776510
 108.9815850 145.8003710  55.5861100 109.7225320 146.1379470  55.0828560
 108.2188530 145.9695770  55.0330870  96.8177640 140.8056980  56.3900630
  96.8582980 140.5070850  57.2985860  97.6723140 141.2064590  56.2308150
 100.5956030 143.4052530  41.5504140 101.0172450 143.2392400  42.3935530
 100.7206870 142.5952760  41.0559280  98.7583450 139.3849080  54.3575120
  98.2279910 138.8940030  53.7298460  99.4271520 139.8133280  53.8233050
 103.1083670 142.4290140  38.7981240 103.6289330 141.7139160  38.4322390
 103.7552070 143.0676010  39.0981750 107.6561510 143.8518540  54.1216310
 108.0702530 144.0063620  54.9706730 106.7212510 143.9773760  54.2842090
 108.1283680 141.1914700  56.1255460 108.7104450 140.4367020  56.0375940
 108.3045450 141.7222140  55.3486940  99.2455750 136.3511450  54.4372410
  99.1512620 135.7332200  53.7123280  98.6653140 137.0777740  54.2102320
 102.0117190 134.9084690  51.4699800 101.5634490 134.9308950  50.6245350
 101.3782390 134.5103710  52.0670100 102.4176740 143.8039020  52.0912240
 102.8364850 144.6471750  51.9188480 101.4985370 143.9411060  51.8619020
 104.7540640 141.5355200  53.4750080 104.8736850 140.9396340  54.2144920
 105.6134640 141.5724890  53.0551380 107.0928540 142.0892390  52.0512590
 106.5663760 142.6135010  51.4477730 107.4359880 142.7219780  52.6822320
  99.4914930 139.4785760  38.4962300  99.2903990 138.6153120  38.8575640
  99.3206980 139.3919120  37.5583900 100.2684160 150.1092030  53.2069970
  99.7305250 150.8338090  52.8878670 100.5218120 149.6322370  52.4167310
 101.5209410 138.0776550  54.7325900 102.1109100 137.7692400  55.4203720
 100.7029650 137.6056300  54.8885800 106.3402840 137.6942360  54.9658920
 105.6518360 137.0323900  54.9008910 107.0608860 137.2480630  55.4107380
 106.9703240 134.2893990  41.0249180 107.2505530 133.4461890  41.3808600
 106.1968970 134.5217100  41.5387930  98.2897730 136.5786380  38.4840180
  98.5923630 136.5853810  37.5759330  99.0292320 136.2284240  38.9807840
 101.5082660 135.5221000  39.4696380 101.1604660 134.8444990  38.8898830
 101.7095430 135.0610510  40.2839770 103.6731700 150.5101750  41.0882980
 104.5682490 150.8486720  41.1101740 103.7049330 149.7881160  40.4607260
  97.3127860 145.8828800  39.3169980  97.7502730 146.4258470  39.9727560
  97.7975590 145.0575750  39.3266320  94.5273660 148.6717830  46.7690240
  94.8576670 147.8038890  46.5368880  94.9564660 148.8776350  47.5995200
  99.1235580 147.0026840  44.4292210  98.8231120 146.8791810  45.3296120
  99.0173070 146.1435430  44.0207940  95.0163870 149.5388420  49.5071870
  94.5794860 149.7189220  50.3396020  95.5841550 150.2963040  49.3653590
 110.6526050 149.0405420  53.7949180 110.0528040 149.0997980  53.0513100
 110.7819950 148.1010400  53.9246030 111.8927500 146.7823240  39.1318890
 111.0620460 146.8499890  39.6026120 112.0699330 147.6727360  38.8285750
 111.3483960 143.5270720  41.6353090 112.1102870 144.0967370  41.7412780
 111.3638330 142.9597920  42.4061400  94.8488300 142.0508650  45.8660750
  94.1937140 141.7820290  45.2220450  95.6866250 141.9413130  45.4162730
 112.3543930 144.3820820  46.4795020 112.7252760 143.5988140  46.0730990
 112.9945860 145.0709920  46.3012320 109.3377690 145.7657400  51.8925340
 108.5237530 146.1954560  52.1551130 109.7451890 146.3775810  51.2794390
 111.4003130 143.8205090  38.7925610 111.6751970 144.7283970  38.6644830
 111.2113870 143.7567620  39.7287600 107.7978740 136.8449940  40.0879240
 108.2163620 136.6580920  39.2475900 107.4914800 135.9928990  40.3982170
 111.2968470 141.7574080  43.7855040 110.9212070 140.9902010  43.3536330
 110.5671590 142.1396780  44.2729970  95.8864230 142.4361220  50.4064090
  96.2537270 142.3488620  51.2860110  95.3175050 141.6727770  50.3070950
 110.6868090 140.9045600  53.4194560 110.4554180 140.6758350  52.5192510
 110.9472640 141.8245150  53.3739450  95.4380230 139.3470310  54.3122510
  94.5436280 139.3137070  54.6516220  95.9777780 139.5457100  55.0773760
 109.1256160 136.1302030  56.1974260 110.0026340 136.1385430  56.5808260
 109.1377000 135.3932870  55.5866610  94.0626380 139.2607580  41.8086080
  93.1590460 139.5237780  41.6337740  94.5467000 139.5318750  41.0286040
 110.5719430 139.9831570  47.0862280 111.0956910 139.4894220  46.4552450
 111.1578850 140.1181930  47.8309850 110.7509150 140.0671440  50.6081830
 109.8011860 140.0334980  50.7226820 110.9322160 140.9771550  50.3731600
  96.6053590 138.3173120  39.7180460  97.3145290 137.8956340  39.2327740
  95.8893530 138.3848350  39.0863810  96.2527750 134.3712450  38.7583110
  96.9755880 134.9121390  39.0764330  96.5252270 134.0975870  37.8824650
 110.0619400 139.2404920  43.0254690 110.5578520 139.0075790  43.8103570
 109.8635470 138.4016760  42.6092330  95.9419940 133.6218640  48.6605730
  96.5896130 133.0716020  48.2200890  96.3621780 133.8761790  49.4821540
 111.4906560 137.8765870  45.5592370 111.3805840 137.7221910  46.4974640
 112.2514150 137.3486810  45.3167780 109.8372280 133.8160000  52.0175370
 110.4744500 134.4294140  52.3834560 109.9847170 133.8520660  51.0724600
 112.3796830 135.7073790  38.7998510 113.3046140 135.5754970  38.5916800
 112.3572620 135.7866610  39.7534960 112.4535320 136.4784450  41.4255220
 111.6586820 136.4129570  41.9548130 112.6578600 137.4135090  41.4140570
 109.3953740 150.5176000  45.4193610 109.9912810 150.1960570  44.7428030
 109.6531890 150.0447820  46.2106880  95.6951940 133.7774310  51.4031050
  95.3466760 134.2338130  52.1689230  95.3639640 132.8831440  51.4853480
  97.3016310 146.9493910  55.5684240  97.2585940 146.5786820  56.4498700
  97.4327320 147.8871480  55.7086060 101.0022340 148.5053500  51.1693960
 100.7613700 148.7728060  50.2824480 101.9424980 148.6759230  51.2244820
 103.2076760 134.9686190  54.9250470 103.1465650 135.5608020  55.6745880
 104.1477140 134.8612150  54.7800730 105.8451320 134.6256250  54.5642760
 106.4591730 134.9435540  53.9023840 106.3900880 134.1404840  55.1838620
 112.2626500 150.5247880  51.9704600 111.7684780 150.9216750  51.2531730
 111.6539790 149.8997090  52.3641880  96.3672580 133.3050510  54.6781820
  96.9155570 133.1238560  53.9147930  96.4327890 132.5144620  55.2138130
  97.1404340 149.8956160  52.6882020  96.5464660 149.7640860  53.4272060
  97.1328180 149.0594300  52.2224120 106.5859360 133.1888390  50.8912050
 105.7119200 133.5223500  50.6884980 106.4770110 132.7161570  51.7163920
 107.4931340 135.3959260  52.2753770 107.1644700 134.5811020  51.8955500
 108.4413640 135.3529070  52.1519460  96.7716570 147.2614540  51.6390060
  96.0450630 146.6419830  51.5716010  96.8325720 147.6555150  50.7688140
 100.3761670 149.4759540  48.4239470 100.8926690 148.8646900  47.8987730
 101.0259050 149.9788320  48.9150480 103.1157170 150.3668030  49.2508450
 103.4034980 150.1122330  48.3741460 103.6280390 149.8145390  49.8414020
 104.3334180 134.1058230  49.8304960 103.5505970 134.5803730  50.1101720
 104.0397110 133.2013060  49.7218140 108.8855250 134.8081330  47.8754050
 109.3263340 134.7526430  47.0275650 108.6162840 135.7239340  47.9464230
 110.7493820 134.4396570  45.8862870 110.6882220 133.4957790  45.7393890
 111.5285850 134.5476660  46.4316330  95.0546570 150.5788930  44.8486820
  94.8868610 149.9459610  45.5468710  94.1881080 150.7848330  44.4981010
  95.6774590 134.4105710  42.3518680  96.4353950 134.5234590  41.7782710
  95.2151760 135.2474910  42.3062110 102.2188400 136.5244980  45.3420990
 101.4062910 136.1501870  45.0016870 102.7230040 135.7690060  45.6442180
 106.7213380 133.1887430  46.5804060 107.3242750 133.7607640  47.0552580
 105.9806370 133.7526870  46.3577960 109.8647980 133.5908990  41.8544340
 110.0598610 134.4892440  42.1211770 109.0777850 133.3596070  42.3477290
  96.6609270 149.2722160  42.2936960  96.1356890 149.6530190  41.5898920
  96.5853850 149.8972930  43.0146670  98.0499740 134.9369760  40.8920650
  98.5792500 134.1499560  40.7628600  98.6828060 135.6160950  41.1256180
 100.2437580 134.6744900  43.9466040  99.6140320 133.9732210  44.1136170
  99.7042720 135.4349030  43.7299200 111.4174590 150.8309700  43.6150900
 111.5926780 150.1447440  42.9711820 110.7196160 151.3556750  43.2227570
 100.3693140 133.9528880  56.3818530 100.0877410 134.4562480  55.6179350
 100.7512840 133.1550630  56.0160660  99.2602240 151.2204540  41.1686210
  99.9921060 150.9363820  40.6210100  99.5195910 150.9817820  42.0585590
  98.4217030 147.3369270  41.1732540  97.7925910 147.8054370  41.7218370
  98.5364860 146.4918490  41.6078730 106.9708600 133.3682460  56.9599000
 106.8574050 133.6877070  57.8550520 107.7878340 133.7694970  56.6636280
 109.7507090 150.5153990  56.4417690 110.5432410 150.0203220  56.2343650
 110.0440240 151.1944130  57.0493300 105.8766750 141.3874930  27.3233740
 105.7960800 140.4729540  27.0525450 105.4631170 141.8842000  26.6173450
 104.0084790 143.1653950  29.2043010 103.2326890 142.6854390  29.4941580
 104.6597720 142.4859600  29.0299170  98.0250620 143.4773760  30.0818770
  97.1935500 143.2222470  30.4815280  98.6331600 143.5484530  30.8176690
 108.0292220 147.5714140  27.9842140 107.5673750 146.8001380  28.3129310
 108.8417770 147.5980210  28.4894590  98.0051880 147.5113850  30.2776790
  98.3079920 146.6211590  30.0987010  98.7495470 148.0684070  30.0499040
  96.4342570 138.4375650  23.8661160  95.5459270 138.7791620  23.7641040
  96.7183760 138.2375970  22.9741990  94.3975580 141.0381300  29.7500860
  94.9691690 140.2703500  29.7504500  94.3977120 141.3370060  28.8407470
 104.2555530 149.8572150  27.6046130 103.6366970 150.3129650  27.0340570
 105.1107310 150.0123610  27.2035830 103.4493780 145.8411140  29.2113170
 103.3802060 144.9001080  29.0502300 104.2113640 145.9312550  29.7835740
  95.6400450 136.4465660  31.5369790  95.4603290 135.5491410  31.8172550
  95.2380530 136.9937530  32.2116740 104.4798950 138.6481520  29.4382100
 104.8563770 137.7753400  29.3255770 104.3818460 138.9840220  28.5472540
  98.6103960 137.0207150  24.8999540  98.7170710 137.9210880  25.2068300
  97.6996320 136.9725120  24.6094190 108.2623070 136.1431960  26.3710440
 109.0832690 135.6528530  26.4135920 108.2957150 136.7329620  27.1242280
  96.2587120 138.9426160  30.1452130  96.9397230 139.2064530  30.7639530
  95.9435170 138.1027030  30.4790140 100.4511690 139.9893520  29.2324720
 100.9589910 140.4874490  29.8729740 100.9824930 139.2128720  29.0564080
 112.5522620 138.1598710  32.9354070 111.8474790 138.5480420  32.4169180
 112.8180540 138.8549000  33.5375000  98.7347790 134.6292080  33.4988140
  98.7366230 135.1464470  32.6934040  97.9052100 134.1522260  33.4758070
 105.1218880 144.7411390  24.9978040 104.5036150 145.2060840  24.4340760
 105.6342130 145.4338870  25.4147550  99.9850640 144.2687260  31.6761640
  99.6520020 144.8956180  32.3182710 100.1617320 144.7949140  30.8963310
 108.4984550 138.0832340  29.1437980 107.7940120 138.3717230  29.7241090
 108.8596710 138.8932450  28.7837540  98.4163120 136.3402040  31.5058590
  98.7579930 137.1844090  31.2112460  97.4778930 136.4885780  31.6223930
  99.1969740 146.2368060  33.4910820  99.8143740 146.9119140  33.2095270
  98.3362860 146.6456040  33.3998320  94.4902080 145.4267920  22.3717670
  94.1130060 145.9155020  21.6402570  94.7475150 146.0993200  23.0024200
 110.1147330 147.7007470  31.4065460 109.4310850 148.3706580  31.3982130
 110.6541620 147.8988120  30.6410320 111.5671470 137.5287130  29.5347190
 110.6196380 137.5626110  29.6662620 111.8921460 138.3426080  29.9196550
 102.0991010 133.8284310  27.8303180 102.4065990 133.2731200  27.1138680
 101.1691710 133.9628770  27.6476170 107.6506070 149.5451600  30.1210640
 107.6633230 149.1413890  29.2532900 107.0981290 150.3198890  30.0172070
 108.9451490 146.2667820  25.2100810 108.8347820 145.3242150  25.3350230
 108.9419740 146.6283460  26.0963570 107.0491510 144.4481440  31.4493250
 107.4660300 144.2341550  30.6146710 107.7731330 144.7054230  32.0201870
 104.4871770 141.8933140  24.5663300 103.5601050 141.8270520  24.7951770
 104.6396590 142.8313270  24.4518540 104.4740850 138.1650140  21.5630460
 103.5344520 138.3264100  21.6482920 104.7924110 138.8835820  21.0166450
 110.9953610 142.8468660  31.5409490 110.1672240 142.9161750  31.0659620
 111.5904090 143.4322970  31.0725320 108.5169060 143.4553440  25.0698550
 107.8981480 143.1172990  24.4224850 108.4993510 142.8113200  25.7777740
 107.9595620 139.6337980  32.4864360 107.5466800 140.4591690  32.7404350
 107.2271570 139.0483020  32.2940720 100.0928410 142.4197880  27.3483030
  99.6885410 141.7075130  26.8528930 100.1791530 142.0751120  28.2371070
 100.5610110 146.1065440  29.5122240 100.2638400 145.5010910  28.8330020
 101.5109930 146.1442750  29.4011600  98.8057030 139.1941090  31.1282070
  99.3571620 139.3036430  30.3535320  99.3200540 139.5678690  31.8437300
 108.6495720 149.6797310  33.1745340 108.1726280 150.4869500  32.9817950
 107.9657510 149.0275640  33.3271550  99.6528540 145.8447130  36.1630040
  98.7557070 146.0687100  36.4103440  99.6781410 145.9682070  35.2141440
 106.6933760 142.6940250  22.0771300 107.1327040 141.8562680  21.9309120
 107.4062180 143.3269650  22.1635440  98.4799760 142.7160450  34.7387410
  98.3407530 143.5883250  35.1074810  97.5981120 142.3733260  34.5935350
 104.8029140 147.6336320  26.0452540 105.2425050 148.3760650  25.6307930
 104.7416030 147.8762890  26.9691500 100.2780110 148.6582150  36.9472560
 100.2495540 149.0625100  36.0800990 100.1145080 147.7292510  36.7844160
 110.2750900 133.9483060  20.3912340 109.9623560 134.0409890  21.2911410
 111.0363370 134.5264090  20.3409770  96.7933040 141.3142860  24.8489680
  96.6730640 142.0404950  24.2370950  96.4833930 140.5445770  24.3717590
 112.2294930 149.4409250  38.2436730 112.7054650 149.9192140  38.9225810
 112.8502090 149.3726740  37.5182230  94.4318410 144.4858000  30.6558320
  94.5098830 144.6206770  29.7114040  95.0460090 143.7773890  30.8486440
  95.6766040 146.1858190  27.0664500  95.2694120 146.3272780  26.2118100
  96.5679050 145.9018350  26.8635710 111.6328180 146.6322100  35.4036740
 111.7591240 146.3933980  34.4853920 111.6749560 145.8006640  35.8758820
 105.4944920 150.3350100  33.9731550 106.0089590 150.2458110  34.7753980
 104.6514000 150.6809800  34.2659460 107.4699320 150.6205440  23.4015550
 107.3100460 150.3308380  24.2997380 107.3046030 149.8445570  22.8660780
  99.9487700 150.4003970  25.1787170  99.7730180 149.4839510  24.9654970
  99.0943440 150.7591260  25.4184970 107.1725450 148.1293000  21.9613550
 106.4790610 148.1270290  21.3015830 107.9148310 147.7052320  21.5307720
 106.7375380 149.7555710  26.0362040 107.1932330 148.9745090  26.3500660
 107.0767900 150.4662530  26.5803220 111.4852190 138.6854560  36.3686480
 110.8696460 139.1934230  35.8401940 111.1648610 137.7852890  36.3112420
  94.4877930 145.5272170  33.1952780  94.6508970 145.0577530  32.3772150
  94.9530380 145.0195730  33.8601620  99.2596700 134.6577930  28.2313350
  98.8164850 135.4387470  27.8997870  99.8181690 134.9807820  28.9384290
 103.5466510 137.5246450  33.8348670 103.0845880 137.7329470  34.6468610
 103.1444620 136.7105800  33.5319340 108.5471020 138.7455400  34.9645330
 107.6964610 138.4461150  35.2854400 108.3872810 138.9897410  34.0529150
 105.6420730 140.2457150  37.0644120 105.9674140 139.4120900  36.7246350
 106.4301060 140.7685670  37.2122450 102.3755520 134.2788630  23.1119180
 101.7509700 134.2748500  23.8372490 102.2885640 133.4119590  22.7155150
 101.2972600 135.2025260  30.0902950 101.5944930 136.1088090  30.0094970
 101.8458160 134.7144040  29.4762520  99.0510920 139.7811500  25.9594600
  98.8251840 139.5648670  26.8641220  98.2703450 140.2139960  25.6140570
 106.2808680 139.7874870  24.5585250 105.6817570 140.5110670  24.3748870
 106.8288290 139.7251650  23.7761700 101.4910130 140.6797080  36.6254870
 101.3953730 139.7391810  36.4755270 102.3342110 140.9012150  36.2302940
 104.8873550 138.4238410  26.5888530 105.2803120 138.7410610  25.7757220
 105.2490400 137.5450290  26.7033050  96.6220670 137.0910750  34.7788650
  96.2284060 137.9385960  34.9861430  95.9339070 136.4537120  34.9697290
 103.1965720 137.1745720  37.8485390 102.5064040 136.9817920  38.4831480
 103.9398020 137.4580360  38.3809690  93.9237720 135.0139210  28.8118730
  93.6350770 135.5842070  29.5243710  94.6683480 134.5343660  29.1749960
  94.1107950 138.9559330  20.0221450  94.0282620 139.8990090  20.1636440
  93.7591010 138.8134240  19.1433800 105.4728690 141.0144160  30.6839310
 104.7409810 141.5230970  31.0329410 105.0753030 140.1974140  30.3828090
 101.9106080 137.6898360  29.0891800 101.9142140 137.2488310  28.2396340
 102.8057200 138.0115690  29.1963620  97.7608460 137.5724850  28.0486010
  97.4208510 138.0500080  28.8053060  96.9985780 137.1189970  27.6887110
 101.9726230 138.6910440  22.0798560 102.0939050 138.6496920  23.0284380
 101.5874740 139.5534590  21.9245290 105.9354600 136.4677840  30.0962250
 105.9527340 136.9186490  30.9404100 105.6870180 135.5683480  30.3095690
 100.9847730 141.0011580  21.4781860 100.4164630 140.5529830  20.8517770
 101.6936730 141.3604360  20.9447010 109.3625350 133.8810020  35.9348630
 109.6871120 133.1499680  36.4606610 109.3981860 133.5623660  35.0329620
  96.0616910 144.9023600  35.3548590  95.6771700 144.2617270  35.9531550
  96.3729100 145.6059720  35.9243320 102.2114050 141.7500140  30.8357210
 102.5784180 141.2758710  31.5818550 102.0219110 142.6241710  31.1765550
  95.0754540 136.4943830  26.9650680  94.7901460 136.1299500  27.8029300
  95.0133400 135.7624290  26.3513820 100.0013420 140.7908780  33.1541420
  99.6970490 141.6700760  33.3791780 100.9559880 140.8508570  33.1898860
  98.5295210 144.9969770  23.7508270  97.7557470 144.4567390  23.5906990
  99.2589840 144.4776380  23.4126030 109.2883190 143.9935130  29.5434660
 110.0082310 144.4890420  29.1530770 109.0865010 143.3153020  28.8988530
 104.7493130 135.3873090  23.6864050 103.9357740 134.8886260  23.6109360
 104.5555080 136.2271340  23.2700400 104.6701990 144.0644190  35.4303660
 104.6039300 143.1439860  35.1761250 104.0407130 144.1619630  36.1448300
 107.4641520 139.7592740  21.9826210 108.3521140 140.0709970  21.8077550
 107.4346610 138.8864990  21.5906790  98.5732610 144.6650150  27.3887080
  99.0911280 143.8618410  27.3343970  98.1216630 144.6029290  28.2303910
 103.4602110 145.9316430  22.6614380 103.8017810 146.6758660  22.1657700
 102.6314820 146.2447550  23.0239210  96.0577150 141.6311520  34.3012780
  95.6992090 142.2965370  34.8886120  95.7631710 140.7995070  34.6725400
  99.2590270 142.0895760  37.1852330  98.9590410 142.2352940  36.2880150
 100.0301510 141.5301050  37.0925720 104.6018720 146.8864760  35.1807460
 104.6163260 145.9545720  34.9626370 103.8943820 146.9724520  35.8197230
 109.7355790 141.0704580  21.4506070 109.6519510 141.5018800  20.6002510
 110.4549980 141.5302930  21.8832890 110.8129930 143.5272100  34.5276040
 110.0878120 144.1200880  34.3305430 111.3405390 143.5195640  33.7289410
 110.7643040 147.9246840  24.1788200 110.1219200 147.2702460  24.4531920
 110.3773700 148.3301930  23.4028870 106.3429520 145.2532270  28.0259890
 106.6953340 144.6560400  27.3661260 105.4591850 144.9276500  28.1968140
 102.4292800 146.0129960  25.4330300 103.1163930 146.5599170  25.8137890
 101.6425220 146.5570690  25.4679910  94.5685200 141.6302780  20.9247380
  95.4380050 141.9127580  21.2083300  94.0775520 142.4438650  20.8096190
 101.7320010 143.0175990  25.0455660 102.1882790 143.8281240  25.2715850
 101.3808220 142.6999130  25.8774150 104.0352620 148.5282330  32.2747960
 104.6794840 148.7341710  32.9521380 104.3982060 147.7670730  31.8218810
  97.6331790 133.3613640  25.5178180  97.5046420 133.3531540  26.4663100
  96.8093810 133.6996730  25.1669190 105.3084700 146.5314680  30.9925410
 105.9506930 145.8307840  31.1057580 105.8334050 147.3113120  30.8122300
 109.1540420 146.8163300  20.7164550 108.9278000 146.0993740  21.3089190
 108.7636620 146.5675740  19.8786300 107.0822320 147.3309580  34.1961470
 107.4178560 147.9176270  34.8739390 106.1622660 147.2002290  34.4259260
  94.9356450 150.8430160  21.4909010  95.2954090 151.4419500  20.8366280
  94.7948790 151.3890050  22.2644040  94.6325720 135.1204760  34.9784880
  93.9184240 135.3201680  35.5837490  95.0520760 134.3444330  35.3499680
 108.7356670 144.7335240  22.3778710 108.4478370 145.1947930  23.1656590
 109.5308840 144.2733010  22.6462930  94.9198310 149.1085020  35.9651410
  95.0289430 148.1679760  35.8246800  94.2678870 149.3739770  35.3165140
 102.9110900 147.3800910  37.3649530 102.5907770 146.6610150  37.9095220
 102.2369260 148.0555980  37.4385590 100.9525070 148.2261360  22.3082680
 100.9435170 148.9591050  21.6927190 100.0323430 147.9792940  22.4009640
  96.5531710 143.4476250  23.0529440  95.9459660 144.1875150  23.0624740
  97.0281060 143.5375610  22.2267640 106.1264500 137.6127070  32.7286330
 106.4945320 136.7922280  33.0565900 105.2662700 137.6728960  33.1441980
 109.4926530 136.5684010  23.5373890 108.8639690 136.6729680  22.8232120
 108.9978450 136.7880790  24.3267770 103.9384670 148.2889600  20.9707870
 104.0396650 148.0853590  20.0409850 103.0386410 148.0347880  21.1755650
 101.4610560 138.8469960  24.9531770 100.7526710 139.3156300  25.3945380
 101.7455040 138.1891970  25.5876960 103.0866490 140.2666660  32.9524300
 103.5851740 140.7412480  33.6176150 103.2289440 139.3430180  33.1594330
 105.4925990 135.5720620  26.3927560 105.3693770 135.5906750  25.4437070
 106.4410550 135.6199560  26.5125960 102.5802780 150.8075920  25.6655540
 102.8344280 150.7697310  24.7434910 101.6315260 150.6809250  25.6583790
  99.6645580 137.1555040  22.3282480 100.5136110 137.5925190  22.2622670
  99.2976850 137.4675300  23.1554540 110.2933350 136.4834620  33.7952690
 109.7906950 137.2240020  34.1346500 111.1090010 136.8718620  33.4789480
 108.5855360 141.7267800  27.2414050 107.6445500 141.7418030  27.4161740
 108.8999430 140.9403760  27.6874350  98.5637000 143.4087400  20.8018010
  99.3300270 143.2968760  21.3643440  98.6411690 142.7125370  20.1494780
  97.2583760 140.8412470  21.4850900  97.3387350 139.8939980  21.5968300
  98.1503510 141.1719350  21.5911560 110.5880940 148.8976650  28.9168310
 110.7128360 149.7207820  29.3892120 111.4546500 148.6867380  28.5692460
  94.9443950 147.0581430  24.4626950  94.0183730 147.3002570  24.4532360
  95.4100380 147.8855690  24.3411700  97.0656750 150.1753930  37.7771020
  97.8669480 150.4965980  38.1906420  96.5508570 149.8149510  38.4990930
 101.1700780 150.1638170  20.4111010 101.9629390 150.4527000  19.9592800
 100.6505130 149.7330340  19.7323490 105.9021380 146.2833800  37.7246430
 105.2959540 146.3065400  36.9842180 105.5975490 145.5516840  38.2613680
 107.3321750 150.0114090  36.3355840 108.2843500 149.9272110  36.2856080
 107.1849970 150.6755800  37.0089630 110.2230950 149.3908300  21.8347750
 109.9372460 148.9773440  21.0201930 110.0250500 150.3196010  21.7148270
  94.7854560 142.6627390  36.7207070  95.2893580 142.0834670  37.2923300
  94.0461980 142.9467620  37.2583440 101.6878180 145.3841580  20.2753360
 101.5828820 144.7693930  21.0014740 101.5202400 144.8607470  19.4916370
 101.8392500 144.0698380  36.2542590 101.0738170 144.6383380  36.1697260
 102.0208460 143.7774590  35.3610820 104.9280910 144.4461610  20.8795350
 104.3791010 144.8930910  21.5238090 105.5500170 143.9410860  21.4033020
 108.9815850 145.8003710  36.8117610 109.7225320 146.1379470  36.3085070
 108.2188530 145.9695770  36.2587380  96.8177640 140.8056980  37.6157140
  96.8582980 140.5070850  38.5242370  97.6723140 141.2064590  37.4564660
 100.5956030 143.4052530  22.7760650 101.0172450 143.2392400  23.6192040
 100.7206870 142.5952760  22.2815790  98.7583450 139.3849080  35.5831630
  98.2279910 138.8940030  34.9554970  99.4271520 139.8133280  35.0489560
 103.1083670 142.4290140  20.0237750 103.6289330 141.7139160  19.6578900
 103.7552070 143.0676010  20.3238260 107.6561510 143.8518540  35.3472820
 108.0702530 144.0063620  36.1963240 106.7212510 143.9773760  35.5098600
 108.1283680 141.1914700  37.3511970 108.7104450 140.4367020  37.2632450
 108.3045450 141.7222140  36.5743450  99.2455750 136.3511450  35.6628920
  99.1512620 135.7332200  34.9379790  98.6653140 137.0777740  35.4358830
 102.0117190 134.9084690  32.6956310 101.5634490 134.9308950  31.8501860
 101.3782390 134.5103710  33.2926610 102.4176740 143.8039020  33.3168750
 102.8364850 144.6471750  33.1444990 101.4985370 143.9411060  33.0875530
 104.7540640 141.5355200  34.7006590 104.8736850 140.9396340  35.4401430
 105.6134640 141.5724890  34.2807890 107.0928540 142.0892390  33.2769100
 106.5663760 142.6135010  32.6734240 107.4359880 142.7219780  33.9078830
  99.4914930 139.4785760  19.7218810  99.2903990 138.6153120  20.0832150
  99.3206980 139.3919120  18.7840410 100.2684160 150.1092030  34.4326480
  99.7305250 150.8338090  34.1135180 100.5218120 149.6322370  33.6423820
 101.5209410 138.0776550  35.9582410 102.1109100 137.7692400  36.6460230
 100.7029650 137.6056300  36.1142310 106.3402840 137.6942360  36.1915430
 105.6518360 137.0323900  36.1265420 107.0608860 137.2480630  36.6363890
 106.9703240 134.2893990  22.2505690 107.2505530 133.4461890  22.6065110
 106.1968970 134.5217100  22.7644440  98.2897730 136.5786380  19.7096690
  98.5923630 136.5853810  18.8015840  99.0292320 136.2284240  20.2064350
 101.5082660 135.5221000  20.6952890 101.1604660 134.8444990  20.1155340
 101.7095430 135.0610510  21.5096280 103.6731700 150.5101750  22.3139490
 104.5682490 150.8486720  22.3358250 103.7049330 149.7881160  21.6863770
  97.3127860 145.8828800  20.5426490  97.7502730 146.4258470  21.1984070
  97.7975590 145.0575750  20.5522830  94.5273660 148.6717830  27.9946750
  94.8576670 147.8038890  27.7625390  94.9564660 148.8776350  28.8251710
  99.1235580 147.0026840  25.6548720  98.8231120 146.8791810  26.5552630
  99.0173070 146.1435430  25.2464450  95.0163870 149.5388420  30.7328380
  94.5794860 149.7189220  31.5652530  95.5841550 150.2963040  30.5910100
 110.6526050 149.0405420  35.0205690 110.0528040 149.0997980  34.2769610
 110.7819950 148.1010400  35.1502540 111.8927500 146.7823240  20.3575400
 111.0620460 146.8499890  20.8282630 112.0699330 147.6727360  20.0542260
 111.3483960 143.5270720  22.8609600 112.1102870 144.0967370  22.9669290
 111.3638330 142.9597920  23.6317910  94.8488300 142.0508650  27.0917260
  94.1937140 141.7820290  26.4476960  95.6866250 141.9413130  26.6419240
 112.3543930 144.3820820  27.7051530 112.7252760 143.5988140  27.2987500
 112.9945860 145.0709920  27.5268830 109.3377690 145.7657400  33.1181850
 108.5237530 146.1954560  33.3807640 109.7451890 146.3775810  32.5050900
 111.4003130 143.8205090  20.0182120 111.6751970 144.7283970  19.8901340
 111.2113870 143.7567620  20.9544110 107.7978740 136.8449940  21.3135750
 108.2163620 136.6580920  20.4732410 107.4914800 135.9928990  21.6238680
 111.2968470 141.7574080  25.0111550 110.9212070 140.9902010  24.5792840
 110.5671590 142.1396780  25.4986480  95.8864230 142.4361220  31.6320600
  96.2537270 142.3488620  32.5116620  95.3175050 141.6727770  31.5327460
 110.6868090 140.9045600  34.6451070 110.4554180 140.6758350  33.7449020
 110.9472640 141.8245150  34.5995960  95.4380230 139.3470310  35.5379020
  94.5436280 139.3137070  35.8772730  95.9777780 139.5457100  36.3030270
 109.1256160 136.1302030  37.4230770 110.0026340 136.1385430  37.8064770
 109.1377000 135.3932870  36.8123120  94.0626380 139.2607580  23.0342590
  93.1590460 139.5237780  22.8594250  94.5467000 139.5318750  22.2542550
 110.5719430 139.9831570  28.3118790 111.0956910 139.4894220  27.6808960
 111.1578850 140.1181930  29.0566360 110.7509150 140.0671440  31.8338340
 109.8011860 140.0334980  31.9483330 110.9322160 140.9771550  31.5988110
  96.6053590 138.3173120  20.9436970  97.3145290 137.8956340  20.4584250
  95.8893530 138.3848350  20.3120320  96.2527750 134.3712450  19.9839620
  96.9755880 134.9121390  20.3020840  96.5252270 134.0975870  19.1081160
 110.0619400 139.2404920  24.2511200 110.5578520 139.0075790  25.0360080
 109.8635470 138.4016760  23.8348840  95.9419940 133.6218640  29.8862240
  96.5896130 133.0716020  29.4457400  96.3621780 133.8761790  30.7078050
 111.4906560 137.8765870  26.7848880 111.3805840 137.7221910  27.7231150
 112.2514150 137.3486810  26.5424290 109.8372280 133.8160000  33.2431880
 110.4744500 134.4294140  33.6091070 109.9847170 133.8520660  32.2981110
 112.3796830 135.7073790  20.0255020 113.3046140 135.5754970  19.8173310
 112.3572620 135.7866610  20.9791470 112.4535320 136.4784450  22.6511730
 111.6586820 136.4129570  23.1804640 112.6578600 137.4135090  22.6397080
 109.3953740 150.5176000  26.6450120 109.9912810 150.1960570  25.9684540
 109.6531890 150.0447820  27.4363390  95.6951940 133.7774310  32.6287560
  95.3466760 134.2338130  33.3945740  95.3639640 132.8831440  32.7109990
  97.3016310 146.9493910  36.7940750  97.2585940 146.5786820  37.6755210
  97.4327320 147.8871480  36.9342570 101.0022340 148.5053500  32.3950470
 100.7613700 148.7728060  31.5080990 101.9424980 148.6759230  32.4501330
 103.2076760 134.9686190  36.1506980 103.1465650 135.5608020  36.9002390
 104.1477140 134.8612150  36.0057240 105.8451320 134.6256250  35.7899270
 106.4591730 134.9435540  35.1280350 106.3900880 134.1404840  36.4095130
 112.2626500 150.5247880  33.1961110 111.7684780 150.9216750  32.4788240
 111.6539790 149.8997090  33.5898390  96.3672580 133.3050510  35.9038330
  96.9155570 133.1238560  35.1404440  96.4327890 132.5144620  36.4394640
  97.1404340 149.8956160  33.9138530  96.5464660 149.7640860  34.6528570
  97.1328180 149.0594300  33.4480630 106.5859360 133.1888390  32.1168560
 105.7119200 133.5223500  31.9141490 106.4770110 132.7161570  32.9420430
 107.4931340 135.3959260  33.5010280 107.1644700 134.5811020  33.1212010
 108.4413640 135.3529070  33.3775970  96.7716570 147.2614540  32.8646570
  96.0450630 146.6419830  32.7972520  96.8325720 147.6555150  31.9944650
 100.3761670 149.4759540  29.6495980 100.8926690 148.8646900  29.1244240
 101.0259050 149.9788320  30.1406990 103.1157170 150.3668030  30.4764960
 103.4034980 150.1122330  29.5997970 103.6280390 149.8145390  31.0670530
 104.3334180 134.1058230  31.0561470 103.5505970 134.5803730  31.3358230
 104.0397110 133.2013060  30.9474650 108.8855250 134.8081330  29.1010560
 109.3263340 134.7526430  28.2532160 108.6162840 135.7239340  29.1720740
 110.7493820 134.4396570  27.1119380 110.6882220 133.4957790  26.9650400
 111.5285850 134.5476660  27.6572840  95.0546570 150.5788930  26.0743330
  94.8868610 149.9459610  26.7725220  94.1881080 150.7848330  25.7237520
  95.6774590 134.4105710  23.5775190  96.4353950 134.5234590  23.0039220
  95.2151760 135.2474910  23.5318620 102.2188400 136.5244980  26.5677500
 101.4062910 136.1501870  26.2273380 102.7230040 135.7690060  26.8698690
 106.7213380 133.1887430  27.8060570 107.3242750 133.7607640  28.2809090
 105.9806370 133.7526870  27.5834470 109.8647980 133.5908990  23.0800850
 110.0598610 134.4892440  23.3468280 109.0777850 133.3596070  23.5733800
  96.6609270 149.2722160  23.5193470  96.1356890 149.6530190  22.8155430
  96.5853850 149.8972930  24.2403180  98.0499740 134.9369760  22.1177160
  98.5792500 134.1499560  21.9885110  98.6828060 135.6160950  22.3512690
 100.2437580 134.6744900  25.1722550  99.6140320 133.9732210  25.3392680
  99.7042720 135.4349030  24.9555710 111.4174590 150.8309700  24.8407410
 111.5926780 150.1447440  24.1968330 110.7196160 151.3556750  24.4484080
 100.3693140 133.9528880  37.6075040 100.0877410 134.4562480  36.8435860
 100.7512840 133.1550630  37.2417170  99.2602240 151.2204540  22.3942720
  99.9921060 150.9363820  21.8466610  99.5195910 150.9817820  23.2842100
  98.4217030 147.3369270  22.3989050  97.7925910 147.8054370  22.9474880
  98.5364860 146.4918490  22.8335240 106.9708600 133.3682460  38.1855510
 106.8574050 133.6877070  39.0807030 107.7878340 133.7694970  37.8892790
 109.7507090 150.5153990  37.6674200 110.5432410 150.0203220  37.4600160
 110.0440240 151.1944130  38.2749810 105.8766750 141.3874930   8.5490250
 105.7960800 140.4729540   8.2781960 105.4631170 141.8842000   7.8429960
 104.0084790 143.1653950  10.4299520 103.2326890 142.6854390  10.7198090
 104.6597720 142.4859600  10.2555680  98.0250620 143.4773760  11.3075280
  97.1935500 143.2222470  11.7071790  98.6331600 143.5484530  12.0433200
 108.0292220 147.5714140   9.2098650 107.5673750 146.8001380   9.5385820
 108.8417770 147.5980210   9.7151100  98.0051880 147.5113850  11.5033300
  98.3079920 146.6211590  11.3243520  98.7495470 148.0684070  11.2755550
  96.4342570 138.4375650   5.0917670  95.5459270 138.7791620   4.9897550
  96.7183760 138.2375970   4.1998500  94.3975580 141.0381300  10.9757370
  94.9691690 140.2703500  10.9761010  94.3977120 141.3370060  10.0663980
 104.2555530 149.8572150   8.8302640 103.6366970 150.3129650   8.2597080
 105.1107310 150.0123610   8.4292340 103.4493780 145.8411140  10.4369680
 103.3802060 144.9001080  10.2758810 104.2113640 145.9312550  11.0092250
  95.6400450 136.4465660  12.7626300  95.4603290 135.5491410  13.0429060
  95.2380530 136.9937530  13.4373250 104.4798950 138.6481520  10.6638610
 104.8563770 137.7753400  10.5512280 104.3818460 138.9840220   9.7729050
  98.6103960 137.0207150   6.1256050  98.7170710 137.9210880   6.4324810
  97.6996320 136.9725120   5.8350700 108.2623070 136.1431960   7.5966950
 109.0832690 135.6528530   7.6392430 108.2957150 136.7329620   8.3498790
  96.2587120 138.9426160  11.3708640  96.9397230 139.2064530  11.9896040
  95.9435170 138.1027030  11.7046650 100.4511690 139.9893520  10.4581230
 100.9589910 140.4874490  11.0986250 100.9824930 139.2128720  10.2820590
 112.5522620 138.1598710  14.1610580 111.8474790 138.5480420  13.6425690
 112.8180540 138.8549000  14.7631510  98.7347790 134.6292080  14.7244650
  98.7366230 135.1464470  13.9190550  97.9052100 134.1522260  14.7014580
 105.1218880 144.7411390   6.2234550 104.5036150 145.2060840   5.6597270
 105.6342130 145.4338870   6.6404060  99.9850640 144.2687260  12.9018150
  99.6520020 144.8956180  13.5439220 100.1617320 144.7949140  12.1219820
 108.4984550 138.0832340  10.3694490 107.7940120 138.3717230  10.9497600
 108.8596710 138.8932450  10.0094050  98.4163120 136.3402040  12.7315100
  98.7579930 137.1844090  12.4368970  97.4778930 136.4885780  12.8480440
  99.1969740 146.2368060  14.7167330  99.8143740 146.9119140  14.4351780
  98.3362860 146.6456040  14.6254830  94.4902080 145.4267920   3.5974180
  94.1130060 145.9155020   2.8659080  94.7475150 146.0993200   4.2280710
 110.1147330 147.7007470  12.6321970 109.4310850 148.3706580  12.6238640
 110.6541620 147.8988120  11.8666830 111.5671470 137.5287130  10.7603700
 110.6196380 137.5626110  10.8919130 111.8921460 138.3426080  11.1453060
 102.0991010 133.8284310   9.0559690 102.4065990 133.2731200   8.3395190
 101.1691710 133.9628770   8.8732680 107.6506070 149.5451600  11.3467150
 107.6633230 149.1413890  10.4789410 107.0981290 150.3198890  11.2428580
 108.9451490 146.2667820   6.4357320 108.8347820 145.3242150   6.5606740
 108.9419740 146.6283460   7.3220080 107.0491510 144.4481440  12.6749760
 107.4660300 144.2341550  11.8403220 107.7731330 144.7054230  13.2458380
 104.4871770 141.8933140   5.7919810 103.5601050 141.8270520   6.0208280
 104.6396590 142.8313270   5.6775050 104.4740850 138.1650140   2.7886970
 103.5344520 138.3264100   2.8739430 104.7924110 138.8835820   2.2422960
 110.9953610 142.8468660  12.7666000 110.1672240 142.9161750  12.2916130
 111.5904090 143.4322970  12.2981830 108.5169060 143.4553440   6.2955060
 107.8981480 143.1172990   5.6481360 108.4993510 142.8113200   7.0034250
 107.9595620 139.6337980  13.7120870 107.5466800 140.4591690  13.9660860
 107.2271570 139.0483020  13.5197230 100.0928410 142.4197880   8.5739540
  99.6885410 141.7075130   8.0785440 100.1791530 142.0751120   9.4627580
 100.5610110 146.1065440  10.7378750 100.2638400 145.5010910  10.0586530
 101.5109930 146.1442750  10.6268110  98.8057030 139.1941090  12.3538580
  99.3571620 139.3036430  11.5791830  99.3200540 139.5678690  13.0693810
 108.6495720 149.6797310  14.4001850 108.1726280 150.4869500  14.2074460
 107.9657510 149.0275640  14.5528060  99.6528540 145.8447130  17.3886550
  98.7557070 146.0687100  17.6359950  99.6781410 145.9682070  16.4397950
 106.6933760 142.6940250   3.3027810 107.1327040 141.8562680   3.1565630
 107.4062180 143.3269650   3.3891950  98.4799760 142.7160450  15.9643920
  98.3407530 143.5883250  16.3331320  97.5981120 142.3733260  15.8191860
 104.8029140 147.6336320   7.2709050 105.2425050 148.3760650   6.8564440
 104.7416030 147.8762890   8.1948010 100.2780110 148.6582150  18.1729070
 100.2495540 149.0625100  17.3057500 100.1145080 147.7292510  18.0100670
  96.7933040 141.3142860   6.0746190  96.6730640 142.0404950   5.4627460
  96.4833930 140.5445770   5.5974100 112.2294930 149.4409250  19.4693240
 112.7054650 149.9192140  20.1482320 112.8502090 149.3726740  18.7438740
  94.4318410 144.4858000  11.8814830  94.5098830 144.6206770  10.9370550
  95.0460090 143.7773890  12.0742950  95.6766040 146.1858190   8.2921010
  95.2694120 146.3272780   7.4374610  96.5679050 145.9018350   8.0892220
 111.6328180 146.6322100  16.6293250 111.7591240 146.3933980  15.7110430
 111.6749560 145.8006640  17.1015330 105.4944920 150.3350100  15.1988060
 106.0089590 150.2458110  16.0010490 104.6514000 150.6809800  15.4915970
 107.4699320 150.6205440   4.6272060 107.3100460 150.3308380   5.5253890
 107.3046030 149.8445570   4.0917290  99.9487700 150.4003970   6.4043680
  99.7730180 149.4839510   6.1911480  99.0943440 150.7591260   6.6441480
 107.1725450 148.1293000   3.1870060 106.4790610 148.1270290   2.5272340
 107.9148310 147.7052320   2.7564230 106.7375380 149.7555710   7.2618550
 107.1932330 148.9745090   7.5757170 107.0767900 150.4662530   7.8059730
 111.4852190 138.6854560  17.5942990 110.8696460 139.1934230  17.0658450
 111.1648610 137.7852890  17.5368930  94.4877930 145.5272170  14.4209290
  94.6508970 145.0577530  13.6028660  94.9530380 145.0195730  15.0858130
  99.2596700 134.6577930   9.4569860  98.8164850 135.4387470   9.1254380
  99.8181690 134.9807820  10.1640800 103.5466510 137.5246450  15.0605180
 103.0845880 137.7329470  15.8725120 103.1444620 136.7105800  14.7575850
 108.5471020 138.7455400  16.1901840 107.6964610 138.4461150  16.5110910
 108.3872810 138.9897410  15.2785660 105.6420730 140.2457150  18.2900630
 105.9674140 139.4120900  17.9502860 106.4301060 140.7685670  18.4378960
 102.3755520 134.2788630   4.3375690 101.7509700 134.2748500   5.0629000
 102.2885640 133.4119590   3.9411660 101.2972600 135.2025260  11.3159460
 101.5944930 136.1088090  11.2351480 101.8458160 134.7144040  10.7019030
  99.0510920 139.7811500   7.1851110  98.8251840 139.5648670   8.0897730
  98.2703450 140.2139960   6.8397080 106.2808680 139.7874870   5.7841760
 105.6817570 140.5110670   5.6005380 106.8288290 139.7251650   5.0018210
 101.4910130 140.6797080  17.8511380 101.3953730 139.7391810  17.7011780
 102.3342110 140.9012150  17.4559450 104.8873550 138.4238410   7.8145040
 105.2803120 138.7410610   7.0013730 105.2490400 137.5450290   7.9289560
  96.6220670 137.0910750  16.0045160  96.2284060 137.9385960  16.2117940
  95.9339070 136.4537120  16.1953800 103.1965720 137.1745720  19.0741900
 102.5064040 136.9817920  19.7087990 103.9398020 137.4580360  19.6066200
  93.9237720 135.0139210  10.0375240  93.6350770 135.5842070  10.7500220
  94.6683480 134.5343660  10.4006470 105.4728690 141.0144160  11.9095820
 104.7409810 141.5230970  12.2585920 105.0753030 140.1974140  11.6084600
 101.9106080 137.6898360  10.3148310 101.9142140 137.2488310   9.4652850
 102.8057200 138.0115690  10.4220130  97.7608460 137.5724850   9.2742520
  97.4208510 138.0500080  10.0309570  96.9985780 137.1189970   8.9143620
 101.9726230 138.6910440   3.3055070 102.0939050 138.6496920   4.2540890
 101.5874740 139.5534590   3.1501800 105.9354600 136.4677840  11.3218760
 105.9527340 136.9186490  12.1660610 105.6870180 135.5683480  11.5352200
 100.9847730 141.0011580   2.7038370 100.4164630 140.5529830   2.0774280
 101.6936730 141.3604360   2.1703520 109.3625350 133.8810020  17.1605140
 109.6871120 133.1499680  17.6863120 109.3981860 133.5623660  16.2586130
  96.0616910 144.9023600  16.5805100  95.6771700 144.2617270  17.1788060
  96.3729100 145.6059720  17.1499830 102.2114050 141.7500140  12.0613720
 102.5784180 141.2758710  12.8075060 102.0219110 142.6241710  12.4022060
  95.0754540 136.4943830   8.1907190  94.7901460 136.1299500   9.0285810
  95.0133400 135.7624290   7.5770330 100.0013420 140.7908780  14.3797930
  99.6970490 141.6700760  14.6048290 100.9559880 140.8508570  14.4155370
  98.5295210 144.9969770   4.9764780  97.7557470 144.4567390   4.8163500
  99.2589840 144.4776380   4.6382540 109.2883190 143.9935130  10.7691170
 110.0082310 144.4890420  10.3787280 109.0865010 143.3153020  10.1245040
 104.7493130 135.3873090   4.9120560 103.9357740 134.8886260   4.8365870
 104.5555080 136.2271340   4.4956910 104.6701990 144.0644190  16.6560170
 104.6039300 143.1439860  16.4017760 104.0407130 144.1619630  17.3704810
 107.4641520 139.7592740   3.2082720 108.3521140 140.0709970   3.0334060
 107.4346610 138.8864990   2.8163300  98.5732610 144.6650150   8.6143590
  99.0911280 143.8618410   8.5600480  98.1216630 144.6029290   9.4560420
 103.4602110 145.9316430   3.8870890 103.8017810 146.6758660   3.3914210
 102.6314820 146.2447550   4.2495720  96.0577150 141.6311520  15.5269290
  95.6992090 142.2965370  16.1142630  95.7631710 140.7995070  15.8981910
  99.2590270 142.0895760  18.4108840  98.9590410 142.2352940  17.5136660
 100.0301510 141.5301050  18.3182230 104.6018720 146.8864760  16.4063970
 104.6163260 145.9545720  16.1882880 103.8943820 146.9724520  17.0453740
 109.7355790 141.0704580   2.6762580 109.6519510 141.5018800   1.8259020
 110.4549980 141.5302930   3.1089400 110.8129930 143.5272100  15.7532550
 110.0878120 144.1200880  15.5561940 111.3405390 143.5195640  14.9545920
 110.7643040 147.9246840   5.4044710 110.1219200 147.2702460   5.6788430
 110.3773700 148.3301930   4.6285380 106.3429520 145.2532270   9.2516400
 106.6953340 144.6560400   8.5917770 105.4591850 144.9276500   9.4224650
 102.4292800 146.0129960   6.6586810 103.1163930 146.5599170   7.0394400
 101.6425220 146.5570690   6.6936420  94.5685200 141.6302780   2.1503890
  95.4380050 141.9127580   2.4339810  94.0775520 142.4438650   2.0352700
 101.7320010 143.0175990   6.2712170 102.1882790 143.8281240   6.4972360
 101.3808220 142.6999130   7.1030660 104.0352620 148.5282330  13.5004470
 104.6794840 148.7341710  14.1777890 104.3982060 147.7670730  13.0475320
  97.6331790 133.3613640   6.7434690  97.5046420 133.3531540   7.6919610
  96.8093810 133.6996730   6.3925700 105.3084700 146.5314680  12.2181920
 105.9506930 145.8307840  12.3314090 105.8334050 147.3113120  12.0378810
 107.0822320 147.3309580  15.4217980 107.4178560 147.9176270  16.0995900
 106.1622660 147.2002290  15.6515770  94.9356450 150.8430160   2.7165520
  95.2954090 151.4419500   2.0622790  94.7948790 151.3890050   3.4900550
  94.6325720 135.1204760  16.2041390  93.9184240 135.3201680  16.8094000
  95.0520760 134.3444330  16.5756190 108.7356670 144.7335240   3.6035220
 108.4478370 145.1947930   4.3913100 109.5308840 144.2733010   3.8719440
  94.9198310 149.1085020  17.1907920  95.0289430 148.1679760  17.0503310
  94.2678870 149.3739770  16.5421650 102.9110900 147.3800910  18.5906040
 102.5907770 146.6610150  19.1351730 102.2369260 148.0555980  18.6642100
 100.9525070 148.2261360   3.5339190 100.9435170 148.9591050   2.9183700
 100.0323430 147.9792940   3.6266150  96.5531710 143.4476250   4.2785950
  95.9459660 144.1875150   4.2881250  97.0281060 143.5375610   3.4524150
 106.1264500 137.6127070  13.9542840 106.4945320 136.7922280  14.2822410
 105.2662700 137.6728960  14.3698490 109.4926530 136.5684010   4.7630400
 108.8639690 136.6729680   4.0488630 108.9978450 136.7880790   5.5524280
 101.4610560 138.8469960   6.1788280 100.7526710 139.3156300   6.6201890
 101.7455040 138.1891970   6.8133470 103.0866490 140.2666660  14.1780810
 103.5851740 140.7412480  14.8432660 103.2289440 139.3430180  14.3850840
 105.4925990 135.5720620   7.6184070 105.3693770 135.5906750   6.6693580
 106.4410550 135.6199560   7.7382470 102.5802780 150.8075920   6.8912050
 102.8344280 150.7697310   5.9691420 101.6315260 150.6809250   6.8840300
  99.6645580 137.1555040   3.5538990 100.5136110 137.5925190   3.4879180
  99.2976850 137.4675300   4.3811050 110.2933350 136.4834620  15.0209200
 109.7906950 137.2240020  15.3603010 111.1090010 136.8718620  14.7045990
 108.5855360 141.7267800   8.4670560 107.6445500 141.7418030   8.6418250
 108.8999430 140.9403760   8.9130860  97.2583760 140.8412470   2.7107410
  97.3387350 139.8939980   2.8224810  98.1503510 141.1719350   2.8168070
 110.5880940 148.8976650  10.1424820 110.7128360 149.7207820  10.6148630
 111.4546500 148.6867380   9.7948970  94.9443950 147.0581430   5.6883460
  94.0183730 147.3002570   5.6788870  95.4100380 147.8855690   5.5668210
  97.0656750 150.1753930  19.0027530  97.8669480 150.4965980  19.4162930
  96.5508570 149.8149510  19.7247440 105.9021380 146.2833800  18.9502940
 105.2959540 146.3065400  18.2098690 105.5975490 145.5516840  19.4870190
 107.3321750 150.0114090  17.5612350 108.2843500 149.9272110  17.5112590
 107.1849970 150.6755800  18.2346140 110.2230950 149.3908300   3.0604260
 109.9372460 148.9773440   2.2458440 110.0250500 150.3196010   2.9404780
  94.7854560 142.6627390  17.9463580  95.2893580 142.0834670  18.5179810
  94.0461980 142.9467620  18.4839950 101.8392500 144.0698380  17.4799100
 101.0738170 144.6383380  17.3953770 102.0208460 143.7774590  16.5867330
 104.9280910 144.4461610   2.1051860 104.3791010 144.8930910   2.7494600
 105.5500170 143.9410860   2.6289530 108.9815850 145.8003710  18.0374120
 109.7225320 146.1379470  17.5341580 108.2188530 145.9695770  17.4843890
  96.8177640 140.8056980  18.8413650  96.8582980 140.5070850  19.7498880
  97.6723140 141.2064590  18.6821170 100.5956030 143.4052530   4.0017160
 101.0172450 143.2392400   4.8448550 100.7206870 142.5952760   3.5072300
  98.7583450 139.3849080  16.8088140  98.2279910 138.8940030  16.1811480
  99.4271520 139.8133280  16.2746070 107.6561510 143.8518540  16.5729330
 108.0702530 144.0063620  17.4219750 106.7212510 143.9773760  16.7355110
 108.1283680 141.1914700  18.5768480 108.7104450 140.4367020  18.4888960
 108.3045450 141.7222140  17.7999960  99.2455750 136.3511450  16.8885430
  99.1512620 135.7332200  16.1636300  98.6653140 137.0777740  16.6615340
 102.0117190 134.9084690  13.9212820 101.5634490 134.9308950  13.0758370
 101.3782390 134.5103710  14.5183120 102.4176740 143.8039020  14.5425260
 102.8364850 144.6471750  14.3701500 101.4985370 143.9411060  14.3132040
 104.7540640 141.5355200  15.9263100 104.8736850 140.9396340  16.6657940
 105.6134640 141.5724890  15.5064400 107.0928540 142.0892390  14.5025610
 106.5663760 142.6135010  13.8990750 107.4359880 142.7219780  15.1335340
 100.2684160 150.1092030  15.6582990  99.7305250 150.8338090  15.3391690
 100.5218120 149.6322370  14.8680330 101.5209410 138.0776550  17.1838920
 102.1109100 137.7692400  17.8716740 100.7029650 137.6056300  17.3398820
 106.3402840 137.6942360  17.4171940 105.6518360 137.0323900  17.3521930
 107.0608860 137.2480630  17.8620400 106.9703240 134.2893990   3.4762200
 107.2505530 133.4461890   3.8321620 106.1968970 134.5217100   3.9900950
 103.6731700 150.5101750   3.5396000 104.5682490 150.8486720   3.5614760
 103.7049330 149.7881160   2.9120280  97.3127860 145.8828800   1.7683000
  97.7502730 146.4258470   2.4240580  97.7975590 145.0575750   1.7779340
  94.5273660 148.6717830   9.2203260  94.8576670 147.8038890   8.9881900
  94.9564660 148.8776350  10.0508220  99.1235580 147.0026840   6.8805230
  98.8231120 146.8791810   7.7809140  99.0173070 146.1435430   6.4720960
  95.0163870 149.5388420  11.9584890  94.5794860 149.7189220  12.7909040
  95.5841550 150.2963040  11.8166610 110.6526050 149.0405420  16.2462200
 110.0528040 149.0997980  15.5026120 110.7819950 148.1010400  16.3759050
 111.3483960 143.5270720   4.0866110 112.1102870 144.0967370   4.1925800
 111.3638330 142.9597920   4.8574420  94.8488300 142.0508650   8.3173770
  94.1937140 141.7820290   7.6733470  95.6866250 141.9413130   7.8675750
 112.3543930 144.3820820   8.9308040 112.7252760 143.5988140   8.5244010
 112.9945860 145.0709920   8.7525340 109.3377690 145.7657400  14.3438360
 108.5237530 146.1954560  14.6064150 109.7451890 146.3775810  13.7307410
 107.7978740 136.8449940   2.5392260 108.2163620 136.6580920   1.6988920
 107.4914800 135.9928990   2.8495190 111.2968470 141.7574080   6.2368060
 110.9212070 140.9902010   5.8049350 110.5671590 142.1396780   6.7242990
  95.8864230 142.4361220  12.8577110  96.2537270 142.3488620  13.7373130
  95.3175050 141.6727770  12.7583970 110.6868090 140.9045600  15.8707580
 110.4554180 140.6758350  14.9705530 110.9472640 141.8245150  15.8252470
  95.4380230 139.3470310  16.7635530  94.5436280 139.3137070  17.1029240
  95.9777780 139.5457100  17.5286780 109.1256160 136.1302030  18.6487280
 110.0026340 136.1385430  19.0321280 109.1377000 135.3932870  18.0379630
  94.0626380 139.2607580   4.2599100  93.1590460 139.5237780   4.0850760
  94.5467000 139.5318750   3.4799060 110.5719430 139.9831570   9.5375300
 111.0956910 139.4894220   8.9065470 111.1578850 140.1181930  10.2822870
 110.7509150 140.0671440  13.0594850 109.8011860 140.0334980  13.1739840
 110.9322160 140.9771550  12.8244620 110.0619400 139.2404920   5.4767710
 110.5578520 139.0075790   6.2616590 109.8635470 138.4016760   5.0605350
  95.9419940 133.6218640  11.1118750  96.5896130 133.0716020  10.6713910
  96.3621780 133.8761790  11.9334560 111.4906560 137.8765870   8.0105390
 111.3805840 137.7221910   8.9487660 112.2514150 137.3486810   7.7680800
 109.8372280 133.8160000  14.4688390 110.4744500 134.4294140  14.8347580
 109.9847170 133.8520660  13.5237620 112.4535320 136.4784450   3.8768240
 111.6586820 136.4129570   4.4061150 112.6578600 137.4135090   3.8653590
 109.3953740 150.5176000   7.8706630 109.9912810 150.1960570   7.1941050
 109.6531890 150.0447820   8.6619900  95.6951940 133.7774310  13.8544070
  95.3466760 134.2338130  14.6202250  95.3639640 132.8831440  13.9366500
  97.3016310 146.9493910  18.0197260  97.2585940 146.5786820  18.9011720
  97.4327320 147.8871480  18.1599080 101.0022340 148.5053500  13.6206980
 100.7613700 148.7728060  12.7337500 101.9424980 148.6759230  13.6757840
 103.2076760 134.9686190  17.3763490 103.1465650 135.5608020  18.1258900
 104.1477140 134.8612150  17.2313750 105.8451320 134.6256250  17.0155780
 106.4591730 134.9435540  16.3536860 106.3900880 134.1404840  17.6351640
 112.2626500 150.5247880  14.4217620 111.7684780 150.9216750  13.7044750
 111.6539790 149.8997090  14.8154900  96.3672580 133.3050510  17.1294840
  96.9155570 133.1238560  16.3660950  96.4327890 132.5144620  17.6651150
  97.1404340 149.8956160  15.1395040  96.5464660 149.7640860  15.8785080
  97.1328180 149.0594300  14.6737140 106.5859360 133.1888390  13.3425070
 105.7119200 133.5223500  13.1398000 106.4770110 132.7161570  14.1676940
 107.4931340 135.3959260  14.7266790 107.1644700 134.5811020  14.3468520
 108.4413640 135.3529070  14.6032480  96.7716570 147.2614540  14.0903080
  96.0450630 146.6419830  14.0229030  96.8325720 147.6555150  13.2201160
 100.3761670 149.4759540  10.8752490 100.8926690 148.8646900  10.3500750
 101.0259050 149.9788320  11.3663500 103.1157170 150.3668030  11.7021470
 103.4034980 150.1122330  10.8254480 103.6280390 149.8145390  12.2927040
 104.3334180 134.1058230  12.2817980 103.5505970 134.5803730  12.5614740
 104.0397110 133.2013060  12.1731160 108.8855250 134.8081330  10.3267070
 109.3263340 134.7526430   9.4788670 108.6162840 135.7239340  10.3977250
 110.7493820 134.4396570   8.3375890 110.6882220 133.4957790   8.1906910
 111.5285850 134.5476660   8.8829350  95.0546570 150.5788930   7.2999840
  94.8868610 149.9459610   7.9981730  94.1881080 150.7848330   6.9494030
  95.6774590 134.4105710   4.8031700  96.4353950 134.5234590   4.2295730
  95.2151760 135.2474910   4.7575130 102.2188400 136.5244980   7.7934010
 101.4062910 136.1501870   7.4529890 102.7230040 135.7690060   8.0955200
 106.7213380 133.1887430   9.0317080 107.3242750 133.7607640   9.5065600
 105.9806370 133.7526870   8.8090980 109.8647980 133.5908990   4.3057360
 110.0598610 134.4892440   4.5724790 109.0777850 133.3596070   4.7990310
  96.6609270 149.2722160   4.7449980  96.1356890 149.6530190   4.0411940
  96.5853850 149.8972930   5.4659690  98.0499740 134.9369760   3.3433670
  98.5792500 134.1499560   3.2141620  98.6828060 135.6160950   3.5769200
 100.2437580 134.6744900   6.3979060  99.6140320 133.9732210   6.5649190
  99.7042720 135.4349030   6.1812220 111.4174590 150.8309700   6.0663920
 111.5926780 150.1447440   5.4224840 110.7196160 151.3556750   5.6740590
 100.3693140 133.9528880  18.8331550 100.0877410 134.4562480  18.0692370
 100.7512840 133.1550630  18.4673680  99.2602240 151.2204540   3.6199230
  99.9921060 150.9363820   3.0723120  99.5195910 150.9817820   4.5098610
  98.4217030 147.3369270   3.6245560  97.7925910 147.8054370   4.1731390
  98.5364860 146.4918490   4.0591750 106.9708600 133.3682460  19.4112020
 106.8574050 133.6877070  20.3063540 107.7878340 133.7694970  19.1149300
 109.7507090 150.5153990  18.8930710 110.5432410 150.0203220  18.6856670
 110.0440240 151.1944130  19.5006320 105.8766750 122.6131440 139.9694680
 105.7960800 121.6986050 139.6986390 105.4631170 123.1098510 139.2634390
 104.0084790 124.3910460 141.8503950 103.2326890 123.9110900 142.1402520
 104.6597720 123.7116110 141.6760110  98.0250620 124.7030270 142.7279710
  97.1935500 124.4478980 143.1276220  98.6331600 124.7741040 143.4637630
 108.0292220 128.7970650 140.6303080 107.5673750 128.0257890 140.9590250
 108.8417770 128.8236720 141.1355530  98.0051880 128.7370360 142.9237730
  98.3079920 127.8468100 142.7447950  98.7495470 129.2940580 142.6959980
  96.4342570 119.6632160 136.5122100  95.5459270 120.0048130 136.4101980
  96.7183760 119.4632480 135.6202930  94.3975580 122.2637810 142.3961800
  94.9691690 121.4960010 142.3965440  94.3977120 122.5626570 141.4868410
 104.2555530 131.0828660 140.2507070 103.6366970 131.5386160 139.6801510
 105.1107310 131.2380120 139.8496770 103.4493780 127.0667650 141.8574110
 103.3802060 126.1257590 141.6963240 104.2113640 127.1569060 142.4296680
  95.6400450 117.6722170 144.1830730  95.4603290 116.7747920 144.4633490
  95.2380530 118.2194040 144.8577680 104.4798950 119.8738030 142.0843040
 104.8563770 119.0009910 141.9716710 104.3818460 120.2096730 141.1933480
  98.6103960 118.2463660 137.5460480  98.7170710 119.1467390 137.8529240
  97.6996320 118.1981630 137.2555130 108.2623070 117.3688470 139.0171380
 109.0832690 116.8785040 139.0596860 108.2957150 117.9586130 139.7703220
  96.2587120 120.1682670 142.7913070  96.9397230 120.4321040 143.4100470
  95.9435170 119.3283540 143.1251080 100.4511690 121.2150030 141.8785660
 100.9589910 121.7131000 142.5190680 100.9824930 120.4385230 141.7025020
 112.5522620 119.3855220 145.5815010 111.8474790 119.7736930 145.0630120
 112.8180540 120.0805510 146.1835940  98.7347790 115.8548590 146.1449080
  98.7366230 116.3720980 145.3394980  97.9052100 115.3778770 146.1219010
 105.1218880 125.9667900 137.6438980 104.5036150 126.4317350 137.0801700
 105.6342130 126.6595380 138.0608490  99.9850640 125.4943770 144.3222580
  99.6520020 126.1212690 144.9643650 100.1617320 126.0205650 143.5424250
 108.4984550 119.3088850 141.7898920 107.7940120 119.5973740 142.3702030
 108.8596710 120.1188960 141.4298480  98.4163120 117.5658550 144.1519530
  98.7579930 118.4100600 143.8573400  97.4778930 117.7142290 144.2684870
  99.1969740 127.4624570 146.1371760  99.8143740 128.1375650 145.8556210
  98.3362860 127.8712550 146.0459260  94.4902080 126.6524430 135.0178610
  94.1130060 127.1411530 134.2863510  94.7475150 127.3249710 135.6485140
 110.1147330 128.9263980 144.0526400 109.4310850 129.5963090 144.0443070
 110.6541620 129.1244630 143.2871260 111.5671470 118.7543640 142.1808130
 110.6196380 118.7882620 142.3123560 111.8921460 119.5682590 142.5657490
 102.0991010 115.0540820 140.4764120 102.4065990 114.4987710 139.7599620
 101.1691710 115.1885280 140.2937110 107.6506070 130.7708110 142.7671580
 107.6633230 130.3670400 141.8993840 107.0981290 131.5455400 142.6633010
 108.9451490 127.4924330 137.8561750 108.8347820 126.5498660 137.9811170
 108.9419740 127.8539970 138.7424510 107.0491510 125.6737950 144.0954190
 107.4660300 125.4598060 143.2607650 107.7731330 125.9310740 144.6662810
 104.4871770 123.1189650 137.2124240 103.5601050 123.0527030 137.4412710
 104.6396590 124.0569780 137.0979480 104.4740850 119.3906650 134.2091400
 103.5344520 119.5520610 134.2943860 104.7924110 120.1092330 133.6627390
 110.9953610 124.0725170 144.1870430 110.1672240 124.1418260 143.7120560
 111.5904090 124.6579480 143.7186260 108.5169060 124.6809950 137.7159490
 107.8981480 124.3429500 137.0685790 108.4993510 124.0369710 138.4238680
 107.9595620 120.8594490 145.1325300 107.5466800 121.6848200 145.3865290
 107.2271570 120.2739530 144.9401660 100.0928410 123.6454390 139.9943970
  99.6885410 122.9331640 139.4989870 100.1791530 123.3007630 140.8832010
 100.5610110 127.3321950 142.1583180 100.2638400 126.7267420 141.4790960
 101.5109930 127.3699260 142.0472540  98.8057030 120.4197600 143.7743010
  99.3571620 120.5292940 142.9996260  99.3200540 120.7935200 144.4898240
 108.6495720 130.9053820 145.8206280 108.1726280 131.7126010 145.6278890
 107.9657510 130.2532150 145.9732490  99.6528540 127.0703640 148.8090980
  98.7557070 127.2943610 149.0564380  99.6781410 127.1938580 147.8602380
 106.6933760 123.9196760 134.7232240 107.1327040 123.0819190 134.5770060
 107.4062180 124.5526160 134.8096380  98.4799760 123.9416960 147.3848350
  98.3407530 124.8139760 147.7535750  97.5981120 123.5989770 147.2396290
 104.8029140 128.8592830 138.6913480 105.2425050 129.6017160 138.2768870
 104.7416030 129.1019400 139.6152440 100.2780110 129.8838660 149.5933500
 100.2495540 130.2881610 148.7261930 100.1145080 128.9549020 149.4305100
 110.2750900 115.1739570 133.0373280 109.9623560 115.2666400 133.9372350
 111.0363370 115.7520600 132.9870710  96.7933040 122.5399370 137.4950620
  96.6730640 123.2661460 136.8831890  96.4833930 121.7702280 137.0178530
  94.4318410 125.7114510 143.3019260  94.5098830 125.8463280 142.3574980
  95.0460090 125.0030400 143.4947380  95.6766040 127.4114700 139.7125440
  95.2694120 127.5529290 138.8579040  96.5679050 127.1274860 139.5096650
 111.6328180 127.8578610 148.0497680 111.7591240 127.6190490 147.1314860
 111.6749560 127.0263150 148.5219760 105.4944920 131.5606610 146.6192490
 106.0089590 131.4714620 147.4214920 104.6514000 131.9066310 146.9120400
 107.4699320 131.8461950 136.0476490 107.3100460 131.5564890 136.9458320
 107.3046030 131.0702080 135.5121720  99.9487700 131.6260480 137.8248110
  99.7730180 130.7096020 137.6115910  99.0943440 131.9847770 138.0645910
 107.1725450 129.3549510 134.6074490 106.4790610 129.3526800 133.9476770
 107.9148310 128.9308830 134.1768660 106.7375380 130.9812220 138.6822980
 107.1932330 130.2001600 138.9961600 107.0767900 131.6919040 139.2264160
 111.4852190 119.9111070 149.0147420 110.8696460 120.4190740 148.4862880
 111.1648610 119.0109400 148.9573360  94.4877930 126.7528680 145.8413720
  94.6508970 126.2834040 145.0233090  94.9530380 126.2452240 146.5062560
  99.2596700 115.8834440 140.8774290  98.8164850 116.6643980 140.5458810
  99.8181690 116.2064330 141.5845230 103.5466510 118.7502960 146.4809610
 103.0845880 118.9585980 147.2929550 103.1444620 117.9362310 146.1780280
 108.5471020 119.9711910 147.6106270 107.6964610 119.6717660 147.9315340
 108.3872810 120.2153920 146.6990090 105.6420730 121.4713660 149.7105060
 105.9674140 120.6377410 149.3707290 106.4301060 121.9942180 149.8583390
 102.3755520 115.5045140 135.7580120 101.7509700 115.5005010 136.4833430
 102.2885640 114.6376100 135.3616090 101.2972600 116.4281770 142.7363890
 101.5944930 117.3344600 142.6555910 101.8458160 115.9400550 142.1223460
  99.0510920 121.0068010 138.6055540  98.8251840 120.7905180 139.5102160
  98.2703450 121.4396470 138.2601510 106.2808680 121.0131380 137.2046190
 105.6817570 121.7367180 137.0209810 106.8288290 120.9508160 136.4222640
 101.4910130 121.9053590 149.2715810 101.3953730 120.9648320 149.1216210
 102.3342110 122.1268660 148.8763880 104.8873550 119.6494920 139.2349470
 105.2803120 119.9667120 138.4218160 105.2490400 118.7706800 139.3493990
  96.6220670 118.3167260 147.4249590  96.2284060 119.1642470 147.6322370
  95.9339070 117.6793630 147.6158230  93.9237720 116.2395720 141.4579670
  93.6350770 116.8098580 142.1704650  94.6683480 115.7600170 141.8210900
  94.1107950 120.1815840 132.6682390  94.0282620 121.1246600 132.8097380
  93.7591010 120.0390750 131.7894740 105.4728690 122.2400670 143.3300250
 104.7409810 122.7487480 143.6790350 105.0753030 121.4230650 143.0289030
 101.9106080 118.9154870 141.7352740 101.9142140 118.4744820 140.8857280
 102.8057200 119.2372200 141.8424560  97.7608460 118.7981360 140.6946950
  97.4208510 119.2756590 141.4514000  96.9985780 118.3446480 140.3348050
 101.9726230 119.9166950 134.7259500 102.0939050 119.8753430 135.6745320
 101.5874740 120.7791100 134.5706230 105.9354600 117.6934350 142.7423190
 105.9527340 118.1443000 143.5865040 105.6870180 116.7939990 142.9556630
 100.9847730 122.2268090 134.1242800 100.4164630 121.7786340 133.4978710
 101.6936730 122.5860870 133.5907950 109.3625350 115.1066530 148.5809570
 109.6871120 114.3756190 149.1067550 109.3981860 114.7880170 147.6790560
  96.0616910 126.1280110 148.0009530  95.6771700 125.4873780 148.5992490
  96.3729100 126.8316230 148.5704260 102.2114050 122.9756650 143.4818150
 102.5784180 122.5015220 144.2279490 102.0219110 123.8498220 143.8226490
  95.0754540 117.7200340 139.6111620  94.7901460 117.3556010 140.4490240
  95.0133400 116.9880800 138.9974760 100.0013420 122.0165290 145.8002360
  99.6970490 122.8957270 146.0252720 100.9559880 122.0765080 145.8359800
  98.5295210 126.2226280 136.3969210  97.7557470 125.6823900 136.2367930
  99.2589840 125.7032890 136.0586970 109.2883190 125.2191640 142.1895600
 110.0082310 125.7146930 141.7991710 109.0865010 124.5409530 141.5449470
 104.7493130 116.6129600 136.3324990 103.9357740 116.1142770 136.2570300
 104.5555080 117.4527850 135.9161340 104.6701990 125.2900700 148.0764600
 104.6039300 124.3696370 147.8222190 104.0407130 125.3876140 148.7909240
 107.4641520 120.9849250 134.6287150 108.3521140 121.2966480 134.4538490
 107.4346610 120.1121500 134.2367730  98.5732610 125.8906660 140.0348020
  99.0911280 125.0874920 139.9804910  98.1216630 125.8285800 140.8764850
 103.4602110 127.1572940 135.3075320 103.8017810 127.9015170 134.8118640
 102.6314820 127.4704060 135.6700150  96.0577150 122.8568030 146.9473720
  95.6992090 123.5221880 147.5347060  95.7631710 122.0251580 147.3186340
  99.2590270 123.3152270 149.8313270  98.9590410 123.4609450 148.9341090
 100.0301510 122.7557560 149.7386660 104.6018720 128.1121270 147.8268400
 104.6163260 127.1802230 147.6087310 103.8943820 128.1981030 148.4658170
 109.7355790 122.2961090 134.0967010 109.6519510 122.7275310 133.2463450
 110.4549980 122.7559440 134.5293830 110.8129930 124.7528610 147.1736980
 110.0878120 125.3457390 146.9766370 111.3405390 124.7452150 146.3750350
 110.7643040 129.1503350 136.8249140 110.1219200 128.4958970 137.0992860
 110.3773700 129.5558440 136.0489810 106.3429520 126.4788780 140.6720830
 106.6953340 125.8816910 140.0122200 105.4591850 126.1533010 140.8429080
 102.4292800 127.2386470 138.0791240 103.1163930 127.7855680 138.4598830
 101.6425220 127.7827200 138.1140850  94.5685200 122.8559290 133.5708320
  95.4380050 123.1384090 133.8544240  94.0775520 123.6695160 133.4557130
 101.7320010 124.2432500 137.6916600 102.1882790 125.0537750 137.9176790
 101.3808220 123.9255640 138.5235090 104.0352620 129.7538840 144.9208900
 104.6794840 129.9598220 145.5982320 104.3982060 128.9927240 144.4679750
  97.6331790 114.5870150 138.1639120  97.5046420 114.5788050 139.1124040
  96.8093810 114.9253240 137.8130130 105.3084700 127.7571190 143.6386350
 105.9506930 127.0564350 143.7518520 105.8334050 128.5369630 143.4583240
 109.1540420 128.0419810 133.3625490 108.9278000 127.3250250 133.9550130
 108.7636620 127.7932250 132.5247240 107.0822320 128.5566090 146.8422410
 107.4178560 129.1432780 147.5200330 106.1622660 128.4258800 147.0720200
  94.9356450 132.0686670 134.1369950  95.2954090 132.6676010 133.4827220
  94.7948790 132.6146560 134.9104980  94.6325720 116.3461270 147.6245820
  93.9184240 116.5458190 148.2298430  95.0520760 115.5700840 147.9960620
 108.7356670 125.9591750 135.0239650 108.4478370 126.4204440 135.8117530
 109.5308840 125.4989520 135.2923870  94.9198310 130.3341530 148.6112350
  95.0289430 129.3936270 148.4707740  94.2678870 130.5996280 147.9626080
 100.9525070 129.4517870 134.9543620 100.9435170 130.1847560 134.3388130
 100.0323430 129.2049450 135.0470580  96.5531710 124.6732760 135.6990380
  95.9459660 125.4131660 135.7085680  97.0281060 124.7632120 134.8728580
 106.1264500 118.8383580 145.3747270 106.4945320 118.0178790 145.7026840
 105.2662700 118.8985470 145.7902920 109.4926530 117.7940520 136.1834830
 108.8639690 117.8986190 135.4693060 108.9978450 118.0137300 136.9728710
 103.9384670 129.5146110 133.6168810 104.0396650 129.3110100 132.6870790
 103.0386410 129.2604390 133.8216590 101.4610560 120.0726470 137.5992710
 100.7526710 120.5412810 138.0406320 101.7455040 119.4148480 138.2337900
 103.0866490 121.4923170 145.5985240 103.5851740 121.9668990 146.2637090
 103.2289440 120.5686690 145.8055270 105.4925990 116.7977130 139.0388500
 105.3693770 116.8163260 138.0898010 106.4410550 116.8456070 139.1586900
 102.5802780 132.0332430 138.3116480 102.8344280 131.9953820 137.3895850
 101.6315260 131.9065760 138.3044730  99.6645580 118.3811550 134.9743420
 100.5136110 118.8181700 134.9083610  99.2976850 118.6931810 135.8015480
 110.2933350 117.7091130 146.4413630 109.7906950 118.4496530 146.7807440
 111.1090010 118.0975130 146.1250420 108.5855360 122.9524310 139.8874990
 107.6445500 122.9674540 140.0622680 108.8999430 122.1660270 140.3335290
  98.5637000 124.6343910 133.4478950  99.3300270 124.5225270 134.0104380
  98.6411690 123.9381880 132.7955720  97.2583760 122.0668980 134.1311840
  97.3387350 121.1196490 134.2429240  98.1503510 122.3975860 134.2372500
 110.5880940 130.1233160 141.5629250 110.7128360 130.9464330 142.0353060
 111.4546500 129.9123890 141.2153400  98.0598470 132.2164370 141.2346380
  98.7960950 131.6679830 141.5054950  98.4439390 133.0820380 141.0952370
  94.9443950 128.2837940 137.1087890  94.0183730 128.5259080 137.0993300
  95.4100380 129.1112200 136.9872640 101.1700780 131.3894680 133.0571950
 101.9629390 131.6783510 132.6053740 100.6505130 130.9586850 132.3784430
 107.3321750 131.2370600 148.9816780 108.2843500 131.1528620 148.9317020
 107.1849970 131.9012310 149.6550570 110.2230950 130.6164810 134.4808690
 109.9372460 130.2029950 133.6662870 110.0250500 131.5452520 134.3609210
  94.7854560 123.8883900 149.3668010  95.2893580 123.3091180 149.9384240
  94.0461980 124.1724130 149.9044380 101.6878180 126.6098090 132.9214300
 101.5828820 125.9950440 133.6475680 101.5202400 126.0863980 132.1377310
 101.8392500 125.2954890 148.9003530 101.0738170 125.8639890 148.8158200
 102.0208460 125.0031100 148.0071760 104.9280910 125.6718120 133.5256290
 104.3791010 126.1187420 134.1699030 105.5500170 125.1667370 134.0493960
 108.9815850 127.0260220 149.4578550 109.7225320 127.3635980 148.9546010
 108.2188530 127.1952280 148.9048320 100.5956030 124.6309040 135.4221590
 101.0172450 124.4648910 136.2652980 100.7206870 123.8209270 134.9276730
  98.7583450 120.6105590 148.2292570  98.2279910 120.1196540 147.6015910
  99.4271520 121.0389790 147.6950500 103.1083670 123.6546650 132.6698690
 103.6289330 122.9395670 132.3039840 103.7552070 124.2932520 132.9699200
 107.6561510 125.0775050 147.9933760 108.0702530 125.2320130 148.8424180
 106.7212510 125.2030270 148.1559540 108.1283680 122.4171210 149.9972910
 108.7104450 121.6623530 149.9093390 108.3045450 122.9478650 149.2204390
  99.2455750 117.5767960 148.3089860  99.1512620 116.9588710 147.5840730
  98.6653140 118.3034250 148.0819770 102.0117190 116.1341200 145.3417250
 101.5634490 116.1565460 144.4962800 101.3782390 115.7360220 145.9387550
 102.4176740 125.0295530 145.9629690 102.8364850 125.8728260 145.7905930
 101.4985370 125.1667570 145.7336470 104.7540640 122.7611710 147.3467530
 104.8736850 122.1652850 148.0862370 105.6134640 122.7981400 146.9268830
 107.0928540 123.3148900 145.9230040 106.5663760 123.8391520 145.3195180
 107.4359880 123.9476290 146.5539770  99.4914930 120.7042270 132.3679750
  99.2903990 119.8409630 132.7293090  99.3206980 120.6175630 131.4301350
 100.2684160 131.3348540 147.0787420  99.7305250 132.0594600 146.7596120
 100.5218120 130.8578880 146.2884760 101.5209410 119.3033060 148.6043350
 102.1109100 118.9948910 149.2921170 100.7029650 118.8312810 148.7603250
 106.3402840 118.9198870 148.8376370 105.6518360 118.2580410 148.7726360
 107.0608860 118.4737140 149.2824830 106.9703240 115.5150500 134.8966630
 107.2505530 114.6718400 135.2526050 106.1968970 115.7473610 135.4105380
  98.2897730 117.8042890 132.3557630  98.5923630 117.8110320 131.4476780
  99.0292320 117.4540750 132.8525290 103.1246370 132.5699750 147.3374070
 103.0505070 133.4734890 147.6446440 102.2225210 132.2511650 147.3096140
 101.5082660 116.7477510 133.3413830 101.1604660 116.0701500 132.7616280
 101.7095430 116.2867020 134.1557220 103.6731700 131.7358260 134.9600430
 104.5682490 132.0743230 134.9819190 103.7049330 131.0137670 134.3324710
  97.3127860 127.1085310 133.1887430  97.7502730 127.6514980 133.8445010
  97.7975590 126.2832260 133.1983770  94.5273660 129.8974340 140.6407690
  94.8576670 129.0295400 140.4086330  94.9564660 130.1032860 141.4712650
  99.1235580 128.2283350 138.3009660  98.8231120 128.1048320 139.2013570
  99.0173070 127.3691940 137.8925390  95.0163870 130.7644930 143.3789320
  94.5794860 130.9445730 144.2113470  95.5841550 131.5219550 143.2371040
 110.6526050 130.2661930 147.6666630 110.0528040 130.3254490 146.9230550
 110.7819950 129.3266910 147.7963480 111.8927500 128.0079750 133.0036340
 111.0620460 128.0756400 133.4743570 112.0699330 128.8983870 132.7003200
 111.3483960 124.7527230 135.5070540 112.1102870 125.3223880 135.6130230
 111.3638330 124.1854430 136.2778850  94.8488300 123.2765160 139.7378200
  94.1937140 123.0076800 139.0937900  95.6866250 123.1669640 139.2880180
 112.3543930 125.6077330 140.3512470 112.7252760 124.8244650 139.9448440
 112.9945860 126.2966430 140.1729770 109.3377690 126.9913910 145.7642790
 108.5237530 127.4211070 146.0268580 109.7451890 127.6032320 145.1511840
 111.4003130 125.0461600 132.6643060 111.6751970 125.9540480 132.5362280
 111.2113870 124.9824130 133.6005050 107.7978740 118.0706450 133.9596690
 108.2163620 117.8837430 133.1193350 107.4914800 117.2185500 134.2699620
 111.2968470 122.9830590 137.6572490 110.9212070 122.2158520 137.2253780
 110.5671590 123.3653290 138.1447420  95.8864230 123.6617730 144.2781540
  96.2537270 123.5745130 145.1577560  95.3175050 122.8984280 144.1788400
 110.6868090 122.1302110 147.2912010 110.4554180 121.9014860 146.3909960
 110.9472640 123.0501660 147.2456900  95.4380230 120.5726820 148.1839960
  94.5436280 120.5393580 148.5233670  95.9777780 120.7713610 148.9491210
  94.0626380 120.4864090 135.6803530  93.1590460 120.7494290 135.5055190
  94.5467000 120.7575260 134.9003490 110.5719430 121.2088080 140.9579730
 111.0956910 120.7150730 140.3269900 111.1578850 121.3438440 141.7027300
 110.7509150 121.2927950 144.4799280 109.8011860 121.2591490 144.5944270
 110.9322160 122.2028060 144.2449050  96.6053590 119.5429630 133.5897910
  97.3145290 119.1212850 133.1045190  95.8893530 119.6104860 132.9581260
  96.2527750 115.5968960 132.6300560  96.9755880 116.1377900 132.9481780
  96.5252270 115.3232380 131.7542100 110.0619400 120.4661430 136.8972140
 110.5578520 120.2332300 137.6821020 109.8635470 119.6273270 136.4809780
  95.9419940 114.8475150 142.5323180  96.5896130 114.2972530 142.0918340
  96.3621780 115.1018300 143.3538990 111.4906560 119.1022380 139.4309820
 111.3805840 118.9478420 140.3692090 112.2514150 118.5743320 139.1885230
 109.8372280 115.0416510 145.8892820 110.4744500 115.6550650 146.2552010
 109.9847170 115.0777170 144.9442050 112.3796830 116.9330300 132.6715960
 113.3046140 116.8011480 132.4634250 112.3572620 117.0123120 133.6252410
 112.4535320 117.7040960 135.2972670 111.6586820 117.6386080 135.8265580
 112.6578600 118.6391600 135.2858020 109.3953740 131.7432510 139.2911060
 109.9912810 131.4217080 138.6145480 109.6531890 131.2704330 140.0824330
  95.6951940 115.0030820 145.2748500  95.3466760 115.4594640 146.0406680
  95.3639640 114.1087950 145.3570930 101.0022340 129.7310010 145.0411410
 100.7613700 129.9984570 144.1541930 101.9424980 129.9015740 145.0962270
 103.2076760 116.1942700 148.7967920 103.1465650 116.7864530 149.5463330
 104.1477140 116.0868660 148.6518180 105.8451320 115.8512760 148.4360210
 106.4591730 116.1692050 147.7741290 106.3900880 115.3661350 149.0556070
 112.2626500 131.7504390 145.8422050 111.7684780 132.1473260 145.1249180
 111.6539790 131.1253600 146.2359330  96.3672580 114.5307020 148.5499270
  96.9155570 114.3495070 147.7865380  96.4327890 113.7401130 149.0855580
  97.1404340 131.1212670 146.5599470  96.5464660 130.9897370 147.2989510
  97.1328180 130.2850810 146.0941570 106.5859360 114.4144900 144.7629500
 105.7119200 114.7480010 144.5602430 106.4770110 113.9418080 145.5881370
 107.4931340 116.6215770 146.1471220 107.1644700 115.8067530 145.7672950
 108.4413640 116.5785580 146.0236910 109.9465950 132.3927810 143.1208790
 109.4868920 133.1443620 142.7466810 109.3178410 131.6734280 143.0623590
  96.7716570 128.4871050 145.5107510  96.0450630 127.8676340 145.4433460
  96.8325720 128.8811660 144.6405590 100.3761670 130.7016050 142.2956920
 100.8926690 130.0903410 141.7705180 101.0259050 131.2044830 142.7867930
 103.1157170 131.5924540 143.1225900 103.4034980 131.3378840 142.2458910
 103.6280390 131.0401900 143.7131470 104.3334180 115.3314740 143.7022410
 103.5505970 115.8060240 143.9819170 104.0397110 114.4269570 143.5935590
 108.8855250 116.0337840 141.7471500 109.3263340 115.9782940 140.8993100
 108.6162840 116.9495850 141.8181680 110.7493820 115.6653080 139.7580320
 110.6882220 114.7214300 139.6111340 111.5285850 115.7733170 140.3033780
  95.0546570 131.8045440 138.7204270  94.8868610 131.1716120 139.4186160
  94.1881080 132.0104840 138.3698460  95.6774590 115.6362220 136.2236130
  96.4353950 115.7491100 135.6500160  95.2151760 116.4731420 136.1779560
 102.2188400 117.7501490 139.2138440 101.4062910 117.3758380 138.8734320
 102.7230040 116.9946570 139.5159630 106.7213380 114.4143940 140.4521510
 107.3242750 114.9864150 140.9270030 105.9806370 114.9783380 140.2295410
 109.8647980 114.8165500 135.7261790 110.0598610 115.7148950 135.9929220
 109.0777850 114.5852580 136.2194740  96.6609270 130.4978670 136.1654410
  96.1356890 130.8786700 135.4616370  96.5853850 131.1229440 136.8864120
  98.0499740 116.1626270 134.7638100  98.5792500 115.3756070 134.6346050
  98.6828060 116.8417460 134.9973630 100.2437580 115.9001410 137.8183490
  99.6140320 115.1988720 137.9853620  99.7042720 116.6605540 137.6016650
 111.4174590 132.0566210 137.4868350 111.5926780 131.3703950 136.8429270
 110.7196160 132.5813260 137.0945020  99.2602240 132.4461050 135.0403660
  99.9921060 132.1620330 134.4927550  99.5195910 132.2074330 135.9303040
  98.4217030 128.5625780 135.0449990  97.7925910 129.0310880 135.5935820
  98.5364860 127.7175000 135.4796180 105.8766750 122.6131440 121.1951190
 105.7960800 121.6986050 120.9242900 105.4631170 123.1098510 120.4890900
 104.0084790 124.3910460 123.0760460 103.2326890 123.9110900 123.3659030
 104.6597720 123.7116110 122.9016620  98.0250620 124.7030270 123.9536220
  97.1935500 124.4478980 124.3532730  98.6331600 124.7741040 124.6894140
 108.0292220 128.7970650 121.8559590 107.5673750 128.0257890 122.1846760
 108.8417770 128.8236720 122.3612040  98.0051880 128.7370360 124.1494240
  98.3079920 127.8468100 123.9704460  98.7495470 129.2940580 123.9216490
  96.4342570 119.6632160 117.7378610  95.5459270 120.0048130 117.6358490
  96.7183760 119.4632480 116.8459440  94.3975580 122.2637810 123.6218310
  94.9691690 121.4960010 123.6221950  94.3977120 122.5626570 122.7124920
 104.2555530 131.0828660 121.4763580 103.6366970 131.5386160 120.9058020
 105.1107310 131.2380120 121.0753280 103.4493780 127.0667650 123.0830620
 103.3802060 126.1257590 122.9219750 104.2113640 127.1569060 123.6553190
  95.6400450 117.6722170 125.4087240  95.4603290 116.7747920 125.6890000
  95.2380530 118.2194040 126.0834190 104.4798950 119.8738030 123.3099550
 104.8563770 119.0009910 123.1973220 104.3818460 120.2096730 122.4189990
  98.6103960 118.2463660 118.7716990  98.7170710 119.1467390 119.0785750
  97.6996320 118.1981630 118.4811640 108.2623070 117.3688470 120.2427890
 109.0832690 116.8785040 120.2853370 108.2957150 117.9586130 120.9959730
  96.2587120 120.1682670 124.0169580  96.9397230 120.4321040 124.6356980
  95.9435170 119.3283540 124.3507590 100.4511690 121.2150030 123.1042170
 100.9589910 121.7131000 123.7447190 100.9824930 120.4385230 122.9281530
 112.5522620 119.3855220 126.8071520 111.8474790 119.7736930 126.2886630
 112.8180540 120.0805510 127.4092450  98.7347790 115.8548590 127.3705590
  98.7366230 116.3720980 126.5651490  97.9052100 115.3778770 127.3475520
 105.1218880 125.9667900 118.8695490 104.5036150 126.4317350 118.3058210
 105.6342130 126.6595380 119.2865000  99.9850640 125.4943770 125.5479090
  99.6520020 126.1212690 126.1900160 100.1617320 126.0205650 124.7680760
 108.4984550 119.3088850 123.0155430 107.7940120 119.5973740 123.5958540
 108.8596710 120.1188960 122.6554990  98.4163120 117.5658550 125.3776040
  98.7579930 118.4100600 125.0829910  97.4778930 117.7142290 125.4941380
  99.1969740 127.4624570 127.3628270  99.8143740 128.1375650 127.0812720
  98.3362860 127.8712550 127.2715770  94.4902080 126.6524430 116.2435120
  94.1130060 127.1411530 115.5120020  94.7475150 127.3249710 116.8741650
 110.1147330 128.9263980 125.2782910 109.4310850 129.5963090 125.2699580
 110.6541620 129.1244630 124.5127770 111.5671470 118.7543640 123.4064640
 110.6196380 118.7882620 123.5380070 111.8921460 119.5682590 123.7914000
 102.0991010 115.0540820 121.7020630 102.4065990 114.4987710 120.9856130
 101.1691710 115.1885280 121.5193620 107.6506070 130.7708110 123.9928090
 107.6633230 130.3670400 123.1250350 107.0981290 131.5455400 123.8889520
 108.9451490 127.4924330 119.0818260 108.8347820 126.5498660 119.2067680
 108.9419740 127.8539970 119.9681020 107.0491510 125.6737950 125.3210700
 107.4660300 125.4598060 124.4864160 107.7731330 125.9310740 125.8919320
 104.4871770 123.1189650 118.4380750 103.5601050 123.0527030 118.6669220
 104.6396590 124.0569780 118.3235990 104.4740850 119.3906650 115.4347910
 103.5344520 119.5520610 115.5200370 104.7924110 120.1092330 114.8883900
 110.9953610 124.0725170 125.4126940 110.1672240 124.1418260 124.9377070
 111.5904090 124.6579480 124.9442770 108.5169060 124.6809950 118.9416000
 107.8981480 124.3429500 118.2942300 108.4993510 124.0369710 119.6495190
 107.9595620 120.8594490 126.3581810 107.5466800 121.6848200 126.6121800
 107.2271570 120.2739530 126.1658170 100.0928410 123.6454390 121.2200480
  99.6885410 122.9331640 120.7246380 100.1791530 123.3007630 122.1088520
 100.5610110 127.3321950 123.3839690 100.2638400 126.7267420 122.7047470
 101.5109930 127.3699260 123.2729050  98.8057030 120.4197600 124.9999520
  99.3571620 120.5292940 124.2252770  99.3200540 120.7935200 125.7154750
 108.6495720 130.9053820 127.0462790 108.1726280 131.7126010 126.8535400
 107.9657510 130.2532150 127.1989000  99.6528540 127.0703640 130.0347490
  98.7557070 127.2943610 130.2820890  99.6781410 127.1938580 129.0858890
 106.6933760 123.9196760 115.9488750 107.1327040 123.0819190 115.8026570
 107.4062180 124.5526160 116.0352890  98.4799760 123.9416960 128.6104860
  98.3407530 124.8139760 128.9792260  97.5981120 123.5989770 128.4652800
 104.8029140 128.8592830 119.9169990 105.2425050 129.6017160 119.5025380
 104.7416030 129.1019400 120.8408950 100.2780110 129.8838660 130.8190010
 100.2495540 130.2881610 129.9518440 100.1145080 128.9549020 130.6561610
 110.2750900 115.1739570 114.2629790 109.9623560 115.2666400 115.1628860
 111.0363370 115.7520600 114.2127220  96.7933040 122.5399370 118.7207130
  96.6730640 123.2661460 118.1088400  96.4833930 121.7702280 118.2435040
 112.2294930 130.6665760 132.1154180 112.7054650 131.1448650 132.7943260
 112.8502090 130.5983250 131.3899680  94.4318410 125.7114510 124.5275770
  94.5098830 125.8463280 123.5831490  95.0460090 125.0030400 124.7203890
  95.6766040 127.4114700 120.9381950  95.2694120 127.5529290 120.0835550
  96.5679050 127.1274860 120.7353160 111.6328180 127.8578610 129.2754190
 111.7591240 127.6190490 128.3571370 111.6749560 127.0263150 129.7476270
 105.4944920 131.5606610 127.8449000 106.0089590 131.4714620 128.6471430
 104.6514000 131.9066310 128.1376910 107.4699320 131.8461950 117.2733000
 107.3100460 131.5564890 118.1714830 107.3046030 131.0702080 116.7378230
  99.9487700 131.6260480 119.0504620  99.7730180 130.7096020 118.8372420
  99.0943440 131.9847770 119.2902420 107.1725450 129.3549510 115.8331000
 106.4790610 129.3526800 115.1733280 107.9148310 128.9308830 115.4025170
 106.7375380 130.9812220 119.9079490 107.1932330 130.2001600 120.2218110
 107.0767900 131.6919040 120.4520670 111.4852190 119.9111070 130.2403930
 110.8696460 120.4190740 129.7119390 111.1648610 119.0109400 130.1829870
  94.4877930 126.7528680 127.0670230  94.6508970 126.2834040 126.2489600
  94.9530380 126.2452240 127.7319070  99.2596700 115.8834440 122.1030800
  98.8164850 116.6643980 121.7715320  99.8181690 116.2064330 122.8101740
 103.5466510 118.7502960 127.7066120 103.0845880 118.9585980 128.5186060
 103.1444620 117.9362310 127.4036790 108.5471020 119.9711910 128.8362780
 107.6964610 119.6717660 129.1571850 108.3872810 120.2153920 127.9246600
 105.6420730 121.4713660 130.9361570 105.9674140 120.6377410 130.5963800
 106.4301060 121.9942180 131.0839900 102.3755520 115.5045140 116.9836630
 101.7509700 115.5005010 117.7089940 102.2885640 114.6376100 116.5872600
 101.2972600 116.4281770 123.9620400 101.5944930 117.3344600 123.8812420
 101.8458160 115.9400550 123.3479970  99.0510920 121.0068010 119.8312050
  98.8251840 120.7905180 120.7358670  98.2703450 121.4396470 119.4858020
 106.2808680 121.0131380 118.4302700 105.6817570 121.7367180 118.2466320
 106.8288290 120.9508160 117.6479150 101.4910130 121.9053590 130.4972320
 101.3953730 120.9648320 130.3472720 102.3342110 122.1268660 130.1020390
 104.8873550 119.6494920 120.4605980 105.2803120 119.9667120 119.6474670
 105.2490400 118.7706800 120.5750500  96.6220670 118.3167260 128.6506100
  96.2284060 119.1642470 128.8578880  95.9339070 117.6793630 128.8414740
 103.1965720 118.4002230 131.7202840 102.5064040 118.2074430 132.3548930
 103.9398020 118.6836870 132.2527140  93.9237720 116.2395720 122.6836180
  93.6350770 116.8098580 123.3961160  94.6683480 115.7600170 123.0467410
  94.1107950 120.1815840 113.8938900  94.0282620 121.1246600 114.0353890
  93.7591010 120.0390750 113.0151250 105.4728690 122.2400670 124.5556760
 104.7409810 122.7487480 124.9046860 105.0753030 121.4230650 124.2545540
 101.9106080 118.9154870 122.9609250 101.9142140 118.4744820 122.1113790
 102.8057200 119.2372200 123.0681070  97.7608460 118.7981360 121.9203460
  97.4208510 119.2756590 122.6770510  96.9985780 118.3446480 121.5604560
 101.9726230 119.9166950 115.9516010 102.0939050 119.8753430 116.9001830
 101.5874740 120.7791100 115.7962740 105.9354600 117.6934350 123.9679700
 105.9527340 118.1443000 124.8121550 105.6870180 116.7939990 124.1813140
 100.9847730 122.2268090 115.3499310 100.4164630 121.7786340 114.7235220
 101.6936730 122.5860870 114.8164460 109.3625350 115.1066530 129.8066080
 109.6871120 114.3756190 130.3324060 109.3981860 114.7880170 128.9047070
  96.0616910 126.1280110 129.2266040  95.6771700 125.4873780 129.8249000
  96.3729100 126.8316230 129.7960770 102.2114050 122.9756650 124.7074660
 102.5784180 122.5015220 125.4536000 102.0219110 123.8498220 125.0483000
  95.0754540 117.7200340 120.8368130  94.7901460 117.3556010 121.6746750
  95.0133400 116.9880800 120.2231270 100.0013420 122.0165290 127.0258870
  99.6970490 122.8957270 127.2509230 100.9559880 122.0765080 127.0616310
  98.5295210 126.2226280 117.6225720  97.7557470 125.6823900 117.4624440
  99.2589840 125.7032890 117.2843480 109.2883190 125.2191640 123.4152110
 110.0082310 125.7146930 123.0248220 109.0865010 124.5409530 122.7705980
 104.7493130 116.6129600 117.5581500 103.9357740 116.1142770 117.4826810
 104.5555080 117.4527850 117.1417850 104.6701990 125.2900700 129.3021110
 104.6039300 124.3696370 129.0478700 104.0407130 125.3876140 130.0165750
 107.4641520 120.9849250 115.8543660 108.3521140 121.2966480 115.6795000
 107.4346610 120.1121500 115.4624240  98.5732610 125.8906660 121.2604530
  99.0911280 125.0874920 121.2061420  98.1216630 125.8285800 122.1021360
 103.4602110 127.1572940 116.5331830 103.8017810 127.9015170 116.0375150
 102.6314820 127.4704060 116.8956660  96.0577150 122.8568030 128.1730230
  95.6992090 123.5221880 128.7603570  95.7631710 122.0251580 128.5442850
  99.2590270 123.3152270 131.0569780  98.9590410 123.4609450 130.1597600
 100.0301510 122.7557560 130.9643170 104.6018720 128.1121270 129.0524910
 104.6163260 127.1802230 128.8343820 103.8943820 128.1981030 129.6914680
 109.7355790 122.2961090 115.3223520 109.6519510 122.7275310 114.4719960
 110.4549980 122.7559440 115.7550340 110.8129930 124.7528610 128.3993490
 110.0878120 125.3457390 128.2022880 111.3405390 124.7452150 127.6006860
 110.7643040 129.1503350 118.0505650 110.1219200 128.4958970 118.3249370
 110.3773700 129.5558440 117.2746320 106.3429520 126.4788780 121.8977340
 106.6953340 125.8816910 121.2378710 105.4591850 126.1533010 122.0685590
 102.4292800 127.2386470 119.3047750 103.1163930 127.7855680 119.6855340
 101.6425220 127.7827200 119.3397360  94.5685200 122.8559290 114.7964830
  95.4380050 123.1384090 115.0800750  94.0775520 123.6695160 114.6813640
 101.7320010 124.2432500 118.9173110 102.1882790 125.0537750 119.1433300
 101.3808220 123.9255640 119.7491600 104.0352620 129.7538840 126.1465410
 104.6794840 129.9598220 126.8238830 104.3982060 128.9927240 125.6936260
  97.6331790 114.5870150 119.3895630  97.5046420 114.5788050 120.3380550
  96.8093810 114.9253240 119.0386640 105.3084700 127.7571190 124.8642860
 105.9506930 127.0564350 124.9775030 105.8334050 128.5369630 124.6839750
 109.1540420 128.0419810 114.5882000 108.9278000 127.3250250 115.1806640
 108.7636620 127.7932250 113.7503750 107.0822320 128.5566090 128.0678920
 107.4178560 129.1432780 128.7456840 106.1622660 128.4258800 128.2976710
  94.9356450 132.0686670 115.3626460  95.2954090 132.6676010 114.7083730
  94.7948790 132.6146560 116.1361490  94.6325720 116.3461270 128.8502330
  93.9184240 116.5458190 129.4554940  95.0520760 115.5700840 129.2217130
 108.7356670 125.9591750 116.2496160 108.4478370 126.4204440 117.0374040
 109.5308840 125.4989520 116.5180380  94.9198310 130.3341530 129.8368860
  95.0289430 129.3936270 129.6964250  94.2678870 130.5996280 129.1882590
 102.9110900 128.6057420 131.2366980 102.5907770 127.8866660 131.7812670
 102.2369260 129.2812490 131.3103040 100.9525070 129.4517870 116.1800130
 100.9435170 130.1847560 115.5644640 100.0323430 129.2049450 116.2727090
  96.5531710 124.6732760 116.9246890  95.9459660 125.4131660 116.9342190
  97.0281060 124.7632120 116.0985090 106.1264500 118.8383580 126.6003780
 106.4945320 118.0178790 126.9283350 105.2662700 118.8985470 127.0159430
 109.4926530 117.7940520 117.4091340 108.8639690 117.8986190 116.6949570
 108.9978450 118.0137300 118.1985220 103.9384670 129.5146110 114.8425320
 104.0396650 129.3110100 113.9127300 103.0386410 129.2604390 115.0473100
 101.4610560 120.0726470 118.8249220 100.7526710 120.5412810 119.2662830
 101.7455040 119.4148480 119.4594410 103.0866490 121.4923170 126.8241750
 103.5851740 121.9668990 127.4893600 103.2289440 120.5686690 127.0311780
 105.4925990 116.7977130 120.2645010 105.3693770 116.8163260 119.3154520
 106.4410550 116.8456070 120.3843410 102.5802780 132.0332430 119.5372990
 102.8344280 131.9953820 118.6152360 101.6315260 131.9065760 119.5301240
  99.6645580 118.3811550 116.1999930 100.5136110 118.8181700 116.1340120
  99.2976850 118.6931810 117.0271990 110.2933350 117.7091130 127.6670140
 109.7906950 118.4496530 128.0063950 111.1090010 118.0975130 127.3506930
 108.5855360 122.9524310 121.1131500 107.6445500 122.9674540 121.2879190
 108.8999430 122.1660270 121.5591800  98.5637000 124.6343910 114.6735460
  99.3300270 124.5225270 115.2360890  98.6411690 123.9381880 114.0212230
  97.2583760 122.0668980 115.3568350  97.3387350 121.1196490 115.4685750
  98.1503510 122.3975860 115.4629010 110.5880940 130.1233160 122.7885760
 110.7128360 130.9464330 123.2609570 111.4546500 129.9123890 122.4409910
  98.0598470 132.2164370 122.4602890  98.7960950 131.6679830 122.7311460
  98.4439390 133.0820380 122.3208880  94.9443950 128.2837940 118.3344400
  94.0183730 128.5259080 118.3249810  95.4100380 129.1112200 118.2129150
  97.0656750 131.4010440 131.6488470  97.8669480 131.7222490 132.0623870
  96.5508570 131.0406020 132.3708380 101.1700780 131.3894680 114.2828460
 101.9629390 131.6783510 113.8310250 100.6505130 130.9586850 113.6040940
 105.9021380 127.5090310 131.5963880 105.2959540 127.5321910 130.8559630
 105.5975490 126.7773350 132.1331130 107.3321750 131.2370600 130.2073290
 108.2843500 131.1528620 130.1573530 107.1849970 131.9012310 130.8807080
 110.2230950 130.6164810 115.7065200 109.9372460 130.2029950 114.8919380
 110.0250500 131.5452520 115.5865720  94.7854560 123.8883900 130.5924520
  95.2893580 123.3091180 131.1640750  94.0461980 124.1724130 131.1300890
 101.6878180 126.6098090 114.1470810 101.5828820 125.9950440 114.8732190
 101.5202400 126.0863980 113.3633820 101.8392500 125.2954890 130.1260040
 101.0738170 125.8639890 130.0414710 102.0208460 125.0031100 129.2328270
 104.9280910 125.6718120 114.7512800 104.3791010 126.1187420 115.3955540
 105.5500170 125.1667370 115.2750470 108.9815850 127.0260220 130.6835060
 109.7225320 127.3635980 130.1802520 108.2188530 127.1952280 130.1304830
  96.8177640 122.0313490 131.4874590  96.8582980 121.7327360 132.3959820
  97.6723140 122.4321100 131.3282110 100.5956030 124.6309040 116.6478100
 101.0172450 124.4648910 117.4909490 100.7206870 123.8209270 116.1533240
  98.7583450 120.6105590 129.4549080  98.2279910 120.1196540 128.8272420
  99.4271520 121.0389790 128.9207010 103.1083670 123.6546650 113.8955200
 103.6289330 122.9395670 113.5296350 103.7552070 124.2932520 114.1955710
 107.6561510 125.0775050 129.2190270 108.0702530 125.2320130 130.0680690
 106.7212510 125.2030270 129.3816050 108.1283680 122.4171210 131.2229420
 108.7104450 121.6623530 131.1349900 108.3045450 122.9478650 130.4460900
  99.2455750 117.5767960 129.5346370  99.1512620 116.9588710 128.8097240
  98.6653140 118.3034250 129.3076280 102.0117190 116.1341200 126.5673760
 101.5634490 116.1565460 125.7219310 101.3782390 115.7360220 127.1644060
 102.4176740 125.0295530 127.1886200 102.8364850 125.8728260 127.0162440
 101.4985370 125.1667570 126.9592980 104.7540640 122.7611710 128.5724040
 104.8736850 122.1652850 129.3118880 105.6134640 122.7981400 128.1525340
 107.0928540 123.3148900 127.1486550 106.5663760 123.8391520 126.5451690
 107.4359880 123.9476290 127.7796280 100.2684160 131.3348540 128.3043930
  99.7305250 132.0594600 127.9852630 100.5218120 130.8578880 127.5141270
 101.5209410 119.3033060 129.8299860 102.1109100 118.9948910 130.5177680
 100.7029650 118.8312810 129.9859760 106.3402840 118.9198870 130.0632880
 105.6518360 118.2580410 129.9982870 107.0608860 118.4737140 130.5081340
 106.9703240 115.5150500 116.1223140 107.2505530 114.6718400 116.4782560
 106.1968970 115.7473610 116.6361890 103.1246370 132.5699750 128.5630580
 103.0505070 133.4734890 128.8702950 102.2225210 132.2511650 128.5352650
 103.6731700 131.7358260 116.1856940 104.5682490 132.0743230 116.2075700
 103.7049330 131.0137670 115.5581220  97.3127860 127.1085310 114.4143940
  97.7502730 127.6514980 115.0701520  97.7975590 126.2832260 114.4240280
  94.5273660 129.8974340 121.8664200  94.8576670 129.0295400 121.6342840
  94.9564660 130.1032860 122.6969160  99.1235580 128.2283350 119.5266170
  98.8231120 128.1048320 120.4270080  99.0173070 127.3691940 119.1181900
  95.0163870 130.7644930 124.6045830  94.5794860 130.9445730 125.4369980
  95.5841550 131.5219550 124.4627550 110.6526050 130.2661930 128.8923140
 110.0528040 130.3254490 128.1487060 110.7819950 129.3266910 129.0219990
 111.8927500 128.0079750 114.2292850 111.0620460 128.0756400 114.7000080
 112.0699330 128.8983870 113.9259710 111.3483960 124.7527230 116.7327050
 112.1102870 125.3223880 116.8386740 111.3638330 124.1854430 117.5035360
  94.8488300 123.2765160 120.9634710  94.1937140 123.0076800 120.3194410
  95.6866250 123.1669640 120.5136690 112.3543930 125.6077330 121.5768980
 112.7252760 124.8244650 121.1704950 112.9945860 126.2966430 121.3986280
 109.3377690 126.9913910 126.9899300 108.5237530 127.4211070 127.2525090
 109.7451890 127.6032320 126.3768350 111.4003130 125.0461600 113.8899570
 111.6751970 125.9540480 113.7618790 111.2113870 124.9824130 114.8261560
 107.7978740 118.0706450 115.1853200 108.2163620 117.8837430 114.3449860
 107.4914800 117.2185500 115.4956130 111.2968470 122.9830590 118.8829000
 110.9212070 122.2158520 118.4510290 110.5671590 123.3653290 119.3703930
  95.8864230 123.6617730 125.5038050  96.2537270 123.5745130 126.3834070
  95.3175050 122.8984280 125.4044910 110.6868090 122.1302110 128.5168520
 110.4554180 121.9014860 127.6166470 110.9472640 123.0501660 128.4713410
  95.4380230 120.5726820 129.4096470  94.5436280 120.5393580 129.7490180
  95.9777780 120.7713610 130.1747720 109.1256160 117.3558540 131.2948220
 110.0026340 117.3641940 131.6782220 109.1377000 116.6189380 130.6840570
  94.0626380 120.4864090 116.9060040  93.1590460 120.7494290 116.7311700
  94.5467000 120.7575260 116.1260000 110.5719430 121.2088080 122.1836240
 111.0956910 120.7150730 121.5526410 111.1578850 121.3438440 122.9283810
 110.7509150 121.2927950 125.7055790 109.8011860 121.2591490 125.8200780
 110.9322160 122.2028060 125.4705560  96.6053590 119.5429630 114.8154420
  97.3145290 119.1212850 114.3301700  95.8893530 119.6104860 114.1837770
 110.0619400 120.4661430 118.1228650 110.5578520 120.2332300 118.9077530
 109.8635470 119.6273270 117.7066290  95.9419940 114.8475150 123.7579690
  96.5896130 114.2972530 123.3174850  96.3621780 115.1018300 124.5795500
 111.4906560 119.1022380 120.6566330 111.3805840 118.9478420 121.5948600
 112.2514150 118.5743320 120.4141740 109.8372280 115.0416510 127.1149330
 110.4744500 115.6550650 127.4808520 109.9847170 115.0777170 126.1698560
 112.3796830 116.9330300 113.8972470 113.3046140 116.8011480 113.6890760
 112.3572620 117.0123120 114.8508920 112.4535320 117.7040960 116.5229180
 111.6586820 117.6386080 117.0522090 112.6578600 118.6391600 116.5114530
 109.3953740 131.7432510 120.5167570 109.9912810 131.4217080 119.8401990
 109.6531890 131.2704330 121.3080840  95.6951940 115.0030820 126.5005010
  95.3466760 115.4594640 127.2663190  95.3639640 114.1087950 126.5827440
  97.3016310 128.1750420 130.6658200  97.2585940 127.8043330 131.5472660
  97.4327320 129.1127990 130.8060020 101.0022340 129.7310010 126.2667920
 100.7613700 129.9984570 125.3798440 101.9424980 129.9015740 126.3218780
 103.2076760 116.1942700 130.0224430 103.1465650 116.7864530 130.7719840
 104.1477140 116.0868660 129.8774690 105.8451320 115.8512760 129.6616720
 106.4591730 116.1692050 128.9997800 106.3900880 115.3661350 130.2812580
 112.2626500 131.7504390 127.0678560 111.7684780 132.1473260 126.3505690
 111.6539790 131.1253600 127.4615840  96.3672580 114.5307020 129.7755780
  96.9155570 114.3495070 129.0121890  96.4327890 113.7401130 130.3112090
  97.1404340 131.1212670 127.7855980  96.5464660 130.9897370 128.5246020
  97.1328180 130.2850810 127.3198080 106.5859360 114.4144900 125.9886010
 105.7119200 114.7480010 125.7858940 106.4770110 113.9418080 126.8137880
 107.4931340 116.6215770 127.3727730 107.1644700 115.8067530 126.9929460
 108.4413640 116.5785580 127.2493420 109.9465950 132.3927810 124.3465300
 109.4868920 133.1443620 123.9723320 109.3178410 131.6734280 124.2880100
  96.7716570 128.4871050 126.7364020  96.0450630 127.8676340 126.6689970
  96.8325720 128.8811660 125.8662100 100.3761670 130.7016050 123.5213430
 100.8926690 130.0903410 122.9961690 101.0259050 131.2044830 124.0124440
 103.1157170 131.5924540 124.3482410 103.4034980 131.3378840 123.4715420
 103.6280390 131.0401900 124.9387980 104.3334180 115.3314740 124.9278920
 103.5505970 115.8060240 125.2075680 104.0397110 114.4269570 124.8192100
 108.8855250 116.0337840 122.9728010 109.3263340 115.9782940 122.1249610
 108.6162840 116.9495850 123.0438190 110.7493820 115.6653080 120.9836830
 110.6882220 114.7214300 120.8367850 111.5285850 115.7733170 121.5290290
  95.0546570 131.8045440 119.9460780  94.8868610 131.1716120 120.6442670
  94.1881080 132.0104840 119.5954970  95.6774590 115.6362220 117.4492640
  96.4353950 115.7491100 116.8756670  95.2151760 116.4731420 117.4036070
 102.2188400 117.7501490 120.4394950 101.4062910 117.3758380 120.0990830
 102.7230040 116.9946570 120.7416140 106.7213380 114.4143940 121.6778020
 107.3242750 114.9864150 122.1526540 105.9806370 114.9783380 121.4551920
 109.8647980 114.8165500 116.9518300 110.0598610 115.7148950 117.2185730
 109.0777850 114.5852580 117.4451250  96.6609270 130.4978670 117.3910920
  96.1356890 130.8786700 116.6872880  96.5853850 131.1229440 118.1120630
  98.0499740 116.1626270 115.9894610  98.5792500 115.3756070 115.8602560
  98.6828060 116.8417460 116.2230140 100.2437580 115.9001410 119.0440000
  99.6140320 115.1988720 119.2110130  99.7042720 116.6605540 118.8273160
 103.1829530 132.5140640 131.7150610 104.1096840 132.2784910 131.7586570
 103.1679960 133.3412640 131.2336640 111.4174590 132.0566210 118.7124860
 111.5926780 131.3703950 118.0685780 110.7196160 132.5813260 118.3201530
 100.3693140 115.1785390 131.4792490 100.0877410 115.6818990 130.7153310
 100.7512840 114.3807140 131.1134620  99.2602240 132.4461050 116.2660170
  99.9921060 132.1620330 115.7184060  99.5195910 132.2074330 117.1559550
  98.4217030 128.5625780 116.2706500  97.7925910 129.0310880 116.8192330
  98.5364860 127.7175000 116.7052690 106.9708600 114.5938970 132.0572960
 106.8574050 114.9133580 132.9524480 107.7878340 114.9951480 131.7610240
 109.7507090 131.7410500 131.5391650 110.5432410 131.2459730 131.3317610
 110.0440240 132.4200640 132.1467260 105.8766750 122.6131440 102.4207700
 105.7960800 121.6986050 102.1499410 105.4631170 123.1098510 101.7147410
 104.0084790 124.3910460 104.3016970 103.2326890 123.9110900 104.5915540
 104.6597720 123.7116110 104.1273130  98.0250620 124.7030270 105.1792730
  97.1935500 124.4478980 105.5789240  98.6331600 124.7741040 105.9150650
 108.0292220 128.7970650 103.0816100 107.5673750 128.0257890 103.4103270
 108.8417770 128.8236720 103.5868550  98.0051880 128.7370360 105.3750750
  98.3079920 127.8468100 105.1960970  98.7495470 129.2940580 105.1473000
  94.3975580 122.2637810 104.8474820  94.9691690 121.4960010 104.8478460
  94.3977120 122.5626570 103.9381430 104.2555530 131.0828660 102.7020090
 103.6366970 131.5386160 102.1314530 105.1107310 131.2380120 102.3009790
 103.4493780 127.0667650 104.3087130 103.3802060 126.1257590 104.1476260
 104.2113640 127.1569060 104.8809700  95.6400450 117.6722170 106.6343750
  95.4603290 116.7747920 106.9146510  95.2380530 118.2194040 107.3090700
 104.4798950 119.8738030 104.5356060 104.8563770 119.0009910 104.4229730
 104.3818460 120.2096730 103.6446500  98.6103960 118.2463660  99.9973500
  98.7170710 119.1467390 100.3042260  97.6996320 118.1981630  99.7068150
 108.2623070 117.3688470 101.4684400 109.0832690 116.8785040 101.5109880
 108.2957150 117.9586130 102.2216240 112.5522620 119.3855220 108.0328030
 111.8474790 119.7736930 107.5143140 112.8180540 120.0805510 108.6348960
 105.1218880 125.9667900 100.0952000 104.5036150 126.4317350  99.5314720
 105.6342130 126.6595380 100.5121510  99.9850640 125.4943770 106.7735600
  99.6520020 126.1212690 107.4156670 100.1617320 126.0205650 105.9937270
 108.4984550 119.3088850 104.2411940 107.7940120 119.5973740 104.8215050
 108.8596710 120.1188960 103.8811500  98.4163120 117.5658550 106.6032550
  98.7579930 118.4100600 106.3086420  97.4778930 117.7142290 106.7197890
  99.1969740 127.4624570 108.5884780  99.8143740 128.1375650 108.3069230
  98.3362860 127.8712550 108.4972280 110.1147330 128.9263980 106.5039420
 109.4310850 129.5963090 106.4956090 110.6541620 129.1244630 105.7384280
 111.5671470 118.7543640 104.6321150 110.6196380 118.7882620 104.7636580
 111.8921460 119.5682590 105.0170510 102.0991010 115.0540820 102.9277140
 102.4065990 114.4987710 102.2112640 101.1691710 115.1885280 102.7450130
 107.6506070 130.7708110 105.2184600 107.6633230 130.3670400 104.3506860
 107.0981290 131.5455400 105.1146030 108.9451490 127.4924330 100.3074770
 108.8347820 126.5498660 100.4324190 108.9419740 127.8539970 101.1937530
 107.0491510 125.6737950 106.5467210 107.4660300 125.4598060 105.7120670
 107.7731330 125.9310740 107.1175830 104.4871770 123.1189650  99.6637260
 103.5601050 123.0527030  99.8925730 104.6396590 124.0569780  99.5492500
 104.4740850 119.3906650  96.6604420 103.5344520 119.5520610  96.7456880
 104.7924110 120.1092330  96.1140410 110.9953610 124.0725170 106.6383450
 110.1672240 124.1418260 106.1633580 111.5904090 124.6579480 106.1699280
 108.5169060 124.6809950 100.1672510 107.8981480 124.3429500  99.5198810
 108.4993510 124.0369710 100.8751700 107.9595620 120.8594490 107.5838320
 107.5466800 121.6848200 107.8378310 107.2271570 120.2739530 107.3914680
 100.5610110 127.3321950 104.6096200 100.2638400 126.7267420 103.9303980
 101.5109930 127.3699260 104.4985560 108.6495720 130.9053820 108.2719300
 108.1726280 131.7126010 108.0791910 107.9657510 130.2532150 108.4245510
  99.6528540 127.0703640 111.2604000  98.7557070 127.2943610 111.5077400
  99.6781410 127.1938580 110.3115400 106.6933760 123.9196760  97.1745260
 107.1327040 123.0819190  97.0283080 107.4062180 124.5526160  97.2609400
  98.4799760 123.9416960 109.8361370  98.3407530 124.8139760 110.2048770
  97.5981120 123.5989770 109.6909310 104.8029140 128.8592830 101.1426500
 105.2425050 129.6017160 100.7281890 104.7416030 129.1019400 102.0665460
 100.2780110 129.8838660 112.0446520 100.2495540 130.2881610 111.1774950
 100.1145080 128.9549020 111.8818120 110.2750900 115.1739570  95.4886300
 109.9623560 115.2666400  96.3885370 111.0363370 115.7520600  95.4383730
 112.2294930 130.6665760 113.3410690 112.7054650 131.1448650 114.0199770
 112.8502090 130.5983250 112.6156190  94.4318410 125.7114510 105.7532280
  94.5098830 125.8463280 104.8088000  95.0460090 125.0030400 105.9460400
  95.6766040 127.4114700 102.1638460  95.2694120 127.5529290 101.3092060
  96.5679050 127.1274860 101.9609670 111.6328180 127.8578610 110.5010700
 111.7591240 127.6190490 109.5827880 111.6749560 127.0263150 110.9732780
 105.4944920 131.5606610 109.0705510 106.0089590 131.4714620 109.8727940
 104.6514000 131.9066310 109.3633420 107.4699320 131.8461950  98.4989510
 107.3100460 131.5564890  99.3971340 107.3046030 131.0702080  97.9634740
  99.9487700 131.6260480 100.2761130  99.7730180 130.7096020 100.0628930
  99.0943440 131.9847770 100.5158930 107.1725450 129.3549510  97.0587510
 106.4790610 129.3526800  96.3989790 107.9148310 128.9308830  96.6281680
 106.7375380 130.9812220 101.1336000 107.1932330 130.2001600 101.4474620
 107.0767900 131.6919040 101.6777180 111.4852190 119.9111070 111.4660440
 110.8696460 120.4190740 110.9375900 111.1648610 119.0109400 111.4086380
  94.4877930 126.7528680 108.2926740  94.6508970 126.2834040 107.4746110
  94.9530380 126.2452240 108.9575580  99.2596700 115.8834440 103.3287310
  98.8164850 116.6643980 102.9971830  99.8181690 116.2064330 104.0358250
 105.6420730 121.4713660 112.1618080 105.9674140 120.6377410 111.8220310
 106.4301060 121.9942180 112.3096410 102.3755520 115.5045140  98.2093140
 101.7509700 115.5005010  98.9346450 102.2885640 114.6376100  97.8129110
 101.2972600 116.4281770 105.1876910 101.5944930 117.3344600 105.1068930
 101.8458160 115.9400550 104.5736480 106.2808680 121.0131380  99.6559210
 105.6817570 121.7367180  99.4722830 106.8288290 120.9508160  98.8735660
 104.8873550 119.6494920 101.6862490 105.2803120 119.9667120 100.8731180
 105.2490400 118.7706800 101.8007010  96.6220670 118.3167260 109.8762610
  96.2284060 119.1642470 110.0835390  95.9339070 117.6793630 110.0671250
  94.1107950 120.1815840  95.1195410  94.0282620 121.1246600  95.2610400
  93.7591010 120.0390750  94.2407760 105.4728690 122.2400670 105.7813270
 104.7409810 122.7487480 106.1303370 105.0753030 121.4230650 105.4802050
 101.9106080 118.9154870 104.1865760 101.9142140 118.4744820 103.3370300
 102.8057200 119.2372200 104.2937580 101.9726230 119.9166950  97.1772520
 102.0939050 119.8753430  98.1258340 101.5874740 120.7791100  97.0219250
 100.9847730 122.2268090  96.5755820 100.4164630 121.7786340  95.9491730
 101.6936730 122.5860870  96.0420970  96.0616910 126.1280110 110.4522550
  95.6771700 125.4873780 111.0505510  96.3729100 126.8316230 111.0217280
 102.2114050 122.9756650 105.9331170 102.5784180 122.5015220 106.6792510
 102.0219110 123.8498220 106.2739510 100.0013420 122.0165290 108.2515380
  99.6970490 122.8957270 108.4765740 100.9559880 122.0765080 108.2872820
  98.5295210 126.2226280  98.8482230  97.7557470 125.6823900  98.6880950
  99.2589840 125.7032890  98.5099990 109.2883190 125.2191640 104.6408620
 110.0082310 125.7146930 104.2504730 109.0865010 124.5409530 103.9962490
 104.7493130 116.6129600  98.7838010 103.9357740 116.1142770  98.7083320
 104.5555080 117.4527850  98.3674360 104.6701990 125.2900700 110.5277620
 104.6039300 124.3696370 110.2735210 104.0407130 125.3876140 111.2422260
 107.4641520 120.9849250  97.0800170 108.3521140 121.2966480  96.9051510
 107.4346610 120.1121500  96.6880750  98.5732610 125.8906660 102.4861040
  99.0911280 125.0874920 102.4317930  98.1216630 125.8285800 103.3277870
 103.4602110 127.1572940  97.7588340 103.8017810 127.9015170  97.2631660
 102.6314820 127.4704060  98.1213170  96.0577150 122.8568030 109.3986740
  95.6992090 123.5221880 109.9860080  95.7631710 122.0251580 109.7699360
  99.2590270 123.3152270 112.2826290  98.9590410 123.4609450 111.3854110
 100.0301510 122.7557560 112.1899680 104.6018720 128.1121270 110.2781420
 104.6163260 127.1802230 110.0600330 103.8943820 128.1981030 110.9171190
 109.7355790 122.2961090  96.5480030 109.6519510 122.7275310  95.6976470
 110.4549980 122.7559440  96.9806850 110.8129930 124.7528610 109.6250000
 110.0878120 125.3457390 109.4279390 111.3405390 124.7452150 108.8263370
 110.7643040 129.1503350  99.2762160 110.1219200 128.4958970  99.5505880
 110.3773700 129.5558440  98.5002830 106.3429520 126.4788780 103.1233850
 106.6953340 125.8816910 102.4635220 105.4591850 126.1533010 103.2942100
 102.4292800 127.2386470 100.5304260 103.1163930 127.7855680 100.9111850
 101.6425220 127.7827200 100.5653870  94.5685200 122.8559290  96.0221340
  95.4380050 123.1384090  96.3057260  94.0775520 123.6695160  95.9070150
 104.0352620 129.7538840 107.3721920 104.6794840 129.9598220 108.0495340
 104.3982060 128.9927240 106.9192770  97.6331790 114.5870150 100.6152140
  97.5046420 114.5788050 101.5637060  96.8093810 114.9253240 100.2643150
 105.3084700 127.7571190 106.0899370 105.9506930 127.0564350 106.2031540
 105.8334050 128.5369630 105.9096260 109.1540420 128.0419810  95.8138510
 108.9278000 127.3250250  96.4063150 108.7636620 127.7932250  94.9760260
 107.0822320 128.5566090 109.2935430 107.4178560 129.1432780 109.9713350
 106.1622660 128.4258800 109.5233220 108.7356670 125.9591750  97.4752670
 108.4478370 126.4204440  98.2630550 109.5308840 125.4989520  97.7436890
  94.9198310 130.3341530 111.0625370  95.0289430 129.3936270 110.9220760
  94.2678870 130.5996280 110.4139100 102.9110900 128.6057420 112.4623490
 102.5907770 127.8866660 113.0069180 102.2369260 129.2812490 112.5359550
 100.9525070 129.4517870  97.4056640 100.9435170 130.1847560  96.7901150
 100.0323430 129.2049450  97.4983600  96.5531710 124.6732760  98.1503400
  95.9459660 125.4131660  98.1598700  97.0281060 124.7632120  97.3241600
 109.4926530 117.7940520  98.6347850 108.8639690 117.8986190  97.9206080
 108.9978450 118.0137300  99.4241730 103.9384670 129.5146110  96.0681830
 104.0396650 129.3110100  95.1383810 103.0386410 129.2604390  96.2729610
 103.0866490 121.4923170 108.0498260 103.5851740 121.9668990 108.7150110
 103.2289440 120.5686690 108.2568290 105.4925990 116.7977130 101.4901520
 105.3693770 116.8163260 100.5411030 106.4410550 116.8456070 101.6099920
 102.5802780 132.0332430 100.7629500 102.8344280 131.9953820  99.8408870
 101.6315260 131.9065760 100.7557750  99.6645580 118.3811550  97.4256440
 100.5136110 118.8181700  97.3596630  99.2976850 118.6931810  98.2528500
 108.5855360 122.9524310 102.3388010 107.6445500 122.9674540 102.5135700
 108.8999430 122.1660270 102.7848310  98.5637000 124.6343910  95.8991970
  99.3300270 124.5225270  96.4617400  98.6411690 123.9381880  95.2468740
  97.2583760 122.0668980  96.5824860  97.3387350 121.1196490  96.6942260
  98.1503510 122.3975860  96.6885520 110.5880940 130.1233160 104.0142270
 110.7128360 130.9464330 104.4866080 111.4546500 129.9123890 103.6666420
  98.0598470 132.2164370 103.6859400  98.7960950 131.6679830 103.9567970
  98.4439390 133.0820380 103.5465390  94.9443950 128.2837940  99.5600910
  94.0183730 128.5259080  99.5506320  95.4100380 129.1112200  99.4385660
  97.0656750 131.4010440 112.8744980  97.8669480 131.7222490 113.2880380
  96.5508570 131.0406020 113.5964890 101.1700780 131.3894680  95.5084970
 101.9629390 131.6783510  95.0566760 100.6505130 130.9586850  94.8297450
 105.9021380 127.5090310 112.8220390 105.2959540 127.5321910 112.0816140
 105.5975490 126.7773350 113.3587640 107.3321750 131.2370600 111.4329800
 108.2843500 131.1528620 111.3830040 107.1849970 131.9012310 112.1063590
 110.2230950 130.6164810  96.9321710 109.9372460 130.2029950  96.1175890
 110.0250500 131.5452520  96.8122230  94.7854560 123.8883900 111.8181030
  95.2893580 123.3091180 112.3897260  94.0461980 124.1724130 112.3557400
 101.6878180 126.6098090  95.3727320 101.5828820 125.9950440  96.0988700
 101.5202400 126.0863980  94.5890330 101.8392500 125.2954890 111.3516550
 101.0738170 125.8639890 111.2671220 102.0208460 125.0031100 110.4584780
 104.9280910 125.6718120  95.9769310 104.3791010 126.1187420  96.6212050
 105.5500170 125.1667370  96.5006980 108.9815850 127.0260220 111.9091570
 109.7225320 127.3635980 111.4059030 108.2188530 127.1952280 111.3561340
  96.8177640 122.0313490 112.7131100  96.8582980 121.7327360 113.6216330
  97.6723140 122.4321100 112.5538620 100.5956030 124.6309040  97.8734610
 101.0172450 124.4648910  98.7166000 100.7206870 123.8209270  97.3789750
 103.1083670 123.6546650  95.1211710 103.6289330 122.9395670  94.7552860
 103.7552070 124.2932520  95.4212220 107.6561510 125.0775050 110.4446780
 108.0702530 125.2320130 111.2937200 106.7212510 125.2030270 110.6072560
 108.1283680 122.4171210 112.4485930 108.7104450 121.6623530 112.3606410
 108.3045450 122.9478650 111.6717410 102.4176740 125.0295530 108.4142710
 102.8364850 125.8728260 108.2418950 101.4985370 125.1667570 108.1849490
 104.7540640 122.7611710 109.7980550 104.8736850 122.1652850 110.5375390
 105.6134640 122.7981400 109.3781850 107.0928540 123.3148900 108.3743060
 106.5663760 123.8391520 107.7708200 107.4359880 123.9476290 109.0052790
  99.4914930 120.7042270  94.8192770  99.2903990 119.8409630  95.1806110
  99.3206980 120.6175630  93.8814370 100.2684160 131.3348540 109.5300440
  99.7305250 132.0594600 109.2109140 100.5218120 130.8578880 108.7397780
 106.3402840 118.9198870 111.2889390 105.6518360 118.2580410 111.2239380
 107.0608860 118.4737140 111.7337850 106.9703240 115.5150500  97.3479650
 107.2505530 114.6718400  97.7039070 106.1968970 115.7473610  97.8618400
  98.2897730 117.8042890  94.8070650  98.5923630 117.8110320  93.8989800
  99.0292320 117.4540750  95.3038310 103.1246370 132.5699750 109.7887090
 103.0505070 133.4734890 110.0959460 102.2225210 132.2511650 109.7609160
 101.5082660 116.7477510  95.7926850 101.1604660 116.0701500  95.2129300
 101.7095430 116.2867020  96.6070240 103.6731700 131.7358260  97.4113450
 104.5682490 132.0743230  97.4332210 103.7049330 131.0137670  96.7837730
  97.3127860 127.1085310  95.6400450  97.7502730 127.6514980  96.2958030
  97.7975590 126.2832260  95.6496790  94.5273660 129.8974340 103.0920710
  94.8576670 129.0295400 102.8599350  94.9564660 130.1032860 103.9225670
  99.1235580 128.2283350 100.7522680  98.8231120 128.1048320 101.6526590
  99.0173070 127.3691940 100.3438410  95.0163870 130.7644930 105.8302340
  94.5794860 130.9445730 106.6626490  95.5841550 131.5219550 105.6884060
 110.6526050 130.2661930 110.1179650 110.0528040 130.3254490 109.3743570
 110.7819950 129.3266910 110.2476500 111.8927500 128.0079750  95.4549360
 111.0620460 128.0756400  95.9256590 112.0699330 128.8983870  95.1516220
 111.3483960 124.7527230  97.9583560 112.1102870 125.3223880  98.0643250
 111.3638330 124.1854430  98.7291870 112.3543930 125.6077330 102.8025490
 112.7252760 124.8244650 102.3961460 112.9945860 126.2966430 102.6242790
 109.3377690 126.9913910 108.2155810 108.5237530 127.4211070 108.4781600
 109.7451890 127.6032320 107.6024860 111.4003130 125.0461600  95.1156080
 111.6751970 125.9540480  94.9875300 111.2113870 124.9824130  96.0518070
 107.7978740 118.0706450  96.4109710 108.2163620 117.8837430  95.5706370
 107.4914800 117.2185500  96.7212640 111.2968470 122.9830590 100.1085510
 110.9212070 122.2158520  99.6766800 110.5671590 123.3653290 100.5960440
  95.8864230 123.6617730 106.7294560  96.2537270 123.5745130 107.6090580
  95.3175050 122.8984280 106.6301420 110.6868090 122.1302110 109.7425030
 110.4554180 121.9014860 108.8422980 110.9472640 123.0501660 109.6969920
  95.4380230 120.5726820 110.6352980  94.5436280 120.5393580 110.9746690
  95.9777780 120.7713610 111.4004230  94.0626380 120.4864090  98.1316550
  93.1590460 120.7494290  97.9568210  94.5467000 120.7575260  97.3516510
 110.5719430 121.2088080 103.4092750 111.0956910 120.7150730 102.7782920
 111.1578850 121.3438440 104.1540320 110.7509150 121.2927950 106.9312300
 109.8011860 121.2591490 107.0457290 110.9322160 122.2028060 106.6962070
  96.6053590 119.5429630  96.0410930  97.3145290 119.1212850  95.5558210
  95.8893530 119.6104860  95.4094280  96.2527750 115.5968960  95.0813580
  96.9755880 116.1377900  95.3994800  96.5252270 115.3232380  94.2055120
 110.0619400 120.4661430  99.3485160 110.5578520 120.2332300 100.1334040
 109.8635470 119.6273270  98.9322800 111.4906560 119.1022380 101.8822840
 111.3805840 118.9478420 102.8205110 112.2514150 118.5743320 101.6398250
 112.3796830 116.9330300  95.1228980 113.3046140 116.8011480  94.9147270
 112.3572620 117.0123120  96.0765430 112.4535320 117.7040960  97.7485690
 111.6586820 117.6386080  98.2778600 112.6578600 118.6391600  97.7371040
 109.3953740 131.7432510 101.7424080 109.9912810 131.4217080 101.0658500
 109.6531890 131.2704330 102.5337350  97.3016310 128.1750420 111.8914710
  97.2585940 127.8043330 112.7729170  97.4327320 129.1127990 112.0316530
 101.0022340 129.7310010 107.4924430 100.7613700 129.9984570 106.6054950
 101.9424980 129.9015740 107.5475290 112.2626500 131.7504390 108.2935070
 111.7684780 132.1473260 107.5762200 111.6539790 131.1253600 108.6872350
  97.1404340 131.1212670 109.0112490  96.5464660 130.9897370 109.7502530
  97.1328180 130.2850810 108.5454590 109.9465950 132.3927810 105.5721810
 109.4868920 133.1443620 105.1979830 109.3178410 131.6734280 105.5136610
  96.7716570 128.4871050 107.9620530  96.0450630 127.8676340 107.8946480
  96.8325720 128.8811660 107.0918610 100.3761670 130.7016050 104.7469940
 100.8926690 130.0903410 104.2218200 101.0259050 131.2044830 105.2380950
 103.1157170 131.5924540 105.5738920 103.4034980 131.3378840 104.6971930
 103.6280390 131.0401900 106.1644490 108.8855250 116.0337840 104.1984520
 109.3263340 115.9782940 103.3506120 108.6162840 116.9495850 104.2694700
 110.7493820 115.6653080 102.2093340 110.6882220 114.7214300 102.0624360
 111.5285850 115.7733170 102.7546800  95.0546570 131.8045440 101.1717290
  94.8868610 131.1716120 101.8699180  94.1881080 132.0104840 100.8211480
  95.6774590 115.6362220  98.6749150  96.4353950 115.7491100  98.1013180
  95.2151760 116.4731420  98.6292580 102.2188400 117.7501490 101.6651460
 101.4062910 117.3758380 101.3247340 102.7230040 116.9946570 101.9672650
 106.7213380 114.4143940 102.9034530 107.3242750 114.9864150 103.3783050
 105.9806370 114.9783380 102.6808430 109.8647980 114.8165500  98.1774810
 110.0598610 115.7148950  98.4442240 109.0777850 114.5852580  98.6707760
  96.6609270 130.4978670  98.6167430  96.1356890 130.8786700  97.9129390
  96.5853850 131.1229440  99.3377140  98.0499740 116.1626270  97.2151120
  98.5792500 115.3756070  97.0859070  98.6828060 116.8417460  97.4486650
 100.2437580 115.9001410 100.2696510  99.6140320 115.1988720 100.4366640
  99.7042720 116.6605540 100.0529670 103.1829530 132.5140640 112.9407120
 104.1096840 132.2784910 112.9843080 103.1679960 133.3412640 112.4593150
 111.4174590 132.0566210  99.9381370 111.5926780 131.3703950  99.2942290
 110.7196160 132.5813260  99.5458040  99.2602240 132.4461050  97.4916680
  99.9921060 132.1620330  96.9440570  99.5195910 132.2074330  98.3816060
  98.4217030 128.5625780  97.4963010  97.7925910 129.0310880  98.0448840
  98.5364860 127.7175000  97.9309200 106.9708600 114.5938970 113.2829470
 106.8574050 114.9133580 114.1780990 107.7878340 114.9951480 112.9866750
 109.7507090 131.7410500 112.7648160 110.5432410 131.2459730 112.5574120
 110.0440240 132.4200640 113.3723770 105.8766750 122.6131440  83.6464210
 105.7960800 121.6986050  83.3755920 105.4631170 123.1098510  82.9403920
 104.0084790 124.3910460  85.5273480 103.2326890 123.9110900  85.8172050
 104.6597720 123.7116110  85.3529640  98.0250620 124.7030270  86.4049240
  97.1935500 124.4478980  86.8045750  98.6331600 124.7741040  87.1407160
 108.0292220 128.7970650  84.3072610 107.5673750 128.0257890  84.6359780
 108.8417770 128.8236720  84.8125060  98.0051880 128.7370360  86.6007260
  98.3079920 127.8468100  86.4217480  98.7495470 129.2940580  86.3729510
  94.3975580 122.2637810  86.0731330  94.9691690 121.4960010  86.0734970
  94.3977120 122.5626570  85.1637940 104.2555530 131.0828660  83.9276600
 103.6366970 131.5386160  83.3571040 105.1107310 131.2380120  83.5266300
 103.4493780 127.0667650  85.5343640 103.3802060 126.1257590  85.3732770
 104.2113640 127.1569060  86.1066210  95.6400450 117.6722170  87.8600260
  95.4603290 116.7747920  88.1403020  95.2380530 118.2194040  88.5347210
 104.4798950 119.8738030  85.7612570 104.8563770 119.0009910  85.6486240
 104.3818460 120.2096730  84.8703010  98.6103960 118.2463660  81.2230010
  98.7170710 119.1467390  81.5298770  97.6996320 118.1981630  80.9324660
 108.2623070 117.3688470  82.6940910 109.0832690 116.8785040  82.7366390
 108.2957150 117.9586130  83.4472750  96.2587120 120.1682670  86.4682600
  96.9397230 120.4321040  87.0870000  95.9435170 119.3283540  86.8020610
 100.4511690 121.2150030  85.5555190 100.9589910 121.7131000  86.1960210
 100.9824930 120.4385230  85.3794550 112.5522620 119.3855220  89.2584540
 111.8474790 119.7736930  88.7399650 112.8180540 120.0805510  89.8605470
  98.7347790 115.8548590  89.8218610  98.7366230 116.3720980  89.0164510
  97.9052100 115.3778770  89.7988540 105.1218880 125.9667900  81.3208510
 104.5036150 126.4317350  80.7571230 105.6342130 126.6595380  81.7378020
  99.9850640 125.4943770  87.9992110  99.6520020 126.1212690  88.6413180
 100.1617320 126.0205650  87.2193780 108.4984550 119.3088850  85.4668450
 107.7940120 119.5973740  86.0471560 108.8596710 120.1188960  85.1068010
  98.4163120 117.5658550  87.8289060  98.7579930 118.4100600  87.5342930
  97.4778930 117.7142290  87.9454400  99.1969740 127.4624570  89.8141290
  99.8143740 128.1375650  89.5325740  98.3362860 127.8712550  89.7228790
 110.1147330 128.9263980  87.7295930 109.4310850 129.5963090  87.7212600
 110.6541620 129.1244630  86.9640790 111.5671470 118.7543640  85.8577660
 110.6196380 118.7882620  85.9893090 111.8921460 119.5682590  86.2427020
 102.0991010 115.0540820  84.1533650 102.4065990 114.4987710  83.4369150
 101.1691710 115.1885280  83.9706640 107.6506070 130.7708110  86.4441110
 107.6633230 130.3670400  85.5763370 107.0981290 131.5455400  86.3402540
 107.0491510 125.6737950  87.7723720 107.4660300 125.4598060  86.9377180
 107.7731330 125.9310740  88.3432340 104.4871770 123.1189650  80.8893770
 103.5601050 123.0527030  81.1182240 104.6396590 124.0569780  80.7749010
 104.4740850 119.3906650  77.8860930 103.5344520 119.5520610  77.9713390
 104.7924110 120.1092330  77.3396920 107.9595620 120.8594490  88.8094830
 107.5466800 121.6848200  89.0634820 107.2271570 120.2739530  88.6171190
 100.0928410 123.6454390  83.6713500  99.6885410 122.9331640  83.1759400
 100.1791530 123.3007630  84.5601540 100.5610110 127.3321950  85.8352710
 100.2638400 126.7267420  85.1560490 101.5109930 127.3699260  85.7242070
  98.8057030 120.4197600  87.4512540  99.3571620 120.5292940  86.6765790
  99.3200540 120.7935200  88.1667770 108.6495720 130.9053820  89.4975810
 108.1726280 131.7126010  89.3048420 107.9657510 130.2532150  89.6502020
  99.6528540 127.0703640  92.4860510  98.7557070 127.2943610  92.7333910
  99.6781410 127.1938580  91.5371910 106.6933760 123.9196760  78.4001770
 107.1327040 123.0819190  78.2539590 107.4062180 124.5526160  78.4865910
  98.4799760 123.9416960  91.0617880  98.3407530 124.8139760  91.4305280
  97.5981120 123.5989770  90.9165820 104.8029140 128.8592830  82.3683010
 105.2425050 129.6017160  81.9538400 104.7416030 129.1019400  83.2921970
 100.2780110 129.8838660  93.2703030 100.2495540 130.2881610  92.4031460
 100.1145080 128.9549020  93.1074630 110.2750900 115.1739570  76.7142810
 109.9623560 115.2666400  77.6141880 111.0363370 115.7520600  76.6640240
 112.2294930 130.6665760  94.5667200 112.7054650 131.1448650  95.2456280
 112.8502090 130.5983250  93.8412700  94.4318410 125.7114510  86.9788790
  94.5098830 125.8463280  86.0344510  95.0460090 125.0030400  87.1716910
  95.6766040 127.4114700  83.3894970  95.2694120 127.5529290  82.5348570
  96.5679050 127.1274860  83.1866180 111.6328180 127.8578610  91.7267210
 111.7591240 127.6190490  90.8084390 111.6749560 127.0263150  92.1989290
 105.4944920 131.5606610  90.2962020 106.0089590 131.4714620  91.0984450
 104.6514000 131.9066310  90.5889930 107.4699320 131.8461950  79.7246020
 107.3100460 131.5564890  80.6227850 107.3046030 131.0702080  79.1891250
  99.9487700 131.6260480  81.5017640  99.7730180 130.7096020  81.2885440
  99.0943440 131.9847770  81.7415440 107.1725450 129.3549510  78.2844020
 106.4790610 129.3526800  77.6246300 107.9148310 128.9308830  77.8538190
 106.7375380 130.9812220  82.3592510 107.1932330 130.2001600  82.6731130
 107.0767900 131.6919040  82.9033690 111.4852190 119.9111070  92.6916950
 110.8696460 120.4190740  92.1632410 111.1648610 119.0109400  92.6342890
  99.2596700 115.8834440  84.5543820  98.8164850 116.6643980  84.2228340
  99.8181690 116.2064330  85.2614760 103.5466510 118.7502960  90.1579140
 103.0845880 118.9585980  90.9699080 103.1444620 117.9362310  89.8549810
 108.5471020 119.9711910  91.2875800 107.6964610 119.6717660  91.6084870
 108.3872810 120.2153920  90.3759620 105.6420730 121.4713660  93.3874590
 105.9674140 120.6377410  93.0476820 106.4301060 121.9942180  93.5352920
 102.3755520 115.5045140  79.4349650 101.7509700 115.5005010  80.1602960
 102.2885640 114.6376100  79.0385620 101.2972600 116.4281770  86.4133420
 101.5944930 117.3344600  86.3325440 101.8458160 115.9400550  85.7992990
  99.0510920 121.0068010  82.2825070  98.8251840 120.7905180  83.1871690
  98.2703450 121.4396470  81.9371040 106.2808680 121.0131380  80.8815720
 105.6817570 121.7367180  80.6979340 106.8288290 120.9508160  80.0992170
 101.4910130 121.9053590  92.9485340 101.3953730 120.9648320  92.7985740
 102.3342110 122.1268660  92.5533410 104.8873550 119.6494920  82.9119000
 105.2803120 119.9667120  82.0987690 105.2490400 118.7706800  83.0263520
  96.6220670 118.3167260  91.1019120  96.2284060 119.1642470  91.3091900
  95.9339070 117.6793630  91.2927760 103.1965720 118.4002230  94.1715860
 102.5064040 118.2074430  94.8061950 103.9398020 118.6836870  94.7040160
  93.9237720 116.2395720  85.1349200  93.6350770 116.8098580  85.8474180
  94.6683480 115.7600170  85.4980430 105.4728690 122.2400670  87.0069780
 104.7409810 122.7487480  87.3559880 105.0753030 121.4230650  86.7058560
 101.9106080 118.9154870  85.4122270 101.9142140 118.4744820  84.5626810
 102.8057200 119.2372200  85.5194090  97.7608460 118.7981360  84.3716480
  97.4208510 119.2756590  85.1283530  96.9985780 118.3446480  84.0117580
 101.9726230 119.9166950  78.4029030 102.0939050 119.8753430  79.3514850
 101.5874740 120.7791100  78.2475760 105.9354600 117.6934350  86.4192720
 105.9527340 118.1443000  87.2634570 105.6870180 116.7939990  86.6326160
 100.9847730 122.2268090  77.8012330 100.4164630 121.7786340  77.1748240
 101.6936730 122.5860870  77.2677480 109.3625350 115.1066530  92.2579100
 109.6871120 114.3756190  92.7837080 109.3981860 114.7880170  91.3560090
  96.0616910 126.1280110  91.6779060  95.6771700 125.4873780  92.2762020
  96.3729100 126.8316230  92.2473790 102.2114050 122.9756650  87.1587680
 102.5784180 122.5015220  87.9049020 102.0219110 123.8498220  87.4996020
  95.0754540 117.7200340  83.2881150  94.7901460 117.3556010  84.1259770
  95.0133400 116.9880800  82.6744290 100.0013420 122.0165290  89.4771890
  99.6970490 122.8957270  89.7022250 100.9559880 122.0765080  89.5129330
  98.5295210 126.2226280  80.0738740  97.7557470 125.6823900  79.9137460
  99.2589840 125.7032890  79.7356500 104.7493130 116.6129600  80.0094520
 103.9357740 116.1142770  79.9339830 104.5555080 117.4527850  79.5930870
 104.6701990 125.2900700  91.7534130 104.6039300 124.3696370  91.4991720
 104.0407130 125.3876140  92.4678770 107.4641520 120.9849250  78.3056680
 108.3521140 121.2966480  78.1308020 107.4346610 120.1121500  77.9137260
  98.5732610 125.8906660  83.7117550  99.0911280 125.0874920  83.6574440
  98.1216630 125.8285800  84.5534380 103.4602110 127.1572940  78.9844850
 103.8017810 127.9015170  78.4888170 102.6314820 127.4704060  79.3469680
  96.0577150 122.8568030  90.6243250  95.6992090 123.5221880  91.2116590
  95.7631710 122.0251580  90.9955870  99.2590270 123.3152270  93.5082800
  98.9590410 123.4609450  92.6110620 100.0301510 122.7557560  93.4156190
 104.6018720 128.1121270  91.5037930 104.6163260 127.1802230  91.2856840
 103.8943820 128.1981030  92.1427700 110.8129930 124.7528610  90.8506510
 110.0878120 125.3457390  90.6535900 111.3405390 124.7452150  90.0519880
 106.3429520 126.4788780  84.3490360 106.6953340 125.8816910  83.6891730
 105.4591850 126.1533010  84.5198610 102.4292800 127.2386470  81.7560770
 103.1163930 127.7855680  82.1368360 101.6425220 127.7827200  81.7910380
 101.7320010 124.2432500  81.3686130 102.1882790 125.0537750  81.5946320
 101.3808220 123.9255640  82.2004620 104.0352620 129.7538840  88.5978430
 104.6794840 129.9598220  89.2751850 104.3982060 128.9927240  88.1449280
  97.6331790 114.5870150  81.8408650  97.5046420 114.5788050  82.7893570
  96.8093810 114.9253240  81.4899660 105.3084700 127.7571190  87.3155880
 105.9506930 127.0564350  87.4288050 105.8334050 128.5369630  87.1352770
 107.0822320 128.5566090  90.5191940 107.4178560 129.1432780  91.1969860
 106.1622660 128.4258800  90.7489730  94.9356450 132.0686670  77.8139480
  95.2954090 132.6676010  77.1596750  94.7948790 132.6146560  78.5874510
  94.6325720 116.3461270  91.3015350  93.9184240 116.5458190  91.9067960
  95.0520760 115.5700840  91.6730150 102.9110900 128.6057420  93.6880000
 102.5907770 127.8866660  94.2325690 102.2369260 129.2812490  93.7616060
 100.9525070 129.4517870  78.6313150 100.9435170 130.1847560  78.0157660
 100.0323430 129.2049450  78.7240110 106.1264500 118.8383580  89.0516800
 106.4945320 118.0178790  89.3796370 105.2662700 118.8985470  89.4672450
 109.4926530 117.7940520  79.8604360 108.8639690 117.8986190  79.1462590
 108.9978450 118.0137300  80.6498240 103.9384670 129.5146110  77.2938340
 104.0396650 129.3110100  76.3640320 103.0386410 129.2604390  77.4986120
 101.4610560 120.0726470  81.2762240 100.7526710 120.5412810  81.7175850
 101.7455040 119.4148480  81.9107430 103.0866490 121.4923170  89.2754770
 103.5851740 121.9668990  89.9406620 103.2289440 120.5686690  89.4824800
 105.4925990 116.7977130  82.7158030 105.3693770 116.8163260  81.7667540
 106.4410550 116.8456070  82.8356430 102.5802780 132.0332430  81.9886010
 102.8344280 131.9953820  81.0665380 101.6315260 131.9065760  81.9814260
  99.6645580 118.3811550  78.6512950 100.5136110 118.8181700  78.5853140
  99.2976850 118.6931810  79.4785010 110.2933350 117.7091130  90.1183160
 109.7906950 118.4496530  90.4576970 111.1090010 118.0975130  89.8019950
 110.5880940 130.1233160  85.2398780 110.7128360 130.9464330  85.7122590
 111.4546500 129.9123890  84.8922930  98.0598470 132.2164370  84.9115910
  98.7960950 131.6679830  85.1824480  98.4439390 133.0820380  84.7721900
  94.9443950 128.2837940  80.7857420  94.0183730 128.5259080  80.7762830
  95.4100380 129.1112200  80.6642170  97.0656750 131.4010440  94.1001490
  97.8669480 131.7222490  94.5136890  96.5508570 131.0406020  94.8221400
 101.1700780 131.3894680  76.7341480 101.9629390 131.6783510  76.2823270
 100.6505130 130.9586850  76.0553960 105.9021380 127.5090310  94.0476900
 105.2959540 127.5321910  93.3072650 105.5975490 126.7773350  94.5844150
 107.3321750 131.2370600  92.6586310 108.2843500 131.1528620  92.6086550
 107.1849970 131.9012310  93.3320100 110.2230950 130.6164810  78.1578220
 109.9372460 130.2029950  77.3432400 110.0250500 131.5452520  78.0378740
  94.7854560 123.8883900  93.0437540  95.2893580 123.3091180  93.6153770
  94.0461980 124.1724130  93.5813910 101.6878180 126.6098090  76.5983830
 101.5828820 125.9950440  77.3245210 101.5202400 126.0863980  75.8146840
 101.8392500 125.2954890  92.5773060 101.0738170 125.8639890  92.4927730
 102.0208460 125.0031100  91.6841290 104.9280910 125.6718120  77.2025820
 104.3791010 126.1187420  77.8468560 105.5500170 125.1667370  77.7263490
 108.9815850 127.0260220  93.1348080 109.7225320 127.3635980  92.6315540
 108.2188530 127.1952280  92.5817850  96.8177640 122.0313490  93.9387610
  96.8582980 121.7327360  94.8472840  97.6723140 122.4321100  93.7795130
 100.5956030 124.6309040  79.0991120 101.0172450 124.4648910  79.9422510
 100.7206870 123.8209270  78.6046260  98.7583450 120.6105590  91.9062100
  98.2279910 120.1196540  91.2785440  99.4271520 121.0389790  91.3720030
 103.1083670 123.6546650  76.3468220 103.6289330 122.9395670  75.9809370
 103.7552070 124.2932520  76.6468730 107.6561510 125.0775050  91.6703290
 108.0702530 125.2320130  92.5193710 106.7212510 125.2030270  91.8329070
 108.1283680 122.4171210  93.6742440 108.7104450 121.6623530  93.5862920
 108.3045450 122.9478650  92.8973920  99.2455750 117.5767960  91.9859390
  99.1512620 116.9588710  91.2610260  98.6653140 118.3034250  91.7589300
 102.0117190 116.1341200  89.0186780 101.5634490 116.1565460  88.1732330
 101.3782390 115.7360220  89.6157080 102.4176740 125.0295530  89.6399220
 102.8364850 125.8728260  89.4675460 101.4985370 125.1667570  89.4106000
 104.7540640 122.7611710  91.0237060 104.8736850 122.1652850  91.7631900
 105.6134640 122.7981400  90.6038360 107.0928540 123.3148900  89.5999570
 106.5663760 123.8391520  88.9964710 107.4359880 123.9476290  90.2309300
 100.2684160 131.3348540  90.7556950  99.7305250 132.0594600  90.4365650
 100.5218120 130.8578880  89.9654290 101.5209410 119.3033060  92.2812880
 102.1109100 118.9948910  92.9690700 100.7029650 118.8312810  92.4372780
 106.3402840 118.9198870  92.5145900 105.6518360 118.2580410  92.4495890
 107.0608860 118.4737140  92.9594360 106.9703240 115.5150500  78.5736160
 107.2505530 114.6718400  78.9295580 106.1968970 115.7473610  79.0874910
 103.1246370 132.5699750  91.0143600 103.0505070 133.4734890  91.3215970
 102.2225210 132.2511650  90.9865670 101.5082660 116.7477510  77.0183360
 101.1604660 116.0701500  76.4385810 101.7095430 116.2867020  77.8326750
 103.6731700 131.7358260  78.6369960 104.5682490 132.0743230  78.6588720
 103.7049330 131.0137670  78.0094240  97.3127860 127.1085310  76.8656960
  97.7502730 127.6514980  77.5214540  97.7975590 126.2832260  76.8753300
  94.5273660 129.8974340  84.3177220  94.8576670 129.0295400  84.0855860
  94.9564660 130.1032860  85.1482180  99.1235580 128.2283350  81.9779190
  98.8231120 128.1048320  82.8783100  99.0173070 127.3691940  81.5694920
 110.6526050 130.2661930  91.3436160 110.0528040 130.3254490  90.6000080
 110.7819950 129.3266910  91.4733010  94.8488300 123.2765160  83.4147730
  94.1937140 123.0076800  82.7707430  95.6866250 123.1669640  82.9649710
 109.3377690 126.9913910  89.4412320 108.5237530 127.4211070  89.7038110
 109.7451890 127.6032320  88.8281370 107.7978740 118.0706450  77.6366220
 108.2163620 117.8837430  76.7962880 107.4914800 117.2185500  77.9469150
  95.8864230 123.6617730  87.9551070  96.2537270 123.5745130  88.8347090
  95.3175050 122.8984280  87.8557930 110.6868090 122.1302110  90.9681540
 110.4554180 121.9014860  90.0679490 110.9472640 123.0501660  90.9226430
  95.4380230 120.5726820  91.8609490  94.5436280 120.5393580  92.2003200
  95.9777780 120.7713610  92.6260740 109.1256160 117.3558540  93.7461240
 110.0026340 117.3641940  94.1295240 109.1377000 116.6189380  93.1353590
  96.2527750 115.5968960  76.3070090  96.9755880 116.1377900  76.6251310
  96.5252270 115.3232380  75.4311630 110.0619400 120.4661430  80.5741670
 110.5578520 120.2332300  81.3590550 109.8635470 119.6273270  80.1579310
  95.9419940 114.8475150  86.2092710  96.5896130 114.2972530  85.7687870
  96.3621780 115.1018300  87.0308520 111.4906560 119.1022380  83.1079350
 111.3805840 118.9478420  84.0461620 112.2514150 118.5743320  82.8654760
 109.8372280 115.0416510  89.5662350 110.4744500 115.6550650  89.9321540
 109.9847170 115.0777170  88.6211580 112.3796830 116.9330300  76.3485490
 113.3046140 116.8011480  76.1403780 112.3572620 117.0123120  77.3021940
 112.4535320 117.7040960  78.9742200 111.6586820 117.6386080  79.5035110
 112.6578600 118.6391600  78.9627550 109.3953740 131.7432510  82.9680590
 109.9912810 131.4217080  82.2915010 109.6531890 131.2704330  83.7593860
  95.6951940 115.0030820  88.9518030  95.3466760 115.4594640  89.7176210
  95.3639640 114.1087950  89.0340460  97.3016310 128.1750420  93.1171220
  97.2585940 127.8043330  93.9985680  97.4327320 129.1127990  93.2573040
 101.0022340 129.7310010  88.7180940 100.7613700 129.9984570  87.8311460
 101.9424980 129.9015740  88.7731800 103.2076760 116.1942700  92.4737450
 103.1465650 116.7864530  93.2232860 104.1477140 116.0868660  92.3287710
 105.8451320 115.8512760  92.1129740 106.4591730 116.1692050  91.4510820
 106.3900880 115.3661350  92.7325600 112.2626500 131.7504390  89.5191580
 111.7684780 132.1473260  88.8018710 111.6539790 131.1253600  89.9128860
  96.3672580 114.5307020  92.2268800  96.9155570 114.3495070  91.4634910
  96.4327890 113.7401130  92.7625110 106.5859360 114.4144900  88.4399030
 105.7119200 114.7480010  88.2371960 106.4770110 113.9418080  89.2650900
 107.4931340 116.6215770  89.8240750 107.1644700 115.8067530  89.4442480
 108.4413640 116.5785580  89.7006440 109.9465950 132.3927810  86.7978320
 109.4868920 133.1443620  86.4236340 109.3178410 131.6734280  86.7393120
  96.7716570 128.4871050  89.1877040  96.0450630 127.8676340  89.1202990
  96.8325720 128.8811660  88.3175120 100.3761670 130.7016050  85.9726450
 100.8926690 130.0903410  85.4474710 101.0259050 131.2044830  86.4637460
 103.1157170 131.5924540  86.7995430 103.4034980 131.3378840  85.9228440
 103.6280390 131.0401900  87.3901000 104.3334180 115.3314740  87.3791940
 103.5505970 115.8060240  87.6588700 104.0397110 114.4269570  87.2705120
 108.8855250 116.0337840  85.4241030 109.3263340 115.9782940  84.5762630
 108.6162840 116.9495850  85.4951210 110.7493820 115.6653080  83.4349850
 110.6882220 114.7214300  83.2880870 111.5285850 115.7733170  83.9803310
  95.0546570 131.8045440  82.3973800  94.8868610 131.1716120  83.0955690
  94.1881080 132.0104840  82.0467990  95.6774590 115.6362220  79.9005660
  96.4353950 115.7491100  79.3269690  95.2151760 116.4731420  79.8549090
 102.2188400 117.7501490  82.8907970 101.4062910 117.3758380  82.5503850
 102.7230040 116.9946570  83.1929160 106.7213380 114.4143940  84.1291040
 107.3242750 114.9864150  84.6039560 105.9806370 114.9783380  83.9064940
 109.8647980 114.8165500  79.4031320 110.0598610 115.7148950  79.6698750
 109.0777850 114.5852580  79.8964270  96.6609270 130.4978670  79.8423940
  96.1356890 130.8786700  79.1385900  96.5853850 131.1229440  80.5633650
  98.0499740 116.1626270  78.4407630  98.5792500 115.3756070  78.3115580
  98.6828060 116.8417460  78.6743160 100.2437580 115.9001410  81.4953020
  99.6140320 115.1988720  81.6623150  99.7042720 116.6605540  81.2786180
 103.1829530 132.5140640  94.1663630 104.1096840 132.2784910  94.2099590
 103.1679960 133.3412640  93.6849660 111.4174590 132.0566210  81.1637880
 111.5926780 131.3703950  80.5198800 110.7196160 132.5813260  80.7714550
 100.3693140 115.1785390  93.9305510 100.0877410 115.6818990  93.1666330
 100.7512840 114.3807140  93.5647640  99.2602240 132.4461050  78.7173190
  99.9921060 132.1620330  78.1697080  99.5195910 132.2074330  79.6072570
  98.4217030 128.5625780  78.7219520  97.7925910 129.0310880  79.2705350
  98.5364860 127.7175000  79.1565710 106.9708600 114.5938970  94.5085980
 106.8574050 114.9133580  95.4037500 107.7878340 114.9951480  94.2123260
 109.7507090 131.7410500  93.9904670 110.5432410 131.2459730  93.7830630
 110.0440240 132.4200640  94.5980280 105.8766750 122.6131440  64.8720720
 105.7960800 121.6986050  64.6012430 105.4631170 123.1098510  64.1660430
 104.0084790 124.3910460  66.7529990 103.2326890 123.9110900  67.0428560
 104.6597720 123.7116110  66.5786150 108.0292220 128.7970650  65.5329120
 107.5673750 128.0257890  65.8616290 108.8417770 128.8236720  66.0381570
  98.0051880 128.7370360  67.8263770  98.3079920 127.8468100  67.6473990
  98.7495470 129.2940580  67.5986020  96.4342570 119.6632160  61.4148140
  95.5459270 120.0048130  61.3128020  96.7183760 119.4632480  60.5228970
 104.2555530 131.0828660  65.1533110 103.6366970 131.5386160  64.5827550
 105.1107310 131.2380120  64.7522810 103.4493780 127.0667650  66.7600150
 103.3802060 126.1257590  66.5989280 104.2113640 127.1569060  67.3322720
  95.6400450 117.6722170  69.0856770  95.4603290 116.7747920  69.3659530
  95.2380530 118.2194040  69.7603720 104.4798950 119.8738030  66.9869080
 104.8563770 119.0009910  66.8742750 104.3818460 120.2096730  66.0959520
  98.6103960 118.2463660  62.4486520  98.7170710 119.1467390  62.7555280
  97.6996320 118.1981630  62.1581170 100.4511690 121.2150030  66.7811700
 100.9589910 121.7131000  67.4216720 100.9824930 120.4385230  66.6051060
 112.5522620 119.3855220  70.4841050 111.8474790 119.7736930  69.9656160
 112.8180540 120.0805510  71.0861980  98.7347790 115.8548590  71.0475120
  98.7366230 116.3720980  70.2421020  97.9052100 115.3778770  71.0245050
 105.1218880 125.9667900  62.5465020 104.5036150 126.4317350  61.9827740
 105.6342130 126.6595380  62.9634530  99.9850640 125.4943770  69.2248620
  99.6520020 126.1212690  69.8669690 100.1617320 126.0205650  68.4450290
 108.4984550 119.3088850  66.6924960 107.7940120 119.5973740  67.2728070
 108.8596710 120.1188960  66.3324520  98.4163120 117.5658550  69.0545570
  98.7579930 118.4100600  68.7599440  97.4778930 117.7142290  69.1710910
  99.1969740 127.4624570  71.0397800  99.8143740 128.1375650  70.7582250
  98.3362860 127.8712550  70.9485300  94.4902080 126.6524430  59.9204650
  94.1130060 127.1411530  59.1889550  94.7475150 127.3249710  60.5511180
 110.1147330 128.9263980  68.9552440 109.4310850 129.5963090  68.9469110
 110.6541620 129.1244630  68.1897300 102.0991010 115.0540820  65.3790160
 102.4065990 114.4987710  64.6625660 101.1691710 115.1885280  65.1963150
 107.6506070 130.7708110  67.6697620 107.6633230 130.3670400  66.8019880
 107.0981290 131.5455400  67.5659050 108.9451490 127.4924330  62.7587790
 108.8347820 126.5498660  62.8837210 108.9419740 127.8539970  63.6450550
 107.0491510 125.6737950  68.9980230 107.4660300 125.4598060  68.1633690
 107.7731330 125.9310740  69.5688850 104.4871770 123.1189650  62.1150280
 103.5601050 123.0527030  62.3438750 104.6396590 124.0569780  62.0005520
 104.4740850 119.3906650  59.1117440 103.5344520 119.5520610  59.1969900
 104.7924110 120.1092330  58.5653430 110.9953610 124.0725170  69.0896470
 110.1672240 124.1418260  68.6146600 111.5904090 124.6579480  68.6212300
 108.5169060 124.6809950  62.6185530 107.8981480 124.3429500  61.9711830
 108.4993510 124.0369710  63.3264720 107.9595620 120.8594490  70.0351340
 107.5466800 121.6848200  70.2891330 107.2271570 120.2739530  69.8427700
  98.8057030 120.4197600  68.6769050  99.3571620 120.5292940  67.9022300
  99.3200540 120.7935200  69.3924280 108.6495720 130.9053820  70.7232320
 108.1726280 131.7126010  70.5304930 107.9657510 130.2532150  70.8758530
  99.6528540 127.0703640  73.7117020  98.7557070 127.2943610  73.9590420
  99.6781410 127.1938580  72.7628420 106.6933760 123.9196760  59.6258280
 107.1327040 123.0819190  59.4796100 107.4062180 124.5526160  59.7122420
  98.4799760 123.9416960  72.2874390  98.3407530 124.8139760  72.6561790
  97.5981120 123.5989770  72.1422330 104.8029140 128.8592830  63.5939520
 105.2425050 129.6017160  63.1794910 104.7416030 129.1019400  64.5178480
 100.2780110 129.8838660  74.4959540 100.2495540 130.2881610  73.6287970
 100.1145080 128.9549020  74.3331140 110.2750900 115.1739570  57.9399320
 109.9623560 115.2666400  58.8398390 111.0363370 115.7520600  57.8896750
 112.2294930 130.6665760  75.7923710 112.7054650 131.1448650  76.4712790
 112.8502090 130.5983250  75.0669210 105.4944920 131.5606610  71.5218530
 106.0089590 131.4714620  72.3240960 104.6514000 131.9066310  71.8146440
 107.4699320 131.8461950  60.9502530 107.3100460 131.5564890  61.8484360
 107.3046030 131.0702080  60.4147760 107.1725450 129.3549510  59.5100530
 106.4790610 129.3526800  58.8502810 107.9148310 128.9308830  59.0794700
 106.7375380 130.9812220  63.5849020 107.1932330 130.2001600  63.8987640
 107.0767900 131.6919040  64.1290200 111.4852190 119.9111070  73.9173460
 110.8696460 120.4190740  73.3888920 111.1648610 119.0109400  73.8599400
  99.2596700 115.8834440  65.7800330  98.8164850 116.6643980  65.4484850
  99.8181690 116.2064330  66.4871270 103.5466510 118.7502960  71.3835650
 103.0845880 118.9585980  72.1955590 103.1444620 117.9362310  71.0806320
 108.5471020 119.9711910  72.5132310 107.6964610 119.6717660  72.8341380
 108.3872810 120.2153920  71.6016130 105.6420730 121.4713660  74.6131100
 105.9674140 120.6377410  74.2733330 106.4301060 121.9942180  74.7609430
 102.3755520 115.5045140  60.6606160 101.7509700 115.5005010  61.3859470
 102.2885640 114.6376100  60.2642130 101.2972600 116.4281770  67.6389930
 101.5944930 117.3344600  67.5581950 101.8458160 115.9400550  67.0249500
 106.2808680 121.0131380  62.1072230 105.6817570 121.7367180  61.9235850
 106.8288290 120.9508160  61.3248680 101.4910130 121.9053590  74.1741850
 101.3953730 120.9648320  74.0242250 102.3342110 122.1268660  73.7789920
 104.8873550 119.6494920  64.1375510 105.2803120 119.9667120  63.3244200
 105.2490400 118.7706800  64.2520030 103.1965720 118.4002230  75.3972370
 102.5064040 118.2074430  76.0318460 103.9398020 118.6836870  75.9296670
  93.9237720 116.2395720  66.3605710  93.6350770 116.8098580  67.0730690
  94.6683480 115.7600170  66.7236940  94.1107950 120.1815840  57.5708430
  94.0282620 121.1246600  57.7123420  93.7591010 120.0390750  56.6920780
 105.4728690 122.2400670  68.2326290 104.7409810 122.7487480  68.5816390
 105.0753030 121.4230650  67.9315070 101.9106080 118.9154870  66.6378780
 101.9142140 118.4744820  65.7883320 102.8057200 119.2372200  66.7450600
 101.9726230 119.9166950  59.6285540 102.0939050 119.8753430  60.5771360
 101.5874740 120.7791100  59.4732270 105.9354600 117.6934350  67.6449230
 105.9527340 118.1443000  68.4891080 105.6870180 116.7939990  67.8582670
 100.9847730 122.2268090  59.0268840 100.4164630 121.7786340  58.4004750
 101.6936730 122.5860870  58.4933990 109.3625350 115.1066530  73.4835610
 109.6871120 114.3756190  74.0093590 109.3981860 114.7880170  72.5816600
  96.0616910 126.1280110  72.9035570  95.6771700 125.4873780  73.5018530
  96.3729100 126.8316230  73.4730300 102.2114050 122.9756650  68.3844190
 102.5784180 122.5015220  69.1305530 102.0219110 123.8498220  68.7252530
 100.0013420 122.0165290  70.7028400  99.6970490 122.8957270  70.9278760
 100.9559880 122.0765080  70.7385840 109.2883190 125.2191640  67.0921640
 110.0082310 125.7146930  66.7017750 109.0865010 124.5409530  66.4475510
 104.7493130 116.6129600  61.2351030 103.9357740 116.1142770  61.1596340
 104.5555080 117.4527850  60.8187380 104.6701990 125.2900700  72.9790640
 104.6039300 124.3696370  72.7248230 104.0407130 125.3876140  73.6935280
 107.4641520 120.9849250  59.5313190 108.3521140 121.2966480  59.3564530
 107.4346610 120.1121500  59.1393770 103.4602110 127.1572940  60.2101360
 103.8017810 127.9015170  59.7144680 102.6314820 127.4704060  60.5726190
 104.6018720 128.1121270  72.7294440 104.6163260 127.1802230  72.5113350
 103.8943820 128.1981030  73.3684210 109.7355790 122.2961090  58.9993050
 109.6519510 122.7275310  58.1489490 110.4549980 122.7559440  59.4319870
 110.7643040 129.1503350  61.7275180 110.1219200 128.4958970  62.0018900
 110.3773700 129.5558440  60.9515850 106.3429520 126.4788780  65.5746870
 106.6953340 125.8816910  64.9148240 105.4591850 126.1533010  65.7455120
  94.5685200 122.8559290  58.4734360  95.4380050 123.1384090  58.7570280
  94.0775520 123.6695160  58.3583170 104.0352620 129.7538840  69.8234940
 104.6794840 129.9598220  70.5008360 104.3982060 128.9927240  69.3705790
  97.6331790 114.5870150  63.0665160  97.5046420 114.5788050  64.0150080
  96.8093810 114.9253240  62.7156170 105.3084700 127.7571190  68.5412390
 105.9506930 127.0564350  68.6544560 105.8334050 128.5369630  68.3609280
 109.1540420 128.0419810  58.2651530 108.9278000 127.3250250  58.8576170
 108.7636620 127.7932250  57.4273280 107.0822320 128.5566090  71.7448450
 107.4178560 129.1432780  72.4226370 106.1622660 128.4258800  71.9746240
  94.9356450 132.0686670  59.0395990  95.2954090 132.6676010  58.3853260
  94.7948790 132.6146560  59.8131020 108.7356670 125.9591750  59.9265690
 108.4478370 126.4204440  60.7143570 109.5308840 125.4989520  60.1949910
  94.9198310 130.3341530  73.5138390  95.0289430 129.3936270  73.3733780
  94.2678870 130.5996280  72.8652120 102.9110900 128.6057420  74.9136510
 102.5907770 127.8866660  75.4582200 102.2369260 129.2812490  74.9872570
  96.5531710 124.6732760  60.6016420  95.9459660 125.4131660  60.6111720
  97.0281060 124.7632120  59.7754620 106.1264500 118.8383580  70.2773310
 106.4945320 118.0178790  70.6052880 105.2662700 118.8985470  70.6928960
 103.9384670 129.5146110  58.5194850 104.0396650 129.3110100  57.5896830
 103.0386410 129.2604390  58.7242630 101.4610560 120.0726470  62.5018750
 100.7526710 120.5412810  62.9432360 101.7455040 119.4148480  63.1363940
 103.0866490 121.4923170  70.5011280 103.5851740 121.9668990  71.1663130
 103.2289440 120.5686690  70.7081310 105.4925990 116.7977130  63.9414540
 105.3693770 116.8163260  62.9924050 106.4410550 116.8456070  64.0612940
 102.5802780 132.0332430  63.2142520 102.8344280 131.9953820  62.2921890
 101.6315260 131.9065760  63.2070770  99.6645580 118.3811550  59.8769460
 100.5136110 118.8181700  59.8109650  99.2976850 118.6931810  60.7041520
 110.2933350 117.7091130  71.3439670 109.7906950 118.4496530  71.6833480
 111.1090010 118.0975130  71.0276460 108.5855360 122.9524310  64.7901030
 107.6445500 122.9674540  64.9648720 108.8999430 122.1660270  65.2361330
  98.5637000 124.6343910  58.3504990  99.3300270 124.5225270  58.9130420
  98.6411690 123.9381880  57.6981760  97.2583760 122.0668980  59.0337880
  97.3387350 121.1196490  59.1455280  98.1503510 122.3975860  59.1398540
 110.5880940 130.1233160  66.4655290 110.7128360 130.9464330  66.9379100
 111.4546500 129.9123890  66.1179440  98.0598470 132.2164370  66.1372420
  98.7960950 131.6679830  66.4080990  98.4439390 133.0820380  65.9978410
  94.9443950 128.2837940  62.0113930  94.0183730 128.5259080  62.0019340
  95.4100380 129.1112200  61.8898680  97.0656750 131.4010440  75.3258000
  97.8669480 131.7222490  75.7393400  96.5508570 131.0406020  76.0477910
 101.1700780 131.3894680  57.9597990 101.9629390 131.6783510  57.5079780
 100.6505130 130.9586850  57.2810470 105.9021380 127.5090310  75.2733410
 105.2959540 127.5321910  74.5329160 105.5975490 126.7773350  75.8100660
 107.3321750 131.2370600  73.8842820 108.2843500 131.1528620  73.8343060
 107.1849970 131.9012310  74.5576610 110.2230950 130.6164810  59.3834730
 109.9372460 130.2029950  58.5688910 110.0250500 131.5452520  59.2635250
 101.8392500 125.2954890  73.8029570 101.0738170 125.8639890  73.7184240
 102.0208460 125.0031100  72.9097800 107.6561510 125.0775050  72.8959800
 108.0702530 125.2320130  73.7450220 106.7212510 125.2030270  73.0585580
 108.1283680 122.4171210  74.8998950 108.7104450 121.6623530  74.8119430
 108.3045450 122.9478650  74.1230430 102.0117190 116.1341200  70.2443290
 101.5634490 116.1565460  69.3988840 101.3782390 115.7360220  70.8413590
 102.4176740 125.0295530  70.8655730 102.8364850 125.8728260  70.6931970
 101.4985370 125.1667570  70.6362510 104.7540640 122.7611710  72.2493570
 104.8736850 122.1652850  72.9888410 105.6134640 122.7981400  71.8294870
 107.0928540 123.3148900  70.8256080 106.5663760 123.8391520  70.2221220
 107.4359880 123.9476290  71.4565810  99.4914930 120.7042270  57.2705790
  99.2903990 119.8409630  57.6319130  99.3206980 120.6175630  56.3327390
 100.2684160 131.3348540  71.9813460  99.7305250 132.0594600  71.6622160
 100.5218120 130.8578880  71.1910800 101.5209410 119.3033060  73.5069390
 102.1109100 118.9948910  74.1947210 100.7029650 118.8312810  73.6629290
 106.3402840 118.9198870  73.7402410 105.6518360 118.2580410  73.6752400
 107.0608860 118.4737140  74.1850870 106.9703240 115.5150500  59.7992670
 107.2505530 114.6718400  60.1552090 106.1968970 115.7473610  60.3131420
  98.2897730 117.8042890  57.2583670  98.5923630 117.8110320  56.3502820
  99.0292320 117.4540750  57.7551330 103.1246370 132.5699750  72.2400110
 103.0505070 133.4734890  72.5472480 102.2225210 132.2511650  72.2122180
 101.5082660 116.7477510  58.2439870 101.1604660 116.0701500  57.6642320
 101.7095430 116.2867020  59.0583260 103.6731700 131.7358260  59.8626470
 104.5682490 132.0743230  59.8845230 103.7049330 131.0137670  59.2350750
  97.3127860 127.1085310  58.0913470  97.7502730 127.6514980  58.7471050
  97.7975590 126.2832260  58.1009810  94.5273660 129.8974340  65.5433730
  94.8576670 129.0295400  65.3112370  94.9564660 130.1032860  66.3738690
  95.0163870 130.7644930  68.2815360  94.5794860 130.9445730  69.1139510
  95.5841550 131.5219550  68.1397080 110.6526050 130.2661930  72.5692670
 110.0528040 130.3254490  71.8256590 110.7819950 129.3266910  72.6989520
 111.8927500 128.0079750  57.9062380 111.0620460 128.0756400  58.3769610
 112.0699330 128.8983870  57.6029240 111.3483960 124.7527230  60.4096580
 112.1102870 125.3223880  60.5156270 111.3638330 124.1854430  61.1804890
 112.3543930 125.6077330  65.2538510 112.7252760 124.8244650  64.8474480
 112.9945860 126.2966430  65.0755810 109.3377690 126.9913910  70.6668830
 108.5237530 127.4211070  70.9294620 109.7451890 127.6032320  70.0537880
 111.4003130 125.0461600  57.5669100 111.6751970 125.9540480  57.4388320
 111.2113870 124.9824130  58.5031090 107.7978740 118.0706450  58.8622730
 108.2163620 117.8837430  58.0219390 107.4914800 117.2185500  59.1725660
 111.2968470 122.9830590  62.5598530 110.9212070 122.2158520  62.1279820
 110.5671590 123.3653290  63.0473460 110.6868090 122.1302110  72.1938050
 110.4554180 121.9014860  71.2936000 110.9472640 123.0501660  72.1482940
 109.1256160 117.3558540  74.9717750 110.0026340 117.3641940  75.3551750
 109.1377000 116.6189380  74.3610100  94.0626380 120.4864090  60.5829570
  93.1590460 120.7494290  60.4081230  94.5467000 120.7575260  59.8029530
 110.5719430 121.2088080  65.8605770 111.0956910 120.7150730  65.2295940
 111.1578850 121.3438440  66.6053340 110.7509150 121.2927950  69.3825320
 109.8011860 121.2591490  69.4970310 110.9322160 122.2028060  69.1475090
  96.6053590 119.5429630  58.4923950  97.3145290 119.1212850  58.0071230
  95.8893530 119.6104860  57.8607300  95.9419940 114.8475150  67.4349220
  96.5896130 114.2972530  66.9944380  96.3621780 115.1018300  68.2565030
 109.8372280 115.0416510  70.7918860 110.4744500 115.6550650  71.1578050
 109.9847170 115.0777170  69.8468090 109.3953740 131.7432510  64.1937100
 109.9912810 131.4217080  63.5171520 109.6531890 131.2704330  64.9850370
  97.3016310 128.1750420  74.3427730  97.2585940 127.8043330  75.2242190
  97.4327320 129.1127990  74.4829550 101.0022340 129.7310010  69.9437450
 100.7613700 129.9984570  69.0567970 101.9424980 129.9015740  69.9988310
 103.2076760 116.1942700  73.6993960 103.1465650 116.7864530  74.4489370
 104.1477140 116.0868660  73.5544220 105.8451320 115.8512760  73.3386250
 106.4591730 116.1692050  72.6767330 106.3900880 115.3661350  73.9582110
 112.2626500 131.7504390  70.7448090 111.7684780 132.1473260  70.0275220
 111.6539790 131.1253600  71.1385370  96.3672580 114.5307020  73.4525310
  96.9155570 114.3495070  72.6891420  96.4327890 113.7401130  73.9881620
  97.1404340 131.1212670  71.4625510  96.5464660 130.9897370  72.2015550
  97.1328180 130.2850810  70.9967610 106.5859360 114.4144900  69.6655540
 105.7119200 114.7480010  69.4628470 106.4770110 113.9418080  70.4907410
 107.4931340 116.6215770  71.0497260 107.1644700 115.8067530  70.6698990
 108.4413640 116.5785580  70.9262950 109.9465950 132.3927810  68.0234830
 109.4868920 133.1443620  67.6492850 109.3178410 131.6734280  67.9649630
  96.7716570 128.4871050  70.4133550  96.0450630 127.8676340  70.3459500
  96.8325720 128.8811660  69.5431630 100.3761670 130.7016050  67.1982960
 100.8926690 130.0903410  66.6731220 101.0259050 131.2044830  67.6893970
 103.1157170 131.5924540  68.0251940 103.4034980 131.3378840  67.1484950
 103.6280390 131.0401900  68.6157510 104.3334180 115.3314740  68.6048450
 103.5505970 115.8060240  68.8845210 104.0397110 114.4269570  68.4961630
  95.0546570 131.8045440  63.6230310  94.8868610 131.1716120  64.3212200
  94.1881080 132.0104840  63.2724500 102.2188400 117.7501490  64.1164480
 101.4062910 117.3758380  63.7760360 102.7230040 116.9946570  64.4185670
 106.7213380 114.4143940  65.3547550 107.3242750 114.9864150  65.8296070
 105.9806370 114.9783380  65.1321450 109.8647980 114.8165500  60.6287830
 110.0598610 115.7148950  60.8955260 109.0777850 114.5852580  61.1220780
  98.0499740 116.1626270  59.6664140  98.5792500 115.3756070  59.5372090
  98.6828060 116.8417460  59.8999670 100.2437580 115.9001410  62.7209530
  99.6140320 115.1988720  62.8879660  99.7042720 116.6605540  62.5042690
 103.1829530 132.5140640  75.3920140 104.1096840 132.2784910  75.4356100
 103.1679960 133.3412640  74.9106170 111.4174590 132.0566210  62.3894390
 111.5926780 131.3703950  61.7455310 110.7196160 132.5813260  61.9971060
 100.3693140 115.1785390  75.1562020 100.0877410 115.6818990  74.3922840
 100.7512840 114.3807140  74.7904150  99.2602240 132.4461050  59.9429700
  99.9921060 132.1620330  59.3953590  99.5195910 132.2074330  60.8329080
 106.9708600 114.5938970  75.7342490 106.8574050 114.9133580  76.6294010
 107.7878340 114.9951480  75.4379770 109.7507090 131.7410500  75.2161180
 110.5432410 131.2459730  75.0087140 110.0440240 132.4200640  75.8236790
 104.0084790 124.3910460  47.9786500 103.2326890 123.9110900  48.2685070
 104.6597720 123.7116110  47.8042660 108.0292220 128.7970650  46.7585630
 107.5673750 128.0257890  47.0872800 108.8417770 128.8236720  47.2638080
  98.0051880 128.7370360  49.0520280  98.3079920 127.8468100  48.8730500
  98.7495470 129.2940580  48.8242530  94.3975580 122.2637810  48.5244350
  94.9691690 121.4960010  48.5247990  94.3977120 122.5626570  47.6150960
 104.2555530 131.0828660  46.3789620 103.6366970 131.5386160  45.8084060
 105.1107310 131.2380120  45.9779320 103.4493780 127.0667650  47.9856660
 103.3802060 126.1257590  47.8245790 104.2113640 127.1569060  48.5579230
  95.6400450 117.6722170  50.3113280  95.4603290 116.7747920  50.5916040
  95.2380530 118.2194040  50.9860230  98.6103960 118.2463660  43.6743030
  98.7170710 119.1467390  43.9811790  97.6996320 118.1981630  43.3837680
 108.2623070 117.3688470  45.1453930 109.0832690 116.8785040  45.1879410
 108.2957150 117.9586130  45.8985770  96.2587120 120.1682670  48.9195620
  96.9397230 120.4321040  49.5383020  95.9435170 119.3283540  49.2533630
 112.5522620 119.3855220  51.7097560 111.8474790 119.7736930  51.1912670
 112.8180540 120.0805510  52.3118490  98.7347790 115.8548590  52.2731630
  98.7366230 116.3720980  51.4677530  97.9052100 115.3778770  52.2501560
 105.1218880 125.9667900  43.7721530 104.5036150 126.4317350  43.2084250
 105.6342130 126.6595380  44.1891040  99.9850640 125.4943770  50.4505130
  99.6520020 126.1212690  51.0926200 100.1617320 126.0205650  49.6706800
  98.4163120 117.5658550  50.2802080  98.7579930 118.4100600  49.9855950
  97.4778930 117.7142290  50.3967420  99.1969740 127.4624570  52.2654310
  99.8143740 128.1375650  51.9838760  98.3362860 127.8712550  52.1741810
  94.4902080 126.6524430  41.1461160  94.1130060 127.1411530  40.4146060
  94.7475150 127.3249710  41.7767690 110.1147330 128.9263980  50.1808950
 109.4310850 129.5963090  50.1725620 110.6541620 129.1244630  49.4153810
 111.5671470 118.7543640  48.3090680 110.6196380 118.7882620  48.4406110
 111.8921460 119.5682590  48.6940040 102.0991010 115.0540820  46.6046670
 102.4065990 114.4987710  45.8882170 101.1691710 115.1885280  46.4219660
 107.6506070 130.7708110  48.8954130 107.6633230 130.3670400  48.0276390
 107.0981290 131.5455400  48.7915560 108.9451490 127.4924330  43.9844300
 108.8347820 126.5498660  44.1093720 108.9419740 127.8539970  44.8707060
 107.0491510 125.6737950  50.2236740 107.4660300 125.4598060  49.3890200
 107.7731330 125.9310740  50.7945360 104.4871770 123.1189650  43.3406790
 103.5601050 123.0527030  43.5695260 104.6396590 124.0569780  43.2262030
 104.4740850 119.3906650  40.3373950 103.5344520 119.5520610  40.4226410
 104.7924110 120.1092330  39.7909940 110.9953610 124.0725170  50.3152980
 110.1672240 124.1418260  49.8403110 111.5904090 124.6579480  49.8468810
 108.5169060 124.6809950  43.8442040 107.8981480 124.3429500  43.1968340
 108.4993510 124.0369710  44.5521230  98.8057030 120.4197600  49.9025560
  99.3571620 120.5292940  49.1278810  99.3200540 120.7935200  50.6180790
 108.6495720 130.9053820  51.9488830 108.1726280 131.7126010  51.7561440
 107.9657510 130.2532150  52.1015040 106.6933760 123.9196760  40.8514790
 107.1327040 123.0819190  40.7052610 107.4062180 124.5526160  40.9378930
  98.4799760 123.9416960  53.5130900  98.3407530 124.8139760  53.8818300
  97.5981120 123.5989770  53.3678840 104.8029140 128.8592830  44.8196030
 105.2425050 129.6017160  44.4051420 104.7416030 129.1019400  45.7434990
 100.2780110 129.8838660  55.7216050 100.2495540 130.2881610  54.8544480
 100.1145080 128.9549020  55.5587650 110.2750900 115.1739570  39.1655830
 109.9623560 115.2666400  40.0654900 111.0363370 115.7520600  39.1153260
 112.2294930 130.6665760  57.0180220 112.7054650 131.1448650  57.6969300
 112.8502090 130.5983250  56.2925720  94.4318410 125.7114510  49.4301810
  94.5098830 125.8463280  48.4857530  95.0460090 125.0030400  49.6229930
  95.6766040 127.4114700  45.8407990  95.2694120 127.5529290  44.9861590
  96.5679050 127.1274860  45.6379200 111.6328180 127.8578610  54.1780230
 111.7591240 127.6190490  53.2597410 111.6749560 127.0263150  54.6502310
 105.4944920 131.5606610  52.7475040 106.0089590 131.4714620  53.5497470
 104.6514000 131.9066310  53.0402950 107.4699320 131.8461950  42.1759040
 107.3100460 131.5564890  43.0740870 107.3046030 131.0702080  41.6404270
  99.9487700 131.6260480  43.9530660  99.7730180 130.7096020  43.7398460
  99.0943440 131.9847770  44.1928460 107.1725450 129.3549510  40.7357040
 106.4790610 129.3526800  40.0759320 107.9148310 128.9308830  40.3051210
 106.7375380 130.9812220  44.8105530 107.1932330 130.2001600  45.1244150
 107.0767900 131.6919040  45.3546710  94.4877930 126.7528680  51.9696270
  94.6508970 126.2834040  51.1515640  94.9530380 126.2452240  52.6345110
  99.2596700 115.8834440  47.0056840  98.8164850 116.6643980  46.6741360
  99.8181690 116.2064330  47.7127780 102.3755520 115.5045140  41.8862670
 101.7509700 115.5005010  42.6115980 102.2885640 114.6376100  41.4898640
 101.2972600 116.4281770  48.8646440 101.5944930 117.3344600  48.7838460
 101.8458160 115.9400550  48.2506010 106.2808680 121.0131380  43.3328740
 105.6817570 121.7367180  43.1492360 106.8288290 120.9508160  42.5505190
  96.6220670 118.3167260  53.5532140  96.2284060 119.1642470  53.7604920
  95.9339070 117.6793630  53.7440780  94.1107950 120.1815840  38.7964940
  94.0282620 121.1246600  38.9379930  93.7591010 120.0390750  37.9177290
 101.9106080 118.9154870  47.8635290 101.9142140 118.4744820  47.0139830
 102.8057200 119.2372200  47.9707110  97.7608460 118.7981360  46.8229500
  97.4208510 119.2756590  47.5796550  96.9985780 118.3446480  46.4630600
 101.9726230 119.9166950  40.8542050 102.0939050 119.8753430  41.8027870
 101.5874740 120.7791100  40.6988780 100.9847730 122.2268090  40.2525350
 100.4164630 121.7786340  39.6261260 101.6936730 122.5860870  39.7190500
 109.3625350 115.1066530  54.7092120 109.6871120 114.3756190  55.2350100
 109.3981860 114.7880170  53.8073110  96.0616910 126.1280110  54.1292080
  95.6771700 125.4873780  54.7275040  96.3729100 126.8316230  54.6986810
 102.2114050 122.9756650  49.6100700 102.5784180 122.5015220  50.3562040
 102.0219110 123.8498220  49.9509040  95.0754540 117.7200340  45.7394170
  94.7901460 117.3556010  46.5772790  95.0133400 116.9880800  45.1257310
 100.0013420 122.0165290  51.9284910  99.6970490 122.8957270  52.1535270
 100.9559880 122.0765080  51.9642350  98.5295210 126.2226280  42.5251760
  97.7557470 125.6823900  42.3650480  99.2589840 125.7032890  42.1869520
 109.2883190 125.2191640  48.3178150 110.0082310 125.7146930  47.9274260
 109.0865010 124.5409530  47.6732020 104.7493130 116.6129600  42.4607540
 103.9357740 116.1142770  42.3852850 104.5555080 117.4527850  42.0443890
 107.4641520 120.9849250  40.7569700 108.3521140 121.2966480  40.5821040
 107.4346610 120.1121500  40.3650280 103.4602110 127.1572940  41.4357870
 103.8017810 127.9015170  40.9401190 102.6314820 127.4704060  41.7982700
  96.0577150 122.8568030  53.0756270  95.6992090 123.5221880  53.6629610
  95.7631710 122.0251580  53.4468890 109.7355790 122.2961090  40.2249560
 109.6519510 122.7275310  39.3746000 110.4549980 122.7559440  40.6576380
 110.8129930 124.7528610  53.3019530 110.0878120 125.3457390  53.1048920
 111.3405390 124.7452150  52.5032900 110.7643040 129.1503350  42.9531690
 110.1219200 128.4958970  43.2275410 110.3773700 129.5558440  42.1772360
 106.3429520 126.4788780  46.8003380 106.6953340 125.8816910  46.1404750
 105.4591850 126.1533010  46.9711630 102.4292800 127.2386470  44.2073790
 103.1163930 127.7855680  44.5881380 101.6425220 127.7827200  44.2423400
  94.5685200 122.8559290  39.6990870  95.4380050 123.1384090  39.9826790
  94.0775520 123.6695160  39.5839680 104.0352620 129.7538840  51.0491450
 104.6794840 129.9598220  51.7264870 104.3982060 128.9927240  50.5962300
  97.6331790 114.5870150  44.2921670  97.5046420 114.5788050  45.2406590
  96.8093810 114.9253240  43.9412680 105.3084700 127.7571190  49.7668900
 105.9506930 127.0564350  49.8801070 105.8334050 128.5369630  49.5865790
 109.1540420 128.0419810  39.4908040 108.9278000 127.3250250  40.0832680
 108.7636620 127.7932250  38.6529790 107.0822320 128.5566090  52.9704960
 107.4178560 129.1432780  53.6482880 106.1622660 128.4258800  53.2002750
  94.9356450 132.0686670  40.2652500  95.2954090 132.6676010  39.6109770
  94.7948790 132.6146560  41.0387530 108.7356670 125.9591750  41.1522200
 108.4478370 126.4204440  41.9400080 109.5308840 125.4989520  41.4206420
  94.9198310 130.3341530  54.7394900  95.0289430 129.3936270  54.5990290
  94.2678870 130.5996280  54.0908630 100.9525070 129.4517870  41.0826170
 100.9435170 130.1847560  40.4670680 100.0323430 129.2049450  41.1753130
  96.5531710 124.6732760  41.8272930  95.9459660 125.4131660  41.8368230
  97.0281060 124.7632120  41.0011130 109.4926530 117.7940520  42.3117380
 108.8639690 117.8986190  41.5975610 108.9978450 118.0137300  43.1011260
 103.9384670 129.5146110  39.7451360 104.0396650 129.3110100  38.8153340
 103.0386410 129.2604390  39.9499140 101.4610560 120.0726470  43.7275260
 100.7526710 120.5412810  44.1688870 101.7455040 119.4148480  44.3620450
 105.4925990 116.7977130  45.1671050 105.3693770 116.8163260  44.2180560
 106.4410550 116.8456070  45.2869450 102.5802780 132.0332430  44.4399030
 102.8344280 131.9953820  43.5178400 101.6315260 131.9065760  44.4327280
  99.6645580 118.3811550  41.1025970 100.5136110 118.8181700  41.0366160
  99.2976850 118.6931810  41.9298030 110.2933350 117.7091130  52.5696180
 109.7906950 118.4496530  52.9089990 111.1090010 118.0975130  52.2532970
 108.5855360 122.9524310  46.0157540 107.6445500 122.9674540  46.1905230
 108.8999430 122.1660270  46.4617840  98.5637000 124.6343910  39.5761500
  99.3300270 124.5225270  40.1386930  98.6411690 123.9381880  38.9238270
  97.2583760 122.0668980  40.2594390  97.3387350 121.1196490  40.3711790
  98.1503510 122.3975860  40.3655050 110.5880940 130.1233160  47.6911800
 110.7128360 130.9464330  48.1635610 111.4546500 129.9123890  47.3435950
  98.0598470 132.2164370  47.3628930  98.7960950 131.6679830  47.6337500
  98.4439390 133.0820380  47.2234920  94.9443950 128.2837940  43.2370440
  94.0183730 128.5259080  43.2275850  95.4100380 129.1112200  43.1155190
  97.0656750 131.4010440  56.5514510  97.8669480 131.7222490  56.9649910
  96.5508570 131.0406020  57.2734420 101.1700780 131.3894680  39.1854500
 101.9629390 131.6783510  38.7336290 100.6505130 130.9586850  38.5066980
 107.3321750 131.2370600  55.1099330 108.2843500 131.1528620  55.0599570
 107.1849970 131.9012310  55.7833120 110.2230950 130.6164810  40.6091240
 109.9372460 130.2029950  39.7945420 110.0250500 131.5452520  40.4891760
  94.7854560 123.8883900  55.4950560  95.2893580 123.3091180  56.0666790
  94.0461980 124.1724130  56.0326930 101.6878180 126.6098090  39.0496850
 101.5828820 125.9950440  39.7758230 101.5202400 126.0863980  38.2659860
 104.9280910 125.6718120  39.6538840 104.3791010 126.1187420  40.2981580
 105.5500170 125.1667370  40.1776510 108.9815850 127.0260220  55.5861100
 109.7225320 127.3635980  55.0828560 108.2188530 127.1952280  55.0330870
  96.8177640 122.0313490  56.3900630  96.8582980 121.7327360  57.2985860
  97.6723140 122.4321100  56.2308150 100.5956030 124.6309040  41.5504140
 101.0172450 124.4648910  42.3935530 100.7206870 123.8209270  41.0559280
  98.7583450 120.6105590  54.3575120  98.2279910 120.1196540  53.7298460
  99.4271520 121.0389790  53.8233050 103.1083670 123.6546650  38.7981240
 103.6289330 122.9395670  38.4322390 103.7552070 124.2932520  39.0981750
 107.6561510 125.0775050  54.1216310 108.0702530 125.2320130  54.9706730
 106.7212510 125.2030270  54.2842090  99.2455750 117.5767960  54.4372410
  99.1512620 116.9588710  53.7123280  98.6653140 118.3034250  54.2102320
 102.0117190 116.1341200  51.4699800 101.5634490 116.1565460  50.6245350
 101.3782390 115.7360220  52.0670100  99.4914930 120.7042270  38.4962300
  99.2903990 119.8409630  38.8575640  99.3206980 120.6175630  37.5583900
 100.2684160 131.3348540  53.2069970  99.7305250 132.0594600  52.8878670
 100.5218120 130.8578880  52.4167310 106.9703240 115.5150500  41.0249180
 107.2505530 114.6718400  41.3808600 106.1968970 115.7473610  41.5387930
  98.2897730 117.8042890  38.4840180  98.5923630 117.8110320  37.5759330
  99.0292320 117.4540750  38.9807840 103.1246370 132.5699750  53.4656620
 103.0505070 133.4734890  53.7728990 102.2225210 132.2511650  53.4378690
 101.5082660 116.7477510  39.4696380 101.1604660 116.0701500  38.8898830
 101.7095430 116.2867020  40.2839770 103.6731700 131.7358260  41.0882980
 104.5682490 132.0743230  41.1101740 103.7049330 131.0137670  40.4607260
  97.3127860 127.1085310  39.3169980  97.7502730 127.6514980  39.9727560
  97.7975590 126.2832260  39.3266320  94.5273660 129.8974340  46.7690240
  94.8576670 129.0295400  46.5368880  94.9564660 130.1032860  47.5995200
  95.0163870 130.7644930  49.5071870  94.5794860 130.9445730  50.3396020
  95.5841550 131.5219550  49.3653590 110.6526050 130.2661930  53.7949180
 110.0528040 130.3254490  53.0513100 110.7819950 129.3266910  53.9246030
 111.8927500 128.0079750  39.1318890 111.0620460 128.0756400  39.6026120
 112.0699330 128.8983870  38.8285750 111.3483960 124.7527230  41.6353090
 112.1102870 125.3223880  41.7412780 111.3638330 124.1854430  42.4061400
 112.3543930 125.6077330  46.4795020 112.7252760 124.8244650  46.0730990
 112.9945860 126.2966430  46.3012320 109.3377690 126.9913910  51.8925340
 108.5237530 127.4211070  52.1551130 109.7451890 127.6032320  51.2794390
 111.4003130 125.0461600  38.7925610 111.6751970 125.9540480  38.6644830
 111.2113870 124.9824130  39.7287600 107.7978740 118.0706450  40.0879240
 108.2163620 117.8837430  39.2475900 107.4914800 117.2185500  40.3982170
 111.2968470 122.9830590  43.7855040 110.9212070 122.2158520  43.3536330
 110.5671590 123.3653290  44.2729970  95.8864230 123.6617730  50.4064090
  96.2537270 123.5745130  51.2860110  95.3175050 122.8984280  50.3070950
 110.6868090 122.1302110  53.4194560 110.4554180 121.9014860  52.5192510
 110.9472640 123.0501660  53.3739450  95.4380230 120.5726820  54.3122510
  94.5436280 120.5393580  54.6516220  95.9777780 120.7713610  55.0773760
 110.5719430 121.2088080  47.0862280 111.0956910 120.7150730  46.4552450
 111.1578850 121.3438440  47.8309850 110.7509150 121.2927950  50.6081830
 109.8011860 121.2591490  50.7226820 110.9322160 122.2028060  50.3731600
  96.6053590 119.5429630  39.7180460  97.3145290 119.1212850  39.2327740
  95.8893530 119.6104860  39.0863810  96.2527750 115.5968960  38.7583110
  96.9755880 116.1377900  39.0764330  96.5252270 115.3232380  37.8824650
 110.0619400 120.4661430  43.0254690 110.5578520 120.2332300  43.8103570
 109.8635470 119.6273270  42.6092330 111.4906560 119.1022380  45.5592370
 111.3805840 118.9478420  46.4974640 112.2514150 118.5743320  45.3167780
 109.8372280 115.0416510  52.0175370 110.4744500 115.6550650  52.3834560
 109.9847170 115.0777170  51.0724600 112.3796830 116.9330300  38.7998510
 113.3046140 116.8011480  38.5916800 112.3572620 117.0123120  39.7534960
 112.4535320 117.7040960  41.4255220 111.6586820 117.6386080  41.9548130
 112.6578600 118.6391600  41.4140570 109.3953740 131.7432510  45.4193610
 109.9912810 131.4217080  44.7428030 109.6531890 131.2704330  46.2106880
  97.3016310 128.1750420  55.5684240  97.2585940 127.8043330  56.4498700
  97.4327320 129.1127990  55.7086060 101.0022340 129.7310010  51.1693960
 100.7613700 129.9984570  50.2824480 101.9424980 129.9015740  51.2244820
 103.2076760 116.1942700  54.9250470 103.1465650 116.7864530  55.6745880
 104.1477140 116.0868660  54.7800730 105.8451320 115.8512760  54.5642760
 106.4591730 116.1692050  53.9023840 106.3900880 115.3661350  55.1838620
 112.2626500 131.7504390  51.9704600 111.7684780 132.1473260  51.2531730
 111.6539790 131.1253600  52.3641880  97.1404340 131.1212670  52.6882020
  96.5464660 130.9897370  53.4272060  97.1328180 130.2850810  52.2224120
 106.5859360 114.4144900  50.8912050 105.7119200 114.7480010  50.6884980
 106.4770110 113.9418080  51.7163920 109.9465950 132.3927810  49.2491340
 109.4868920 133.1443620  48.8749360 109.3178410 131.6734280  49.1906140
  96.7716570 128.4871050  51.6390060  96.0450630 127.8676340  51.5716010
  96.8325720 128.8811660  50.7688140 100.3761670 130.7016050  48.4239470
 100.8926690 130.0903410  47.8987730 101.0259050 131.2044830  48.9150480
 103.1157170 131.5924540  49.2508450 103.4034980 131.3378840  48.3741460
 103.6280390 131.0401900  49.8414020 108.8855250 116.0337840  47.8754050
 109.3263340 115.9782940  47.0275650 108.6162840 116.9495850  47.9464230
 110.7493820 115.6653080  45.8862870 110.6882220 114.7214300  45.7393890
 111.5285850 115.7733170  46.4316330  95.0546570 131.8045440  44.8486820
  94.8868610 131.1716120  45.5468710  94.1881080 132.0104840  44.4981010
  95.6774590 115.6362220  42.3518680  96.4353950 115.7491100  41.7782710
  95.2151760 116.4731420  42.3062110 102.2188400 117.7501490  45.3420990
 101.4062910 117.3758380  45.0016870 102.7230040 116.9946570  45.6442180
 106.7213380 114.4143940  46.5804060 107.3242750 114.9864150  47.0552580
 105.9806370 114.9783380  46.3577960 109.8647980 114.8165500  41.8544340
 110.0598610 115.7148950  42.1211770 109.0777850 114.5852580  42.3477290
  96.6609270 130.4978670  42.2936960  96.1356890 130.8786700  41.5898920
  96.5853850 131.1229440  43.0146670  98.0499740 116.1626270  40.8920650
  98.5792500 115.3756070  40.7628600  98.6828060 116.8417460  41.1256180
 100.2437580 115.9001410  43.9466040  99.6140320 115.1988720  44.1136170
  99.7042720 116.6605540  43.7299200 103.1829530 132.5140640  56.6176650
 104.1096840 132.2784910  56.6612610 103.1679960 133.3412640  56.1362680
 111.4174590 132.0566210  43.6150900 111.5926780 131.3703950  42.9711820
 110.7196160 132.5813260  43.2227570 100.3693140 115.1785390  56.3818530
 100.0877410 115.6818990  55.6179350 100.7512840 114.3807140  56.0160660
  99.2602240 132.4461050  41.1686210  99.9921060 132.1620330  40.6210100
  99.5195910 132.2074330  42.0585590  98.4217030 128.5625780  41.1732540
  97.7925910 129.0310880  41.7218370  98.5364860 127.7175000  41.6078730
 106.9708600 114.5938970  56.9599000 106.8574050 114.9133580  57.8550520
 107.7878340 114.9951480  56.6636280 109.7507090 131.7410500  56.4417690
 110.5432410 131.2459730  56.2343650 110.0440240 132.4200640  57.0493300
 105.8766750 122.6131440  27.3233740 105.7960800 121.6986050  27.0525450
 105.4631170 123.1098510  26.6173450 104.0084790 124.3910460  29.2043010
 103.2326890 123.9110900  29.4941580 104.6597720 123.7116110  29.0299170
  98.0250620 124.7030270  30.0818770  97.1935500 124.4478980  30.4815280
  98.6331600 124.7741040  30.8176690 108.0292220 128.7970650  27.9842140
 107.5673750 128.0257890  28.3129310 108.8417770 128.8236720  28.4894590
  98.0051880 128.7370360  30.2776790  98.3079920 127.8468100  30.0987010
  98.7495470 129.2940580  30.0499040  96.4342570 119.6632160  23.8661160
  95.5459270 120.0048130  23.7641040  96.7183760 119.4632480  22.9741990
  94.3975580 122.2637810  29.7500860  94.9691690 121.4960010  29.7504500
  94.3977120 122.5626570  28.8407470 104.2555530 131.0828660  27.6046130
 103.6366970 131.5386160  27.0340570 105.1107310 131.2380120  27.2035830
 103.4493780 127.0667650  29.2113170 103.3802060 126.1257590  29.0502300
 104.2113640 127.1569060  29.7835740  95.6400450 117.6722170  31.5369790
  95.4603290 116.7747920  31.8172550  95.2380530 118.2194040  32.2116740
 104.4798950 119.8738030  29.4382100 104.8563770 119.0009910  29.3255770
 104.3818460 120.2096730  28.5472540  98.6103960 118.2463660  24.8999540
  98.7170710 119.1467390  25.2068300  97.6996320 118.1981630  24.6094190
 108.2623070 117.3688470  26.3710440 109.0832690 116.8785040  26.4135920
 108.2957150 117.9586130  27.1242280  96.2587120 120.1682670  30.1452130
  96.9397230 120.4321040  30.7639530  95.9435170 119.3283540  30.4790140
 100.4511690 121.2150030  29.2324720 100.9589910 121.7131000  29.8729740
 100.9824930 120.4385230  29.0564080 112.5522620 119.3855220  32.9354070
 111.8474790 119.7736930  32.4169180 112.8180540 120.0805510  33.5375000
  98.7347790 115.8548590  33.4988140  98.7366230 116.3720980  32.6934040
  97.9052100 115.3778770  33.4758070 105.1218880 125.9667900  24.9978040
 104.5036150 126.4317350  24.4340760 105.6342130 126.6595380  25.4147550
  99.9850640 125.4943770  31.6761640  99.6520020 126.1212690  32.3182710
 100.1617320 126.0205650  30.8963310 108.4984550 119.3088850  29.1437980
 107.7940120 119.5973740  29.7241090 108.8596710 120.1188960  28.7837540
  98.4163120 117.5658550  31.5058590  98.7579930 118.4100600  31.2112460
  97.4778930 117.7142290  31.6223930  99.1969740 127.4624570  33.4910820
  99.8143740 128.1375650  33.2095270  98.3362860 127.8712550  33.3998320
  94.4902080 126.6524430  22.3717670  94.1130060 127.1411530  21.6402570
  94.7475150 127.3249710  23.0024200 110.1147330 128.9263980  31.4065460
 109.4310850 129.5963090  31.3982130 110.6541620 129.1244630  30.6410320
 111.5671470 118.7543640  29.5347190 110.6196380 118.7882620  29.6662620
 111.8921460 119.5682590  29.9196550 102.0991010 115.0540820  27.8303180
 102.4065990 114.4987710  27.1138680 101.1691710 115.1885280  27.6476170
 107.6506070 130.7708110  30.1210640 107.6633230 130.3670400  29.2532900
 107.0981290 131.5455400  30.0172070 108.9451490 127.4924330  25.2100810
 108.8347820 126.5498660  25.3350230 108.9419740 127.8539970  26.0963570
 107.0491510 125.6737950  31.4493250 107.4660300 125.4598060  30.6146710
 107.7731330 125.9310740  32.0201870 104.4871770 123.1189650  24.5663300
 103.5601050 123.0527030  24.7951770 104.6396590 124.0569780  24.4518540
 104.4740850 119.3906650  21.5630460 103.5344520 119.5520610  21.6482920
 104.7924110 120.1092330  21.0166450 110.9953610 124.0725170  31.5409490
 110.1672240 124.1418260  31.0659620 111.5904090 124.6579480  31.0725320
 108.5169060 124.6809950  25.0698550 107.8981480 124.3429500  24.4224850
 108.4993510 124.0369710  25.7777740 107.9595620 120.8594490  32.4864360
 107.5466800 121.6848200  32.7404350 107.2271570 120.2739530  32.2940720
 100.0928410 123.6454390  27.3483030  99.6885410 122.9331640  26.8528930
 100.1791530 123.3007630  28.2371070 100.5610110 127.3321950  29.5122240
 100.2638400 126.7267420  28.8330020 101.5109930 127.3699260  29.4011600
  98.8057030 120.4197600  31.1282070  99.3571620 120.5292940  30.3535320
  99.3200540 120.7935200  31.8437300 108.6495720 130.9053820  33.1745340
 108.1726280 131.7126010  32.9817950 107.9657510 130.2532150  33.3271550
  99.6528540 127.0703640  36.1630040  98.7557070 127.2943610  36.4103440
  99.6781410 127.1938580  35.2141440 106.6933760 123.9196760  22.0771300
 107.1327040 123.0819190  21.9309120 107.4062180 124.5526160  22.1635440
  98.4799760 123.9416960  34.7387410  98.3407530 124.8139760  35.1074810
  97.5981120 123.5989770  34.5935350 104.8029140 128.8592830  26.0452540
 105.2425050 129.6017160  25.6307930 104.7416030 129.1019400  26.9691500
 100.2780110 129.8838660  36.9472560 100.2495540 130.2881610  36.0800990
 100.1145080 128.9549020  36.7844160 110.2750900 115.1739570  20.3912340
 109.9623560 115.2666400  21.2911410 111.0363370 115.7520600  20.3409770
  96.7933040 122.5399370  24.8489680  96.6730640 123.2661460  24.2370950
  96.4833930 121.7702280  24.3717590 112.2294930 130.6665760  38.2436730
 112.7054650 131.1448650  38.9225810 112.8502090 130.5983250  37.5182230
  94.4318410 125.7114510  30.6558320  94.5098830 125.8463280  29.7114040
  95.0460090 125.0030400  30.8486440  95.6766040 127.4114700  27.0664500
  95.2694120 127.5529290  26.2118100  96.5679050 127.1274860  26.8635710
 111.6328180 127.8578610  35.4036740 111.7591240 127.6190490  34.4853920
 111.6749560 127.0263150  35.8758820 105.4944920 131.5606610  33.9731550
 106.0089590 131.4714620  34.7753980 104.6514000 131.9066310  34.2659460
 107.4699320 131.8461950  23.4015550 107.3100460 131.5564890  24.2997380
 107.3046030 131.0702080  22.8660780  99.9487700 131.6260480  25.1787170
  99.7730180 130.7096020  24.9654970  99.0943440 131.9847770  25.4184970
 107.1725450 129.3549510  21.9613550 106.4790610 129.3526800  21.3015830
 107.9148310 128.9308830  21.5307720 106.7375380 130.9812220  26.0362040
 107.1932330 130.2001600  26.3500660 107.0767900 131.6919040  26.5803220
 111.4852190 119.9111070  36.3686480 110.8696460 120.4190740  35.8401940
 111.1648610 119.0109400  36.3112420  94.4877930 126.7528680  33.1952780
  94.6508970 126.2834040  32.3772150  94.9530380 126.2452240  33.8601620
  99.2596700 115.8834440  28.2313350  98.8164850 116.6643980  27.8997870
  99.8181690 116.2064330  28.9384290 103.5466510 118.7502960  33.8348670
 103.0845880 118.9585980  34.6468610 103.1444620 117.9362310  33.5319340
 108.5471020 119.9711910  34.9645330 107.6964610 119.6717660  35.2854400
 108.3872810 120.2153920  34.0529150 105.6420730 121.4713660  37.0644120
 105.9674140 120.6377410  36.7246350 106.4301060 121.9942180  37.2122450
 102.3755520 115.5045140  23.1119180 101.7509700 115.5005010  23.8372490
 102.2885640 114.6376100  22.7155150 101.2972600 116.4281770  30.0902950
 101.5944930 117.3344600  30.0094970 101.8458160 115.9400550  29.4762520
  99.0510920 121.0068010  25.9594600  98.8251840 120.7905180  26.8641220
  98.2703450 121.4396470  25.6140570 106.2808680 121.0131380  24.5585250
 105.6817570 121.7367180  24.3748870 106.8288290 120.9508160  23.7761700
 101.4910130 121.9053590  36.6254870 101.3953730 120.9648320  36.4755270
 102.3342110 122.1268660  36.2302940 104.8873550 119.6494920  26.5888530
 105.2803120 119.9667120  25.7757220 105.2490400 118.7706800  26.7033050
  96.6220670 118.3167260  34.7788650  96.2284060 119.1642470  34.9861430
  95.9339070 117.6793630  34.9697290 103.1965720 118.4002230  37.8485390
 102.5064040 118.2074430  38.4831480 103.9398020 118.6836870  38.3809690
  93.9237720 116.2395720  28.8118730  93.6350770 116.8098580  29.5243710
  94.6683480 115.7600170  29.1749960  94.1107950 120.1815840  20.0221450
  94.0282620 121.1246600  20.1636440  93.7591010 120.0390750  19.1433800
 105.4728690 122.2400670  30.6839310 104.7409810 122.7487480  31.0329410
 105.0753030 121.4230650  30.3828090 101.9106080 118.9154870  29.0891800
 101.9142140 118.4744820  28.2396340 102.8057200 119.2372200  29.1963620
  97.7608460 118.7981360  28.0486010  97.4208510 119.2756590  28.8053060
  96.9985780 118.3446480  27.6887110 101.9726230 119.9166950  22.0798560
 102.0939050 119.8753430  23.0284380 101.5874740 120.7791100  21.9245290
 105.9354600 117.6934350  30.0962250 105.9527340 118.1443000  30.9404100
 105.6870180 116.7939990  30.3095690 100.9847730 122.2268090  21.4781860
 100.4164630 121.7786340  20.8517770 101.6936730 122.5860870  20.9447010
 109.3625350 115.1066530  35.9348630 109.6871120 114.3756190  36.4606610
 109.3981860 114.7880170  35.0329620  96.0616910 126.1280110  35.3548590
  95.6771700 125.4873780  35.9531550  96.3729100 126.8316230  35.9243320
 102.2114050 122.9756650  30.8357210 102.5784180 122.5015220  31.5818550
 102.0219110 123.8498220  31.1765550  95.0754540 117.7200340  26.9650680
  94.7901460 117.3556010  27.8029300  95.0133400 116.9880800  26.3513820
 100.0013420 122.0165290  33.1541420  99.6970490 122.8957270  33.3791780
 100.9559880 122.0765080  33.1898860  98.5295210 126.2226280  23.7508270
  97.7557470 125.6823900  23.5906990  99.2589840 125.7032890  23.4126030
 109.2883190 125.2191640  29.5434660 110.0082310 125.7146930  29.1530770
 109.0865010 124.5409530  28.8988530 104.7493130 116.6129600  23.6864050
 103.9357740 116.1142770  23.6109360 104.5555080 117.4527850  23.2700400
 104.6701990 125.2900700  35.4303660 104.6039300 124.3696370  35.1761250
 104.0407130 125.3876140  36.1448300 107.4641520 120.9849250  21.9826210
 108.3521140 121.2966480  21.8077550 107.4346610 120.1121500  21.5906790
  98.5732610 125.8906660  27.3887080  99.0911280 125.0874920  27.3343970
  98.1216630 125.8285800  28.2303910 103.4602110 127.1572940  22.6614380
 103.8017810 127.9015170  22.1657700 102.6314820 127.4704060  23.0239210
  96.0577150 122.8568030  34.3012780  95.6992090 123.5221880  34.8886120
  95.7631710 122.0251580  34.6725400  99.2590270 123.3152270  37.1852330
  98.9590410 123.4609450  36.2880150 100.0301510 122.7557560  37.0925720
 104.6018720 128.1121270  35.1807460 104.6163260 127.1802230  34.9626370
 103.8943820 128.1981030  35.8197230 109.7355790 122.2961090  21.4506070
 109.6519510 122.7275310  20.6002510 110.4549980 122.7559440  21.8832890
 110.8129930 124.7528610  34.5276040 110.0878120 125.3457390  34.3305430
 111.3405390 124.7452150  33.7289410 110.7643040 129.1503350  24.1788200
 110.1219200 128.4958970  24.4531920 110.3773700 129.5558440  23.4028870
 106.3429520 126.4788780  28.0259890 106.6953340 125.8816910  27.3661260
 105.4591850 126.1533010  28.1968140 102.4292800 127.2386470  25.4330300
 103.1163930 127.7855680  25.8137890 101.6425220 127.7827200  25.4679910
  94.5685200 122.8559290  20.9247380  95.4380050 123.1384090  21.2083300
  94.0775520 123.6695160  20.8096190 101.7320010 124.2432500  25.0455660
 102.1882790 125.0537750  25.2715850 101.3808220 123.9255640  25.8774150
 104.0352620 129.7538840  32.2747960 104.6794840 129.9598220  32.9521380
 104.3982060 128.9927240  31.8218810  97.6331790 114.5870150  25.5178180
  97.5046420 114.5788050  26.4663100  96.8093810 114.9253240  25.1669190
 105.3084700 127.7571190  30.9925410 105.9506930 127.0564350  31.1057580
 105.8334050 128.5369630  30.8122300 109.1540420 128.0419810  20.7164550
 108.9278000 127.3250250  21.3089190 108.7636620 127.7932250  19.8786300
 107.0822320 128.5566090  34.1961470 107.4178560 129.1432780  34.8739390
 106.1622660 128.4258800  34.4259260  94.9356450 132.0686670  21.4909010
  95.2954090 132.6676010  20.8366280  94.7948790 132.6146560  22.2644040
  94.6325720 116.3461270  34.9784880  93.9184240 116.5458190  35.5837490
  95.0520760 115.5700840  35.3499680 108.7356670 125.9591750  22.3778710
 108.4478370 126.4204440  23.1656590 109.5308840 125.4989520  22.6462930
  94.9198310 130.3341530  35.9651410  95.0289430 129.3936270  35.8246800
  94.2678870 130.5996280  35.3165140 102.9110900 128.6057420  37.3649530
 102.5907770 127.8866660  37.9095220 102.2369260 129.2812490  37.4385590
 100.9525070 129.4517870  22.3082680 100.9435170 130.1847560  21.6927190
 100.0323430 129.2049450  22.4009640  96.5531710 124.6732760  23.0529440
  95.9459660 125.4131660  23.0624740  97.0281060 124.7632120  22.2267640
 106.1264500 118.8383580  32.7286330 106.4945320 118.0178790  33.0565900
 105.2662700 118.8985470  33.1441980 109.4926530 117.7940520  23.5373890
 108.8639690 117.8986190  22.8232120 108.9978450 118.0137300  24.3267770
 103.9384670 129.5146110  20.9707870 104.0396650 129.3110100  20.0409850
 103.0386410 129.2604390  21.1755650 101.4610560 120.0726470  24.9531770
 100.7526710 120.5412810  25.3945380 101.7455040 119.4148480  25.5876960
 103.0866490 121.4923170  32.9524300 103.5851740 121.9668990  33.6176150
 103.2289440 120.5686690  33.1594330 105.4925990 116.7977130  26.3927560
 105.3693770 116.8163260  25.4437070 106.4410550 116.8456070  26.5125960
 102.5802780 132.0332430  25.6655540 102.8344280 131.9953820  24.7434910
 101.6315260 131.9065760  25.6583790  99.6645580 118.3811550  22.3282480
 100.5136110 118.8181700  22.2622670  99.2976850 118.6931810  23.1554540
 110.2933350 117.7091130  33.7952690 109.7906950 118.4496530  34.1346500
 111.1090010 118.0975130  33.4789480 108.5855360 122.9524310  27.2414050
 107.6445500 122.9674540  27.4161740 108.8999430 122.1660270  27.6874350
  98.5637000 124.6343910  20.8018010  99.3300270 124.5225270  21.3643440
  98.6411690 123.9381880  20.1494780  97.2583760 122.0668980  21.4850900
  97.3387350 121.1196490  21.5968300  98.1503510 122.3975860  21.5911560
 110.5880940 130.1233160  28.9168310 110.7128360 130.9464330  29.3892120
 111.4546500 129.9123890  28.5692460  98.0598470 132.2164370  28.5885440
  98.7960950 131.6679830  28.8594010  98.4439390 133.0820380  28.4491430
  94.9443950 128.2837940  24.4626950  94.0183730 128.5259080  24.4532360
  95.4100380 129.1112200  24.3411700  97.0656750 131.4010440  37.7771020
  97.8669480 131.7222490  38.1906420  96.5508570 131.0406020  38.4990930
 101.1700780 131.3894680  20.4111010 101.9629390 131.6783510  19.9592800
 100.6505130 130.9586850  19.7323490 105.9021380 127.5090310  37.7246430
 105.2959540 127.5321910  36.9842180 105.5975490 126.7773350  38.2613680
 107.3321750 131.2370600  36.3355840 108.2843500 131.1528620  36.2856080
 107.1849970 131.9012310  37.0089630 110.2230950 130.6164810  21.8347750
 109.9372460 130.2029950  21.0201930 110.0250500 131.5452520  21.7148270
  94.7854560 123.8883900  36.7207070  95.2893580 123.3091180  37.2923300
  94.0461980 124.1724130  37.2583440 101.6878180 126.6098090  20.2753360
 101.5828820 125.9950440  21.0014740 101.5202400 126.0863980  19.4916370
 101.8392500 125.2954890  36.2542590 101.0738170 125.8639890  36.1697260
 102.0208460 125.0031100  35.3610820 104.9280910 125.6718120  20.8795350
 104.3791010 126.1187420  21.5238090 105.5500170 125.1667370  21.4033020
 108.9815850 127.0260220  36.8117610 109.7225320 127.3635980  36.3085070
 108.2188530 127.1952280  36.2587380  96.8177640 122.0313490  37.6157140
  96.8582980 121.7327360  38.5242370  97.6723140 122.4321100  37.4564660
 100.5956030 124.6309040  22.7760650 101.0172450 124.4648910  23.6192040
 100.7206870 123.8209270  22.2815790  98.7583450 120.6105590  35.5831630
  98.2279910 120.1196540  34.9554970  99.4271520 121.0389790  35.0489560
 103.1083670 123.6546650  20.0237750 103.6289330 122.9395670  19.6578900
 103.7552070 124.2932520  20.3238260 107.6561510 125.0775050  35.3472820
 108.0702530 125.2320130  36.1963240 106.7212510 125.2030270  35.5098600
 108.1283680 122.4171210  37.3511970 108.7104450 121.6623530  37.2632450
 108.3045450 122.9478650  36.5743450  99.2455750 117.5767960  35.6628920
  99.1512620 116.9588710  34.9379790  98.6653140 118.3034250  35.4358830
 102.0117190 116.1341200  32.6956310 101.5634490 116.1565460  31.8501860
 101.3782390 115.7360220  33.2926610 102.4176740 125.0295530  33.3168750
 102.8364850 125.8728260  33.1444990 101.4985370 125.1667570  33.0875530
 104.7540640 122.7611710  34.7006590 104.8736850 122.1652850  35.4401430
 105.6134640 122.7981400  34.2807890 107.0928540 123.3148900  33.2769100
 106.5663760 123.8391520  32.6734240 107.4359880 123.9476290  33.9078830
  99.4914930 120.7042270  19.7218810  99.2903990 119.8409630  20.0832150
  99.3206980 120.6175630  18.7840410 100.2684160 131.3348540  34.4326480
  99.7305250 132.0594600  34.1135180 100.5218120 130.8578880  33.6423820
 101.5209410 119.3033060  35.9582410 102.1109100 118.9948910  36.6460230
 100.7029650 118.8312810  36.1142310 106.3402840 118.9198870  36.1915430
 105.6518360 118.2580410  36.1265420 107.0608860 118.4737140  36.6363890
 106.9703240 115.5150500  22.2505690 107.2505530 114.6718400  22.6065110
 106.1968970 115.7473610  22.7644440  98.2897730 117.8042890  19.7096690
  98.5923630 117.8110320  18.8015840  99.0292320 117.4540750  20.2064350
 103.1246370 132.5699750  34.6913130 103.0505070 133.4734890  34.9985500
 102.2225210 132.2511650  34.6635200 101.5082660 116.7477510  20.6952890
 101.1604660 116.0701500  20.1155340 101.7095430 116.2867020  21.5096280
 103.6731700 131.7358260  22.3139490 104.5682490 132.0743230  22.3358250
 103.7049330 131.0137670  21.6863770  97.3127860 127.1085310  20.5426490
  97.7502730 127.6514980  21.1984070  97.7975590 126.2832260  20.5522830
  94.5273660 129.8974340  27.9946750  94.8576670 129.0295400  27.7625390
  94.9564660 130.1032860  28.8251710  99.1235580 128.2283350  25.6548720
  98.8231120 128.1048320  26.5552630  99.0173070 127.3691940  25.2464450
  95.0163870 130.7644930  30.7328380  94.5794860 130.9445730  31.5652530
  95.5841550 131.5219550  30.5910100 110.6526050 130.2661930  35.0205690
 110.0528040 130.3254490  34.2769610 110.7819950 129.3266910  35.1502540
 111.8927500 128.0079750  20.3575400 111.0620460 128.0756400  20.8282630
 112.0699330 128.8983870  20.0542260 111.3483960 124.7527230  22.8609600
 112.1102870 125.3223880  22.9669290 111.3638330 124.1854430  23.6317910
  94.8488300 123.2765160  27.0917260  94.1937140 123.0076800  26.4476960
  95.6866250 123.1669640  26.6419240 112.3543930 125.6077330  27.7051530
 112.7252760 124.8244650  27.2987500 112.9945860 126.2966430  27.5268830
 109.3377690 126.9913910  33.1181850 108.5237530 127.4211070  33.3807640
 109.7451890 127.6032320  32.5050900 111.4003130 125.0461600  20.0182120
 111.6751970 125.9540480  19.8901340 111.2113870 124.9824130  20.9544110
 107.7978740 118.0706450  21.3135750 108.2163620 117.8837430  20.4732410
 107.4914800 117.2185500  21.6238680 111.2968470 122.9830590  25.0111550
 110.9212070 122.2158520  24.5792840 110.5671590 123.3653290  25.4986480
  95.8864230 123.6617730  31.6320600  96.2537270 123.5745130  32.5116620
  95.3175050 122.8984280  31.5327460 110.6868090 122.1302110  34.6451070
 110.4554180 121.9014860  33.7449020 110.9472640 123.0501660  34.5995960
  95.4380230 120.5726820  35.5379020  94.5436280 120.5393580  35.8772730
  95.9777780 120.7713610  36.3030270 109.1256160 117.3558540  37.4230770
 110.0026340 117.3641940  37.8064770 109.1377000 116.6189380  36.8123120
  94.0626380 120.4864090  23.0342590  93.1590460 120.7494290  22.8594250
  94.5467000 120.7575260  22.2542550 110.5719430 121.2088080  28.3118790
 111.0956910 120.7150730  27.6808960 111.1578850 121.3438440  29.0566360
 110.7509150 121.2927950  31.8338340 109.8011860 121.2591490  31.9483330
 110.9322160 122.2028060  31.5988110  96.6053590 119.5429630  20.9436970
  97.3145290 119.1212850  20.4584250  95.8893530 119.6104860  20.3120320
  96.2527750 115.5968960  19.9839620  96.9755880 116.1377900  20.3020840
  96.5252270 115.3232380  19.1081160 110.0619400 120.4661430  24.2511200
 110.5578520 120.2332300  25.0360080 109.8635470 119.6273270  23.8348840
  95.9419940 114.8475150  29.8862240  96.5896130 114.2972530  29.4457400
  96.3621780 115.1018300  30.7078050 111.4906560 119.1022380  26.7848880
 111.3805840 118.9478420  27.7231150 112.2514150 118.5743320  26.5424290
 109.8372280 115.0416510  33.2431880 110.4744500 115.6550650  33.6091070
 109.9847170 115.0777170  32.2981110 112.3796830 116.9330300  20.0255020
 113.3046140 116.8011480  19.8173310 112.3572620 117.0123120  20.9791470
 112.4535320 117.7040960  22.6511730 111.6586820 117.6386080  23.1804640
 112.6578600 118.6391600  22.6397080 109.3953740 131.7432510  26.6450120
 109.9912810 131.4217080  25.9684540 109.6531890 131.2704330  27.4363390
  95.6951940 115.0030820  32.6287560  95.3466760 115.4594640  33.3945740
  95.3639640 114.1087950  32.7109990  97.3016310 128.1750420  36.7940750
  97.2585940 127.8043330  37.6755210  97.4327320 129.1127990  36.9342570
 101.0022340 129.7310010  32.3950470 100.7613700 129.9984570  31.5080990
 101.9424980 129.9015740  32.4501330 103.2076760 116.1942700  36.1506980
 103.1465650 116.7864530  36.9002390 104.1477140 116.0868660  36.0057240
 105.8451320 115.8512760  35.7899270 106.4591730 116.1692050  35.1280350
 106.3900880 115.3661350  36.4095130 112.2626500 131.7504390  33.1961110
 111.7684780 132.1473260  32.4788240 111.6539790 131.1253600  33.5898390
  96.3672580 114.5307020  35.9038330  96.9155570 114.3495070  35.1404440
  96.4327890 113.7401130  36.4394640  97.1404340 131.1212670  33.9138530
  96.5464660 130.9897370  34.6528570  97.1328180 130.2850810  33.4480630
 106.5859360 114.4144900  32.1168560 105.7119200 114.7480010  31.9141490
 106.4770110 113.9418080  32.9420430 107.4931340 116.6215770  33.5010280
 107.1644700 115.8067530  33.1212010 108.4413640 116.5785580  33.3775970
 109.9465950 132.3927810  30.4747850 109.4868920 133.1443620  30.1005870
 109.3178410 131.6734280  30.4162650  96.7716570 128.4871050  32.8646570
  96.0450630 127.8676340  32.7972520  96.8325720 128.8811660  31.9944650
 100.3761670 130.7016050  29.6495980 100.8926690 130.0903410  29.1244240
 101.0259050 131.2044830  30.1406990 103.1157170 131.5924540  30.4764960
 103.4034980 131.3378840  29.5997970 103.6280390 131.0401900  31.0670530
 104.3334180 115.3314740  31.0561470 103.5505970 115.8060240  31.3358230
 104.0397110 114.4269570  30.9474650 108.8855250 116.0337840  29.1010560
 109.3263340 115.9782940  28.2532160 108.6162840 116.9495850  29.1720740
 110.7493820 115.6653080  27.1119380 110.6882220 114.7214300  26.9650400
 111.5285850 115.7733170  27.6572840  95.0546570 131.8045440  26.0743330
  94.8868610 131.1716120  26.7725220  94.1881080 132.0104840  25.7237520
  95.6774590 115.6362220  23.5775190  96.4353950 115.7491100  23.0039220
  95.2151760 116.4731420  23.5318620 102.2188400 117.7501490  26.5677500
 101.4062910 117.3758380  26.2273380 102.7230040 116.9946570  26.8698690
 106.7213380 114.4143940  27.8060570 107.3242750 114.9864150  28.2809090
 105.9806370 114.9783380  27.5834470 109.8647980 114.8165500  23.0800850
 110.0598610 115.7148950  23.3468280 109.0777850 114.5852580  23.5733800
  96.6609270 130.4978670  23.5193470  96.1356890 130.8786700  22.8155430
  96.5853850 131.1229440  24.2403180  98.0499740 116.1626270  22.1177160
  98.5792500 115.3756070  21.9885110  98.6828060 116.8417460  22.3512690
 100.2437580 115.9001410  25.1722550  99.6140320 115.1988720  25.3392680
  99.7042720 116.6605540  24.9555710 103.1829530 132.5140640  37.8433160
 104.1096840 132.2784910  37.8869120 103.1679960 133.3412640  37.3619190
 111.4174590 132.0566210  24.8407410 111.5926780 131.3703950  24.1968330
 110.7196160 132.5813260  24.4484080 100.3693140 115.1785390  37.6075040
 100.0877410 115.6818990  36.8435860 100.7512840 114.3807140  37.2417170
  99.2602240 132.4461050  22.3942720  99.9921060 132.1620330  21.8466610
  99.5195910 132.2074330  23.2842100  98.4217030 128.5625780  22.3989050
  97.7925910 129.0310880  22.9474880  98.5364860 127.7175000  22.8335240
 106.9708600 114.5938970  38.1855510 106.8574050 114.9133580  39.0807030
 107.7878340 114.9951480  37.8892790 109.7507090 131.7410500  37.6674200
 110.5432410 131.2459730  37.4600160 110.0440240 132.4200640  38.2749810
 105.8766750 122.6131440   8.5490250 105.7960800 121.6986050   8.2781960
 105.4631170 123.1098510   7.8429960 104.0084790 124.3910460  10.4299520
 103.2326890 123.9110900  10.7198090 104.6597720 123.7116110  10.2555680
  98.0250620 124.7030270  11.3075280  97.1935500 124.4478980  11.7071790
  98.6331600 124.7741040  12.0433200 108.0292220 128.7970650   9.2098650
 107.5673750 128.0257890   9.5385820 108.8417770 128.8236720   9.7151100
  98.0051880 128.7370360  11.5033300  98.3079920 127.8468100  11.3243520
  98.7495470 129.2940580  11.2755550  96.4342570 119.6632160   5.0917670
  95.5459270 120.0048130   4.9897550  96.7183760 119.4632480   4.1998500
  94.3975580 122.2637810  10.9757370  94.9691690 121.4960010  10.9761010
  94.3977120 122.5626570  10.0663980 104.2555530 131.0828660   8.8302640
 103.6366970 131.5386160   8.2597080 105.1107310 131.2380120   8.4292340
 103.4493780 127.0667650  10.4369680 103.3802060 126.1257590  10.2758810
 104.2113640 127.1569060  11.0092250  95.6400450 117.6722170  12.7626300
  95.4603290 116.7747920  13.0429060  95.2380530 118.2194040  13.4373250
 104.4798950 119.8738030  10.6638610 104.8563770 119.0009910  10.5512280
 104.3818460 120.2096730   9.7729050  98.6103960 118.2463660   6.1256050
  98.7170710 119.1467390   6.4324810  97.6996320 118.1981630   5.8350700
 108.2623070 117.3688470   7.5966950 109.0832690 116.8785040   7.6392430
 108.2957150 117.9586130   8.3498790  96.2587120 120.1682670  11.3708640
  96.9397230 120.4321040  11.9896040  95.9435170 119.3283540  11.7046650
 100.4511690 121.2150030  10.4581230 100.9589910 121.7131000  11.0986250
 100.9824930 120.4385230  10.2820590 112.5522620 119.3855220  14.1610580
 111.8474790 119.7736930  13.6425690 112.8180540 120.0805510  14.7631510
  98.7347790 115.8548590  14.7244650  98.7366230 116.3720980  13.9190550
  97.9052100 115.3778770  14.7014580 105.1218880 125.9667900   6.2234550
 104.5036150 126.4317350   5.6597270 105.6342130 126.6595380   6.6404060
  99.9850640 125.4943770  12.9018150  99.6520020 126.1212690  13.5439220
 100.1617320 126.0205650  12.1219820 108.4984550 119.3088850  10.3694490
 107.7940120 119.5973740  10.9497600 108.8596710 120.1188960  10.0094050
  98.4163120 117.5658550  12.7315100  98.7579930 118.4100600  12.4368970
  97.4778930 117.7142290  12.8480440  99.1969740 127.4624570  14.7167330
  99.8143740 128.1375650  14.4351780  98.3362860 127.8712550  14.6254830
  94.4902080 126.6524430   3.5974180  94.1130060 127.1411530   2.8659080
  94.7475150 127.3249710   4.2280710 110.1147330 128.9263980  12.6321970
 109.4310850 129.5963090  12.6238640 110.6541620 129.1244630  11.8666830
 111.5671470 118.7543640  10.7603700 110.6196380 118.7882620  10.8919130
 111.8921460 119.5682590  11.1453060 102.0991010 115.0540820   9.0559690
 102.4065990 114.4987710   8.3395190 101.1691710 115.1885280   8.8732680
 107.6506070 130.7708110  11.3467150 107.6633230 130.3670400  10.4789410
 107.0981290 131.5455400  11.2428580 108.9451490 127.4924330   6.4357320
 108.8347820 126.5498660   6.5606740 108.9419740 127.8539970   7.3220080
 107.0491510 125.6737950  12.6749760 107.4660300 125.4598060  11.8403220
 107.7731330 125.9310740  13.2458380 104.4871770 123.1189650   5.7919810
 103.5601050 123.0527030   6.0208280 104.6396590 124.0569780   5.6775050
 104.4740850 119.3906650   2.7886970 103.5344520 119.5520610   2.8739430
 104.7924110 120.1092330   2.2422960 110.9953610 124.0725170  12.7666000
 110.1672240 124.1418260  12.2916130 111.5904090 124.6579480  12.2981830
 108.5169060 124.6809950   6.2955060 107.8981480 124.3429500   5.6481360
 108.4993510 124.0369710   7.0034250 107.9595620 120.8594490  13.7120870
 107.5466800 121.6848200  13.9660860 107.2271570 120.2739530  13.5197230
 100.0928410 123.6454390   8.5739540  99.6885410 122.9331640   8.0785440
 100.1791530 123.3007630   9.4627580 100.5610110 127.3321950  10.7378750
 100.2638400 126.7267420  10.0586530 101.5109930 127.3699260  10.6268110
  98.8057030 120.4197600  12.3538580  99.3571620 120.5292940  11.5791830
  99.3200540 120.7935200  13.0693810 108.6495720 130.9053820  14.4001850
 108.1726280 131.7126010  14.2074460 107.9657510 130.2532150  14.5528060
  99.6528540 127.0703640  17.3886550  98.7557070 127.2943610  17.6359950
  99.6781410 127.1938580  16.4397950 106.6933760 123.9196760   3.3027810
 107.1327040 123.0819190   3.1565630 107.4062180 124.5526160   3.3891950
  98.4799760 123.9416960  15.9643920  98.3407530 124.8139760  16.3331320
  97.5981120 123.5989770  15.8191860 104.8029140 128.8592830   7.2709050
 105.2425050 129.6017160   6.8564440 104.7416030 129.1019400   8.1948010
 100.2780110 129.8838660  18.1729070 100.2495540 130.2881610  17.3057500
 100.1145080 128.9549020  18.0100670  96.7933040 122.5399370   6.0746190
  96.6730640 123.2661460   5.4627460  96.4833930 121.7702280   5.5974100
 112.2294930 130.6665760  19.4693240 112.7054650 131.1448650  20.1482320
 112.8502090 130.5983250  18.7438740  94.4318410 125.7114510  11.8814830
  94.5098830 125.8463280  10.9370550  95.0460090 125.0030400  12.0742950
  95.6766040 127.4114700   8.2921010  95.2694120 127.5529290   7.4374610
  96.5679050 127.1274860   8.0892220 111.6328180 127.8578610  16.6293250
 111.7591240 127.6190490  15.7110430 111.6749560 127.0263150  17.1015330
 105.4944920 131.5606610  15.1988060 106.0089590 131.4714620  16.0010490
 104.6514000 131.9066310  15.4915970 107.4699320 131.8461950   4.6272060
 107.3100460 131.5564890   5.5253890 107.3046030 131.0702080   4.0917290
  99.9487700 131.6260480   6.4043680  99.7730180 130.7096020   6.1911480
  99.0943440 131.9847770   6.6441480 107.1725450 129.3549510   3.1870060
 106.4790610 129.3526800   2.5272340 107.9148310 128.9308830   2.7564230
 106.7375380 130.9812220   7.2618550 107.1932330 130.2001600   7.5757170
 107.0767900 131.6919040   7.8059730 111.4852190 119.9111070  17.5942990
 110.8696460 120.4190740  17.0658450 111.1648610 119.0109400  17.5368930
  94.4877930 126.7528680  14.4209290  94.6508970 126.2834040  13.6028660
  94.9530380 126.2452240  15.0858130  99.2596700 115.8834440   9.4569860
  98.8164850 116.6643980   9.1254380  99.8181690 116.2064330  10.1640800
 103.5466510 118.7502960  15.0605180 103.0845880 118.9585980  15.8725120
 103.1444620 117.9362310  14.7575850 108.5471020 119.9711910  16.1901840
 107.6964610 119.6717660  16.5110910 108.3872810 120.2153920  15.2785660
 105.6420730 121.4713660  18.2900630 105.9674140 120.6377410  17.9502860
 106.4301060 121.9942180  18.4378960 102.3755520 115.5045140   4.3375690
 101.7509700 115.5005010   5.0629000 102.2885640 114.6376100   3.9411660
 101.2972600 116.4281770  11.3159460 101.5944930 117.3344600  11.2351480
 101.8458160 115.9400550  10.7019030  99.0510920 121.0068010   7.1851110
  98.8251840 120.7905180   8.0897730  98.2703450 121.4396470   6.8397080
 106.2808680 121.0131380   5.7841760 105.6817570 121.7367180   5.6005380
 106.8288290 120.9508160   5.0018210 101.4910130 121.9053590  17.8511380
 101.3953730 120.9648320  17.7011780 102.3342110 122.1268660  17.4559450
 104.8873550 119.6494920   7.8145040 105.2803120 119.9667120   7.0013730
 105.2490400 118.7706800   7.9289560  96.6220670 118.3167260  16.0045160
  96.2284060 119.1642470  16.2117940  95.9339070 117.6793630  16.1953800
 103.1965720 118.4002230  19.0741900 102.5064040 118.2074430  19.7087990
 103.9398020 118.6836870  19.6066200  93.9237720 116.2395720  10.0375240
  93.6350770 116.8098580  10.7500220  94.6683480 115.7600170  10.4006470
 105.4728690 122.2400670  11.9095820 104.7409810 122.7487480  12.2585920
 105.0753030 121.4230650  11.6084600 101.9106080 118.9154870  10.3148310
 101.9142140 118.4744820   9.4652850 102.8057200 119.2372200  10.4220130
  97.7608460 118.7981360   9.2742520  97.4208510 119.2756590  10.0309570
  96.9985780 118.3446480   8.9143620 101.9726230 119.9166950   3.3055070
 102.0939050 119.8753430   4.2540890 101.5874740 120.7791100   3.1501800
 105.9354600 117.6934350  11.3218760 105.9527340 118.1443000  12.1660610
 105.6870180 116.7939990  11.5352200 100.9847730 122.2268090   2.7038370
 100.4164630 121.7786340   2.0774280 101.6936730 122.5860870   2.1703520
 109.3625350 115.1066530  17.1605140 109.6871120 114.3756190  17.6863120
 109.3981860 114.7880170  16.2586130  96.0616910 126.1280110  16.5805100
  95.6771700 125.4873780  17.1788060  96.3729100 126.8316230  17.1499830
 102.2114050 122.9756650  12.0613720 102.5784180 122.5015220  12.8075060
 102.0219110 123.8498220  12.4022060  95.0754540 117.7200340   8.1907190
  94.7901460 117.3556010   9.0285810  95.0133400 116.9880800   7.5770330
 100.0013420 122.0165290  14.3797930  99.6970490 122.8957270  14.6048290
 100.9559880 122.0765080  14.4155370  98.5295210 126.2226280   4.9764780
  97.7557470 125.6823900   4.8163500  99.2589840 125.7032890   4.6382540
 109.2883190 125.2191640  10.7691170 110.0082310 125.7146930  10.3787280
 109.0865010 124.5409530  10.1245040 104.7493130 116.6129600   4.9120560
 103.9357740 116.1142770   4.8365870 104.5555080 117.4527850   4.4956910
 104.6701990 125.2900700  16.6560170 104.6039300 124.3696370  16.4017760
 104.0407130 125.3876140  17.3704810 107.4641520 120.9849250   3.2082720
 108.3521140 121.2966480   3.0334060 107.4346610 120.1121500   2.8163300
  98.5732610 125.8906660   8.6143590  99.0911280 125.0874920   8.5600480
  98.1216630 125.8285800   9.4560420 103.4602110 127.1572940   3.8870890
 103.8017810 127.9015170   3.3914210 102.6314820 127.4704060   4.2495720
  96.0577150 122.8568030  15.5269290  95.6992090 123.5221880  16.1142630
  95.7631710 122.0251580  15.8981910  99.2590270 123.3152270  18.4108840
  98.9590410 123.4609450  17.5136660 100.0301510 122.7557560  18.3182230
 104.6018720 128.1121270  16.4063970 104.6163260 127.1802230  16.1882880
 103.8943820 128.1981030  17.0453740 109.7355790 122.2961090   2.6762580
 109.6519510 122.7275310   1.8259020 110.4549980 122.7559440   3.1089400
 110.8129930 124.7528610  15.7532550 110.0878120 125.3457390  15.5561940
 111.3405390 124.7452150  14.9545920 110.7643040 129.1503350   5.4044710
 110.1219200 128.4958970   5.6788430 110.3773700 129.5558440   4.6285380
 106.3429520 126.4788780   9.2516400 106.6953340 125.8816910   8.5917770
 105.4591850 126.1533010   9.4224650 102.4292800 127.2386470   6.6586810
 103.1163930 127.7855680   7.0394400 101.6425220 127.7827200   6.6936420
  94.5685200 122.8559290   2.1503890  95.4380050 123.1384090   2.4339810
  94.0775520 123.6695160   2.0352700 101.7320010 124.2432500   6.2712170
 102.1882790 125.0537750   6.4972360 101.3808220 123.9255640   7.1030660
 104.0352620 129.7538840  13.5004470 104.6794840 129.9598220  14.1777890
 104.3982060 128.9927240  13.0475320  97.6331790 114.5870150   6.7434690
  97.5046420 114.5788050   7.6919610  96.8093810 114.9253240   6.3925700
 105.3084700 127.7571190  12.2181920 105.9506930 127.0564350  12.3314090
 105.8334050 128.5369630  12.0378810 107.0822320 128.5566090  15.4217980
 107.4178560 129.1432780  16.0995900 106.1622660 128.4258800  15.6515770
  94.9356450 132.0686670   2.7165520  95.2954090 132.6676010   2.0622790
  94.7948790 132.6146560   3.4900550  94.6325720 116.3461270  16.2041390
  93.9184240 116.5458190  16.8094000  95.0520760 115.5700840  16.5756190
 108.7356670 125.9591750   3.6035220 108.4478370 126.4204440   4.3913100
 109.5308840 125.4989520   3.8719440  94.9198310 130.3341530  17.1907920
  95.0289430 129.3936270  17.0503310  94.2678870 130.5996280  16.5421650
 102.9110900 128.6057420  18.5906040 102.5907770 127.8866660  19.1351730
 102.2369260 129.2812490  18.6642100 100.9525070 129.4517870   3.5339190
 100.9435170 130.1847560   2.9183700 100.0323430 129.2049450   3.6266150
  96.5531710 124.6732760   4.2785950  95.9459660 125.4131660   4.2881250
  97.0281060 124.7632120   3.4524150 106.1264500 118.8383580  13.9542840
 106.4945320 118.0178790  14.2822410 105.2662700 118.8985470  14.3698490
 109.4926530 117.7940520   4.7630400 108.8639690 117.8986190   4.0488630
 108.9978450 118.0137300   5.5524280 101.4610560 120.0726470   6.1788280
 100.7526710 120.5412810   6.6201890 101.7455040 119.4148480   6.8133470
 103.0866490 121.4923170  14.1780810 103.5851740 121.9668990  14.8432660
 103.2289440 120.5686690  14.3850840 105.4925990 116.7977130   7.6184070
 105.3693770 116.8163260   6.6693580 106.4410550 116.8456070   7.7382470
 102.5802780 132.0332430   6.8912050 102.8344280 131.9953820   5.9691420
 101.6315260 131.9065760   6.8840300  99.6645580 118.3811550   3.5538990
 100.5136110 118.8181700   3.4879180  99.2976850 118.6931810   4.3811050
 110.2933350 117.7091130  15.0209200 109.7906950 118.4496530  15.3603010
 111.1090010 118.0975130  14.7045990 108.5855360 122.9524310   8.4670560
 107.6445500 122.9674540   8.6418250 108.8999430 122.1660270   8.9130860
  97.2583760 122.0668980   2.7107410  97.3387350 121.1196490   2.8224810
  98.1503510 122.3975860   2.8168070 110.5880940 130.1233160  10.1424820
 110.7128360 130.9464330  10.6148630 111.4546500 129.9123890   9.7948970
  98.0598470 132.2164370   9.8141950  98.7960950 131.6679830  10.0850520
  98.4439390 133.0820380   9.6747940  94.9443950 128.2837940   5.6883460
  94.0183730 128.5259080   5.6788870  95.4100380 129.1112200   5.5668210
  97.0656750 131.4010440  19.0027530  97.8669480 131.7222490  19.4162930
  96.5508570 131.0406020  19.7247440 105.9021380 127.5090310  18.9502940
 105.2959540 127.5321910  18.2098690 105.5975490 126.7773350  19.4870190
 107.3321750 131.2370600  17.5612350 108.2843500 131.1528620  17.5112590
 107.1849970 131.9012310  18.2346140 110.2230950 130.6164810   3.0604260
 109.9372460 130.2029950   2.2458440 110.0250500 131.5452520   2.9404780
  94.7854560 123.8883900  17.9463580  95.2893580 123.3091180  18.5179810
  94.0461980 124.1724130  18.4839950 101.8392500 125.2954890  17.4799100
 101.0738170 125.8639890  17.3953770 102.0208460 125.0031100  16.5867330
 104.9280910 125.6718120   2.1051860 104.3791010 126.1187420   2.7494600
 105.5500170 125.1667370   2.6289530 108.9815850 127.0260220  18.0374120
 109.7225320 127.3635980  17.5341580 108.2188530 127.1952280  17.4843890
  96.8177640 122.0313490  18.8413650  96.8582980 121.7327360  19.7498880
  97.6723140 122.4321100  18.6821170 100.5956030 124.6309040   4.0017160
 101.0172450 124.4648910   4.8448550 100.7206870 123.8209270   3.5072300
  98.7583450 120.6105590  16.8088140  98.2279910 120.1196540  16.1811480
  99.4271520 121.0389790  16.2746070 107.6561510 125.0775050  16.5729330
 108.0702530 125.2320130  17.4219750 106.7212510 125.2030270  16.7355110
 108.1283680 122.4171210  18.5768480 108.7104450 121.6623530  18.4888960
 108.3045450 122.9478650  17.7999960  99.2455750 117.5767960  16.8885430
  99.1512620 116.9588710  16.1636300  98.6653140 118.3034250  16.6615340
 102.0117190 116.1341200  13.9212820 101.5634490 116.1565460  13.0758370
 101.3782390 115.7360220  14.5183120 102.4176740 125.0295530  14.5425260
 102.8364850 125.8728260  14.3701500 101.4985370 125.1667570  14.3132040
 104.7540640 122.7611710  15.9263100 104.8736850 122.1652850  16.6657940
 105.6134640 122.7981400  15.5064400 107.0928540 123.3148900  14.5025610
 106.5663760 123.8391520  13.8990750 107.4359880 123.9476290  15.1335340
 100.2684160 131.3348540  15.6582990  99.7305250 132.0594600  15.3391690
 100.5218120 130.8578880  14.8680330 101.5209410 119.3033060  17.1838920
 102.1109100 118.9948910  17.8716740 100.7029650 118.8312810  17.3398820
 106.3402840 118.9198870  17.4171940 105.6518360 118.2580410  17.3521930
 107.0608860 118.4737140  17.8620400 106.9703240 115.5150500   3.4762200
 107.2505530 114.6718400   3.8321620 106.1968970 115.7473610   3.9900950
 103.1246370 132.5699750  15.9169640 103.0505070 133.4734890  16.2242010
 102.2225210 132.2511650  15.8891710 103.6731700 131.7358260   3.5396000
 104.5682490 132.0743230   3.5614760 103.7049330 131.0137670   2.9120280
  97.3127860 127.1085310   1.7683000  97.7502730 127.6514980   2.4240580
  97.7975590 126.2832260   1.7779340  94.5273660 129.8974340   9.2203260
  94.8576670 129.0295400   8.9881900  94.9564660 130.1032860  10.0508220
  99.1235580 128.2283350   6.8805230  98.8231120 128.1048320   7.7809140
  99.0173070 127.3691940   6.4720960  95.0163870 130.7644930  11.9584890
  94.5794860 130.9445730  12.7909040  95.5841550 131.5219550  11.8166610
 110.6526050 130.2661930  16.2462200 110.0528040 130.3254490  15.5026120
 110.7819950 129.3266910  16.3759050 111.3483960 124.7527230   4.0866110
 112.1102870 125.3223880   4.1925800 111.3638330 124.1854430   4.8574420
  94.8488300 123.2765160   8.3173770  94.1937140 123.0076800   7.6733470
  95.6866250 123.1669640   7.8675750 112.3543930 125.6077330   8.9308040
 112.7252760 124.8244650   8.5244010 112.9945860 126.2966430   8.7525340
 109.3377690 126.9913910  14.3438360 108.5237530 127.4211070  14.6064150
 109.7451890 127.6032320  13.7307410 107.7978740 118.0706450   2.5392260
 108.2163620 117.8837430   1.6988920 107.4914800 117.2185500   2.8495190
 111.2968470 122.9830590   6.2368060 110.9212070 122.2158520   5.8049350
 110.5671590 123.3653290   6.7242990  95.8864230 123.6617730  12.8577110
  96.2537270 123.5745130  13.7373130  95.3175050 122.8984280  12.7583970
 110.6868090 122.1302110  15.8707580 110.4554180 121.9014860  14.9705530
 110.9472640 123.0501660  15.8252470  95.4380230 120.5726820  16.7635530
  94.5436280 120.5393580  17.1029240  95.9777780 120.7713610  17.5286780
 109.1256160 117.3558540  18.6487280 110.0026340 117.3641940  19.0321280
 109.1377000 116.6189380  18.0379630  94.0626380 120.4864090   4.2599100
  93.1590460 120.7494290   4.0850760  94.5467000 120.7575260   3.4799060
 110.5719430 121.2088080   9.5375300 111.0956910 120.7150730   8.9065470
 111.1578850 121.3438440  10.2822870 110.7509150 121.2927950  13.0594850
 109.8011860 121.2591490  13.1739840 110.9322160 122.2028060  12.8244620
 110.0619400 120.4661430   5.4767710 110.5578520 120.2332300   6.2616590
 109.8635470 119.6273270   5.0605350  95.9419940 114.8475150  11.1118750
  96.5896130 114.2972530  10.6713910  96.3621780 115.1018300  11.9334560
 111.4906560 119.1022380   8.0105390 111.3805840 118.9478420   8.9487660
 112.2514150 118.5743320   7.7680800 109.8372280 115.0416510  14.4688390
 110.4744500 115.6550650  14.8347580 109.9847170 115.0777170  13.5237620
 112.4535320 117.7040960   3.8768240 111.6586820 117.6386080   4.4061150
 112.6578600 118.6391600   3.8653590 109.3953740 131.7432510   7.8706630
 109.9912810 131.4217080   7.1941050 109.6531890 131.2704330   8.6619900
  95.6951940 115.0030820  13.8544070  95.3466760 115.4594640  14.6202250
  95.3639640 114.1087950  13.9366500  97.3016310 128.1750420  18.0197260
  97.2585940 127.8043330  18.9011720  97.4327320 129.1127990  18.1599080
 101.0022340 129.7310010  13.6206980 100.7613700 129.9984570  12.7337500
 101.9424980 129.9015740  13.6757840 103.2076760 116.1942700  17.3763490
 103.1465650 116.7864530  18.1258900 104.1477140 116.0868660  17.2313750
 105.8451320 115.8512760  17.0155780 106.4591730 116.1692050  16.3536860
 106.3900880 115.3661350  17.6351640 112.2626500 131.7504390  14.4217620
 111.7684780 132.1473260  13.7044750 111.6539790 131.1253600  14.8154900
  96.3672580 114.5307020  17.1294840  96.9155570 114.3495070  16.3660950
  96.4327890 113.7401130  17.6651150  97.1404340 131.1212670  15.1395040
  96.5464660 130.9897370  15.8785080  97.1328180 130.2850810  14.6737140
 106.5859360 114.4144900  13.3425070 105.7119200 114.7480010  13.1398000
 106.4770110 113.9418080  14.1676940 107.4931340 116.6215770  14.7266790
 107.1644700 115.8067530  14.3468520 108.4413640 116.5785580  14.6032480
 109.9465950 132.3927810  11.7004360 109.4868920 133.1443620  11.3262380
 109.3178410 131.6734280  11.6419160  96.7716570 128.4871050  14.0903080
  96.0450630 127.8676340  14.0229030  96.8325720 128.8811660  13.2201160
 100.3761670 130.7016050  10.8752490 100.8926690 130.0903410  10.3500750
 101.0259050 131.2044830  11.3663500 103.1157170 131.5924540  11.7021470
 103.4034980 131.3378840  10.8254480 103.6280390 131.0401900  12.2927040
 104.3334180 115.3314740  12.2817980 103.5505970 115.8060240  12.5614740
 104.0397110 114.4269570  12.1731160 108.8855250 116.0337840  10.3267070
 109.3263340 115.9782940   9.4788670 108.6162840 116.9495850  10.3977250
 110.7493820 115.6653080   8.3375890 110.6882220 114.7214300   8.1906910
 111.5285850 115.7733170   8.8829350  95.0546570 131.8045440   7.2999840
  94.8868610 131.1716120   7.9981730  94.1881080 132.0104840   6.9494030
  95.6774590 115.6362220   4.8031700  96.4353950 115.7491100   4.2295730
  95.2151760 116.4731420   4.7575130 102.2188400 117.7501490   7.7934010
 101.4062910 117.3758380   7.4529890 102.7230040 116.9946570   8.0955200
 106.7213380 114.4143940   9.0317080 107.3242750 114.9864150   9.5065600
 105.9806370 114.9783380   8.8090980 109.8647980 114.8165500   4.3057360
 110.0598610 115.7148950   4.5724790 109.0777850 114.5852580   4.7990310
  96.6609270 130.4978670   4.7449980  96.1356890 130.8786700   4.0411940
  96.5853850 131.1229440   5.4659690  98.0499740 116.1626270   3.3433670
  98.5792500 115.3756070   3.2141620  98.6828060 116.8417460   3.5769200
 100.2437580 115.9001410   6.3979060  99.6140320 115.1988720   6.5649190
  99.7042720 116.6605540   6.1812220 103.1829530 132.5140640  19.0689670
 104.1096840 132.2784910  19.1125630 103.1679960 133.3412640  18.5875700
 111.4174590 132.0566210   6.0663920 111.5926780 131.3703950   5.4224840
 110.7196160 132.5813260   5.6740590 100.3693140 115.1785390  18.8331550
 100.0877410 115.6818990  18.0692370 100.7512840 114.3807140  18.4673680
  99.2602240 132.4461050   3.6199230  99.9921060 132.1620330   3.0723120
  99.5195910 132.2074330   4.5098610  98.4217030 128.5625780   3.6245560
  97.7925910 129.0310880   4.1731390  98.5364860 127.7175000   4.0591750
 106.9708600 114.5938970  19.4112020 106.8574050 114.9133580  20.3063540
 107.7878340 114.9951480  19.1149300 109.7507090 131.7410500  18.8930710
 110.5432410 131.2459730  18.6856670 110.0440240 132.4200640  19.5006320
 105.8766750 103.8387950 139.9694680 105.7960800 102.9242560 139.6986390
 105.4631170 104.3355020 139.2634390 104.0084790 105.6166970 141.8503950
 103.2326890 105.1367410 142.1402520 104.6597720 104.9372620 141.6760110
  98.0250620 105.9286780 142.7279710  97.1935500 105.6735490 143.1276220
  98.6331600 105.9997550 143.4637630 108.0292220 110.0227160 140.6303080
 107.5673750 109.2514400 140.9590250 108.8417770 110.0493230 141.1355530
  98.0051880 109.9626870 142.9237730  98.3079920 109.0724610 142.7447950
  98.7495470 110.5197090 142.6959980  96.4342570 100.8888670 136.5122100
  95.5459270 101.2304640 136.4101980  96.7183760 100.6888990 135.6202930
  94.3975580 103.4894320 142.3961800  94.9691690 102.7216520 142.3965440
  94.3977120 103.7883080 141.4868410 104.2555530 112.3085170 140.2507070
 103.6366970 112.7642670 139.6801510 105.1107310 112.4636630 139.8496770
 103.4493780 108.2924160 141.8574110 103.3802060 107.3514100 141.6963240
 104.2113640 108.3825570 142.4296680  95.6400450  98.8978680 144.1830730
  95.4603290  98.0004430 144.4633490  95.2380530  99.4450550 144.8577680
 104.4798950 101.0994540 142.0843040 104.8563770 100.2266420 141.9716710
 104.3818460 101.4353240 141.1933480  98.6103960  99.4720170 137.5460480
  98.7170710 100.3723900 137.8529240  97.6996320  99.4238140 137.2555130
 108.2623070  98.5944980 139.0171380 109.0832690  98.1041550 139.0596860
 108.2957150  99.1842640 139.7703220  96.2587120 101.3939180 142.7913070
  96.9397230 101.6577550 143.4100470  95.9435170 100.5540050 143.1251080
 100.4511690 102.4406540 141.8785660 100.9589910 102.9387510 142.5190680
 100.9824930 101.6641740 141.7025020 112.5522620 100.6111730 145.5815010
 111.8474790 100.9993440 145.0630120 112.8180540 101.3062020 146.1835940
  98.7347790  97.0805100 146.1449080  98.7366230  97.5977490 145.3394980
  97.9052100  96.6035280 146.1219010 105.1218880 107.1924410 137.6438980
 104.5036150 107.6573860 137.0801700 105.6342130 107.8851890 138.0608490
  99.9850640 106.7200280 144.3222580  99.6520020 107.3469200 144.9643650
 100.1617320 107.2462160 143.5424250 108.4984550 100.5345360 141.7898920
 107.7940120 100.8230250 142.3702030 108.8596710 101.3445470 141.4298480
  98.4163120  98.7915060 144.1519530  98.7579930  99.6357110 143.8573400
  97.4778930  98.9398800 144.2684870  99.1969740 108.6881080 146.1371760
  99.8143740 109.3632160 145.8556210  98.3362860 109.0969060 146.0459260
  94.4902080 107.8780940 135.0178610  94.1130060 108.3668040 134.2863510
  94.7475150 108.5506220 135.6485140 110.1147330 110.1520490 144.0526400
 109.4310850 110.8219600 144.0443070 110.6541620 110.3501140 143.2871260
 111.5671470  99.9800150 142.1808130 110.6196380 100.0139130 142.3123560
 111.8921460 100.7939100 142.5657490 102.0991010  96.2797330 140.4764120
 102.4065990  95.7244220 139.7599620 101.1691710  96.4141790 140.2937110
 107.6506070 111.9964620 142.7671580 107.6633230 111.5926910 141.8993840
 107.0981290 112.7711910 142.6633010 108.9451490 108.7180840 137.8561750
 108.8347820 107.7755170 137.9811170 108.9419740 109.0796480 138.7424510
 107.0491510 106.8994460 144.0954190 107.4660300 106.6854570 143.2607650
 107.7731330 107.1567250 144.6662810 104.4871770 104.3446160 137.2124240
 103.5601050 104.2783540 137.4412710 104.6396590 105.2826290 137.0979480
 104.4740850 100.6163160 134.2091400 103.5344520 100.7777120 134.2943860
 104.7924110 101.3348840 133.6627390 110.9953610 105.2981680 144.1870430
 110.1672240 105.3674770 143.7120560 111.5904090 105.8835990 143.7186260
 108.5169060 105.9066460 137.7159490 107.8981480 105.5686010 137.0685790
 108.4993510 105.2626220 138.4238680 107.9595620 102.0851000 145.1325300
 107.5466800 102.9104710 145.3865290 107.2271570 101.4996040 144.9401660
 100.0928410 104.8710900 139.9943970  99.6885410 104.1588150 139.4989870
 100.1791530 104.5264140 140.8832010 100.5610110 108.5578460 142.1583180
 100.2638400 107.9523930 141.4790960 101.5109930 108.5955770 142.0472540
  98.8057030 101.6454110 143.7743010  99.3571620 101.7549450 142.9996260
  99.3200540 102.0191710 144.4898240 108.6495720 112.1310330 145.8206280
 108.1726280 112.9382520 145.6278890 107.9657510 111.4788660 145.9732490
  99.6528540 108.2960150 148.8090980  98.7557070 108.5200120 149.0564380
  99.6781410 108.4195090 147.8602380 106.6933760 105.1453270 134.7232240
 107.1327040 104.3075700 134.5770060 107.4062180 105.7782670 134.8096380
  98.4799760 105.1673470 147.3848350  98.3407530 106.0396270 147.7535750
  97.5981120 104.8246280 147.2396290 104.8029140 110.0849340 138.6913480
 105.2425050 110.8273670 138.2768870 104.7416030 110.3275910 139.6152440
 100.2780110 111.1095170 149.5933500 100.2495540 111.5138120 148.7261930
 100.1145080 110.1805530 149.4305100 110.2750900  96.3996080 133.0373280
 109.9623560  96.4922910 133.9372350 111.0363370  96.9777110 132.9870710
  96.7933040 103.7655880 137.4950620  96.6730640 104.4917970 136.8831890
  96.4833930 102.9958790 137.0178530  94.4318410 106.9371020 143.3019260
  94.5098830 107.0719790 142.3574980  95.0460090 106.2286910 143.4947380
  95.6766040 108.6371210 139.7125440  95.2694120 108.7785800 138.8579040
  96.5679050 108.3531370 139.5096650 111.6328180 109.0835120 148.0497680
 111.7591240 108.8447000 147.1314860 111.6749560 108.2519660 148.5219760
 105.4944920 112.7863120 146.6192490 106.0089590 112.6971130 147.4214920
 104.6514000 113.1322820 146.9120400 107.4699320 113.0718460 136.0476490
 107.3100460 112.7821400 136.9458320 107.3046030 112.2958590 135.5121720
  99.9487700 112.8516990 137.8248110  99.7730180 111.9352530 137.6115910
  99.0943440 113.2104280 138.0645910 107.1725450 110.5806020 134.6074490
 106.4790610 110.5783310 133.9476770 107.9148310 110.1565340 134.1768660
 106.7375380 112.2068730 138.6822980 107.1932330 111.4258110 138.9961600
 107.0767900 112.9175550 139.2264160 111.4852190 101.1367580 149.0147420
 110.8696460 101.6447250 148.4862880 111.1648610 100.2365910 148.9573360
  94.4877930 107.9785190 145.8413720  94.6508970 107.5090550 145.0233090
  94.9530380 107.4708750 146.5062560  99.2596700  97.1090950 140.8774290
  98.8164850  97.8900490 140.5458810  99.8181690  97.4320840 141.5845230
 103.5466510  99.9759470 146.4809610 103.0845880 100.1842490 147.2929550
 103.1444620  99.1618820 146.1780280 108.5471020 101.1968420 147.6106270
 107.6964610 100.8974170 147.9315340 108.3872810 101.4410430 146.6990090
 105.6420730 102.6970170 149.7105060 105.9674140 101.8633920 149.3707290
 106.4301060 103.2198690 149.8583390 102.3755520  96.7301650 135.7580120
 101.7509700  96.7261520 136.4833430 102.2885640  95.8632610 135.3616090
 101.2972600  97.6538280 142.7363890 101.5944930  98.5601110 142.6555910
 101.8458160  97.1657060 142.1223460  99.0510920 102.2324520 138.6055540
  98.8251840 102.0161690 139.5102160  98.2703450 102.6652980 138.2601510
 106.2808680 102.2387890 137.2046190 105.6817570 102.9623690 137.0209810
 106.8288290 102.1764670 136.4222640 101.4910130 103.1310100 149.2715810
 101.3953730 102.1904830 149.1216210 102.3342110 103.3525170 148.8763880
 104.8873550 100.8751430 139.2349470 105.2803120 101.1923630 138.4218160
 105.2490400  99.9963310 139.3493990  96.6220670  99.5423770 147.4249590
  96.2284060 100.3898980 147.6322370  95.9339070  98.9050140 147.6158230
  93.9237720  97.4652230 141.4579670  93.6350770  98.0355090 142.1704650
  94.6683480  96.9856680 141.8210900  94.1107950 101.4072350 132.6682390
  94.0282620 102.3503110 132.8097380  93.7591010 101.2647260 131.7894740
 105.4728690 103.4657180 143.3300250 104.7409810 103.9743990 143.6790350
 105.0753030 102.6487160 143.0289030 101.9106080 100.1411380 141.7352740
 101.9142140  99.7001330 140.8857280 102.8057200 100.4628710 141.8424560
  97.7608460 100.0237870 140.6946950  97.4208510 100.5013100 141.4514000
  96.9985780  99.5702990 140.3348050 101.9726230 101.1423460 134.7259500
 102.0939050 101.1009940 135.6745320 101.5874740 102.0047610 134.5706230
 105.9354600  98.9190860 142.7423190 105.9527340  99.3699510 143.5865040
 105.6870180  98.0196500 142.9556630 100.9847730 103.4524600 134.1242800
 100.4164630 103.0042850 133.4978710 101.6936730 103.8117380 133.5907950
 109.3625350  96.3323040 148.5809570 109.6871120  95.6012700 149.1067550
 109.3981860  96.0136680 147.6790560  96.0616910 107.3536620 148.0009530
  95.6771700 106.7130290 148.5992490  96.3729100 108.0572740 148.5704260
 102.2114050 104.2013160 143.4818150 102.5784180 103.7271730 144.2279490
 102.0219110 105.0754730 143.8226490  95.0754540  98.9456850 139.6111620
  94.7901460  98.5812520 140.4490240  95.0133400  98.2137310 138.9974760
 100.0013420 103.2421800 145.8002360  99.6970490 104.1213780 146.0252720
 100.9559880 103.3021590 145.8359800  98.5295210 107.4482790 136.3969210
  97.7557470 106.9080410 136.2367930  99.2589840 106.9289400 136.0586970
 109.2883190 106.4448150 142.1895600 110.0082310 106.9403440 141.7991710
 109.0865010 105.7666040 141.5449470 104.7493130  97.8386110 136.3324990
 103.9357740  97.3399280 136.2570300 104.5555080  98.6784360 135.9161340
 104.6701990 106.5157210 148.0764600 104.6039300 105.5952880 147.8222190
 104.0407130 106.6132650 148.7909240 107.4641520 102.2105760 134.6287150
 108.3521140 102.5222990 134.4538490 107.4346610 101.3378010 134.2367730
  98.5732610 107.1163170 140.0348020  99.0911280 106.3131430 139.9804910
  98.1216630 107.0542310 140.8764850 103.4602110 108.3829450 135.3075320
 103.8017810 109.1271680 134.8118640 102.6314820 108.6960570 135.6700150
  96.0577150 104.0824540 146.9473720  95.6992090 104.7478390 147.5347060
  95.7631710 103.2508090 147.3186340  99.2590270 104.5408780 149.8313270
  98.9590410 104.6865960 148.9341090 100.0301510 103.9814070 149.7386660
 104.6018720 109.3377780 147.8268400 104.6163260 108.4058740 147.6087310
 103.8943820 109.4237540 148.4658170 109.7355790 103.5217600 134.0967010
 109.6519510 103.9531820 133.2463450 110.4549980 103.9815950 134.5293830
 110.8129930 105.9785120 147.1736980 110.0878120 106.5713900 146.9766370
 111.3405390 105.9708660 146.3750350 110.7643040 110.3759860 136.8249140
 110.1219200 109.7215480 137.0992860 110.3773700 110.7814950 136.0489810
 106.3429520 107.7045290 140.6720830 106.6953340 107.1073420 140.0122200
 105.4591850 107.3789520 140.8429080 102.4292800 108.4642980 138.0791240
 103.1163930 109.0112190 138.4598830 101.6425220 109.0083710 138.1140850
  94.5685200 104.0815800 133.5708320  95.4380050 104.3640600 133.8544240
  94.0775520 104.8951670 133.4557130 101.7320010 105.4689010 137.6916600
 102.1882790 106.2794260 137.9176790 101.3808220 105.1512150 138.5235090
 104.0352620 110.9795350 144.9208900 104.6794840 111.1854730 145.5982320
 104.3982060 110.2183750 144.4679750  97.6331790  95.8126660 138.1639120
  97.5046420  95.8044560 139.1124040  96.8093810  96.1509750 137.8130130
 105.3084700 108.9827700 143.6386350 105.9506930 108.2820860 143.7518520
 105.8334050 109.7626140 143.4583240 109.1540420 109.2676320 133.3625490
 108.9278000 108.5506760 133.9550130 108.7636620 109.0188760 132.5247240
 107.0822320 109.7822600 146.8422410 107.4178560 110.3689290 147.5200330
 106.1622660 109.6515310 147.0720200  94.9356450 113.2943180 134.1369950
  95.2954090 113.8932520 133.4827220  94.7948790 113.8403070 134.9104980
  94.6325720  97.5717780 147.6245820  93.9184240  97.7714700 148.2298430
  95.0520760  96.7957350 147.9960620 108.7356670 107.1848260 135.0239650
 108.4478370 107.6460950 135.8117530 109.5308840 106.7246030 135.2923870
  94.9198310 111.5598040 148.6112350  95.0289430 110.6192780 148.4707740
  94.2678870 111.8252790 147.9626080 100.9525070 110.6774380 134.9543620
 100.9435170 111.4104070 134.3388130 100.0323430 110.4305960 135.0470580
  96.5531710 105.8989270 135.6990380  95.9459660 106.6388170 135.7085680
  97.0281060 105.9888630 134.8728580 106.1264500 100.0640090 145.3747270
 106.4945320  99.2435300 145.7026840 105.2662700 100.1241980 145.7902920
 109.4926530  99.0197030 136.1834830 108.8639690  99.1242700 135.4693060
 108.9978450  99.2393810 136.9728710 103.9384670 110.7402620 133.6168810
 104.0396650 110.5366610 132.6870790 103.0386410 110.4860900 133.8216590
 101.4610560 101.2982980 137.5992710 100.7526710 101.7669320 138.0406320
 101.7455040 100.6404990 138.2337900 103.0866490 102.7179680 145.5985240
 103.5851740 103.1925500 146.2637090 103.2289440 101.7943200 145.8055270
 105.4925990  98.0233640 139.0388500 105.3693770  98.0419770 138.0898010
 106.4410550  98.0712580 139.1586900 102.5802780 113.2588940 138.3116480
 102.8344280 113.2210330 137.3895850 101.6315260 113.1322270 138.3044730
  99.6645580  99.6068060 134.9743420 100.5136110 100.0438210 134.9083610
  99.2976850  99.9188320 135.8015480 110.2933350  98.9347640 146.4413630
 109.7906950  99.6753040 146.7807440 111.1090010  99.3231640 146.1250420
 108.5855360 104.1780820 139.8874990 107.6445500 104.1931050 140.0622680
 108.8999430 103.3916780 140.3335290  98.5637000 105.8600420 133.4478950
  99.3300270 105.7481780 134.0104380  98.6411690 105.1638390 132.7955720
  97.2583760 103.2925490 134.1311840  97.3387350 102.3453000 134.2429240
  98.1503510 103.6232370 134.2372500 110.5880940 111.3489670 141.5629250
 110.7128360 112.1720840 142.0353060 111.4546500 111.1380400 141.2153400
  98.0598470 113.4420880 141.2346380  98.7960950 112.8936340 141.5054950
  98.4439390 114.3076890 141.0952370  94.9443950 109.5094450 137.1087890
  94.0183730 109.7515590 137.0993300  95.4100380 110.3368710 136.9872640
 101.1700780 112.6151190 133.0571950 101.9629390 112.9040020 132.6053740
 100.6505130 112.1843360 132.3784430 107.3321750 112.4627110 148.9816780
 108.2843500 112.3785130 148.9317020 107.1849970 113.1268820 149.6550570
 110.2230950 111.8421320 134.4808690 109.9372460 111.4286460 133.6662870
 110.0250500 112.7709030 134.3609210  94.7854560 105.1140410 149.3668010
  95.2893580 104.5347690 149.9384240  94.0461980 105.3980640 149.9044380
 101.6878180 107.8354600 132.9214300 101.5828820 107.2206950 133.6475680
 101.5202400 107.3120490 132.1377310 101.8392500 106.5211400 148.9003530
 101.0738170 107.0896400 148.8158200 102.0208460 106.2287610 148.0071760
 104.9280910 106.8974630 133.5256290 104.3791010 107.3443930 134.1699030
 105.5500170 106.3923880 134.0493960 108.9815850 108.2516730 149.4578550
 109.7225320 108.5892490 148.9546010 108.2188530 108.4208790 148.9048320
 100.5956030 105.8565550 135.4221590 101.0172450 105.6905420 136.2652980
 100.7206870 105.0465780 134.9276730  98.7583450 101.8362100 148.2292570
  98.2279910 101.3453050 147.6015910  99.4271520 102.2646300 147.6950500
 103.1083670 104.8803160 132.6698690 103.6289330 104.1652180 132.3039840
 103.7552070 105.5189030 132.9699200 107.6561510 106.3031560 147.9933760
 108.0702530 106.4576640 148.8424180 106.7212510 106.4286780 148.1559540
 108.1283680 103.6427720 149.9972910 108.7104450 102.8880040 149.9093390
 108.3045450 104.1735160 149.2204390  99.2455750  98.8024470 148.3089860
  99.1512620  98.1845220 147.5840730  98.6653140  99.5290760 148.0819770
 102.0117190  97.3597710 145.3417250 101.5634490  97.3821970 144.4962800
 101.3782390  96.9616730 145.9387550 102.4176740 106.2552040 145.9629690
 102.8364850 107.0984770 145.7905930 101.4985370 106.3924080 145.7336470
 104.7540640 103.9868220 147.3467530 104.8736850 103.3909360 148.0862370
 105.6134640 104.0237910 146.9268830 107.0928540 104.5405410 145.9230040
 106.5663760 105.0648030 145.3195180 107.4359880 105.1732800 146.5539770
  99.4914930 101.9298780 132.3679750  99.2903990 101.0666140 132.7293090
  99.3206980 101.8432140 131.4301350 100.2684160 112.5605050 147.0787420
  99.7305250 113.2851110 146.7596120 100.5218120 112.0835390 146.2884760
 101.5209410 100.5289570 148.6043350 102.1109100 100.2205420 149.2921170
 100.7029650 100.0569320 148.7603250 106.3402840 100.1455380 148.8376370
 105.6518360  99.4836920 148.7726360 107.0608860  99.6993650 149.2824830
 106.9703240  96.7407010 134.8966630 107.2505530  95.8974910 135.2526050
 106.1968970  96.9730120 135.4105380  98.2897730  99.0299400 132.3557630
  98.5923630  99.0366830 131.4476780  99.0292320  98.6797260 132.8525290
 103.1246370 113.7956260 147.3374070 103.0505070 114.6991400 147.6446440
 102.2225210 113.4768160 147.3096140 101.5082660  97.9734020 133.3413830
 101.1604660  97.2958010 132.7616280 101.7095430  97.5123530 134.1557220
 103.6731700 112.9614770 134.9600430 104.5682490 113.2999740 134.9819190
 103.7049330 112.2394180 134.3324710  97.3127860 108.3341820 133.1887430
  97.7502730 108.8771490 133.8445010  97.7975590 107.5088770 133.1983770
  94.5273660 111.1230850 140.6407690  94.8576670 110.2551910 140.4086330
  94.9564660 111.3289370 141.4712650  99.1235580 109.4539860 138.3009660
  98.8231120 109.3304830 139.2013570  99.0173070 108.5948450 137.8925390
  95.0163870 111.9901440 143.3789320  94.5794860 112.1702240 144.2113470
  95.5841550 112.7476060 143.2371040 110.6526050 111.4918440 147.6666630
 110.0528040 111.5511000 146.9230550 110.7819950 110.5523420 147.7963480
 111.8927500 109.2336260 133.0036340 111.0620460 109.3012910 133.4743570
 112.0699330 110.1240380 132.7003200 111.3483960 105.9783740 135.5070540
 112.1102870 106.5480390 135.6130230 111.3638330 105.4110940 136.2778850
  94.8488300 104.5021670 139.7378200  94.1937140 104.2333310 139.0937900
  95.6866250 104.3926150 139.2880180 112.3543930 106.8333840 140.3512470
 112.7252760 106.0501160 139.9448440 112.9945860 107.5222940 140.1729770
 109.3377690 108.2170420 145.7642790 108.5237530 108.6467580 146.0268580
 109.7451890 108.8288830 145.1511840 111.4003130 106.2718110 132.6643060
 111.6751970 107.1796990 132.5362280 111.2113870 106.2080640 133.6005050
 107.7978740  99.2962960 133.9596690 108.2163620  99.1093940 133.1193350
 107.4914800  98.4442010 134.2699620 111.2968470 104.2087100 137.6572490
 110.9212070 103.4415030 137.2253780 110.5671590 104.5909800 138.1447420
  95.8864230 104.8874240 144.2781540  96.2537270 104.8001640 145.1577560
  95.3175050 104.1240790 144.1788400 110.6868090 103.3558620 147.2912010
 110.4554180 103.1271370 146.3909960 110.9472640 104.2758170 147.2456900
  95.4380230 101.7983330 148.1839960  94.5436280 101.7650090 148.5233670
  95.9777780 101.9970120 148.9491210  94.0626380 101.7120600 135.6803530
  93.1590460 101.9750800 135.5055190  94.5467000 101.9831770 134.9003490
 110.5719430 102.4344590 140.9579730 111.0956910 101.9407240 140.3269900
 111.1578850 102.5694950 141.7027300 110.7509150 102.5184460 144.4799280
 109.8011860 102.4848000 144.5944270 110.9322160 103.4284570 144.2449050
  96.6053590 100.7686140 133.5897910  97.3145290 100.3469360 133.1045190
  95.8893530 100.8361370 132.9581260  96.2527750  96.8225470 132.6300560
  96.9755880  97.3634410 132.9481780  96.5252270  96.5488890 131.7542100
 110.0619400 101.6917940 136.8972140 110.5578520 101.4588810 137.6821020
 109.8635470 100.8529780 136.4809780  95.9419940  96.0731660 142.5323180
  96.5896130  95.5229040 142.0918340  96.3621780  96.3274810 143.3538990
 111.4906560 100.3278890 139.4309820 111.3805840 100.1734930 140.3692090
 112.2514150  99.7999830 139.1885230 109.8372280  96.2673020 145.8892820
 110.4744500  96.8807160 146.2552010 109.9847170  96.3033680 144.9442050
 112.3796830  98.1586810 132.6715960 113.3046140  98.0267990 132.4634250
 112.3572620  98.2379630 133.6252410 112.4535320  98.9297470 135.2972670
 111.6586820  98.8642590 135.8265580 112.6578600  99.8648110 135.2858020
 109.3953740 112.9689020 139.2911060 109.9912810 112.6473590 138.6145480
 109.6531890 112.4960840 140.0824330  95.6951940  96.2287330 145.2748500
  95.3466760  96.6851150 146.0406680  95.3639640  95.3344460 145.3570930
 101.0022340 110.9566520 145.0411410 100.7613700 111.2241080 144.1541930
 101.9424980 111.1272250 145.0962270 103.2076760  97.4199210 148.7967920
 103.1465650  98.0121040 149.5463330 104.1477140  97.3125170 148.6518180
 105.8451320  97.0769270 148.4360210 106.4591730  97.3948560 147.7741290
 106.3900880  96.5917860 149.0556070 112.2626500 112.9760900 145.8422050
 111.7684780 113.3729770 145.1249180 111.6539790 112.3510110 146.2359330
  96.3672580  95.7563530 148.5499270  96.9155570  95.5751580 147.7865380
  96.4327890  94.9657640 149.0855580  97.1404340 112.3469180 146.5599470
  96.5464660 112.2153880 147.2989510  97.1328180 111.5107320 146.0941570
 106.5859360  95.6401410 144.7629500 105.7119200  95.9736520 144.5602430
 106.4770110  95.1674590 145.5881370 107.4931340  97.8472280 146.1471220
 107.1644700  97.0324040 145.7672950 108.4413640  97.8042090 146.0236910
 109.9465950 113.6184320 143.1208790 109.4868920 114.3700130 142.7466810
 109.3178410 112.8990790 143.0623590  96.7716570 109.7127560 145.5107510
  96.0450630 109.0932850 145.4433460  96.8325720 110.1068170 144.6405590
 100.3761670 111.9272560 142.2956920 100.8926690 111.3159920 141.7705180
 101.0259050 112.4301340 142.7867930 103.1157170 112.8181050 143.1225900
 103.4034980 112.5635350 142.2458910 103.6280390 112.2658410 143.7131470
 104.3334180  96.5571250 143.7022410 103.5505970  97.0316750 143.9819170
 104.0397110  95.6526080 143.5935590 108.8855250  97.2594350 141.7471500
 109.3263340  97.2039450 140.8993100 108.6162840  98.1752360 141.8181680
 110.7493820  96.8909590 139.7580320 110.6882220  95.9470810 139.6111340
 111.5285850  96.9989680 140.3033780  95.0546570 113.0301950 138.7204270
  94.8868610 112.3972630 139.4186160  94.1881080 113.2361350 138.3698460
  95.6774590  96.8618730 136.2236130  96.4353950  96.9747610 135.6500160
  95.2151760  97.6987930 136.1779560 102.2188400  98.9758000 139.2138440
 101.4062910  98.6014890 138.8734320 102.7230040  98.2203080 139.5159630
 106.7213380  95.6400450 140.4521510 107.3242750  96.2120660 140.9270030
 105.9806370  96.2039890 140.2295410 109.8647980  96.0422010 135.7261790
 110.0598610  96.9405460 135.9929220 109.0777850  95.8109090 136.2194740
  96.6609270 111.7235180 136.1654410  96.1356890 112.1043210 135.4616370
  96.5853850 112.3485950 136.8864120  98.0499740  97.3882780 134.7638100
  98.5792500  96.6012580 134.6346050  98.6828060  98.0673970 134.9973630
 100.2437580  97.1257920 137.8183490  99.6140320  96.4245230 137.9853620
  99.7042720  97.8862050 137.6016650 111.4174590 113.2822720 137.4868350
 111.5926780 112.5960460 136.8429270 110.7196160 113.8069770 137.0945020
  99.2602240 113.6717560 135.0403660  99.9921060 113.3876840 134.4927550
  99.5195910 113.4330840 135.9303040  98.4217030 109.7882290 135.0449990
  97.7925910 110.2567390 135.5935820  98.5364860 108.9431510 135.4796180
 105.8766750 103.8387950 121.1951190 105.7960800 102.9242560 120.9242900
 105.4631170 104.3355020 120.4890900 104.0084790 105.6166970 123.0760460
 103.2326890 105.1367410 123.3659030 104.6597720 104.9372620 122.9016620
  98.0250620 105.9286780 123.9536220  97.1935500 105.6735490 124.3532730
  98.6331600 105.9997550 124.6894140 108.0292220 110.0227160 121.8559590
 107.5673750 109.2514400 122.1846760 108.8417770 110.0493230 122.3612040
  96.4342570 100.8888670 117.7378610  95.5459270 101.2304640 117.6358490
  96.7183760 100.6888990 116.8459440  94.3975580 103.4894320 123.6218310
  94.9691690 102.7216520 123.6221950  94.3977120 103.7883080 122.7124920
 104.2555530 112.3085170 121.4763580 103.6366970 112.7642670 120.9058020
 105.1107310 112.4636630 121.0753280 103.4493780 108.2924160 123.0830620
 103.3802060 107.3514100 122.9219750 104.2113640 108.3825570 123.6553190
  95.6400450  98.8978680 125.4087240  95.4603290  98.0004430 125.6890000
  95.2380530  99.4450550 126.0834190 104.4798950 101.0994540 123.3099550
 104.8563770 100.2266420 123.1973220 104.3818460 101.4353240 122.4189990
  98.6103960  99.4720170 118.7716990  98.7170710 100.3723900 119.0785750
  97.6996320  99.4238140 118.4811640 108.2623070  98.5944980 120.2427890
 109.0832690  98.1041550 120.2853370 108.2957150  99.1842640 120.9959730
  96.2587120 101.3939180 124.0169580  96.9397230 101.6577550 124.6356980
  95.9435170 100.5540050 124.3507590 100.4511690 102.4406540 123.1042170
 100.9589910 102.9387510 123.7447190 100.9824930 101.6641740 122.9281530
 112.5522620 100.6111730 126.8071520 111.8474790 100.9993440 126.2886630
 112.8180540 101.3062020 127.4092450  98.7347790  97.0805100 127.3705590
  98.7366230  97.5977490 126.5651490  97.9052100  96.6035280 127.3475520
 105.1218880 107.1924410 118.8695490 104.5036150 107.6573860 118.3058210
 105.6342130 107.8851890 119.2865000  99.9850640 106.7200280 125.5479090
  99.6520020 107.3469200 126.1900160 100.1617320 107.2462160 124.7680760
 108.4984550 100.5345360 123.0155430 107.7940120 100.8230250 123.5958540
 108.8596710 101.3445470 122.6554990  98.4163120  98.7915060 125.3776040
  98.7579930  99.6357110 125.0829910  97.4778930  98.9398800 125.4941380
  99.1969740 108.6881080 127.3628270  99.8143740 109.3632160 127.0812720
  98.3362860 109.0969060 127.2715770  94.4902080 107.8780940 116.2435120
  94.1130060 108.3668040 115.5120020  94.7475150 108.5506220 116.8741650
 110.1147330 110.1520490 125.2782910 109.4310850 110.8219600 125.2699580
 110.6541620 110.3501140 124.5127770 111.5671470  99.9800150 123.4064640
 110.6196380 100.0139130 123.5380070 111.8921460 100.7939100 123.7914000
 102.0991010  96.2797330 121.7020630 102.4065990  95.7244220 120.9856130
 101.1691710  96.4141790 121.5193620 107.6506070 111.9964620 123.9928090
 107.6633230 111.5926910 123.1250350 107.0981290 112.7711910 123.8889520
 108.9451490 108.7180840 119.0818260 108.8347820 107.7755170 119.2067680
 108.9419740 109.0796480 119.9681020 107.0491510 106.8994460 125.3210700
 107.4660300 106.6854570 124.4864160 107.7731330 107.1567250 125.8919320
 104.4871770 104.3446160 118.4380750 103.5601050 104.2783540 118.6669220
 104.6396590 105.2826290 118.3235990 104.4740850 100.6163160 115.4347910
 103.5344520 100.7777120 115.5200370 104.7924110 101.3348840 114.8883900
 110.9953610 105.2981680 125.4126940 110.1672240 105.3674770 124.9377070
 111.5904090 105.8835990 124.9442770 108.5169060 105.9066460 118.9416000
 107.8981480 105.5686010 118.2942300 108.4993510 105.2626220 119.6495190
 107.9595620 102.0851000 126.3581810 107.5466800 102.9104710 126.6121800
 107.2271570 101.4996040 126.1658170 100.0928410 104.8710900 121.2200480
  99.6885410 104.1588150 120.7246380 100.1791530 104.5264140 122.1088520
 100.5610110 108.5578460 123.3839690 100.2638400 107.9523930 122.7047470
 101.5109930 108.5955770 123.2729050  98.8057030 101.6454110 124.9999520
  99.3571620 101.7549450 124.2252770  99.3200540 102.0191710 125.7154750
 108.6495720 112.1310330 127.0462790 108.1726280 112.9382520 126.8535400
 107.9657510 111.4788660 127.1989000  99.6528540 108.2960150 130.0347490
  98.7557070 108.5200120 130.2820890  99.6781410 108.4195090 129.0858890
 106.6933760 105.1453270 115.9488750 107.1327040 104.3075700 115.8026570
 107.4062180 105.7782670 116.0352890  98.4799760 105.1673470 128.6104860
  98.3407530 106.0396270 128.9792260  97.5981120 104.8246280 128.4652800
 104.8029140 110.0849340 119.9169990 105.2425050 110.8273670 119.5025380
 104.7416030 110.3275910 120.8408950 100.2780110 111.1095170 130.8190010
 100.2495540 111.5138120 129.9518440 100.1145080 110.1805530 130.6561610
  96.7933040 103.7655880 118.7207130  96.6730640 104.4917970 118.1088400
  96.4833930 102.9958790 118.2435040 112.2294930 111.8922270 132.1154180
 112.7054650 112.3705160 132.7943260 112.8502090 111.8239760 131.3899680
 111.6328180 109.0835120 129.2754190 111.7591240 108.8447000 128.3571370
 111.6749560 108.2519660 129.7476270 105.4944920 112.7863120 127.8449000
 106.0089590 112.6971130 128.6471430 104.6514000 113.1322820 128.1376910
 107.4699320 113.0718460 117.2733000 107.3100460 112.7821400 118.1714830
 107.3046030 112.2958590 116.7378230  99.9487700 112.8516990 119.0504620
  99.7730180 111.9352530 118.8372420  99.0943440 113.2104280 119.2902420
 107.1725450 110.5806020 115.8331000 106.4790610 110.5783310 115.1733280
 107.9148310 110.1565340 115.4025170 106.7375380 112.2068730 119.9079490
 107.1932330 111.4258110 120.2218110 107.0767900 112.9175550 120.4520670
 111.4852190 101.1367580 130.2403930 110.8696460 101.6447250 129.7119390
 111.1648610 100.2365910 130.1829870  94.4877930 107.9785190 127.0670230
  94.6508970 107.5090550 126.2489600  94.9530380 107.4708750 127.7319070
  99.2596700  97.1090950 122.1030800  98.8164850  97.8900490 121.7715320
  99.8181690  97.4320840 122.8101740 103.5466510  99.9759470 127.7066120
 103.0845880 100.1842490 128.5186060 103.1444620  99.1618820 127.4036790
 108.5471020 101.1968420 128.8362780 107.6964610 100.8974170 129.1571850
 108.3872810 101.4410430 127.9246600 105.6420730 102.6970170 130.9361570
 105.9674140 101.8633920 130.5963800 106.4301060 103.2198690 131.0839900
 102.3755520  96.7301650 116.9836630 101.7509700  96.7261520 117.7089940
 102.2885640  95.8632610 116.5872600 101.2972600  97.6538280 123.9620400
 101.5944930  98.5601110 123.8812420 101.8458160  97.1657060 123.3479970
  99.0510920 102.2324520 119.8312050  98.8251840 102.0161690 120.7358670
  98.2703450 102.6652980 119.4858020 106.2808680 102.2387890 118.4302700
 105.6817570 102.9623690 118.2466320 106.8288290 102.1764670 117.6479150
 101.4910130 103.1310100 130.4972320 101.3953730 102.1904830 130.3472720
 102.3342110 103.3525170 130.1020390 104.8873550 100.8751430 120.4605980
 105.2803120 101.1923630 119.6474670 105.2490400  99.9963310 120.5750500
  96.6220670  99.5423770 128.6506100  96.2284060 100.3898980 128.8578880
  95.9339070  98.9050140 128.8414740 103.1965720  99.6258740 131.7202840
 102.5064040  99.4330940 132.3548930 103.9398020  99.9093380 132.2527140
 105.4728690 103.4657180 124.5556760 104.7409810 103.9743990 124.9046860
 105.0753030 102.6487160 124.2545540 101.9106080 100.1411380 122.9609250
 101.9142140  99.7001330 122.1113790 102.8057200 100.4628710 123.0681070
  97.7608460 100.0237870 121.9203460  97.4208510 100.5013100 122.6770510
  96.9985780  99.5702990 121.5604560 101.9726230 101.1423460 115.9516010
 102.0939050 101.1009940 116.9001830 101.5874740 102.0047610 115.7962740
 105.9354600  98.9190860 123.9679700 105.9527340  99.3699510 124.8121550
 105.6870180  98.0196500 124.1813140 100.9847730 103.4524600 115.3499310
 100.4164630 103.0042850 114.7235220 101.6936730 103.8117380 114.8164460
 109.3625350  96.3323040 129.8066080 109.6871120  95.6012700 130.3324060
 109.3981860  96.0136680 128.9047070  96.0616910 107.3536620 129.2266040
  95.6771700 106.7130290 129.8249000  96.3729100 108.0572740 129.7960770
 102.2114050 104.2013160 124.7074660 102.5784180 103.7271730 125.4536000
 102.0219110 105.0754730 125.0483000  95.0754540  98.9456850 120.8368130
  94.7901460  98.5812520 121.6746750  95.0133400  98.2137310 120.2231270
 100.0013420 103.2421800 127.0258870  99.6970490 104.1213780 127.2509230
 100.9559880 103.3021590 127.0616310  98.5295210 107.4482790 117.6225720
  97.7557470 106.9080410 117.4624440  99.2589840 106.9289400 117.2843480
 109.2883190 106.4448150 123.4152110 110.0082310 106.9403440 123.0248220
 109.0865010 105.7666040 122.7705980 104.7493130  97.8386110 117.5581500
 103.9357740  97.3399280 117.4826810 104.5555080  98.6784360 117.1417850
 104.6701990 106.5157210 129.3021110 104.6039300 105.5952880 129.0478700
 104.0407130 106.6132650 130.0165750 107.4641520 102.2105760 115.8543660
 108.3521140 102.5222990 115.6795000 107.4346610 101.3378010 115.4624240
  98.5732610 107.1163170 121.2604530  99.0911280 106.3131430 121.2061420
  98.1216630 107.0542310 122.1021360 103.4602110 108.3829450 116.5331830
 103.8017810 109.1271680 116.0375150 102.6314820 108.6960570 116.8956660
  96.0577150 104.0824540 128.1730230  95.6992090 104.7478390 128.7603570
  95.7631710 103.2508090 128.5442850  99.2590270 104.5408780 131.0569780
  98.9590410 104.6865960 130.1597600 100.0301510 103.9814070 130.9643170
 104.6018720 109.3377780 129.0524910 104.6163260 108.4058740 128.8343820
 103.8943820 109.4237540 129.6914680 109.7355790 103.5217600 115.3223520
 109.6519510 103.9531820 114.4719960 110.4549980 103.9815950 115.7550340
 110.8129930 105.9785120 128.3993490 110.0878120 106.5713900 128.2022880
 111.3405390 105.9708660 127.6006860 110.7643040 110.3759860 118.0505650
 110.1219200 109.7215480 118.3249370 110.3773700 110.7814950 117.2746320
 106.3429520 107.7045290 121.8977340 106.6953340 107.1073420 121.2378710
 105.4591850 107.3789520 122.0685590 102.4292800 108.4642980 119.3047750
 103.1163930 109.0112190 119.6855340 101.6425220 109.0083710 119.3397360
  94.5685200 104.0815800 114.7964830  95.4380050 104.3640600 115.0800750
  94.0775520 104.8951670 114.6813640 101.7320010 105.4689010 118.9173110
 102.1882790 106.2794260 119.1433300 101.3808220 105.1512150 119.7491600
 104.0352620 110.9795350 126.1465410 104.6794840 111.1854730 126.8238830
 104.3982060 110.2183750 125.6936260  97.6331790  95.8126660 119.3895630
  97.5046420  95.8044560 120.3380550  96.8093810  96.1509750 119.0386640
 105.3084700 108.9827700 124.8642860 105.9506930 108.2820860 124.9775030
 105.8334050 109.7626140 124.6839750 109.1540420 109.2676320 114.5882000
 108.9278000 108.5506760 115.1806640 108.7636620 109.0188760 113.7503750
 107.0822320 109.7822600 128.0678920 107.4178560 110.3689290 128.7456840
 106.1622660 109.6515310 128.2976710  94.9356450 113.2943180 115.3626460
  95.2954090 113.8932520 114.7083730  94.7948790 113.8403070 116.1361490
  94.6325720  97.5717780 128.8502330  93.9184240  97.7714700 129.4554940
  95.0520760  96.7957350 129.2217130 108.7356670 107.1848260 116.2496160
 108.4478370 107.6460950 117.0374040 109.5308840 106.7246030 116.5180380
  94.9198310 111.5598040 129.8368860  95.0289430 110.6192780 129.6964250
  94.2678870 111.8252790 129.1882590 102.9110900 109.8313930 131.2366980
 102.5907770 109.1123170 131.7812670 102.2369260 110.5069000 131.3103040
 100.9525070 110.6774380 116.1800130 100.9435170 111.4104070 115.5644640
 100.0323430 110.4305960 116.2727090  96.5531710 105.8989270 116.9246890
  95.9459660 106.6388170 116.9342190  97.0281060 105.9888630 116.0985090
 106.1264500 100.0640090 126.6003780 106.4945320  99.2435300 126.9283350
 105.2662700 100.1241980 127.0159430 109.4926530  99.0197030 117.4091340
 108.8639690  99.1242700 116.6949570 108.9978450  99.2393810 118.1985220
 103.9384670 110.7402620 114.8425320 104.0396650 110.5366610 113.9127300
 103.0386410 110.4860900 115.0473100 101.4610560 101.2982980 118.8249220
 100.7526710 101.7669320 119.2662830 101.7455040 100.6404990 119.4594410
 103.0866490 102.7179680 126.8241750 103.5851740 103.1925500 127.4893600
 103.2289440 101.7943200 127.0311780 105.4925990  98.0233640 120.2645010
 105.3693770  98.0419770 119.3154520 106.4410550  98.0712580 120.3843410
 102.5802780 113.2588940 119.5372990 102.8344280 113.2210330 118.6152360
 101.6315260 113.1322270 119.5301240  99.6645580  99.6068060 116.1999930
 100.5136110 100.0438210 116.1340120  99.2976850  99.9188320 117.0271990
 110.2933350  98.9347640 127.6670140 109.7906950  99.6753040 128.0063950
 111.1090010  99.3231640 127.3506930 108.5855360 104.1780820 121.1131500
 107.6445500 104.1931050 121.2879190 108.8999430 103.3916780 121.5591800
  98.5637000 105.8600420 114.6735460  99.3300270 105.7481780 115.2360890
  98.6411690 105.1638390 114.0212230  97.2583760 103.2925490 115.3568350
  97.3387350 102.3453000 115.4685750  98.1503510 103.6232370 115.4629010
 110.5880940 111.3489670 122.7885760 110.7128360 112.1720840 123.2609570
 111.4546500 111.1380400 122.4409910  97.0656750 112.6266950 131.6488470
  97.8669480 112.9479000 132.0623870  96.5508570 112.2662530 132.3708380
 101.1700780 112.6151190 114.2828460 101.9629390 112.9040020 113.8310250
 100.6505130 112.1843360 113.6040940 105.9021380 108.7346820 131.5963880
 105.2959540 108.7578420 130.8559630 105.5975490 108.0029860 132.1331130
 107.3321750 112.4627110 130.2073290 108.2843500 112.3785130 130.1573530
 107.1849970 113.1268820 130.8807080 110.2230950 111.8421320 115.7065200
 109.9372460 111.4286460 114.8919380 110.0250500 112.7709030 115.5865720
  94.7854560 105.1140410 130.5924520  95.2893580 104.5347690 131.1640750
  94.0461980 105.3980640 131.1300890 101.6878180 107.8354600 114.1470810
 101.5828820 107.2206950 114.8732190 101.5202400 107.3120490 113.3633820
 101.8392500 106.5211400 130.1260040 101.0738170 107.0896400 130.0414710
 102.0208460 106.2287610 129.2328270 104.9280910 106.8974630 114.7512800
 104.3791010 107.3443930 115.3955540 105.5500170 106.3923880 115.2750470
 108.9815850 108.2516730 130.6835060 109.7225320 108.5892490 130.1802520
 108.2188530 108.4208790 130.1304830  96.8177640 103.2570000 131.4874590
  96.8582980 102.9583870 132.3959820  97.6723140 103.6577610 131.3282110
 100.5956030 105.8565550 116.6478100 101.0172450 105.6905420 117.4909490
 100.7206870 105.0465780 116.1533240  98.7583450 101.8362100 129.4549080
  98.2279910 101.3453050 128.8272420  99.4271520 102.2646300 128.9207010
 103.1083670 104.8803160 113.8955200 103.6289330 104.1652180 113.5296350
 103.7552070 105.5189030 114.1955710 107.6561510 106.3031560 129.2190270
 108.0702530 106.4576640 130.0680690 106.7212510 106.4286780 129.3816050
 108.1283680 103.6427720 131.2229420 108.7104450 102.8880040 131.1349900
 108.3045450 104.1735160 130.4460900  99.2455750  98.8024470 129.5346370
  99.1512620  98.1845220 128.8097240  98.6653140  99.5290760 129.3076280
 102.0117190  97.3597710 126.5673760 101.5634490  97.3821970 125.7219310
 101.3782390  96.9616730 127.1644060 102.4176740 106.2552040 127.1886200
 102.8364850 107.0984770 127.0162440 101.4985370 106.3924080 126.9592980
 104.7540640 103.9868220 128.5724040 104.8736850 103.3909360 129.3118880
 105.6134640 104.0237910 128.1525340 107.0928540 104.5405410 127.1486550
 106.5663760 105.0648030 126.5451690 107.4359880 105.1732800 127.7796280
  99.4914930 101.9298780 113.5936260  99.2903990 101.0666140 113.9549600
  99.3206980 101.8432140 112.6557860 100.2684160 112.5605050 128.3043930
  99.7305250 113.2851110 127.9852630 100.5218120 112.0835390 127.5141270
 101.5209410 100.5289570 129.8299860 102.1109100 100.2205420 130.5177680
 100.7029650 100.0569320 129.9859760 106.3402840 100.1455380 130.0632880
 105.6518360  99.4836920 129.9982870 107.0608860  99.6993650 130.5081340
 106.9703240  96.7407010 116.1223140 107.2505530  95.8974910 116.4782560
 106.1968970  96.9730120 116.6361890  98.2897730  99.0299400 113.5814140
  98.5923630  99.0366830 112.6733290  99.0292320  98.6797260 114.0781800
 103.1246370 113.7956260 128.5630580 103.0505070 114.6991400 128.8702950
 102.2225210 113.4768160 128.5352650 101.5082660  97.9734020 114.5670340
 101.1604660  97.2958010 113.9872790 101.7095430  97.5123530 115.3813730
 103.6731700 112.9614770 116.1856940 104.5682490 113.2999740 116.2075700
 103.7049330 112.2394180 115.5581220  97.3127860 108.3341820 114.4143940
  97.7502730 108.8771490 115.0701520  97.7975590 107.5088770 114.4240280
  99.1235580 109.4539860 119.5266170  98.8231120 109.3304830 120.4270080
  99.0173070 108.5948450 119.1181900 110.6526050 111.4918440 128.8923140
 110.0528040 111.5511000 128.1487060 110.7819950 110.5523420 129.0219990
 111.8927500 109.2336260 114.2292850 111.0620460 109.3012910 114.7000080
 112.0699330 110.1240380 113.9259710 111.3483960 105.9783740 116.7327050
 112.1102870 106.5480390 116.8386740 111.3638330 105.4110940 117.5035360
  94.8488300 104.5021670 120.9634710  94.1937140 104.2333310 120.3194410
  95.6866250 104.3926150 120.5136690 112.3543930 106.8333840 121.5768980
 112.7252760 106.0501160 121.1704950 112.9945860 107.5222940 121.3986280
 109.3377690 108.2170420 126.9899300 108.5237530 108.6467580 127.2525090
 109.7451890 108.8288830 126.3768350 111.4003130 106.2718110 113.8899570
 111.6751970 107.1796990 113.7618790 111.2113870 106.2080640 114.8261560
 107.7978740  99.2962960 115.1853200 108.2163620  99.1093940 114.3449860
 107.4914800  98.4442010 115.4956130 111.2968470 104.2087100 118.8829000
 110.9212070 103.4415030 118.4510290 110.5671590 104.5909800 119.3703930
  95.8864230 104.8874240 125.5038050  96.2537270 104.8001640 126.3834070
  95.3175050 104.1240790 125.4044910 110.6868090 103.3558620 128.5168520
 110.4554180 103.1271370 127.6166470 110.9472640 104.2758170 128.4713410
  95.4380230 101.7983330 129.4096470  94.5436280 101.7650090 129.7490180
  95.9777780 101.9970120 130.1747720 109.1256160  98.5815050 131.2948220
 110.0026340  98.5898450 131.6782220 109.1377000  97.8445890 130.6840570
 110.5719430 102.4344590 122.1836240 111.0956910 101.9407240 121.5526410
 111.1578850 102.5694950 122.9283810 110.7509150 102.5184460 125.7055790
 109.8011860 102.4848000 125.8200780 110.9322160 103.4284570 125.4705560
  96.6053590 100.7686140 114.8154420  97.3145290 100.3469360 114.3301700
  95.8893530 100.8361370 114.1837770  96.2527750  96.8225470 113.8557070
  96.9755880  97.3634410 114.1738290  96.5252270  96.5488890 112.9798610
 110.0619400 101.6917940 118.1228650 110.5578520 101.4588810 118.9077530
 109.8635470 100.8529780 117.7066290  95.9419940  96.0731660 123.7579690
  96.5896130  95.5229040 123.3174850  96.3621780  96.3274810 124.5795500
 111.4906560 100.3278890 120.6566330 111.3805840 100.1734930 121.5948600
 112.2514150  99.7999830 120.4141740 109.8372280  96.2673020 127.1149330
 110.4744500  96.8807160 127.4808520 109.9847170  96.3033680 126.1698560
 109.3953740 112.9689020 120.5167570 109.9912810 112.6473590 119.8401990
 109.6531890 112.4960840 121.3080840  95.6951940  96.2287330 126.5005010
  95.3466760  96.6851150 127.2663190  95.3639640  95.3344460 126.5827440
  97.3016310 109.4006930 130.6658200  97.2585940 109.0299840 131.5472660
  97.4327320 110.3384500 130.8060020 101.0022340 110.9566520 126.2667920
 100.7613700 111.2241080 125.3798440 101.9424980 111.1272250 126.3218780
 103.2076760  97.4199210 130.0224430 103.1465650  98.0121040 130.7719840
 104.1477140  97.3125170 129.8774690 105.8451320  97.0769270 129.6616720
 106.4591730  97.3948560 128.9997800 106.3900880  96.5917860 130.2812580
 112.2626500 112.9760900 127.0678560 111.7684780 113.3729770 126.3505690
 111.6539790 112.3510110 127.4615840  96.3672580  95.7563530 129.7755780
  96.9155570  95.5751580 129.0121890  96.4327890  94.9657640 130.3112090
  97.1404340 112.3469180 127.7855980  96.5464660 112.2153880 128.5246020
  97.1328180 111.5107320 127.3198080 106.5859360  95.6401410 125.9886010
 105.7119200  95.9736520 125.7858940 106.4770110  95.1674590 126.8137880
 107.4931340  97.8472280 127.3727730 107.1644700  97.0324040 126.9929460
 108.4413640  97.8042090 127.2493420 109.9465950 113.6184320 124.3465300
 109.4868920 114.3700130 123.9723320 109.3178410 112.8990790 124.2880100
 100.3761670 111.9272560 123.5213430 100.8926690 111.3159920 122.9961690
 101.0259050 112.4301340 124.0124440 103.1157170 112.8181050 124.3482410
 103.4034980 112.5635350 123.4715420 103.6280390 112.2658410 124.9387980
 104.3334180  96.5571250 124.9278920 103.5505970  97.0316750 125.2075680
 104.0397110  95.6526080 124.8192100 108.8855250  97.2594350 122.9728010
 109.3263340  97.2039450 122.1249610 108.6162840  98.1752360 123.0438190
 110.7493820  96.8909590 120.9836830 110.6882220  95.9470810 120.8367850
 111.5285850  96.9989680 121.5290290  95.6774590  96.8618730 117.4492640
  96.4353950  96.9747610 116.8756670  95.2151760  97.6987930 117.4036070
 102.2188400  98.9758000 120.4394950 101.4062910  98.6014890 120.0990830
 102.7230040  98.2203080 120.7416140 106.7213380  95.6400450 121.6778020
 107.3242750  96.2120660 122.1526540 105.9806370  96.2039890 121.4551920
  96.6609270 111.7235180 117.3910920  96.1356890 112.1043210 116.6872880
  96.5853850 112.3485950 118.1120630  98.0499740  97.3882780 115.9894610
  98.5792500  96.6012580 115.8602560  98.6828060  98.0673970 116.2230140
 100.2437580  97.1257920 119.0440000  99.6140320  96.4245230 119.2110130
  99.7042720  97.8862050 118.8273160 103.1829530 113.7397150 131.7150610
 104.1096840 113.5041420 131.7586570 103.1679960 114.5669150 131.2336640
 111.4174590 113.2822720 118.7124860 111.5926780 112.5960460 118.0685780
 110.7196160 113.8069770 118.3201530 100.3693140  96.4041900 131.4792490
 100.0877410  96.9075500 130.7153310 100.7512840  95.6063650 131.1134620
  99.2602240 113.6717560 116.2660170  99.9921060 113.3876840 115.7184060
  99.5195910 113.4330840 117.1559550  98.4217030 109.7882290 116.2706500
  97.7925910 110.2567390 116.8192330  98.5364860 108.9431510 116.7052690
 106.9708600  95.8195480 132.0572960 106.8574050  96.1390090 132.9524480
 107.7878340  96.2207990 131.7610240 109.7507090 112.9667010 131.5391650
 110.5432410 112.4716240 131.3317610 110.0440240 113.6457150 132.1467260
 105.8766750 103.8387950 102.4207700 105.7960800 102.9242560 102.1499410
 105.4631170 104.3355020 101.7147410 104.0084790 105.6166970 104.3016970
 103.2326890 105.1367410 104.5915540 104.6597720 104.9372620 104.1273130
 108.0292220 110.0227160 103.0816100 107.5673750 109.2514400 103.4103270
 108.8417770 110.0493230 103.5868550  96.4342570 100.8888670  98.9635120
  95.5459270 101.2304640  98.8615000  96.7183760 100.6888990  98.0715950
  94.3975580 103.4894320 104.8474820  94.9691690 102.7216520 104.8478460
  94.3977120 103.7883080 103.9381430 104.2555530 112.3085170 102.7020090
 103.6366970 112.7642670 102.1314530 105.1107310 112.4636630 102.3009790
 103.4493780 108.2924160 104.3087130 103.3802060 107.3514100 104.1476260
 104.2113640 108.3825570 104.8809700  95.6400450  98.8978680 106.6343750
  95.4603290  98.0004430 106.9146510  95.2380530  99.4450550 107.3090700
 104.4798950 101.0994540 104.5356060 104.8563770 100.2266420 104.4229730
 104.3818460 101.4353240 103.6446500  98.6103960  99.4720170  99.9973500
  98.7170710 100.3723900 100.3042260  97.6996320  99.4238140  99.7068150
 108.2623070  98.5944980 101.4684400 109.0832690  98.1041550 101.5109880
 108.2957150  99.1842640 102.2216240  96.2587120 101.3939180 105.2426090
  96.9397230 101.6577550 105.8613490  95.9435170 100.5540050 105.5764100
 100.4511690 102.4406540 104.3298680 100.9589910 102.9387510 104.9703700
 100.9824930 101.6641740 104.1538040 112.5522620 100.6111730 108.0328030
 111.8474790 100.9993440 107.5143140 112.8180540 101.3062020 108.6348960
  98.7347790  97.0805100 108.5962100  98.7366230  97.5977490 107.7908000
  97.9052100  96.6035280 108.5732030 105.1218880 107.1924410 100.0952000
 104.5036150 107.6573860  99.5314720 105.6342130 107.8851890 100.5121510
 108.4984550 100.5345360 104.2411940 107.7940120 100.8230250 104.8215050
 108.8596710 101.3445470 103.8811500  98.4163120  98.7915060 106.6032550
  98.7579930  99.6357110 106.3086420  97.4778930  98.9398800 106.7197890
  99.1969740 108.6881080 108.5884780  99.8143740 109.3632160 108.3069230
  98.3362860 109.0969060 108.4972280  94.4902080 107.8780940  97.4691630
  94.1130060 108.3668040  96.7376530  94.7475150 108.5506220  98.0998160
 110.1147330 110.1520490 106.5039420 109.4310850 110.8219600 106.4956090
 110.6541620 110.3501140 105.7384280 111.5671470  99.9800150 104.6321150
 110.6196380 100.0139130 104.7636580 111.8921460 100.7939100 105.0170510
 107.6506070 111.9964620 105.2184600 107.6633230 111.5926910 104.3506860
 107.0981290 112.7711910 105.1146030 108.9451490 108.7180840 100.3074770
 108.8347820 107.7755170 100.4324190 108.9419740 109.0796480 101.1937530
 107.0491510 106.8994460 106.5467210 107.4660300 106.6854570 105.7120670
 107.7731330 107.1567250 107.1175830 104.4871770 104.3446160  99.6637260
 103.5601050 104.2783540  99.8925730 104.6396590 105.2826290  99.5492500
 104.4740850 100.6163160  96.6604420 103.5344520 100.7777120  96.7456880
 104.7924110 101.3348840  96.1140410 110.9953610 105.2981680 106.6383450
 110.1672240 105.3674770 106.1633580 111.5904090 105.8835990 106.1699280
 108.5169060 105.9066460 100.1672510 107.8981480 105.5686010  99.5198810
 108.4993510 105.2626220 100.8751700 107.9595620 102.0851000 107.5838320
 107.5466800 102.9104710 107.8378310 107.2271570 101.4996040 107.3914680
 100.0928410 104.8710900 102.4456990  99.6885410 104.1588150 101.9502890
 100.1791530 104.5264140 103.3345030  98.8057030 101.6454110 106.2256030
  99.3571620 101.7549450 105.4509280  99.3200540 102.0191710 106.9411260
  99.6528540 108.2960150 111.2604000  98.7557070 108.5200120 111.5077400
  99.6781410 108.4195090 110.3115400 106.6933760 105.1453270  97.1745260
 107.1327040 104.3075700  97.0283080 107.4062180 105.7782670  97.2609400
  98.4799760 105.1673470 109.8361370  98.3407530 106.0396270 110.2048770
  97.5981120 104.8246280 109.6909310 104.8029140 110.0849340 101.1426500
 105.2425050 110.8273670 100.7281890 104.7416030 110.3275910 102.0665460
 110.2750900  96.3996080  95.4886300 109.9623560  96.4922910  96.3885370
 111.0363370  96.9777110  95.4383730  96.7933040 103.7655880  99.9463640
  96.6730640 104.4917970  99.3344910  96.4833930 102.9958790  99.4691550
 112.2294930 111.8922270 113.3410690 112.7054650 112.3705160 114.0199770
 112.8502090 111.8239760 112.6156190 111.6328180 109.0835120 110.5010700
 111.7591240 108.8447000 109.5827880 111.6749560 108.2519660 110.9732780
 107.4699320 113.0718460  98.4989510 107.3100460 112.7821400  99.3971340
 107.3046030 112.2958590  97.9634740  99.9487700 112.8516990 100.2761130
  99.7730180 111.9352530 100.0628930  99.0943440 113.2104280 100.5158930
 107.1725450 110.5806020  97.0587510 106.4790610 110.5783310  96.3989790
 107.9148310 110.1565340  96.6281680 106.7375380 112.2068730 101.1336000
 107.1932330 111.4258110 101.4474620 107.0767900 112.9175550 101.6777180
 111.4852190 101.1367580 111.4660440 110.8696460 101.6447250 110.9375900
 111.1648610 100.2365910 111.4086380  94.4877930 107.9785190 108.2926740
  94.6508970 107.5090550 107.4746110  94.9530380 107.4708750 108.9575580
 108.5471020 101.1968420 110.0619290 107.6964610 100.8974170 110.3828360
 108.3872810 101.4410430 109.1503110 105.6420730 102.6970170 112.1618080
 105.9674140 101.8633920 111.8220310 106.4301060 103.2198690 112.3096410
 102.3755520  96.7301650  98.2093140 101.7509700  96.7261520  98.9346450
 102.2885640  95.8632610  97.8129110  99.0510920 102.2324520 101.0568560
  98.8251840 102.0161690 101.9615180  98.2703450 102.6652980 100.7114530
 106.2808680 102.2387890  99.6559210 105.6817570 102.9623690  99.4722830
 106.8288290 102.1764670  98.8735660 101.4910130 103.1310100 111.7228830
 101.3953730 102.1904830 111.5729230 102.3342110 103.3525170 111.3276900
 104.8873550 100.8751430 101.6862490 105.2803120 101.1923630 100.8731180
 105.2490400  99.9963310 101.8007010  96.6220670  99.5423770 109.8762610
  96.2284060 100.3898980 110.0835390  95.9339070  98.9050140 110.0671250
 103.1965720  99.6258740 112.9459350 102.5064040  99.4330940 113.5805440
 103.9398020  99.9093380 113.4783650  93.9237720  97.4652230 103.9092690
  93.6350770  98.0355090 104.6217670  94.6683480  96.9856680 104.2723920
 105.4728690 103.4657180 105.7813270 104.7409810 103.9743990 106.1303370
 105.0753030 102.6487160 105.4802050  97.7608460 100.0237870 103.1459970
  97.4208510 100.5013100 103.9027020  96.9985780  99.5702990 102.7861070
 101.9726230 101.1423460  97.1772520 102.0939050 101.1009940  98.1258340
 101.5874740 102.0047610  97.0219250 100.9847730 103.4524600  96.5755820
 100.4164630 103.0042850  95.9491730 101.6936730 103.8117380  96.0420970
  96.0616910 107.3536620 110.4522550  95.6771700 106.7130290 111.0505510
  96.3729100 108.0572740 111.0217280 102.2114050 104.2013160 105.9331170
 102.5784180 103.7271730 106.6792510 102.0219110 105.0754730 106.2739510
  95.0754540  98.9456850 102.0624640  94.7901460  98.5812520 102.9003260
  95.0133400  98.2137310 101.4487780 100.0013420 103.2421800 108.2515380
  99.6970490 104.1213780 108.4765740 100.9559880 103.3021590 108.2872820
 109.2883190 106.4448150 104.6408620 110.0082310 106.9403440 104.2504730
 109.0865010 105.7666040 103.9962490 104.7493130  97.8386110  98.7838010
 103.9357740  97.3399280  98.7083320 104.5555080  98.6784360  98.3674360
 104.6701990 106.5157210 110.5277620 104.6039300 105.5952880 110.2735210
 104.0407130 106.6132650 111.2422260 107.4641520 102.2105760  97.0800170
 108.3521140 102.5222990  96.9051510 107.4346610 101.3378010  96.6880750
  96.0577150 104.0824540 109.3986740  95.6992090 104.7478390 109.9860080
  95.7631710 103.2508090 109.7699360  99.2590270 104.5408780 112.2826290
  98.9590410 104.6865960 111.3854110 100.0301510 103.9814070 112.1899680
 104.6018720 109.3377780 110.2781420 104.6163260 108.4058740 110.0600330
 103.8943820 109.4237540 110.9171190 109.7355790 103.5217600  96.5480030
 109.6519510 103.9531820  95.6976470 110.4549980 103.9815950  96.9806850
 110.8129930 105.9785120 109.6250000 110.0878120 106.5713900 109.4279390
 111.3405390 105.9708660 108.8263370 110.7643040 110.3759860  99.2762160
 110.1219200 109.7215480  99.5505880 110.3773700 110.7814950  98.5002830
 106.3429520 107.7045290 103.1233850 106.6953340 107.1073420 102.4635220
 105.4591850 107.3789520 103.2942100 104.0352620 110.9795350 107.3721920
 104.6794840 111.1854730 108.0495340 104.3982060 110.2183750 106.9192770
 105.3084700 108.9827700 106.0899370 105.9506930 108.2820860 106.2031540
 105.8334050 109.7626140 105.9096260 109.1540420 109.2676320  95.8138510
 108.9278000 108.5506760  96.4063150 108.7636620 109.0188760  94.9760260
 107.0822320 109.7822600 109.2935430 107.4178560 110.3689290 109.9713350
 106.1622660 109.6515310 109.5233220  94.9356450 113.2943180  96.5882970
  95.2954090 113.8932520  95.9340240  94.7948790 113.8403070  97.3618000
  94.6325720  97.5717780 110.0758840  93.9184240  97.7714700 110.6811450
  95.0520760  96.7957350 110.4473640 108.7356670 107.1848260  97.4752670
 108.4478370 107.6460950  98.2630550 109.5308840 106.7246030  97.7436890
 102.9110900 109.8313930 112.4623490 102.5907770 109.1123170 113.0069180
 102.2369260 110.5069000 112.5359550  96.5531710 105.8989270  98.1503400
  95.9459660 106.6388170  98.1598700  97.0281060 105.9888630  97.3241600
 109.4926530  99.0197030  98.6347850 108.8639690  99.1242700  97.9206080
 108.9978450  99.2393810  99.4241730 101.4610560 101.2982980 100.0505730
 100.7526710 101.7669320 100.4919340 101.7455040 100.6404990 100.6850920
 103.0866490 102.7179680 108.0498260 103.5851740 103.1925500 108.7150110
 103.2289440 101.7943200 108.2568290 102.5802780 113.2588940 100.7629500
 102.8344280 113.2210330  99.8408870 101.6315260 113.1322270 100.7557750
  99.6645580  99.6068060  97.4256440 100.5136110 100.0438210  97.3596630
  99.2976850  99.9188320  98.2528500 108.5855360 104.1780820 102.3388010
 107.6445500 104.1931050 102.5135700 108.8999430 103.3916780 102.7848310
  97.2583760 103.2925490  96.5824860  97.3387350 102.3453000  96.6942260
  98.1503510 103.6232370  96.6885520 110.5880940 111.3489670 104.0142270
 110.7128360 112.1720840 104.4866080 111.4546500 111.1380400 103.6666420
  98.0598470 113.4420880 103.6859400  98.7960950 112.8936340 103.9567970
  98.4439390 114.3076890 103.5465390 101.1700780 112.6151190  95.5084970
 101.9629390 112.9040020  95.0566760 100.6505130 112.1843360  94.8297450
 105.9021380 108.7346820 112.8220390 105.2959540 108.7578420 112.0816140
 105.5975490 108.0029860 113.3587640 110.2230950 111.8421320  96.9321710
 109.9372460 111.4286460  96.1175890 110.0250500 112.7709030  96.8122230
  94.7854560 105.1140410 111.8181030  95.2893580 104.5347690 112.3897260
  94.0461980 105.3980640 112.3557400 101.8392500 106.5211400 111.3516550
 101.0738170 107.0896400 111.2671220 102.0208460 106.2287610 110.4584780
 108.9815850 108.2516730 111.9091570 109.7225320 108.5892490 111.4059030
 108.2188530 108.4208790 111.3561340  96.8177640 103.2570000 112.7131100
  96.8582980 102.9583870 113.6216330  97.6723140 103.6577610 112.5538620
  98.7583450 101.8362100 110.6805590  98.2279910 101.3453050 110.0528930
  99.4271520 102.2646300 110.1463520 103.1083670 104.8803160  95.1211710
 103.6289330 104.1652180  94.7552860 103.7552070 105.5189030  95.4212220
 107.6561510 106.3031560 110.4446780 108.0702530 106.4576640 111.2937200
 106.7212510 106.4286780 110.6072560 108.1283680 103.6427720 112.4485930
 108.7104450 102.8880040 112.3606410 108.3045450 104.1735160 111.6717410
  99.2455750  98.8024470 110.7602880  99.1512620  98.1845220 110.0353750
  98.6653140  99.5290760 110.5332790 102.4176740 106.2552040 108.4142710
 102.8364850 107.0984770 108.2418950 101.4985370 106.3924080 108.1849490
 104.7540640 103.9868220 109.7980550 104.8736850 103.3909360 110.5375390
 105.6134640 104.0237910 109.3781850 107.0928540 104.5405410 108.3743060
 106.5663760 105.0648030 107.7708200 107.4359880 105.1732800 109.0052790
  99.4914930 101.9298780  94.8192770  99.2903990 101.0666140  95.1806110
  99.3206980 101.8432140  93.8814370 101.5209410 100.5289570 111.0556370
 102.1109100 100.2205420 111.7434190 100.7029650 100.0569320 111.2116270
 106.3402840 100.1455380 111.2889390 105.6518360  99.4836920 111.2239380
 107.0608860  99.6993650 111.7337850 106.9703240  96.7407010  97.3479650
 107.2505530  95.8974910  97.7039070 106.1968970  96.9730120  97.8618400
  98.2897730  99.0299400  94.8070650  98.5923630  99.0366830  93.8989800
  99.0292320  98.6797260  95.3038310 103.1246370 113.7956260 109.7887090
 103.0505070 114.6991400 110.0959460 102.2225210 113.4768160 109.7609160
 101.5082660  97.9734020  95.7926850 101.1604660  97.2958010  95.2129300
 101.7095430  97.5123530  96.6070240 103.6731700 112.9614770  97.4113450
 104.5682490 113.2999740  97.4332210 103.7049330 112.2394180  96.7837730
  94.5273660 111.1230850 103.0920710  94.8576670 110.2551910 102.8599350
  94.9564660 111.3289370 103.9225670 110.6526050 111.4918440 110.1179650
 110.0528040 111.5511000 109.3743570 110.7819950 110.5523420 110.2476500
 111.8927500 109.2336260  95.4549360 111.0620460 109.3012910  95.9256590
 112.0699330 110.1240380  95.1516220 111.3483960 105.9783740  97.9583560
 112.1102870 106.5480390  98.0643250 111.3638330 105.4110940  98.7291870
 112.3543930 106.8333840 102.8025490 112.7252760 106.0501160 102.3961460
 112.9945860 107.5222940 102.6242790 109.3377690 108.2170420 108.2155810
 108.5237530 108.6467580 108.4781600 109.7451890 108.8288830 107.6024860
 111.4003130 106.2718110  95.1156080 111.6751970 107.1796990  94.9875300
 111.2113870 106.2080640  96.0518070 107.7978740  99.2962960  96.4109710
 108.2163620  99.1093940  95.5706370 107.4914800  98.4442010  96.7212640
 111.2968470 104.2087100 100.1085510 110.9212070 103.4415030  99.6766800
 110.5671590 104.5909800 100.5960440  95.8864230 104.8874240 106.7294560
  96.2537270 104.8001640 107.6090580  95.3175050 104.1240790 106.6301420
 110.6868090 103.3558620 109.7425030 110.4554180 103.1271370 108.8422980
 110.9472640 104.2758170 109.6969920  95.4380230 101.7983330 110.6352980
  94.5436280 101.7650090 110.9746690  95.9777780 101.9970120 111.4004230
 110.5719430 102.4344590 103.4092750 111.0956910 101.9407240 102.7782920
 111.1578850 102.5694950 104.1540320 110.7509150 102.5184460 106.9312300
 109.8011860 102.4848000 107.0457290 110.9322160 103.4284570 106.6962070
  96.6053590 100.7686140  96.0410930  97.3145290 100.3469360  95.5558210
  95.8893530 100.8361370  95.4094280 110.0619400 101.6917940  99.3485160
 110.5578520 101.4588810 100.1334040 109.8635470 100.8529780  98.9322800
  95.9419940  96.0731660 104.9836200  96.5896130  95.5229040 104.5431360
  96.3621780  96.3274810 105.8052010 111.4906560 100.3278890 101.8822840
 111.3805840 100.1734930 102.8205110 112.2514150  99.7999830 101.6398250
 112.4535320  98.9297470  97.7485690 111.6586820  98.8642590  98.2778600
 112.6578600  99.8648110  97.7371040 109.3953740 112.9689020 101.7424080
 109.9912810 112.6473590 101.0658500 109.6531890 112.4960840 102.5337350
  95.6951940  96.2287330 107.7261520  95.3466760  96.6851150 108.4919700
  95.3639640  95.3344460 107.8083950 101.0022340 110.9566520 107.4924430
 100.7613700 111.2241080 106.6054950 101.9424980 111.1272250 107.5475290
 112.2626500 112.9760900 108.2935070 111.7684780 113.3729770 107.5762200
 111.6539790 112.3510110 108.6872350  96.3672580  95.7563530 111.0012290
  96.9155570  95.5751580 110.2378400  96.4327890  94.9657640 111.5368600
 109.9465950 113.6184320 105.5721810 109.4868920 114.3700130 105.1979830
 109.3178410 112.8990790 105.5136610  96.7716570 109.7127560 107.9620530
  96.0450630 109.0932850 107.8946480  96.8325720 110.1068170 107.0918610
 100.3761670 111.9272560 104.7469940 100.8926690 111.3159920 104.2218200
 101.0259050 112.4301340 105.2380950 103.1157170 112.8181050 105.5738920
 103.4034980 112.5635350 104.6971930 103.6280390 112.2658410 106.1644490
 110.7493820  96.8909590 102.2093340 110.6882220  95.9470810 102.0624360
 111.5285850  96.9989680 102.7546800  95.6774590  96.8618730  98.6749150
  96.4353950  96.9747610  98.1013180  95.2151760  97.6987930  98.6292580
 102.2188400  98.9758000 101.6651460 101.4062910  98.6014890 101.3247340
 102.7230040  98.2203080 101.9672650 109.8647980  96.0422010  98.1774810
 110.0598610  96.9405460  98.4442240 109.0777850  95.8109090  98.6707760
  98.0499740  97.3882780  97.2151120  98.5792500  96.6012580  97.0859070
  98.6828060  98.0673970  97.4486650 103.1829530 113.7397150 112.9407120
 104.1096840 113.5041420 112.9843080 103.1679960 114.5669150 112.4593150
 111.4174590 113.2822720  99.9381370 111.5926780 112.5960460  99.2942290
 110.7196160 113.8069770  99.5458040 100.3693140  96.4041900 112.7049000
 100.0877410  96.9075500 111.9409820 100.7512840  95.6063650 112.3391130
  99.2602240 113.6717560  97.4916680  99.9921060 113.3876840  96.9440570
  99.5195910 113.4330840  98.3816060 109.7507090 112.9667010 112.7648160
 110.5432410 112.4716240 112.5574120 110.0440240 113.6457150 113.3723770
  96.4342570 100.8888670  80.1891630  95.5459270 101.2304640  80.0871510
  96.7183760 100.6888990  79.2972460 104.4798950 101.0994540  85.7612570
 104.8563770 100.2266420  85.6486240 104.3818460 101.4353240  84.8703010
  98.6103960  99.4720170  81.2230010  98.7170710 100.3723900  81.5298770
  97.6996320  99.4238140  80.9324660 108.2623070  98.5944980  82.6940910
 109.0832690  98.1041550  82.7366390 108.2957150  99.1842640  83.4472750
  99.9850640 106.7200280  87.9992110  99.6520020 107.3469200  88.6413180
 100.1617320 107.2462160  87.2193780 108.4984550 100.5345360  85.4668450
 107.7940120 100.8230250  86.0471560 108.8596710 101.3445470  85.1068010
  99.1969740 108.6881080  89.8141290  99.8143740 109.3632160  89.5325740
  98.3362860 109.0969060  89.7228790  94.4902080 107.8780940  78.6948140
  94.1130060 108.3668040  77.9633040  94.7475150 108.5506220  79.3254670
 110.1147330 110.1520490  87.7295930 109.4310850 110.8219600  87.7212600
 110.6541620 110.3501140  86.9640790 111.5671470  99.9800150  85.8577660
 110.6196380 100.0139130  85.9893090 111.8921460 100.7939100  86.2427020
 102.0991010  96.2797330  84.1533650 102.4065990  95.7244220  83.4369150
 101.1691710  96.4141790  83.9706640 107.6506070 111.9964620  86.4441110
 107.6633230 111.5926910  85.5763370 107.0981290 112.7711910  86.3402540
 107.0491510 106.8994460  87.7723720 107.4660300 106.6854570  86.9377180
 107.7731330 107.1567250  88.3432340 104.4740850 100.6163160  77.8860930
 103.5344520 100.7777120  77.9713390 104.7924110 101.3348840  77.3396920
 110.9953610 105.2981680  87.8639960 110.1672240 105.3674770  87.3890090
 111.5904090 105.8835990  87.3955790 108.5169060 105.9066460  81.3929020
 107.8981480 105.5686010  80.7455320 108.4993510 105.2626220  82.1008210
 100.5610110 108.5578460  85.8352710 100.2638400 107.9523930  85.1560490
 101.5109930 108.5955770  85.7242070 108.6495720 112.1310330  89.4975810
 108.1726280 112.9382520  89.3048420 107.9657510 111.4788660  89.6502020
 106.6933760 105.1453270  78.4001770 107.1327040 104.3075700  78.2539590
 107.4062180 105.7782670  78.4865910 100.2780110 111.1095170  93.2703030
 100.2495540 111.5138120  92.4031460 100.1145080 110.1805530  93.1074630
  96.7933040 103.7655880  81.1720150  96.6730640 104.4917970  80.5601420
  96.4833930 102.9958790  80.6948060 112.2294930 111.8922270  94.5667200
 112.7054650 112.3705160  95.2456280 112.8502090 111.8239760  93.8412700
  95.6766040 108.6371210  83.3894970  95.2694120 108.7785800  82.5348570
  96.5679050 108.3531370  83.1866180 111.6328180 109.0835120  91.7267210
 111.7591240 108.8447000  90.8084390 111.6749560 108.2519660  92.1989290
 107.4699320 113.0718460  79.7246020 107.3100460 112.7821400  80.6227850
 107.3046030 112.2958590  79.1891250  99.9487700 112.8516990  81.5017640
  99.7730180 111.9352530  81.2885440  99.0943440 113.2104280  81.7415440
 107.1725450 110.5806020  78.2844020 106.4790610 110.5783310  77.6246300
 107.9148310 110.1565340  77.8538190 103.5466510  99.9759470  90.1579140
 103.0845880 100.1842490  90.9699080 103.1444620  99.1618820  89.8549810
 105.6420730 102.6970170  93.3874590 105.9674140 101.8633920  93.0476820
 106.4301060 103.2198690  93.5352920 102.3755520  96.7301650  79.4349650
 101.7509700  96.7261520  80.1602960 102.2885640  95.8632610  79.0385620
 101.2972600  97.6538280  86.4133420 101.5944930  98.5601110  86.3325440
 101.8458160  97.1657060  85.7992990 106.2808680 102.2387890  80.8815720
 105.6817570 102.9623690  80.6979340 106.8288290 102.1764670  80.0992170
 101.4910130 103.1310100  92.9485340 101.3953730 102.1904830  92.7985740
 102.3342110 103.3525170  92.5533410 104.8873550 100.8751430  82.9119000
 105.2803120 101.1923630  82.0987690 105.2490400  99.9963310  83.0263520
 103.1965720  99.6258740  94.1715860 102.5064040  99.4330940  94.8061950
 103.9398020  99.9093380  94.7040160  94.1107950 101.4072350  76.3451920
  94.0282620 102.3503110  76.4866910  93.7591010 101.2647260  75.4664270
 105.4728690 103.4657180  87.0069780 104.7409810 103.9743990  87.3559880
 105.0753030 102.6487160  86.7058560 101.9106080 100.1411380  85.4122270
 101.9142140  99.7001330  84.5626810 102.8057200 100.4628710  85.5194090
 101.9726230 101.1423460  78.4029030 102.0939050 101.1009940  79.3514850
 101.5874740 102.0047610  78.2475760 105.9354600  98.9190860  86.4192720
 105.9527340  99.3699510  87.2634570 105.6870180  98.0196500  86.6326160
  98.5295210 107.4482790  80.0738740  97.7557470 106.9080410  79.9137460
  99.2589840 106.9289400  79.7356500 109.2883190 106.4448150  85.8665130
 110.0082310 106.9403440  85.4761240 109.0865010 105.7666040  85.2219000
 104.7493130  97.8386110  80.0094520 103.9357740  97.3399280  79.9339830
 104.5555080  98.6784360  79.5930870 107.4641520 102.2105760  78.3056680
 108.3521140 102.5222990  78.1308020 107.4346610 101.3378010  77.9137260
  98.5732610 107.1163170  83.7117550  99.0911280 106.3131430  83.6574440
  98.1216630 107.0542310  84.5534380  99.2590270 104.5408780  93.5082800
  98.9590410 104.6865960  92.6110620 100.0301510 103.9814070  93.4156190
 109.7355790 103.5217600  77.7736540 109.6519510 103.9531820  76.9232980
 110.4549980 103.9815950  78.2063360 110.8129930 105.9785120  90.8506510
 110.0878120 106.5713900  90.6535900 111.3405390 105.9708660  90.0519880
 110.7643040 110.3759860  80.5018670 110.1219200 109.7215480  80.7762390
 110.3773700 110.7814950  79.7259340  94.5685200 104.0815800  77.2477850
  95.4380050 104.3640600  77.5313770  94.0775520 104.8951670  77.1326660
 104.0352620 110.9795350  88.5978430 104.6794840 111.1854730  89.2751850
 104.3982060 110.2183750  88.1449280 105.3084700 108.9827700  87.3155880
 105.9506930 108.2820860  87.4288050 105.8334050 109.7626140  87.1352770
 109.1540420 109.2676320  77.0395020 108.9278000 108.5506760  77.6319660
 108.7636620 109.0188760  76.2016770  94.9356450 113.2943180  77.8139480
  95.2954090 113.8932520  77.1596750  94.7948790 113.8403070  78.5874510
 108.7356670 107.1848260  78.7009180 108.4478370 107.6460950  79.4887060
 109.5308840 106.7246030  78.9693400  96.5531710 105.8989270  79.3759910
  95.9459660 106.6388170  79.3855210  97.0281060 105.9888630  78.5498110
 106.1264500 100.0640090  89.0516800 106.4945320  99.2435300  89.3796370
 105.2662700 100.1241980  89.4672450 109.4926530  99.0197030  79.8604360
 108.8639690  99.1242700  79.1462590 108.9978450  99.2393810  80.6498240
 101.4610560 101.2982980  81.2762240 100.7526710 101.7669320  81.7175850
 101.7455040 100.6404990  81.9107430 103.0866490 102.7179680  89.2754770
 103.5851740 103.1925500  89.9406620 103.2289440 101.7943200  89.4824800
 105.4925990  98.0233640  82.7158030 105.3693770  98.0419770  81.7667540
 106.4410550  98.0712580  82.8356430 102.5802780 113.2588940  81.9886010
 102.8344280 113.2210330  81.0665380 101.6315260 113.1322270  81.9814260
  99.6645580  99.6068060  78.6512950 100.5136110 100.0438210  78.5853140
  99.2976850  99.9188320  79.4785010 108.5855360 104.1780820  83.5644520
 107.6445500 104.1931050  83.7392210 108.8999430 103.3916780  84.0104820
  97.2583760 103.2925490  77.8081370  97.3387350 102.3453000  77.9198770
  98.1503510 103.6232370  77.9142030 110.5880940 111.3489670  85.2398780
 110.7128360 112.1720840  85.7122590 111.4546500 111.1380400  84.8922930
  98.0598470 113.4420880  84.9115910  98.7960950 112.8936340  85.1824480
  98.4439390 114.3076890  84.7721900  94.9443950 109.5094450  80.7857420
  94.0183730 109.7515590  80.7762830  95.4100380 110.3368710  80.6642170
  97.0656750 112.6266950  94.1001490  97.8669480 112.9479000  94.5136890
  96.5508570 112.2662530  94.8221400 101.1700780 112.6151190  76.7341480
 101.9629390 112.9040020  76.2823270 100.6505130 112.1843360  76.0553960
 110.2230950 111.8421320  78.1578220 109.9372460 111.4286460  77.3432400
 110.0250500 112.7709030  78.0378740  96.8177640 103.2570000  93.9387610
  96.8582980 102.9583870  94.8472840  97.6723140 103.6577610  93.7795130
  98.7583450 101.8362100  91.9062100  98.2279910 101.3453050  91.2785440
  99.4271520 102.2646300  91.3720030 102.0117190  97.3597710  89.0186780
 101.5634490  97.3821970  88.1732330 101.3782390  96.9616730  89.6157080
 102.4176740 106.2552040  89.6399220 102.8364850 107.0984770  89.4675460
 101.4985370 106.3924080  89.4106000 104.7540640 103.9868220  91.0237060
 104.8736850 103.3909360  91.7631900 105.6134640 104.0237910  90.6038360
 107.0928540 104.5405410  89.5999570 106.5663760 105.0648030  88.9964710
 107.4359880 105.1732800  90.2309300  99.4914930 101.9298780  76.0449280
  99.2903990 101.0666140  76.4062620  99.3206980 101.8432140  75.1070880
 100.2684160 112.5605050  90.7556950  99.7305250 113.2851110  90.4365650
 100.5218120 112.0835390  89.9654290 101.5209410 100.5289570  92.2812880
 102.1109100 100.2205420  92.9690700 100.7029650 100.0569320  92.4372780
 106.9703240  96.7407010  78.5736160 107.2505530  95.8974910  78.9295580
 106.1968970  96.9730120  79.0874910  98.2897730  99.0299400  76.0327160
  98.5923630  99.0366830  75.1246310  99.0292320  98.6797260  76.5294820
 103.1246370 113.7956260  91.0143600 103.0505070 114.6991400  91.3215970
 102.2225210 113.4768160  90.9865670 101.5082660  97.9734020  77.0183360
 101.1604660  97.2958010  76.4385810 101.7095430  97.5123530  77.8326750
 103.6731700 112.9614770  78.6369960 104.5682490 113.2999740  78.6588720
 103.7049330 112.2394180  78.0094240  94.5273660 111.1230850  84.3177220
  94.8576670 110.2551910  84.0855860  94.9564660 111.3289370  85.1482180
  99.1235580 109.4539860  81.9779190  98.8231120 109.3304830  82.8783100
  99.0173070 108.5948450  81.5694920  95.0163870 111.9901440  87.0558850
  94.5794860 112.1702240  87.8883000  95.5841550 112.7476060  86.9140570
 110.6526050 111.4918440  91.3436160 110.0528040 111.5511000  90.6000080
 110.7819950 110.5523420  91.4733010 111.8927500 109.2336260  76.6805870
 111.0620460 109.3012910  77.1513100 112.0699330 110.1240380  76.3772730
 111.3483960 105.9783740  79.1840070 112.1102870 106.5480390  79.2899760
 111.3638330 105.4110940  79.9548380 112.3543930 106.8333840  84.0282000
 112.7252760 106.0501160  83.6217970 112.9945860 107.5222940  83.8499300
 109.3377690 108.2170420  89.4412320 108.5237530 108.6467580  89.7038110
 109.7451890 108.8288830  88.8281370 111.4003130 106.2718110  76.3412590
 111.6751970 107.1796990  76.2131810 111.2113870 106.2080640  77.2774580
 107.7978740  99.2962960  77.6366220 108.2163620  99.1093940  76.7962880
 107.4914800  98.4442010  77.9469150 111.2968470 104.2087100  81.3342020
 110.9212070 103.4415030  80.9023310 110.5671590 104.5909800  81.8216950
 110.5719430 102.4344590  84.6349260 111.0956910 101.9407240  84.0039430
 111.1578850 102.5694950  85.3796830  96.6053590 100.7686140  77.2667440
  97.3145290 100.3469360  76.7814720  95.8893530 100.8361370  76.6350790
  96.2527750  96.8225470  76.3070090  96.9755880  97.3634410  76.6251310
  96.5252270  96.5488890  75.4311630 110.0619400 101.6917940  80.5741670
 110.5578520 101.4588810  81.3590550 109.8635470 100.8529780  80.1579310
 111.4906560 100.3278890  83.1079350 111.3805840 100.1734930  84.0461620
 112.2514150  99.7999830  82.8654760 109.3953740 112.9689020  82.9680590
 109.9912810 112.6473590  82.2915010 109.6531890 112.4960840  83.7593860
 101.0022340 110.9566520  88.7180940 100.7613700 111.2241080  87.8311460
 101.9424980 111.1272250  88.7731800 103.2076760  97.4199210  92.4737450
 103.1465650  98.0121040  93.2232860 104.1477140  97.3125170  92.3287710
 105.8451320  97.0769270  92.1129740 106.4591730  97.3948560  91.4510820
 106.3900880  96.5917860  92.7325600 112.2626500 112.9760900  89.5191580
 111.7684780 113.3729770  88.8018710 111.6539790 112.3510110  89.9128860
  97.1404340 112.3469180  90.2369000  96.5464660 112.2153880  90.9759040
  97.1328180 111.5107320  89.7711100 106.5859360  95.6401410  88.4399030
 105.7119200  95.9736520  88.2371960 106.4770110  95.1674590  89.2650900
 109.9465950 113.6184320  86.7978320 109.4868920 114.3700130  86.4236340
 109.3178410 112.8990790  86.7393120 100.3761670 111.9272560  85.9726450
 100.8926690 111.3159920  85.4474710 101.0259050 112.4301340  86.4637460
 103.1157170 112.8181050  86.7995430 103.4034980 112.5635350  85.9228440
 103.6280390 112.2658410  87.3901000 104.3334180  96.5571250  87.3791940
 103.5505970  97.0316750  87.6588700 104.0397110  95.6526080  87.2705120
 108.8855250  97.2594350  85.4241030 109.3263340  97.2039450  84.5762630
 108.6162840  98.1752360  85.4951210 110.7493820  96.8909590  83.4349850
 110.6882220  95.9470810  83.2880870 111.5285850  96.9989680  83.9803310
  95.0546570 113.0301950  82.3973800  94.8868610 112.3972630  83.0955690
  94.1881080 113.2361350  82.0467990 102.2188400  98.9758000  82.8907970
 101.4062910  98.6014890  82.5503850 102.7230040  98.2203080  83.1929160
 106.7213380  95.6400450  84.1291040 107.3242750  96.2120660  84.6039560
 105.9806370  96.2039890  83.9064940 109.8647980  96.0422010  79.4031320
 110.0598610  96.9405460  79.6698750 109.0777850  95.8109090  79.8964270
  96.6609270 111.7235180  79.8423940  96.1356890 112.1043210  79.1385900
  96.5853850 112.3485950  80.5633650  98.0499740  97.3882780  78.4407630
  98.5792500  96.6012580  78.3115580  98.6828060  98.0673970  78.6743160
 100.2437580  97.1257920  81.4953020  99.6140320  96.4245230  81.6623150
  99.7042720  97.8862050  81.2786180 103.1829530 113.7397150  94.1663630
 104.1096840 113.5041420  94.2099590 103.1679960 114.5669150  93.6849660
 111.4174590 113.2822720  81.1637880 111.5926780 112.5960460  80.5198800
 110.7196160 113.8069770  80.7714550 100.3693140  96.4041900  93.9305510
 100.0877410  96.9075500  93.1666330 100.7512840  95.6063650  93.5647640
  99.2602240 113.6717560  78.7173190  99.9921060 113.3876840  78.1697080
  99.5195910 113.4330840  79.6072570  98.4217030 109.7882290  78.7219520
  97.7925910 110.2567390  79.2705350  98.5364860 108.9431510  79.1565710
 106.9708600  95.8195480  94.5085980 106.8574050  96.1390090  95.4037500
 107.7878340  96.2207990  94.2123260 109.7507090 112.9667010  93.9904670
 110.5432410 112.4716240  93.7830630 110.0440240 113.6457150  94.5980280
 105.8766750 103.8387950  64.8720720 105.7960800 102.9242560  64.6012430
 105.4631170 104.3355020  64.1660430 104.0084790 105.6166970  66.7529990
 103.2326890 105.1367410  67.0428560 104.6597720 104.9372620  66.5786150
  98.0250620 105.9286780  67.6305750  97.1935500 105.6735490  68.0302260
  98.6331600 105.9997550  68.3663670  98.0051880 109.9626870  67.8263770
  98.3079920 109.0724610  67.6473990  98.7495470 110.5197090  67.5986020
  96.4342570 100.8888670  61.4148140  95.5459270 101.2304640  61.3128020
  96.7183760 100.6888990  60.5228970  94.3975580 103.4894320  67.2987840
  94.9691690 102.7216520  67.2991480  94.3977120 103.7883080  66.3894450
 104.2555530 112.3085170  65.1533110 103.6366970 112.7642670  64.5827550
 105.1107310 112.4636630  64.7522810 103.4493780 108.2924160  66.7600150
 103.3802060 107.3514100  66.5989280 104.2113640 108.3825570  67.3322720
  95.6400450  98.8978680  69.0856770  95.4603290  98.0004430  69.3659530
  95.2380530  99.4450550  69.7603720 104.4798950 101.0994540  66.9869080
 104.8563770 100.2266420  66.8742750 104.3818460 101.4353240  66.0959520
  98.6103960  99.4720170  62.4486520  98.7170710 100.3723900  62.7555280
  97.6996320  99.4238140  62.1581170 108.2623070  98.5944980  63.9197420
 109.0832690  98.1041550  63.9622900 108.2957150  99.1842640  64.6729260
  96.2587120 101.3939180  67.6939110  96.9397230 101.6577550  68.3126510
  95.9435170 100.5540050  68.0277120 100.4511690 102.4406540  66.7811700
 100.9589910 102.9387510  67.4216720 100.9824930 101.6641740  66.6051060
 112.5522620 100.6111730  70.4841050 111.8474790 100.9993440  69.9656160
 112.8180540 101.3062020  71.0861980  99.9850640 106.7200280  69.2248620
  99.6520020 107.3469200  69.8669690 100.1617320 107.2462160  68.4450290
 108.4984550 100.5345360  66.6924960 107.7940120 100.8230250  67.2728070
 108.8596710 101.3445470  66.3324520  99.1969740 108.6881080  71.0397800
  99.8143740 109.3632160  70.7582250  98.3362860 109.0969060  70.9485300
 110.1147330 110.1520490  68.9552440 109.4310850 110.8219600  68.9469110
 110.6541620 110.3501140  68.1897300 111.5671470  99.9800150  67.0834170
 110.6196380 100.0139130  67.2149600 111.8921460 100.7939100  67.4683530
 107.0491510 106.8994460  68.9980230 107.4660300 106.6854570  68.1633690
 107.7731330 107.1567250  69.5688850 104.4871770 104.3446160  62.1150280
 103.5601050 104.2783540  62.3438750 104.6396590 105.2826290  62.0005520
 110.9953610 105.2981680  69.0896470 110.1672240 105.3674770  68.6146600
 111.5904090 105.8835990  68.6212300 107.9595620 102.0851000  70.0351340
 107.5466800 102.9104710  70.2891330 107.2271570 101.4996040  69.8427700
 100.0928410 104.8710900  64.8970010  99.6885410 104.1588150  64.4015910
 100.1791530 104.5264140  65.7858050 100.5610110 108.5578460  67.0609220
 100.2638400 107.9523930  66.3817000 101.5109930 108.5955770  66.9498580
 108.6495720 112.1310330  70.7232320 108.1726280 112.9382520  70.5304930
 107.9657510 111.4788660  70.8758530 106.6933760 105.1453270  59.6258280
 107.1327040 104.3075700  59.4796100 107.4062180 105.7782670  59.7122420
 100.2780110 111.1095170  74.4959540 100.2495540 111.5138120  73.6287970
 100.1145080 110.1805530  74.3331140 112.2294930 111.8922270  75.7923710
 112.7054650 112.3705160  76.4712790 112.8502090 111.8239760  75.0669210
  94.4318410 106.9371020  68.2045300  94.5098830 107.0719790  67.2601020
  95.0460090 106.2286910  68.3973420  95.6766040 108.6371210  64.6151480
  95.2694120 108.7785800  63.7605080  96.5679050 108.3531370  64.4122690
 111.6328180 109.0835120  72.9523720 111.7591240 108.8447000  72.0340900
 111.6749560 108.2519660  73.4245800 105.4944920 112.7863120  71.5218530
 106.0089590 112.6971130  72.3240960 104.6514000 113.1322820  71.8146440
 107.4699320 113.0718460  60.9502530 107.3100460 112.7821400  61.8484360
 107.3046030 112.2958590  60.4147760  99.9487700 112.8516990  62.7274150
  99.7730180 111.9352530  62.5141950  99.0943440 113.2104280  62.9671950
 111.4852190 101.1367580  73.9173460 110.8696460 101.6447250  73.3888920
 111.1648610 100.2365910  73.8599400  99.2596700  97.1090950  65.7800330
  98.8164850  97.8900490  65.4484850  99.8181690  97.4320840  66.4871270
 108.5471020 101.1968420  72.5132310 107.6964610 100.8974170  72.8341380
 108.3872810 101.4410430  71.6016130 105.6420730 102.6970170  74.6131100
 105.9674140 101.8633920  74.2733330 106.4301060 103.2198690  74.7609430
 102.3755520  96.7301650  60.6606160 101.7509700  96.7261520  61.3859470
 102.2885640  95.8632610  60.2642130  99.0510920 102.2324520  63.5081580
  98.8251840 102.0161690  64.4128200  98.2703450 102.6652980  63.1627550
 106.2808680 102.2387890  62.1072230 105.6817570 102.9623690  61.9235850
 106.8288290 102.1764670  61.3248680 104.8873550 100.8751430  64.1375510
 105.2803120 101.1923630  63.3244200 105.2490400  99.9963310  64.2520030
 103.1965720  99.6258740  75.3972370 102.5064040  99.4330940  76.0318460
 103.9398020  99.9093380  75.9296670  93.9237720  97.4652230  66.3605710
  93.6350770  98.0355090  67.0730690  94.6683480  96.9856680  66.7236940
 105.4728690 103.4657180  68.2326290 104.7409810 103.9743990  68.5816390
 105.0753030 102.6487160  67.9315070 101.9106080 100.1411380  66.6378780
 101.9142140  99.7001330  65.7883320 102.8057200 100.4628710  66.7450600
  97.7608460 100.0237870  65.5972990  97.4208510 100.5013100  66.3540040
  96.9985780  99.5702990  65.2374090 101.9726230 101.1423460  59.6285540
 102.0939050 101.1009940  60.5771360 101.5874740 102.0047610  59.4732270
 102.2114050 104.2013160  68.3844190 102.5784180 103.7271730  69.1305530
 102.0219110 105.0754730  68.7252530  95.0754540  98.9456850  64.5137660
  94.7901460  98.5812520  65.3516280  95.0133400  98.2137310  63.9000800
  98.5295210 107.4482790  61.2995250  97.7557470 106.9080410  61.1393970
  99.2589840 106.9289400  60.9613010 104.7493130  97.8386110  61.2351030
 103.9357740  97.3399280  61.1596340 104.5555080  98.6784360  60.8187380
 104.6701990 106.5157210  72.9790640 104.6039300 105.5952880  72.7248230
 104.0407130 106.6132650  73.6935280 107.4641520 102.2105760  59.5313190
 108.3521140 102.5222990  59.3564530 107.4346610 101.3378010  59.1393770
  98.5732610 107.1163170  64.9374060  99.0911280 106.3131430  64.8830950
  98.1216630 107.0542310  65.7790890  96.0577150 104.0824540  71.8499760
  95.6992090 104.7478390  72.4373100  95.7631710 103.2508090  72.2212380
 104.6018720 109.3377780  72.7294440 104.6163260 108.4058740  72.5113350
 103.8943820 109.4237540  73.3684210 109.7355790 103.5217600  58.9993050
 109.6519510 103.9531820  58.1489490 110.4549980 103.9815950  59.4319870
 110.8129930 105.9785120  72.0763020 110.0878120 106.5713900  71.8792410
 111.3405390 105.9708660  71.2776390 102.4292800 108.4642980  62.9817280
 103.1163930 109.0112190  63.3624870 101.6425220 109.0083710  63.0166890
 101.7320010 105.4689010  62.5942640 102.1882790 106.2794260  62.8202830
 101.3808220 105.1512150  63.4261130 104.0352620 110.9795350  69.8234940
 104.6794840 111.1854730  70.5008360 104.3982060 110.2183750  69.3705790
  97.6331790  95.8126660  63.0665160  97.5046420  95.8044560  64.0150080
  96.8093810  96.1509750  62.7156170 105.3084700 108.9827700  68.5412390
 105.9506930 108.2820860  68.6544560 105.8334050 109.7626140  68.3609280
 109.1540420 109.2676320  58.2651530 108.9278000 108.5506760  58.8576170
 108.7636620 109.0188760  57.4273280 107.0822320 109.7822600  71.7448450
 107.4178560 110.3689290  72.4226370 106.1622660 109.6515310  71.9746240
  94.6325720  97.5717780  72.5271860  93.9184240  97.7714700  73.1324470
  95.0520760  96.7957350  72.8986660 108.7356670 107.1848260  59.9265690
 108.4478370 107.6460950  60.7143570 109.5308840 106.7246030  60.1949910
 109.4926530  99.0197030  61.0860870 108.8639690  99.1242700  60.3719100
 108.9978450  99.2393810  61.8754750 101.4610560 101.2982980  62.5018750
 100.7526710 101.7669320  62.9432360 101.7455040 100.6404990  63.1363940
 102.5802780 113.2588940  63.2142520 102.8344280 113.2210330  62.2921890
 101.6315260 113.1322270  63.2070770  99.6645580  99.6068060  59.8769460
 100.5136110 100.0438210  59.8109650  99.2976850  99.9188320  60.7041520
 110.2933350  98.9347640  71.3439670 109.7906950  99.6753040  71.6833480
 111.1090010  99.3231640  71.0276460 108.5855360 104.1780820  64.7901030
 107.6445500 104.1931050  64.9648720 108.8999430 103.3916780  65.2361330
  98.0598470 113.4420880  66.1372420  98.7960950 112.8936340  66.4080990
  98.4439390 114.3076890  65.9978410  97.0656750 112.6266950  75.3258000
  97.8669480 112.9479000  75.7393400  96.5508570 112.2662530  76.0477910
 107.3321750 112.4627110  73.8842820 108.2843500 112.3785130  73.8343060
 107.1849970 113.1268820  74.5576610 110.2230950 111.8421320  59.3834730
 109.9372460 111.4286460  58.5688910 110.0250500 112.7709030  59.2635250
  94.7854560 105.1140410  74.2694050  95.2893580 104.5347690  74.8410280
  94.0461980 105.3980640  74.8070420 108.9815850 108.2516730  74.3604590
 109.7225320 108.5892490  73.8572050 108.2188530 108.4208790  73.8074360
  96.8177640 103.2570000  75.1644120  96.8582980 102.9583870  76.0729350
  97.6723140 103.6577610  75.0051640 100.5956030 105.8565550  60.3247630
 101.0172450 105.6905420  61.1679020 100.7206870 105.0465780  59.8302770
 103.1083670 104.8803160  57.5724730 103.6289330 104.1652180  57.2065880
 103.7552070 105.5189030  57.8725240 107.6561510 106.3031560  72.8959800
 108.0702530 106.4576640  73.7450220 106.7212510 106.4286780  73.0585580
 108.1283680 103.6427720  74.8998950 108.7104450 102.8880040  74.8119430
 108.3045450 104.1735160  74.1230430 102.4176740 106.2552040  70.8655730
 102.8364850 107.0984770  70.6931970 101.4985370 106.3924080  70.6362510
 104.7540640 103.9868220  72.2493570 104.8736850 103.3909360  72.9888410
 105.6134640 104.0237910  71.8294870 107.0928540 104.5405410  70.8256080
 106.5663760 105.0648030  70.2221220 107.4359880 105.1732800  71.4565810
 100.2684160 112.5605050  71.9813460  99.7305250 113.2851110  71.6622160
 100.5218120 112.0835390  71.1910800 106.3402840 100.1455380  73.7402410
 105.6518360  99.4836920  73.6752400 107.0608860  99.6993650  74.1850870
 103.1246370 113.7956260  72.2400110 103.0505070 114.6991400  72.5472480
 102.2225210 113.4768160  72.2122180  94.5273660 111.1230850  65.5433730
  94.8576670 110.2551910  65.3112370  94.9564660 111.3289370  66.3738690
  99.1235580 109.4539860  63.2035700  98.8231120 109.3304830  64.1039610
  99.0173070 108.5948450  62.7951430  95.0163870 111.9901440  68.2815360
  94.5794860 112.1702240  69.1139510  95.5841550 112.7476060  68.1397080
 110.6526050 111.4918440  72.5692670 110.0528040 111.5511000  71.8256590
 110.7819950 110.5523420  72.6989520 111.8927500 109.2336260  57.9062380
 111.0620460 109.3012910  58.3769610 112.0699330 110.1240380  57.6029240
 111.3483960 105.9783740  60.4096580 112.1102870 106.5480390  60.5156270
 111.3638330 105.4110940  61.1804890  94.8488300 104.5021670  64.6404240
  94.1937140 104.2333310  63.9963940  95.6866250 104.3926150  64.1906220
 109.3377690 108.2170420  70.6668830 108.5237530 108.6467580  70.9294620
 109.7451890 108.8288830  70.0537880 111.4003130 106.2718110  57.5669100
 111.6751970 107.1796990  57.4388320 111.2113870 106.2080640  58.5031090
 111.2968470 104.2087100  62.5598530 110.9212070 103.4415030  62.1279820
 110.5671590 104.5909800  63.0473460  95.8864230 104.8874240  69.1807580
  96.2537270 104.8001640  70.0603600  95.3175050 104.1240790  69.0814440
 110.6868090 103.3558620  72.1938050 110.4554180 103.1271370  71.2936000
 110.9472640 104.2758170  72.1482940  95.4380230 101.7983330  73.0866000
  94.5436280 101.7650090  73.4259710  95.9777780 101.9970120  73.8517250
 109.1256160  98.5815050  74.9717750 110.0026340  98.5898450  75.3551750
 109.1377000  97.8445890  74.3610100 110.5719430 102.4344590  65.8605770
 111.0956910 101.9407240  65.2295940 111.1578850 102.5694950  66.6053340
 110.7509150 102.5184460  69.3825320 109.8011860 102.4848000  69.4970310
 110.9322160 103.4284570  69.1475090 110.0619400 101.6917940  61.7998180
 110.5578520 101.4588810  62.5847060 109.8635470 100.8529780  61.3835820
  95.9419940  96.0731660  67.4349220  96.5896130  95.5229040  66.9944380
  96.3621780  96.3274810  68.2565030 111.4906560 100.3278890  64.3335860
 111.3805840 100.1734930  65.2718130 112.2514150  99.7999830  64.0911270
 109.8372280  96.2673020  70.7918860 110.4744500  96.8807160  71.1578050
 109.9847170  96.3033680  69.8468090 112.3796830  98.1586810  57.5742000
 113.3046140  98.0267990  57.3660290 112.3572620  98.2379630  58.5278450
 112.4535320  98.9297470  60.1998710 111.6586820  98.8642590  60.7291620
 112.6578600  99.8648110  60.1884060  95.6951940  96.2287330  70.1774540
  95.3466760  96.6851150  70.9432720  95.3639640  95.3344460  70.2596970
 101.0022340 110.9566520  69.9437450 100.7613700 111.2241080  69.0567970
 101.9424980 111.1272250  69.9988310 112.2626500 112.9760900  70.7448090
 111.7684780 113.3729770  70.0275220 111.6539790 112.3510110  71.1385370
  96.3672580  95.7563530  73.4525310  96.9155570  95.5751580  72.6891420
  96.4327890  94.9657640  73.9881620  97.1404340 112.3469180  71.4625510
  96.5464660 112.2153880  72.2015550  97.1328180 111.5107320  70.9967610
 109.9465950 113.6184320  68.0234830 109.4868920 114.3700130  67.6492850
 109.3178410 112.8990790  67.9649630  96.7716570 109.7127560  70.4133550
  96.0450630 109.0932850  70.3459500  96.8325720 110.1068170  69.5431630
 100.3761670 111.9272560  67.1982960 100.8926690 111.3159920  66.6731220
 101.0259050 112.4301340  67.6893970 103.1157170 112.8181050  68.0251940
 103.4034980 112.5635350  67.1484950 103.6280390 112.2658410  68.6157510
 108.8855250  97.2594350  66.6497540 109.3263340  97.2039450  65.8019140
 108.6162840  98.1752360  66.7207720 110.7493820  96.8909590  64.6606360
 110.6882220  95.9470810  64.5137380 111.5285850  96.9989680  65.2059820
  95.0546570 113.0301950  63.6230310  94.8868610 112.3972630  64.3212200
  94.1881080 113.2361350  63.2724500  95.6774590  96.8618730  61.1262170
  96.4353950  96.9747610  60.5526200  95.2151760  97.6987930  61.0805600
 102.2188400  98.9758000  64.1164480 101.4062910  98.6014890  63.7760360
 102.7230040  98.2203080  64.4185670 109.8647980  96.0422010  60.6287830
 110.0598610  96.9405460  60.8955260 109.0777850  95.8109090  61.1220780
  98.0499740  97.3882780  59.6664140  98.5792500  96.6012580  59.5372090
  98.6828060  98.0673970  59.8999670 100.2437580  97.1257920  62.7209530
  99.6140320  96.4245230  62.8879660  99.7042720  97.8862050  62.5042690
 103.1829530 113.7397150  75.3920140 104.1096840 113.5041420  75.4356100
 103.1679960 114.5669150  74.9106170 111.4174590 113.2822720  62.3894390
 111.5926780 112.5960460  61.7455310 110.7196160 113.8069770  61.9971060
 100.3693140  96.4041900  75.1562020 100.0877410  96.9075500  74.3922840
 100.7512840  95.6063650  74.7904150 106.9708600  95.8195480  75.7342490
 106.8574050  96.1390090  76.6294010 107.7878340  96.2207990  75.4379770
 109.7507090 112.9667010  75.2161180 110.5432410 112.4716240  75.0087140
 110.0440240 113.6457150  75.8236790 105.8766750 103.8387950  46.0977230
 105.7960800 102.9242560  45.8268940 105.4631170 104.3355020  45.3916940
 104.0084790 105.6166970  47.9786500 103.2326890 105.1367410  48.2685070
 104.6597720 104.9372620  47.8042660  98.0250620 105.9286780  48.8562260
  97.1935500 105.6735490  49.2558770  98.6331600 105.9997550  49.5920180
 108.0292220 110.0227160  46.7585630 107.5673750 109.2514400  47.0872800
 108.8417770 110.0493230  47.2638080  98.0051880 109.9626870  49.0520280
  98.3079920 109.0724610  48.8730500  98.7495470 110.5197090  48.8242530
  96.4342570 100.8888670  42.6404650  95.5459270 101.2304640  42.5384530
  96.7183760 100.6888990  41.7485480  94.3975580 103.4894320  48.5244350
  94.9691690 102.7216520  48.5247990  94.3977120 103.7883080  47.6150960
 104.2555530 112.3085170  46.3789620 103.6366970 112.7642670  45.8084060
 105.1107310 112.4636630  45.9779320 103.4493780 108.2924160  47.9856660
 103.3802060 107.3514100  47.8245790 104.2113640 108.3825570  48.5579230
 104.4798950 101.0994540  48.2125590 104.8563770 100.2266420  48.0999260
 104.3818460 101.4353240  47.3216030  98.6103960  99.4720170  43.6743030
  98.7170710 100.3723900  43.9811790  97.6996320  99.4238140  43.3837680
 108.2623070  98.5944980  45.1453930 109.0832690  98.1041550  45.1879410
 108.2957150  99.1842640  45.8985770  96.2587120 101.3939180  48.9195620
  96.9397230 101.6577550  49.5383020  95.9435170 100.5540050  49.2533630
 100.4511690 102.4406540  48.0068210 100.9589910 102.9387510  48.6473230
 100.9824930 101.6641740  47.8307570 112.5522620 100.6111730  51.7097560
 111.8474790 100.9993440  51.1912670 112.8180540 101.3062020  52.3118490
 105.1218880 107.1924410  43.7721530 104.5036150 107.6573860  43.2084250
 105.6342130 107.8851890  44.1891040  99.9850640 106.7200280  50.4505130
  99.6520020 107.3469200  51.0926200 100.1617320 107.2462160  49.6706800
 108.4984550 100.5345360  47.9181470 107.7940120 100.8230250  48.4984580
 108.8596710 101.3445470  47.5581030  98.4163120  98.7915060  50.2802080
  98.7579930  99.6357110  49.9855950  97.4778930  98.9398800  50.3967420
  99.1969740 108.6881080  52.2654310  99.8143740 109.3632160  51.9838760
  98.3362860 109.0969060  52.1741810  94.4902080 107.8780940  41.1461160
  94.1130060 108.3668040  40.4146060  94.7475150 108.5506220  41.7767690
 111.5671470  99.9800150  48.3090680 110.6196380 100.0139130  48.4406110
 111.8921460 100.7939100  48.6940040 102.0991010  96.2797330  46.6046670
 102.4065990  95.7244220  45.8882170 101.1691710  96.4141790  46.4219660
 107.6506070 111.9964620  48.8954130 107.6633230 111.5926910  48.0276390
 107.0981290 112.7711910  48.7915560 108.9451490 108.7180840  43.9844300
 108.8347820 107.7755170  44.1093720 108.9419740 109.0796480  44.8707060
 104.4871770 104.3446160  43.3406790 103.5601050 104.2783540  43.5695260
 104.6396590 105.2826290  43.2262030 104.4740850 100.6163160  40.3373950
 103.5344520 100.7777120  40.4226410 104.7924110 101.3348840  39.7909940
 108.5169060 105.9066460  43.8442040 107.8981480 105.5686010  43.1968340
 108.4993510 105.2626220  44.5521230 107.9595620 102.0851000  51.2607850
 107.5466800 102.9104710  51.5147840 107.2271570 101.4996040  51.0684210
 100.0928410 104.8710900  46.1226520  99.6885410 104.1588150  45.6272420
 100.1791530 104.5264140  47.0114560 100.5610110 108.5578460  48.2865730
 100.2638400 107.9523930  47.6073510 101.5109930 108.5955770  48.1755090
  98.8057030 101.6454110  49.9025560  99.3571620 101.7549450  49.1278810
  99.3200540 102.0191710  50.6180790 108.6495720 112.1310330  51.9488830
 108.1726280 112.9382520  51.7561440 107.9657510 111.4788660  52.1015040
  99.6528540 108.2960150  54.9373530  98.7557070 108.5200120  55.1846930
  99.6781410 108.4195090  53.9884930 106.6933760 105.1453270  40.8514790
 107.1327040 104.3075700  40.7052610 107.4062180 105.7782670  40.9378930
  98.4799760 105.1673470  53.5130900  98.3407530 106.0396270  53.8818300
  97.5981120 104.8246280  53.3678840 104.8029140 110.0849340  44.8196030
 105.2425050 110.8273670  44.4051420 104.7416030 110.3275910  45.7434990
 100.2780110 111.1095170  55.7216050 100.2495540 111.5138120  54.8544480
 100.1145080 110.1805530  55.5587650 112.2294930 111.8922270  57.0180220
 112.7054650 112.3705160  57.6969300 112.8502090 111.8239760  56.2925720
  94.4318410 106.9371020  49.4301810  94.5098830 107.0719790  48.4857530
  95.0460090 106.2286910  49.6229930  95.6766040 108.6371210  45.8407990
  95.2694120 108.7785800  44.9861590  96.5679050 108.3531370  45.6379200
 105.4944920 112.7863120  52.7475040 106.0089590 112.6971130  53.5497470
 104.6514000 113.1322820  53.0402950 107.4699320 113.0718460  42.1759040
 107.3100460 112.7821400  43.0740870 107.3046030 112.2958590  41.6404270
  99.9487700 112.8516990  43.9530660  99.7730180 111.9352530  43.7398460
  99.0943440 113.2104280  44.1928460 107.1725450 110.5806020  40.7357040
 106.4790610 110.5783310  40.0759320 107.9148310 110.1565340  40.3051210
 106.7375380 112.2068730  44.8105530 107.1932330 111.4258110  45.1244150
 107.0767900 112.9175550  45.3546710 111.4852190 101.1367580  55.1429970
 110.8696460 101.6447250  54.6145430 111.1648610 100.2365910  55.0855910
  94.4877930 107.9785190  51.9696270  94.6508970 107.5090550  51.1515640
  94.9530380 107.4708750  52.6345110  99.2596700  97.1090950  47.0056840
  98.8164850  97.8900490  46.6741360  99.8181690  97.4320840  47.7127780
 101.2972600  97.6538280  48.8646440 101.5944930  98.5601110  48.7838460
 101.8458160  97.1657060  48.2506010  99.0510920 102.2324520  44.7338090
  98.8251840 102.0161690  45.6384710  98.2703450 102.6652980  44.3884060
 106.2808680 102.2387890  43.3328740 105.6817570 102.9623690  43.1492360
 106.8288290 102.1764670  42.5505190 104.8873550 100.8751430  45.3632020
 105.2803120 101.1923630  44.5500710 105.2490400  99.9963310  45.4776540
  93.9237720  97.4652230  47.5862220  93.6350770  98.0355090  48.2987200
  94.6683480  96.9856680  47.9493450  94.1107950 101.4072350  38.7964940
  94.0282620 102.3503110  38.9379930  93.7591010 101.2647260  37.9177290
 105.4728690 103.4657180  49.4582800 104.7409810 103.9743990  49.8072900
 105.0753030 102.6487160  49.1571580 101.9106080 100.1411380  47.8635290
 101.9142140  99.7001330  47.0139830 102.8057200 100.4628710  47.9707110
  97.7608460 100.0237870  46.8229500  97.4208510 100.5013100  47.5796550
  96.9985780  99.5702990  46.4630600 101.9726230 101.1423460  40.8542050
 102.0939050 101.1009940  41.8027870 101.5874740 102.0047610  40.6988780
 105.9354600  98.9190860  48.8705740 105.9527340  99.3699510  49.7147590
 105.6870180  98.0196500  49.0839180 100.9847730 103.4524600  40.2525350
 100.4164630 103.0042850  39.6261260 101.6936730 103.8117380  39.7190500
  96.0616910 107.3536620  54.1292080  95.6771700 106.7130290  54.7275040
  96.3729100 108.0572740  54.6986810 102.2114050 104.2013160  49.6100700
 102.5784180 103.7271730  50.3562040 102.0219110 105.0754730  49.9509040
  95.0754540  98.9456850  45.7394170  94.7901460  98.5812520  46.5772790
  95.0133400  98.2137310  45.1257310  98.5295210 107.4482790  42.5251760
  97.7557470 106.9080410  42.3650480  99.2589840 106.9289400  42.1869520
 104.6701990 106.5157210  54.2047150 104.6039300 105.5952880  53.9504740
 104.0407130 106.6132650  54.9191790 107.4641520 102.2105760  40.7569700
 108.3521140 102.5222990  40.5821040 107.4346610 101.3378010  40.3650280
  98.5732610 107.1163170  46.1630570  99.0911280 106.3131430  46.1087460
  98.1216630 107.0542310  47.0047400 103.4602110 108.3829450  41.4357870
 103.8017810 109.1271680  40.9401190 102.6314820 108.6960570  41.7982700
  96.0577150 104.0824540  53.0756270  95.6992090 104.7478390  53.6629610
  95.7631710 103.2508090  53.4468890 109.7355790 103.5217600  40.2249560
 109.6519510 103.9531820  39.3746000 110.4549980 103.9815950  40.6576380
 110.7643040 110.3759860  42.9531690 110.1219200 109.7215480  43.2275410
 110.3773700 110.7814950  42.1772360 106.3429520 107.7045290  46.8003380
 106.6953340 107.1073420  46.1404750 105.4591850 107.3789520  46.9711630
 102.4292800 108.4642980  44.2073790 103.1163930 109.0112190  44.5881380
 101.6425220 109.0083710  44.2423400  94.5685200 104.0815800  39.6990870
  95.4380050 104.3640600  39.9826790  94.0775520 104.8951670  39.5839680
 101.7320010 105.4689010  43.8199150 102.1882790 106.2794260  44.0459340
 101.3808220 105.1512150  44.6517640 104.0352620 110.9795350  51.0491450
 104.6794840 111.1854730  51.7264870 104.3982060 110.2183750  50.5962300
  97.6331790  95.8126660  44.2921670  97.5046420  95.8044560  45.2406590
  96.8093810  96.1509750  43.9412680 105.3084700 108.9827700  49.7668900
 105.9506930 108.2820860  49.8801070 105.8334050 109.7626140  49.5865790
 109.1540420 109.2676320  39.4908040 108.9278000 108.5506760  40.0832680
 108.7636620 109.0188760  38.6529790 107.0822320 109.7822600  52.9704960
 107.4178560 110.3689290  53.6482880 106.1622660 109.6515310  53.2002750
  94.9356450 113.2943180  40.2652500  95.2954090 113.8932520  39.6109770
  94.7948790 113.8403070  41.0387530 108.7356670 107.1848260  41.1522200
 108.4478370 107.6460950  41.9400080 109.5308840 106.7246030  41.4206420
 100.9525070 110.6774380  41.0826170 100.9435170 111.4104070  40.4670680
 100.0323430 110.4305960  41.1753130  96.5531710 105.8989270  41.8272930
  95.9459660 106.6388170  41.8368230  97.0281060 105.9888630  41.0011130
 106.1264500 100.0640090  51.5029820 106.4945320  99.2435300  51.8309390
 105.2662700 100.1241980  51.9185470 109.4926530  99.0197030  42.3117380
 108.8639690  99.1242700  41.5975610 108.9978450  99.2393810  43.1011260
 103.9384670 110.7402620  39.7451360 104.0396650 110.5366610  38.8153340
 103.0386410 110.4860900  39.9499140 101.4610560 101.2982980  43.7275260
 100.7526710 101.7669320  44.1688870 101.7455040 100.6404990  44.3620450
 105.4925990  98.0233640  45.1671050 105.3693770  98.0419770  44.2180560
 106.4410550  98.0712580  45.2869450 102.5802780 113.2588940  44.4399030
 102.8344280 113.2210330  43.5178400 101.6315260 113.1322270  44.4327280
  99.6645580  99.6068060  41.1025970 100.5136110 100.0438210  41.0366160
  99.2976850  99.9188320  41.9298030 110.2933350  98.9347640  52.5696180
 109.7906950  99.6753040  52.9089990 111.1090010  99.3231640  52.2532970
 108.5855360 104.1780820  46.0157540 107.6445500 104.1931050  46.1905230
 108.8999430 103.3916780  46.4617840  98.5637000 105.8600420  39.5761500
  99.3300270 105.7481780  40.1386930  98.6411690 105.1638390  38.9238270
  97.2583760 103.2925490  40.2594390  97.3387350 102.3453000  40.3711790
  98.1503510 103.6232370  40.3655050 110.5880940 111.3489670  47.6911800
 110.7128360 112.1720840  48.1635610 111.4546500 111.1380400  47.3435950
  98.0598470 113.4420880  47.3628930  98.7960950 112.8936340  47.6337500
  98.4439390 114.3076890  47.2234920  94.9443950 109.5094450  43.2370440
  94.0183730 109.7515590  43.2275850  95.4100380 110.3368710  43.1155190
 101.1700780 112.6151190  39.1854500 101.9629390 112.9040020  38.7336290
 100.6505130 112.1843360  38.5066980 107.3321750 112.4627110  55.1099330
 108.2843500 112.3785130  55.0599570 107.1849970 113.1268820  55.7833120
 110.2230950 111.8421320  40.6091240 109.9372460 111.4286460  39.7945420
 110.0250500 112.7709030  40.4891760 101.6878180 107.8354600  39.0496850
 101.5828820 107.2206950  39.7758230 101.5202400 107.3120490  38.2659860
 101.8392500 106.5211400  55.0286080 101.0738170 107.0896400  54.9440750
 102.0208460 106.2287610  54.1354310 104.9280910 106.8974630  39.6538840
 104.3791010 107.3443930  40.2981580 105.5500170 106.3923880  40.1776510
 108.9815850 108.2516730  55.5861100 109.7225320 108.5892490  55.0828560
 108.2188530 108.4208790  55.0330870 100.5956030 105.8565550  41.5504140
 101.0172450 105.6905420  42.3935530 100.7206870 105.0465780  41.0559280
 103.1083670 104.8803160  38.7981240 103.6289330 104.1652180  38.4322390
 103.7552070 105.5189030  39.0981750 107.6561510 106.3031560  54.1216310
 108.0702530 106.4576640  54.9706730 106.7212510 106.4286780  54.2842090
 108.1283680 103.6427720  56.1255460 108.7104450 102.8880040  56.0375940
 108.3045450 104.1735160  55.3486940 102.0117190  97.3597710  51.4699800
 101.5634490  97.3821970  50.6245350 101.3782390  96.9616730  52.0670100
 102.4176740 106.2552040  52.0912240 102.8364850 107.0984770  51.9188480
 101.4985370 106.3924080  51.8619020 104.7540640 103.9868220  53.4750080
 104.8736850 103.3909360  54.2144920 105.6134640 104.0237910  53.0551380
 107.0928540 104.5405410  52.0512590 106.5663760 105.0648030  51.4477730
 107.4359880 105.1732800  52.6822320  99.4914930 101.9298780  38.4962300
  99.2903990 101.0666140  38.8575640  99.3206980 101.8432140  37.5583900
 100.2684160 112.5605050  53.2069970  99.7305250 113.2851110  52.8878670
 100.5218120 112.0835390  52.4167310  98.2897730  99.0299400  38.4840180
  98.5923630  99.0366830  37.5759330  99.0292320  98.6797260  38.9807840
 103.1246370 113.7956260  53.4656620 103.0505070 114.6991400  53.7728990
 102.2225210 113.4768160  53.4378690 101.5082660  97.9734020  39.4696380
 101.1604660  97.2958010  38.8898830 101.7095430  97.5123530  40.2839770
 103.6731700 112.9614770  41.0882980 104.5682490 113.2999740  41.1101740
 103.7049330 112.2394180  40.4607260  97.3127860 108.3341820  39.3169980
  97.7502730 108.8771490  39.9727560  97.7975590 107.5088770  39.3266320
  94.5273660 111.1230850  46.7690240  94.8576670 110.2551910  46.5368880
  94.9564660 111.3289370  47.5995200  99.1235580 109.4539860  44.4292210
  98.8231120 109.3304830  45.3296120  99.0173070 108.5948450  44.0207940
 111.8927500 109.2336260  39.1318890 111.0620460 109.3012910  39.6026120
 112.0699330 110.1240380  38.8285750 111.3483960 105.9783740  41.6353090
 112.1102870 106.5480390  41.7412780 111.3638330 105.4110940  42.4061400
 112.3543930 106.8333840  46.4795020 112.7252760 106.0501160  46.0730990
 112.9945860 107.5222940  46.3012320 111.4003130 106.2718110  38.7925610
 111.6751970 107.1796990  38.6644830 111.2113870 106.2080640  39.7287600
 111.2968470 104.2087100  43.7855040 110.9212070 103.4415030  43.3536330
 110.5671590 104.5909800  44.2729970  95.8864230 104.8874240  50.4064090
  96.2537270 104.8001640  51.2860110  95.3175050 104.1240790  50.3070950
 110.6868090 103.3558620  53.4194560 110.4554180 103.1271370  52.5192510
 110.9472640 104.2758170  53.3739450 110.5719430 102.4344590  47.0862280
 111.0956910 101.9407240  46.4552450 111.1578850 102.5694950  47.8309850
 110.7509150 102.5184460  50.6081830 109.8011860 102.4848000  50.7226820
 110.9322160 103.4284570  50.3731600  96.6053590 100.7686140  39.7180460
  97.3145290 100.3469360  39.2327740  95.8893530 100.8361370  39.0863810
  96.2527750  96.8225470  38.7583110  96.9755880  97.3634410  39.0764330
  96.5252270  96.5488890  37.8824650 110.0619400 101.6917940  43.0254690
 110.5578520 101.4588810  43.8103570 109.8635470 100.8529780  42.6092330
  95.9419940  96.0731660  48.6605730  96.5896130  95.5229040  48.2200890
  96.3621780  96.3274810  49.4821540 111.4906560 100.3278890  45.5592370
 111.3805840 100.1734930  46.4974640 112.2514150  99.7999830  45.3167780
 109.8372280  96.2673020  52.0175370 110.4744500  96.8807160  52.3834560
 109.9847170  96.3033680  51.0724600 112.4535320  98.9297470  41.4255220
 111.6586820  98.8642590  41.9548130 112.6578600  99.8648110  41.4140570
 109.3953740 112.9689020  45.4193610 109.9912810 112.6473590  44.7428030
 109.6531890 112.4960840  46.2106880 101.0022340 110.9566520  51.1693960
 100.7613700 111.2241080  50.2824480 101.9424980 111.1272250  51.2244820
 106.5859360  95.6401410  50.8912050 105.7119200  95.9736520  50.6884980
 106.4770110  95.1674590  51.7163920 107.4931340  97.8472280  52.2753770
 107.1644700  97.0324040  51.8955500 108.4413640  97.8042090  52.1519460
 109.9465950 113.6184320  49.2491340 109.4868920 114.3700130  48.8749360
 109.3178410 112.8990790  49.1906140 100.3761670 111.9272560  48.4239470
 100.8926690 111.3159920  47.8987730 101.0259050 112.4301340  48.9150480
 103.1157170 112.8181050  49.2508450 103.4034980 112.5635350  48.3741460
 103.6280390 112.2658410  49.8414020 104.3334180  96.5571250  49.8304960
 103.5505970  97.0316750  50.1101720 104.0397110  95.6526080  49.7218140
 108.8855250  97.2594350  47.8754050 109.3263340  97.2039450  47.0275650
 108.6162840  98.1752360  47.9464230 110.7493820  96.8909590  45.8862870
 110.6882220  95.9470810  45.7393890 111.5285850  96.9989680  46.4316330
  95.0546570 113.0301950  44.8486820  94.8868610 112.3972630  45.5468710
  94.1881080 113.2361350  44.4981010  95.6774590  96.8618730  42.3518680
  96.4353950  96.9747610  41.7782710  95.2151760  97.6987930  42.3062110
 102.2188400  98.9758000  45.3420990 101.4062910  98.6014890  45.0016870
 102.7230040  98.2203080  45.6442180 106.7213380  95.6400450  46.5804060
 107.3242750  96.2120660  47.0552580 105.9806370  96.2039890  46.3577960
  96.6609270 111.7235180  42.2936960  96.1356890 112.1043210  41.5898920
  96.5853850 112.3485950  43.0146670  98.0499740  97.3882780  40.8920650
  98.5792500  96.6012580  40.7628600  98.6828060  98.0673970  41.1256180
 100.2437580  97.1257920  43.9466040  99.6140320  96.4245230  44.1136170
  99.7042720  97.8862050  43.7299200 111.4174590 113.2822720  43.6150900
 111.5926780 112.5960460  42.9711820 110.7196160 113.8069770  43.2227570
  99.2602240 113.6717560  41.1686210  99.9921060 113.3876840  40.6210100
  99.5195910 113.4330840  42.0585590  98.4217030 109.7882290  41.1732540
  97.7925910 110.2567390  41.7218370  98.5364860 108.9431510  41.6078730
 109.7507090 112.9667010  56.4417690 110.5432410 112.4716240  56.2343650
 110.0440240 113.6457150  57.0493300  98.0250620 105.9286780  30.0818770
  97.1935500 105.6735490  30.4815280  98.6331600 105.9997550  30.8176690
 108.0292220 110.0227160  27.9842140 107.5673750 109.2514400  28.3129310
 108.8417770 110.0493230  28.4894590  98.0051880 109.9626870  30.2776790
  98.3079920 109.0724610  30.0987010  98.7495470 110.5197090  30.0499040
  94.3975580 103.4894320  29.7500860  94.9691690 102.7216520  29.7504500
  94.3977120 103.7883080  28.8407470 104.2555530 112.3085170  27.6046130
 103.6366970 112.7642670  27.0340570 105.1107310 112.4636630  27.2035830
 103.4493780 108.2924160  29.2113170 103.3802060 107.3514100  29.0502300
 104.2113640 108.3825570  29.7835740  95.6400450  98.8978680  31.5369790
  95.4603290  98.0004430  31.8172550  95.2380530  99.4450550  32.2116740
  96.2587120 101.3939180  30.1452130  96.9397230 101.6577550  30.7639530
  95.9435170 100.5540050  30.4790140 100.4511690 102.4406540  29.2324720
 100.9589910 102.9387510  29.8729740 100.9824930 101.6641740  29.0564080
  98.7347790  97.0805100  33.4988140  98.7366230  97.5977490  32.6934040
  97.9052100  96.6035280  33.4758070 105.1218880 107.1924410  24.9978040
 104.5036150 107.6573860  24.4340760 105.6342130 107.8851890  25.4147550
  99.9850640 106.7200280  31.6761640  99.6520020 107.3469200  32.3182710
 100.1617320 107.2462160  30.8963310  98.4163120  98.7915060  31.5058590
  98.7579930  99.6357110  31.2112460  97.4778930  98.9398800  31.6223930
  99.1969740 108.6881080  33.4910820  99.8143740 109.3632160  33.2095270
  98.3362860 109.0969060  33.3998320 111.5671470  99.9800150  29.5347190
 110.6196380 100.0139130  29.6662620 111.8921460 100.7939100  29.9196550
 107.6506070 111.9964620  30.1210640 107.6633230 111.5926910  29.2532900
 107.0981290 112.7711910  30.0172070 108.9451490 108.7180840  25.2100810
 108.8347820 107.7755170  25.3350230 108.9419740 109.0796480  26.0963570
 104.4871770 104.3446160  24.5663300 103.5601050 104.2783540  24.7951770
 104.6396590 105.2826290  24.4518540 104.4740850 100.6163160  21.5630460
 103.5344520 100.7777120  21.6482920 104.7924110 101.3348840  21.0166450
 108.5169060 105.9066460  25.0698550 107.8981480 105.5686010  24.4224850
 108.4993510 105.2626220  25.7777740 100.0928410 104.8710900  27.3483030
  99.6885410 104.1588150  26.8528930 100.1791530 104.5264140  28.2371070
 100.5610110 108.5578460  29.5122240 100.2638400 107.9523930  28.8330020
 101.5109930 108.5955770  29.4011600  98.8057030 101.6454110  31.1282070
  99.3571620 101.7549450  30.3535320  99.3200540 102.0191710  31.8437300
  99.6528540 108.2960150  36.1630040  98.7557070 108.5200120  36.4103440
  99.6781410 108.4195090  35.2141440 106.6933760 105.1453270  22.0771300
 107.1327040 104.3075700  21.9309120 107.4062180 105.7782670  22.1635440
  98.4799760 105.1673470  34.7387410  98.3407530 106.0396270  35.1074810
  97.5981120 104.8246280  34.5935350 104.8029140 110.0849340  26.0452540
 105.2425050 110.8273670  25.6307930 104.7416030 110.3275910  26.9691500
 100.2780110 111.1095170  36.9472560 100.2495540 111.5138120  36.0800990
 100.1145080 110.1805530  36.7844160 110.2750900  96.3996080  20.3912340
 109.9623560  96.4922910  21.2911410 111.0363370  96.9777110  20.3409770
  96.7933040 103.7655880  24.8489680  96.6730640 104.4917970  24.2370950
  96.4833930 102.9958790  24.3717590 112.2294930 111.8922270  38.2436730
 112.7054650 112.3705160  38.9225810 112.8502090 111.8239760  37.5182230
  95.6766040 108.6371210  27.0664500  95.2694120 108.7785800  26.2118100
  96.5679050 108.3531370  26.8635710 111.6328180 109.0835120  35.4036740
 111.7591240 108.8447000  34.4853920 111.6749560 108.2519660  35.8758820
 105.4944920 112.7863120  33.9731550 106.0089590 112.6971130  34.7753980
 104.6514000 113.1322820  34.2659460 107.4699320 113.0718460  23.4015550
 107.3100460 112.7821400  24.2997380 107.3046030 112.2958590  22.8660780
  99.9487700 112.8516990  25.1787170  99.7730180 111.9352530  24.9654970
  99.0943440 113.2104280  25.4184970 107.1725450 110.5806020  21.9613550
 106.4790610 110.5783310  21.3015830 107.9148310 110.1565340  21.5307720
 106.7375380 112.2068730  26.0362040 107.1932330 111.4258110  26.3500660
 107.0767900 112.9175550  26.5803220  94.4877930 107.9785190  33.1952780
  94.6508970 107.5090550  32.3772150  94.9530380 107.4708750  33.8601620
  99.2596700  97.1090950  28.2313350  98.8164850  97.8900490  27.8997870
  99.8181690  97.4320840  28.9384290 108.5471020 101.1968420  34.9645330
 107.6964610 100.8974170  35.2854400 108.3872810 101.4410430  34.0529150
 105.6420730 102.6970170  37.0644120 105.9674140 101.8633920  36.7246350
 106.4301060 103.2198690  37.2122450 102.3755520  96.7301650  23.1119180
 101.7509700  96.7261520  23.8372490 102.2885640  95.8632610  22.7155150
  99.0510920 102.2324520  25.9594600  98.8251840 102.0161690  26.8641220
  98.2703450 102.6652980  25.6140570 101.4910130 103.1310100  36.6254870
 101.3953730 102.1904830  36.4755270 102.3342110 103.3525170  36.2302940
  96.6220670  99.5423770  34.7788650  96.2284060 100.3898980  34.9861430
  95.9339070  98.9050140  34.9697290 103.1965720  99.6258740  37.8485390
 102.5064040  99.4330940  38.4831480 103.9398020  99.9093380  38.3809690
  93.9237720  97.4652230  28.8118730  93.6350770  98.0355090  29.5243710
  94.6683480  96.9856680  29.1749960  97.7608460 100.0237870  28.0486010
  97.4208510 100.5013100  28.8053060  96.9985780  99.5702990  27.6887110
 101.9726230 101.1423460  22.0798560 102.0939050 101.1009940  23.0284380
 101.5874740 102.0047610  21.9245290 100.9847730 103.4524600  21.4781860
 100.4164630 103.0042850  20.8517770 101.6936730 103.8117380  20.9447010
  96.0616910 107.3536620  35.3548590  95.6771700 106.7130290  35.9531550
  96.3729100 108.0572740  35.9243320 102.2114050 104.2013160  30.8357210
 102.5784180 103.7271730  31.5818550 102.0219110 105.0754730  31.1765550
 100.0013420 103.2421800  33.1541420  99.6970490 104.1213780  33.3791780
 100.9559880 103.3021590  33.1898860  98.5295210 107.4482790  23.7508270
  97.7557470 106.9080410  23.5906990  99.2589840 106.9289400  23.4126030
 104.7493130  97.8386110  23.6864050 103.9357740  97.3399280  23.6109360
 104.5555080  98.6784360  23.2700400 107.4641520 102.2105760  21.9826210
 108.3521140 102.5222990  21.8077550 107.4346610 101.3378010  21.5906790
  98.5732610 107.1163170  27.3887080  99.0911280 106.3131430  27.3343970
  98.1216630 107.0542310  28.2303910 103.4602110 108.3829450  22.6614380
 103.8017810 109.1271680  22.1657700 102.6314820 108.6960570  23.0239210
  96.0577150 104.0824540  34.3012780  95.6992090 104.7478390  34.8886120
  95.7631710 103.2508090  34.6725400  99.2590270 104.5408780  37.1852330
  98.9590410 104.6865960  36.2880150 100.0301510 103.9814070  37.0925720
 109.7355790 103.5217600  21.4506070 109.6519510 103.9531820  20.6002510
 110.4549980 103.9815950  21.8832890 110.7643040 110.3759860  24.1788200
 110.1219200 109.7215480  24.4531920 110.3773700 110.7814950  23.4028870
 102.4292800 108.4642980  25.4330300 103.1163930 109.0112190  25.8137890
 101.6425220 109.0083710  25.4679910 101.7320010 105.4689010  25.0455660
 102.1882790 106.2794260  25.2715850 101.3808220 105.1512150  25.8774150
 109.1540420 109.2676320  20.7164550 108.9278000 108.5506760  21.3089190
 108.7636620 109.0188760  19.8786300  94.9356450 113.2943180  21.4909010
  95.2954090 113.8932520  20.8366280  94.7948790 113.8403070  22.2644040
  94.6325720  97.5717780  34.9784880  93.9184240  97.7714700  35.5837490
  95.0520760  96.7957350  35.3499680 108.7356670 107.1848260  22.3778710
 108.4478370 107.6460950  23.1656590 109.5308840 106.7246030  22.6462930
  94.9198310 111.5598040  35.9651410  95.0289430 110.6192780  35.8246800
  94.2678870 111.8252790  35.3165140 102.9110900 109.8313930  37.3649530
 102.5907770 109.1123170  37.9095220 102.2369260 110.5069000  37.4385590
 100.9525070 110.6774380  22.3082680 100.9435170 111.4104070  21.6927190
 100.0323430 110.4305960  22.4009640  96.5531710 105.8989270  23.0529440
  95.9459660 106.6388170  23.0624740  97.0281060 105.9888630  22.2267640
 109.4926530  99.0197030  23.5373890 108.8639690  99.1242700  22.8232120
 108.9978450  99.2393810  24.3267770 103.9384670 110.7402620  20.9707870
 104.0396650 110.5366610  20.0409850 103.0386410 110.4860900  21.1755650
 101.4610560 101.2982980  24.9531770 100.7526710 101.7669320  25.3945380
 101.7455040 100.6404990  25.5876960 103.0866490 102.7179680  32.9524300
 103.5851740 103.1925500  33.6176150 103.2289440 101.7943200  33.1594330
 102.5802780 113.2588940  25.6655540 102.8344280 113.2210330  24.7434910
 101.6315260 113.1322270  25.6583790  99.6645580  99.6068060  22.3282480
 100.5136110 100.0438210  22.2622670  99.2976850  99.9188320  23.1554540
 110.2933350  98.9347640  33.7952690 109.7906950  99.6753040  34.1346500
 111.1090010  99.3231640  33.4789480  98.5637000 105.8600420  20.8018010
  99.3300270 105.7481780  21.3643440  98.6411690 105.1638390  20.1494780
  97.2583760 103.2925490  21.4850900  97.3387350 102.3453000  21.5968300
  98.1503510 103.6232370  21.5911560 110.5880940 111.3489670  28.9168310
 110.7128360 112.1720840  29.3892120 111.4546500 111.1380400  28.5692460
  98.0598470 113.4420880  28.5885440  98.7960950 112.8936340  28.8594010
  98.4439390 114.3076890  28.4491430  94.9443950 109.5094450  24.4626950
  94.0183730 109.7515590  24.4532360  95.4100380 110.3368710  24.3411700
  97.0656750 112.6266950  37.7771020  97.8669480 112.9479000  38.1906420
  96.5508570 112.2662530  38.4990930 101.1700780 112.6151190  20.4111010
 101.9629390 112.9040020  19.9592800 100.6505130 112.1843360  19.7323490
 105.9021380 108.7346820  37.7246430 105.2959540 108.7578420  36.9842180
 105.5975490 108.0029860  38.2613680 107.3321750 112.4627110  36.3355840
 108.2843500 112.3785130  36.2856080 107.1849970 113.1268820  37.0089630
 110.2230950 111.8421320  21.8347750 109.9372460 111.4286460  21.0201930
 110.0250500 112.7709030  21.7148270  94.7854560 105.1140410  36.7207070
  95.2893580 104.5347690  37.2923300  94.0461980 105.3980640  37.2583440
 101.6878180 107.8354600  20.2753360 101.5828820 107.2206950  21.0014740
 101.5202400 107.3120490  19.4916370 101.8392500 106.5211400  36.2542590
 101.0738170 107.0896400  36.1697260 102.0208460 106.2287610  35.3610820
 104.9280910 106.8974630  20.8795350 104.3791010 107.3443930  21.5238090
 105.5500170 106.3923880  21.4033020 108.9815850 108.2516730  36.8117610
 109.7225320 108.5892490  36.3085070 108.2188530 108.4208790  36.2587380
  96.8177640 103.2570000  37.6157140  96.8582980 102.9583870  38.5242370
  97.6723140 103.6577610  37.4564660 100.5956030 105.8565550  22.7760650
 101.0172450 105.6905420  23.6192040 100.7206870 105.0465780  22.2815790
  98.7583450 101.8362100  35.5831630  98.2279910 101.3453050  34.9554970
  99.4271520 102.2646300  35.0489560 103.1083670 104.8803160  20.0237750
 103.6289330 104.1652180  19.6578900 103.7552070 105.5189030  20.3238260
 108.1283680 103.6427720  37.3511970 108.7104450 102.8880040  37.2632450
 108.3045450 104.1735160  36.5743450  99.2455750  98.8024470  35.6628920
  99.1512620  98.1845220  34.9379790  98.6653140  99.5290760  35.4358830
 102.4176740 106.2552040  33.3168750 102.8364850 107.0984770  33.1444990
 101.4985370 106.3924080  33.0875530 104.7540640 103.9868220  34.7006590
 104.8736850 103.3909360  35.4401430 105.6134640 104.0237910  34.2807890
  99.4914930 101.9298780  19.7218810  99.2903990 101.0666140  20.0832150
  99.3206980 101.8432140  18.7840410 100.2684160 112.5605050  34.4326480
  99.7305250 113.2851110  34.1135180 100.5218120 112.0835390  33.6423820
 101.5209410 100.5289570  35.9582410 102.1109100 100.2205420  36.6460230
 100.7029650 100.0569320  36.1142310 106.3402840 100.1455380  36.1915430
 105.6518360  99.4836920  36.1265420 107.0608860  99.6993650  36.6363890
 106.9703240  96.7407010  22.2505690 107.2505530  95.8974910  22.6065110
 106.1968970  96.9730120  22.7644440  98.2897730  99.0299400  19.7096690
  98.5923630  99.0366830  18.8015840  99.0292320  98.6797260  20.2064350
 103.1246370 113.7956260  34.6913130 103.0505070 114.6991400  34.9985500
 102.2225210 113.4768160  34.6635200 101.5082660  97.9734020  20.6952890
 101.1604660  97.2958010  20.1155340 101.7095430  97.5123530  21.5096280
 103.6731700 112.9614770  22.3139490 104.5682490 113.2999740  22.3358250
 103.7049330 112.2394180  21.6863770  97.3127860 108.3341820  20.5426490
  97.7502730 108.8771490  21.1984070  97.7975590 107.5088770  20.5522830
  94.5273660 111.1230850  27.9946750  94.8576670 110.2551910  27.7625390
  94.9564660 111.3289370  28.8251710  99.1235580 109.4539860  25.6548720
  98.8231120 109.3304830  26.5552630  99.0173070 108.5948450  25.2464450
  95.0163870 111.9901440  30.7328380  94.5794860 112.1702240  31.5652530
  95.5841550 112.7476060  30.5910100 110.6526050 111.4918440  35.0205690
 110.0528040 111.5511000  34.2769610 110.7819950 110.5523420  35.1502540
 111.8927500 109.2336260  20.3575400 111.0620460 109.3012910  20.8282630
 112.0699330 110.1240380  20.0542260 111.3483960 105.9783740  22.8609600
 112.1102870 106.5480390  22.9669290 111.3638330 105.4110940  23.6317910
 112.3543930 106.8333840  27.7051530 112.7252760 106.0501160  27.2987500
 112.9945860 107.5222940  27.5268830 111.4003130 106.2718110  20.0182120
 111.6751970 107.1796990  19.8901340 111.2113870 106.2080640  20.9544110
 107.7978740  99.2962960  21.3135750 108.2163620  99.1093940  20.4732410
 107.4914800  98.4442010  21.6238680 111.2968470 104.2087100  25.0111550
 110.9212070 103.4415030  24.5792840 110.5671590 104.5909800  25.4986480
  95.8864230 104.8874240  31.6320600  96.2537270 104.8001640  32.5116620
  95.3175050 104.1240790  31.5327460 110.6868090 103.3558620  34.6451070
 110.4554180 103.1271370  33.7449020 110.9472640 104.2758170  34.5995960
  95.4380230 101.7983330  35.5379020  94.5436280 101.7650090  35.8772730
  95.9777780 101.9970120  36.3030270 109.1256160  98.5815050  37.4230770
 110.0026340  98.5898450  37.8064770 109.1377000  97.8445890  36.8123120
 110.0619400 101.6917940  24.2511200 110.5578520 101.4588810  25.0360080
 109.8635470 100.8529780  23.8348840  95.9419940  96.0731660  29.8862240
  96.5896130  95.5229040  29.4457400  96.3621780  96.3274810  30.7078050
 109.8372280  96.2673020  33.2431880 110.4744500  96.8807160  33.6091070
 109.9847170  96.3033680  32.2981110 112.3796830  98.1586810  20.0255020
 113.3046140  98.0267990  19.8173310 112.3572620  98.2379630  20.9791470
 112.4535320  98.9297470  22.6511730 111.6586820  98.8642590  23.1804640
 112.6578600  99.8648110  22.6397080 109.3953740 112.9689020  26.6450120
 109.9912810 112.6473590  25.9684540 109.6531890 112.4960840  27.4363390
  95.6951940  96.2287330  32.6287560  95.3466760  96.6851150  33.3945740
  95.3639640  95.3344460  32.7109990  97.3016310 109.4006930  36.7940750
  97.2585940 109.0299840  37.6755210  97.4327320 110.3384500  36.9342570
 101.0022340 110.9566520  32.3950470 100.7613700 111.2241080  31.5080990
 101.9424980 111.1272250  32.4501330 112.2626500 112.9760900  33.1961110
 111.7684780 113.3729770  32.4788240 111.6539790 112.3510110  33.5898390
  96.3672580  95.7563530  35.9038330  96.9155570  95.5751580  35.1404440
  96.4327890  94.9657640  36.4394640  97.1404340 112.3469180  33.9138530
  96.5464660 112.2153880  34.6528570  97.1328180 111.5107320  33.4480630
 109.9465950 113.6184320  30.4747850 109.4868920 114.3700130  30.1005870
 109.3178410 112.8990790  30.4162650  96.7716570 109.7127560  32.8646570
  96.0450630 109.0932850  32.7972520  96.8325720 110.1068170  31.9944650
 100.3761670 111.9272560  29.6495980 100.8926690 111.3159920  29.1244240
 101.0259050 112.4301340  30.1406990 103.1157170 112.8181050  30.4764960
 103.4034980 112.5635350  29.5997970 103.6280390 112.2658410  31.0670530
 108.8855250  97.2594350  29.1010560 109.3263340  97.2039450  28.2532160
 108.6162840  98.1752360  29.1720740 110.7493820  96.8909590  27.1119380
 110.6882220  95.9470810  26.9650400 111.5285850  96.9989680  27.6572840
  95.0546570 113.0301950  26.0743330  94.8868610 112.3972630  26.7725220
  94.1881080 113.2361350  25.7237520 102.2188400  98.9758000  26.5677500
 101.4062910  98.6014890  26.2273380 102.7230040  98.2203080  26.8698690
 106.7213380  95.6400450  27.8060570 107.3242750  96.2120660  28.2809090
 105.9806370  96.2039890  27.5834470 109.8647980  96.0422010  23.0800850
 110.0598610  96.9405460  23.3468280 109.0777850  95.8109090  23.5733800
  96.6609270 111.7235180  23.5193470  96.1356890 112.1043210  22.8155430
  96.5853850 112.3485950  24.2403180 100.2437580  97.1257920  25.1722550
  99.6140320  96.4245230  25.3392680  99.7042720  97.8862050  24.9555710
 103.1829530 113.7397150  37.8433160 104.1096840 113.5041420  37.8869120
 103.1679960 114.5669150  37.3619190 111.4174590 113.2822720  24.8407410
 111.5926780 112.5960460  24.1968330 110.7196160 113.8069770  24.4484080
 100.3693140  96.4041900  37.6075040 100.0877410  96.9075500  36.8435860
 100.7512840  95.6063650  37.2417170  99.2602240 113.6717560  22.3942720
  99.9921060 113.3876840  21.8466610  99.5195910 113.4330840  23.2842100
  98.4217030 109.7882290  22.3989050  97.7925910 110.2567390  22.9474880
  98.5364860 108.9431510  22.8335240 109.7507090 112.9667010  37.6674200
 110.5432410 112.4716240  37.4600160 110.0440240 113.6457150  38.2749810
 105.8766750 103.8387950   8.5490250 105.7960800 102.9242560   8.2781960
 105.4631170 104.3355020   7.8429960 104.0084790 105.6166970  10.4299520
 103.2326890 105.1367410  10.7198090 104.6597720 104.9372620  10.2555680
  98.0250620 105.9286780  11.3075280  97.1935500 105.6735490  11.7071790
  98.6331600 105.9997550  12.0433200 108.0292220 110.0227160   9.2098650
 107.5673750 109.2514400   9.5385820 108.8417770 110.0493230   9.7151100
  98.0051880 109.9626870  11.5033300  98.3079920 109.0724610  11.3243520
  98.7495470 110.5197090  11.2755550  96.4342570 100.8888670   5.0917670
  95.5459270 101.2304640   4.9897550  96.7183760 100.6888990   4.1998500
  94.3975580 103.4894320  10.9757370  94.9691690 102.7216520  10.9761010
  94.3977120 103.7883080  10.0663980 104.2555530 112.3085170   8.8302640
 103.6366970 112.7642670   8.2597080 105.1107310 112.4636630   8.4292340
 103.4493780 108.2924160  10.4369680 103.3802060 107.3514100  10.2758810
 104.2113640 108.3825570  11.0092250  95.6400450  98.8978680  12.7626300
  95.4603290  98.0004430  13.0429060  95.2380530  99.4450550  13.4373250
 104.4798950 101.0994540  10.6638610 104.8563770 100.2266420  10.5512280
 104.3818460 101.4353240   9.7729050  98.6103960  99.4720170   6.1256050
  98.7170710 100.3723900   6.4324810  97.6996320  99.4238140   5.8350700
 108.2623070  98.5944980   7.5966950 109.0832690  98.1041550   7.6392430
 108.2957150  99.1842640   8.3498790  96.2587120 101.3939180  11.3708640
  96.9397230 101.6577550  11.9896040  95.9435170 100.5540050  11.7046650
 100.4511690 102.4406540  10.4581230 100.9589910 102.9387510  11.0986250
 100.9824930 101.6641740  10.2820590 112.5522620 100.6111730  14.1610580
 111.8474790 100.9993440  13.6425690 112.8180540 101.3062020  14.7631510
  98.7347790  97.0805100  14.7244650  98.7366230  97.5977490  13.9190550
  97.9052100  96.6035280  14.7014580 105.1218880 107.1924410   6.2234550
 104.5036150 107.6573860   5.6597270 105.6342130 107.8851890   6.6404060
  99.9850640 106.7200280  12.9018150  99.6520020 107.3469200  13.5439220
 100.1617320 107.2462160  12.1219820 108.4984550 100.5345360  10.3694490
 107.7940120 100.8230250  10.9497600 108.8596710 101.3445470  10.0094050
  98.4163120  98.7915060  12.7315100  98.7579930  99.6357110  12.4368970
  97.4778930  98.9398800  12.8480440  99.1969740 108.6881080  14.7167330
  99.8143740 109.3632160  14.4351780  98.3362860 109.0969060  14.6254830
  94.4902080 107.8780940   3.5974180  94.1130060 108.3668040   2.8659080
  94.7475150 108.5506220   4.2280710 110.1147330 110.1520490  12.6321970
 109.4310850 110.8219600  12.6238640 110.6541620 110.3501140  11.8666830
 111.5671470  99.9800150  10.7603700 110.6196380 100.0139130  10.8919130
 111.8921460 100.7939100  11.1453060 102.0991010  96.2797330   9.0559690
 102.4065990  95.7244220   8.3395190 101.1691710  96.4141790   8.8732680
 107.6506070 111.9964620  11.3467150 107.6633230 111.5926910  10.4789410
 107.0981290 112.7711910  11.2428580 108.9451490 108.7180840   6.4357320
 108.8347820 107.7755170   6.5606740 108.9419740 109.0796480   7.3220080
 107.0491510 106.8994460  12.6749760 107.4660300 106.6854570  11.8403220
 107.7731330 107.1567250  13.2458380 104.4871770 104.3446160   5.7919810
 103.5601050 104.2783540   6.0208280 104.6396590 105.2826290   5.6775050
 104.4740850 100.6163160   2.7886970 103.5344520 100.7777120   2.8739430
 104.7924110 101.3348840   2.2422960 110.9953610 105.2981680  12.7666000
 110.1672240 105.3674770  12.2916130 111.5904090 105.8835990  12.2981830
 108.5169060 105.9066460   6.2955060 107.8981480 105.5686010   5.6481360
 108.4993510 105.2626220   7.0034250 107.9595620 102.0851000  13.7120870
 107.5466800 102.9104710  13.9660860 107.2271570 101.4996040  13.5197230
 100.0928410 104.8710900   8.5739540  99.6885410 104.1588150   8.0785440
 100.1791530 104.5264140   9.4627580 100.5610110 108.5578460  10.7378750
 100.2638400 107.9523930  10.0586530 101.5109930 108.5955770  10.6268110
  98.8057030 101.6454110  12.3538580  99.3571620 101.7549450  11.5791830
  99.3200540 102.0191710  13.0693810 108.6495720 112.1310330  14.4001850
 108.1726280 112.9382520  14.2074460 107.9657510 111.4788660  14.5528060
  99.6528540 108.2960150  17.3886550  98.7557070 108.5200120  17.6359950
  99.6781410 108.4195090  16.4397950 106.6933760 105.1453270   3.3027810
 107.1327040 104.3075700   3.1565630 107.4062180 105.7782670   3.3891950
  98.4799760 105.1673470  15.9643920  98.3407530 106.0396270  16.3331320
  97.5981120 104.8246280  15.8191860 104.8029140 110.0849340   7.2709050
 105.2425050 110.8273670   6.8564440 104.7416030 110.3275910   8.1948010
 100.2780110 111.1095170  18.1729070 100.2495540 111.5138120  17.3057500
 100.1145080 110.1805530  18.0100670  96.7933040 103.7655880   6.0746190
  96.6730640 104.4917970   5.4627460  96.4833930 102.9958790   5.5974100
 112.2294930 111.8922270  19.4693240 112.7054650 112.3705160  20.1482320
 112.8502090 111.8239760  18.7438740  94.4318410 106.9371020  11.8814830
  94.5098830 107.0719790  10.9370550  95.0460090 106.2286910  12.0742950
  95.6766040 108.6371210   8.2921010  95.2694120 108.7785800   7.4374610
  96.5679050 108.3531370   8.0892220 111.6328180 109.0835120  16.6293250
 111.7591240 108.8447000  15.7110430 111.6749560 108.2519660  17.1015330
 105.4944920 112.7863120  15.1988060 106.0089590 112.6971130  16.0010490
 104.6514000 113.1322820  15.4915970 107.4699320 113.0718460   4.6272060
 107.3100460 112.7821400   5.5253890 107.3046030 112.2958590   4.0917290
  99.9487700 112.8516990   6.4043680  99.7730180 111.9352530   6.1911480
  99.0943440 113.2104280   6.6441480 107.1725450 110.5806020   3.1870060
 106.4790610 110.5783310   2.5272340 107.9148310 110.1565340   2.7564230
 106.7375380 112.2068730   7.2618550 107.1932330 111.4258110   7.5757170
 107.0767900 112.9175550   7.8059730 111.4852190 101.1367580  17.5942990
 110.8696460 101.6447250  17.0658450 111.1648610 100.2365910  17.5368930
  94.4877930 107.9785190  14.4209290  94.6508970 107.5090550  13.6028660
  94.9530380 107.4708750  15.0858130  99.2596700  97.1090950   9.4569860
  98.8164850  97.8900490   9.1254380  99.8181690  97.4320840  10.1640800
 103.5466510  99.9759470  15.0605180 103.0845880 100.1842490  15.8725120
 103.1444620  99.1618820  14.7575850 108.5471020 101.1968420  16.1901840
 107.6964610 100.8974170  16.5110910 108.3872810 101.4410430  15.2785660
 105.6420730 102.6970170  18.2900630 105.9674140 101.8633920  17.9502860
 106.4301060 103.2198690  18.4378960 102.3755520  96.7301650   4.3375690
 101.7509700  96.7261520   5.0629000 102.2885640  95.8632610   3.9411660
 101.2972600  97.6538280  11.3159460 101.5944930  98.5601110  11.2351480
 101.8458160  97.1657060  10.7019030  99.0510920 102.2324520   7.1851110
  98.8251840 102.0161690   8.0897730  98.2703450 102.6652980   6.8397080
 106.2808680 102.2387890   5.7841760 105.6817570 102.9623690   5.6005380
 106.8288290 102.1764670   5.0018210 101.4910130 103.1310100  17.8511380
 101.3953730 102.1904830  17.7011780 102.3342110 103.3525170  17.4559450
 104.8873550 100.8751430   7.8145040 105.2803120 101.1923630   7.0013730
 105.2490400  99.9963310   7.9289560  96.6220670  99.5423770  16.0045160
  96.2284060 100.3898980  16.2117940  95.9339070  98.9050140  16.1953800
 103.1965720  99.6258740  19.0741900 102.5064040  99.4330940  19.7087990
 103.9398020  99.9093380  19.6066200  93.9237720  97.4652230  10.0375240
  93.6350770  98.0355090  10.7500220  94.6683480  96.9856680  10.4006470
 105.4728690 103.4657180  11.9095820 104.7409810 103.9743990  12.2585920
 105.0753030 102.6487160  11.6084600 101.9106080 100.1411380  10.3148310
 101.9142140  99.7001330   9.4652850 102.8057200 100.4628710  10.4220130
  97.7608460 100.0237870   9.2742520  97.4208510 100.5013100  10.0309570
  96.9985780  99.5702990   8.9143620 101.9726230 101.1423460   3.3055070
 102.0939050 101.1009940   4.2540890 101.5874740 102.0047610   3.1501800
 105.9354600  98.9190860  11.3218760 105.9527340  99.3699510  12.1660610
 105.6870180  98.0196500  11.5352200 100.9847730 103.4524600   2.7038370
 100.4164630 103.0042850   2.0774280 101.6936730 103.8117380   2.1703520
 109.3625350  96.3323040  17.1605140 109.6871120  95.6012700  17.6863120
 109.3981860  96.0136680  16.2586130  96.0616910 107.3536620  16.5805100
  95.6771700 106.7130290  17.1788060  96.3729100 108.0572740  17.1499830
 102.2114050 104.2013160  12.0613720 102.5784180 103.7271730  12.8075060
 102.0219110 105.0754730  12.4022060  95.0754540  98.9456850   8.1907190
  94.7901460  98.5812520   9.0285810  95.0133400  98.2137310   7.5770330
 100.0013420 103.2421800  14.3797930  99.6970490 104.1213780  14.6048290
 100.9559880 103.3021590  14.4155370  98.5295210 107.4482790   4.9764780
  97.7557470 106.9080410   4.8163500  99.2589840 106.9289400   4.6382540
 109.2883190 106.4448150  10.7691170 110.0082310 106.9403440  10.3787280
 109.0865010 105.7666040  10.1245040 104.7493130  97.8386110   4.9120560
 103.9357740  97.3399280   4.8365870 104.5555080  98.6784360   4.4956910
 104.6701990 106.5157210  16.6560170 104.6039300 105.5952880  16.4017760
 104.0407130 106.6132650  17.3704810 107.4641520 102.2105760   3.2082720
 108.3521140 102.5222990   3.0334060 107.4346610 101.3378010   2.8163300
  98.5732610 107.1163170   8.6143590  99.0911280 106.3131430   8.5600480
  98.1216630 107.0542310   9.4560420 103.4602110 108.3829450   3.8870890
 103.8017810 109.1271680   3.3914210 102.6314820 108.6960570   4.2495720
  96.0577150 104.0824540  15.5269290  95.6992090 104.7478390  16.1142630
  95.7631710 103.2508090  15.8981910  99.2590270 104.5408780  18.4108840
  98.9590410 104.6865960  17.5136660 100.0301510 103.9814070  18.3182230
 104.6018720 109.3377780  16.4063970 104.6163260 108.4058740  16.1882880
 103.8943820 109.4237540  17.0453740 109.7355790 103.5217600   2.6762580
 109.6519510 103.9531820   1.8259020 110.4549980 103.9815950   3.1089400
 110.8129930 105.9785120  15.7532550 110.0878120 106.5713900  15.5561940
 111.3405390 105.9708660  14.9545920 110.7643040 110.3759860   5.4044710
 110.1219200 109.7215480   5.6788430 110.3773700 110.7814950   4.6285380
 106.3429520 107.7045290   9.2516400 106.6953340 107.1073420   8.5917770
 105.4591850 107.3789520   9.4224650 102.4292800 108.4642980   6.6586810
 103.1163930 109.0112190   7.0394400 101.6425220 109.0083710   6.6936420
  94.5685200 104.0815800   2.1503890  95.4380050 104.3640600   2.4339810
  94.0775520 104.8951670   2.0352700 101.7320010 105.4689010   6.2712170
 102.1882790 106.2794260   6.4972360 101.3808220 105.1512150   7.1030660
 104.0352620 110.9795350  13.5004470 104.6794840 111.1854730  14.1777890
 104.3982060 110.2183750  13.0475320  97.6331790  95.8126660   6.7434690
  97.5046420  95.8044560   7.6919610  96.8093810  96.1509750   6.3925700
 105.3084700 108.9827700  12.2181920 105.9506930 108.2820860  12.3314090
 105.8334050 109.7626140  12.0378810 107.0822320 109.7822600  15.4217980
 107.4178560 110.3689290  16.0995900 106.1622660 109.6515310  15.6515770
  94.9356450 113.2943180   2.7165520  95.2954090 113.8932520   2.0622790
  94.7948790 113.8403070   3.4900550  94.6325720  97.5717780  16.2041390
  93.9184240  97.7714700  16.8094000  95.0520760  96.7957350  16.5756190
 108.7356670 107.1848260   3.6035220 108.4478370 107.6460950   4.3913100
 109.5308840 106.7246030   3.8719440  94.9198310 111.5598040  17.1907920
  95.0289430 110.6192780  17.0503310  94.2678870 111.8252790  16.5421650
 102.9110900 109.8313930  18.5906040 102.5907770 109.1123170  19.1351730
 102.2369260 110.5069000  18.6642100 100.9525070 110.6774380   3.5339190
 100.9435170 111.4104070   2.9183700 100.0323430 110.4305960   3.6266150
  96.5531710 105.8989270   4.2785950  95.9459660 106.6388170   4.2881250
  97.0281060 105.9888630   3.4524150 106.1264500 100.0640090  13.9542840
 106.4945320  99.2435300  14.2822410 105.2662700 100.1241980  14.3698490
 109.4926530  99.0197030   4.7630400 108.8639690  99.1242700   4.0488630
 108.9978450  99.2393810   5.5524280 101.4610560 101.2982980   6.1788280
 100.7526710 101.7669320   6.6201890 101.7455040 100.6404990   6.8133470
 103.0866490 102.7179680  14.1780810 103.5851740 103.1925500  14.8432660
 103.2289440 101.7943200  14.3850840 105.4925990  98.0233640   7.6184070
 105.3693770  98.0419770   6.6693580 106.4410550  98.0712580   7.7382470
 102.5802780 113.2588940   6.8912050 102.8344280 113.2210330   5.9691420
 101.6315260 113.1322270   6.8840300  99.6645580  99.6068060   3.5538990
 100.5136110 100.0438210   3.4879180  99.2976850  99.9188320   4.3811050
 110.2933350  98.9347640  15.0209200 109.7906950  99.6753040  15.3603010
 111.1090010  99.3231640  14.7045990 108.5855360 104.1780820   8.4670560
 107.6445500 104.1931050   8.6418250 108.8999430 103.3916780   8.9130860
  97.2583760 103.2925490   2.7107410  97.3387350 102.3453000   2.8224810
  98.1503510 103.6232370   2.8168070 110.5880940 111.3489670  10.1424820
 110.7128360 112.1720840  10.6148630 111.4546500 111.1380400   9.7948970
  98.0598470 113.4420880   9.8141950  98.7960950 112.8936340  10.0850520
  98.4439390 114.3076890   9.6747940  94.9443950 109.5094450   5.6883460
  94.0183730 109.7515590   5.6788870  95.4100380 110.3368710   5.5668210
  97.0656750 112.6266950  19.0027530  97.8669480 112.9479000  19.4162930
  96.5508570 112.2662530  19.7247440 105.9021380 108.7346820  18.9502940
 105.2959540 108.7578420  18.2098690 105.5975490 108.0029860  19.4870190
 107.3321750 112.4627110  17.5612350 108.2843500 112.3785130  17.5112590
 107.1849970 113.1268820  18.2346140 110.2230950 111.8421320   3.0604260
 109.9372460 111.4286460   2.2458440 110.0250500 112.7709030   2.9404780
 101.8392500 106.5211400  17.4799100 101.0738170 107.0896400  17.3953770
 102.0208460 106.2287610  16.5867330 104.9280910 106.8974630   2.1051860
 104.3791010 107.3443930   2.7494600 105.5500170 106.3923880   2.6289530
 108.9815850 108.2516730  18.0374120 109.7225320 108.5892490  17.5341580
 108.2188530 108.4208790  17.4843890  96.8177640 103.2570000  18.8413650
  96.8582980 102.9583870  19.7498880  97.6723140 103.6577610  18.6821170
 100.5956030 105.8565550   4.0017160 101.0172450 105.6905420   4.8448550
 100.7206870 105.0465780   3.5072300  98.7583450 101.8362100  16.8088140
  98.2279910 101.3453050  16.1811480  99.4271520 102.2646300  16.2746070
 107.6561510 106.3031560  16.5729330 108.0702530 106.4576640  17.4219750
 106.7212510 106.4286780  16.7355110 108.1283680 103.6427720  18.5768480
 108.7104450 102.8880040  18.4888960 108.3045450 104.1735160  17.7999960
  99.2455750  98.8024470  16.8885430  99.1512620  98.1845220  16.1636300
  98.6653140  99.5290760  16.6615340 102.0117190  97.3597710  13.9212820
 101.5634490  97.3821970  13.0758370 101.3782390  96.9616730  14.5183120
 102.4176740 106.2552040  14.5425260 102.8364850 107.0984770  14.3701500
 101.4985370 106.3924080  14.3132040 104.7540640 103.9868220  15.9263100
 104.8736850 103.3909360  16.6657940 105.6134640 104.0237910  15.5064400
 107.0928540 104.5405410  14.5025610 106.5663760 105.0648030  13.8990750
 107.4359880 105.1732800  15.1335340 100.2684160 112.5605050  15.6582990
  99.7305250 113.2851110  15.3391690 100.5218120 112.0835390  14.8680330
 101.5209410 100.5289570  17.1838920 102.1109100 100.2205420  17.8716740
 100.7029650 100.0569320  17.3398820 106.3402840 100.1455380  17.4171940
 105.6518360  99.4836920  17.3521930 107.0608860  99.6993650  17.8620400
 106.9703240  96.7407010   3.4762200 107.2505530  95.8974910   3.8321620
 106.1968970  96.9730120   3.9900950 103.1246370 113.7956260  15.9169640
 103.0505070 114.6991400  16.2242010 102.2225210 113.4768160  15.8891710
 103.6731700 112.9614770   3.5396000 104.5682490 113.2999740   3.5614760
 103.7049330 112.2394180   2.9120280  97.3127860 108.3341820   1.7683000
  97.7502730 108.8771490   2.4240580  97.7975590 107.5088770   1.7779340
  94.5273660 111.1230850   9.2203260  94.8576670 110.2551910   8.9881900
  94.9564660 111.3289370  10.0508220  99.1235580 109.4539860   6.8805230
  98.8231120 109.3304830   7.7809140  99.0173070 108.5948450   6.4720960
  95.0163870 111.9901440  11.9584890  94.5794860 112.1702240  12.7909040
  95.5841550 112.7476060  11.8166610 110.6526050 111.4918440  16.2462200
 110.0528040 111.5511000  15.5026120 110.7819950 110.5523420  16.3759050
 111.3483960 105.9783740   4.0866110 112.1102870 106.5480390   4.1925800
 111.3638330 105.4110940   4.8574420  94.8488300 104.5021670   8.3173770
  94.1937140 104.2333310   7.6733470  95.6866250 104.3926150   7.8675750
 112.3543930 106.8333840   8.9308040 112.7252760 106.0501160   8.5244010
 112.9945860 107.5222940   8.7525340 109.3377690 108.2170420  14.3438360
 108.5237530 108.6467580  14.6064150 109.7451890 108.8288830  13.7307410
 107.7978740  99.2962960   2.5392260 108.2163620  99.1093940   1.6988920
 107.4914800  98.4442010   2.8495190 111.2968470 104.2087100   6.2368060
 110.9212070 103.4415030   5.8049350 110.5671590 104.5909800   6.7242990
  95.8864230 104.8874240  12.8577110  96.2537270 104.8001640  13.7373130
  95.3175050 104.1240790  12.7583970 110.6868090 103.3558620  15.8707580
 110.4554180 103.1271370  14.9705530 110.9472640 104.2758170  15.8252470
  95.4380230 101.7983330  16.7635530  94.5436280 101.7650090  17.1029240
  95.9777780 101.9970120  17.5286780 109.1256160  98.5815050  18.6487280
 110.0026340  98.5898450  19.0321280 109.1377000  97.8445890  18.0379630
  94.0626380 101.7120600   4.2599100  93.1590460 101.9750800   4.0850760
  94.5467000 101.9831770   3.4799060 110.5719430 102.4344590   9.5375300
 111.0956910 101.9407240   8.9065470 111.1578850 102.5694950  10.2822870
 110.7509150 102.5184460  13.0594850 109.8011860 102.4848000  13.1739840
 110.9322160 103.4284570  12.8244620 110.0619400 101.6917940   5.4767710
 110.5578520 101.4588810   6.2616590 109.8635470 100.8529780   5.0605350
  95.9419940  96.0731660  11.1118750  96.5896130  95.5229040  10.6713910
  96.3621780  96.3274810  11.9334560 111.4906560 100.3278890   8.0105390
 111.3805840 100.1734930   8.9487660 112.2514150  99.7999830   7.7680800
 109.8372280  96.2673020  14.4688390 110.4744500  96.8807160  14.8347580
 109.9847170  96.3033680  13.5237620 112.4535320  98.9297470   3.8768240
 111.6586820  98.8642590   4.4061150 112.6578600  99.8648110   3.8653590
 109.3953740 112.9689020   7.8706630 109.9912810 112.6473590   7.1941050
 109.6531890 112.4960840   8.6619900  95.6951940  96.2287330  13.8544070
  95.3466760  96.6851150  14.6202250  95.3639640  95.3344460  13.9366500
  97.3016310 109.4006930  18.0197260  97.2585940 109.0299840  18.9011720
  97.4327320 110.3384500  18.1599080 101.0022340 110.9566520  13.6206980
 100.7613700 111.2241080  12.7337500 101.9424980 111.1272250  13.6757840
 103.2076760  97.4199210  17.3763490 103.1465650  98.0121040  18.1258900
 104.1477140  97.3125170  17.2313750 105.8451320  97.0769270  17.0155780
 106.4591730  97.3948560  16.3536860 106.3900880  96.5917860  17.6351640
 112.2626500 112.9760900  14.4217620 111.7684780 113.3729770  13.7044750
 111.6539790 112.3510110  14.8154900  96.3672580  95.7563530  17.1294840
  96.9155570  95.5751580  16.3660950  96.4327890  94.9657640  17.6651150
  97.1404340 112.3469180  15.1395040  96.5464660 112.2153880  15.8785080
  97.1328180 111.5107320  14.6737140 106.5859360  95.6401410  13.3425070
 105.7119200  95.9736520  13.1398000 106.4770110  95.1674590  14.1676940
 107.4931340  97.8472280  14.7266790 107.1644700  97.0324040  14.3468520
 108.4413640  97.8042090  14.6032480 109.9465950 113.6184320  11.7004360
 109.4868920 114.3700130  11.3262380 109.3178410 112.8990790  11.6419160
  96.7716570 109.7127560  14.0903080  96.0450630 109.0932850  14.0229030
  96.8325720 110.1068170  13.2201160 100.3761670 111.9272560  10.8752490
 100.8926690 111.3159920  10.3500750 101.0259050 112.4301340  11.3663500
 103.1157170 112.8181050  11.7021470 103.4034980 112.5635350  10.8254480
 103.6280390 112.2658410  12.2927040 104.3334180  96.5571250  12.2817980
 103.5505970  97.0316750  12.5614740 104.0397110  95.6526080  12.1731160
 108.8855250  97.2594350  10.3267070 109.3263340  97.2039450   9.4788670
 108.6162840  98.1752360  10.3977250 110.7493820  96.8909590   8.3375890
 110.6882220  95.9470810   8.1906910 111.5285850  96.9989680   8.8829350
  95.0546570 113.0301950   7.2999840  94.8868610 112.3972630   7.9981730
  94.1881080 113.2361350   6.9494030  95.6774590  96.8618730   4.8031700
  96.4353950  96.9747610   4.2295730  95.2151760  97.6987930   4.7575130
 102.2188400  98.9758000   7.7934010 101.4062910  98.6014890   7.4529890
 102.7230040  98.2203080   8.0955200 106.7213380  95.6400450   9.0317080
 107.3242750  96.2120660   9.5065600 105.9806370  96.2039890   8.8090980
 109.8647980  96.0422010   4.3057360 110.0598610  96.9405460   4.5724790
 109.0777850  95.8109090   4.7990310  96.6609270 111.7235180   4.7449980
  96.1356890 112.1043210   4.0411940  96.5853850 112.3485950   5.4659690
  98.0499740  97.3882780   3.3433670  98.5792500  96.6012580   3.2141620
  98.6828060  98.0673970   3.5769200 100.2437580  97.1257920   6.3979060
  99.6140320  96.4245230   6.5649190  99.7042720  97.8862050   6.1812220
 103.1829530 113.7397150  19.0689670 104.1096840 113.5041420  19.1125630
 103.1679960 114.5669150  18.5875700 111.4174590 113.2822720   6.0663920
 111.5926780 112.5960460   5.4224840 110.7196160 113.8069770   5.6740590
 100.3693140  96.4041900  18.8331550 100.0877410  96.9075500  18.0692370
 100.7512840  95.6063650  18.4673680  99.2602240 113.6717560   3.6199230
  99.9921060 113.3876840   3.0723120  99.5195910 113.4330840   4.5098610
  98.4217030 109.7882290   3.6245560  97.7925910 110.2567390   4.1731390
  98.5364860 108.9431510   4.0591750 106.9708600  95.8195480  19.4112020
 106.8574050  96.1390090  20.3063540 107.7878340  96.2207990  19.1149300
 109.7507090 112.9667010  18.8930710 110.5432410 112.4716240  18.6856670
 110.0440240 113.6457150  19.5006320 105.8766750  85.0644460 139.9694680
 105.7960800  84.1499070 139.6986390 105.4631170  85.5611530 139.2634390
 104.0084790  86.8423480 141.8503950 103.2326890  86.3623920 142.1402520
 104.6597720  86.1629130 141.6760110  98.0250620  87.1543290 142.7279710
  97.1935500  86.8992000 143.1276220  98.6331600  87.2254060 143.4637630
 108.0292220  91.2483670 140.6303080 107.5673750  90.4770910 140.9590250
 108.8417770  91.2749740 141.1355530  98.0051880  91.1883380 142.9237730
  98.3079920  90.2981120 142.7447950  98.7495470  91.7453600 142.6959980
  94.3975580  84.7150830 142.3961800  94.9691690  83.9473030 142.3965440
  94.3977120  85.0139590 141.4868410 104.2555530  93.5341680 140.2507070
 103.6366970  93.9899180 139.6801510 105.1107310  93.6893140 139.8496770
 103.4493780  89.5180670 141.8574110 103.3802060  88.5770610 141.6963240
 104.2113640  89.6082080 142.4296680  95.6400450  80.1235190 144.1830730
  95.4603290  79.2260940 144.4633490  95.2380530  80.6707060 144.8577680
 104.4798950  82.3251050 142.0843040 104.8563770  81.4522930 141.9716710
 104.3818460  82.6609750 141.1933480  98.6103960  80.6976680 137.5460480
  98.7170710  81.5980410 137.8529240  97.6996320  80.6494650 137.2555130
 108.2623070  79.8201490 139.0171380 109.0832690  79.3298060 139.0596860
 108.2957150  80.4099150 139.7703220  96.2587120  82.6195690 142.7913070
  96.9397230  82.8834060 143.4100470  95.9435170  81.7796560 143.1251080
 100.4511690  83.6663050 141.8785660 100.9589910  84.1644020 142.5190680
 100.9824930  82.8898250 141.7025020 112.5522620  81.8368240 145.5815010
 111.8474790  82.2249950 145.0630120 112.8180540  82.5318530 146.1835940
  98.7347790  78.3061610 146.1449080  98.7366230  78.8234000 145.3394980
  97.9052100  77.8291790 146.1219010 105.1218880  88.4180920 137.6438980
 104.5036150  88.8830370 137.0801700 105.6342130  89.1108400 138.0608490
  99.9850640  87.9456790 144.3222580  99.6520020  88.5725710 144.9643650
 100.1617320  88.4718670 143.5424250 108.4984550  81.7601870 141.7898920
 107.7940120  82.0486760 142.3702030 108.8596710  82.5701980 141.4298480
  98.4163120  80.0171570 144.1519530  98.7579930  80.8613620 143.8573400
  97.4778930  80.1655310 144.2684870  99.1969740  89.9137590 146.1371760
  99.8143740  90.5888670 145.8556210  98.3362860  90.3225570 146.0459260
  94.4902080  89.1037450 135.0178610  94.1130060  89.5924550 134.2863510
  94.7475150  89.7762730 135.6485140 110.1147330  91.3777000 144.0526400
 109.4310850  92.0476110 144.0443070 110.6541620  91.5757650 143.2871260
 111.5671470  81.2056660 142.1808130 110.6196380  81.2395640 142.3123560
 111.8921460  82.0195610 142.5657490 102.0991010  77.5053840 140.4764120
 102.4065990  76.9500730 139.7599620 101.1691710  77.6398300 140.2937110
 107.6506070  93.2221130 142.7671580 107.6633230  92.8183420 141.8993840
 107.0981290  93.9968420 142.6633010 108.9451490  89.9437350 137.8561750
 108.8347820  89.0011680 137.9811170 108.9419740  90.3052990 138.7424510
 107.0491510  88.1250970 144.0954190 107.4660300  87.9111080 143.2607650
 107.7731330  88.3823760 144.6662810 104.4871770  85.5702670 137.2124240
 103.5601050  85.5040050 137.4412710 104.6396590  86.5082800 137.0979480
 104.4740850  81.8419670 134.2091400 103.5344520  82.0033630 134.2943860
 104.7924110  82.5605350 133.6627390 110.9953610  86.5238190 144.1870430
 110.1672240  86.5931280 143.7120560 111.5904090  87.1092500 143.7186260
 108.5169060  87.1322970 137.7159490 107.8981480  86.7942520 137.0685790
 108.4993510  86.4882730 138.4238680 107.9595620  83.3107510 145.1325300
 107.5466800  84.1361220 145.3865290 107.2271570  82.7252550 144.9401660
 100.0928410  86.0967410 139.9943970  99.6885410  85.3844660 139.4989870
 100.1791530  85.7520650 140.8832010 100.5610110  89.7834970 142.1583180
 100.2638400  89.1780440 141.4790960 101.5109930  89.8212280 142.0472540
  98.8057030  82.8710620 143.7743010  99.3571620  82.9805960 142.9996260
  99.3200540  83.2448220 144.4898240 108.6495720  93.3566840 145.8206280
 108.1726280  94.1639030 145.6278890 107.9657510  92.7045170 145.9732490
  99.6528540  89.5216660 148.8090980  98.7557070  89.7456630 149.0564380
  99.6781410  89.6451600 147.8602380 106.6933760  86.3709780 134.7232240
 107.1327040  85.5332210 134.5770060 107.4062180  87.0039180 134.8096380
  98.4799760  86.3929980 147.3848350  98.3407530  87.2652780 147.7535750
  97.5981120  86.0502790 147.2396290 104.8029140  91.3105850 138.6913480
 105.2425050  92.0530180 138.2768870 104.7416030  91.5532420 139.6152440
 100.2780110  92.3351680 149.5933500 100.2495540  92.7394630 148.7261930
 100.1145080  91.4062040 149.4305100 110.2750900  77.6252590 133.0373280
 109.9623560  77.7179420 133.9372350 111.0363370  78.2033620 132.9870710
  96.7933040  84.9912390 137.4950620  96.6730640  85.7174480 136.8831890
  96.4833930  84.2215300 137.0178530  94.4318410  88.1627530 143.3019260
  94.5098830  88.2976300 142.3574980  95.0460090  87.4543420 143.4947380
  95.6766040  89.8627720 139.7125440  95.2694120  90.0042310 138.8579040
  96.5679050  89.5787880 139.5096650 111.6328180  90.3091630 148.0497680
 111.7591240  90.0703510 147.1314860 111.6749560  89.4776170 148.5219760
 105.4944920  94.0119630 146.6192490 106.0089590  93.9227640 147.4214920
 104.6514000  94.3579330 146.9120400 107.4699320  94.2974970 136.0476490
 107.3100460  94.0077910 136.9458320 107.3046030  93.5215100 135.5121720
  99.9487700  94.0773500 137.8248110  99.7730180  93.1609040 137.6115910
  99.0943440  94.4360790 138.0645910 107.1725450  91.8062530 134.6074490
 106.4790610  91.8039820 133.9476770 107.9148310  91.3821850 134.1768660
 106.7375380  93.4325240 138.6822980 107.1932330  92.6514620 138.9961600
 107.0767900  94.1432060 139.2264160 111.4852190  82.3624090 149.0147420
 110.8696460  82.8703760 148.4862880 111.1648610  81.4622420 148.9573360
  94.4877930  89.2041700 145.8413720  94.6508970  88.7347060 145.0233090
  94.9530380  88.6965260 146.5062560  99.2596700  78.3347460 140.8774290
  98.8164850  79.1157000 140.5458810  99.8181690  78.6577350 141.5845230
 103.5466510  81.2015980 146.4809610 103.0845880  81.4099000 147.2929550
 103.1444620  80.3875330 146.1780280 108.5471020  82.4224930 147.6106270
 107.6964610  82.1230680 147.9315340 108.3872810  82.6666940 146.6990090
 105.6420730  83.9226680 149.7105060 105.9674140  83.0890430 149.3707290
 106.4301060  84.4455200 149.8583390 102.3755520  77.9558160 135.7580120
 101.7509700  77.9518030 136.4833430 102.2885640  77.0889120 135.3616090
 101.2972600  78.8794790 142.7363890 101.5944930  79.7857620 142.6555910
 101.8458160  78.3913570 142.1223460  99.0510920  83.4581030 138.6055540
  98.8251840  83.2418200 139.5102160  98.2703450  83.8909490 138.2601510
 106.2808680  83.4644400 137.2046190 105.6817570  84.1880200 137.0209810
 106.8288290  83.4021180 136.4222640 101.4910130  84.3566610 149.2715810
 101.3953730  83.4161340 149.1216210 102.3342110  84.5781680 148.8763880
 104.8873550  82.1007940 139.2349470 105.2803120  82.4180140 138.4218160
 105.2490400  81.2219820 139.3493990  96.6220670  80.7680280 147.4249590
  96.2284060  81.6155490 147.6322370  95.9339070  80.1306650 147.6158230
  93.9237720  78.6908740 141.4579670  93.6350770  79.2611600 142.1704650
  94.6683480  78.2113190 141.8210900 105.4728690  84.6913690 143.3300250
 104.7409810  85.2000500 143.6790350 105.0753030  83.8743670 143.0289030
 101.9106080  81.3667890 141.7352740 101.9142140  80.9257840 140.8857280
 102.8057200  81.6885220 141.8424560  97.7608460  81.2494380 140.6946950
  97.4208510  81.7269610 141.4514000  96.9985780  80.7959500 140.3348050
 101.9726230  82.3679970 134.7259500 102.0939050  82.3266450 135.6745320
 101.5874740  83.2304120 134.5706230 105.9354600  80.1447370 142.7423190
 105.9527340  80.5956020 143.5865040 105.6870180  79.2453010 142.9556630
 100.9847730  84.6781110 134.1242800 100.4164630  84.2299360 133.4978710
 101.6936730  85.0373890 133.5907950 109.3625350  77.5579550 148.5809570
 109.6871120  76.8269210 149.1067550 109.3981860  77.2393190 147.6790560
  96.0616910  88.5793130 148.0009530  95.6771700  87.9386800 148.5992490
  96.3729100  89.2829250 148.5704260 102.2114050  85.4269670 143.4818150
 102.5784180  84.9528240 144.2279490 102.0219110  86.3011240 143.8226490
  95.0754540  80.1713360 139.6111620  94.7901460  79.8069030 140.4490240
  95.0133400  79.4393820 138.9974760 100.0013420  84.4678310 145.8002360
  99.6970490  85.3470290 146.0252720 100.9559880  84.5278100 145.8359800
  98.5295210  88.6739300 136.3969210  97.7557470  88.1336920 136.2367930
  99.2589840  88.1545910 136.0586970 109.2883190  87.6704660 142.1895600
 110.0082310  88.1659950 141.7991710 109.0865010  86.9922550 141.5449470
 104.7493130  79.0642620 136.3324990 103.9357740  78.5655790 136.2570300
 104.5555080  79.9040870 135.9161340 104.6701990  87.7413720 148.0764600
 104.6039300  86.8209390 147.8222190 104.0407130  87.8389160 148.7909240
 107.4641520  83.4362270 134.6287150 108.3521140  83.7479500 134.4538490
 107.4346610  82.5634520 134.2367730  98.5732610  88.3419680 140.0348020
  99.0911280  87.5387940 139.9804910  98.1216630  88.2798820 140.8764850
 103.4602110  89.6085960 135.3075320 103.8017810  90.3528190 134.8118640
 102.6314820  89.9217080 135.6700150  96.0577150  85.3081050 146.9473720
  95.6992090  85.9734900 147.5347060  95.7631710  84.4764600 147.3186340
  99.2590270  85.7665290 149.8313270  98.9590410  85.9122470 148.9341090
 100.0301510  85.2070580 149.7386660 104.6018720  90.5634290 147.8268400
 104.6163260  89.6315250 147.6087310 103.8943820  90.6494050 148.4658170
 109.7355790  84.7474110 134.0967010 109.6519510  85.1788330 133.2463450
 110.4549980  85.2072460 134.5293830 110.8129930  87.2041630 147.1736980
 110.0878120  87.7970410 146.9766370 111.3405390  87.1965170 146.3750350
 110.7643040  91.6016370 136.8249140 110.1219200  90.9471990 137.0992860
 110.3773700  92.0071460 136.0489810 106.3429520  88.9301800 140.6720830
 106.6953340  88.3329930 140.0122200 105.4591850  88.6046030 140.8429080
 102.4292800  89.6899490 138.0791240 103.1163930  90.2368700 138.4598830
 101.6425220  90.2340220 138.1140850 101.7320010  86.6945520 137.6916600
 102.1882790  87.5050770 137.9176790 101.3808220  86.3768660 138.5235090
 104.0352620  92.2051860 144.9208900 104.6794840  92.4111240 145.5982320
 104.3982060  91.4440260 144.4679750  97.6331790  77.0383170 138.1639120
  97.5046420  77.0301070 139.1124040  96.8093810  77.3766260 137.8130130
 105.3084700  90.2084210 143.6386350 105.9506930  89.5077370 143.7518520
 105.8334050  90.9882650 143.4583240 109.1540420  90.4932830 133.3625490
 108.9278000  89.7763270 133.9550130 108.7636620  90.2445270 132.5247240
 107.0822320  91.0079110 146.8422410 107.4178560  91.5945800 147.5200330
 106.1622660  90.8771820 147.0720200  94.9356450  94.5199690 134.1369950
  95.2954090  95.1189030 133.4827220  94.7948790  95.0659580 134.9104980
  94.6325720  78.7974290 147.6245820  93.9184240  78.9971210 148.2298430
  95.0520760  78.0213860 147.9960620 108.7356670  88.4104770 135.0239650
 108.4478370  88.8717460 135.8117530 109.5308840  87.9502540 135.2923870
  94.9198310  92.7854550 148.6112350  95.0289430  91.8449290 148.4707740
  94.2678870  93.0509300 147.9626080 100.9525070  91.9030890 134.9543620
 100.9435170  92.6360580 134.3388130 100.0323430  91.6562470 135.0470580
  96.5531710  87.1245780 135.6990380  95.9459660  87.8644680 135.7085680
  97.0281060  87.2145140 134.8728580 106.1264500  81.2896600 145.3747270
 106.4945320  80.4691810 145.7026840 105.2662700  81.3498490 145.7902920
 109.4926530  80.2453540 136.1834830 108.8639690  80.3499210 135.4693060
 108.9978450  80.4650320 136.9728710 103.9384670  91.9659130 133.6168810
 104.0396650  91.7623120 132.6870790 103.0386410  91.7117410 133.8216590
 101.4610560  82.5239490 137.5992710 100.7526710  82.9925830 138.0406320
 101.7455040  81.8661500 138.2337900 103.0866490  83.9436190 145.5985240
 103.5851740  84.4182010 146.2637090 103.2289440  83.0199710 145.8055270
 105.4925990  79.2490150 139.0388500 105.3693770  79.2676280 138.0898010
 106.4410550  79.2969090 139.1586900 102.5802780  94.4845450 138.3116480
 102.8344280  94.4466840 137.3895850 101.6315260  94.3578780 138.3044730
 110.2933350  80.1604150 146.4413630 109.7906950  80.9009550 146.7807440
 111.1090010  80.5488150 146.1250420 108.5855360  85.4037330 139.8874990
 107.6445500  85.4187560 140.0622680 108.8999430  84.6173290 140.3335290
  98.5637000  87.0856930 133.4478950  99.3300270  86.9738290 134.0104380
  98.6411690  86.3894900 132.7955720 110.5880940  92.5746180 141.5629250
 110.7128360  93.3977350 142.0353060 111.4546500  92.3636910 141.2153400
  98.0598470  94.6677390 141.2346380  98.7960950  94.1192850 141.5054950
  98.4439390  95.5333400 141.0952370  94.9443950  90.7350960 137.1087890
  94.0183730  90.9772100 137.0993300  95.4100380  91.5625220 136.9872640
 101.1700780  93.8407700 133.0571950 101.9629390  94.1296530 132.6053740
 100.6505130  93.4099870 132.3784430 107.3321750  93.6883620 148.9816780
 108.2843500  93.6041640 148.9317020 107.1849970  94.3525330 149.6550570
 110.2230950  93.0677830 134.4808690 109.9372460  92.6542970 133.6662870
 110.0250500  93.9965540 134.3609210  94.7854560  86.3396920 149.3668010
  95.2893580  85.7604200 149.9384240  94.0461980  86.6237150 149.9044380
 101.6878180  89.0611110 132.9214300 101.5828820  88.4463460 133.6475680
 101.5202400  88.5377000 132.1377310 101.8392500  87.7467910 148.9003530
 101.0738170  88.3152910 148.8158200 102.0208460  87.4544120 148.0071760
 104.9280910  88.1231140 133.5256290 104.3791010  88.5700440 134.1699030
 105.5500170  87.6180390 134.0493960 108.9815850  89.4773240 149.4578550
 109.7225320  89.8149000 148.9546010 108.2188530  89.6465300 148.9048320
 100.5956030  87.0822060 135.4221590 101.0172450  86.9161930 136.2652980
 100.7206870  86.2722290 134.9276730  98.7583450  83.0618610 148.2292570
  98.2279910  82.5709560 147.6015910  99.4271520  83.4902810 147.6950500
 103.1083670  86.1059670 132.6698690 103.6289330  85.3908690 132.3039840
 103.7552070  86.7445540 132.9699200 107.6561510  87.5288070 147.9933760
 108.0702530  87.6833150 148.8424180 106.7212510  87.6543290 148.1559540
 108.1283680  84.8684230 149.9972910 108.7104450  84.1136550 149.9093390
 108.3045450  85.3991670 149.2204390  99.2455750  80.0280980 148.3089860
  99.1512620  79.4101730 147.5840730  98.6653140  80.7547270 148.0819770
 102.0117190  78.5854220 145.3417250 101.5634490  78.6078480 144.4962800
 101.3782390  78.1873240 145.9387550 102.4176740  87.4808550 145.9629690
 102.8364850  88.3241280 145.7905930 101.4985370  87.6180590 145.7336470
 104.7540640  85.2124730 147.3467530 104.8736850  84.6165870 148.0862370
 105.6134640  85.2494420 146.9268830 107.0928540  85.7661920 145.9230040
 106.5663760  86.2904540 145.3195180 107.4359880  86.3989310 146.5539770
  99.4914930  83.1555290 132.3679750  99.2903990  82.2922650 132.7293090
  99.3206980  83.0688650 131.4301350 100.2684160  93.7861560 147.0787420
  99.7305250  94.5107620 146.7596120 100.5218120  93.3091900 146.2884760
 101.5209410  81.7546080 148.6043350 102.1109100  81.4461930 149.2921170
 100.7029650  81.2825830 148.7603250 106.3402840  81.3711890 148.8376370
 105.6518360  80.7093430 148.7726360 107.0608860  80.9250160 149.2824830
 106.9703240  77.9663520 134.8966630 107.2505530  77.1231420 135.2526050
 106.1968970  78.1986630 135.4105380  98.2897730  80.2555910 132.3557630
  98.5923630  80.2623340 131.4476780  99.0292320  79.9053770 132.8525290
 103.1246370  95.0212770 147.3374070 103.0505070  95.9247910 147.6446440
 102.2225210  94.7024670 147.3096140 101.5082660  79.1990530 133.3413830
 101.1604660  78.5214520 132.7616280 101.7095430  78.7380040 134.1557220
 103.6731700  94.1871280 134.9600430 104.5682490  94.5256250 134.9819190
 103.7049330  93.4650690 134.3324710  97.3127860  89.5598330 133.1887430
  97.7502730  90.1028000 133.8445010  97.7975590  88.7345280 133.1983770
  94.5273660  92.3487360 140.6407690  94.8576670  91.4808420 140.4086330
  94.9564660  92.5545880 141.4712650  99.1235580  90.6796370 138.3009660
  98.8231120  90.5561340 139.2013570  99.0173070  89.8204960 137.8925390
  95.0163870  93.2157950 143.3789320  94.5794860  93.3958750 144.2113470
  95.5841550  93.9732570 143.2371040 110.6526050  92.7174950 147.6666630
 110.0528040  92.7767510 146.9230550 110.7819950  91.7779930 147.7963480
 111.8927500  90.4592770 133.0036340 111.0620460  90.5269420 133.4743570
 112.0699330  91.3496890 132.7003200 111.3483960  87.2040250 135.5070540
 112.1102870  87.7736900 135.6130230 111.3638330  86.6367450 136.2778850
  94.8488300  85.7278180 139.7378200  94.1937140  85.4589820 139.0937900
  95.6866250  85.6182660 139.2880180 112.3543930  88.0590350 140.3512470
 112.7252760  87.2757670 139.9448440 112.9945860  88.7479450 140.1729770
 109.3377690  89.4426930 145.7642790 108.5237530  89.8724090 146.0268580
 109.7451890  90.0545340 145.1511840 111.4003130  87.4974620 132.6643060
 111.6751970  88.4053500 132.5362280 111.2113870  87.4337150 133.6005050
 107.7978740  80.5219470 133.9596690 108.2163620  80.3350450 133.1193350
 107.4914800  79.6698520 134.2699620 111.2968470  85.4343610 137.6572490
 110.9212070  84.6671540 137.2253780 110.5671590  85.8166310 138.1447420
  95.8864230  86.1130750 144.2781540  96.2537270  86.0258150 145.1577560
  95.3175050  85.3497300 144.1788400 110.6868090  84.5815130 147.2912010
 110.4554180  84.3527880 146.3909960 110.9472640  85.5014680 147.2456900
  95.4380230  83.0239840 148.1839960  94.5436280  82.9906600 148.5233670
  95.9777780  83.2226630 148.9491210 110.5719430  83.6601100 140.9579730
 111.0956910  83.1663750 140.3269900 111.1578850  83.7951460 141.7027300
 110.7509150  83.7440970 144.4799280 109.8011860  83.7104510 144.5944270
 110.9322160  84.6541080 144.2449050  96.2527750  78.0481980 132.6300560
  96.9755880  78.5890920 132.9481780  96.5252270  77.7745400 131.7542100
 110.0619400  82.9174450 136.8972140 110.5578520  82.6845320 137.6821020
 109.8635470  82.0786290 136.4809780  95.9419940  77.2988170 142.5323180
  96.5896130  76.7485550 142.0918340  96.3621780  77.5531320 143.3538990
 111.4906560  81.5535400 139.4309820 111.3805840  81.3991440 140.3692090
 112.2514150  81.0256340 139.1885230 109.8372280  77.4929530 145.8892820
 110.4744500  78.1063670 146.2552010 109.9847170  77.5290190 144.9442050
 112.3796830  79.3843320 132.6715960 113.3046140  79.2524500 132.4634250
 112.3572620  79.4636140 133.6252410 112.4535320  80.1553980 135.2972670
 111.6586820  80.0899100 135.8265580 112.6578600  81.0904620 135.2858020
 109.3953740  94.1945530 139.2911060 109.9912810  93.8730100 138.6145480
 109.6531890  93.7217350 140.0824330  95.6951940  77.4543840 145.2748500
  95.3466760  77.9107660 146.0406680  95.3639640  76.5600970 145.3570930
 101.0022340  92.1823030 145.0411410 100.7613700  92.4497590 144.1541930
 101.9424980  92.3528760 145.0962270 103.2076760  78.6455720 148.7967920
 103.1465650  79.2377550 149.5463330 104.1477140  78.5381680 148.6518180
 105.8451320  78.3025780 148.4360210 106.4591730  78.6205070 147.7741290
 106.3900880  77.8174370 149.0556070 112.2626500  94.2017410 145.8422050
 111.7684780  94.5986280 145.1249180 111.6539790  93.5766620 146.2359330
  96.3672580  76.9820040 148.5499270  96.9155570  76.8008090 147.7865380
  96.4327890  76.1914150 149.0855580  97.1404340  93.5725690 146.5599470
  96.5464660  93.4410390 147.2989510  97.1328180  92.7363830 146.0941570
 106.5859360  76.8657920 144.7629500 105.7119200  77.1993030 144.5602430
 106.4770110  76.3931100 145.5881370 107.4931340  79.0728790 146.1471220
 107.1644700  78.2580550 145.7672950 108.4413640  79.0298600 146.0236910
 109.9465950  94.8440830 143.1208790 109.4868920  95.5956640 142.7466810
 109.3178410  94.1247300 143.0623590  96.7716570  90.9384070 145.5107510
  96.0450630  90.3189360 145.4433460  96.8325720  91.3324680 144.6405590
 100.3761670  93.1529070 142.2956920 100.8926690  92.5416430 141.7705180
 101.0259050  93.6557850 142.7867930 103.1157170  94.0437560 143.1225900
 103.4034980  93.7891860 142.2458910 103.6280390  93.4914920 143.7131470
 104.3334180  77.7827760 143.7022410 103.5505970  78.2573260 143.9819170
 104.0397110  76.8782590 143.5935590 108.8855250  78.4850860 141.7471500
 109.3263340  78.4295960 140.8993100 108.6162840  79.4008870 141.8181680
 110.7493820  78.1166100 139.7580320 110.6882220  77.1727320 139.6111340
 111.5285850  78.2246190 140.3033780  95.0546570  94.2558460 138.7204270
  94.8868610  93.6229140 139.4186160  94.1881080  94.4617860 138.3698460
 102.2188400  80.2014510 139.2138440 101.4062910  79.8271400 138.8734320
 102.7230040  79.4459590 139.5159630 106.7213380  76.8656960 140.4521510
 107.3242750  77.4377170 140.9270030 105.9806370  77.4296400 140.2295410
 109.8647980  77.2678520 135.7261790 110.0598610  78.1661970 135.9929220
 109.0777850  77.0365600 136.2194740  96.6609270  92.9491690 136.1654410
  96.1356890  93.3299720 135.4616370  96.5853850  93.5742460 136.8864120
 100.2437580  78.3514430 137.8183490  99.6140320  77.6501740 137.9853620
  99.7042720  79.1118560 137.6016650 111.4174590  94.5079230 137.4868350
 111.5926780  93.8216970 136.8429270 110.7196160  95.0326280 137.0945020
  99.2602240  94.8974070 135.0403660  99.9921060  94.6133350 134.4927550
  99.5195910  94.6587350 135.9303040  98.4217030  91.0138800 135.0449990
  97.7925910  91.4823900 135.5935820  98.5364860  90.1688020 135.4796180
 108.0292220  91.2483670 121.8559590 107.5673750  90.4770910 122.1846760
 108.8417770  91.2749740 122.3612040  96.4342570  82.1145180 117.7378610
  95.5459270  82.4561150 117.6358490  96.7183760  81.9145500 116.8459440
  94.3975580  84.7150830 123.6218310  94.9691690  83.9473030 123.6221950
  94.3977120  85.0139590 122.7124920 104.2555530  93.5341680 121.4763580
 103.6366970  93.9899180 120.9058020 105.1107310  93.6893140 121.0753280
 108.2623070  79.8201490 120.2427890 109.0832690  79.3298060 120.2853370
 108.2957150  80.4099150 120.9959730 105.1218880  88.4180920 118.8695490
 104.5036150  88.8830370 118.3058210 105.6342130  89.1108400 119.2865000
  99.9850640  87.9456790 125.5479090  99.6520020  88.5725710 126.1900160
 100.1617320  88.4718670 124.7680760  99.1969740  89.9137590 127.3628270
  99.8143740  90.5888670 127.0812720  98.3362860  90.3225570 127.2715770
  94.4902080  89.1037450 116.2435120  94.1130060  89.5924550 115.5120020
  94.7475150  89.7762730 116.8741650 110.1147330  91.3777000 125.2782910
 109.4310850  92.0476110 125.2699580 110.6541620  91.5757650 124.5127770
 107.6506070  93.2221130 123.9928090 107.6633230  92.8183420 123.1250350
 107.0981290  93.9968420 123.8889520 108.9451490  89.9437350 119.0818260
 108.8347820  89.0011680 119.2067680 108.9419740  90.3052990 119.9681020
 104.4871770  85.5702670 118.4380750 103.5601050  85.5040050 118.6669220
 104.6396590  86.5082800 118.3235990 110.9953610  86.5238190 125.4126940
 110.1672240  86.5931280 124.9377070 111.5904090  87.1092500 124.9442770
 108.5169060  87.1322970 118.9416000 107.8981480  86.7942520 118.2942300
 108.4993510  86.4882730 119.6495190 107.9595620  83.3107510 126.3581810
 107.5466800  84.1361220 126.6121800 107.2271570  82.7252550 126.1658170
 100.0928410  86.0967410 121.2200480  99.6885410  85.3844660 120.7246380
 100.1791530  85.7520650 122.1088520 108.6495720  93.3566840 127.0462790
 108.1726280  94.1639030 126.8535400 107.9657510  92.7045170 127.1989000
  99.6528540  89.5216660 130.0347490  98.7557070  89.7456630 130.2820890
  99.6781410  89.6451600 129.0858890 104.8029140  91.3105850 119.9169990
 105.2425050  92.0530180 119.5025380 104.7416030  91.5532420 120.8408950
 100.2780110  92.3351680 130.8190010 100.2495540  92.7394630 129.9518440
 100.1145080  91.4062040 130.6561610  96.7933040  84.9912390 118.7207130
  96.6730640  85.7174480 118.1088400  96.4833930  84.2215300 118.2435040
 112.2294930  93.1178780 132.1154180 112.7054650  93.5961670 132.7943260
 112.8502090  93.0496270 131.3899680 111.6328180  90.3091630 129.2754190
 111.7591240  90.0703510 128.3571370 111.6749560  89.4776170 129.7476270
 105.4944920  94.0119630 127.8449000 106.0089590  93.9227640 128.6471430
 104.6514000  94.3579330 128.1376910 107.4699320  94.2974970 117.2733000
 107.3100460  94.0077910 118.1714830 107.3046030  93.5215100 116.7378230
  99.9487700  94.0773500 119.0504620  99.7730180  93.1609040 118.8372420
  99.0943440  94.4360790 119.2902420 106.7375380  93.4325240 119.9079490
 107.1932330  92.6514620 120.2218110 107.0767900  94.1432060 120.4520670
 111.4852190  82.3624090 130.2403930 110.8696460  82.8703760 129.7119390
 111.1648610  81.4622420 130.1829870  94.4877930  89.2041700 127.0670230
  94.6508970  88.7347060 126.2489600  94.9530380  88.6965260 127.7319070
 108.5471020  82.4224930 128.8362780 107.6964610  82.1230680 129.1571850
 108.3872810  82.6666940 127.9246600 105.6420730  83.9226680 130.9361570
 105.9674140  83.0890430 130.5963800 106.4301060  84.4455200 131.0839900
  99.0510920  83.4581030 119.8312050  98.8251840  83.2418200 120.7358670
  98.2703450  83.8909490 119.4858020  94.1107950  82.6328860 113.8938900
  94.0282620  83.5759620 114.0353890  93.7591010  82.4903770 113.0151250
 100.9847730  84.6781110 115.3499310 100.4164630  84.2299360 114.7235220
 101.6936730  85.0373890 114.8164460 109.3625350  77.5579550 129.8066080
 109.6871120  76.8269210 130.3324060 109.3981860  77.2393190 128.9047070
  96.0616910  88.5793130 129.2266040  95.6771700  87.9386800 129.8249000
  96.3729100  89.2829250 129.7960770  95.0754540  80.1713360 120.8368130
  94.7901460  79.8069030 121.6746750  95.0133400  79.4393820 120.2231270
  98.5295210  88.6739300 117.6225720  97.7557470  88.1336920 117.4624440
  99.2589840  88.1545910 117.2843480 104.6701990  87.7413720 129.3021110
 104.6039300  86.8209390 129.0478700 104.0407130  87.8389160 130.0165750
 103.4602110  89.6085960 116.5331830 103.8017810  90.3528190 116.0375150
 102.6314820  89.9217080 116.8956660 104.6018720  90.5634290 129.0524910
 104.6163260  89.6315250 128.8343820 103.8943820  90.6494050 129.6914680
 110.8129930  87.2041630 128.3993490 110.0878120  87.7970410 128.2022880
 111.3405390  87.1965170 127.6006860 102.4292800  89.6899490 119.3047750
 103.1163930  90.2368700 119.6855340 101.6425220  90.2340220 119.3397360
  94.5685200  85.3072310 114.7964830  95.4380050  85.5897110 115.0800750
  94.0775520  86.1208180 114.6813640 101.7320010  86.6945520 118.9173110
 102.1882790  87.5050770 119.1433300 101.3808220  86.3768660 119.7491600
 104.0352620  92.2051860 126.1465410 104.6794840  92.4111240 126.8238830
 104.3982060  91.4440260 125.6936260 105.3084700  90.2084210 124.8642860
 105.9506930  89.5077370 124.9775030 105.8334050  90.9882650 124.6839750
 107.0822320  91.0079110 128.0678920 107.4178560  91.5945800 128.7456840
 106.1622660  90.8771820 128.2976710  94.9356450  94.5199690 115.3626460
  95.2954090  95.1189030 114.7083730  94.7948790  95.0659580 116.1361490
  94.6325720  78.7974290 128.8502330  93.9184240  78.9971210 129.4554940
  95.0520760  78.0213860 129.2217130 108.7356670  88.4104770 116.2496160
 108.4478370  88.8717460 117.0374040 109.5308840  87.9502540 116.5180380
  94.9198310  92.7854550 129.8368860  95.0289430  91.8449290 129.6964250
  94.2678870  93.0509300 129.1882590 102.9110900  91.0570440 131.2366980
 102.5907770  90.3379680 131.7812670 102.2369260  91.7325510 131.3103040
 100.9525070  91.9030890 116.1800130 100.9435170  92.6360580 115.5644640
 100.0323430  91.6562470 116.2727090  96.5531710  87.1245780 116.9246890
  95.9459660  87.8644680 116.9342190  97.0281060  87.2145140 116.0985090
 102.5802780  94.4845450 119.5372990 102.8344280  94.4466840 118.6152360
 101.6315260  94.3578780 119.5301240  98.5637000  87.0856930 114.6735460
  99.3300270  86.9738290 115.2360890  98.6411690  86.3894900 114.0212230
  97.2583760  84.5182000 115.3568350  97.3387350  83.5709510 115.4685750
  98.1503510  84.8488880 115.4629010 110.5880940  92.5746180 122.7885760
 110.7128360  93.3977350 123.2609570 111.4546500  92.3636910 122.4409910
  94.9443950  90.7350960 118.3344400  94.0183730  90.9772100 118.3249810
  95.4100380  91.5625220 118.2129150  97.0656750  93.8523460 131.6488470
  97.8669480  94.1735510 132.0623870  96.5508570  93.4919040 132.3708380
 101.1700780  93.8407700 114.2828460 101.9629390  94.1296530 113.8310250
 100.6505130  93.4099870 113.6040940 105.9021380  89.9603330 131.5963880
 105.2959540  89.9834930 130.8559630 105.5975490  89.2286370 132.1331130
 107.3321750  93.6883620 130.2073290 108.2843500  93.6041640 130.1573530
 107.1849970  94.3525330 130.8807080  94.7854560  86.3396920 130.5924520
  95.2893580  85.7604200 131.1640750  94.0461980  86.6237150 131.1300890
 101.6878180  89.0611110 114.1470810 101.5828820  88.4463460 114.8732190
 101.5202400  88.5377000 113.3633820 101.8392500  87.7467910 130.1260040
 101.0738170  88.3152910 130.0414710 102.0208460  87.4544120 129.2328270
 108.9815850  89.4773240 130.6835060 109.7225320  89.8149000 130.1802520
 108.2188530  89.6465300 130.1304830 100.5956030  87.0822060 116.6478100
 101.0172450  86.9161930 117.4909490 100.7206870  86.2722290 116.1533240
 107.6561510  87.5288070 129.2190270 108.0702530  87.6833150 130.0680690
 106.7212510  87.6543290 129.3816050 108.1283680  84.8684230 131.2229420
 108.7104450  84.1136550 131.1349900 108.3045450  85.3991670 130.4460900
 104.7540640  85.2124730 128.5724040 104.8736850  84.6165870 129.3118880
 105.6134640  85.2494420 128.1525340  99.4914930  83.1555290 113.5936260
  99.2903990  82.2922650 113.9549600  99.3206980  83.0688650 112.6557860
 100.2684160  93.7861560 128.3043930  99.7305250  94.5107620 127.9852630
 100.5218120  93.3091900 127.5141270 106.3402840  81.3711890 130.0632880
 105.6518360  80.7093430 129.9982870 107.0608860  80.9250160 130.5081340
  98.2897730  80.2555910 113.5814140  98.5923630  80.2623340 112.6733290
  99.0292320  79.9053770 114.0781800 103.1246370  95.0212770 128.5630580
 103.0505070  95.9247910 128.8702950 102.2225210  94.7024670 128.5352650
 103.6731700  94.1871280 116.1856940 104.5682490  94.5256250 116.2075700
 103.7049330  93.4650690 115.5581220  97.3127860  89.5598330 114.4143940
  97.7502730  90.1028000 115.0701520  97.7975590  88.7345280 114.4240280
  99.1235580  90.6796370 119.5266170  98.8231120  90.5561340 120.4270080
  99.0173070  89.8204960 119.1181900 110.6526050  92.7174950 128.8923140
 110.0528040  92.7767510 128.1487060 110.7819950  91.7779930 129.0219990
 111.3483960  87.2040250 116.7327050 112.1102870  87.7736900 116.8386740
 111.3638330  86.6367450 117.5035360  94.8488300  85.7278180 120.9634710
  94.1937140  85.4589820 120.3194410  95.6866250  85.6182660 120.5136690
 112.3543930  88.0590350 121.5768980 112.7252760  87.2757670 121.1704950
 112.9945860  88.7479450 121.3986280 109.3377690  89.4426930 126.9899300
 108.5237530  89.8724090 127.2525090 109.7451890  90.0545340 126.3768350
 111.2968470  85.4343610 118.8829000 110.9212070  84.6671540 118.4510290
 110.5671590  85.8166310 119.3703930 110.6868090  84.5815130 128.5168520
 110.4554180  84.3527880 127.6166470 110.9472640  85.5014680 128.4713410
 109.1256160  79.8071560 131.2948220 110.0026340  79.8154960 131.6782220
 109.1377000  79.0702400 130.6840570  94.0626380  82.9377110 116.9060040
  93.1590460  83.2007310 116.7311700  94.5467000  83.2088280 116.1260000
  96.6053590  81.9942650 114.8154420  97.3145290  81.5725870 114.3301700
  95.8893530  82.0617880 114.1837770  96.2527750  78.0481980 113.8557070
  96.9755880  78.5890920 114.1738290  96.5252270  77.7745400 112.9798610
 110.0619400  82.9174450 118.1228650 110.5578520  82.6845320 118.9077530
 109.8635470  82.0786290 117.7066290 112.4535320  80.1553980 116.5229180
 111.6586820  80.0899100 117.0522090 112.6578600  81.0904620 116.5114530
 109.3953740  94.1945530 120.5167570 109.9912810  93.8730100 119.8401990
 109.6531890  93.7217350 121.3080840  95.6951940  77.4543840 126.5005010
  95.3466760  77.9107660 127.2663190  95.3639640  76.5600970 126.5827440
  97.3016310  90.6263440 130.6658200  97.2585940  90.2556350 131.5472660
  97.4327320  91.5641010 130.8060020 101.0022340  92.1823030 126.2667920
 100.7613700  92.4497590 125.3798440 101.9424980  92.3528760 126.3218780
 105.8451320  78.3025780 129.6616720 106.4591730  78.6205070 128.9997800
 106.3900880  77.8174370 130.2812580 112.2626500  94.2017410 127.0678560
 111.7684780  94.5986280 126.3505690 111.6539790  93.5766620 127.4615840
  96.3672580  76.9820040 129.7755780  96.9155570  76.8008090 129.0121890
  96.4327890  76.1914150 130.3112090  97.1404340  93.5725690 127.7855980
  96.5464660  93.4410390 128.5246020  97.1328180  92.7363830 127.3198080
 109.9465950  94.8440830 124.3465300 109.4868920  95.5956640 123.9723320
 109.3178410  94.1247300 124.2880100 103.1157170  94.0437560 124.3482410
 103.4034980  93.7891860 123.4715420 103.6280390  93.4914920 124.9387980
  95.0546570  94.2558460 119.9460780  94.8868610  93.6229140 120.6442670
  94.1881080  94.4617860 119.5954970 106.7213380  76.8656960 121.6778020
 107.3242750  77.4377170 122.1526540 105.9806370  77.4296400 121.4551920
  96.6609270  92.9491690 117.3910920  96.1356890  93.3299720 116.6872880
  96.5853850  93.5742460 118.1120630 103.1829530  94.9653660 131.7150610
 104.1096840  94.7297930 131.7586570 103.1679960  95.7925660 131.2336640
 100.3693140  77.6298410 131.4792490 100.0877410  78.1332010 130.7153310
 100.7512840  76.8320160 131.1134620  99.2602240  94.8974070 116.2660170
  99.9921060  94.6133350 115.7184060  99.5195910  94.6587350 117.1559550
  98.4217030  91.0138800 116.2706500  97.7925910  91.4823900 116.8192330
  98.5364860  90.1688020 116.7052690 106.9708600  77.0451990 132.0572960
 106.8574050  77.3646600 132.9524480 107.7878340  77.4464500 131.7610240
 109.7507090  94.1923520 131.5391650 110.5432410  93.6972750 131.3317610
 110.0440240  94.8713660 132.1467260 104.0084790  86.8423480 104.3016970
 103.2326890  86.3623920 104.5915540 104.6597720  86.1629130 104.1273130
  98.0250620  87.1543290 105.1792730  97.1935500  86.8992000 105.5789240
  98.6331600  87.2254060 105.9150650  98.0051880  91.1883380 105.3750750
  98.3079920  90.2981120 105.1960970  98.7495470  91.7453600 105.1473000
  96.4342570  82.1145180  98.9635120  95.5459270  82.4561150  98.8615000
  96.7183760  81.9145500  98.0715950  94.3975580  84.7150830 104.8474820
  94.9691690  83.9473030 104.8478460  94.3977120  85.0139590 103.9381430
 103.4493780  89.5180670 104.3087130 103.3802060  88.5770610 104.1476260
 104.2113640  89.6082080 104.8809700  98.6103960  80.6976680  99.9973500
  98.7170710  81.5980410 100.3042260  97.6996320  80.6494650  99.7068150
  99.9850640  87.9456790 106.7735600  99.6520020  88.5725710 107.4156670
 100.1617320  88.4718670 105.9937270  99.1969740  89.9137590 108.5884780
  99.8143740  90.5888670 108.3069230  98.3362860  90.3225570 108.4972280
  94.4902080  89.1037450  97.4691630  94.1130060  89.5924550  96.7376530
  94.7475150  89.7762730  98.0998160 108.9451490  89.9437350 100.3074770
 108.8347820  89.0011680 100.4324190 108.9419740  90.3052990 101.1937530
 107.0491510  88.1250970 106.5467210 107.4660300  87.9111080 105.7120670
 107.7731330  88.3823760 107.1175830 104.4871770  85.5702670  99.6637260
 103.5601050  85.5040050  99.8925730 104.6396590  86.5082800  99.5492500
 104.4740850  81.8419670  96.6604420 103.5344520  82.0033630  96.7456880
 104.7924110  82.5605350  96.1140410 108.5169060  87.1322970 100.1672510
 107.8981480  86.7942520  99.5198810 108.4993510  86.4882730 100.8751700
 100.0928410  86.0967410 102.4456990  99.6885410  85.3844660 101.9502890
 100.1791530  85.7520650 103.3345030 100.5610110  89.7834970 104.6096200
 100.2638400  89.1780440 103.9303980 101.5109930  89.8212280 104.4985560
  99.6528540  89.5216660 111.2604000  98.7557070  89.7456630 111.5077400
  99.6781410  89.6451600 110.3115400 106.6933760  86.3709780  97.1745260
 107.1327040  85.5332210  97.0283080 107.4062180  87.0039180  97.2609400
  98.4799760  86.3929980 109.8361370  98.3407530  87.2652780 110.2048770
  97.5981120  86.0502790 109.6909310 100.2780110  92.3351680 112.0446520
 100.2495540  92.7394630 111.1774950 100.1145080  91.4062040 111.8818120
 110.2750900  77.6252590  95.4886300 109.9623560  77.7179420  96.3885370
 111.0363370  78.2033620  95.4383730  96.7933040  84.9912390  99.9463640
  96.6730640  85.7174480  99.3344910  96.4833930  84.2215300  99.4691550
  94.4318410  88.1627530 105.7532280  94.5098830  88.2976300 104.8088000
  95.0460090  87.4543420 105.9460400  95.6766040  89.8627720 102.1638460
  95.2694120  90.0042310 101.3092060  96.5679050  89.5787880 101.9609670
 111.6328180  90.3091630 110.5010700 111.7591240  90.0703510 109.5827880
 111.6749560  89.4776170 110.9732780 106.7375380  93.4325240 101.1336000
 107.1932330  92.6514620 101.4474620 107.0767900  94.1432060 101.6777180
  94.4877930  89.2041700 108.2926740  94.6508970  88.7347060 107.4746110
  94.9530380  88.6965260 108.9575580 103.5466510  81.2015980 108.9322630
 103.0845880  81.4099000 109.7442570 103.1444620  80.3875330 108.6293300
  99.0510920  83.4581030 101.0568560  98.8251840  83.2418200 101.9615180
  98.2703450  83.8909490 100.7114530 106.2808680  83.4644400  99.6559210
 105.6817570  84.1880200  99.4722830 106.8288290  83.4021180  98.8735660
 101.4910130  84.3566610 111.7228830 101.3953730  83.4161340 111.5729230
 102.3342110  84.5781680 111.3276900  96.6220670  80.7680280 109.8762610
  96.2284060  81.6155490 110.0835390  95.9339070  80.1306650 110.0671250
  93.9237720  78.6908740 103.9092690  93.6350770  79.2611600 104.6217670
  94.6683480  78.2113190 104.2723920  94.1107950  82.6328860  95.1195410
  94.0282620  83.5759620  95.2610400  93.7591010  82.4903770  94.2407760
 101.9726230  82.3679970  97.1772520 102.0939050  82.3266450  98.1258340
 101.5874740  83.2304120  97.0219250 100.9847730  84.6781110  96.5755820
 100.4164630  84.2299360  95.9491730 101.6936730  85.0373890  96.0420970
  96.0616910  88.5793130 110.4522550  95.6771700  87.9386800 111.0505510
  96.3729100  89.2829250 111.0217280 102.2114050  85.4269670 105.9331170
 102.5784180  84.9528240 106.6792510 102.0219110  86.3011240 106.2739510
  95.0754540  80.1713360 102.0624640  94.7901460  79.8069030 102.9003260
  95.0133400  79.4393820 101.4487780 100.0013420  84.4678310 108.2515380
  99.6970490  85.3470290 108.4765740 100.9559880  84.5278100 108.2872820
 109.2883190  87.6704660 104.6408620 110.0082310  88.1659950 104.2504730
 109.0865010  86.9922550 103.9962490 107.4641520  83.4362270  97.0800170
 108.3521140  83.7479500  96.9051510 107.4346610  82.5634520  96.6880750
  98.5732610  88.3419680 102.4861040  99.0911280  87.5387940 102.4317930
  98.1216630  88.2798820 103.3277870  96.0577150  85.3081050 109.3986740
  95.6992090  85.9734900 109.9860080  95.7631710  84.4764600 109.7699360
  99.2590270  85.7665290 112.2826290  98.9590410  85.9122470 111.3854110
 100.0301510  85.2070580 112.1899680 109.7355790  84.7474110  96.5480030
 109.6519510  85.1788330  95.6976470 110.4549980  85.2072460  96.9806850
 106.3429520  88.9301800 103.1233850 106.6953340  88.3329930 102.4635220
 105.4591850  88.6046030 103.2942100  94.5685200  85.3072310  96.0221340
  95.4380050  85.5897110  96.3057260  94.0775520  86.1208180  95.9070150
 104.0352620  92.2051860 107.3721920 104.6794840  92.4111240 108.0495340
 104.3982060  91.4440260 106.9192770  97.6331790  77.0383170 100.6152140
  97.5046420  77.0301070 101.5637060  96.8093810  77.3766260 100.2643150
  94.9356450  94.5199690  96.5882970  95.2954090  95.1189030  95.9340240
  94.7948790  95.0659580  97.3618000  94.6325720  78.7974290 110.0758840
  93.9184240  78.9971210 110.6811450  95.0520760  78.0213860 110.4473640
  94.9198310  92.7854550 111.0625370  95.0289430  91.8449290 110.9220760
  94.2678870  93.0509300 110.4139100  96.5531710  87.1245780  98.1503400
  95.9459660  87.8644680  98.1598700  97.0281060  87.2145140  97.3241600
 109.4926530  80.2453540  98.6347850 108.8639690  80.3499210  97.9206080
 108.9978450  80.4650320  99.4241730 101.4610560  82.5239490 100.0505730
 100.7526710  82.9925830 100.4919340 101.7455040  81.8661500 100.6850920
  99.6645580  80.8324570  97.4256440 100.5136110  81.2694720  97.3596630
  99.2976850  81.1444830  98.2528500  98.5637000  87.0856930  95.8991970
  99.3300270  86.9738290  96.4617400  98.6411690  86.3894900  95.2468740
  97.2583760  84.5182000  96.5824860  97.3387350  83.5709510  96.6942260
  98.1503510  84.8488880  96.6885520  94.9443950  90.7350960  99.5600910
  94.0183730  90.9772100  99.5506320  95.4100380  91.5625220  99.4385660
  97.0656750  93.8523460 112.8744980  97.8669480  94.1735510 113.2880380
  96.5508570  93.4919040 113.5964890 101.1700780  93.8407700  95.5084970
 101.9629390  94.1296530  95.0566760 100.6505130  93.4099870  94.8297450
  94.7854560  86.3396920 111.8181030  95.2893580  85.7604200 112.3897260
  94.0461980  86.6237150 112.3557400 101.8392500  87.7467910 111.3516550
 101.0738170  88.3152910 111.2671220 102.0208460  87.4544120 110.4584780
  96.8177640  84.4826510 112.7131100  96.8582980  84.1840380 113.6216330
  97.6723140  84.8834120 112.5538620  98.7583450  83.0618610 110.6805590
  98.2279910  82.5709560 110.0528930  99.4271520  83.4902810 110.1463520
 103.1083670  86.1059670  95.1211710 103.6289330  85.3908690  94.7552860
 103.7552070  86.7445540  95.4212220  99.2455750  80.0280980 110.7602880
  99.1512620  79.4101730 110.0353750  98.6653140  80.7547270 110.5332790
 102.4176740  87.4808550 108.4142710 102.8364850  88.3241280 108.2418950
 101.4985370  87.6180590 108.1849490  99.4914930  83.1555290  94.8192770
  99.2903990  82.2922650  95.1806110  99.3206980  83.0688650  93.8814370
 100.2684160  93.7861560 109.5300440  99.7305250  94.5107620 109.2109140
 100.5218120  93.3091900 108.7397780 101.5209410  81.7546080 111.0556370
 102.1109100  81.4461930 111.7434190 100.7029650  81.2825830 111.2116270
  98.2897730  80.2555910  94.8070650  98.5923630  80.2623340  93.8989800
  99.0292320  79.9053770  95.3038310  97.3127860  89.5598330  95.6400450
  97.7502730  90.1028000  96.2958030  97.7975590  88.7345280  95.6496790
  94.5273660  92.3487360 103.0920710  94.8576670  91.4808420 102.8599350
  94.9564660  92.5545880 103.9225670  95.0163870  93.2157950 105.8302340
  94.5794860  93.3958750 106.6626490  95.5841550  93.9732570 105.6884060
 111.3483960  87.2040250  97.9583560 112.1102870  87.7736900  98.0643250
 111.3638330  86.6367450  98.7291870  94.8488300  85.7278180 102.1891220
  94.1937140  85.4589820 101.5450920  95.6866250  85.6182660 101.7393200
 112.3543930  88.0590350 102.8025490 112.7252760  87.2757670 102.3961460
 112.9945860  88.7479450 102.6242790 111.4003130  87.4974620  95.1156080
 111.6751970  88.4053500  94.9875300 111.2113870  87.4337150  96.0518070
 111.2968470  85.4343610 100.1085510 110.9212070  84.6671540  99.6766800
 110.5671590  85.8166310 100.5960440  95.8864230  86.1130750 106.7294560
  96.2537270  86.0258150 107.6090580  95.3175050  85.3497300 106.6301420
  95.4380230  83.0239840 110.6352980  94.5436280  82.9906600 110.9746690
  95.9777780  83.2226630 111.4004230  94.0626380  82.9377110  98.1316550
  93.1590460  83.2007310  97.9568210  94.5467000  83.2088280  97.3516510
  96.6053590  81.9942650  96.0410930  97.3145290  81.5725870  95.5558210
  95.8893530  82.0617880  95.4094280  96.2527750  78.0481980  95.0813580
  96.9755880  78.5890920  95.3994800  96.5252270  77.7745400  94.2055120
 110.0619400  82.9174450  99.3485160 110.5578520  82.6845320 100.1334040
 109.8635470  82.0786290  98.9322800 112.3796830  79.3843320  95.1228980
 113.3046140  79.2524500  94.9147270 112.3572620  79.4636140  96.0765430
 112.4535320  80.1553980  97.7485690 111.6586820  80.0899100  98.2778600
 112.6578600  81.0904620  97.7371040  95.6951940  77.4543840 107.7261520
  95.3466760  77.9107660 108.4919700  95.3639640  76.5600970 107.8083950
  97.3016310  90.6263440 111.8914710  97.2585940  90.2556350 112.7729170
  97.4327320  91.5641010 112.0316530 101.0022340  92.1823030 107.4924430
 100.7613700  92.4497590 106.6054950 101.9424980  92.3528760 107.5475290
 103.2076760  78.6455720 111.2480940 103.1465650  79.2377550 111.9976350
 104.1477140  78.5381680 111.1031200  96.3672580  76.9820040 111.0012290
  96.9155570  76.8008090 110.2378400  96.4327890  76.1914150 111.5368600
  97.1404340  93.5725690 109.0112490  96.5464660  93.4410390 109.7502530
  97.1328180  92.7363830 108.5454590 106.5859360  76.8657920 107.2142520
 105.7119200  77.1993030 107.0115450 106.4770110  76.3931100 108.0394390
  96.7716570  90.9384070 107.9620530  96.0450630  90.3189360 107.8946480
  96.8325720  91.3324680 107.0918610  95.0546570  94.2558460 101.1717290
  94.8868610  93.6229140 101.8699180  94.1881080  94.4617860 100.8211480
  95.6774590  78.0875240  98.6749150  96.4353950  78.2004120  98.1013180
  95.2151760  78.9244440  98.6292580 109.8647980  77.2678520  98.1774810
 110.0598610  78.1661970  98.4442240 109.0777850  77.0365600  98.6707760
  96.6609270  92.9491690  98.6167430  96.1356890  93.3299720  97.9129390
  96.5853850  93.5742460  99.3377140  98.0499740  78.6139290  97.2151120
  98.5792500  77.8269090  97.0859070  98.6828060  79.2930480  97.4486650
 100.2437580  78.3514430 100.2696510  99.6140320  77.6501740 100.4366640
  99.7042720  79.1118560 100.0529670 111.4174590  94.5079230  99.9381370
 111.5926780  93.8216970  99.2942290 110.7196160  95.0326280  99.5458040
 100.3693140  77.6298410 112.7049000 100.0877410  78.1332010 111.9409820
 100.7512840  76.8320160 112.3391130  99.2602240  94.8974070  97.4916680
  99.9921060  94.6133350  96.9440570  99.5195910  94.6587350  98.3816060
  96.4342570  82.1145180  80.1891630  95.5459270  82.4561150  80.0871510
  96.7183760  81.9145500  79.2972460 104.2555530  93.5341680  83.9276600
 103.6366970  93.9899180  83.3571040 105.1107310  93.6893140  83.5266300
  95.6400450  80.1235190  87.8600260  95.4603290  79.2260940  88.1403020
  95.2380530  80.6707060  88.5347210  98.6103960  80.6976680  81.2230010
  98.7170710  81.5980410  81.5298770  97.6996320  80.6494650  80.9324660
 108.2623070  79.8201490  82.6940910 109.0832690  79.3298060  82.7366390
 108.2957150  80.4099150  83.4472750 105.1218880  88.4180920  81.3208510
 104.5036150  88.8830370  80.7571230 105.6342130  89.1108400  81.7378020
 108.4984550  81.7601870  85.4668450 107.7940120  82.0486760  86.0471560
 108.8596710  82.5701980  85.1068010  99.1969740  89.9137590  89.8141290
  99.8143740  90.5888670  89.5325740  98.3362860  90.3225570  89.7228790
  94.4902080  89.1037450  78.6948140  94.1130060  89.5924550  77.9633040
  94.7475150  89.7762730  79.3254670 108.9451490  89.9437350  81.5331280
 108.8347820  89.0011680  81.6580700 108.9419740  90.3052990  82.4194040
 104.4871770  85.5702670  80.8893770 103.5601050  85.5040050  81.1182240
 104.6396590  86.5082800  80.7749010 104.4740850  81.8419670  77.8860930
 103.5344520  82.0033630  77.9713390 104.7924110  82.5605350  77.3396920
 108.5169060  87.1322970  81.3929020 107.8981480  86.7942520  80.7455320
 108.4993510  86.4882730  82.1008210 100.0928410  86.0967410  83.6713500
  99.6885410  85.3844660  83.1759400 100.1791530  85.7520650  84.5601540
 100.5610110  89.7834970  85.8352710 100.2638400  89.1780440  85.1560490
 101.5109930  89.8212280  85.7242070  99.6528540  89.5216660  92.4860510
  98.7557070  89.7456630  92.7333910  99.6781410  89.6451600  91.5371910
 106.6933760  86.3709780  78.4001770 107.1327040  85.5332210  78.2539590
 107.4062180  87.0039180  78.4865910 104.8029140  91.3105850  82.3683010
 105.2425050  92.0530180  81.9538400 104.7416030  91.5532420  83.2921970
 100.2780110  92.3351680  93.2703030 100.2495540  92.7394630  92.4031460
 100.1145080  91.4062040  93.1074630 110.2750900  77.6252590  76.7142810
 109.9623560  77.7179420  77.6141880 111.0363370  78.2033620  76.6640240
  96.7933040  84.9912390  81.1720150  96.6730640  85.7174480  80.5601420
  96.4833930  84.2215300  80.6948060 105.4944920  94.0119630  90.2962020
 106.0089590  93.9227640  91.0984450 104.6514000  94.3579330  90.5889930
 107.4699320  94.2974970  79.7246020 107.3100460  94.0077910  80.6227850
 107.3046030  93.5215100  79.1891250  99.9487700  94.0773500  81.5017640
  99.7730180  93.1609040  81.2885440  99.0943440  94.4360790  81.7415440
 106.7375380  93.4325240  82.3592510 107.1932330  92.6514620  82.6731130
 107.0767900  94.1432060  82.9033690  99.0510920  83.4581030  82.2825070
  98.8251840  83.2418200  83.1871690  98.2703450  83.8909490  81.9371040
 106.2808680  83.4644400  80.8815720 105.6817570  84.1880200  80.6979340
 106.8288290  83.4021180  80.0992170  96.6220670  80.7680280  91.1019120
  96.2284060  81.6155490  91.3091900  95.9339070  80.1306650  91.2927760
  97.7608460  81.2494380  84.3716480  97.4208510  81.7269610  85.1283530
  96.9985780  80.7959500  84.0117580 101.9726230  82.3679970  78.4029030
 102.0939050  82.3266450  79.3514850 101.5874740  83.2304120  78.2475760
 105.9354600  80.1447370  86.4192720 105.9527340  80.5956020  87.2634570
 105.6870180  79.2453010  86.6326160 100.9847730  84.6781110  77.8012330
 100.4164630  84.2299360  77.1748240 101.6936730  85.0373890  77.2677480
  96.0616910  88.5793130  91.6779060  95.6771700  87.9386800  92.2762020
  96.3729100  89.2829250  92.2473790  95.0754540  80.1713360  83.2881150
  94.7901460  79.8069030  84.1259770  95.0133400  79.4393820  82.6744290
  98.5295210  88.6739300  80.0738740  97.7557470  88.1336920  79.9137460
  99.2589840  88.1545910  79.7356500 107.4641520  83.4362270  78.3056680
 108.3521140  83.7479500  78.1308020 107.4346610  82.5634520  77.9137260
 103.4602110  89.6085960  78.9844850 103.8017810  90.3528190  78.4888170
 102.6314820  89.9217080  79.3469680  99.2590270  85.7665290  93.5082800
  98.9590410  85.9122470  92.6110620 100.0301510  85.2070580  93.4156190
 109.7355790  84.7474110  77.7736540 109.6519510  85.1788330  76.9232980
 110.4549980  85.2072460  78.2063360 110.7643040  91.6016370  80.5018670
 110.1219200  90.9471990  80.7762390 110.3773700  92.0071460  79.7259340
 102.4292800  89.6899490  81.7560770 103.1163930  90.2368700  82.1368360
 101.6425220  90.2340220  81.7910380 101.7320010  86.6945520  81.3686130
 102.1882790  87.5050770  81.5946320 101.3808220  86.3768660  82.2004620
 104.0352620  92.2051860  88.5978430 104.6794840  92.4111240  89.2751850
 104.3982060  91.4440260  88.1449280  97.6331790  77.0383170  81.8408650
  97.5046420  77.0301070  82.7893570  96.8093810  77.3766260  81.4899660
  94.9356450  94.5199690  77.8139480  95.2954090  95.1189030  77.1596750
  94.7948790  95.0659580  78.5874510 108.7356670  88.4104770  78.7009180
 108.4478370  88.8717460  79.4887060 109.5308840  87.9502540  78.9693400
 100.9525070  91.9030890  78.6313150 100.9435170  92.6360580  78.0157660
 100.0323430  91.6562470  78.7240110  96.5531710  87.1245780  79.3759910
  95.9459660  87.8644680  79.3855210  97.0281060  87.2145140  78.5498110
 109.4926530  80.2453540  79.8604360 108.8639690  80.3499210  79.1462590
 108.9978450  80.4650320  80.6498240 103.9384670  91.9659130  77.2938340
 104.0396650  91.7623120  76.3640320 103.0386410  91.7117410  77.4986120
 102.5802780  94.4845450  81.9886010 102.8344280  94.4466840  81.0665380
 101.6315260  94.3578780  81.9814260  99.6645580  80.8324570  78.6512950
 100.5136110  81.2694720  78.5853140  99.2976850  81.1444830  79.4785010
  98.5637000  87.0856930  77.1248480  99.3300270  86.9738290  77.6873910
  98.6411690  86.3894900  76.4725250  97.2583760  84.5182000  77.8081370
  97.3387350  83.5709510  77.9198770  98.1503510  84.8488880  77.9142030
 101.1700780  93.8407700  76.7341480 101.9629390  94.1296530  76.2823270
 100.6505130  93.4099870  76.0553960  94.7854560  86.3396920  93.0437540
  95.2893580  85.7604200  93.6153770  94.0461980  86.6237150  93.5813910
 101.6878180  89.0611110  76.5983830 101.5828820  88.4463460  77.3245210
 101.5202400  88.5377000  75.8146840 101.8392500  87.7467910  92.5773060
 101.0738170  88.3152910  92.4927730 102.0208460  87.4544120  91.6841290
 104.9280910  88.1231140  77.2025820 104.3791010  88.5700440  77.8468560
 105.5500170  87.6180390  77.7263490  96.8177640  84.4826510  93.9387610
  96.8582980  84.1840380  94.8472840  97.6723140  84.8834120  93.7795130
 100.5956030  87.0822060  79.0991120 101.0172450  86.9161930  79.9422510
 100.7206870  86.2722290  78.6046260 103.1083670  86.1059670  76.3468220
 103.6289330  85.3908690  75.9809370 103.7552070  86.7445540  76.6468730
  99.4914930  83.1555290  76.0449280  99.2903990  82.2922650  76.4062620
  99.3206980  83.0688650  75.1070880 100.2684160  93.7861560  90.7556950
  99.7305250  94.5107620  90.4365650 100.5218120  93.3091900  89.9654290
 106.9703240  77.9663520  78.5736160 107.2505530  77.1231420  78.9295580
 106.1968970  78.1986630  79.0874910  98.2897730  80.2555910  76.0327160
  98.5923630  80.2623340  75.1246310  99.0292320  79.9053770  76.5294820
 103.1246370  95.0212770  91.0143600 103.0505070  95.9247910  91.3215970
 102.2225210  94.7024670  90.9865670 101.5082660  79.1990530  77.0183360
 101.1604660  78.5214520  76.4385810 101.7095430  78.7380040  77.8326750
 103.6731700  94.1871280  78.6369960 104.5682490  94.5256250  78.6588720
 103.7049330  93.4650690  78.0094240  97.3127860  89.5598330  76.8656960
  97.7502730  90.1028000  77.5214540  97.7975590  88.7345280  76.8753300
 111.3483960  87.2040250  79.1840070 112.1102870  87.7736900  79.2899760
 111.3638330  86.6367450  79.9548380 112.3543930  88.0590350  84.0282000
 112.7252760  87.2757670  83.6217970 112.9945860  88.7479450  83.8499300
 107.7978740  80.5219470  77.6366220 108.2163620  80.3350450  76.7962880
 107.4914800  79.6698520  77.9469150 111.2968470  85.4343610  81.3342020
 110.9212070  84.6671540  80.9023310 110.5671590  85.8166310  81.8216950
  95.4380230  83.0239840  91.8609490  94.5436280  82.9906600  92.2003200
  95.9777780  83.2226630  92.6260740 110.5719430  83.6601100  84.6349260
 111.0956910  83.1663750  84.0039430 111.1578850  83.7951460  85.3796830
 110.7509150  83.7440970  88.1568810 109.8011860  83.7104510  88.2713800
 110.9322160  84.6541080  87.9218580  96.6053590  81.9942650  77.2667440
  97.3145290  81.5725870  76.7814720  95.8893530  82.0617880  76.6350790
  96.2527750  78.0481980  76.3070090  96.9755880  78.5890920  76.6251310
  96.5252270  77.7745400  75.4311630 110.0619400  82.9174450  80.5741670
 110.5578520  82.6845320  81.3590550 109.8635470  82.0786290  80.1579310
  95.9419940  77.2988170  86.2092710  96.5896130  76.7485550  85.7687870
  96.3621780  77.5531320  87.0308520 109.8372280  77.4929530  89.5662350
 110.4744500  78.1063670  89.9321540 109.9847170  77.5290190  88.6211580
 112.3796830  79.3843320  76.3485490 113.3046140  79.2524500  76.1403780
 112.3572620  79.4636140  77.3021940 112.4535320  80.1553980  78.9742200
 111.6586820  80.0899100  79.5035110 112.6578600  81.0904620  78.9627550
 109.3953740  94.1945530  82.9680590 109.9912810  93.8730100  82.2915010
 109.6531890  93.7217350  83.7593860  95.6951940  77.4543840  88.9518030
  95.3466760  77.9107660  89.7176210  95.3639640  76.5600970  89.0340460
 101.0022340  92.1823030  88.7180940 100.7613700  92.4497590  87.8311460
 101.9424980  92.3528760  88.7731800  96.3672580  76.9820040  92.2268800
  96.9155570  76.8008090  91.4634910  96.4327890  76.1914150  92.7625110
 106.5859360  76.8657920  88.4399030 105.7119200  77.1993030  88.2371960
 106.4770110  76.3931100  89.2650900 100.3761670  93.1529070  85.9726450
 100.8926690  92.5416430  85.4474710 101.0259050  93.6557850  86.4637460
 103.1157170  94.0437560  86.7995430 103.4034980  93.7891860  85.9228440
 103.6280390  93.4914920  87.3901000 104.3334180  77.7827760  87.3791940
 103.5505970  78.2573260  87.6588700 104.0397110  76.8782590  87.2705120
  95.6774590  78.0875240  79.9005660  96.4353950  78.2004120  79.3269690
  95.2151760  78.9244440  79.8549090 106.7213380  76.8656960  84.1291040
 107.3242750  77.4377170  84.6039560 105.9806370  77.4296400  83.9064940
 109.8647980  77.2678520  79.4031320 110.0598610  78.1661970  79.6698750
 109.0777850  77.0365600  79.8964270  98.0499740  78.6139290  78.4407630
  98.5792500  77.8269090  78.3115580  98.6828060  79.2930480  78.6743160
 111.4174590  94.5079230  81.1637880 111.5926780  93.8216970  80.5198800
 110.7196160  95.0326280  80.7714550  99.2602240  94.8974070  78.7173190
  99.9921060  94.6133350  78.1697080  99.5195910  94.6587350  79.6072570
  98.4217030  91.0138800  78.7219520  97.7925910  91.4823900  79.2705350
  98.5364860  90.1688020  79.1565710 109.7507090  94.1923520  93.9904670
 110.5432410  93.6972750  93.7830630 110.0440240  94.8713660  94.5980280
 105.8766750  85.0644460  64.8720720 105.7960800  84.1499070  64.6012430
 105.4631170  85.5611530  64.1660430  98.0250620  87.1543290  67.6305750
  97.1935500  86.8992000  68.0302260  98.6331600  87.2254060  68.3663670
  98.0051880  91.1883380  67.8263770  98.3079920  90.2981120  67.6473990
  98.7495470  91.7453600  67.5986020  94.3975580  84.7150830  67.2987840
  94.9691690  83.9473030  67.2991480  94.3977120  85.0139590  66.3894450
  95.6400450  80.1235190  69.0856770  95.4603290  79.2260940  69.3659530
  95.2380530  80.6707060  69.7603720  96.2587120  82.6195690  67.6939110
  96.9397230  82.8834060  68.3126510  95.9435170  81.7796560  68.0277120
 112.5522620  81.8368240  70.4841050 111.8474790  82.2249950  69.9656160
 112.8180540  82.5318530  71.0861980  98.7347790  78.3061610  71.0475120
  98.7366230  78.8234000  70.2421020  97.9052100  77.8291790  71.0245050
  99.9850640  87.9456790  69.2248620  99.6520020  88.5725710  69.8669690
 100.1617320  88.4718670  68.4450290 108.4984550  81.7601870  66.6924960
 107.7940120  82.0486760  67.2728070 108.8596710  82.5701980  66.3324520
  98.4163120  80.0171570  69.0545570  98.7579930  80.8613620  68.7599440
  97.4778930  80.1655310  69.1710910  99.1969740  89.9137590  71.0397800
  99.8143740  90.5888670  70.7582250  98.3362860  90.3225570  70.9485300
  94.4902080  89.1037450  59.9204650  94.1130060  89.5924550  59.1889550
  94.7475150  89.7762730  60.5511180 111.5671470  81.2056660  67.0834170
 110.6196380  81.2395640  67.2149600 111.8921460  82.0195610  67.4683530
 102.0991010  77.5053840  65.3790160 102.4065990  76.9500730  64.6625660
 101.1691710  77.6398300  65.1963150 107.0491510  88.1250970  68.9980230
 107.4660300  87.9111080  68.1633690 107.7731330  88.3823760  69.5688850
 104.4871770  85.5702670  62.1150280 103.5601050  85.5040050  62.3438750
 104.6396590  86.5082800  62.0005520 107.9595620  83.3107510  70.0351340
 107.5466800  84.1361220  70.2891330 107.2271570  82.7252550  69.8427700
 100.0928410  86.0967410  64.8970010  99.6885410  85.3844660  64.4015910
 100.1791530  85.7520650  65.7858050 100.5610110  89.7834970  67.0609220
 100.2638400  89.1780440  66.3817000 101.5109930  89.8212280  66.9498580
  98.8057030  82.8710620  68.6769050  99.3571620  82.9805960  67.9022300
  99.3200540  83.2448220  69.3924280 108.6495720  93.3566840  70.7232320
 108.1726280  94.1639030  70.5304930 107.9657510  92.7045170  70.8758530
  99.6528540  89.5216660  73.7117020  98.7557070  89.7456630  73.9590420
  99.6781410  89.6451600  72.7628420  98.4799760  86.3929980  72.2874390
  98.3407530  87.2652780  72.6561790  97.5981120  86.0502790  72.1422330
 100.2780110  92.3351680  74.4959540 100.2495540  92.7394630  73.6287970
 100.1145080  91.4062040  74.3331140 110.2750900  77.6252590  57.9399320
 109.9623560  77.7179420  58.8398390 111.0363370  78.2033620  57.8896750
  95.6766040  89.8627720  64.6151480  95.2694120  90.0042310  63.7605080
  96.5679050  89.5787880  64.4122690  99.9487700  94.0773500  62.7274150
  99.7730180  93.1609040  62.5141950  99.0943440  94.4360790  62.9671950
 111.4852190  82.3624090  73.9173460 110.8696460  82.8703760  73.3888920
 111.1648610  81.4622420  73.8599400  99.2596700  78.3347460  65.7800330
  98.8164850  79.1157000  65.4484850  99.8181690  78.6577350  66.4871270
 108.5471020  82.4224930  72.5132310 107.6964610  82.1230680  72.8341380
 108.3872810  82.6666940  71.6016130 105.6420730  83.9226680  74.6131100
 105.9674140  83.0890430  74.2733330 106.4301060  84.4455200  74.7609430
 102.3755520  77.9558160  60.6606160 101.7509700  77.9518030  61.3859470
 102.2885640  77.0889120  60.2642130 101.2972600  78.8794790  67.6389930
 101.5944930  79.7857620  67.5581950 101.8458160  78.3913570  67.0249500
 101.4910130  84.3566610  74.1741850 101.3953730  83.4161340  74.0242250
 102.3342110  84.5781680  73.7789920 104.8873550  82.1007940  64.1375510
 105.2803120  82.4180140  63.3244200 105.2490400  81.2219820  64.2520030
  96.6220670  80.7680280  72.3275630  96.2284060  81.6155490  72.5348410
  95.9339070  80.1306650  72.5184270 103.1965720  80.8515250  75.3972370
 102.5064040  80.6587450  76.0318460 103.9398020  81.1349890  75.9296670
 105.9354600  80.1447370  67.6449230 105.9527340  80.5956020  68.4891080
 105.6870180  79.2453010  67.8582670 109.3625350  77.5579550  73.4835610
 109.6871120  76.8269210  74.0093590 109.3981860  77.2393190  72.5816600
  96.0616910  88.5793130  72.9035570  95.6771700  87.9386800  73.5018530
  96.3729100  89.2829250  73.4730300  98.5295210  88.6739300  61.2995250
  97.7557470  88.1336920  61.1393970  99.2589840  88.1545910  60.9613010
 104.7493130  79.0642620  61.2351030 103.9357740  78.5655790  61.1596340
 104.5555080  79.9040870  60.8187380 104.6701990  87.7413720  72.9790640
 104.6039300  86.8209390  72.7248230 104.0407130  87.8389160  73.6935280
  98.5732610  88.3419680  64.9374060  99.0911280  87.5387940  64.8830950
  98.1216630  88.2798820  65.7790890  96.0577150  85.3081050  71.8499760
  95.6992090  85.9734900  72.4373100  95.7631710  84.4764600  72.2212380
  99.2590270  85.7665290  74.7339310  98.9590410  85.9122470  73.8367130
 100.0301510  85.2070580  74.6412700 104.6018720  90.5634290  72.7294440
 104.6163260  89.6315250  72.5113350 103.8943820  90.6494050  73.3684210
 110.8129930  87.2041630  72.0763020 110.0878120  87.7970410  71.8792410
 111.3405390  87.1965170  71.2776390 106.3429520  88.9301800  65.5746870
 106.6953340  88.3329930  64.9148240 105.4591850  88.6046030  65.7455120
 102.4292800  89.6899490  62.9817280 103.1163930  90.2368700  63.3624870
 101.6425220  90.2340220  63.0166890 101.7320010  86.6945520  62.5942640
 102.1882790  87.5050770  62.8202830 101.3808220  86.3768660  63.4261130
 105.3084700  90.2084210  68.5412390 105.9506930  89.5077370  68.6544560
 105.8334050  90.9882650  68.3609280 107.0822320  91.0079110  71.7448450
 107.4178560  91.5945800  72.4226370 106.1622660  90.8771820  71.9746240
  94.6325720  78.7974290  72.5271860  93.9184240  78.9971210  73.1324470
  95.0520760  78.0213860  72.8986660  94.9198310  92.7854550  73.5138390
  95.0289430  91.8449290  73.3733780  94.2678870  93.0509300  72.8652120
 102.9110900  91.0570440  74.9136510 102.5907770  90.3379680  75.4582200
 102.2369260  91.7325510  74.9872570 100.9525070  91.9030890  59.8569660
 100.9435170  92.6360580  59.2414170 100.0323430  91.6562470  59.9496620
  96.5531710  87.1245780  60.6016420  95.9459660  87.8644680  60.6111720
  97.0281060  87.2145140  59.7754620 106.1264500  81.2896600  70.2773310
 106.4945320  80.4691810  70.6052880 105.2662700  81.3498490  70.6928960
 103.9384670  91.9659130  58.5194850 104.0396650  91.7623120  57.5896830
 103.0386410  91.7117410  58.7242630 105.4925990  79.2490150  63.9414540
 105.3693770  79.2676280  62.9924050 106.4410550  79.2969090  64.0612940
 110.2933350  80.1604150  71.3439670 109.7906950  80.9009550  71.6833480
 111.1090010  80.5488150  71.0276460  98.5637000  87.0856930  58.3504990
  99.3300270  86.9738290  58.9130420  98.6411690  86.3894900  57.6981760
  97.2583760  84.5182000  59.0337880  97.3387350  83.5709510  59.1455280
  98.1503510  84.8488880  59.1398540  98.0598470  94.6677390  66.1372420
  98.7960950  94.1192850  66.4080990  98.4439390  95.5333400  65.9978410
  94.9443950  90.7350960  62.0113930  94.0183730  90.9772100  62.0019340
  95.4100380  91.5625220  61.8898680  97.0656750  93.8523460  75.3258000
  97.8669480  94.1735510  75.7393400  96.5508570  93.4919040  76.0477910
 101.1700780  93.8407700  57.9597990 101.9629390  94.1296530  57.5079780
 100.6505130  93.4099870  57.2810470 105.9021380  89.9603330  75.2733410
 105.2959540  89.9834930  74.5329160 105.5975490  89.2286370  75.8100660
  94.7854560  86.3396920  74.2694050  95.2893580  85.7604200  74.8410280
  94.0461980  86.6237150  74.8070420 101.6878180  89.0611110  57.8240340
 101.5828820  88.4463460  58.5501720 101.5202400  88.5377000  57.0403350
 101.8392500  87.7467910  73.8029570 101.0738170  88.3152910  73.7184240
 102.0208460  87.4544120  72.9097800  96.8177640  84.4826510  75.1644120
  96.8582980  84.1840380  76.0729350  97.6723140  84.8834120  75.0051640
 100.5956030  87.0822060  60.3247630 101.0172450  86.9161930  61.1679020
 100.7206870  86.2722290  59.8302770  98.7583450  83.0618610  73.1318610
  98.2279910  82.5709560  72.5041950  99.4271520  83.4902810  72.5976540
 107.6561510  87.5288070  72.8959800 108.0702530  87.6833150  73.7450220
 106.7212510  87.6543290  73.0585580 108.1283680  84.8684230  74.8998950
 108.7104450  84.1136550  74.8119430 108.3045450  85.3991670  74.1230430
  99.2455750  80.0280980  73.2115900  99.1512620  79.4101730  72.4866770
  98.6653140  80.7547270  72.9845810 102.0117190  78.5854220  70.2443290
 101.5634490  78.6078480  69.3988840 101.3782390  78.1873240  70.8413590
 100.2684160  93.7861560  71.9813460  99.7305250  94.5107620  71.6622160
 100.5218120  93.3091900  71.1910800 101.5209410  81.7546080  73.5069390
 102.1109100  81.4461930  74.1947210 100.7029650  81.2825830  73.6629290
 106.3402840  81.3711890  73.7402410 105.6518360  80.7093430  73.6752400
 107.0608860  80.9250160  74.1850870 103.6731700  94.1871280  59.8626470
 104.5682490  94.5256250  59.8845230 103.7049330  93.4650690  59.2350750
  97.3127860  89.5598330  58.0913470  97.7502730  90.1028000  58.7471050
  97.7975590  88.7345280  58.1009810  94.5273660  92.3487360  65.5433730
  94.8576670  91.4808420  65.3112370  94.9564660  92.5545880  66.3738690
  99.1235580  90.6796370  63.2035700  98.8231120  90.5561340  64.1039610
  99.0173070  89.8204960  62.7951430  95.0163870  93.2157950  68.2815360
  94.5794860  93.3958750  69.1139510  95.5841550  93.9732570  68.1397080
  94.8488300  85.7278180  64.6404240  94.1937140  85.4589820  63.9963940
  95.6866250  85.6182660  64.1906220 111.4003130  87.4974620  57.5669100
 111.6751970  88.4053500  57.4388320 111.2113870  87.4337150  58.5031090
 107.7978740  80.5219470  58.8622730 108.2163620  80.3350450  58.0219390
 107.4914800  79.6698520  59.1725660  95.8864230  86.1130750  69.1807580
  96.2537270  86.0258150  70.0603600  95.3175050  85.3497300  69.0814440
 110.6868090  84.5815130  72.1938050 110.4554180  84.3527880  71.2936000
 110.9472640  85.5014680  72.1482940  95.4380230  83.0239840  73.0866000
  94.5436280  82.9906600  73.4259710  95.9777780  83.2226630  73.8517250
 109.1256160  79.8071560  74.9717750 110.0026340  79.8154960  75.3551750
 109.1377000  79.0702400  74.3610100 110.7509150  83.7440970  69.3825320
 109.8011860  83.7104510  69.4970310 110.9322160  84.6541080  69.1475090
 109.8372280  77.4929530  70.7918860 110.4744500  78.1063670  71.1578050
 109.9847170  77.5290190  69.8468090 112.3796830  79.3843320  57.5742000
 113.3046140  79.2524500  57.3660290 112.3572620  79.4636140  58.5278450
 112.4535320  80.1553980  60.1998710 111.6586820  80.0899100  60.7291620
 112.6578600  81.0904620  60.1884060  97.3016310  90.6263440  74.3427730
  97.2585940  90.2556350  75.2242190  97.4327320  91.5641010  74.4829550
 101.0022340  92.1823030  69.9437450 100.7613700  92.4497590  69.0567970
 101.9424980  92.3528760  69.9988310 103.2076760  78.6455720  73.6993960
 103.1465650  79.2377550  74.4489370 104.1477140  78.5381680  73.5544220
 105.8451320  78.3025780  73.3386250 106.4591730  78.6205070  72.6767330
 106.3900880  77.8174370  73.9582110 112.2626500  94.2017410  70.7448090
 111.7684780  94.5986280  70.0275220 111.6539790  93.5766620  71.1385370
  96.3672580  76.9820040  73.4525310  96.9155570  76.8008090  72.6891420
  96.4327890  76.1914150  73.9881620  97.1404340  93.5725690  71.4625510
  96.5464660  93.4410390  72.2015550  97.1328180  92.7363830  70.9967610
 106.5859360  76.8657920  69.6655540 105.7119200  77.1993030  69.4628470
 106.4770110  76.3931100  70.4907410 107.4931340  79.0728790  71.0497260
 107.1644700  78.2580550  70.6698990 108.4413640  79.0298600  70.9262950
 109.9465950  94.8440830  68.0234830 109.4868920  95.5956640  67.6492850
 109.3178410  94.1247300  67.9649630  96.7716570  90.9384070  70.4133550
  96.0450630  90.3189360  70.3459500  96.8325720  91.3324680  69.5431630
 100.3761670  93.1529070  67.1982960 100.8926690  92.5416430  66.6731220
 101.0259050  93.6557850  67.6893970 104.3334180  77.7827760  68.6048450
 103.5505970  78.2573260  68.8845210 104.0397110  76.8782590  68.4961630
 108.8855250  78.4850860  66.6497540 109.3263340  78.4295960  65.8019140
 108.6162840  79.4008870  66.7207720 110.7493820  78.1166100  64.6606360
 110.6882220  77.1727320  64.5137380 111.5285850  78.2246190  65.2059820
  95.0546570  94.2558460  63.6230310  94.8868610  93.6229140  64.3212200
  94.1881080  94.4617860  63.2724500 102.2188400  80.2014510  64.1164480
 101.4062910  79.8271400  63.7760360 102.7230040  79.4459590  64.4185670
 106.7213380  76.8656960  65.3547550 107.3242750  77.4377170  65.8296070
 105.9806370  77.4296400  65.1321450 109.8647980  77.2678520  60.6287830
 110.0598610  78.1661970  60.8955260 109.0777850  77.0365600  61.1220780
  96.6609270  92.9491690  61.0680450  96.1356890  93.3299720  60.3642410
  96.5853850  93.5742460  61.7890160 103.1829530  94.9653660  75.3920140
 104.1096840  94.7297930  75.4356100 103.1679960  95.7925660  74.9106170
 100.3693140  77.6298410  75.1562020 100.0877410  78.1332010  74.3922840
 100.7512840  76.8320160  74.7904150  99.2602240  94.8974070  59.9429700
  99.9921060  94.6133350  59.3953590  99.5195910  94.6587350  60.8329080
  98.4217030  91.0138800  59.9476030  97.7925910  91.4823900  60.4961860
  98.5364860  90.1688020  60.3822220 106.9708600  77.0451990  75.7342490
 106.8574050  77.3646600  76.6294010 107.7878340  77.4464500  75.4379770
 105.8766750  85.0644460  46.0977230 105.7960800  84.1499070  45.8268940
 105.4631170  85.5611530  45.3916940  98.0250620  87.1543290  48.8562260
  97.1935500  86.8992000  49.2558770  98.6331600  87.2254060  49.5920180
 108.0292220  91.2483670  46.7585630 107.5673750  90.4770910  47.0872800
 108.8417770  91.2749740  47.2638080  96.4342570  82.1145180  42.6404650
  95.5459270  82.4561150  42.5384530  96.7183760  81.9145500  41.7485480
  94.3975580  84.7150830  48.5244350  94.9691690  83.9473030  48.5247990
  94.3977120  85.0139590  47.6150960 104.2555530  93.5341680  46.3789620
 103.6366970  93.9899180  45.8084060 105.1107310  93.6893140  45.9779320
  95.6400450  80.1235190  50.3113280  95.4603290  79.2260940  50.5916040
  95.2380530  80.6707060  50.9860230 104.4798950  82.3251050  48.2125590
 104.8563770  81.4522930  48.0999260 104.3818460  82.6609750  47.3216030
 108.2623070  79.8201490  45.1453930 109.0832690  79.3298060  45.1879410
 108.2957150  80.4099150  45.8985770  96.2587120  82.6195690  48.9195620
  96.9397230  82.8834060  49.5383020  95.9435170  81.7796560  49.2533630
 100.4511690  83.6663050  48.0068210 100.9589910  84.1644020  48.6473230
 100.9824930  82.8898250  47.8307570 112.5522620  81.8368240  51.7097560
 111.8474790  82.2249950  51.1912670 112.8180540  82.5318530  52.3118490
  98.7347790  78.3061610  52.2731630  98.7366230  78.8234000  51.4677530
  97.9052100  77.8291790  52.2501560  99.9850640  87.9456790  50.4505130
  99.6520020  88.5725710  51.0926200 100.1617320  88.4718670  49.6706800
 108.4984550  81.7601870  47.9181470 107.7940120  82.0486760  48.4984580
 108.8596710  82.5701980  47.5581030  98.4163120  80.0171570  50.2802080
  98.7579930  80.8613620  49.9855950  97.4778930  80.1655310  50.3967420
  99.1969740  89.9137590  52.2654310  99.8143740  90.5888670  51.9838760
  98.3362860  90.3225570  52.1741810 110.1147330  91.3777000  50.1808950
 109.4310850  92.0476110  50.1725620 110.6541620  91.5757650  49.4153810
 111.5671470  81.2056660  48.3090680 110.6196380  81.2395640  48.4406110
 111.8921460  82.0195610  48.6940040 107.6506070  93.2221130  48.8954130
 107.6633230  92.8183420  48.0276390 107.0981290  93.9968420  48.7915560
 108.9451490  89.9437350  43.9844300 108.8347820  89.0011680  44.1093720
 108.9419740  90.3052990  44.8707060 107.0491510  88.1250970  50.2236740
 107.4660300  87.9111080  49.3890200 107.7731330  88.3823760  50.7945360
 110.9953610  86.5238190  50.3152980 110.1672240  86.5931280  49.8403110
 111.5904090  87.1092500  49.8468810 108.5169060  87.1322970  43.8442040
 107.8981480  86.7942520  43.1968340 108.4993510  86.4882730  44.5521230
 107.9595620  83.3107510  51.2607850 107.5466800  84.1361220  51.5147840
 107.2271570  82.7252550  51.0684210  98.8057030  82.8710620  49.9025560
  99.3571620  82.9805960  49.1278810  99.3200540  83.2448220  50.6180790
 108.6495720  93.3566840  51.9488830 108.1726280  94.1639030  51.7561440
 107.9657510  92.7045170  52.1015040  99.6528540  89.5216660  54.9373530
  98.7557070  89.7456630  55.1846930  99.6781410  89.6451600  53.9884930
 106.6933760  86.3709780  40.8514790 107.1327040  85.5332210  40.7052610
 107.4062180  87.0039180  40.9378930  98.4799760  86.3929980  53.5130900
  98.3407530  87.2652780  53.8818300  97.5981120  86.0502790  53.3678840
 100.2780110  92.3351680  55.7216050 100.2495540  92.7394630  54.8544480
 100.1145080  91.4062040  55.5587650 110.2750900  77.6252590  39.1655830
 109.9623560  77.7179420  40.0654900 111.0363370  78.2033620  39.1153260
  96.7933040  84.9912390  43.6233170  96.6730640  85.7174480  43.0114440
  96.4833930  84.2215300  43.1461080 112.2294930  93.1178780  57.0180220
 112.7054650  93.5961670  57.6969300 112.8502090  93.0496270  56.2925720
 111.6328180  90.3091630  54.1780230 111.7591240  90.0703510  53.2597410
 111.6749560  89.4776170  54.6502310 105.4944920  94.0119630  52.7475040
 106.0089590  93.9227640  53.5497470 104.6514000  94.3579330  53.0402950
  99.9487700  94.0773500  43.9530660  99.7730180  93.1609040  43.7398460
  99.0943440  94.4360790  44.1928460 106.7375380  93.4325240  44.8105530
 107.1932330  92.6514620  45.1244150 107.0767900  94.1432060  45.3546710
 111.4852190  82.3624090  55.1429970 110.8696460  82.8703760  54.6145430
 111.1648610  81.4622420  55.0855910 108.5471020  82.4224930  53.7388820
 107.6964610  82.1230680  54.0597890 108.3872810  82.6666940  52.8272640
  99.0510920  83.4581030  44.7338090  98.8251840  83.2418200  45.6384710
  98.2703450  83.8909490  44.3884060  96.6220670  80.7680280  53.5532140
  96.2284060  81.6155490  53.7604920  95.9339070  80.1306650  53.7440780
 105.4728690  84.6913690  49.4582800 104.7409810  85.2000500  49.8072900
 105.0753030  83.8743670  49.1571580 101.9106080  81.3667890  47.8635290
 101.9142140  80.9257840  47.0139830 102.8057200  81.6885220  47.9707110
 109.3625350  77.5579550  54.7092120 109.6871120  76.8269210  55.2350100
 109.3981860  77.2393190  53.8073110  96.0616910  88.5793130  54.1292080
  95.6771700  87.9386800  54.7275040  96.3729100  89.2829250  54.6986810
 102.2114050  85.4269670  49.6100700 102.5784180  84.9528240  50.3562040
 102.0219110  86.3011240  49.9509040 100.0013420  84.4678310  51.9284910
  99.6970490  85.3470290  52.1535270 100.9559880  84.5278100  51.9642350
  98.5295210  88.6739300  42.5251760  97.7557470  88.1336920  42.3650480
  99.2589840  88.1545910  42.1869520 109.2883190  87.6704660  48.3178150
 110.0082310  88.1659950  47.9274260 109.0865010  86.9922550  47.6732020
 104.6701990  87.7413720  54.2047150 104.6039300  86.8209390  53.9504740
 104.0407130  87.8389160  54.9191790 107.4641520  83.4362270  40.7569700
 108.3521140  83.7479500  40.5821040 107.4346610  82.5634520  40.3650280
 103.4602110  89.6085960  41.4357870 103.8017810  90.3528190  40.9401190
 102.6314820  89.9217080  41.7982700  96.0577150  85.3081050  53.0756270
  95.6992090  85.9734900  53.6629610  95.7631710  84.4764600  53.4468890
  99.2590270  85.7665290  55.9595820  98.9590410  85.9122470  55.0623640
 100.0301510  85.2070580  55.8669210 104.6018720  90.5634290  53.9550950
 104.6163260  89.6315250  53.7369860 103.8943820  90.6494050  54.5940720
 109.7355790  84.7474110  40.2249560 109.6519510  85.1788330  39.3746000
 110.4549980  85.2072460  40.6576380 110.8129930  87.2041630  53.3019530
 110.0878120  87.7970410  53.1048920 111.3405390  87.1965170  52.5032900
 107.0822320  91.0079110  52.9704960 107.4178560  91.5945800  53.6482880
 106.1622660  90.8771820  53.2002750  94.9356450  94.5199690  40.2652500
  95.2954090  95.1189030  39.6109770  94.7948790  95.0659580  41.0387530
  94.6325720  78.7974290  53.7528370  93.9184240  78.9971210  54.3580980
  95.0520760  78.0213860  54.1243170 108.7356670  88.4104770  41.1522200
 108.4478370  88.8717460  41.9400080 109.5308840  87.9502540  41.4206420
 102.9110900  91.0570440  56.1393020 102.5907770  90.3379680  56.6838710
 102.2369260  91.7325510  56.2129080 100.9525070  91.9030890  41.0826170
 100.9435170  92.6360580  40.4670680 100.0323430  91.6562470  41.1753130
 109.4926530  80.2453540  42.3117380 108.8639690  80.3499210  41.5975610
 108.9978450  80.4650320  43.1011260 103.0866490  83.9436190  51.7267790
 103.5851740  84.4182010  52.3919640 103.2289440  83.0199710  51.9337820
 105.4925990  79.2490150  45.1671050 105.3693770  79.2676280  44.2180560
 106.4410550  79.2969090  45.2869450 102.5802780  94.4845450  44.4399030
 102.8344280  94.4466840  43.5178400 101.6315260  94.3578780  44.4327280
 110.2933350  80.1604150  52.5696180 109.7906950  80.9009550  52.9089990
 111.1090010  80.5488150  52.2532970 108.5855360  85.4037330  46.0157540
 107.6445500  85.4187560  46.1905230 108.8999430  84.6173290  46.4617840
 110.5880940  92.5746180  47.6911800 110.7128360  93.3977350  48.1635610
 111.4546500  92.3636910  47.3435950  98.0598470  94.6677390  47.3628930
  98.7960950  94.1192850  47.6337500  98.4439390  95.5333400  47.2234920
 101.1700780  93.8407700  39.1854500 101.9629390  94.1296530  38.7336290
 100.6505130  93.4099870  38.5066980 105.9021380  89.9603330  56.4989920
 105.2959540  89.9834930  55.7585670 105.5975490  89.2286370  57.0357170
 107.3321750  93.6883620  55.1099330 108.2843500  93.6041640  55.0599570
 107.1849970  94.3525330  55.7833120  94.7854560  86.3396920  55.4950560
  95.2893580  85.7604200  56.0666790  94.0461980  86.6237150  56.0326930
 101.6878180  89.0611110  39.0496850 101.5828820  88.4463460  39.7758230
 101.5202400  88.5377000  38.2659860 101.8392500  87.7467910  55.0286080
 101.0738170  88.3152910  54.9440750 102.0208460  87.4544120  54.1354310
 104.9280910  88.1231140  39.6538840 104.3791010  88.5700440  40.2981580
 105.5500170  87.6180390  40.1776510 108.9815850  89.4773240  55.5861100
 109.7225320  89.8149000  55.0828560 108.2188530  89.6465300  55.0330870
  96.8177640  84.4826510  56.3900630  96.8582980  84.1840380  57.2985860
  97.6723140  84.8834120  56.2308150 100.5956030  87.0822060  41.5504140
 101.0172450  86.9161930  42.3935530 100.7206870  86.2722290  41.0559280
  98.7583450  83.0618610  54.3575120  98.2279910  82.5709560  53.7298460
  99.4271520  83.4902810  53.8233050 103.1083670  86.1059670  38.7981240
 103.6289330  85.3908690  38.4322390 103.7552070  86.7445540  39.0981750
 107.6561510  87.5288070  54.1216310 108.0702530  87.6833150  54.9706730
 106.7212510  87.6543290  54.2842090 108.1283680  84.8684230  56.1255460
 108.7104450  84.1136550  56.0375940 108.3045450  85.3991670  55.3486940
  99.2455750  80.0280980  54.4372410  99.1512620  79.4101730  53.7123280
  98.6653140  80.7547270  54.2102320 102.4176740  87.4808550  52.0912240
 102.8364850  88.3241280  51.9188480 101.4985370  87.6180590  51.8619020
 104.7540640  85.2124730  53.4750080 104.8736850  84.6165870  54.2144920
 105.6134640  85.2494420  53.0551380 107.0928540  85.7661920  52.0512590
 106.5663760  86.2904540  51.4477730 107.4359880  86.3989310  52.6822320
 100.2684160  93.7861560  53.2069970  99.7305250  94.5107620  52.8878670
 100.5218120  93.3091900  52.4167310 106.9703240  77.9663520  41.0249180
 107.2505530  77.1231420  41.3808600 106.1968970  78.1986630  41.5387930
  98.2897730  80.2555910  38.4840180  98.5923630  80.2623340  37.5759330
  99.0292320  79.9053770  38.9807840 103.1246370  95.0212770  53.4656620
 103.0505070  95.9247910  53.7728990 102.2225210  94.7024670  53.4378690
 110.6526050  92.7174950  53.7949180 110.0528040  92.7767510  53.0513100
 110.7819950  91.7779930  53.9246030 111.3483960  87.2040250  41.6353090
 112.1102870  87.7736900  41.7412780 111.3638330  86.6367450  42.4061400
  94.8488300  85.7278180  45.8660750  94.1937140  85.4589820  45.2220450
  95.6866250  85.6182660  45.4162730 112.3543930  88.0590350  46.4795020
 112.7252760  87.2757670  46.0730990 112.9945860  88.7479450  46.3012320
 109.3377690  89.4426930  51.8925340 108.5237530  89.8724090  52.1551130
 109.7451890  90.0545340  51.2794390 111.4003130  87.4974620  38.7925610
 111.6751970  88.4053500  38.6644830 111.2113870  87.4337150  39.7287600
 107.7978740  80.5219470  40.0879240 108.2163620  80.3350450  39.2475900
 107.4914800  79.6698520  40.3982170 111.2968470  85.4343610  43.7855040
 110.9212070  84.6671540  43.3536330 110.5671590  85.8166310  44.2729970
  95.8864230  86.1130750  50.4064090  96.2537270  86.0258150  51.2860110
  95.3175050  85.3497300  50.3070950 110.6868090  84.5815130  53.4194560
 110.4554180  84.3527880  52.5192510 110.9472640  85.5014680  53.3739450
  95.4380230  83.0239840  54.3122510  94.5436280  82.9906600  54.6516220
  95.9777780  83.2226630  55.0773760 109.1256160  79.8071560  56.1974260
 110.0026340  79.8154960  56.5808260 109.1377000  79.0702400  55.5866610
 110.5719430  83.6601100  47.0862280 111.0956910  83.1663750  46.4552450
 111.1578850  83.7951460  47.8309850 110.7509150  83.7440970  50.6081830
 109.8011860  83.7104510  50.7226820 110.9322160  84.6541080  50.3731600
  96.2527750  78.0481980  38.7583110  96.9755880  78.5890920  39.0764330
  96.5252270  77.7745400  37.8824650 110.0619400  82.9174450  43.0254690
 110.5578520  82.6845320  43.8103570 109.8635470  82.0786290  42.6092330
 111.4906560  81.5535400  45.5592370 111.3805840  81.3991440  46.4974640
 112.2514150  81.0256340  45.3167780 109.8372280  77.4929530  52.0175370
 110.4744500  78.1063670  52.3834560 109.9847170  77.5290190  51.0724600
 112.3796830  79.3843320  38.7998510 113.3046140  79.2524500  38.5916800
 112.3572620  79.4636140  39.7534960 112.4535320  80.1553980  41.4255220
 111.6586820  80.0899100  41.9548130 112.6578600  81.0904620  41.4140570
 109.3953740  94.1945530  45.4193610 109.9912810  93.8730100  44.7428030
 109.6531890  93.7217350  46.2106880  95.6951940  77.4543840  51.4031050
  95.3466760  77.9107660  52.1689230  95.3639640  76.5600970  51.4853480
 101.0022340  92.1823030  51.1693960 100.7613700  92.4497590  50.2824480
 101.9424980  92.3528760  51.2244820 112.2626500  94.2017410  51.9704600
 111.7684780  94.5986280  51.2531730 111.6539790  93.5766620  52.3641880
  96.3672580  76.9820040  54.6781820  96.9155570  76.8008090  53.9147930
  96.4327890  76.1914150  55.2138130 109.9465950  94.8440830  49.2491340
 109.4868920  95.5956640  48.8749360 109.3178410  94.1247300  49.1906140
  96.7716570  90.9384070  51.6390060  96.0450630  90.3189360  51.5716010
  96.8325720  91.3324680  50.7688140 100.3761670  93.1529070  48.4239470
 100.8926690  92.5416430  47.8987730 101.0259050  93.6557850  48.9150480
 103.1157170  94.0437560  49.2508450 103.4034980  93.7891860  48.3741460
 103.6280390  93.4914920  49.8414020 108.8855250  78.4850860  47.8754050
 109.3263340  78.4295960  47.0275650 108.6162840  79.4008870  47.9464230
 110.7493820  78.1166100  45.8862870 110.6882220  77.1727320  45.7393890
 111.5285850  78.2246190  46.4316330  95.6774590  78.0875240  42.3518680
  96.4353950  78.2004120  41.7782710  95.2151760  78.9244440  42.3062110
 106.7213380  76.8656960  46.5804060 107.3242750  77.4377170  47.0552580
 105.9806370  77.4296400  46.3577960 109.8647980  77.2678520  41.8544340
 110.0598610  78.1661970  42.1211770 109.0777850  77.0365600  42.3477290
  96.6609270  92.9491690  42.2936960  96.1356890  93.3299720  41.5898920
  96.5853850  93.5742460  43.0146670  98.0499740  78.6139290  40.8920650
  98.5792500  77.8269090  40.7628600  98.6828060  79.2930480  41.1256180
 103.1829530  94.9653660  56.6176650 104.1096840  94.7297930  56.6612610
 103.1679960  95.7925660  56.1362680 100.3693140  77.6298410  56.3818530
 100.0877410  78.1332010  55.6179350 100.7512840  76.8320160  56.0160660
  99.2602240  94.8974070  41.1686210  99.9921060  94.6133350  40.6210100
  99.5195910  94.6587350  42.0585590  98.4217030  91.0138800  41.1732540
  97.7925910  91.4823900  41.7218370  98.5364860  90.1688020  41.6078730
 109.7507090  94.1923520  56.4417690 110.5432410  93.6972750  56.2343650
 110.0440240  94.8713660  57.0493300 105.8766750  85.0644460  27.3233740
 105.7960800  84.1499070  27.0525450 105.4631170  85.5611530  26.6173450
 104.0084790  86.8423480  29.2043010 103.2326890  86.3623920  29.4941580
 104.6597720  86.1629130  29.0299170 108.0292220  91.2483670  27.9842140
 107.5673750  90.4770910  28.3129310 108.8417770  91.2749740  28.4894590
  98.0051880  91.1883380  30.2776790  98.3079920  90.2981120  30.0987010
  98.7495470  91.7453600  30.0499040  96.4342570  82.1145180  23.8661160
  95.5459270  82.4561150  23.7641040  96.7183760  81.9145500  22.9741990
 104.2555530  93.5341680  27.6046130 103.6366970  93.9899180  27.0340570
 105.1107310  93.6893140  27.2035830 103.4493780  89.5180670  29.2113170
 103.3802060  88.5770610  29.0502300 104.2113640  89.6082080  29.7835740
 104.4798950  82.3251050  29.4382100 104.8563770  81.4522930  29.3255770
 104.3818460  82.6609750  28.5472540 108.2623070  79.8201490  26.3710440
 109.0832690  79.3298060  26.4135920 108.2957150  80.4099150  27.1242280
 112.5522620  81.8368240  32.9354070 111.8474790  82.2249950  32.4169180
 112.8180540  82.5318530  33.5375000 105.1218880  88.4180920  24.9978040
 104.5036150  88.8830370  24.4340760 105.6342130  89.1108400  25.4147550
  99.9850640  87.9456790  31.6761640  99.6520020  88.5725710  32.3182710
 100.1617320  88.4718670  30.8963310 108.4984550  81.7601870  29.1437980
 107.7940120  82.0486760  29.7241090 108.8596710  82.5701980  28.7837540
  94.4902080  89.1037450  22.3717670  94.1130060  89.5924550  21.6402570
  94.7475150  89.7762730  23.0024200 110.1147330  91.3777000  31.4065460
 109.4310850  92.0476110  31.3982130 110.6541620  91.5757650  30.6410320
 111.5671470  81.2056660  29.5347190 110.6196380  81.2395640  29.6662620
 111.8921460  82.0195610  29.9196550 107.6506070  93.2221130  30.1210640
 107.6633230  92.8183420  29.2532900 107.0981290  93.9968420  30.0172070
 108.9451490  89.9437350  25.2100810 108.8347820  89.0011680  25.3350230
 108.9419740  90.3052990  26.0963570 107.0491510  88.1250970  31.4493250
 107.4660300  87.9111080  30.6146710 107.7731330  88.3823760  32.0201870
 104.4871770  85.5702670  24.5663300 103.5601050  85.5040050  24.7951770
 104.6396590  86.5082800  24.4518540 104.4740850  81.8419670  21.5630460
 103.5344520  82.0033630  21.6482920 104.7924110  82.5605350  21.0166450
 110.9953610  86.5238190  31.5409490 110.1672240  86.5931280  31.0659620
 111.5904090  87.1092500  31.0725320 108.5169060  87.1322970  25.0698550
 107.8981480  86.7942520  24.4224850 108.4993510  86.4882730  25.7777740
 100.0928410  86.0967410  27.3483030  99.6885410  85.3844660  26.8528930
 100.1791530  85.7520650  28.2371070 100.5610110  89.7834970  29.5122240
 100.2638400  89.1780440  28.8330020 101.5109930  89.8212280  29.4011600
 106.6933760  86.3709780  22.0771300 107.1327040  85.5332210  21.9309120
 107.4062180  87.0039180  22.1635440 104.8029140  91.3105850  26.0452540
 105.2425050  92.0530180  25.6307930 104.7416030  91.5532420  26.9691500
 100.2780110  92.3351680  36.9472560 100.2495540  92.7394630  36.0800990
 100.1145080  91.4062040  36.7844160 110.2750900  77.6252590  20.3912340
 109.9623560  77.7179420  21.2911410 111.0363370  78.2033620  20.3409770
  96.7933040  84.9912390  24.8489680  96.6730640  85.7174480  24.2370950
  96.4833930  84.2215300  24.3717590 111.6328180  90.3091630  35.4036740
 111.7591240  90.0703510  34.4853920 111.6749560  89.4776170  35.8758820
 107.4699320  94.2974970  23.4015550 107.3100460  94.0077910  24.2997380
 107.3046030  93.5215100  22.8660780  99.9487700  94.0773500  25.1787170
  99.7730180  93.1609040  24.9654970  99.0943440  94.4360790  25.4184970
 107.1725450  91.8062530  21.9613550 106.4790610  91.8039820  21.3015830
 107.9148310  91.3821850  21.5307720 106.7375380  93.4325240  26.0362040
 107.1932330  92.6514620  26.3500660 107.0767900  94.1432060  26.5803220
 111.4852190  82.3624090  36.3686480 110.8696460  82.8703760  35.8401940
 111.1648610  81.4622420  36.3112420  94.4877930  89.2041700  33.1952780
  94.6508970  88.7347060  32.3772150  94.9530380  88.6965260  33.8601620
 101.2972600  78.8794790  30.0902950 101.5944930  79.7857620  30.0094970
 101.8458160  78.3913570  29.4762520  99.0510920  83.4581030  25.9594600
  98.8251840  83.2418200  26.8641220  98.2703450  83.8909490  25.6140570
 106.2808680  83.4644400  24.5585250 105.6817570  84.1880200  24.3748870
 106.8288290  83.4021180  23.7761700 104.8873550  82.1007940  26.5888530
 105.2803120  82.4180140  25.7757220 105.2490400  81.2219820  26.7033050
  94.1107950  82.6328860  20.0221450  94.0282620  83.5759620  20.1636440
  93.7591010  82.4903770  19.1433800 105.4728690  84.6913690  30.6839310
 104.7409810  85.2000500  31.0329410 105.0753030  83.8743670  30.3828090
 101.9106080  81.3667890  29.0891800 101.9142140  80.9257840  28.2396340
 102.8057200  81.6885220  29.1963620 101.9726230  82.3679970  22.0798560
 102.0939050  82.3266450  23.0284380 101.5874740  83.2304120  21.9245290
 105.9354600  80.1447370  30.0962250 105.9527340  80.5956020  30.9404100
 105.6870180  79.2453010  30.3095690 100.9847730  84.6781110  21.4781860
 100.4164630  84.2299360  20.8517770 101.6936730  85.0373890  20.9447010
 109.3625350  77.5579550  35.9348630 109.6871120  76.8269210  36.4606610
 109.3981860  77.2393190  35.0329620 102.2114050  85.4269670  30.8357210
 102.5784180  84.9528240  31.5818550 102.0219110  86.3011240  31.1765550
 100.0013420  84.4678310  33.1541420  99.6970490  85.3470290  33.3791780
 100.9559880  84.5278100  33.1898860  98.5295210  88.6739300  23.7508270
  97.7557470  88.1336920  23.5906990  99.2589840  88.1545910  23.4126030
 109.2883190  87.6704660  29.5434660 110.0082310  88.1659950  29.1530770
 109.0865010  86.9922550  28.8988530 104.7493130  79.0642620  23.6864050
 103.9357740  78.5655790  23.6109360 104.5555080  79.9040870  23.2700400
 107.4641520  83.4362270  21.9826210 108.3521140  83.7479500  21.8077550
 107.4346610  82.5634520  21.5906790  98.5732610  88.3419680  27.3887080
  99.0911280  87.5387940  27.3343970  98.1216630  88.2798820  28.2303910
 103.4602110  89.6085960  22.6614380 103.8017810  90.3528190  22.1657700
 102.6314820  89.9217080  23.0239210 109.7355790  84.7474110  21.4506070
 109.6519510  85.1788330  20.6002510 110.4549980  85.2072460  21.8832890
 110.8129930  87.2041630  34.5276040 110.0878120  87.7970410  34.3305430
 111.3405390  87.1965170  33.7289410 110.7643040  91.6016370  24.1788200
 110.1219200  90.9471990  24.4531920 110.3773700  92.0071460  23.4028870
 106.3429520  88.9301800  28.0259890 106.6953340  88.3329930  27.3661260
 105.4591850  88.6046030  28.1968140 102.4292800  89.6899490  25.4330300
 103.1163930  90.2368700  25.8137890 101.6425220  90.2340220  25.4679910
  94.5685200  85.3072310  20.9247380  95.4380050  85.5897110  21.2083300
  94.0775520  86.1208180  20.8096190 101.7320010  86.6945520  25.0455660
 102.1882790  87.5050770  25.2715850 101.3808220  86.3768660  25.8774150
 109.1540420  90.4932830  20.7164550 108.9278000  89.7763270  21.3089190
 108.7636620  90.2445270  19.8786300 108.7356670  88.4104770  22.3778710
 108.4478370  88.8717460  23.1656590 109.5308840  87.9502540  22.6462930
  94.9198310  92.7854550  35.9651410  95.0289430  91.8449290  35.8246800
  94.2678870  93.0509300  35.3165140 102.9110900  91.0570440  37.3649530
 102.5907770  90.3379680  37.9095220 102.2369260  91.7325510  37.4385590
 100.9525070  91.9030890  22.3082680 100.9435170  92.6360580  21.6927190
 100.0323430  91.6562470  22.4009640  96.5531710  87.1245780  23.0529440
  95.9459660  87.8644680  23.0624740  97.0281060  87.2145140  22.2267640
 106.1264500  81.2896600  32.7286330 106.4945320  80.4691810  33.0565900
 105.2662700  81.3498490  33.1441980 109.4926530  80.2453540  23.5373890
 108.8639690  80.3499210  22.8232120 108.9978450  80.4650320  24.3267770
 103.9384670  91.9659130  20.9707870 104.0396650  91.7623120  20.0409850
 103.0386410  91.7117410  21.1755650 101.4610560  82.5239490  24.9531770
 100.7526710  82.9925830  25.3945380 101.7455040  81.8661500  25.5876960
 103.0866490  83.9436190  32.9524300 103.5851740  84.4182010  33.6176150
 103.2289440  83.0199710  33.1594330 105.4925990  79.2490150  26.3927560
 105.3693770  79.2676280  25.4437070 106.4410550  79.2969090  26.5125960
 102.5802780  94.4845450  25.6655540 102.8344280  94.4466840  24.7434910
 101.6315260  94.3578780  25.6583790  99.6645580  80.8324570  22.3282480
 100.5136110  81.2694720  22.2622670  99.2976850  81.1444830  23.1554540
 110.2933350  80.1604150  33.7952690 109.7906950  80.9009550  34.1346500
 111.1090010  80.5488150  33.4789480 108.5855360  85.4037330  27.2414050
 107.6445500  85.4187560  27.4161740 108.8999430  84.6173290  27.6874350
  98.5637000  87.0856930  20.8018010  99.3300270  86.9738290  21.3643440
  98.6411690  86.3894900  20.1494780  97.2583760  84.5182000  21.4850900
  97.3387350  83.5709510  21.5968300  98.1503510  84.8488880  21.5911560
 110.5880940  92.5746180  28.9168310 110.7128360  93.3977350  29.3892120
 111.4546500  92.3636910  28.5692460  98.0598470  94.6677390  28.5885440
  98.7960950  94.1192850  28.8594010  98.4439390  95.5333400  28.4491430
  94.9443950  90.7350960  24.4626950  94.0183730  90.9772100  24.4532360
  95.4100380  91.5625220  24.3411700  97.0656750  93.8523460  37.7771020
  97.8669480  94.1735510  38.1906420  96.5508570  93.4919040  38.4990930
 101.1700780  93.8407700  20.4111010 101.9629390  94.1296530  19.9592800
 100.6505130  93.4099870  19.7323490 105.9021380  89.9603330  37.7246430
 105.2959540  89.9834930  36.9842180 105.5975490  89.2286370  38.2613680
 110.2230950  93.0677830  21.8347750 109.9372460  92.6542970  21.0201930
 110.0250500  93.9965540  21.7148270 101.6878180  89.0611110  20.2753360
 101.5828820  88.4463460  21.0014740 101.5202400  88.5377000  19.4916370
 104.9280910  88.1231140  20.8795350 104.3791010  88.5700440  21.5238090
 105.5500170  87.6180390  21.4033020 108.9815850  89.4773240  36.8117610
 109.7225320  89.8149000  36.3085070 108.2188530  89.6465300  36.2587380
 100.5956030  87.0822060  22.7760650 101.0172450  86.9161930  23.6192040
 100.7206870  86.2722290  22.2815790  98.7583450  83.0618610  35.5831630
  98.2279910  82.5709560  34.9554970  99.4271520  83.4902810  35.0489560
 103.1083670  86.1059670  20.0237750 103.6289330  85.3908690  19.6578900
 103.7552070  86.7445540  20.3238260 102.0117190  78.5854220  32.6956310
 101.5634490  78.6078480  31.8501860 101.3782390  78.1873240  33.2926610
 102.4176740  87.4808550  33.3168750 102.8364850  88.3241280  33.1444990
 101.4985370  87.6180590  33.0875530  99.4914930  83.1555290  19.7218810
  99.2903990  82.2922650  20.0832150  99.3206980  83.0688650  18.7840410
 106.9703240  77.9663520  22.2505690 107.2505530  77.1231420  22.6065110
 106.1968970  78.1986630  22.7644440  98.2897730  80.2555910  19.7096690
  98.5923630  80.2623340  18.8015840  99.0292320  79.9053770  20.2064350
 103.6731700  94.1871280  22.3139490 104.5682490  94.5256250  22.3358250
 103.7049330  93.4650690  21.6863770  97.3127860  89.5598330  20.5426490
  97.7502730  90.1028000  21.1984070  97.7975590  88.7345280  20.5522830
  99.1235580  90.6796370  25.6548720  98.8231120  90.5561340  26.5552630
  99.0173070  89.8204960  25.2464450  95.0163870  93.2157950  30.7328380
  94.5794860  93.3958750  31.5652530  95.5841550  93.9732570  30.5910100
 110.6526050  92.7174950  35.0205690 110.0528040  92.7767510  34.2769610
 110.7819950  91.7779930  35.1502540 111.8927500  90.4592770  20.3575400
 111.0620460  90.5269420  20.8282630 112.0699330  91.3496890  20.0542260
 111.3483960  87.2040250  22.8609600 112.1102870  87.7736900  22.9669290
 111.3638330  86.6367450  23.6317910 112.3543930  88.0590350  27.7051530
 112.7252760  87.2757670  27.2987500 112.9945860  88.7479450  27.5268830
 109.3377690  89.4426930  33.1181850 108.5237530  89.8724090  33.3807640
 109.7451890  90.0545340  32.5050900 111.4003130  87.4974620  20.0182120
 111.6751970  88.4053500  19.8901340 111.2113870  87.4337150  20.9544110
 107.7978740  80.5219470  21.3135750 108.2163620  80.3350450  20.4732410
 107.4914800  79.6698520  21.6238680 111.2968470  85.4343610  25.0111550
 110.9212070  84.6671540  24.5792840 110.5671590  85.8166310  25.4986480
 109.1256160  79.8071560  37.4230770 110.0026340  79.8154960  37.8064770
 109.1377000  79.0702400  36.8123120  94.0626380  82.9377110  23.0342590
  93.1590460  83.2007310  22.8594250  94.5467000  83.2088280  22.2542550
 110.5719430  83.6601100  28.3118790 111.0956910  83.1663750  27.6808960
 111.1578850  83.7951460  29.0566360 110.7509150  83.7440970  31.8338340
 109.8011860  83.7104510  31.9483330 110.9322160  84.6541080  31.5988110
  96.6053590  81.9942650  20.9436970  97.3145290  81.5725870  20.4584250
  95.8893530  82.0617880  20.3120320  96.2527750  78.0481980  19.9839620
  96.9755880  78.5890920  20.3020840  96.5252270  77.7745400  19.1081160
 110.0619400  82.9174450  24.2511200 110.5578520  82.6845320  25.0360080
 109.8635470  82.0786290  23.8348840 111.4906560  81.5535400  26.7848880
 111.3805840  81.3991440  27.7231150 112.2514150  81.0256340  26.5424290
 109.8372280  77.4929530  33.2431880 110.4744500  78.1063670  33.6091070
 109.9847170  77.5290190  32.2981110 112.3796830  79.3843320  20.0255020
 113.3046140  79.2524500  19.8173310 112.3572620  79.4636140  20.9791470
 112.4535320  80.1553980  22.6511730 111.6586820  80.0899100  23.1804640
 112.6578600  81.0904620  22.6397080 109.3953740  94.1945530  26.6450120
 109.9912810  93.8730100  25.9684540 109.6531890  93.7217350  27.4363390
 112.2626500  94.2017410  33.1961110 111.7684780  94.5986280  32.4788240
 111.6539790  93.5766620  33.5898390  97.1404340  93.5725690  33.9138530
  96.5464660  93.4410390  34.6528570  97.1328180  92.7363830  33.4480630
 106.5859360  76.8657920  32.1168560 105.7119200  77.1993030  31.9141490
 106.4770110  76.3931100  32.9420430 107.4931340  79.0728790  33.5010280
 107.1644700  78.2580550  33.1212010 108.4413640  79.0298600  33.3775970
 109.9465950  94.8440830  30.4747850 109.4868920  95.5956640  30.1005870
 109.3178410  94.1247300  30.4162650  96.7716570  90.9384070  32.8646570
  96.0450630  90.3189360  32.7972520  96.8325720  91.3324680  31.9944650
 100.3761670  93.1529070  29.6495980 100.8926690  92.5416430  29.1244240
 101.0259050  93.6557850  30.1406990 104.3334180  77.7827760  31.0561470
 103.5505970  78.2573260  31.3358230 104.0397110  76.8782590  30.9474650
 108.8855250  78.4850860  29.1010560 109.3263340  78.4295960  28.2532160
 108.6162840  79.4008870  29.1720740 110.7493820  78.1166100  27.1119380
 110.6882220  77.1727320  26.9650400 111.5285850  78.2246190  27.6572840
 102.2188400  80.2014510  26.5677500 101.4062910  79.8271400  26.2273380
 102.7230040  79.4459590  26.8698690 106.7213380  76.8656960  27.8060570
 107.3242750  77.4377170  28.2809090 105.9806370  77.4296400  27.5834470
 109.8647980  77.2678520  23.0800850 110.0598610  78.1661970  23.3468280
 109.0777850  77.0365600  23.5733800  96.6609270  92.9491690  23.5193470
  96.1356890  93.3299720  22.8155430  96.5853850  93.5742460  24.2403180
 111.4174590  94.5079230  24.8407410 111.5926780  93.8216970  24.1968330
 110.7196160  95.0326280  24.4484080  99.2602240  94.8974070  22.3942720
  99.9921060  94.6133350  21.8466610  99.5195910  94.6587350  23.2842100
  98.4217030  91.0138800  22.3989050  97.7925910  91.4823900  22.9474880
  98.5364860  90.1688020  22.8335240 106.9708600  77.0451990  38.1855510
 106.8574050  77.3646600  39.0807030 107.7878340  77.4464500  37.8892790
 105.8766750  85.0644460   8.5490250 105.7960800  84.1499070   8.2781960
 105.4631170  85.5611530   7.8429960 104.0084790  86.8423480  10.4299520
 103.2326890  86.3623920  10.7198090 104.6597720  86.1629130  10.2555680
  98.0250620  87.1543290  11.3075280  97.1935500  86.8992000  11.7071790
  98.6331600  87.2254060  12.0433200 108.0292220  91.2483670   9.2098650
 107.5673750  90.4770910   9.5385820 108.8417770  91.2749740   9.7151100
  98.0051880  91.1883380  11.5033300  98.3079920  90.2981120  11.3243520
  98.7495470  91.7453600  11.2755550  96.4342570  82.1145180   5.0917670
  95.5459270  82.4561150   4.9897550  96.7183760  81.9145500   4.1998500
  94.3975580  84.7150830  10.9757370  94.9691690  83.9473030  10.9761010
  94.3977120  85.0139590  10.0663980 104.2555530  93.5341680   8.8302640
 103.6366970  93.9899180   8.2597080 105.1107310  93.6893140   8.4292340
 103.4493780  89.5180670  10.4369680 103.3802060  88.5770610  10.2758810
 104.2113640  89.6082080  11.0092250  95.6400450  80.1235190  12.7626300
  95.4603290  79.2260940  13.0429060  95.2380530  80.6707060  13.4373250
 104.4798950  82.3251050  10.6638610 104.8563770  81.4522930  10.5512280
 104.3818460  82.6609750   9.7729050  98.6103960  80.6976680   6.1256050
  98.7170710  81.5980410   6.4324810  97.6996320  80.6494650   5.8350700
 108.2623070  79.8201490   7.5966950 109.0832690  79.3298060   7.6392430
 108.2957150  80.4099150   8.3498790  96.2587120  82.6195690  11.3708640
  96.9397230  82.8834060  11.9896040  95.9435170  81.7796560  11.7046650
 100.4511690  83.6663050  10.4581230 100.9589910  84.1644020  11.0986250
 100.9824930  82.8898250  10.2820590 112.5522620  81.8368240  14.1610580
 111.8474790  82.2249950  13.6425690 112.8180540  82.5318530  14.7631510
  98.7347790  78.3061610  14.7244650  98.7366230  78.8234000  13.9190550
  97.9052100  77.8291790  14.7014580 105.1218880  88.4180920   6.2234550
 104.5036150  88.8830370   5.6597270 105.6342130  89.1108400   6.6404060
  99.9850640  87.9456790  12.9018150  99.6520020  88.5725710  13.5439220
 100.1617320  88.4718670  12.1219820 108.4984550  81.7601870  10.3694490
 107.7940120  82.0486760  10.9497600 108.8596710  82.5701980  10.0094050
  98.4163120  80.0171570  12.7315100  98.7579930  80.8613620  12.4368970
  97.4778930  80.1655310  12.8480440  99.1969740  89.9137590  14.7167330
  99.8143740  90.5888670  14.4351780  98.3362860  90.3225570  14.6254830
  94.4902080  89.1037450   3.5974180  94.1130060  89.5924550   2.8659080
  94.7475150  89.7762730   4.2280710 110.1147330  91.3777000  12.6321970
 109.4310850  92.0476110  12.6238640 110.6541620  91.5757650  11.8666830
 111.5671470  81.2056660  10.7603700 110.6196380  81.2395640  10.8919130
 111.8921460  82.0195610  11.1453060 102.0991010  77.5053840   9.0559690
 102.4065990  76.9500730   8.3395190 101.1691710  77.6398300   8.8732680
 107.6506070  93.2221130  11.3467150 107.6633230  92.8183420  10.4789410
 107.0981290  93.9968420  11.2428580 108.9451490  89.9437350   6.4357320
 108.8347820  89.0011680   6.5606740 108.9419740  90.3052990   7.3220080
 107.0491510  88.1250970  12.6749760 107.4660300  87.9111080  11.8403220
 107.7731330  88.3823760  13.2458380 104.4871770  85.5702670   5.7919810
 103.5601050  85.5040050   6.0208280 104.6396590  86.5082800   5.6775050
 104.4740850  81.8419670   2.7886970 103.5344520  82.0033630   2.8739430
 104.7924110  82.5605350   2.2422960 110.9953610  86.5238190  12.7666000
 110.1672240  86.5931280  12.2916130 111.5904090  87.1092500  12.2981830
 108.5169060  87.1322970   6.2955060 107.8981480  86.7942520   5.6481360
 108.4993510  86.4882730   7.0034250 107.9595620  83.3107510  13.7120870
 107.5466800  84.1361220  13.9660860 107.2271570  82.7252550  13.5197230
 100.0928410  86.0967410   8.5739540  99.6885410  85.3844660   8.0785440
 100.1791530  85.7520650   9.4627580 100.5610110  89.7834970  10.7378750
 100.2638400  89.1780440  10.0586530 101.5109930  89.8212280  10.6268110
  98.8057030  82.8710620  12.3538580  99.3571620  82.9805960  11.5791830
  99.3200540  83.2448220  13.0693810 108.6495720  93.3566840  14.4001850
 108.1726280  94.1639030  14.2074460 107.9657510  92.7045170  14.5528060
  99.6528540  89.5216660  17.3886550  98.7557070  89.7456630  17.6359950
  99.6781410  89.6451600  16.4397950 106.6933760  86.3709780   3.3027810
 107.1327040  85.5332210   3.1565630 107.4062180  87.0039180   3.3891950
  98.4799760  86.3929980  15.9643920  98.3407530  87.2652780  16.3331320
  97.5981120  86.0502790  15.8191860 104.8029140  91.3105850   7.2709050
 105.2425050  92.0530180   6.8564440 104.7416030  91.5532420   8.1948010
 100.2780110  92.3351680  18.1729070 100.2495540  92.7394630  17.3057500
 100.1145080  91.4062040  18.0100670  96.7933040  84.9912390   6.0746190
  96.6730640  85.7174480   5.4627460  96.4833930  84.2215300   5.5974100
 112.2294930  93.1178780  19.4693240 112.7054650  93.5961670  20.1482320
 112.8502090  93.0496270  18.7438740  94.4318410  88.1627530  11.8814830
  94.5098830  88.2976300  10.9370550  95.0460090  87.4543420  12.0742950
  95.6766040  89.8627720   8.2921010  95.2694120  90.0042310   7.4374610
  96.5679050  89.5787880   8.0892220 111.6328180  90.3091630  16.6293250
 111.7591240  90.0703510  15.7110430 111.6749560  89.4776170  17.1015330
 105.4944920  94.0119630  15.1988060 106.0089590  93.9227640  16.0010490
 104.6514000  94.3579330  15.4915970 107.4699320  94.2974970   4.6272060
 107.3100460  94.0077910   5.5253890 107.3046030  93.5215100   4.0917290
  99.9487700  94.0773500   6.4043680  99.7730180  93.1609040   6.1911480
  99.0943440  94.4360790   6.6441480 107.1725450  91.8062530   3.1870060
 106.4790610  91.8039820   2.5272340 107.9148310  91.3821850   2.7564230
 106.7375380  93.4325240   7.2618550 107.1932330  92.6514620   7.5757170
 107.0767900  94.1432060   7.8059730 111.4852190  82.3624090  17.5942990
 110.8696460  82.8703760  17.0658450 111.1648610  81.4622420  17.5368930
  94.4877930  89.2041700  14.4209290  94.6508970  88.7347060  13.6028660
  94.9530380  88.6965260  15.0858130  99.2596700  78.3347460   9.4569860
  98.8164850  79.1157000   9.1254380  99.8181690  78.6577350  10.1640800
 103.5466510  81.2015980  15.0605180 103.0845880  81.4099000  15.8725120
 103.1444620  80.3875330  14.7575850 108.5471020  82.4224930  16.1901840
 107.6964610  82.1230680  16.5110910 108.3872810  82.6666940  15.2785660
 105.6420730  83.9226680  18.2900630 105.9674140  83.0890430  17.9502860
 106.4301060  84.4455200  18.4378960 102.3755520  77.9558160   4.3375690
 101.7509700  77.9518030   5.0629000 102.2885640  77.0889120   3.9411660
 101.2972600  78.8794790  11.3159460 101.5944930  79.7857620  11.2351480
 101.8458160  78.3913570  10.7019030  99.0510920  83.4581030   7.1851110
  98.8251840  83.2418200   8.0897730  98.2703450  83.8909490   6.8397080
 106.2808680  83.4644400   5.7841760 105.6817570  84.1880200   5.6005380
 106.8288290  83.4021180   5.0018210 101.4910130  84.3566610  17.8511380
 101.3953730  83.4161340  17.7011780 102.3342110  84.5781680  17.4559450
 104.8873550  82.1007940   7.8145040 105.2803120  82.4180140   7.0013730
 105.2490400  81.2219820   7.9289560  96.6220670  80.7680280  16.0045160
  96.2284060  81.6155490  16.2117940  95.9339070  80.1306650  16.1953800
 103.1965720  80.8515250  19.0741900 102.5064040  80.6587450  19.7087990
 103.9398020  81.1349890  19.6066200  93.9237720  78.6908740  10.0375240
  93.6350770  79.2611600  10.7500220  94.6683480  78.2113190  10.4006470
 105.4728690  84.6913690  11.9095820 104.7409810  85.2000500  12.2585920
 105.0753030  83.8743670  11.6084600 101.9106080  81.3667890  10.3148310
 101.9142140  80.9257840   9.4652850 102.8057200  81.6885220  10.4220130
  97.7608460  81.2494380   9.2742520  97.4208510  81.7269610  10.0309570
  96.9985780  80.7959500   8.9143620 101.9726230  82.3679970   3.3055070
 102.0939050  82.3266450   4.2540890 101.5874740  83.2304120   3.1501800
 105.9354600  80.1447370  11.3218760 105.9527340  80.5956020  12.1660610
 105.6870180  79.2453010  11.5352200 100.9847730  84.6781110   2.7038370
 100.4164630  84.2299360   2.0774280 101.6936730  85.0373890   2.1703520
 109.3625350  77.5579550  17.1605140 109.6871120  76.8269210  17.6863120
 109.3981860  77.2393190  16.2586130  96.0616910  88.5793130  16.5805100
  95.6771700  87.9386800  17.1788060  96.3729100  89.2829250  17.1499830
 102.2114050  85.4269670  12.0613720 102.5784180  84.9528240  12.8075060
 102.0219110  86.3011240  12.4022060  95.0754540  80.1713360   8.1907190
  94.7901460  79.8069030   9.0285810  95.0133400  79.4393820   7.5770330
 100.0013420  84.4678310  14.3797930  99.6970490  85.3470290  14.6048290
 100.9559880  84.5278100  14.4155370  98.5295210  88.6739300   4.9764780
  97.7557470  88.1336920   4.8163500  99.2589840  88.1545910   4.6382540
 109.2883190  87.6704660  10.7691170 110.0082310  88.1659950  10.3787280
 109.0865010  86.9922550  10.1245040 104.7493130  79.0642620   4.9120560
 103.9357740  78.5655790   4.8365870 104.5555080  79.9040870   4.4956910
 104.6701990  87.7413720  16.6560170 104.6039300  86.8209390  16.4017760
 104.0407130  87.8389160  17.3704810 107.4641520  83.4362270   3.2082720
 108.3521140  83.7479500   3.0334060 107.4346610  82.5634520   2.8163300
  98.5732610  88.3419680   8.6143590  99.0911280  87.5387940   8.5600480
  98.1216630  88.2798820   9.4560420 103.4602110  89.6085960   3.8870890
 103.8017810  90.3528190   3.3914210 102.6314820  89.9217080   4.2495720
  96.0577150  85.3081050  15.5269290  95.6992090  85.9734900  16.1142630
  95.7631710  84.4764600  15.8981910  99.2590270  85.7665290  18.4108840
  98.9590410  85.9122470  17.5136660 100.0301510  85.2070580  18.3182230
 104.6018720  90.5634290  16.4063970 104.6163260  89.6315250  16.1882880
 103.8943820  90.6494050  17.0453740 109.7355790  84.7474110   2.6762580
 109.6519510  85.1788330   1.8259020 110.4549980  85.2072460   3.1089400
 110.8129930  87.2041630  15.7532550 110.0878120  87.7970410  15.5561940
 111.3405390  87.1965170  14.9545920 110.7643040  91.6016370   5.4044710
 110.1219200  90.9471990   5.6788430 110.3773700  92.0071460   4.6285380
 106.3429520  88.9301800   9.2516400 106.6953340  88.3329930   8.5917770
 105.4591850  88.6046030   9.4224650 102.4292800  89.6899490   6.6586810
 103.1163930  90.2368700   7.0394400 101.6425220  90.2340220   6.6936420
  94.5685200  85.3072310   2.1503890  95.4380050  85.5897110   2.4339810
  94.0775520  86.1208180   2.0352700 101.7320010  86.6945520   6.2712170
 102.1882790  87.5050770   6.4972360 101.3808220  86.3768660   7.1030660
 104.0352620  92.2051860  13.5004470 104.6794840  92.4111240  14.1777890
 104.3982060  91.4440260  13.0475320  97.6331790  77.0383170   6.7434690
  97.5046420  77.0301070   7.6919610  96.8093810  77.3766260   6.3925700
 105.3084700  90.2084210  12.2181920 105.9506930  89.5077370  12.3314090
 105.8334050  90.9882650  12.0378810 107.0822320  91.0079110  15.4217980
 107.4178560  91.5945800  16.0995900 106.1622660  90.8771820  15.6515770
  94.9356450  94.5199690   2.7165520  95.2954090  95.1189030   2.0622790
  94.7948790  95.0659580   3.4900550  94.6325720  78.7974290  16.2041390
  93.9184240  78.9971210  16.8094000  95.0520760  78.0213860  16.5756190
 108.7356670  88.4104770   3.6035220 108.4478370  88.8717460   4.3913100
 109.5308840  87.9502540   3.8719440  94.9198310  92.7854550  17.1907920
  95.0289430  91.8449290  17.0503310  94.2678870  93.0509300  16.5421650
 102.9110900  91.0570440  18.5906040 102.5907770  90.3379680  19.1351730
 102.2369260  91.7325510  18.6642100 100.9525070  91.9030890   3.5339190
 100.9435170  92.6360580   2.9183700 100.0323430  91.6562470   3.6266150
  96.5531710  87.1245780   4.2785950  95.9459660  87.8644680   4.2881250
  97.0281060  87.2145140   3.4524150 106.1264500  81.2896600  13.9542840
 106.4945320  80.4691810  14.2822410 105.2662700  81.3498490  14.3698490
 109.4926530  80.2453540   4.7630400 108.8639690  80.3499210   4.0488630
 108.9978450  80.4650320   5.5524280 101.4610560  82.5239490   6.1788280
 100.7526710  82.9925830   6.6201890 101.7455040  81.8661500   6.8133470
 103.0866490  83.9436190  14.1780810 103.5851740  84.4182010  14.8432660
 103.2289440  83.0199710  14.3850840 105.4925990  79.2490150   7.6184070
 105.3693770  79.2676280   6.6693580 106.4410550  79.2969090   7.7382470
 102.5802780  94.4845450   6.8912050 102.8344280  94.4466840   5.9691420
 101.6315260  94.3578780   6.8840300  99.6645580  80.8324570   3.5538990
 100.5136110  81.2694720   3.4879180  99.2976850  81.1444830   4.3811050
 110.2933350  80.1604150  15.0209200 109.7906950  80.9009550  15.3603010
 111.1090010  80.5488150  14.7045990 108.5855360  85.4037330   8.4670560
 107.6445500  85.4187560   8.6418250 108.8999430  84.6173290   8.9130860
  97.2583760  84.5182000   2.7107410  97.3387350  83.5709510   2.8224810
  98.1503510  84.8488880   2.8168070 110.5880940  92.5746180  10.1424820
 110.7128360  93.3977350  10.6148630 111.4546500  92.3636910   9.7948970
  98.0598470  94.6677390   9.8141950  98.7960950  94.1192850  10.0850520
  98.4439390  95.5333400   9.6747940  94.9443950  90.7350960   5.6883460
  94.0183730  90.9772100   5.6788870  95.4100380  91.5625220   5.5668210
  97.0656750  93.8523460  19.0027530  97.8669480  94.1735510  19.4162930
  96.5508570  93.4919040  19.7247440 105.9021380  89.9603330  18.9502940
 105.2959540  89.9834930  18.2098690 105.5975490  89.2286370  19.4870190
 107.3321750  93.6883620  17.5612350 108.2843500  93.6041640  17.5112590
 107.1849970  94.3525330  18.2346140 110.2230950  93.0677830   3.0604260
 109.9372460  92.6542970   2.2458440 110.0250500  93.9965540   2.9404780
  94.7854560  86.3396920  17.9463580  95.2893580  85.7604200  18.5179810
  94.0461980  86.6237150  18.4839950 101.8392500  87.7467910  17.4799100
 101.0738170  88.3152910  17.3953770 102.0208460  87.4544120  16.5867330
 104.9280910  88.1231140   2.1051860 104.3791010  88.5700440   2.7494600
 105.5500170  87.6180390   2.6289530 108.9815850  89.4773240  18.0374120
 109.7225320  89.8149000  17.5341580 108.2188530  89.6465300  17.4843890
  96.8177640  84.4826510  18.8413650  96.8582980  84.1840380  19.7498880
  97.6723140  84.8834120  18.6821170 100.5956030  87.0822060   4.0017160
 101.0172450  86.9161930   4.8448550 100.7206870  86.2722290   3.5072300
  98.7583450  83.0618610  16.8088140  98.2279910  82.5709560  16.1811480
  99.4271520  83.4902810  16.2746070 107.6561510  87.5288070  16.5729330
 108.0702530  87.6833150  17.4219750 106.7212510  87.6543290  16.7355110
 108.1283680  84.8684230  18.5768480 108.7104450  84.1136550  18.4888960
 108.3045450  85.3991670  17.7999960  99.2455750  80.0280980  16.8885430
  99.1512620  79.4101730  16.1636300  98.6653140  80.7547270  16.6615340
 102.0117190  78.5854220  13.9212820 101.5634490  78.6078480  13.0758370
 101.3782390  78.1873240  14.5183120 102.4176740  87.4808550  14.5425260
 102.8364850  88.3241280  14.3701500 101.4985370  87.6180590  14.3132040
 104.7540640  85.2124730  15.9263100 104.8736850  84.6165870  16.6657940
 105.6134640  85.2494420  15.5064400 107.0928540  85.7661920  14.5025610
 106.5663760  86.2904540  13.8990750 107.4359880  86.3989310  15.1335340
 100.2684160  93.7861560  15.6582990  99.7305250  94.5107620  15.3391690
 100.5218120  93.3091900  14.8680330 101.5209410  81.7546080  17.1838920
 102.1109100  81.4461930  17.8716740 100.7029650  81.2825830  17.3398820
 106.3402840  81.3711890  17.4171940 105.6518360  80.7093430  17.3521930
 107.0608860  80.9250160  17.8620400 106.9703240  77.9663520   3.4762200
 107.2505530  77.1231420   3.8321620 106.1968970  78.1986630   3.9900950
 103.1246370  95.0212770  15.9169640 103.0505070  95.9247910  16.2242010
 102.2225210  94.7024670  15.8891710 103.6731700  94.1871280   3.5396000
 104.5682490  94.5256250   3.5614760 103.7049330  93.4650690   2.9120280
  97.3127860  89.5598330   1.7683000  97.7502730  90.1028000   2.4240580
  97.7975590  88.7345280   1.7779340  94.5273660  92.3487360   9.2203260
  94.8576670  91.4808420   8.9881900  94.9564660  92.5545880  10.0508220
  99.1235580  90.6796370   6.8805230  98.8231120  90.5561340   7.7809140
  99.0173070  89.8204960   6.4720960  95.0163870  93.2157950  11.9584890
  94.5794860  93.3958750  12.7909040  95.5841550  93.9732570  11.8166610
 110.6526050  92.7174950  16.2462200 110.0528040  92.7767510  15.5026120
 110.7819950  91.7779930  16.3759050 111.3483960  87.2040250   4.0866110
 112.1102870  87.7736900   4.1925800 111.3638330  86.6367450   4.8574420
  94.8488300  85.7278180   8.3173770  94.1937140  85.4589820   7.6733470
  95.6866250  85.6182660   7.8675750 112.3543930  88.0590350   8.9308040
 112.7252760  87.2757670   8.5244010 112.9945860  88.7479450   8.7525340
 109.3377690  89.4426930  14.3438360 108.5237530  89.8724090  14.6064150
 109.7451890  90.0545340  13.7307410 107.7978740  80.5219470   2.5392260
 108.2163620  80.3350450   1.6988920 107.4914800  79.6698520   2.8495190
 111.2968470  85.4343610   6.2368060 110.9212070  84.6671540   5.8049350
 110.5671590  85.8166310   6.7242990  95.8864230  86.1130750  12.8577110
  96.2537270  86.0258150  13.7373130  95.3175050  85.3497300  12.7583970
 110.6868090  84.5815130  15.8707580 110.4554180  84.3527880  14.9705530
 110.9472640  85.5014680  15.8252470  95.4380230  83.0239840  16.7635530
  94.5436280  82.9906600  17.1029240  95.9777780  83.2226630  17.5286780
 109.1256160  79.8071560  18.6487280 110.0026340  79.8154960  19.0321280
 109.1377000  79.0702400  18.0379630  94.0626380  82.9377110   4.2599100
  93.1590460  83.2007310   4.0850760  94.5467000  83.2088280   3.4799060
 110.5719430  83.6601100   9.5375300 111.0956910  83.1663750   8.9065470
 111.1578850  83.7951460  10.2822870 110.7509150  83.7440970  13.0594850
 109.8011860  83.7104510  13.1739840 110.9322160  84.6541080  12.8244620
 110.0619400  82.9174450   5.4767710 110.5578520  82.6845320   6.2616590
 109.8635470  82.0786290   5.0605350  95.9419940  77.2988170  11.1118750
  96.5896130  76.7485550  10.6713910  96.3621780  77.5531320  11.9334560
 111.4906560  81.5535400   8.0105390 111.3805840  81.3991440   8.9487660
 112.2514150  81.0256340   7.7680800 109.8372280  77.4929530  14.4688390
 110.4744500  78.1063670  14.8347580 109.9847170  77.5290190  13.5237620
 112.4535320  80.1553980   3.8768240 111.6586820  80.0899100   4.4061150
 112.6578600  81.0904620   3.8653590 109.3953740  94.1945530   7.8706630
 109.9912810  93.8730100   7.1941050 109.6531890  93.7217350   8.6619900
  95.6951940  77.4543840  13.8544070  95.3466760  77.9107660  14.6202250
  95.3639640  76.5600970  13.9366500  97.3016310  90.6263440  18.0197260
  97.2585940  90.2556350  18.9011720  97.4327320  91.5641010  18.1599080
 101.0022340  92.1823030  13.6206980 100.7613700  92.4497590  12.7337500
 101.9424980  92.3528760  13.6757840 103.2076760  78.6455720  17.3763490
 103.1465650  79.2377550  18.1258900 104.1477140  78.5381680  17.2313750
 105.8451320  78.3025780  17.0155780 106.4591730  78.6205070  16.3536860
 106.3900880  77.8174370  17.6351640 112.2626500  94.2017410  14.4217620
 111.7684780  94.5986280  13.7044750 111.6539790  93.5766620  14.8154900
  96.3672580  76.9820040  17.1294840  96.9155570  76.8008090  16.3660950
  96.4327890  76.1914150  17.6651150  97.1404340  93.5725690  15.1395040
  96.5464660  93.4410390  15.8785080  97.1328180  92.7363830  14.6737140
 106.5859360  76.8657920  13.3425070 105.7119200  77.1993030  13.1398000
 106.4770110  76.3931100  14.1676940 107.4931340  79.0728790  14.7266790
 107.1644700  78.2580550  14.3468520 108.4413640  79.0298600  14.6032480
 109.9465950  94.8440830  11.7004360 109.4868920  95.5956640  11.3262380
 109.3178410  94.1247300  11.6419160  96.7716570  90.9384070  14.0903080
  96.0450630  90.3189360  14.0229030  96.8325720  91.3324680  13.2201160
 100.3761670  93.1529070  10.8752490 100.8926690  92.5416430  10.3500750
 101.0259050  93.6557850  11.3663500 103.1157170  94.0437560  11.7021470
 103.4034980  93.7891860  10.8254480 103.6280390  93.4914920  12.2927040
 104.3334180  77.7827760  12.2817980 103.5505970  78.2573260  12.5614740
 104.0397110  76.8782590  12.1731160 108.8855250  78.4850860  10.3267070
 109.3263340  78.4295960   9.4788670 108.6162840  79.4008870  10.3977250
 110.7493820  78.1166100   8.3375890 110.6882220  77.1727320   8.1906910
 111.5285850  78.2246190   8.8829350  95.0546570  94.2558460   7.2999840
  94.8868610  93.6229140   7.9981730  94.1881080  94.4617860   6.9494030
  95.6774590  78.0875240   4.8031700  96.4353950  78.2004120   4.2295730
  95.2151760  78.9244440   4.7575130 102.2188400  80.2014510   7.7934010
 101.4062910  79.8271400   7.4529890 102.7230040  79.4459590   8.0955200
 106.7213380  76.8656960   9.0317080 107.3242750  77.4377170   9.5065600
 105.9806370  77.4296400   8.8090980 109.8647980  77.2678520   4.3057360
 110.0598610  78.1661970   4.5724790 109.0777850  77.0365600   4.7990310
  96.6609270  92.9491690   4.7449980  96.1356890  93.3299720   4.0411940
  96.5853850  93.5742460   5.4659690  98.0499740  78.6139290   3.3433670
  98.5792500  77.8269090   3.2141620  98.6828060  79.2930480   3.5769200
 100.2437580  78.3514430   6.3979060  99.6140320  77.6501740   6.5649190
  99.7042720  79.1118560   6.1812220 103.1829530  94.9653660  19.0689670
 104.1096840  94.7297930  19.1125630 103.1679960  95.7925660  18.5875700
 111.4174590  94.5079230   6.0663920 111.5926780  93.8216970   5.4224840
 110.7196160  95.0326280   5.6740590  99.2602240  94.8974070   3.6199230
  99.9921060  94.6133350   3.0723120  99.5195910  94.6587350   4.5098610
  98.4217030  91.0138800   3.6245560  97.7925910  91.4823900   4.1731390
  98.5364860  90.1688020   4.0591750 106.9708600  77.0451990  19.4112020
 106.8574050  77.3646600  20.3063540 107.7878340  77.4464500  19.1149300
 109.7507090  94.1923520  18.8930710 110.5432410  93.6972750  18.6856670
 110.0440240  94.8713660  19.5006320 105.8766750  66.2900970 139.9694680
 105.7960800  65.3755580 139.6986390 105.4631170  66.7868040 139.2634390
 104.0084790  68.0679990 141.8503950 103.2326890  67.5880430 142.1402520
 104.6597720  67.3885640 141.6760110  98.0250620  68.3799800 142.7279710
  97.1935500  68.1248510 143.1276220  98.6331600  68.4510570 143.4637630
 108.0292220  72.4740180 140.6303080 107.5673750  71.7027420 140.9590250
 108.8417770  72.5006250 141.1355530  98.0051880  72.4139890 142.9237730
  98.3079920  71.5237630 142.7447950  98.7495470  72.9710110 142.6959980
  96.4342570  63.3401690 136.5122100  95.5459270  63.6817660 136.4101980
  96.7183760  63.1402010 135.6202930  94.3975580  65.9407340 142.3961800
  94.9691690  65.1729540 142.3965440  94.3977120  66.2396100 141.4868410
 104.2555530  74.7598190 140.2507070 103.6366970  75.2155690 139.6801510
 105.1107310  74.9149650 139.8496770 103.4493780  70.7437180 141.8574110
 103.3802060  69.8027120 141.6963240 104.2113640  70.8338590 142.4296680
  95.6400450  61.3491700 144.1830730  95.4603290  60.4517450 144.4633490
  95.2380530  61.8963570 144.8577680 104.4798950  63.5507560 142.0843040
 104.8563770  62.6779440 141.9716710 104.3818460  63.8866260 141.1933480
  98.6103960  61.9233190 137.5460480  98.7170710  62.8236920 137.8529240
  97.6996320  61.8751160 137.2555130 108.2623070  61.0458000 139.0171380
 109.0832690  60.5554570 139.0596860 108.2957150  61.6355660 139.7703220
  96.2587120  63.8452200 142.7913070  96.9397230  64.1090570 143.4100470
  95.9435170  63.0053070 143.1251080 100.4511690  64.8919560 141.8785660
 100.9589910  65.3900530 142.5190680 100.9824930  64.1154760 141.7025020
 112.5522620  63.0624750 145.5815010 111.8474790  63.4506460 145.0630120
 112.8180540  63.7575040 146.1835940  98.7347790  59.5318120 146.1449080
  98.7366230  60.0490510 145.3394980  97.9052100  59.0548300 146.1219010
 105.1218880  69.6437430 137.6438980 104.5036150  70.1086880 137.0801700
 105.6342130  70.3364910 138.0608490  99.9850640  69.1713300 144.3222580
  99.6520020  69.7982220 144.9643650 100.1617320  69.6975180 143.5424250
 108.4984550  62.9858380 141.7898920 107.7940120  63.2743270 142.3702030
 108.8596710  63.7958490 141.4298480  98.4163120  61.2428080 144.1519530
  98.7579930  62.0870130 143.8573400  97.4778930  61.3911820 144.2684870
  99.1969740  71.1394100 146.1371760  99.8143740  71.8145180 145.8556210
  98.3362860  71.5482080 146.0459260  94.4902080  70.3293960 135.0178610
  94.1130060  70.8181060 134.2863510  94.7475150  71.0019240 135.6485140
 110.1147330  72.6033510 144.0526400 109.4310850  73.2732620 144.0443070
 110.6541620  72.8014160 143.2871260 111.5671470  62.4313170 142.1808130
 110.6196380  62.4652150 142.3123560 111.8921460  63.2452120 142.5657490
 102.0991010  58.7310350 140.4764120 102.4065990  58.1757240 139.7599620
 101.1691710  58.8654810 140.2937110 107.6506070  74.4477640 142.7671580
 107.6633230  74.0439930 141.8993840 107.0981290  75.2224930 142.6633010
 108.9451490  71.1693860 137.8561750 108.8347820  70.2268190 137.9811170
 108.9419740  71.5309500 138.7424510 107.0491510  69.3507480 144.0954190
 107.4660300  69.1367590 143.2607650 107.7731330  69.6080270 144.6662810
 104.4871770  66.7959180 137.2124240 103.5601050  66.7296560 137.4412710
 104.6396590  67.7339310 137.0979480 104.4740850  63.0676180 134.2091400
 103.5344520  63.2290140 134.2943860 104.7924110  63.7861860 133.6627390
 110.9953610  67.7494700 144.1870430 110.1672240  67.8187790 143.7120560
 111.5904090  68.3349010 143.7186260 108.5169060  68.3579480 137.7159490
 107.8981480  68.0199030 137.0685790 108.4993510  67.7139240 138.4238680
 107.9595620  64.5364020 145.1325300 107.5466800  65.3617730 145.3865290
 107.2271570  63.9509060 144.9401660 100.0928410  67.3223920 139.9943970
  99.6885410  66.6101170 139.4989870 100.1791530  66.9777160 140.8832010
 100.5610110  71.0091480 142.1583180 100.2638400  70.4036950 141.4790960
 101.5109930  71.0468790 142.0472540  98.8057030  64.0967130 143.7743010
  99.3571620  64.2062470 142.9996260  99.3200540  64.4704730 144.4898240
 108.6495720  74.5823350 145.8206280 108.1726280  75.3895540 145.6278890
 107.9657510  73.9301680 145.9732490  99.6528540  70.7473170 148.8090980
  98.7557070  70.9713140 149.0564380  99.6781410  70.8708110 147.8602380
 106.6933760  67.5966290 134.7232240 107.1327040  66.7588720 134.5770060
 107.4062180  68.2295690 134.8096380  98.4799760  67.6186490 147.3848350
  98.3407530  68.4909290 147.7535750  97.5981120  67.2759300 147.2396290
 104.8029140  72.5362360 138.6913480 105.2425050  73.2786690 138.2768870
 104.7416030  72.7788930 139.6152440 100.2780110  73.5608190 149.5933500
 100.2495540  73.9651140 148.7261930 100.1145080  72.6318550 149.4305100
 110.2750900  58.8509100 133.0373280 109.9623560  58.9435930 133.9372350
 111.0363370  59.4290130 132.9870710  96.7933040  66.2168900 137.4950620
  96.6730640  66.9430990 136.8831890  96.4833930  65.4471810 137.0178530
  94.4318410  69.3884040 143.3019260  94.5098830  69.5232810 142.3574980
  95.0460090  68.6799930 143.4947380  95.6766040  71.0884230 139.7125440
  95.2694120  71.2298820 138.8579040  96.5679050  70.8044390 139.5096650
 111.6328180  71.5348140 148.0497680 111.7591240  71.2960020 147.1314860
 111.6749560  70.7032680 148.5219760 105.4944920  75.2376140 146.6192490
 106.0089590  75.1484150 147.4214920 104.6514000  75.5835840 146.9120400
 107.4699320  75.5231480 136.0476490 107.3100460  75.2334420 136.9458320
 107.3046030  74.7471610 135.5121720  99.9487700  75.3030010 137.8248110
  99.7730180  74.3865550 137.6115910  99.0943440  75.6617300 138.0645910
 107.1725450  73.0319040 134.6074490 106.4790610  73.0296330 133.9476770
 107.9148310  72.6078360 134.1768660 106.7375380  74.6581750 138.6822980
 107.1932330  73.8771130 138.9961600 107.0767900  75.3688570 139.2264160
 111.4852190  63.5880600 149.0147420 110.8696460  64.0960270 148.4862880
 111.1648610  62.6878930 148.9573360  94.4877930  70.4298210 145.8413720
  94.6508970  69.9603570 145.0233090  94.9530380  69.9221770 146.5062560
  99.2596700  59.5603970 140.8774290  98.8164850  60.3413510 140.5458810
  99.8181690  59.8833860 141.5845230 103.5466510  62.4272490 146.4809610
 103.0845880  62.6355510 147.2929550 103.1444620  61.6131840 146.1780280
 108.5471020  63.6481440 147.6106270 107.6964610  63.3487190 147.9315340
 108.3872810  63.8923450 146.6990090 105.6420730  65.1483190 149.7105060
 105.9674140  64.3146940 149.3707290 106.4301060  65.6711710 149.8583390
 102.3755520  59.1814670 135.7580120 101.7509700  59.1774540 136.4833430
 102.2885640  58.3145630 135.3616090 101.2972600  60.1051300 142.7363890
 101.5944930  61.0114130 142.6555910 101.8458160  59.6170080 142.1223460
  99.0510920  64.6837540 138.6055540  98.8251840  64.4674710 139.5102160
  98.2703450  65.1166000 138.2601510 106.2808680  64.6900910 137.2046190
 105.6817570  65.4136710 137.0209810 106.8288290  64.6277690 136.4222640
 101.4910130  65.5823120 149.2715810 101.3953730  64.6417850 149.1216210
 102.3342110  65.8038190 148.8763880 104.8873550  63.3264450 139.2349470
 105.2803120  63.6436650 138.4218160 105.2490400  62.4476330 139.3493990
  96.6220670  61.9936790 147.4249590  96.2284060  62.8412000 147.6322370
  95.9339070  61.3563160 147.6158230  93.9237720  59.9165250 141.4579670
  93.6350770  60.4868110 142.1704650  94.6683480  59.4369700 141.8210900
  94.1107950  63.8585370 132.6682390  94.0282620  64.8016130 132.8097380
  93.7591010  63.7160280 131.7894740 105.4728690  65.9170200 143.3300250
 104.7409810  66.4257010 143.6790350 105.0753030  65.1000180 143.0289030
 101.9106080  62.5924400 141.7352740 101.9142140  62.1514350 140.8857280
 102.8057200  62.9141730 141.8424560  97.7608460  62.4750890 140.6946950
  97.4208510  62.9526120 141.4514000  96.9985780  62.0216010 140.3348050
 101.9726230  63.5936480 134.7259500 102.0939050  63.5522960 135.6745320
 101.5874740  64.4560630 134.5706230 105.9354600  61.3703880 142.7423190
 105.9527340  61.8212530 143.5865040 105.6870180  60.4709520 142.9556630
 100.9847730  65.9037620 134.1242800 100.4164630  65.4555870 133.4978710
 101.6936730  66.2630400 133.5907950 109.3625350  58.7836060 148.5809570
 109.6871120  58.0525720 149.1067550 109.3981860  58.4649700 147.6790560
  96.0616910  69.8049640 148.0009530  95.6771700  69.1643310 148.5992490
  96.3729100  70.5085760 148.5704260 102.2114050  66.6526180 143.4818150
 102.5784180  66.1784750 144.2279490 102.0219110  67.5267750 143.8226490
  95.0754540  61.3969870 139.6111620  94.7901460  61.0325540 140.4490240
  95.0133400  60.6650330 138.9974760 100.0013420  65.6934820 145.8002360
  99.6970490  66.5726800 146.0252720 100.9559880  65.7534610 145.8359800
  98.5295210  69.8995810 136.3969210  97.7557470  69.3593430 136.2367930
  99.2589840  69.3802420 136.0586970 109.2883190  68.8961170 142.1895600
 110.0082310  69.3916460 141.7991710 109.0865010  68.2179060 141.5449470
 104.7493130  60.2899130 136.3324990 103.9357740  59.7912300 136.2570300
 104.5555080  61.1297380 135.9161340 104.6701990  68.9670230 148.0764600
 104.6039300  68.0465900 147.8222190 104.0407130  69.0645670 148.7909240
 107.4641520  64.6618780 134.6287150 108.3521140  64.9736010 134.4538490
 107.4346610  63.7891030 134.2367730  98.5732610  69.5676190 140.0348020
  99.0911280  68.7644450 139.9804910  98.1216630  69.5055330 140.8764850
 103.4602110  70.8342470 135.3075320 103.8017810  71.5784700 134.8118640
 102.6314820  71.1473590 135.6700150  96.0577150  66.5337560 146.9473720
  95.6992090  67.1991410 147.5347060  95.7631710  65.7021110 147.3186340
  99.2590270  66.9921800 149.8313270  98.9590410  67.1378980 148.9341090
 100.0301510  66.4327090 149.7386660 104.6018720  71.7890800 147.8268400
 104.6163260  70.8571760 147.6087310 103.8943820  71.8750560 148.4658170
 109.7355790  65.9730620 134.0967010 109.6519510  66.4044840 133.2463450
 110.4549980  66.4328970 134.5293830 110.8129930  68.4298140 147.1736980
 110.0878120  69.0226920 146.9766370 111.3405390  68.4221680 146.3750350
 110.7643040  72.8272880 136.8249140 110.1219200  72.1728500 137.0992860
 110.3773700  73.2327970 136.0489810 106.3429520  70.1558310 140.6720830
 106.6953340  69.5586440 140.0122200 105.4591850  69.8302540 140.8429080
 102.4292800  70.9156000 138.0791240 103.1163930  71.4625210 138.4598830
 101.6425220  71.4596730 138.1140850  94.5685200  66.5328820 133.5708320
  95.4380050  66.8153620 133.8544240  94.0775520  67.3464690 133.4557130
 101.7320010  67.9202030 137.6916600 102.1882790  68.7307280 137.9176790
 101.3808220  67.6025170 138.5235090 104.0352620  73.4308370 144.9208900
 104.6794840  73.6367750 145.5982320 104.3982060  72.6696770 144.4679750
  97.6331790  58.2639680 138.1639120  97.5046420  58.2557580 139.1124040
  96.8093810  58.6022770 137.8130130 105.3084700  71.4340720 143.6386350
 105.9506930  70.7333880 143.7518520 105.8334050  72.2139160 143.4583240
 109.1540420  71.7189340 133.3625490 108.9278000  71.0019780 133.9550130
 108.7636620  71.4701780 132.5247240 107.0822320  72.2335620 146.8422410
 107.4178560  72.8202310 147.5200330 106.1622660  72.1028330 147.0720200
  94.9356450  75.7456200 134.1369950  95.2954090  76.3445540 133.4827220
  94.7948790  76.2916090 134.9104980  94.6325720  60.0230800 147.6245820
  93.9184240  60.2227720 148.2298430  95.0520760  59.2470370 147.9960620
 108.7356670  69.6361280 135.0239650 108.4478370  70.0973970 135.8117530
 109.5308840  69.1759050 135.2923870  94.9198310  74.0111060 148.6112350
  95.0289430  73.0705800 148.4707740  94.2678870  74.2765810 147.9626080
 100.9525070  73.1287400 134.9543620 100.9435170  73.8617090 134.3388130
 100.0323430  72.8818980 135.0470580  96.5531710  68.3502290 135.6990380
  95.9459660  69.0901190 135.7085680  97.0281060  68.4401650 134.8728580
 106.1264500  62.5153110 145.3747270 106.4945320  61.6948320 145.7026840
 105.2662700  62.5755000 145.7902920 109.4926530  61.4710050 136.1834830
 108.8639690  61.5755720 135.4693060 108.9978450  61.6906830 136.9728710
 103.9384670  73.1915640 133.6168810 104.0396650  72.9879630 132.6870790
 103.0386410  72.9373920 133.8216590 101.4610560  63.7496000 137.5992710
 100.7526710  64.2182340 138.0406320 101.7455040  63.0918010 138.2337900
 103.0866490  65.1692700 145.5985240 103.5851740  65.6438520 146.2637090
 103.2289440  64.2456220 145.8055270 105.4925990  60.4746660 139.0388500
 105.3693770  60.4932790 138.0898010 106.4410550  60.5225600 139.1586900
 102.5802780  75.7101960 138.3116480 102.8344280  75.6723350 137.3895850
 101.6315260  75.5835290 138.3044730  99.6645580  62.0581080 134.9743420
 100.5136110  62.4951230 134.9083610  99.2976850  62.3701340 135.8015480
 110.2933350  61.3860660 146.4413630 109.7906950  62.1266060 146.7807440
 111.1090010  61.7744660 146.1250420 108.5855360  66.6293840 139.8874990
 107.6445500  66.6444070 140.0622680 108.8999430  65.8429800 140.3335290
  98.5637000  68.3113440 133.4478950  99.3300270  68.1994800 134.0104380
  98.6411690  67.6151410 132.7955720  97.2583760  65.7438510 134.1311840
  97.3387350  64.7966020 134.2429240  98.1503510  66.0745390 134.2372500
 110.5880940  73.8002690 141.5629250 110.7128360  74.6233860 142.0353060
 111.4546500  73.5893420 141.2153400  98.0598470  75.8933900 141.2346380
  98.7960950  75.3449360 141.5054950  98.4439390  76.7589910 141.0952370
  94.9443950  71.9607470 137.1087890  94.0183730  72.2028610 137.0993300
  95.4100380  72.7881730 136.9872640 101.1700780  75.0664210 133.0571950
 101.9629390  75.3553040 132.6053740 100.6505130  74.6356380 132.3784430
 107.3321750  74.9140130 148.9816780 108.2843500  74.8298150 148.9317020
 107.1849970  75.5781840 149.6550570 110.2230950  74.2934340 134.4808690
 109.9372460  73.8799480 133.6662870 110.0250500  75.2222050 134.3609210
  94.7854560  67.5653430 149.3668010  95.2893580  66.9860710 149.9384240
  94.0461980  67.8493660 149.9044380 101.6878180  70.2867620 132.9214300
 101.5828820  69.6719970 133.6475680 101.5202400  69.7633510 132.1377310
 101.8392500  68.9724420 148.9003530 101.0738170  69.5409420 148.8158200
 102.0208460  68.6800630 148.0071760 104.9280910  69.3487650 133.5256290
 104.3791010  69.7956950 134.1699030 105.5500170  68.8436900 134.0493960
 108.9815850  70.7029750 149.4578550 109.7225320  71.0405510 148.9546010
 108.2188530  70.8721810 148.9048320 100.5956030  68.3078570 135.4221590
 101.0172450  68.1418440 136.2652980 100.7206870  67.4978800 134.9276730
  98.7583450  64.2875120 148.2292570  98.2279910  63.7966070 147.6015910
  99.4271520  64.7159320 147.6950500 103.1083670  67.3316180 132.6698690
 103.6289330  66.6165200 132.3039840 103.7552070  67.9702050 132.9699200
 107.6561510  68.7544580 147.9933760 108.0702530  68.9089660 148.8424180
 106.7212510  68.8799800 148.1559540 108.1283680  66.0940740 149.9972910
 108.7104450  65.3393060 149.9093390 108.3045450  66.6248180 149.2204390
  99.2455750  61.2537490 148.3089860  99.1512620  60.6358240 147.5840730
  98.6653140  61.9803780 148.0819770 102.0117190  59.8110730 145.3417250
 101.5634490  59.8334990 144.4962800 101.3782390  59.4129750 145.9387550
 102.4176740  68.7065060 145.9629690 102.8364850  69.5497790 145.7905930
 101.4985370  68.8437100 145.7336470 104.7540640  66.4381240 147.3467530
 104.8736850  65.8422380 148.0862370 105.6134640  66.4750930 146.9268830
 107.0928540  66.9918430 145.9230040 106.5663760  67.5161050 145.3195180
 107.4359880  67.6245820 146.5539770  99.4914930  64.3811800 132.3679750
  99.2903990  63.5179160 132.7293090  99.3206980  64.2945160 131.4301350
 100.2684160  75.0118070 147.0787420  99.7305250  75.7364130 146.7596120
 100.5218120  74.5348410 146.2884760 101.5209410  62.9802590 148.6043350
 102.1109100  62.6718440 149.2921170 100.7029650  62.5082340 148.7603250
 106.3402840  62.5968400 148.8376370 105.6518360  61.9349940 148.7726360
 107.0608860  62.1506670 149.2824830 106.9703240  59.1920030 134.8966630
 107.2505530  58.3487930 135.2526050 106.1968970  59.4243140 135.4105380
  98.2897730  61.4812420 132.3557630  98.5923630  61.4879850 131.4476780
  99.0292320  61.1310280 132.8525290 103.1246370  76.2469280 147.3374070
 103.0505070  77.1504420 147.6446440 102.2225210  75.9281180 147.3096140
 101.5082660  60.4247040 133.3413830 101.1604660  59.7471030 132.7616280
 101.7095430  59.9636550 134.1557220 103.6731700  75.4127790 134.9600430
 104.5682490  75.7512760 134.9819190 103.7049330  74.6907200 134.3324710
  97.3127860  70.7854840 133.1887430  97.7502730  71.3284510 133.8445010
  97.7975590  69.9601790 133.1983770  94.5273660  73.5743870 140.6407690
  94.8576670  72.7064930 140.4086330  94.9564660  73.7802390 141.4712650
  99.1235580  71.9052880 138.3009660  98.8231120  71.7817850 139.2013570
  99.0173070  71.0461470 137.8925390  95.0163870  74.4414460 143.3789320
  94.5794860  74.6215260 144.2113470  95.5841550  75.1989080 143.2371040
 110.6526050  73.9431460 147.6666630 110.0528040  74.0024020 146.9230550
 110.7819950  73.0036440 147.7963480 111.8927500  71.6849280 133.0036340
 111.0620460  71.7525930 133.4743570 112.0699330  72.5753400 132.7003200
 111.3483960  68.4296760 135.5070540 112.1102870  68.9993410 135.6130230
 111.3638330  67.8623960 136.2778850  94.8488300  66.9534690 139.7378200
  94.1937140  66.6846330 139.0937900  95.6866250  66.8439170 139.2880180
 112.3543930  69.2846860 140.3512470 112.7252760  68.5014180 139.9448440
 112.9945860  69.9735960 140.1729770 109.3377690  70.6683440 145.7642790
 108.5237530  71.0980600 146.0268580 109.7451890  71.2801850 145.1511840
 111.4003130  68.7231130 132.6643060 111.6751970  69.6310010 132.5362280
 111.2113870  68.6593660 133.6005050 107.7978740  61.7475980 133.9596690
 108.2163620  61.5606960 133.1193350 107.4914800  60.8955030 134.2699620
 111.2968470  66.6600120 137.6572490 110.9212070  65.8928050 137.2253780
 110.5671590  67.0422820 138.1447420  95.8864230  67.3387260 144.2781540
  96.2537270  67.2514660 145.1577560  95.3175050  66.5753810 144.1788400
 110.6868090  65.8071640 147.2912010 110.4554180  65.5784390 146.3909960
 110.9472640  66.7271190 147.2456900  95.4380230  64.2496350 148.1839960
  94.5436280  64.2163110 148.5233670  95.9777780  64.4483140 148.9491210
  94.0626380  64.1633620 135.6803530  93.1590460  64.4263820 135.5055190
  94.5467000  64.4344790 134.9003490 110.5719430  64.8857610 140.9579730
 111.0956910  64.3920260 140.3269900 111.1578850  65.0207970 141.7027300
 110.7509150  64.9697480 144.4799280 109.8011860  64.9361020 144.5944270
 110.9322160  65.8797590 144.2449050  96.6053590  63.2199160 133.5897910
  97.3145290  62.7982380 133.1045190  95.8893530  63.2874390 132.9581260
  96.2527750  59.2738490 132.6300560  96.9755880  59.8147430 132.9481780
  96.5252270  59.0001910 131.7542100 110.0619400  64.1430960 136.8972140
 110.5578520  63.9101830 137.6821020 109.8635470  63.3042800 136.4809780
  95.9419940  58.5244680 142.5323180  96.5896130  57.9742060 142.0918340
  96.3621780  58.7787830 143.3538990 111.4906560  62.7791910 139.4309820
 111.3805840  62.6247950 140.3692090 112.2514150  62.2512850 139.1885230
 109.8372280  58.7186040 145.8892820 110.4744500  59.3320180 146.2552010
 109.9847170  58.7546700 144.9442050 112.3796830  60.6099830 132.6715960
 113.3046140  60.4781010 132.4634250 112.3572620  60.6892650 133.6252410
 112.4535320  61.3810490 135.2972670 111.6586820  61.3155610 135.8265580
 112.6578600  62.3161130 135.2858020 109.3953740  75.4202040 139.2911060
 109.9912810  75.0986610 138.6145480 109.6531890  74.9473860 140.0824330
  95.6951940  58.6800350 145.2748500  95.3466760  59.1364170 146.0406680
  95.3639640  57.7857480 145.3570930 101.0022340  73.4079540 145.0411410
 100.7613700  73.6754100 144.1541930 101.9424980  73.5785270 145.0962270
 103.2076760  59.8712230 148.7967920 103.1465650  60.4634060 149.5463330
 104.1477140  59.7638190 148.6518180 105.8451320  59.5282290 148.4360210
 106.4591730  59.8461580 147.7741290 106.3900880  59.0430880 149.0556070
 112.2626500  75.4273920 145.8422050 111.7684780  75.8242790 145.1249180
 111.6539790  74.8023130 146.2359330  96.3672580  58.2076550 148.5499270
  96.9155570  58.0264600 147.7865380  96.4327890  57.4170660 149.0855580
  97.1404340  74.7982200 146.5599470  96.5464660  74.6666900 147.2989510
  97.1328180  73.9620340 146.0941570 106.5859360  58.0914430 144.7629500
 105.7119200  58.4249540 144.5602430 106.4770110  57.6187610 145.5881370
 107.4931340  60.2985300 146.1471220 107.1644700  59.4837060 145.7672950
 108.4413640  60.2555110 146.0236910 109.9465950  76.0697340 143.1208790
 109.4868920  76.8213150 142.7466810 109.3178410  75.3503810 143.0623590
  96.7716570  72.1640580 145.5107510  96.0450630  71.5445870 145.4433460
  96.8325720  72.5581190 144.6405590 100.3761670  74.3785580 142.2956920
 100.8926690  73.7672940 141.7705180 101.0259050  74.8814360 142.7867930
 103.1157170  75.2694070 143.1225900 103.4034980  75.0148370 142.2458910
 103.6280390  74.7171430 143.7131470 104.3334180  59.0084270 143.7022410
 103.5505970  59.4829770 143.9819170 104.0397110  58.1039100 143.5935590
 108.8855250  59.7107370 141.7471500 109.3263340  59.6552470 140.8993100
 108.6162840  60.6265380 141.8181680 110.7493820  59.3422610 139.7580320
 110.6882220  58.3983830 139.6111340 111.5285850  59.4502700 140.3033780
  95.0546570  75.4814970 138.7204270  94.8868610  74.8485650 139.4186160
  94.1881080  75.6874370 138.3698460  95.6774590  59.3131750 136.2236130
  96.4353950  59.4260630 135.6500160  95.2151760  60.1500950 136.1779560
 102.2188400  61.4271020 139.2138440 101.4062910  61.0527910 138.8734320
 102.7230040  60.6716100 139.5159630 106.7213380  58.0913470 140.4521510
 107.3242750  58.6633680 140.9270030 105.9806370  58.6552910 140.2295410
 109.8647980  58.4935030 135.7261790 110.0598610  59.3918480 135.9929220
 109.0777850  58.2622110 136.2194740  96.6609270  74.1748200 136.1654410
  96.1356890  74.5556230 135.4616370  96.5853850  74.7998970 136.8864120
  98.0499740  59.8395800 134.7638100  98.5792500  59.0525600 134.6346050
  98.6828060  60.5186990 134.9973630 100.2437580  59.5770940 137.8183490
  99.6140320  58.8758250 137.9853620  99.7042720  60.3375070 137.6016650
 111.4174590  75.7335740 137.4868350 111.5926780  75.0473480 136.8429270
 110.7196160  76.2582790 137.0945020  99.2602240  76.1230580 135.0403660
  99.9921060  75.8389860 134.4927550  99.5195910  75.8843860 135.9303040
  98.4217030  72.2395310 135.0449990  97.7925910  72.7080410 135.5935820
  98.5364860  71.3944530 135.4796180 105.8766750  66.2900970 121.1951190
 105.7960800  65.3755580 120.9242900 105.4631170  66.7868040 120.4890900
 104.0084790  68.0679990 123.0760460 103.2326890  67.5880430 123.3659030
 104.6597720  67.3885640 122.9016620  98.0250620  68.3799800 123.9536220
  97.1935500  68.1248510 124.3532730  98.6331600  68.4510570 124.6894140
 108.0292220  72.4740180 121.8559590 107.5673750  71.7027420 122.1846760
 108.8417770  72.5006250 122.3612040  98.0051880  72.4139890 124.1494240
  98.3079920  71.5237630 123.9704460  98.7495470  72.9710110 123.9216490
  96.4342570  63.3401690 117.7378610  95.5459270  63.6817660 117.6358490
  96.7183760  63.1402010 116.8459440 104.2555530  74.7598190 121.4763580
 103.6366970  75.2155690 120.9058020 105.1107310  74.9149650 121.0753280
 103.4493780  70.7437180 123.0830620 103.3802060  69.8027120 122.9219750
 104.2113640  70.8338590 123.6553190  98.6103960  61.9233190 118.7716990
  98.7170710  62.8236920 119.0785750  97.6996320  61.8751160 118.4811640
 100.4511690  64.8919560 123.1042170 100.9589910  65.3900530 123.7447190
 100.9824930  64.1154760 122.9281530 112.5522620  63.0624750 126.8071520
 111.8474790  63.4506460 126.2886630 112.8180540  63.7575040 127.4092450
 105.1218880  69.6437430 118.8695490 104.5036150  70.1086880 118.3058210
 105.6342130  70.3364910 119.2865000  99.9850640  69.1713300 125.5479090
  99.6520020  69.7982220 126.1900160 100.1617320  69.6975180 124.7680760
  99.1969740  71.1394100 127.3628270  99.8143740  71.8145180 127.0812720
  98.3362860  71.5482080 127.2715770  94.4902080  70.3293960 116.2435120
  94.1130060  70.8181060 115.5120020  94.7475150  71.0019240 116.8741650
 111.5671470  62.4313170 123.4064640 110.6196380  62.4652150 123.5380070
 111.8921460  63.2452120 123.7914000 102.0991010  58.7310350 121.7020630
 102.4065990  58.1757240 120.9856130 101.1691710  58.8654810 121.5193620
 107.6506070  74.4477640 123.9928090 107.6633230  74.0439930 123.1250350
 107.0981290  75.2224930 123.8889520 108.9451490  71.1693860 119.0818260
 108.8347820  70.2268190 119.2067680 108.9419740  71.5309500 119.9681020
 104.4871770  66.7959180 118.4380750 103.5601050  66.7296560 118.6669220
 104.6396590  67.7339310 118.3235990 108.5169060  68.3579480 118.9416000
 107.8981480  68.0199030 118.2942300 108.4993510  67.7139240 119.6495190
 107.9595620  64.5364020 126.3581810 107.5466800  65.3617730 126.6121800
 107.2271570  63.9509060 126.1658170 100.0928410  67.3223920 121.2200480
  99.6885410  66.6101170 120.7246380 100.1791530  66.9777160 122.1088520
 100.5610110  71.0091480 123.3839690 100.2638400  70.4036950 122.7047470
 101.5109930  71.0468790 123.2729050  98.8057030  64.0967130 124.9999520
  99.3571620  64.2062470 124.2252770  99.3200540  64.4704730 125.7154750
  99.6528540  70.7473170 130.0347490  98.7557070  70.9713140 130.2820890
  99.6781410  70.8708110 129.0858890 106.6933760  67.5966290 115.9488750
 107.1327040  66.7588720 115.8026570 107.4062180  68.2295690 116.0352890
  98.4799760  67.6186490 128.6104860  98.3407530  68.4909290 128.9792260
  97.5981120  67.2759300 128.4652800 104.8029140  72.5362360 119.9169990
 105.2425050  73.2786690 119.5025380 104.7416030  72.7788930 120.8408950
 100.2780110  73.5608190 130.8190010 100.2495540  73.9651140 129.9518440
 100.1145080  72.6318550 130.6561610 110.2750900  58.8509100 114.2629790
 109.9623560  58.9435930 115.1628860 111.0363370  59.4290130 114.2127220
  96.7933040  66.2168900 118.7207130  96.6730640  66.9430990 118.1088400
  96.4833930  65.4471810 118.2435040 112.2294930  74.3435290 132.1154180
 112.7054650  74.8218180 132.7943260 112.8502090  74.2752780 131.3899680
  94.4318410  69.3884040 124.5275770  94.5098830  69.5232810 123.5831490
  95.0460090  68.6799930 124.7203890  95.6766040  71.0884230 120.9381950
  95.2694120  71.2298820 120.0835550  96.5679050  70.8044390 120.7353160
 111.6328180  71.5348140 129.2754190 111.7591240  71.2960020 128.3571370
 111.6749560  70.7032680 129.7476270 105.4944920  75.2376140 127.8449000
 106.0089590  75.1484150 128.6471430 104.6514000  75.5835840 128.1376910
 111.4852190  63.5880600 130.2403930 110.8696460  64.0960270 129.7119390
 111.1648610  62.6878930 130.1829870  94.4877930  70.4298210 127.0670230
  94.6508970  69.9603570 126.2489600  94.9530380  69.9221770 127.7319070
 103.5466510  62.4272490 127.7066120 103.0845880  62.6355510 128.5186060
 103.1444620  61.6131840 127.4036790 108.5471020  63.6481440 128.8362780
 107.6964610  63.3487190 129.1571850 108.3872810  63.8923450 127.9246600
 105.6420730  65.1483190 130.9361570 105.9674140  64.3146940 130.5963800
 106.4301060  65.6711710 131.0839900 102.3755520  59.1814670 116.9836630
 101.7509700  59.1774540 117.7089940 102.2885640  58.3145630 116.5872600
 101.2972600  60.1051300 123.9620400 101.5944930  61.0114130 123.8812420
 101.8458160  59.6170080 123.3479970  99.0510920  64.6837540 119.8312050
  98.8251840  64.4674710 120.7358670  98.2703450  65.1166000 119.4858020
 101.4910130  65.5823120 130.4972320 101.3953730  64.6417850 130.3472720
 102.3342110  65.8038190 130.1020390 103.1965720  62.0771760 131.7202840
 102.5064040  61.8843960 132.3548930 103.9398020  62.3606400 132.2527140
  94.1107950  63.8585370 113.8938900  94.0282620  64.8016130 114.0353890
  93.7591010  63.7160280 113.0151250 105.4728690  65.9170200 124.5556760
 104.7409810  66.4257010 124.9046860 105.0753030  65.1000180 124.2545540
 101.9106080  62.5924400 122.9609250 101.9142140  62.1514350 122.1113790
 102.8057200  62.9141730 123.0681070 101.9726230  63.5936480 115.9516010
 102.0939050  63.5522960 116.9001830 101.5874740  64.4560630 115.7962740
 109.3625350  58.7836060 129.8066080 109.6871120  58.0525720 130.3324060
 109.3981860  58.4649700 128.9047070  96.0616910  69.8049640 129.2266040
  95.6771700  69.1643310 129.8249000  96.3729100  70.5085760 129.7960770
 102.2114050  66.6526180 124.7074660 102.5784180  66.1784750 125.4536000
 102.0219110  67.5267750 125.0483000 100.0013420  65.6934820 127.0258870
  99.6970490  66.5726800 127.2509230 100.9559880  65.7534610 127.0616310
 104.6701990  68.9670230 129.3021110 104.6039300  68.0465900 129.0478700
 104.0407130  69.0645670 130.0165750  98.5732610  69.5676190 121.2604530
  99.0911280  68.7644450 121.2061420  98.1216630  69.5055330 122.1021360
  96.0577150  66.5337560 128.1730230  95.6992090  67.1991410 128.7603570
  95.7631710  65.7021110 128.5442850  99.2590270  66.9921800 131.0569780
  98.9590410  67.1378980 130.1597600 100.0301510  66.4327090 130.9643170
 104.6018720  71.7890800 129.0524910 104.6163260  70.8571760 128.8343820
 103.8943820  71.8750560 129.6914680 106.3429520  70.1558310 121.8977340
 106.6953340  69.5586440 121.2378710 105.4591850  69.8302540 122.0685590
 102.4292800  70.9156000 119.3047750 103.1163930  71.4625210 119.6855340
 101.6425220  71.4596730 119.3397360 104.0352620  73.4308370 126.1465410
 104.6794840  73.6367750 126.8238830 104.3982060  72.6696770 125.6936260
 109.1540420  71.7189340 114.5882000 108.9278000  71.0019780 115.1806640
 108.7636620  71.4701780 113.7503750 108.7356670  69.6361280 116.2496160
 108.4478370  70.0973970 117.0374040 109.5308840  69.1759050 116.5180380
  94.9198310  74.0111060 129.8368860  95.0289430  73.0705800 129.6964250
  94.2678870  74.2765810 129.1882590 102.9110900  72.2826950 131.2366980
 102.5907770  71.5636190 131.7812670 102.2369260  72.9582020 131.3103040
 106.1264500  62.5153110 126.6003780 106.4945320  61.6948320 126.9283350
 105.2662700  62.5755000 127.0159430 103.9384670  73.1915640 114.8425320
 104.0396650  72.9879630 113.9127300 103.0386410  72.9373920 115.0473100
 101.4610560  63.7496000 118.8249220 100.7526710  64.2182340 119.2662830
 101.7455040  63.0918010 119.4594410 103.0866490  65.1692700 126.8241750
 103.5851740  65.6438520 127.4893600 103.2289440  64.2456220 127.0311780
  99.6645580  62.0581080 116.1999930 100.5136110  62.4951230 116.1340120
  99.2976850  62.3701340 117.0271990 110.2933350  61.3860660 127.6670140
 109.7906950  62.1266060 128.0063950 111.1090010  61.7744660 127.3506930
 108.5855360  66.6293840 121.1131500 107.6445500  66.6444070 121.2879190
 108.8999430  65.8429800 121.5591800 110.5880940  73.8002690 122.7885760
 110.7128360  74.6233860 123.2609570 111.4546500  73.5893420 122.4409910
  94.9443950  71.9607470 118.3344400  94.0183730  72.2028610 118.3249810
  95.4100380  72.7881730 118.2129150  97.0656750  75.0779970 131.6488470
  97.8669480  75.3992020 132.0623870  96.5508570  74.7175550 132.3708380
 101.1700780  75.0664210 114.2828460 101.9629390  75.3553040 113.8310250
 100.6505130  74.6356380 113.6040940 105.9021380  71.1859840 131.5963880
 105.2959540  71.2091440 130.8559630 105.5975490  70.4542880 132.1331130
 107.3321750  74.9140130 130.2073290 108.2843500  74.8298150 130.1573530
 107.1849970  75.5781840 130.8807080  94.7854560  67.5653430 130.5924520
  95.2893580  66.9860710 131.1640750  94.0461980  67.8493660 131.1300890
 101.8392500  68.9724420 130.1260040 101.0738170  69.5409420 130.0414710
 102.0208460  68.6800630 129.2328270 104.9280910  69.3487650 114.7512800
 104.3791010  69.7956950 115.3955540 105.5500170  68.8436900 115.2750470
 108.9815850  70.7029750 130.6835060 109.7225320  71.0405510 130.1802520
 108.2188530  70.8721810 130.1304830  96.8177640  65.7083020 131.4874590
  96.8582980  65.4096890 132.3959820  97.6723140  66.1090630 131.3282110
  98.7583450  64.2875120 129.4549080  98.2279910  63.7966070 128.8272420
  99.4271520  64.7159320 128.9207010 108.1283680  66.0940740 131.2229420
 108.7104450  65.3393060 131.1349900 108.3045450  66.6248180 130.4460900
 102.0117190  59.8110730 126.5673760 101.5634490  59.8334990 125.7219310
 101.3782390  59.4129750 127.1644060 102.4176740  68.7065060 127.1886200
 102.8364850  69.5497790 127.0162440 101.4985370  68.8437100 126.9592980
 104.7540640  66.4381240 128.5724040 104.8736850  65.8422380 129.3118880
 105.6134640  66.4750930 128.1525340  99.4914930  64.3811800 113.5936260
  99.2903990  63.5179160 113.9549600  99.3206980  64.2945160 112.6557860
 100.2684160  75.0118070 128.3043930  99.7305250  75.7364130 127.9852630
 100.5218120  74.5348410 127.5141270 101.5209410  62.9802590 129.8299860
 102.1109100  62.6718440 130.5177680 100.7029650  62.5082340 129.9859760
 106.3402840  62.5968400 130.0632880 105.6518360  61.9349940 129.9982870
 107.0608860  62.1506670 130.5081340  98.2897730  61.4812420 113.5814140
  98.5923630  61.4879850 112.6733290  99.0292320  61.1310280 114.0781800
 103.1246370  76.2469280 128.5630580 103.0505070  77.1504420 128.8702950
 102.2225210  75.9281180 128.5352650 101.5082660  60.4247040 114.5670340
 101.1604660  59.7471030 113.9872790 101.7095430  59.9636550 115.3813730
 103.6731700  75.4127790 116.1856940 104.5682490  75.7512760 116.2075700
 103.7049330  74.6907200 115.5581220  94.5273660  73.5743870 121.8664200
  94.8576670  72.7064930 121.6342840  94.9564660  73.7802390 122.6969160
  99.1235580  71.9052880 119.5266170  98.8231120  71.7817850 120.4270080
  99.0173070  71.0461470 119.1181900  95.0163870  74.4414460 124.6045830
  94.5794860  74.6215260 125.4369980  95.5841550  75.1989080 124.4627550
 110.6526050  73.9431460 128.8923140 110.0528040  74.0024020 128.1487060
 110.7819950  73.0036440 129.0219990 111.8927500  71.6849280 114.2292850
 111.0620460  71.7525930 114.7000080 112.0699330  72.5753400 113.9259710
 111.3483960  68.4296760 116.7327050 112.1102870  68.9993410 116.8386740
 111.3638330  67.8623960 117.5035360  94.8488300  66.9534690 120.9634710
  94.1937140  66.6846330 120.3194410  95.6866250  66.8439170 120.5136690
 112.3543930  69.2846860 121.5768980 112.7252760  68.5014180 121.1704950
 112.9945860  69.9735960 121.3986280 111.4003130  68.7231130 113.8899570
 111.6751970  69.6310010 113.7618790 111.2113870  68.6593660 114.8261560
 111.2968470  66.6600120 118.8829000 110.9212070  65.8928050 118.4510290
 110.5671590  67.0422820 119.3703930 110.6868090  65.8071640 128.5168520
 110.4554180  65.5784390 127.6166470 110.9472640  66.7271190 128.4713410
  95.4380230  64.2496350 129.4096470  94.5436280  64.2163110 129.7490180
  95.9777780  64.4483140 130.1747720 109.1256160  61.0328070 131.2948220
 110.0026340  61.0411470 131.6782220 109.1377000  60.2958910 130.6840570
  94.0626380  64.1633620 116.9060040  93.1590460  64.4263820 116.7311700
  94.5467000  64.4344790 116.1260000 110.5719430  64.8857610 122.1836240
 111.0956910  64.3920260 121.5526410 111.1578850  65.0207970 122.9283810
  96.6053590  63.2199160 114.8154420  97.3145290  62.7982380 114.3301700
  95.8893530  63.2874390 114.1837770 111.4906560  62.7791910 120.6566330
 111.3805840  62.6247950 121.5948600 112.2514150  62.2512850 120.4141740
 109.8372280  58.7186040 127.1149330 110.4744500  59.3320180 127.4808520
 109.9847170  58.7546700 126.1698560 112.3796830  60.6099830 113.8972470
 113.3046140  60.4781010 113.6890760 112.3572620  60.6892650 114.8508920
 112.4535320  61.3810490 116.5229180 111.6586820  61.3155610 117.0522090
 112.6578600  62.3161130 116.5114530  97.3016310  71.8519950 130.6658200
  97.2585940  71.4812860 131.5472660  97.4327320  72.7897520 130.8060020
 101.0022340  73.4079540 126.2667920 100.7613700  73.6754100 125.3798440
 101.9424980  73.5785270 126.3218780 103.2076760  59.8712230 130.0224430
 103.1465650  60.4634060 130.7719840 104.1477140  59.7638190 129.8774690
 105.8451320  59.5282290 129.6616720 106.4591730  59.8461580 128.9997800
 106.3900880  59.0430880 130.2812580 112.2626500  75.4273920 127.0678560
 111.7684780  75.8242790 126.3505690 111.6539790  74.8023130 127.4615840
  97.1404340  74.7982200 127.7855980  96.5464660  74.6666900 128.5246020
  97.1328180  73.9620340 127.3198080 107.4931340  60.2985300 127.3727730
 107.1644700  59.4837060 126.9929460 108.4413640  60.2555110 127.2493420
  96.7716570  72.1640580 126.7364020  96.0450630  71.5445870 126.6689970
  96.8325720  72.5581190 125.8662100  95.6774590  59.3131750 117.4492640
  96.4353950  59.4260630 116.8756670  95.2151760  60.1500950 117.4036070
 102.2188400  61.4271020 120.4394950 101.4062910  61.0527910 120.0990830
 102.7230040  60.6716100 120.7416140  96.6609270  74.1748200 117.3910920
  96.1356890  74.5556230 116.6872880  96.5853850  74.7998970 118.1120630
  98.0499740  59.8395800 115.9894610  98.5792500  59.0525600 115.8602560
  98.6828060  60.5186990 116.2230140 100.2437580  59.5770940 119.0440000
  99.6140320  58.8758250 119.2110130  99.7042720  60.3375070 118.8273160
 103.1829530  76.1910170 131.7150610 104.1096840  75.9554440 131.7586570
 103.1679960  77.0182170 131.2336640 100.3693140  58.8554920 131.4792490
 100.0877410  59.3588520 130.7153310 100.7512840  58.0576670 131.1134620
 106.9708600  58.2708500 132.0572960 106.8574050  58.5903110 132.9524480
 107.7878340  58.6721010 131.7610240 109.7507090  75.4180030 131.5391650
 110.5432410  74.9229260 131.3317610 110.0440240  76.0970170 132.1467260
 105.8766750  66.2900970 102.4207700 105.7960800  65.3755580 102.1499410
 105.4631170  66.7868040 101.7147410 104.0084790  68.0679990 104.3016970
 103.2326890  67.5880430 104.5915540 104.6597720  67.3885640 104.1273130
  98.0250620  68.3799800 105.1792730  97.1935500  68.1248510 105.5789240
  98.6331600  68.4510570 105.9150650  98.0051880  72.4139890 105.3750750
  98.3079920  71.5237630 105.1960970  98.7495470  72.9710110 105.1473000
  96.4342570  63.3401690  98.9635120  95.5459270  63.6817660  98.8615000
  96.7183760  63.1402010  98.0715950  94.3975580  65.9407340 104.8474820
  94.9691690  65.1729540 104.8478460  94.3977120  66.2396100 103.9381430
 103.4493780  70.7437180 104.3087130 103.3802060  69.8027120 104.1476260
 104.2113640  70.8338590 104.8809700 104.4798950  63.5507560 104.5356060
 104.8563770  62.6779440 104.4229730 104.3818460  63.8866260 103.6446500
 108.2623070  61.0458000 101.4684400 109.0832690  60.5554570 101.5109880
 108.2957150  61.6355660 102.2216240 100.4511690  64.8919560 104.3298680
 100.9589910  65.3900530 104.9703700 100.9824930  64.1154760 104.1538040
  98.7347790  59.5318120 108.5962100  98.7366230  60.0490510 107.7908000
  97.9052100  59.0548300 108.5732030 105.1218880  69.6437430 100.0952000
 104.5036150  70.1086880  99.5314720 105.6342130  70.3364910 100.5121510
  99.9850640  69.1713300 106.7735600  99.6520020  69.7982220 107.4156670
 100.1617320  69.6975180 105.9937270 108.4984550  62.9858380 104.2411940
 107.7940120  63.2743270 104.8215050 108.8596710  63.7958490 103.8811500
  99.1969740  71.1394100 108.5884780  99.8143740  71.8145180 108.3069230
  98.3362860  71.5482080 108.4972280 111.5671470  62.4313170 104.6321150
 110.6196380  62.4652150 104.7636580 111.8921460  63.2452120 105.0170510
 108.9451490  71.1693860 100.3074770 108.8347820  70.2268190 100.4324190
 108.9419740  71.5309500 101.1937530 107.0491510  69.3507480 106.5467210
 107.4660300  69.1367590 105.7120670 107.7731330  69.6080270 107.1175830
 104.4871770  66.7959180  99.6637260 103.5601050  66.7296560  99.8925730
 104.6396590  67.7339310  99.5492500 104.4740850  63.0676180  96.6604420
 103.5344520  63.2290140  96.7456880 104.7924110  63.7861860  96.1140410
 110.9953610  67.7494700 106.6383450 110.1672240  67.8187790 106.1633580
 111.5904090  68.3349010 106.1699280 108.5169060  68.3579480 100.1672510
 107.8981480  68.0199030  99.5198810 108.4993510  67.7139240 100.8751700
 107.9595620  64.5364020 107.5838320 107.5466800  65.3617730 107.8378310
 107.2271570  63.9509060 107.3914680 100.0928410  67.3223920 102.4456990
  99.6885410  66.6101170 101.9502890 100.1791530  66.9777160 103.3345030
 100.5610110  71.0091480 104.6096200 100.2638400  70.4036950 103.9303980
 101.5109930  71.0468790 104.4985560 106.6933760  67.5966290  97.1745260
 107.1327040  66.7588720  97.0283080 107.4062180  68.2295690  97.2609400
 100.2780110  73.5608190 112.0446520 100.2495540  73.9651140 111.1774950
 100.1145080  72.6318550 111.8818120 110.2750900  58.8509100  95.4886300
 109.9623560  58.9435930  96.3885370 111.0363370  59.4290130  95.4383730
  94.4318410  69.3884040 105.7532280  94.5098830  69.5232810 104.8088000
  95.0460090  68.6799930 105.9460400 111.6328180  71.5348140 110.5010700
 111.7591240  71.2960020 109.5827880 111.6749560  70.7032680 110.9732780
  99.9487700  75.3030010 100.2761130  99.7730180  74.3865550 100.0628930
  99.0943440  75.6617300 100.5158930 111.4852190  63.5880600 111.4660440
 110.8696460  64.0960270 110.9375900 111.1648610  62.6878930 111.4086380
  94.4877930  70.4298210 108.2926740  94.6508970  69.9603570 107.4746110
  94.9530380  69.9221770 108.9575580 103.5466510  62.4272490 108.9322630
 103.0845880  62.6355510 109.7442570 103.1444620  61.6131840 108.6293300
 108.5471020  63.6481440 110.0619290 107.6964610  63.3487190 110.3828360
 108.3872810  63.8923450 109.1503110 105.6420730  65.1483190 112.1618080
 105.9674140  64.3146940 111.8220310 106.4301060  65.6711710 112.3096410
 102.3755520  59.1814670  98.2093140 101.7509700  59.1774540  98.9346450
 102.2885640  58.3145630  97.8129110  99.0510920  64.6837540 101.0568560
  98.8251840  64.4674710 101.9615180  98.2703450  65.1166000 100.7114530
 106.2808680  64.6900910  99.6559210 105.6817570  65.4136710  99.4722830
 106.8288290  64.6277690  98.8735660 101.4910130  65.5823120 111.7228830
 101.3953730  64.6417850 111.5729230 102.3342110  65.8038190 111.3276900
 104.8873550  63.3264450 101.6862490 105.2803120  63.6436650 100.8731180
 105.2490400  62.4476330 101.8007010 103.1965720  62.0771760 112.9459350
 102.5064040  61.8843960 113.5805440 103.9398020  62.3606400 113.4783650
  94.1107950  63.8585370  95.1195410  94.0282620  64.8016130  95.2610400
  93.7591010  63.7160280  94.2407760 105.4728690  65.9170200 105.7813270
 104.7409810  66.4257010 106.1303370 105.0753030  65.1000180 105.4802050
 101.9726230  63.5936480  97.1772520 102.0939050  63.5522960  98.1258340
 101.5874740  64.4560630  97.0219250 105.9354600  61.3703880 105.1936210
 105.9527340  61.8212530 106.0378060 105.6870180  60.4709520 105.4069650
 100.9847730  65.9037620  96.5755820 100.4164630  65.4555870  95.9491730
 101.6936730  66.2630400  96.0420970 109.3625350  58.7836060 111.0322590
 109.6871120  58.0525720 111.5580570 109.3981860  58.4649700 110.1303580
 102.2114050  66.6526180 105.9331170 102.5784180  66.1784750 106.6792510
 102.0219110  67.5267750 106.2739510 100.0013420  65.6934820 108.2515380
  99.6970490  66.5726800 108.4765740 100.9559880  65.7534610 108.2872820
 109.2883190  68.8961170 104.6408620 110.0082310  69.3916460 104.2504730
 109.0865010  68.2179060 103.9962490 104.7493130  60.2899130  98.7838010
 103.9357740  59.7912300  98.7083320 104.5555080  61.1297380  98.3674360
 104.6701990  68.9670230 110.5277620 104.6039300  68.0465900 110.2735210
 104.0407130  69.0645670 111.2422260 107.4641520  64.6618780  97.0800170
 108.3521140  64.9736010  96.9051510 107.4346610  63.7891030  96.6880750
  98.5732610  69.5676190 102.4861040  99.0911280  68.7644450 102.4317930
  98.1216630  69.5055330 103.3277870 103.4602110  70.8342470  97.7588340
 103.8017810  71.5784700  97.2631660 102.6314820  71.1473590  98.1213170
 104.6018720  71.7890800 110.2781420 104.6163260  70.8571760 110.0600330
 103.8943820  71.8750560 110.9171190 110.8129930  68.4298140 109.6250000
 110.0878120  69.0226920 109.4279390 111.3405390  68.4221680 108.8263370
 110.7643040  72.8272880  99.2762160 110.1219200  72.1728500  99.5505880
 110.3773700  73.2327970  98.5002830 106.3429520  70.1558310 103.1233850
 106.6953340  69.5586440 102.4635220 105.4591850  69.8302540 103.2942100
 102.4292800  70.9156000 100.5304260 103.1163930  71.4625210 100.9111850
 101.6425220  71.4596730 100.5653870 101.7320010  67.9202030 100.1429620
 102.1882790  68.7307280 100.3689810 101.3808220  67.6025170 100.9748110
 104.0352620  73.4308370 107.3721920 104.6794840  73.6367750 108.0495340
 104.3982060  72.6696770 106.9192770 105.3084700  71.4340720 106.0899370
 105.9506930  70.7333880 106.2031540 105.8334050  72.2139160 105.9096260
 107.0822320  72.2335620 109.2935430 107.4178560  72.8202310 109.9713350
 106.1622660  72.1028330 109.5233220  94.9356450  75.7456200  96.5882970
  95.2954090  76.3445540  95.9340240  94.7948790  76.2916090  97.3618000
  94.9198310  74.0111060 111.0625370  95.0289430  73.0705800 110.9220760
  94.2678870  74.2765810 110.4139100 102.9110900  72.2826950 112.4623490
 102.5907770  71.5636190 113.0069180 102.2369260  72.9582020 112.5359550
 106.1264500  62.5153110 107.8260290 106.4945320  61.6948320 108.1539860
 105.2662700  62.5755000 108.2415940 109.4926530  61.4710050  98.6347850
 108.8639690  61.5755720  97.9206080 108.9978450  61.6906830  99.4241730
 101.4610560  63.7496000 100.0505730 100.7526710  64.2182340 100.4919340
 101.7455040  63.0918010 100.6850920 103.0866490  65.1692700 108.0498260
 103.5851740  65.6438520 108.7150110 103.2289440  64.2456220 108.2568290
 105.4925990  60.4746660 101.4901520 105.3693770  60.4932790 100.5411030
 106.4410550  60.5225600 101.6099920  99.6645580  62.0581080  97.4256440
 100.5136110  62.4951230  97.3596630  99.2976850  62.3701340  98.2528500
 110.2933350  61.3860660 108.8926650 109.7906950  62.1266060 109.2320460
 111.1090010  61.7744660 108.5763440 108.5855360  66.6293840 102.3388010
 107.6445500  66.6444070 102.5135700 108.8999430  65.8429800 102.7848310
  98.0598470  75.8933900 103.6859400  98.7960950  75.3449360 103.9567970
  98.4439390  76.7589910 103.5465390  94.9443950  71.9607470  99.5600910
  94.0183730  72.2028610  99.5506320  95.4100380  72.7881730  99.4385660
  97.0656750  75.0779970 112.8744980  97.8669480  75.3992020 113.2880380
  96.5508570  74.7175550 113.5964890 105.9021380  71.1859840 112.8220390
 105.2959540  71.2091440 112.0816140 105.5975490  70.4542880 113.3587640
 110.2230950  74.2934340  96.9321710 109.9372460  73.8799480  96.1175890
 110.0250500  75.2222050  96.8122230 101.6878180  70.2867620  95.3727320
 101.5828820  69.6719970  96.0988700 101.5202400  69.7633510  94.5890330
 101.8392500  68.9724420 111.3516550 101.0738170  69.5409420 111.2671220
 102.0208460  68.6800630 110.4584780 104.9280910  69.3487650  95.9769310
 104.3791010  69.7956950  96.6212050 105.5500170  68.8436900  96.5006980
 108.9815850  70.7029750 111.9091570 109.7225320  71.0405510 111.4059030
 108.2188530  70.8721810 111.3561340  98.7583450  64.2875120 110.6805590
  98.2279910  63.7966070 110.0528930  99.4271520  64.7159320 110.1463520
 103.1083670  67.3316180  95.1211710 103.6289330  66.6165200  94.7552860
 103.7552070  67.9702050  95.4212220 107.6561510  68.7544580 110.4446780
 108.0702530  68.9089660 111.2937200 106.7212510  68.8799800 110.6072560
 108.1283680  66.0940740 112.4485930 108.7104450  65.3393060 112.3606410
 108.3045450  66.6248180 111.6717410  99.2455750  61.2537490 110.7602880
  99.1512620  60.6358240 110.0353750  98.6653140  61.9803780 110.5332790
 102.0117190  59.8110730 107.7930270 101.5634490  59.8334990 106.9475820
 101.3782390  59.4129750 108.3900570 102.4176740  68.7065060 108.4142710
 102.8364850  69.5497790 108.2418950 101.4985370  68.8437100 108.1849490
 104.7540640  66.4381240 109.7980550 104.8736850  65.8422380 110.5375390
 105.6134640  66.4750930 109.3781850 107.0928540  66.9918430 108.3743060
 106.5663760  67.5161050 107.7708200 107.4359880  67.6245820 109.0052790
  99.4914930  64.3811800  94.8192770  99.2903990  63.5179160  95.1806110
  99.3206980  64.2945160  93.8814370 100.2684160  75.0118070 109.5300440
  99.7305250  75.7364130 109.2109140 100.5218120  74.5348410 108.7397780
 101.5209410  62.9802590 111.0556370 102.1109100  62.6718440 111.7434190
 100.7029650  62.5082340 111.2116270 106.3402840  62.5968400 111.2889390
 105.6518360  61.9349940 111.2239380 107.0608860  62.1506670 111.7337850
 106.9703240  59.1920030  97.3479650 107.2505530  58.3487930  97.7039070
 106.1968970  59.4243140  97.8618400  98.2897730  61.4812420  94.8070650
  98.5923630  61.4879850  93.8989800  99.0292320  61.1310280  95.3038310
 103.1246370  76.2469280 109.7887090 103.0505070  77.1504420 110.0959460
 102.2225210  75.9281180 109.7609160 101.5082660  60.4247040  95.7926850
 101.1604660  59.7471030  95.2129300 101.7095430  59.9636550  96.6070240
  99.1235580  71.9052880 100.7522680  98.8231120  71.7817850 101.6526590
  99.0173070  71.0461470 100.3438410  94.8488300  66.9534690 102.1891220
  94.1937140  66.6846330 101.5450920  95.6866250  66.8439170 101.7393200
 109.3377690  70.6683440 108.2155810 108.5237530  71.0980600 108.4781600
 109.7451890  71.2801850 107.6024860 107.7978740  61.7475980  96.4109710
 108.2163620  61.5606960  95.5706370 107.4914800  60.8955030  96.7212640
 111.2968470  66.6600120 100.1085510 110.9212070  65.8928050  99.6766800
 110.5671590  67.0422820 100.5960440  95.8864230  67.3387260 106.7294560
  96.2537270  67.2514660 107.6090580  95.3175050  66.5753810 106.6301420
 110.6868090  65.8071640 109.7425030 110.4554180  65.5784390 108.8422980
 110.9472640  66.7271190 109.6969920  95.4380230  64.2496350 110.6352980
  94.5436280  64.2163110 110.9746690  95.9777780  64.4483140 111.4004230
 109.1256160  61.0328070 112.5204730 110.0026340  61.0411470 112.9038730
 109.1377000  60.2958910 111.9097080  94.0626380  64.1633620  98.1316550
  93.1590460  64.4263820  97.9568210  94.5467000  64.4344790  97.3516510
 110.5719430  64.8857610 103.4092750 111.0956910  64.3920260 102.7782920
 111.1578850  65.0207970 104.1540320 110.7509150  64.9697480 106.9312300
 109.8011860  64.9361020 107.0457290 110.9322160  65.8797590 106.6962070
  96.6053590  63.2199160  96.0410930  97.3145290  62.7982380  95.5558210
  95.8893530  63.2874390  95.4094280 110.0619400  64.1430960  99.3485160
 110.5578520  63.9101830 100.1334040 109.8635470  63.3042800  98.9322800
 109.8372280  58.7186040 108.3405840 110.4744500  59.3320180 108.7065030
 109.9847170  58.7546700 107.3955070 101.0022340  73.4079540 107.4924430
 100.7613700  73.6754100 106.6054950 101.9424980  73.5785270 107.5475290
 103.2076760  59.8712230 111.2480940 103.1465650  60.4634060 111.9976350
 104.1477140  59.7638190 111.1031200 105.8451320  59.5282290 110.8873230
 106.4591730  59.8461580 110.2254310 106.3900880  59.0430880 111.5069090
  97.1404340  74.7982200 109.0112490  96.5464660  74.6666900 109.7502530
  97.1328180  73.9620340 108.5454590 106.5859360  58.0914430 107.2142520
 105.7119200  58.4249540 107.0115450 106.4770110  57.6187610 108.0394390
 107.4931340  60.2985300 108.5984240 107.1644700  59.4837060 108.2185970
 108.4413640  60.2555110 108.4749930  96.7716570  72.1640580 107.9620530
  96.0450630  71.5445870 107.8946480  96.8325720  72.5581190 107.0918610
 100.3761670  74.3785580 104.7469940 100.8926690  73.7672940 104.2218200
 101.0259050  74.8814360 105.2380950 104.3334180  59.0084270 106.1535430
 103.5505970  59.4829770 106.4332190 104.0397110  58.1039100 106.0448610
 108.8855250  59.7107370 104.1984520 109.3263340  59.6552470 103.3506120
 108.6162840  60.6265380 104.2694700  95.0546570  75.4814970 101.1717290
  94.8868610  74.8485650 101.8699180  94.1881080  75.6874370 100.8211480
 106.7213380  58.0913470 102.9034530 107.3242750  58.6633680 103.3783050
 105.9806370  58.6552910 102.6808430  96.6609270  74.1748200  98.6167430
  96.1356890  74.5556230  97.9129390  96.5853850  74.7998970  99.3377140
 103.1829530  76.1910170 112.9407120 104.1096840  75.9554440 112.9843080
 103.1679960  77.0182170 112.4593150 111.4174590  75.7335740  99.9381370
 111.5926780  75.0473480  99.2942290 110.7196160  76.2582790  99.5458040
 100.3693140  58.8554920 112.7049000 100.0877410  59.3588520 111.9409820
 100.7512840  58.0576670 112.3391130 106.9708600  58.2708500 113.2829470
 106.8574050  58.5903110 114.1780990 107.7878340  58.6721010 112.9866750
 108.0292220  72.4740180  84.3072610 107.5673750  71.7027420  84.6359780
 108.8417770  72.5006250  84.8125060  98.0051880  72.4139890  86.6007260
  98.3079920  71.5237630  86.4217480  98.7495470  72.9710110  86.3729510
  96.4342570  63.3401690  80.1891630  95.5459270  63.6817660  80.0871510
  96.7183760  63.1402010  79.2972460  95.6400450  61.3491700  87.8600260
  95.4603290  60.4517450  88.1403020  95.2380530  61.8963570  88.5347210
  98.6103960  61.9233190  81.2230010  98.7170710  62.8236920  81.5298770
  97.6996320  61.8751160  80.9324660 112.5522620  63.0624750  89.2584540
 111.8474790  63.4506460  88.7399650 112.8180540  63.7575040  89.8605470
  98.7347790  59.5318120  89.8218610  98.7366230  60.0490510  89.0164510
  97.9052100  59.0548300  89.7988540  98.4163120  61.2428080  87.8289060
  98.7579930  62.0870130  87.5342930  97.4778930  61.3911820  87.9454400
  94.4902080  70.3293960  78.6948140  94.1130060  70.8181060  77.9633040
  94.7475150  71.0019240  79.3254670 110.1147330  72.6033510  87.7295930
 109.4310850  73.2732620  87.7212600 110.6541620  72.8014160  86.9640790
 102.0991010  58.7310350  84.1533650 102.4065990  58.1757240  83.4369150
 101.1691710  58.8654810  83.9706640 107.6506070  74.4477640  86.4441110
 107.6633230  74.0439930  85.5763370 107.0981290  75.2224930  86.3402540
 108.9451490  71.1693860  81.5331280 108.8347820  70.2268190  81.6580700
 108.9419740  71.5309500  82.4194040 104.4740850  63.0676180  77.8860930
 103.5344520  63.2290140  77.9713390 104.7924110  63.7861860  77.3396920
 108.5169060  68.3579480  81.3929020 107.8981480  68.0199030  80.7455320
 108.4993510  67.7139240  82.1008210 108.6495720  74.5823350  89.4975810
 108.1726280  75.3895540  89.3048420 107.9657510  73.9301680  89.6502020
  99.6528540  70.7473170  92.4860510  98.7557070  70.9713140  92.7333910
  99.6781410  70.8708110  91.5371910 106.6933760  67.5966290  78.4001770
 107.1327040  66.7588720  78.2539590 107.4062180  68.2295690  78.4865910
 104.8029140  72.5362360  82.3683010 105.2425050  73.2786690  81.9538400
 104.7416030  72.7788930  83.2921970 112.2294930  74.3435290  94.5667200
 112.7054650  74.8218180  95.2456280 112.8502090  74.2752780  93.8412700
 105.4944920  75.2376140  90.2962020 106.0089590  75.1484150  91.0984450
 104.6514000  75.5835840  90.5889930 107.4699320  75.5231480  79.7246020
 107.3100460  75.2334420  80.6227850 107.3046030  74.7471610  79.1891250
 107.1725450  73.0319040  78.2844020 106.4790610  73.0296330  77.6246300
 107.9148310  72.6078360  77.8538190 106.7375380  74.6581750  82.3592510
 107.1932330  73.8771130  82.6731130 107.0767900  75.3688570  82.9033690
 111.4852190  63.5880600  92.6916950 110.8696460  64.0960270  92.1632410
 111.1648610  62.6878930  92.6342890  99.2596700  59.5603970  84.5543820
  98.8164850  60.3413510  84.2228340  99.8181690  59.8833860  85.2614760
 103.5466510  62.4272490  90.1579140 103.0845880  62.6355510  90.9699080
 103.1444620  61.6131840  89.8549810 108.5471020  63.6481440  91.2875800
 107.6964610  63.3487190  91.6084870 108.3872810  63.8923450  90.3759620
 105.6420730  65.1483190  93.3874590 105.9674140  64.3146940  93.0476820
 106.4301060  65.6711710  93.5352920 102.3755520  59.1814670  79.4349650
 101.7509700  59.1774540  80.1602960 102.2885640  58.3145630  79.0385620
 101.2972600  60.1051300  86.4133420 101.5944930  61.0114130  86.3325440
 101.8458160  59.6170080  85.7992990 106.2808680  64.6900910  80.8815720
 105.6817570  65.4136710  80.6979340 106.8288290  64.6277690  80.0992170
 101.4910130  65.5823120  92.9485340 101.3953730  64.6417850  92.7985740
 102.3342110  65.8038190  92.5533410  96.6220670  61.9936790  91.1019120
  96.2284060  62.8412000  91.3091900  95.9339070  61.3563160  91.2927760
 103.1965720  62.0771760  94.1715860 102.5064040  61.8843960  94.8061950
 103.9398020  62.3606400  94.7040160  93.9237720  59.9165250  85.1349200
  93.6350770  60.4868110  85.8474180  94.6683480  59.4369700  85.4980430
 101.9106080  62.5924400  85.4122270 101.9142140  62.1514350  84.5626810
 102.8057200  62.9141730  85.5194090 101.9726230  63.5936480  78.4029030
 102.0939050  63.5522960  79.3514850 101.5874740  64.4560630  78.2475760
 105.9354600  61.3703880  86.4192720 105.9527340  61.8212530  87.2634570
 105.6870180  60.4709520  86.6326160 109.3625350  58.7836060  92.2579100
 109.6871120  58.0525720  92.7837080 109.3981860  58.4649700  91.3560090
  95.0754540  61.3969870  83.2881150  94.7901460  61.0325540  84.1259770
  95.0133400  60.6650330  82.6744290  98.5295210  69.8995810  80.0738740
  97.7557470  69.3593430  79.9137460  99.2589840  69.3802420  79.7356500
 104.7493130  60.2899130  80.0094520 103.9357740  59.7912300  79.9339830
 104.5555080  61.1297380  79.5930870 104.6701990  68.9670230  91.7534130
 104.6039300  68.0465900  91.4991720 104.0407130  69.0645670  92.4678770
 107.4641520  64.6618780  78.3056680 108.3521140  64.9736010  78.1308020
 107.4346610  63.7891030  77.9137260  96.0577150  66.5337560  90.6243250
  95.6992090  67.1991410  91.2116590  95.7631710  65.7021110  90.9955870
 104.6018720  71.7890800  91.5037930 104.6163260  70.8571760  91.2856840
 103.8943820  71.8750560  92.1427700 109.7355790  65.9730620  77.7736540
 109.6519510  66.4044840  76.9232980 110.4549980  66.4328970  78.2063360
 110.8129930  68.4298140  90.8506510 110.0878120  69.0226920  90.6535900
 111.3405390  68.4221680  90.0519880 110.7643040  72.8272880  80.5018670
 110.1219200  72.1728500  80.7762390 110.3773700  73.2327970  79.7259340
 106.3429520  70.1558310  84.3490360 106.6953340  69.5586440  83.6891730
 105.4591850  69.8302540  84.5198610 104.0352620  73.4308370  88.5978430
 104.6794840  73.6367750  89.2751850 104.3982060  72.6696770  88.1449280
 109.1540420  71.7189340  77.0395020 108.9278000  71.0019780  77.6319660
 108.7636620  71.4701780  76.2016770 107.0822320  72.2335620  90.5191940
 107.4178560  72.8202310  91.1969860 106.1622660  72.1028330  90.7489730
  94.9356450  75.7456200  77.8139480  95.2954090  76.3445540  77.1596750
  94.7948790  76.2916090  78.5874510  94.6325720  60.0230800  91.3015350
  93.9184240  60.2227720  91.9067960  95.0520760  59.2470370  91.6730150
 108.7356670  69.6361280  78.7009180 108.4478370  70.0973970  79.4887060
 109.5308840  69.1759050  78.9693400 102.9110900  72.2826950  93.6880000
 102.5907770  71.5636190  94.2325690 102.2369260  72.9582020  93.7616060
 106.1264500  62.5153110  89.0516800 106.4945320  61.6948320  89.3796370
 105.2662700  62.5755000  89.4672450 101.4610560  63.7496000  81.2762240
 100.7526710  64.2182340  81.7175850 101.7455040  63.0918010  81.9107430
 105.4925990  60.4746660  82.7158030 105.3693770  60.4932790  81.7667540
 106.4410550  60.5225600  82.8356430 110.2933350  61.3860660  90.1183160
 109.7906950  62.1266060  90.4576970 111.1090010  61.7744660  89.8019950
 110.5880940  73.8002690  85.2398780 110.7128360  74.6233860  85.7122590
 111.4546500  73.5893420  84.8922930  98.0598470  75.8933900  84.9115910
  98.7960950  75.3449360  85.1824480  98.4439390  76.7589910  84.7721900
  94.9443950  71.9607470  80.7857420  94.0183730  72.2028610  80.7762830
  95.4100380  72.7881730  80.6642170  97.0656750  75.0779970  94.1001490
  97.8669480  75.3992020  94.5136890  96.5508570  74.7175550  94.8221400
 105.9021380  71.1859840  94.0476900 105.2959540  71.2091440  93.3072650
 105.5975490  70.4542880  94.5844150 107.3321750  74.9140130  92.6586310
 108.2843500  74.8298150  92.6086550 107.1849970  75.5781840  93.3320100
 110.2230950  74.2934340  78.1578220 109.9372460  73.8799480  77.3432400
 110.0250500  75.2222050  78.0378740 101.8392500  68.9724420  92.5773060
 101.0738170  69.5409420  92.4927730 102.0208460  68.6800630  91.6841290
 104.9280910  69.3487650  77.2025820 104.3791010  69.7956950  77.8468560
 105.5500170  68.8436900  77.7263490  98.7583450  64.2875120  91.9062100
  98.2279910  63.7966070  91.2785440  99.4271520  64.7159320  91.3720030
 108.1283680  66.0940740  93.6742440 108.7104450  65.3393060  93.5862920
 108.3045450  66.6248180  92.8973920  99.2455750  61.2537490  91.9859390
  99.1512620  60.6358240  91.2610260  98.6653140  61.9803780  91.7589300
 102.0117190  59.8110730  89.0186780 101.5634490  59.8334990  88.1732330
 101.3782390  59.4129750  89.6157080 101.5209410  62.9802590  92.2812880
 102.1109100  62.6718440  92.9690700 100.7029650  62.5082340  92.4372780
 106.3402840  62.5968400  92.5145900 105.6518360  61.9349940  92.4495890
 107.0608860  62.1506670  92.9594360  94.5273660  73.5743870  84.3177220
  94.8576670  72.7064930  84.0855860  94.9564660  73.7802390  85.1482180
 110.6526050  73.9431460  91.3436160 110.0528040  74.0024020  90.6000080
 110.7819950  73.0036440  91.4733010 111.3483960  68.4296760  79.1840070
 112.1102870  68.9993410  79.2899760 111.3638330  67.8623960  79.9548380
 112.3543930  69.2846860  84.0282000 112.7252760  68.5014180  83.6217970
 112.9945860  69.9735960  83.8499300 111.4003130  68.7231130  76.3412590
 111.6751970  69.6310010  76.2131810 111.2113870  68.6593660  77.2774580
 107.7978740  61.7475980  77.6366220 108.2163620  61.5606960  76.7962880
 107.4914800  60.8955030  77.9469150 111.2968470  66.6600120  81.3342020
 110.9212070  65.8928050  80.9023310 110.5671590  67.0422820  81.8216950
  95.8864230  67.3387260  87.9551070  96.2537270  67.2514660  88.8347090
  95.3175050  66.5753810  87.8557930 110.6868090  65.8071640  90.9681540
 110.4554180  65.5784390  90.0679490 110.9472640  66.7271190  90.9226430
  95.4380230  64.2496350  91.8609490  94.5436280  64.2163110  92.2003200
  95.9777780  64.4483140  92.6260740 109.1256160  61.0328070  93.7461240
 110.0026340  61.0411470  94.1295240 109.1377000  60.2958910  93.1353590
  95.9419940  58.5244680  86.2092710  96.5896130  57.9742060  85.7687870
  96.3621780  58.7787830  87.0308520 109.8372280  58.7186040  89.5662350
 110.4744500  59.3320180  89.9321540 109.9847170  58.7546700  88.6211580
 112.4535320  61.3810490  78.9742200 111.6586820  61.3155610  79.5035110
 112.6578600  62.3161130  78.9627550 109.3953740  75.4202040  82.9680590
 109.9912810  75.0986610  82.2915010 109.6531890  74.9473860  83.7593860
  95.6951940  58.6800350  88.9518030  95.3466760  59.1364170  89.7176210
  95.3639640  57.7857480  89.0340460 103.2076760  59.8712230  92.4737450
 103.1465650  60.4634060  93.2232860 104.1477140  59.7638190  92.3287710
 105.8451320  59.5282290  92.1129740 106.4591730  59.8461580  91.4510820
 106.3900880  59.0430880  92.7325600 112.2626500  75.4273920  89.5191580
 111.7684780  75.8242790  88.8018710 111.6539790  74.8023130  89.9128860
  97.1404340  74.7982200  90.2369000  96.5464660  74.6666900  90.9759040
  97.1328180  73.9620340  89.7711100 106.5859360  58.0914430  88.4399030
 105.7119200  58.4249540  88.2371960 106.4770110  57.6187610  89.2650900
 107.4931340  60.2985300  89.8240750 107.1644700  59.4837060  89.4442480
 108.4413640  60.2555110  89.7006440  96.7716570  72.1640580  89.1877040
  96.0450630  71.5445870  89.1202990  96.8325720  72.5581190  88.3175120
 100.3761670  74.3785580  85.9726450 100.8926690  73.7672940  85.4474710
 101.0259050  74.8814360  86.4637460 103.1157170  75.2694070  86.7995430
 103.4034980  75.0148370  85.9228440 103.6280390  74.7171430  87.3901000
 104.3334180  59.0084270  87.3791940 103.5505970  59.4829770  87.6588700
 104.0397110  58.1039100  87.2705120  95.0546570  75.4814970  82.3973800
  94.8868610  74.8485650  83.0955690  94.1881080  75.6874370  82.0467990
  95.6774590  59.3131750  79.9005660  96.4353950  59.4260630  79.3269690
  95.2151760  60.1500950  79.8549090 102.2188400  61.4271020  82.8907970
 101.4062910  61.0527910  82.5503850 102.7230040  60.6716100  83.1929160
 106.7213380  58.0913470  84.1291040 107.3242750  58.6633680  84.6039560
 105.9806370  58.6552910  83.9064940  96.6609270  74.1748200  79.8423940
  96.1356890  74.5556230  79.1385900  96.5853850  74.7998970  80.5633650
 100.2437580  59.5770940  81.4953020  99.6140320  58.8758250  81.6623150
  99.7042720  60.3375070  81.2786180 111.4174590  75.7335740  81.1637880
 111.5926780  75.0473480  80.5198800 110.7196160  76.2582790  80.7714550
 100.3693140  58.8554920  93.9305510 100.0877410  59.3588520  93.1666330
 100.7512840  58.0576670  93.5647640 106.9708600  58.2708500  94.5085980
 106.8574050  58.5903110  95.4037500 107.7878340  58.6721010  94.2123260
 109.7507090  75.4180030  93.9904670 110.5432410  74.9229260  93.7830630
 110.0440240  76.0970170  94.5980280 105.8766750  66.2900970  64.8720720
 105.7960800  65.3755580  64.6012430 105.4631170  66.7868040  64.1660430
 104.0084790  68.0679990  66.7529990 103.2326890  67.5880430  67.0428560
 104.6597720  67.3885640  66.5786150  98.0250620  68.3799800  67.6305750
  97.1935500  68.1248510  68.0302260  98.6331600  68.4510570  68.3663670
 108.0292220  72.4740180  65.5329120 107.5673750  71.7027420  65.8616290
 108.8417770  72.5006250  66.0381570  98.0051880  72.4139890  67.8263770
  98.3079920  71.5237630  67.6473990  98.7495470  72.9710110  67.5986020
 104.2555530  74.7598190  65.1533110 103.6366970  75.2155690  64.5827550
 105.1107310  74.9149650  64.7522810 103.4493780  70.7437180  66.7600150
 103.3802060  69.8027120  66.5989280 104.2113640  70.8338590  67.3322720
 104.4798950  63.5507560  66.9869080 104.8563770  62.6779440  66.8742750
 104.3818460  63.8866260  66.0959520 100.4511690  64.8919560  66.7811700
 100.9589910  65.3900530  67.4216720 100.9824930  64.1154760  66.6051060
  98.7347790  59.5318120  71.0475120  98.7366230  60.0490510  70.2421020
  97.9052100  59.0548300  71.0245050 105.1218880  69.6437430  62.5465020
 104.5036150  70.1086880  61.9827740 105.6342130  70.3364910  62.9634530
  99.9850640  69.1713300  69.2248620  99.6520020  69.7982220  69.8669690
 100.1617320  69.6975180  68.4450290 108.4984550  62.9858380  66.6924960
 107.7940120  63.2743270  67.2728070 108.8596710  63.7958490  66.3324520
  98.4163120  61.2428080  69.0545570  98.7579930  62.0870130  68.7599440
  97.4778930  61.3911820  69.1710910  99.1969740  71.1394100  71.0397800
  99.8143740  71.8145180  70.7582250  98.3362860  71.5482080  70.9485300
  94.4902080  70.3293960  59.9204650  94.1130060  70.8181060  59.1889550
  94.7475150  71.0019240  60.5511180 110.1147330  72.6033510  68.9552440
 109.4310850  73.2732620  68.9469110 110.6541620  72.8014160  68.1897300
 107.6506070  74.4477640  67.6697620 107.6633230  74.0439930  66.8019880
 107.0981290  75.2224930  67.5659050 108.9451490  71.1693860  62.7587790
 108.8347820  70.2268190  62.8837210 108.9419740  71.5309500  63.6450550
 107.0491510  69.3507480  68.9980230 107.4660300  69.1367590  68.1633690
 107.7731330  69.6080270  69.5688850 104.4871770  66.7959180  62.1150280
 103.5601050  66.7296560  62.3438750 104.6396590  67.7339310  62.0005520
 108.5169060  68.3579480  62.6185530 107.8981480  68.0199030  61.9711830
 108.4993510  67.7139240  63.3264720 107.9595620  64.5364020  70.0351340
 107.5466800  65.3617730  70.2891330 107.2271570  63.9509060  69.8427700
 100.0928410  67.3223920  64.8970010  99.6885410  66.6101170  64.4015910
 100.1791530  66.9777160  65.7858050 100.5610110  71.0091480  67.0609220
 100.2638400  70.4036950  66.3817000 101.5109930  71.0468790  66.9498580
  98.8057030  64.0967130  68.6769050  99.3571620  64.2062470  67.9022300
  99.3200540  64.4704730  69.3924280 108.6495720  74.5823350  70.7232320
 108.1726280  75.3895540  70.5304930 107.9657510  73.9301680  70.8758530
  98.4799760  67.6186490  72.2874390  98.3407530  68.4909290  72.6561790
  97.5981120  67.2759300  72.1422330 104.8029140  72.5362360  63.5939520
 105.2425050  73.2786690  63.1794910 104.7416030  72.7788930  64.5178480
 100.2780110  73.5608190  74.4959540 100.2495540  73.9651140  73.6287970
 100.1145080  72.6318550  74.3331140 112.2294930  74.3435290  75.7923710
 112.7054650  74.8218180  76.4712790 112.8502090  74.2752780  75.0669210
  94.4318410  69.3884040  68.2045300  94.5098830  69.5232810  67.2601020
  95.0460090  68.6799930  68.3973420  95.6766040  71.0884230  64.6151480
  95.2694120  71.2298820  63.7605080  96.5679050  70.8044390  64.4122690
 111.6328180  71.5348140  72.9523720 111.7591240  71.2960020  72.0340900
 111.6749560  70.7032680  73.4245800 105.4944920  75.2376140  71.5218530
 106.0089590  75.1484150  72.3240960 104.6514000  75.5835840  71.8146440
 107.4699320  75.5231480  60.9502530 107.3100460  75.2334420  61.8484360
 107.3046030  74.7471610  60.4147760  99.9487700  75.3030010  62.7274150
  99.7730180  74.3865550  62.5141950  99.0943440  75.6617300  62.9671950
 107.1725450  73.0319040  59.5100530 106.4790610  73.0296330  58.8502810
 107.9148310  72.6078360  59.0794700 106.7375380  74.6581750  63.5849020
 107.1932330  73.8771130  63.8987640 107.0767900  75.3688570  64.1290200
  94.4877930  70.4298210  70.7439760  94.6508970  69.9603570  69.9259130
  94.9530380  69.9221770  71.4088600  99.2596700  59.5603970  65.7800330
  98.8164850  60.3413510  65.4484850  99.8181690  59.8833860  66.4871270
 105.6420730  65.1483190  74.6131100 105.9674140  64.3146940  74.2733330
 106.4301060  65.6711710  74.7609430 102.3755520  59.1814670  60.6606160
 101.7509700  59.1774540  61.3859470 102.2885640  58.3145630  60.2642130
  99.0510920  64.6837540  63.5081580  98.8251840  64.4674710  64.4128200
  98.2703450  65.1166000  63.1627550 101.4910130  65.5823120  74.1741850
 101.3953730  64.6417850  74.0242250 102.3342110  65.8038190  73.7789920
 104.8873550  63.3264450  64.1375510 105.2803120  63.6436650  63.3244200
 105.2490400  62.4476330  64.2520030  96.6220670  61.9936790  72.3275630
  96.2284060  62.8412000  72.5348410  95.9339070  61.3563160  72.5184270
 103.1965720  62.0771760  75.3972370 102.5064040  61.8843960  76.0318460
 103.9398020  62.3606400  75.9296670 105.4728690  65.9170200  68.2326290
 104.7409810  66.4257010  68.5816390 105.0753030  65.1000180  67.9315070
 101.9106080  62.5924400  66.6378780 101.9142140  62.1514350  65.7883320
 102.8057200  62.9141730  66.7450600 101.9726230  63.5936480  59.6285540
 102.0939050  63.5522960  60.5771360 101.5874740  64.4560630  59.4732270
 100.9847730  65.9037620  59.0268840 100.4164630  65.4555870  58.4004750
 101.6936730  66.2630400  58.4933990 102.2114050  66.6526180  68.3844190
 102.5784180  66.1784750  69.1305530 102.0219110  67.5267750  68.7252530
 100.0013420  65.6934820  70.7028400  99.6970490  66.5726800  70.9278760
 100.9559880  65.7534610  70.7385840  98.5295210  69.8995810  61.2995250
  97.7557470  69.3593430  61.1393970  99.2589840  69.3802420  60.9613010
 109.2883190  68.8961170  67.0921640 110.0082310  69.3916460  66.7017750
 109.0865010  68.2179060  66.4475510 104.7493130  60.2899130  61.2351030
 103.9357740  59.7912300  61.1596340 104.5555080  61.1297380  60.8187380
 104.6701990  68.9670230  72.9790640 104.6039300  68.0465900  72.7248230
 104.0407130  69.0645670  73.6935280  98.5732610  69.5676190  64.9374060
  99.0911280  68.7644450  64.8830950  98.1216630  69.5055330  65.7790890
 103.4602110  70.8342470  60.2101360 103.8017810  71.5784700  59.7144680
 102.6314820  71.1473590  60.5726190  96.0577150  66.5337560  71.8499760
  95.6992090  67.1991410  72.4373100  95.7631710  65.7021110  72.2212380
 104.6018720  71.7890800  72.7294440 104.6163260  70.8571760  72.5113350
 103.8943820  71.8750560  73.3684210 110.8129930  68.4298140  72.0763020
 110.0878120  69.0226920  71.8792410 111.3405390  68.4221680  71.2776390
 110.7643040  72.8272880  61.7275180 110.1219200  72.1728500  62.0018900
 110.3773700  73.2327970  60.9515850 106.3429520  70.1558310  65.5746870
 106.6953340  69.5586440  64.9148240 105.4591850  69.8302540  65.7455120
 102.4292800  70.9156000  62.9817280 103.1163930  71.4625210  63.3624870
 101.6425220  71.4596730  63.0166890  94.5685200  66.5328820  58.4734360
  95.4380050  66.8153620  58.7570280  94.0775520  67.3464690  58.3583170
 101.7320010  67.9202030  62.5942640 102.1882790  68.7307280  62.8202830
 101.3808220  67.6025170  63.4261130 104.0352620  73.4308370  69.8234940
 104.6794840  73.6367750  70.5008360 104.3982060  72.6696770  69.3705790
 105.3084700  71.4340720  68.5412390 105.9506930  70.7333880  68.6544560
 105.8334050  72.2139160  68.3609280 109.1540420  71.7189340  58.2651530
 108.9278000  71.0019780  58.8576170 108.7636620  71.4701780  57.4273280
 107.0822320  72.2335620  71.7448450 107.4178560  72.8202310  72.4226370
 106.1622660  72.1028330  71.9746240  94.6325720  60.0230800  72.5271860
  93.9184240  60.2227720  73.1324470  95.0520760  59.2470370  72.8986660
 108.7356670  69.6361280  59.9265690 108.4478370  70.0973970  60.7143570
 109.5308840  69.1759050  60.1949910  94.9198310  74.0111060  73.5138390
  95.0289430  73.0705800  73.3733780  94.2678870  74.2765810  72.8652120
 102.9110900  72.2826950  74.9136510 102.5907770  71.5636190  75.4582200
 102.2369260  72.9582020  74.9872570 100.9525070  73.1287400  59.8569660
 100.9435170  73.8617090  59.2414170 100.0323430  72.8818980  59.9496620
  96.5531710  68.3502290  60.6016420  95.9459660  69.0901190  60.6111720
  97.0281060  68.4401650  59.7754620 101.4610560  63.7496000  62.5018750
 100.7526710  64.2182340  62.9432360 101.7455040  63.0918010  63.1363940
 103.0866490  65.1692700  70.5011280 103.5851740  65.6438520  71.1663130
 103.2289440  64.2456220  70.7081310 105.4925990  60.4746660  63.9414540
 105.3693770  60.4932790  62.9924050 106.4410550  60.5225600  64.0612940
 102.5802780  75.7101960  63.2142520 102.8344280  75.6723350  62.2921890
 101.6315260  75.5835290  63.2070770  99.6645580  62.0581080  59.8769460
 100.5136110  62.4951230  59.8109650  99.2976850  62.3701340  60.7041520
 108.5855360  66.6293840  64.7901030 107.6445500  66.6444070  64.9648720
 108.8999430  65.8429800  65.2361330  98.5637000  68.3113440  58.3504990
  99.3300270  68.1994800  58.9130420  98.6411690  67.6151410  57.6981760
  97.2583760  65.7438510  59.0337880  97.3387350  64.7966020  59.1455280
  98.1503510  66.0745390  59.1398540 110.5880940  73.8002690  66.4655290
 110.7128360  74.6233860  66.9379100 111.4546500  73.5893420  66.1179440
  98.0598470  75.8933900  66.1372420  98.7960950  75.3449360  66.4080990
  98.4439390  76.7589910  65.9978410  94.9443950  71.9607470  62.0113930
  94.0183730  72.2028610  62.0019340  95.4100380  72.7881730  61.8898680
  97.0656750  75.0779970  75.3258000  97.8669480  75.3992020  75.7393400
  96.5508570  74.7175550  76.0477910 105.9021380  71.1859840  75.2733410
 105.2959540  71.2091440  74.5329160 105.5975490  70.4542880  75.8100660
 107.3321750  74.9140130  73.8842820 108.2843500  74.8298150  73.8343060
 107.1849970  75.5781840  74.5576610 110.2230950  74.2934340  59.3834730
 109.9372460  73.8799480  58.5688910 110.0250500  75.2222050  59.2635250
 101.6878180  70.2867620  57.8240340 101.5828820  69.6719970  58.5501720
 101.5202400  69.7633510  57.0403350 104.9280910  69.3487650  58.4282330
 104.3791010  69.7956950  59.0725070 105.5500170  68.8436900  58.9520000
 108.9815850  70.7029750  74.3604590 109.7225320  71.0405510  73.8572050
 108.2188530  70.8721810  73.8074360 100.5956030  68.3078570  60.3247630
 101.0172450  68.1418440  61.1679020 100.7206870  67.4978800  59.8302770
  98.7583450  64.2875120  73.1318610  98.2279910  63.7966070  72.5041950
  99.4271520  64.7159320  72.5976540 103.1083670  67.3316180  57.5724730
 103.6289330  66.6165200  57.2065880 103.7552070  67.9702050  57.8725240
 107.6561510  68.7544580  72.8959800 108.0702530  68.9089660  73.7450220
 106.7212510  68.8799800  73.0585580 108.1283680  66.0940740  74.8998950
 108.7104450  65.3393060  74.8119430 108.3045450  66.6248180  74.1230430
 102.4176740  68.7065060  70.8655730 102.8364850  69.5497790  70.6931970
 101.4985370  68.8437100  70.6362510 104.7540640  66.4381240  72.2493570
 104.8736850  65.8422380  72.9888410 105.6134640  66.4750930  71.8294870
 107.0928540  66.9918430  70.8256080 106.5663760  67.5161050  70.2221220
 107.4359880  67.6245820  71.4565810  99.4914930  64.3811800  57.2705790
  99.2903990  63.5179160  57.6319130  99.3206980  64.2945160  56.3327390
 100.2684160  75.0118070  71.9813460  99.7305250  75.7364130  71.6622160
 100.5218120  74.5348410  71.1910800 101.5209410  62.9802590  73.5069390
 102.1109100  62.6718440  74.1947210 100.7029650  62.5082340  73.6629290
 106.3402840  62.5968400  73.7402410 105.6518360  61.9349940  73.6752400
 107.0608860  62.1506670  74.1850870 106.9703240  59.1920030  59.7992670
 107.2505530  58.3487930  60.1552090 106.1968970  59.4243140  60.3131420
  98.2897730  61.4812420  57.2583670  98.5923630  61.4879850  56.3502820
  99.0292320  61.1310280  57.7551330 103.1246370  76.2469280  72.2400110
 103.0505070  77.1504420  72.5472480 102.2225210  75.9281180  72.2122180
 101.5082660  60.4247040  58.2439870 101.1604660  59.7471030  57.6642320
 101.7095430  59.9636550  59.0583260  97.3127860  70.7854840  58.0913470
  97.7502730  71.3284510  58.7471050  97.7975590  69.9601790  58.1009810
  94.5273660  73.5743870  65.5433730  94.8576670  72.7064930  65.3112370
  94.9564660  73.7802390  66.3738690  99.1235580  71.9052880  63.2035700
  98.8231120  71.7817850  64.1039610  99.0173070  71.0461470  62.7951430
 110.6526050  73.9431460  72.5692670 110.0528040  74.0024020  71.8256590
 110.7819950  73.0036440  72.6989520 111.8927500  71.6849280  57.9062380
 111.0620460  71.7525930  58.3769610 112.0699330  72.5753400  57.6029240
 111.3483960  68.4296760  60.4096580 112.1102870  68.9993410  60.5156270
 111.3638330  67.8623960  61.1804890 112.3543930  69.2846860  65.2538510
 112.7252760  68.5014180  64.8474480 112.9945860  69.9735960  65.0755810
 109.3377690  70.6683440  70.6668830 108.5237530  71.0980600  70.9294620
 109.7451890  71.2801850  70.0537880 111.4003130  68.7231130  57.5669100
 111.6751970  69.6310010  57.4388320 111.2113870  68.6593660  58.5031090
 111.2968470  66.6600120  62.5598530 110.9212070  65.8928050  62.1279820
 110.5671590  67.0422820  63.0473460  95.8864230  67.3387260  69.1807580
  96.2537270  67.2514660  70.0603600  95.3175050  66.5753810  69.0814440
  95.4380230  64.2496350  73.0866000  94.5436280  64.2163110  73.4259710
  95.9777780  64.4483140  73.8517250 110.5719430  64.8857610  65.8605770
 111.0956910  64.3920260  65.2295940 111.1578850  65.0207970  66.6053340
 112.3796830  60.6099830  57.5742000 113.3046140  60.4781010  57.3660290
 112.3572620  60.6892650  58.5278450 112.4535320  61.3810490  60.1998710
 111.6586820  61.3155610  60.7291620 112.6578600  62.3161130  60.1884060
 109.3953740  75.4202040  64.1937100 109.9912810  75.0986610  63.5171520
 109.6531890  74.9473860  64.9850370  95.6951940  58.6800350  70.1774540
  95.3466760  59.1364170  70.9432720  95.3639640  57.7857480  70.2596970
 101.0022340  73.4079540  69.9437450 100.7613700  73.6754100  69.0567970
 101.9424980  73.5785270  69.9988310 112.2626500  75.4273920  70.7448090
 111.7684780  75.8242790  70.0275220 111.6539790  74.8023130  71.1385370
  97.1404340  74.7982200  71.4625510  96.5464660  74.6666900  72.2015550
  97.1328180  73.9620340  70.9967610 109.9465950  76.0697340  68.0234830
 109.4868920  76.8213150  67.6492850 109.3178410  75.3503810  67.9649630
  96.7716570  72.1640580  70.4133550  96.0450630  71.5445870  70.3459500
  96.8325720  72.5581190  69.5431630 100.3761670  74.3785580  67.1982960
 100.8926690  73.7672940  66.6731220 101.0259050  74.8814360  67.6893970
 103.1157170  75.2694070  68.0251940 103.4034980  75.0148370  67.1484950
 103.6280390  74.7171430  68.6157510 108.8855250  59.7107370  66.6497540
 109.3263340  59.6552470  65.8019140 108.6162840  60.6265380  66.7207720
  95.0546570  75.4814970  63.6230310  94.8868610  74.8485650  64.3212200
  94.1881080  75.6874370  63.2724500 102.2188400  61.4271020  64.1164480
 101.4062910  61.0527910  63.7760360 102.7230040  60.6716100  64.4185670
 106.7213380  58.0913470  65.3547550 107.3242750  58.6633680  65.8296070
 105.9806370  58.6552910  65.1321450  96.6609270  74.1748200  61.0680450
  96.1356890  74.5556230  60.3642410  96.5853850  74.7998970  61.7890160
 100.2437580  59.5770940  62.7209530  99.6140320  58.8758250  62.8879660
  99.7042720  60.3375070  62.5042690 103.1829530  76.1910170  75.3920140
 104.1096840  75.9554440  75.4356100 103.1679960  77.0182170  74.9106170
 111.4174590  75.7335740  62.3894390 111.5926780  75.0473480  61.7455310
 110.7196160  76.2582790  61.9971060  98.4217030  72.2395310  59.9476030
  97.7925910  72.7080410  60.4961860  98.5364860  71.3944530  60.3822220
 106.9708600  58.2708500  75.7342490 106.8574050  58.5903110  76.6294010
 107.7878340  58.6721010  75.4379770 109.7507090  75.4180030  75.2161180
 110.5432410  74.9229260  75.0087140 110.0440240  76.0970170  75.8236790
  98.0250620  68.3799800  48.8562260  97.1935500  68.1248510  49.2558770
  98.6331600  68.4510570  49.5920180 108.0292220  72.4740180  46.7585630
 107.5673750  71.7027420  47.0872800 108.8417770  72.5006250  47.2638080
  98.0051880  72.4139890  49.0520280  98.3079920  71.5237630  48.8730500
  98.7495470  72.9710110  48.8242530  94.3975580  65.9407340  48.5244350
  94.9691690  65.1729540  48.5247990  94.3977120  66.2396100  47.6150960
 104.2555530  74.7598190  46.3789620 103.6366970  75.2155690  45.8084060
 105.1107310  74.9149650  45.9779320  95.6400450  61.3491700  50.3113280
  95.4603290  60.4517450  50.5916040  95.2380530  61.8963570  50.9860230
 108.2623070  61.0458000  45.1453930 109.0832690  60.5554570  45.1879410
 108.2957150  61.6355660  45.8985770  96.2587120  63.8452200  48.9195620
  96.9397230  64.1090570  49.5383020  95.9435170  63.0053070  49.2533630
  98.7347790  59.5318120  52.2731630  98.7366230  60.0490510  51.4677530
  97.9052100  59.0548300  52.2501560  99.9850640  69.1713300  50.4505130
  99.6520020  69.7982220  51.0926200 100.1617320  69.6975180  49.6706800
 108.4984550  62.9858380  47.9181470 107.7940120  63.2743270  48.4984580
 108.8596710  63.7958490  47.5581030  98.4163120  61.2428080  50.2802080
  98.7579930  62.0870130  49.9855950  97.4778930  61.3911820  50.3967420
  99.1969740  71.1394100  52.2654310  99.8143740  71.8145180  51.9838760
  98.3362860  71.5482080  52.1741810  94.4902080  70.3293960  41.1461160
  94.1130060  70.8181060  40.4146060  94.7475150  71.0019240  41.7767690
 110.1147330  72.6033510  50.1808950 109.4310850  73.2732620  50.1725620
 110.6541620  72.8014160  49.4153810 102.0991010  58.7310350  46.6046670
 102.4065990  58.1757240  45.8882170 101.1691710  58.8654810  46.4219660
 107.6506070  74.4477640  48.8954130 107.6633230  74.0439930  48.0276390
 107.0981290  75.2224930  48.7915560 108.9451490  71.1693860  43.9844300
 108.8347820  70.2268190  44.1093720 108.9419740  71.5309500  44.8707060
 104.4871770  66.7959180  43.3406790 103.5601050  66.7296560  43.5695260
 104.6396590  67.7339310  43.2262030 110.9953610  67.7494700  50.3152980
 110.1672240  67.8187790  49.8403110 111.5904090  68.3349010  49.8468810
 108.5169060  68.3579480  43.8442040 107.8981480  68.0199030  43.1968340
 108.4993510  67.7139240  44.5521230 100.0928410  67.3223920  46.1226520
  99.6885410  66.6101170  45.6272420 100.1791530  66.9777160  47.0114560
 100.5610110  71.0091480  48.2865730 100.2638400  70.4036950  47.6073510
 101.5109930  71.0468790  48.1755090 108.6495720  74.5823350  51.9488830
 108.1726280  75.3895540  51.7561440 107.9657510  73.9301680  52.1015040
  99.6528540  70.7473170  54.9373530  98.7557070  70.9713140  55.1846930
  99.6781410  70.8708110  53.9884930 106.6933760  67.5966290  40.8514790
 107.1327040  66.7588720  40.7052610 107.4062180  68.2295690  40.9378930
  98.4799760  67.6186490  53.5130900  98.3407530  68.4909290  53.8818300
  97.5981120  67.2759300  53.3678840 104.8029140  72.5362360  44.8196030
 105.2425050  73.2786690  44.4051420 104.7416030  72.7788930  45.7434990
 100.2780110  73.5608190  55.7216050 100.2495540  73.9651140  54.8544480
 100.1145080  72.6318550  55.5587650 110.2750900  58.8509100  39.1655830
 109.9623560  58.9435930  40.0654900 111.0363370  59.4290130  39.1153260
  96.7933040  66.2168900  43.6233170  96.6730640  66.9430990  43.0114440
  96.4833930  65.4471810  43.1461080 112.2294930  74.3435290  57.0180220
 112.7054650  74.8218180  57.6969300 112.8502090  74.2752780  56.2925720
  94.4318410  69.3884040  49.4301810  94.5098830  69.5232810  48.4857530
  95.0460090  68.6799930  49.6229930  95.6766040  71.0884230  45.8407990
  95.2694120  71.2298820  44.9861590  96.5679050  70.8044390  45.6379200
 111.6328180  71.5348140  54.1780230 111.7591240  71.2960020  53.2597410
 111.6749560  70.7032680  54.6502310 107.4699320  75.5231480  42.1759040
 107.3100460  75.2334420  43.0740870 107.3046030  74.7471610  41.6404270
 107.1725450  73.0319040  40.7357040 106.4790610  73.0296330  40.0759320
 107.9148310  72.6078360  40.3051210 106.7375380  74.6581750  44.8105530
 107.1932330  73.8771130  45.1244150 107.0767900  75.3688570  45.3546710
 111.4852190  63.5880600  55.1429970 110.8696460  64.0960270  54.6145430
 111.1648610  62.6878930  55.0855910  94.4877930  70.4298210  51.9696270
  94.6508970  69.9603570  51.1515640  94.9530380  69.9221770  52.6345110
 108.5471020  63.6481440  53.7388820 107.6964610  63.3487190  54.0597890
 108.3872810  63.8923450  52.8272640 102.3755520  59.1814670  41.8862670
 101.7509700  59.1774540  42.6115980 102.2885640  58.3145630  41.4898640
 106.2808680  64.6900910  43.3328740 105.6817570  65.4136710  43.1492360
 106.8288290  64.6277690  42.5505190 101.4910130  65.5823120  55.3998360
 101.3953730  64.6417850  55.2498760 102.3342110  65.8038190  55.0046430
  96.6220670  61.9936790  53.5532140  96.2284060  62.8412000  53.7604920
  95.9339070  61.3563160  53.7440780 103.1965720  62.0771760  56.6228880
 102.5064040  61.8843960  57.2574970 103.9398020  62.3606400  57.1553180
  93.9237720  59.9165250  47.5862220  93.6350770  60.4868110  48.2987200
  94.6683480  59.4369700  47.9493450 105.9354600  61.3703880  48.8705740
 105.9527340  61.8212530  49.7147590 105.6870180  60.4709520  49.0839180
  96.0616910  69.8049640  54.1292080  95.6771700  69.1643310  54.7275040
  96.3729100  70.5085760  54.6986810 109.2883190  68.8961170  48.3178150
 110.0082310  69.3916460  47.9274260 109.0865010  68.2179060  47.6732020
  98.5732610  69.5676190  46.1630570  99.0911280  68.7644450  46.1087460
  98.1216630  69.5055330  47.0047400  96.0577150  66.5337560  53.0756270
  95.6992090  67.1991410  53.6629610  95.7631710  65.7021110  53.4468890
  99.2590270  66.9921800  55.9595820  98.9590410  67.1378980  55.0623640
 100.0301510  66.4327090  55.8669210 104.6018720  71.7890800  53.9550950
 104.6163260  70.8571760  53.7369860 103.8943820  71.8750560  54.5940720
 109.7355790  65.9730620  40.2249560 109.6519510  66.4044840  39.3746000
 110.4549980  66.4328970  40.6576380 110.8129930  68.4298140  53.3019530
 110.0878120  69.0226920  53.1048920 111.3405390  68.4221680  52.5032900
 110.7643040  72.8272880  42.9531690 110.1219200  72.1728500  43.2275410
 110.3773700  73.2327970  42.1772360 109.1540420  71.7189340  39.4908040
 108.9278000  71.0019780  40.0832680 108.7636620  71.4701780  38.6529790
  94.9356450  75.7456200  40.2652500  95.2954090  76.3445540  39.6109770
  94.7948790  76.2916090  41.0387530 108.7356670  69.6361280  41.1522200
 108.4478370  70.0973970  41.9400080 109.5308840  69.1759050  41.4206420
  94.9198310  74.0111060  54.7394900  95.0289430  73.0705800  54.5990290
  94.2678870  74.2765810  54.0908630  96.5531710  68.3502290  41.8272930
  95.9459660  69.0901190  41.8368230  97.0281060  68.4401650  41.0011130
 106.1264500  62.5153110  51.5029820 106.4945320  61.6948320  51.8309390
 105.2662700  62.5755000  51.9185470 109.4926530  61.4710050  42.3117380
 108.8639690  61.5755720  41.5975610 108.9978450  61.6906830  43.1011260
 103.9384670  73.1915640  39.7451360 104.0396650  72.9879630  38.8153340
 103.0386410  72.9373920  39.9499140 101.4610560  63.7496000  43.7275260
 100.7526710  64.2182340  44.1688870 101.7455040  63.0918010  44.3620450
 105.4925990  60.4746660  45.1671050 105.3693770  60.4932790  44.2180560
 106.4410550  60.5225600  45.2869450 102.5802780  75.7101960  44.4399030
 102.8344280  75.6723350  43.5178400 101.6315260  75.5835290  44.4327280
 108.5855360  66.6293840  46.0157540 107.6445500  66.6444070  46.1905230
 108.8999430  65.8429800  46.4617840 110.5880940  73.8002690  47.6911800
 110.7128360  74.6233860  48.1635610 111.4546500  73.5893420  47.3435950
  94.9443950  71.9607470  43.2370440  94.0183730  72.2028610  43.2275850
  95.4100380  72.7881730  43.1155190  97.0656750  75.0779970  56.5514510
  97.8669480  75.3992020  56.9649910  96.5508570  74.7175550  57.2734420
 101.1700780  75.0664210  39.1854500 101.9629390  75.3553040  38.7336290
 100.6505130  74.6356380  38.5066980 105.9021380  71.1859840  56.4989920
 105.2959540  71.2091440  55.7585670 105.5975490  70.4542880  57.0357170
 110.2230950  74.2934340  40.6091240 109.9372460  73.8799480  39.7945420
 110.0250500  75.2222050  40.4891760  94.7854560  67.5653430  55.4950560
  95.2893580  66.9860710  56.0666790  94.0461980  67.8493660  56.0326930
 101.8392500  68.9724420  55.0286080 101.0738170  69.5409420  54.9440750
 102.0208460  68.6800630  54.1354310 108.9815850  70.7029750  55.5861100
 109.7225320  71.0405510  55.0828560 108.2188530  70.8721810  55.0330870
  96.8177640  65.7083020  56.3900630  96.8582980  65.4096890  57.2985860
  97.6723140  66.1090630  56.2308150  98.7583450  64.2875120  54.3575120
  98.2279910  63.7966070  53.7298460  99.4271520  64.7159320  53.8233050
  99.2455750  61.2537490  54.4372410  99.1512620  60.6358240  53.7123280
  98.6653140  61.9803780  54.2102320 102.0117190  59.8110730  51.4699800
 101.5634490  59.8334990  50.6245350 101.3782390  59.4129750  52.0670100
 100.2684160  75.0118070  53.2069970  99.7305250  75.7364130  52.8878670
 100.5218120  74.5348410  52.4167310 101.5209410  62.9802590  54.7325900
 102.1109100  62.6718440  55.4203720 100.7029650  62.5082340  54.8885800
 106.3402840  62.5968400  54.9658920 105.6518360  61.9349940  54.9008910
 107.0608860  62.1506670  55.4107380  98.2897730  61.4812420  38.4840180
  98.5923630  61.4879850  37.5759330  99.0292320  61.1310280  38.9807840
 103.6731700  75.4127790  41.0882980 104.5682490  75.7512760  41.1101740
 103.7049330  74.6907200  40.4607260  94.5273660  73.5743870  46.7690240
  94.8576670  72.7064930  46.5368880  94.9564660  73.7802390  47.5995200
  99.1235580  71.9052880  44.4292210  98.8231120  71.7817850  45.3296120
  99.0173070  71.0461470  44.0207940  95.0163870  74.4414460  49.5071870
  94.5794860  74.6215260  50.3396020  95.5841550  75.1989080  49.3653590
 110.6526050  73.9431460  53.7949180 110.0528040  74.0024020  53.0513100
 110.7819950  73.0036440  53.9246030 111.8927500  71.6849280  39.1318890
 111.0620460  71.7525930  39.6026120 112.0699330  72.5753400  38.8285750
 111.3483960  68.4296760  41.6353090 112.1102870  68.9993410  41.7412780
 111.3638330  67.8623960  42.4061400  94.8488300  66.9534690  45.8660750
  94.1937140  66.6846330  45.2220450  95.6866250  66.8439170  45.4162730
 111.4003130  68.7231130  38.7925610 111.6751970  69.6310010  38.6644830
 111.2113870  68.6593660  39.7287600 111.2968470  66.6600120  43.7855040
 110.9212070  65.8928050  43.3536330 110.5671590  67.0422820  44.2729970
  95.8864230  67.3387260  50.4064090  96.2537270  67.2514660  51.2860110
  95.3175050  66.5753810  50.3070950 110.6868090  65.8071640  53.4194560
 110.4554180  65.5784390  52.5192510 110.9472640  66.7271190  53.3739450
  95.4380230  64.2496350  54.3122510  94.5436280  64.2163110  54.6516220
  95.9777780  64.4483140  55.0773760  94.0626380  64.1633620  41.8086080
  93.1590460  64.4263820  41.6337740  94.5467000  64.4344790  41.0286040
 110.5719430  64.8857610  47.0862280 111.0956910  64.3920260  46.4552450
 111.1578850  65.0207970  47.8309850  96.2527750  59.2738490  38.7583110
  96.9755880  59.8147430  39.0764330  96.5252270  59.0001910  37.8824650
 110.0619400  64.1430960  43.0254690 110.5578520  63.9101830  43.8103570
 109.8635470  63.3042800  42.6092330  95.9419940  58.5244680  48.6605730
  96.5896130  57.9742060  48.2200890  96.3621780  58.7787830  49.4821540
 111.4906560  62.7791910  45.5592370 111.3805840  62.6247950  46.4974640
 112.2514150  62.2512850  45.3167780 112.3796830  60.6099830  38.7998510
 113.3046140  60.4781010  38.5916800 112.3572620  60.6892650  39.7534960
 112.4535320  61.3810490  41.4255220 111.6586820  61.3155610  41.9548130
 112.6578600  62.3161130  41.4140570 109.3953740  75.4202040  45.4193610
 109.9912810  75.0986610  44.7428030 109.6531890  74.9473860  46.2106880
  95.6951940  58.6800350  51.4031050  95.3466760  59.1364170  52.1689230
  95.3639640  57.7857480  51.4853480  97.3016310  71.8519950  55.5684240
  97.2585940  71.4812860  56.4498700  97.4327320  72.7897520  55.7086060
 101.0022340  73.4079540  51.1693960 100.7613700  73.6754100  50.2824480
 101.9424980  73.5785270  51.2244820 103.2076760  59.8712230  54.9250470
 103.1465650  60.4634060  55.6745880 104.1477140  59.7638190  54.7800730
 112.2626500  75.4273920  51.9704600 111.7684780  75.8242790  51.2531730
 111.6539790  74.8023130  52.3641880  97.1404340  74.7982200  52.6882020
  96.5464660  74.6666900  53.4272060  97.1328180  73.9620340  52.2224120
 106.5859360  58.0914430  50.8912050 105.7119200  58.4249540  50.6884980
 106.4770110  57.6187610  51.7163920 109.9465950  76.0697340  49.2491340
 109.4868920  76.8213150  48.8749360 109.3178410  75.3503810  49.1906140
  96.7716570  72.1640580  51.6390060  96.0450630  71.5445870  51.5716010
  96.8325720  72.5581190  50.7688140 100.3761670  74.3785580  48.4239470
 100.8926690  73.7672940  47.8987730 101.0259050  74.8814360  48.9150480
 104.3334180  59.0084270  49.8304960 103.5505970  59.4829770  50.1101720
 104.0397110  58.1039100  49.7218140 108.8855250  59.7107370  47.8754050
 109.3263340  59.6552470  47.0275650 108.6162840  60.6265380  47.9464230
 110.7493820  59.3422610  45.8862870 110.6882220  58.3983830  45.7393890
 111.5285850  59.4502700  46.4316330 106.7213380  58.0913470  46.5804060
 107.3242750  58.6633680  47.0552580 105.9806370  58.6552910  46.3577960
 109.8647980  58.4935030  41.8544340 110.0598610  59.3918480  42.1211770
 109.0777850  58.2622110  42.3477290  96.6609270  74.1748200  42.2936960
  96.1356890  74.5556230  41.5898920  96.5853850  74.7998970  43.0146670
 111.4174590  75.7335740  43.6150900 111.5926780  75.0473480  42.9711820
 110.7196160  76.2582790  43.2227570 100.3693140  58.8554920  56.3818530
 100.0877410  59.3588520  55.6179350 100.7512840  58.0576670  56.0160660
  99.2602240  76.1230580  41.1686210  99.9921060  75.8389860  40.6210100
  99.5195910  75.8843860  42.0585590 105.8766750  66.2900970  27.3233740
 105.7960800  65.3755580  27.0525450 105.4631170  66.7868040  26.6173450
  96.4342570  63.3401690  23.8661160  95.5459270  63.6817660  23.7641040
  96.7183760  63.1402010  22.9741990  94.3975580  65.9407340  29.7500860
  94.9691690  65.1729540  29.7504500  94.3977120  66.2396100  28.8407470
  95.6400450  61.3491700  31.5369790  95.4603290  60.4517450  31.8172550
  95.2380530  61.8963570  32.2116740 104.4798950  63.5507560  29.4382100
 104.8563770  62.6779440  29.3255770 104.3818460  63.8866260  28.5472540
  98.6103960  61.9233190  24.8999540  98.7170710  62.8236920  25.2068300
  97.6996320  61.8751160  24.6094190  96.2587120  63.8452200  30.1452130
  96.9397230  64.1090570  30.7639530  95.9435170  63.0053070  30.4790140
 100.4511690  64.8919560  29.2324720 100.9589910  65.3900530  29.8729740
 100.9824930  64.1154760  29.0564080  98.7347790  59.5318120  33.4988140
  98.7366230  60.0490510  32.6934040  97.9052100  59.0548300  33.4758070
  98.4163120  61.2428080  31.5058590  98.7579930  62.0870130  31.2112460
  97.4778930  61.3911820  31.6223930  99.1969740  71.1394100  33.4910820
  99.8143740  71.8145180  33.2095270  98.3362860  71.5482080  33.3998320
  94.4902080  70.3293960  22.3717670  94.1130060  70.8181060  21.6402570
  94.7475150  71.0019240  23.0024200 102.0991010  58.7310350  27.8303180
 102.4065990  58.1757240  27.1138680 101.1691710  58.8654810  27.6476170
 104.4740850  63.0676180  21.5630460 103.5344520  63.2290140  21.6482920
 104.7924110  63.7861860  21.0166450  98.8057030  64.0967130  31.1282070
  99.3571620  64.2062470  30.3535320  99.3200540  64.4704730  31.8437300
 108.6495720  74.5823350  33.1745340 108.1726280  75.3895540  32.9817950
 107.9657510  73.9301680  33.3271550  99.6528540  70.7473170  36.1630040
  98.7557070  70.9713140  36.4103440  99.6781410  70.8708110  35.2141440
 106.6933760  67.5966290  22.0771300 107.1327040  66.7588720  21.9309120
 107.4062180  68.2295690  22.1635440 100.2780110  73.5608190  36.9472560
 100.2495540  73.9651140  36.0800990 100.1145080  72.6318550  36.7844160
 110.2750900  58.8509100  20.3912340 109.9623560  58.9435930  21.2911410
 111.0363370  59.4290130  20.3409770 112.2294930  74.3435290  38.2436730
 112.7054650  74.8218180  38.9225810 112.8502090  74.2752780  37.5182230
 111.6328180  71.5348140  35.4036740 111.7591240  71.2960020  34.4853920
 111.6749560  70.7032680  35.8758820 105.4944920  75.2376140  33.9731550
 106.0089590  75.1484150  34.7753980 104.6514000  75.5835840  34.2659460
  99.2596700  59.5603970  28.2313350  98.8164850  60.3413510  27.8997870
  99.8181690  59.8833860  28.9384290 103.5466510  62.4272490  33.8348670
 103.0845880  62.6355510  34.6468610 103.1444620  61.6131840  33.5319340
 102.3755520  59.1814670  23.1119180 101.7509700  59.1774540  23.8372490
 102.2885640  58.3145630  22.7155150 101.2972600  60.1051300  30.0902950
 101.5944930  61.0114130  30.0094970 101.8458160  59.6170080  29.4762520
 106.2808680  64.6900910  24.5585250 105.6817570  65.4136710  24.3748870
 106.8288290  64.6277690  23.7761700 104.8873550  63.3264450  26.5888530
 105.2803120  63.6436650  25.7757220 105.2490400  62.4476330  26.7033050
  96.6220670  61.9936790  34.7788650  96.2284060  62.8412000  34.9861430
  95.9339070  61.3563160  34.9697290  93.9237720  59.9165250  28.8118730
  93.6350770  60.4868110  29.5243710  94.6683480  59.4369700  29.1749960
  94.1107950  63.8585370  20.0221450  94.0282620  64.8016130  20.1636440
  93.7591010  63.7160280  19.1433800 101.9106080  62.5924400  29.0891800
 101.9142140  62.1514350  28.2396340 102.8057200  62.9141730  29.1963620
  97.7608460  62.4750890  28.0486010  97.4208510  62.9526120  28.8053060
  96.9985780  62.0216010  27.6887110 101.9726230  63.5936480  22.0798560
 102.0939050  63.5522960  23.0284380 101.5874740  64.4560630  21.9245290
 105.9354600  61.3703880  30.0962250 105.9527340  61.8212530  30.9404100
 105.6870180  60.4709520  30.3095690 109.3625350  58.7836060  35.9348630
 109.6871120  58.0525720  36.4606610 109.3981860  58.4649700  35.0329620
 102.2114050  66.6526180  30.8357210 102.5784180  66.1784750  31.5818550
 102.0219110  67.5267750  31.1765550  95.0754540  61.3969870  26.9650680
  94.7901460  61.0325540  27.8029300  95.0133400  60.6650330  26.3513820
 100.0013420  65.6934820  33.1541420  99.6970490  66.5726800  33.3791780
 100.9559880  65.7534610  33.1898860 104.7493130  60.2899130  23.6864050
 103.9357740  59.7912300  23.6109360 104.5555080  61.1297380  23.2700400
 107.4641520  64.6618780  21.9826210 108.3521140  64.9736010  21.8077550
 107.4346610  63.7891030  21.5906790 104.6018720  71.7890800  35.1807460
 104.6163260  70.8571760  34.9626370 103.8943820  71.8750560  35.8197230
 109.7355790  65.9730620  21.4506070 109.6519510  66.4044840  20.6002510
 110.4549980  66.4328970  21.8832890  97.6331790  58.2639680  25.5178180
  97.5046420  58.2557580  26.4663100  96.8093810  58.6022770  25.1669190
 107.0822320  72.2335620  34.1961470 107.4178560  72.8202310  34.8739390
 106.1622660  72.1028330  34.4259260  94.9356450  75.7456200  21.4909010
  95.2954090  76.3445540  20.8366280  94.7948790  76.2916090  22.2644040
  94.6325720  60.0230800  34.9784880  93.9184240  60.2227720  35.5837490
  95.0520760  59.2470370  35.3499680 102.9110900  72.2826950  37.3649530
 102.5907770  71.5636190  37.9095220 102.2369260  72.9582020  37.4385590
 106.1264500  62.5153110  32.7286330 106.4945320  61.6948320  33.0565900
 105.2662700  62.5755000  33.1441980 109.4926530  61.4710050  23.5373890
 108.8639690  61.5755720  22.8232120 108.9978450  61.6906830  24.3267770
 103.0866490  65.1692700  32.9524300 103.5851740  65.6438520  33.6176150
 103.2289440  64.2456220  33.1594330 105.4925990  60.4746660  26.3927560
 105.3693770  60.4932790  25.4437070 106.4410550  60.5225600  26.5125960
 102.5802780  75.7101960  25.6655540 102.8344280  75.6723350  24.7434910
 101.6315260  75.5835290  25.6583790  99.6645580  62.0581080  22.3282480
 100.5136110  62.4951230  22.2622670  99.2976850  62.3701340  23.1554540
 108.5855360  66.6293840  27.2414050 107.6445500  66.6444070  27.4161740
 108.8999430  65.8429800  27.6874350  97.2583760  65.7438510  21.4850900
  97.3387350  64.7966020  21.5968300  98.1503510  66.0745390  21.5911560
  94.9443950  71.9607470  24.4626950  94.0183730  72.2028610  24.4532360
  95.4100380  72.7881730  24.3411700  97.0656750  75.0779970  37.7771020
  97.8669480  75.3992020  38.1906420  96.5508570  74.7175550  38.4990930
 105.9021380  71.1859840  37.7246430 105.2959540  71.2091440  36.9842180
 105.5975490  70.4542880  38.2613680 107.3321750  74.9140130  36.3355840
 108.2843500  74.8298150  36.2856080 107.1849970  75.5781840  37.0089630
 101.6878180  70.2867620  20.2753360 101.5828820  69.6719970  21.0014740
 101.5202400  69.7633510  19.4916370 101.8392500  68.9724420  36.2542590
 101.0738170  69.5409420  36.1697260 102.0208460  68.6800630  35.3610820
 104.9280910  69.3487650  20.8795350 104.3791010  69.7956950  21.5238090
 105.5500170  68.8436900  21.4033020  98.7583450  64.2875120  35.5831630
  98.2279910  63.7966070  34.9554970  99.4271520  64.7159320  35.0489560
 103.1083670  67.3316180  20.0237750 103.6289330  66.6165200  19.6578900
 103.7552070  67.9702050  20.3238260  99.2455750  61.2537490  35.6628920
  99.1512620  60.6358240  34.9379790  98.6653140  61.9803780  35.4358830
 102.0117190  59.8110730  32.6956310 101.5634490  59.8334990  31.8501860
 101.3782390  59.4129750  33.2926610 102.4176740  68.7065060  33.3168750
 102.8364850  69.5497790  33.1444990 101.4985370  68.8437100  33.0875530
  99.4914930  64.3811800  19.7218810  99.2903990  63.5179160  20.0832150
  99.3206980  64.2945160  18.7840410 100.2684160  75.0118070  34.4326480
  99.7305250  75.7364130  34.1135180 100.5218120  74.5348410  33.6423820
 101.5209410  62.9802590  35.9582410 102.1109100  62.6718440  36.6460230
 100.7029650  62.5082340  36.1142310 106.9703240  59.1920030  22.2505690
 107.2505530  58.3487930  22.6065110 106.1968970  59.4243140  22.7644440
  98.2897730  61.4812420  19.7096690  98.5923630  61.4879850  18.8015840
  99.0292320  61.1310280  20.2064350 103.1246370  76.2469280  34.6913130
 103.0505070  77.1504420  34.9985500 102.2225210  75.9281180  34.6635200
 101.5082660  60.4247040  20.6952890 101.1604660  59.7471030  20.1155340
 101.7095430  59.9636550  21.5096280  97.3127860  70.7854840  20.5426490
  97.7502730  71.3284510  21.1984070  97.7975590  69.9601790  20.5522830
 110.6526050  73.9431460  35.0205690 110.0528040  74.0024020  34.2769610
 110.7819950  73.0036440  35.1502540 111.8927500  71.6849280  20.3575400
 111.0620460  71.7525930  20.8282630 112.0699330  72.5753400  20.0542260
  94.8488300  66.9534690  27.0917260  94.1937140  66.6846330  26.4476960
  95.6866250  66.8439170  26.6419240 112.3543930  69.2846860  27.7051530
 112.7252760  68.5014180  27.2987500 112.9945860  69.9735960  27.5268830
 111.4003130  68.7231130  20.0182120 111.6751970  69.6310010  19.8901340
 111.2113870  68.6593660  20.9544110 107.7978740  61.7475980  21.3135750
 108.2163620  61.5606960  20.4732410 107.4914800  60.8955030  21.6238680
  96.6053590  63.2199160  20.9436970  97.3145290  62.7982380  20.4584250
  95.8893530  63.2874390  20.3120320  96.2527750  59.2738490  19.9839620
  96.9755880  59.8147430  20.3020840  96.5252270  59.0001910  19.1081160
  95.9419940  58.5244680  29.8862240  96.5896130  57.9742060  29.4457400
  96.3621780  58.7787830  30.7078050 109.8372280  58.7186040  33.2431880
 110.4744500  59.3320180  33.6091070 109.9847170  58.7546700  32.2981110
 112.3796830  60.6099830  20.0255020 113.3046140  60.4781010  19.8173310
 112.3572620  60.6892650  20.9791470 112.4535320  61.3810490  22.6511730
 111.6586820  61.3155610  23.1804640 112.6578600  62.3161130  22.6397080
  95.6951940  58.6800350  32.6287560  95.3466760  59.1364170  33.3945740
  95.3639640  57.7857480  32.7109990 112.2626500  75.4273920  33.1961110
 111.7684780  75.8242790  32.4788240 111.6539790  74.8023130  33.5898390
  96.3672580  58.2076550  35.9038330  96.9155570  58.0264600  35.1404440
  96.4327890  57.4170660  36.4394640 106.5859360  58.0914430  32.1168560
 105.7119200  58.4249540  31.9141490 106.4770110  57.6187610  32.9420430
 107.4931340  60.2985300  33.5010280 107.1644700  59.4837060  33.1212010
 108.4413640  60.2555110  33.3775970 109.9465950  76.0697340  30.4747850
 109.4868920  76.8213150  30.1005870 109.3178410  75.3503810  30.4162650
 103.1157170  75.2694070  30.4764960 103.4034980  75.0148370  29.5997970
 103.6280390  74.7171430  31.0670530 104.3334180  59.0084270  31.0561470
 103.5505970  59.4829770  31.3358230 104.0397110  58.1039100  30.9474650
 108.8855250  59.7107370  29.1010560 109.3263340  59.6552470  28.2532160
 108.6162840  60.6265380  29.1720740  95.6774590  59.3131750  23.5775190
  96.4353950  59.4260630  23.0039220  95.2151760  60.1500950  23.5318620
 102.2188400  61.4271020  26.5677500 101.4062910  61.0527910  26.2273380
 102.7230040  60.6716100  26.8698690 106.7213380  58.0913470  27.8060570
 107.3242750  58.6633680  28.2809090 105.9806370  58.6552910  27.5834470
 109.8647980  58.4935030  23.0800850 110.0598610  59.3918480  23.3468280
 109.0777850  58.2622110  23.5733800  98.0499740  59.8395800  22.1177160
  98.5792500  59.0525600  21.9885110  98.6828060  60.5186990  22.3512690
 100.2437580  59.5770940  25.1722550  99.6140320  58.8758250  25.3392680
  99.7042720  60.3375070  24.9555710 100.3693140  58.8554920  37.6075040
 100.0877410  59.3588520  36.8435860 100.7512840  58.0576670  37.2417170
 109.7507090  75.4180030  37.6674200 110.5432410  74.9229260  37.4600160
 110.0440240  76.0970170  38.2749810 105.8766750  66.2900970   8.5490250
 105.7960800  65.3755580   8.2781960 105.4631170  66.7868040   7.8429960
 104.0084790  68.0679990  10.4299520 103.2326890  67.5880430  10.7198090
 104.6597720  67.3885640  10.2555680  98.0250620  68.3799800  11.3075280
  97.1935500  68.1248510  11.7071790  98.6331600  68.4510570  12.0433200
 108.0292220  72.4740180   9.2098650 107.5673750  71.7027420   9.5385820
 108.8417770  72.5006250   9.7151100  98.0051880  72.4139890  11.5033300
  98.3079920  71.5237630  11.3243520  98.7495470  72.9710110  11.2755550
  96.4342570  63.3401690   5.0917670  95.5459270  63.6817660   4.9897550
  96.7183760  63.1402010   4.1998500  94.3975580  65.9407340  10.9757370
  94.9691690  65.1729540  10.9761010  94.3977120  66.2396100  10.0663980
 104.2555530  74.7598190   8.8302640 103.6366970  75.2155690   8.2597080
 105.1107310  74.9149650   8.4292340 103.4493780  70.7437180  10.4369680
 103.3802060  69.8027120  10.2758810 104.2113640  70.8338590  11.0092250
  95.6400450  61.3491700  12.7626300  95.4603290  60.4517450  13.0429060
  95.2380530  61.8963570  13.4373250 104.4798950  63.5507560  10.6638610
 104.8563770  62.6779440  10.5512280 104.3818460  63.8866260   9.7729050
  98.6103960  61.9233190   6.1256050  98.7170710  62.8236920   6.4324810
  97.6996320  61.8751160   5.8350700 108.2623070  61.0458000   7.5966950
 109.0832690  60.5554570   7.6392430 108.2957150  61.6355660   8.3498790
  96.2587120  63.8452200  11.3708640  96.9397230  64.1090570  11.9896040
  95.9435170  63.0053070  11.7046650 100.4511690  64.8919560  10.4581230
 100.9589910  65.3900530  11.0986250 100.9824930  64.1154760  10.2820590
 112.5522620  63.0624750  14.1610580 111.8474790  63.4506460  13.6425690
 112.8180540  63.7575040  14.7631510  98.7347790  59.5318120  14.7244650
  98.7366230  60.0490510  13.9190550  97.9052100  59.0548300  14.7014580
 105.1218880  69.6437430   6.2234550 104.5036150  70.1086880   5.6597270
 105.6342130  70.3364910   6.6404060  99.9850640  69.1713300  12.9018150
  99.6520020  69.7982220  13.5439220 100.1617320  69.6975180  12.1219820
 108.4984550  62.9858380  10.3694490 107.7940120  63.2743270  10.9497600
 108.8596710  63.7958490  10.0094050  98.4163120  61.2428080  12.7315100
  98.7579930  62.0870130  12.4368970  97.4778930  61.3911820  12.8480440
  99.1969740  71.1394100  14.7167330  99.8143740  71.8145180  14.4351780
  98.3362860  71.5482080  14.6254830  94.4902080  70.3293960   3.5974180
  94.1130060  70.8181060   2.8659080  94.7475150  71.0019240   4.2280710
 110.1147330  72.6033510  12.6321970 109.4310850  73.2732620  12.6238640
 110.6541620  72.8014160  11.8666830 111.5671470  62.4313170  10.7603700
 110.6196380  62.4652150  10.8919130 111.8921460  63.2452120  11.1453060
 102.0991010  58.7310350   9.0559690 102.4065990  58.1757240   8.3395190
 101.1691710  58.8654810   8.8732680 107.6506070  74.4477640  11.3467150
 107.6633230  74.0439930  10.4789410 107.0981290  75.2224930  11.2428580
 108.9451490  71.1693860   6.4357320 108.8347820  70.2268190   6.5606740
 108.9419740  71.5309500   7.3220080 107.0491510  69.3507480  12.6749760
 107.4660300  69.1367590  11.8403220 107.7731330  69.6080270  13.2458380
 104.4871770  66.7959180   5.7919810 103.5601050  66.7296560   6.0208280
 104.6396590  67.7339310   5.6775050 104.4740850  63.0676180   2.7886970
 103.5344520  63.2290140   2.8739430 104.7924110  63.7861860   2.2422960
 110.9953610  67.7494700  12.7666000 110.1672240  67.8187790  12.2916130
 111.5904090  68.3349010  12.2981830 108.5169060  68.3579480   6.2955060
 107.8981480  68.0199030   5.6481360 108.4993510  67.7139240   7.0034250
 107.9595620  64.5364020  13.7120870 107.5466800  65.3617730  13.9660860
 107.2271570  63.9509060  13.5197230 100.0928410  67.3223920   8.5739540
  99.6885410  66.6101170   8.0785440 100.1791530  66.9777160   9.4627580
 100.5610110  71.0091480  10.7378750 100.2638400  70.4036950  10.0586530
 101.5109930  71.0468790  10.6268110  98.8057030  64.0967130  12.3538580
  99.3571620  64.2062470  11.5791830  99.3200540  64.4704730  13.0693810
 108.6495720  74.5823350  14.4001850 108.1726280  75.3895540  14.2074460
 107.9657510  73.9301680  14.5528060  99.6528540  70.7473170  17.3886550
  98.7557070  70.9713140  17.6359950  99.6781410  70.8708110  16.4397950
 106.6933760  67.5966290   3.3027810 107.1327040  66.7588720   3.1565630
 107.4062180  68.2295690   3.3891950  98.4799760  67.6186490  15.9643920
  98.3407530  68.4909290  16.3331320  97.5981120  67.2759300  15.8191860
 104.8029140  72.5362360   7.2709050 105.2425050  73.2786690   6.8564440
 104.7416030  72.7788930   8.1948010 100.2780110  73.5608190  18.1729070
 100.2495540  73.9651140  17.3057500 100.1145080  72.6318550  18.0100670
  96.7933040  66.2168900   6.0746190  96.6730640  66.9430990   5.4627460
  96.4833930  65.4471810   5.5974100 112.2294930  74.3435290  19.4693240
 112.7054650  74.8218180  20.1482320 112.8502090  74.2752780  18.7438740
  95.6766040  71.0884230   8.2921010  95.2694120  71.2298820   7.4374610
  96.5679050  70.8044390   8.0892220 111.6328180  71.5348140  16.6293250
 111.7591240  71.2960020  15.7110430 111.6749560  70.7032680  17.1015330
 105.4944920  75.2376140  15.1988060 106.0089590  75.1484150  16.0010490
 104.6514000  75.5835840  15.4915970 107.4699320  75.5231480   4.6272060
 107.3100460  75.2334420   5.5253890 107.3046030  74.7471610   4.0917290
  99.9487700  75.3030010   6.4043680  99.7730180  74.3865550   6.1911480
  99.0943440  75.6617300   6.6441480 107.1725450  73.0319040   3.1870060
 106.4790610  73.0296330   2.5272340 107.9148310  72.6078360   2.7564230
 106.7375380  74.6581750   7.2618550 107.1932330  73.8771130   7.5757170
 107.0767900  75.3688570   7.8059730 111.4852190  63.5880600  17.5942990
 110.8696460  64.0960270  17.0658450 111.1648610  62.6878930  17.5368930
  99.2596700  59.5603970   9.4569860  98.8164850  60.3413510   9.1254380
  99.8181690  59.8833860  10.1640800 103.5466510  62.4272490  15.0605180
 103.0845880  62.6355510  15.8725120 103.1444620  61.6131840  14.7575850
 108.5471020  63.6481440  16.1901840 107.6964610  63.3487190  16.5110910
 108.3872810  63.8923450  15.2785660 105.6420730  65.1483190  18.2900630
 105.9674140  64.3146940  17.9502860 106.4301060  65.6711710  18.4378960
 102.3755520  59.1814670   4.3375690 101.7509700  59.1774540   5.0629000
 102.2885640  58.3145630   3.9411660 101.2972600  60.1051300  11.3159460
 101.5944930  61.0114130  11.2351480 101.8458160  59.6170080  10.7019030
  99.0510920  64.6837540   7.1851110  98.8251840  64.4674710   8.0897730
  98.2703450  65.1166000   6.8397080 106.2808680  64.6900910   5.7841760
 105.6817570  65.4136710   5.6005380 106.8288290  64.6277690   5.0018210
 101.4910130  65.5823120  17.8511380 101.3953730  64.6417850  17.7011780
 102.3342110  65.8038190  17.4559450 104.8873550  63.3264450   7.8145040
 105.2803120  63.6436650   7.0013730 105.2490400  62.4476330   7.9289560
  96.6220670  61.9936790  16.0045160  96.2284060  62.8412000  16.2117940
  95.9339070  61.3563160  16.1953800 103.1965720  62.0771760  19.0741900
 102.5064040  61.8843960  19.7087990 103.9398020  62.3606400  19.6066200
  93.9237720  59.9165250  10.0375240  93.6350770  60.4868110  10.7500220
  94.6683480  59.4369700  10.4006470 105.4728690  65.9170200  11.9095820
 104.7409810  66.4257010  12.2585920 105.0753030  65.1000180  11.6084600
 101.9106080  62.5924400  10.3148310 101.9142140  62.1514350   9.4652850
 102.8057200  62.9141730  10.4220130  97.7608460  62.4750890   9.2742520
  97.4208510  62.9526120  10.0309570  96.9985780  62.0216010   8.9143620
 101.9726230  63.5936480   3.3055070 102.0939050  63.5522960   4.2540890
 101.5874740  64.4560630   3.1501800 105.9354600  61.3703880  11.3218760
 105.9527340  61.8212530  12.1660610 105.6870180  60.4709520  11.5352200
 100.9847730  65.9037620   2.7038370 100.4164630  65.4555870   2.0774280
 101.6936730  66.2630400   2.1703520 109.3625350  58.7836060  17.1605140
 109.6871120  58.0525720  17.6863120 109.3981860  58.4649700  16.2586130
  96.0616910  69.8049640  16.5805100  95.6771700  69.1643310  17.1788060
  96.3729100  70.5085760  17.1499830 102.2114050  66.6526180  12.0613720
 102.5784180  66.1784750  12.8075060 102.0219110  67.5267750  12.4022060
  95.0754540  61.3969870   8.1907190  94.7901460  61.0325540   9.0285810
  95.0133400  60.6650330   7.5770330 100.0013420  65.6934820  14.3797930
  99.6970490  66.5726800  14.6048290 100.9559880  65.7534610  14.4155370
  98.5295210  69.8995810   4.9764780  97.7557470  69.3593430   4.8163500
  99.2589840  69.3802420   4.6382540 109.2883190  68.8961170  10.7691170
 110.0082310  69.3916460  10.3787280 109.0865010  68.2179060  10.1245040
 104.7493130  60.2899130   4.9120560 103.9357740  59.7912300   4.8365870
 104.5555080  61.1297380   4.4956910 104.6701990  68.9670230  16.6560170
 104.6039300  68.0465900  16.4017760 104.0407130  69.0645670  17.3704810
 107.4641520  64.6618780   3.2082720 108.3521140  64.9736010   3.0334060
 107.4346610  63.7891030   2.8163300  98.5732610  69.5676190   8.6143590
  99.0911280  68.7644450   8.5600480  98.1216630  69.5055330   9.4560420
 103.4602110  70.8342470   3.8870890 103.8017810  71.5784700   3.3914210
 102.6314820  71.1473590   4.2495720  96.0577150  66.5337560  15.5269290
  95.6992090  67.1991410  16.1142630  95.7631710  65.7021110  15.8981910
  99.2590270  66.9921800  18.4108840  98.9590410  67.1378980  17.5136660
 100.0301510  66.4327090  18.3182230 104.6018720  71.7890800  16.4063970
 104.6163260  70.8571760  16.1882880 103.8943820  71.8750560  17.0453740
 109.7355790  65.9730620   2.6762580 109.6519510  66.4044840   1.8259020
 110.4549980  66.4328970   3.1089400 110.8129930  68.4298140  15.7532550
 110.0878120  69.0226920  15.5561940 111.3405390  68.4221680  14.9545920
 110.7643040  72.8272880   5.4044710 110.1219200  72.1728500   5.6788430
 110.3773700  73.2327970   4.6285380 106.3429520  70.1558310   9.2516400
 106.6953340  69.5586440   8.5917770 105.4591850  69.8302540   9.4224650
 102.4292800  70.9156000   6.6586810 103.1163930  71.4625210   7.0394400
 101.6425220  71.4596730   6.6936420  94.5685200  66.5328820   2.1503890
  95.4380050  66.8153620   2.4339810  94.0775520  67.3464690   2.0352700
 101.7320010  67.9202030   6.2712170 102.1882790  68.7307280   6.4972360
 101.3808220  67.6025170   7.1030660 104.0352620  73.4308370  13.5004470
 104.6794840  73.6367750  14.1777890 104.3982060  72.6696770  13.0475320
  97.6331790  58.2639680   6.7434690  97.5046420  58.2557580   7.6919610
  96.8093810  58.6022770   6.3925700 105.3084700  71.4340720  12.2181920
 105.9506930  70.7333880  12.3314090 105.8334050  72.2139160  12.0378810
 107.0822320  72.2335620  15.4217980 107.4178560  72.8202310  16.0995900
 106.1622660  72.1028330  15.6515770  94.9356450  75.7456200   2.7165520
  95.2954090  76.3445540   2.0622790  94.7948790  76.2916090   3.4900550
  94.6325720  60.0230800  16.2041390  93.9184240  60.2227720  16.8094000
  95.0520760  59.2470370  16.5756190 108.7356670  69.6361280   3.6035220
 108.4478370  70.0973970   4.3913100 109.5308840  69.1759050   3.8719440
  94.9198310  74.0111060  17.1907920  95.0289430  73.0705800  17.0503310
  94.2678870  74.2765810  16.5421650 102.9110900  72.2826950  18.5906040
 102.5907770  71.5636190  19.1351730 102.2369260  72.9582020  18.6642100
 100.9525070  73.1287400   3.5339190 100.9435170  73.8617090   2.9183700
 100.0323430  72.8818980   3.6266150  96.5531710  68.3502290   4.2785950
  95.9459660  69.0901190   4.2881250  97.0281060  68.4401650   3.4524150
 106.1264500  62.5153110  13.9542840 106.4945320  61.6948320  14.2822410
 105.2662700  62.5755000  14.3698490 109.4926530  61.4710050   4.7630400
 108.8639690  61.5755720   4.0488630 108.9978450  61.6906830   5.5524280
 101.4610560  63.7496000   6.1788280 100.7526710  64.2182340   6.6201890
 101.7455040  63.0918010   6.8133470 103.0866490  65.1692700  14.1780810
 103.5851740  65.6438520  14.8432660 103.2289440  64.2456220  14.3850840
 105.4925990  60.4746660   7.6184070 105.3693770  60.4932790   6.6693580
 106.4410550  60.5225600   7.7382470 102.5802780  75.7101960   6.8912050
 102.8344280  75.6723350   5.9691420 101.6315260  75.5835290   6.8840300
  99.6645580  62.0581080   3.5538990 100.5136110  62.4951230   3.4879180
  99.2976850  62.3701340   4.3811050 110.2933350  61.3860660  15.0209200
 109.7906950  62.1266060  15.3603010 111.1090010  61.7744660  14.7045990
 108.5855360  66.6293840   8.4670560 107.6445500  66.6444070   8.6418250
 108.8999430  65.8429800   8.9130860  97.2583760  65.7438510   2.7107410
  97.3387350  64.7966020   2.8224810  98.1503510  66.0745390   2.8168070
 110.5880940  73.8002690  10.1424820 110.7128360  74.6233860  10.6148630
 111.4546500  73.5893420   9.7948970  98.0598470  75.8933900   9.8141950
  98.7960950  75.3449360  10.0850520  98.4439390  76.7589910   9.6747940
  94.9443950  71.9607470   5.6883460  94.0183730  72.2028610   5.6788870
  95.4100380  72.7881730   5.5668210  97.0656750  75.0779970  19.0027530
  97.8669480  75.3992020  19.4162930  96.5508570  74.7175550  19.7247440
 105.9021380  71.1859840  18.9502940 105.2959540  71.2091440  18.2098690
 105.5975490  70.4542880  19.4870190 107.3321750  74.9140130  17.5612350
 108.2843500  74.8298150  17.5112590 107.1849970  75.5781840  18.2346140
 110.2230950  74.2934340   3.0604260 109.9372460  73.8799480   2.2458440
 110.0250500  75.2222050   2.9404780 101.8392500  68.9724420  17.4799100
 101.0738170  69.5409420  17.3953770 102.0208460  68.6800630  16.5867330
 104.9280910  69.3487650   2.1051860 104.3791010  69.7956950   2.7494600
 105.5500170  68.8436900   2.6289530 108.9815850  70.7029750  18.0374120
 109.7225320  71.0405510  17.5341580 108.2188530  70.8721810  17.4843890
  96.8177640  65.7083020  18.8413650  96.8582980  65.4096890  19.7498880
  97.6723140  66.1090630  18.6821170 100.5956030  68.3078570   4.0017160
 101.0172450  68.1418440   4.8448550 100.7206870  67.4978800   3.5072300
  98.7583450  64.2875120  16.8088140  98.2279910  63.7966070  16.1811480
  99.4271520  64.7159320  16.2746070 107.6561510  68.7544580  16.5729330
 108.0702530  68.9089660  17.4219750 106.7212510  68.8799800  16.7355110
 108.1283680  66.0940740  18.5768480 108.7104450  65.3393060  18.4888960
 108.3045450  66.6248180  17.7999960  99.2455750  61.2537490  16.8885430
  99.1512620  60.6358240  16.1636300  98.6653140  61.9803780  16.6615340
 102.0117190  59.8110730  13.9212820 101.5634490  59.8334990  13.0758370
 101.3782390  59.4129750  14.5183120 102.4176740  68.7065060  14.5425260
 102.8364850  69.5497790  14.3701500 101.4985370  68.8437100  14.3132040
 104.7540640  66.4381240  15.9263100 104.8736850  65.8422380  16.6657940
 105.6134640  66.4750930  15.5064400 107.0928540  66.9918430  14.5025610
 106.5663760  67.5161050  13.8990750 107.4359880  67.6245820  15.1335340
 100.2684160  75.0118070  15.6582990  99.7305250  75.7364130  15.3391690
 100.5218120  74.5348410  14.8680330 101.5209410  62.9802590  17.1838920
 102.1109100  62.6718440  17.8716740 100.7029650  62.5082340  17.3398820
 106.3402840  62.5968400  17.4171940 105.6518360  61.9349940  17.3521930
 107.0608860  62.1506670  17.8620400 106.9703240  59.1920030   3.4762200
 107.2505530  58.3487930   3.8321620 106.1968970  59.4243140   3.9900950
 103.1246370  76.2469280  15.9169640 103.0505070  77.1504420  16.2242010
 102.2225210  75.9281180  15.8891710 103.6731700  75.4127790   3.5396000
 104.5682490  75.7512760   3.5614760 103.7049330  74.6907200   2.9120280
  97.3127860  70.7854840   1.7683000  97.7502730  71.3284510   2.4240580
  97.7975590  69.9601790   1.7779340  94.5273660  73.5743870   9.2203260
  94.8576670  72.7064930   8.9881900  94.9564660  73.7802390  10.0508220
  99.1235580  71.9052880   6.8805230  98.8231120  71.7817850   7.7809140
  99.0173070  71.0461470   6.4720960  95.0163870  74.4414460  11.9584890
  94.5794860  74.6215260  12.7909040  95.5841550  75.1989080  11.8166610
 110.6526050  73.9431460  16.2462200 110.0528040  74.0024020  15.5026120
 110.7819950  73.0036440  16.3759050 111.3483960  68.4296760   4.0866110
 112.1102870  68.9993410   4.1925800 111.3638330  67.8623960   4.8574420
  94.8488300  66.9534690   8.3173770  94.1937140  66.6846330   7.6733470
  95.6866250  66.8439170   7.8675750 112.3543930  69.2846860   8.9308040
 112.7252760  68.5014180   8.5244010 112.9945860  69.9735960   8.7525340
 109.3377690  70.6683440  14.3438360 108.5237530  71.0980600  14.6064150
 109.7451890  71.2801850  13.7307410 107.7978740  61.7475980   2.5392260
 108.2163620  61.5606960   1.6988920 107.4914800  60.8955030   2.8495190
 111.2968470  66.6600120   6.2368060 110.9212070  65.8928050   5.8049350
 110.5671590  67.0422820   6.7242990  95.8864230  67.3387260  12.8577110
  96.2537270  67.2514660  13.7373130  95.3175050  66.5753810  12.7583970
 110.6868090  65.8071640  15.8707580 110.4554180  65.5784390  14.9705530
 110.9472640  66.7271190  15.8252470  95.4380230  64.2496350  16.7635530
  94.5436280  64.2163110  17.1029240  95.9777780  64.4483140  17.5286780
 109.1256160  61.0328070  18.6487280 110.0026340  61.0411470  19.0321280
 109.1377000  60.2958910  18.0379630  94.0626380  64.1633620   4.2599100
  93.1590460  64.4263820   4.0850760  94.5467000  64.4344790   3.4799060
 110.5719430  64.8857610   9.5375300 111.0956910  64.3920260   8.9065470
 111.1578850  65.0207970  10.2822870 110.7509150  64.9697480  13.0594850
 109.8011860  64.9361020  13.1739840 110.9322160  65.8797590  12.8244620
 110.0619400  64.1430960   5.4767710 110.5578520  63.9101830   6.2616590
 109.8635470  63.3042800   5.0605350  95.9419940  58.5244680  11.1118750
  96.5896130  57.9742060  10.6713910  96.3621780  58.7787830  11.9334560
 111.4906560  62.7791910   8.0105390 111.3805840  62.6247950   8.9487660
 112.2514150  62.2512850   7.7680800 109.8372280  58.7186040  14.4688390
 110.4744500  59.3320180  14.8347580 109.9847170  58.7546700  13.5237620
 112.4535320  61.3810490   3.8768240 111.6586820  61.3155610   4.4061150
 112.6578600  62.3161130   3.8653590 109.3953740  75.4202040   7.8706630
 109.9912810  75.0986610   7.1941050 109.6531890  74.9473860   8.6619900
  95.6951940  58.6800350  13.8544070  95.3466760  59.1364170  14.6202250
  95.3639640  57.7857480  13.9366500  97.3016310  71.8519950  18.0197260
  97.2585940  71.4812860  18.9011720  97.4327320  72.7897520  18.1599080
 101.0022340  73.4079540  13.6206980 100.7613700  73.6754100  12.7337500
 101.9424980  73.5785270  13.6757840 103.2076760  59.8712230  17.3763490
 103.1465650  60.4634060  18.1258900 104.1477140  59.7638190  17.2313750
 105.8451320  59.5282290  17.0155780 106.4591730  59.8461580  16.3536860
 106.3900880  59.0430880  17.6351640 112.2626500  75.4273920  14.4217620
 111.7684780  75.8242790  13.7044750 111.6539790  74.8023130  14.8154900
  96.3672580  58.2076550  17.1294840  96.9155570  58.0264600  16.3660950
  96.4327890  57.4170660  17.6651150  97.1404340  74.7982200  15.1395040
  96.5464660  74.6666900  15.8785080  97.1328180  73.9620340  14.6737140
 106.5859360  58.0914430  13.3425070 105.7119200  58.4249540  13.1398000
 106.4770110  57.6187610  14.1676940 107.4931340  60.2985300  14.7266790
 107.1644700  59.4837060  14.3468520 108.4413640  60.2555110  14.6032480
 109.9465950  76.0697340  11.7004360 109.4868920  76.8213150  11.3262380
 109.3178410  75.3503810  11.6419160  96.7716570  72.1640580  14.0903080
  96.0450630  71.5445870  14.0229030  96.8325720  72.5581190  13.2201160
 100.3761670  74.3785580  10.8752490 100.8926690  73.7672940  10.3500750
 101.0259050  74.8814360  11.3663500 103.1157170  75.2694070  11.7021470
 103.4034980  75.0148370  10.8254480 103.6280390  74.7171430  12.2927040
 104.3334180  59.0084270  12.2817980 103.5505970  59.4829770  12.5614740
 104.0397110  58.1039100  12.1731160 108.8855250  59.7107370  10.3267070
 109.3263340  59.6552470   9.4788670 108.6162840  60.6265380  10.3977250
 110.7493820  59.3422610   8.3375890 110.6882220  58.3983830   8.1906910
 111.5285850  59.4502700   8.8829350  95.0546570  75.4814970   7.2999840
  94.8868610  74.8485650   7.9981730  94.1881080  75.6874370   6.9494030
  95.6774590  59.3131750   4.8031700  96.4353950  59.4260630   4.2295730
  95.2151760  60.1500950   4.7575130 102.2188400  61.4271020   7.7934010
 101.4062910  61.0527910   7.4529890 102.7230040  60.6716100   8.0955200
 106.7213380  58.0913470   9.0317080 107.3242750  58.6633680   9.5065600
 105.9806370  58.6552910   8.8090980 109.8647980  58.4935030   4.3057360
 110.0598610  59.3918480   4.5724790 109.0777850  58.2622110   4.7990310
  96.6609270  74.1748200   4.7449980  96.1356890  74.5556230   4.0411940
  96.5853850  74.7998970   5.4659690  98.0499740  59.8395800   3.3433670
  98.5792500  59.0525600   3.2141620  98.6828060  60.5186990   3.5769200
 100.2437580  59.5770940   6.3979060  99.6140320  58.8758250   6.5649190
  99.7042720  60.3375070   6.1812220 111.4174590  75.7335740   6.0663920
 111.5926780  75.0473480   5.4224840 110.7196160  76.2582790   5.6740590
 100.3693140  58.8554920  18.8331550 100.0877410  59.3588520  18.0692370
 100.7512840  58.0576670  18.4673680  99.2602240  76.1230580   3.6199230
  99.9921060  75.8389860   3.0723120  99.5195910  75.8843860   4.5098610
  98.4217030  72.2395310   3.6245560  97.7925910  72.7080410   4.1731390
  98.5364860  71.3944530   4.0591750 106.9708600  58.2708500  19.4112020
 106.8574050  58.5903110  20.3063540 107.7878340  58.6721010  19.1149300
 109.7507090  75.4180030  18.8930710 110.5432410  74.9229260  18.6856670
 110.0440240  76.0970170  19.5006320 105.8766750  47.5157480 139.9694680
 105.7960800  46.6012090 139.6986390 105.4631170  48.0124550 139.2634390
 104.0084790  49.2936500 141.8503950 103.2326890  48.8136940 142.1402520
 104.6597720  48.6142150 141.6760110  98.0250620  49.6056310 142.7279710
  97.1935500  49.3505020 143.1276220  98.6331600  49.6767080 143.4637630
 108.0292220  53.6996690 140.6303080 107.5673750  52.9283930 140.9590250
 108.8417770  53.7262760 141.1355530  98.0051880  53.6396400 142.9237730
  98.3079920  52.7494140 142.7447950  98.7495470  54.1966620 142.6959980
  96.4342570  44.5658200 136.5122100  95.5459270  44.9074170 136.4101980
  96.7183760  44.3658520 135.6202930  94.3975580  47.1663850 142.3961800
  94.9691690  46.3986050 142.3965440  94.3977120  47.4652610 141.4868410
 104.2555530  55.9854700 140.2507070 103.6366970  56.4412200 139.6801510
 105.1107310  56.1406160 139.8496770 103.4493780  51.9693690 141.8574110
 103.3802060  51.0283630 141.6963240 104.2113640  52.0595100 142.4296680
  95.6400450  42.5748210 144.1830730  95.4603290  41.6773960 144.4633490
  95.2380530  43.1220080 144.8577680 104.4798950  44.7764070 142.0843040
 104.8563770  43.9035950 141.9716710 104.3818460  45.1122770 141.1933480
  98.6103960  43.1489700 137.5460480  98.7170710  44.0493430 137.8529240
  97.6996320  43.1007670 137.2555130 108.2623070  42.2714510 139.0171380
 109.0832690  41.7811080 139.0596860 108.2957150  42.8612170 139.7703220
  96.2587120  45.0708710 142.7913070  96.9397230  45.3347080 143.4100470
  95.9435170  44.2309580 143.1251080 100.4511690  46.1176070 141.8785660
 100.9589910  46.6157040 142.5190680 100.9824930  45.3411270 141.7025020
 112.5522620  44.2881260 145.5815010 111.8474790  44.6762970 145.0630120
 112.8180540  44.9831550 146.1835940  98.7347790  40.7574630 146.1449080
  98.7366230  41.2747020 145.3394980  97.9052100  40.2804810 146.1219010
 105.1218880  50.8693940 137.6438980 104.5036150  51.3343390 137.0801700
 105.6342130  51.5621420 138.0608490  99.9850640  50.3969810 144.3222580
  99.6520020  51.0238730 144.9643650 100.1617320  50.9231690 143.5424250
 108.4984550  44.2114890 141.7898920 107.7940120  44.4999780 142.3702030
 108.8596710  45.0215000 141.4298480  98.4163120  42.4684590 144.1519530
  98.7579930  43.3126640 143.8573400  97.4778930  42.6168330 144.2684870
  99.1969740  52.3650610 146.1371760  99.8143740  53.0401690 145.8556210
  98.3362860  52.7738590 146.0459260  94.4902080  51.5550470 135.0178610
  94.1130060  52.0437570 134.2863510  94.7475150  52.2275750 135.6485140
 110.1147330  53.8290020 144.0526400 109.4310850  54.4989130 144.0443070
 110.6541620  54.0270670 143.2871260 111.5671470  43.6569680 142.1808130
 110.6196380  43.6908660 142.3123560 111.8921460  44.4708630 142.5657490
 102.0991010  39.9566860 140.4764120 102.4065990  39.4013750 139.7599620
 101.1691710  40.0911320 140.2937110 107.6506070  55.6734150 142.7671580
 107.6633230  55.2696440 141.8993840 107.0981290  56.4481440 142.6633010
 108.9451490  52.3950370 137.8561750 108.8347820  51.4524700 137.9811170
 108.9419740  52.7566010 138.7424510 107.0491510  50.5763990 144.0954190
 107.4660300  50.3624100 143.2607650 107.7731330  50.8336780 144.6662810
 104.4871770  48.0215690 137.2124240 103.5601050  47.9553070 137.4412710
 104.6396590  48.9595820 137.0979480 104.4740850  44.2932690 134.2091400
 103.5344520  44.4546650 134.2943860 104.7924110  45.0118370 133.6627390
 110.9953610  48.9751210 144.1870430 110.1672240  49.0444300 143.7120560
 111.5904090  49.5605520 143.7186260 108.5169060  49.5835990 137.7159490
 107.8981480  49.2455540 137.0685790 108.4993510  48.9395750 138.4238680
 107.9595620  45.7620530 145.1325300 107.5466800  46.5874240 145.3865290
 107.2271570  45.1765570 144.9401660 100.0928410  48.5480430 139.9943970
  99.6885410  47.8357680 139.4989870 100.1791530  48.2033670 140.8832010
 100.5610110  52.2347990 142.1583180 100.2638400  51.6293460 141.4790960
 101.5109930  52.2725300 142.0472540  98.8057030  45.3223640 143.7743010
  99.3571620  45.4318980 142.9996260  99.3200540  45.6961240 144.4898240
 108.6495720  55.8079860 145.8206280 108.1726280  56.6152050 145.6278890
 107.9657510  55.1558190 145.9732490  99.6528540  51.9729680 148.8090980
  98.7557070  52.1969650 149.0564380  99.6781410  52.0964620 147.8602380
 106.6933760  48.8222800 134.7232240 107.1327040  47.9845230 134.5770060
 107.4062180  49.4552200 134.8096380  98.4799760  48.8443000 147.3848350
  98.3407530  49.7165800 147.7535750  97.5981120  48.5015810 147.2396290
 104.8029140  53.7618870 138.6913480 105.2425050  54.5043200 138.2768870
 104.7416030  54.0045440 139.6152440 100.2780110  54.7864700 149.5933500
 100.2495540  55.1907650 148.7261930 100.1145080  53.8575060 149.4305100
 110.2750900  40.0765610 133.0373280 109.9623560  40.1692440 133.9372350
 111.0363370  40.6546640 132.9870710  96.7933040  47.4425410 137.4950620
  96.6730640  48.1687500 136.8831890  96.4833930  46.6728320 137.0178530
  94.4318410  50.6140550 143.3019260  94.5098830  50.7489320 142.3574980
  95.0460090  49.9056440 143.4947380  95.6766040  52.3140740 139.7125440
  95.2694120  52.4555330 138.8579040  96.5679050  52.0300900 139.5096650
 111.6328180  52.7604650 148.0497680 111.7591240  52.5216530 147.1314860
 111.6749560  51.9289190 148.5219760 105.4944920  56.4632650 146.6192490
 106.0089590  56.3740660 147.4214920 104.6514000  56.8092350 146.9120400
 107.4699320  56.7487990 136.0476490 107.3100460  56.4590930 136.9458320
 107.3046030  55.9728120 135.5121720  99.9487700  56.5286520 137.8248110
  99.7730180  55.6122060 137.6115910  99.0943440  56.8873810 138.0645910
 107.1725450  54.2575550 134.6074490 106.4790610  54.2552840 133.9476770
 107.9148310  53.8334870 134.1768660 106.7375380  55.8838260 138.6822980
 107.1932330  55.1027640 138.9961600 107.0767900  56.5945080 139.2264160
 111.4852190  44.8137110 149.0147420 110.8696460  45.3216780 148.4862880
 111.1648610  43.9135440 148.9573360  94.4877930  51.6554720 145.8413720
  94.6508970  51.1860080 145.0233090  94.9530380  51.1478280 146.5062560
  99.2596700  40.7860480 140.8774290  98.8164850  41.5670020 140.5458810
  99.8181690  41.1090370 141.5845230 103.5466510  43.6529000 146.4809610
 103.0845880  43.8612020 147.2929550 103.1444620  42.8388350 146.1780280
 108.5471020  44.8737950 147.6106270 107.6964610  44.5743700 147.9315340
 108.3872810  45.1179960 146.6990090 105.6420730  46.3739700 149.7105060
 105.9674140  45.5403450 149.3707290 106.4301060  46.8968220 149.8583390
 102.3755520  40.4071180 135.7580120 101.7509700  40.4031050 136.4833430
 102.2885640  39.5402140 135.3616090 101.2972600  41.3307810 142.7363890
 101.5944930  42.2370640 142.6555910 101.8458160  40.8426590 142.1223460
  99.0510920  45.9094050 138.6055540  98.8251840  45.6931220 139.5102160
  98.2703450  46.3422510 138.2601510 106.2808680  45.9157420 137.2046190
 105.6817570  46.6393220 137.0209810 106.8288290  45.8534200 136.4222640
 101.4910130  46.8079630 149.2715810 101.3953730  45.8674360 149.1216210
 102.3342110  47.0294700 148.8763880 104.8873550  44.5520960 139.2349470
 105.2803120  44.8693160 138.4218160 105.2490400  43.6732840 139.3493990
  96.6220670  43.2193300 147.4249590  96.2284060  44.0668510 147.6322370
  95.9339070  42.5819670 147.6158230  93.9237720  41.1421760 141.4579670
  93.6350770  41.7124620 142.1704650  94.6683480  40.6626210 141.8210900
  94.1107950  45.0841880 132.6682390  94.0282620  46.0272640 132.8097380
  93.7591010  44.9416790 131.7894740 105.4728690  47.1426710 143.3300250
 104.7409810  47.6513520 143.6790350 105.0753030  46.3256690 143.0289030
 101.9106080  43.8180910 141.7352740 101.9142140  43.3770860 140.8857280
 102.8057200  44.1398240 141.8424560  97.7608460  43.7007400 140.6946950
  97.4208510  44.1782630 141.4514000  96.9985780  43.2472520 140.3348050
 101.9726230  44.8192990 134.7259500 102.0939050  44.7779470 135.6745320
 101.5874740  45.6817140 134.5706230 105.9354600  42.5960390 142.7423190
 105.9527340  43.0469040 143.5865040 105.6870180  41.6966030 142.9556630
 100.9847730  47.1294130 134.1242800 100.4164630  46.6812380 133.4978710
 101.6936730  47.4886910 133.5907950 109.3625350  40.0092570 148.5809570
 109.6871120  39.2782230 149.1067550 109.3981860  39.6906210 147.6790560
  96.0616910  51.0306150 148.0009530  95.6771700  50.3899820 148.5992490
  96.3729100  51.7342270 148.5704260 102.2114050  47.8782690 143.4818150
 102.5784180  47.4041260 144.2279490 102.0219110  48.7524260 143.8226490
  95.0754540  42.6226380 139.6111620  94.7901460  42.2582050 140.4490240
  95.0133400  41.8906840 138.9974760 100.0013420  46.9191330 145.8002360
  99.6970490  47.7983310 146.0252720 100.9559880  46.9791120 145.8359800
  98.5295210  51.1252320 136.3969210  97.7557470  50.5849940 136.2367930
  99.2589840  50.6058930 136.0586970 109.2883190  50.1217680 142.1895600
 110.0082310  50.6172970 141.7991710 109.0865010  49.4435570 141.5449470
 104.7493130  41.5155640 136.3324990 103.9357740  41.0168810 136.2570300
 104.5555080  42.3553890 135.9161340 104.6701990  50.1926740 148.0764600
 104.6039300  49.2722410 147.8222190 104.0407130  50.2902180 148.7909240
 107.4641520  45.8875290 134.6287150 108.3521140  46.1992520 134.4538490
 107.4346610  45.0147540 134.2367730  98.5732610  50.7932700 140.0348020
  99.0911280  49.9900960 139.9804910  98.1216630  50.7311840 140.8764850
 103.4602110  52.0598980 135.3075320 103.8017810  52.8041210 134.8118640
 102.6314820  52.3730100 135.6700150  96.0577150  47.7594070 146.9473720
  95.6992090  48.4247920 147.5347060  95.7631710  46.9277620 147.3186340
  99.2590270  48.2178310 149.8313270  98.9590410  48.3635490 148.9341090
 100.0301510  47.6583600 149.7386660 104.6018720  53.0147310 147.8268400
 104.6163260  52.0828270 147.6087310 103.8943820  53.1007070 148.4658170
 109.7355790  47.1987130 134.0967010 109.6519510  47.6301350 133.2463450
 110.4549980  47.6585480 134.5293830 110.8129930  49.6554650 147.1736980
 110.0878120  50.2483430 146.9766370 111.3405390  49.6478190 146.3750350
 110.7643040  54.0529390 136.8249140 110.1219200  53.3985010 137.0992860
 110.3773700  54.4584480 136.0489810 106.3429520  51.3814820 140.6720830
 106.6953340  50.7842950 140.0122200 105.4591850  51.0559050 140.8429080
 102.4292800  52.1412510 138.0791240 103.1163930  52.6881720 138.4598830
 101.6425220  52.6853240 138.1140850  94.5685200  47.7585330 133.5708320
  95.4380050  48.0410130 133.8544240  94.0775520  48.5721200 133.4557130
 101.7320010  49.1458540 137.6916600 102.1882790  49.9563790 137.9176790
 101.3808220  48.8281680 138.5235090 104.0352620  54.6564880 144.9208900
 104.6794840  54.8624260 145.5982320 104.3982060  53.8953280 144.4679750
  97.6331790  39.4896190 138.1639120  97.5046420  39.4814090 139.1124040
  96.8093810  39.8279280 137.8130130 105.3084700  52.6597230 143.6386350
 105.9506930  51.9590390 143.7518520 105.8334050  53.4395670 143.4583240
 109.1540420  52.9445850 133.3625490 108.9278000  52.2276290 133.9550130
 108.7636620  52.6958290 132.5247240 107.0822320  53.4592130 146.8422410
 107.4178560  54.0458820 147.5200330 106.1622660  53.3284840 147.0720200
  94.9356450  56.9712710 134.1369950  95.2954090  57.5702050 133.4827220
  94.7948790  57.5172600 134.9104980  94.6325720  41.2487310 147.6245820
  93.9184240  41.4484230 148.2298430  95.0520760  40.4726880 147.9960620
 108.7356670  50.8617790 135.0239650 108.4478370  51.3230480 135.8117530
 109.5308840  50.4015560 135.2923870  94.9198310  55.2367570 148.6112350
  95.0289430  54.2962310 148.4707740  94.2678870  55.5022320 147.9626080
 100.9525070  54.3543910 134.9543620 100.9435170  55.0873600 134.3388130
 100.0323430  54.1075490 135.0470580  96.5531710  49.5758800 135.6990380
  95.9459660  50.3157700 135.7085680  97.0281060  49.6658160 134.8728580
 106.1264500  43.7409620 145.3747270 106.4945320  42.9204830 145.7026840
 105.2662700  43.8011510 145.7902920 109.4926530  42.6966560 136.1834830
 108.8639690  42.8012230 135.4693060 108.9978450  42.9163340 136.9728710
 103.9384670  54.4172150 133.6168810 104.0396650  54.2136140 132.6870790
 103.0386410  54.1630430 133.8216590 101.4610560  44.9752510 137.5992710
 100.7526710  45.4438850 138.0406320 101.7455040  44.3174520 138.2337900
 103.0866490  46.3949210 145.5985240 103.5851740  46.8695030 146.2637090
 103.2289440  45.4712730 145.8055270 105.4925990  41.7003170 139.0388500
 105.3693770  41.7189300 138.0898010 106.4410550  41.7482110 139.1586900
 102.5802780  56.9358470 138.3116480 102.8344280  56.8979860 137.3895850
 101.6315260  56.8091800 138.3044730  99.6645580  43.2837590 134.9743420
 100.5136110  43.7207740 134.9083610  99.2976850  43.5957850 135.8015480
 110.2933350  42.6117170 146.4413630 109.7906950  43.3522570 146.7807440
 111.1090010  43.0001170 146.1250420 108.5855360  47.8550350 139.8874990
 107.6445500  47.8700580 140.0622680 108.8999430  47.0686310 140.3335290
  98.5637000  49.5369950 133.4478950  99.3300270  49.4251310 134.0104380
  98.6411690  48.8407920 132.7955720  97.2583760  46.9695020 134.1311840
  97.3387350  46.0222530 134.2429240  98.1503510  47.3001900 134.2372500
 110.5880940  55.0259200 141.5629250 110.7128360  55.8490370 142.0353060
 111.4546500  54.8149930 141.2153400  98.0598470  57.1190410 141.2346380
  98.7960950  56.5705870 141.5054950  98.4439390  57.9846420 141.0952370
  94.9443950  53.1863980 137.1087890  94.0183730  53.4285120 137.0993300
  95.4100380  54.0138240 136.9872640 101.1700780  56.2920720 133.0571950
 101.9629390  56.5809550 132.6053740 100.6505130  55.8612890 132.3784430
 107.3321750  56.1396640 148.9816780 108.2843500  56.0554660 148.9317020
 107.1849970  56.8038350 149.6550570 110.2230950  55.5190850 134.4808690
 109.9372460  55.1055990 133.6662870 110.0250500  56.4478560 134.3609210
  94.7854560  48.7909940 149.3668010  95.2893580  48.2117220 149.9384240
  94.0461980  49.0750170 149.9044380 101.6878180  51.5124130 132.9214300
 101.5828820  50.8976480 133.6475680 101.5202400  50.9890020 132.1377310
 101.8392500  50.1980930 148.9003530 101.0738170  50.7665930 148.8158200
 102.0208460  49.9057140 148.0071760 104.9280910  50.5744160 133.5256290
 104.3791010  51.0213460 134.1699030 105.5500170  50.0693410 134.0493960
 108.9815850  51.9286260 149.4578550 109.7225320  52.2662020 148.9546010
 108.2188530  52.0978320 148.9048320 100.5956030  49.5335080 135.4221590
 101.0172450  49.3674950 136.2652980 100.7206870  48.7235310 134.9276730
  98.7583450  45.5131630 148.2292570  98.2279910  45.0222580 147.6015910
  99.4271520  45.9415830 147.6950500 103.1083670  48.5572690 132.6698690
 103.6289330  47.8421710 132.3039840 103.7552070  49.1958560 132.9699200
 107.6561510  49.9801090 147.9933760 108.0702530  50.1346170 148.8424180
 106.7212510  50.1056310 148.1559540 108.1283680  47.3197250 149.9972910
 108.7104450  46.5649570 149.9093390 108.3045450  47.8504690 149.2204390
  99.2455750  42.4794000 148.3089860  99.1512620  41.8614750 147.5840730
  98.6653140  43.2060290 148.0819770 102.0117190  41.0367240 145.3417250
 101.5634490  41.0591500 144.4962800 101.3782390  40.6386260 145.9387550
 102.4176740  49.9321570 145.9629690 102.8364850  50.7754300 145.7905930
 101.4985370  50.0693610 145.7336470 104.7540640  47.6637750 147.3467530
 104.8736850  47.0678890 148.0862370 105.6134640  47.7007440 146.9268830
 107.0928540  48.2174940 145.9230040 106.5663760  48.7417560 145.3195180
 107.4359880  48.8502330 146.5539770  99.4914930  45.6068310 132.3679750
  99.2903990  44.7435670 132.7293090  99.3206980  45.5201670 131.4301350
 100.2684160  56.2374580 147.0787420  99.7305250  56.9620640 146.7596120
 100.5218120  55.7604920 146.2884760 101.5209410  44.2059100 148.6043350
 102.1109100  43.8974950 149.2921170 100.7029650  43.7338850 148.7603250
 106.3402840  43.8224910 148.8376370 105.6518360  43.1606450 148.7726360
 107.0608860  43.3763180 149.2824830 106.9703240  40.4176540 134.8966630
 107.2505530  39.5744440 135.2526050 106.1968970  40.6499650 135.4105380
  98.2897730  42.7068930 132.3557630  98.5923630  42.7136360 131.4476780
  99.0292320  42.3566790 132.8525290 103.1246370  57.4725790 147.3374070
 103.0505070  58.3760930 147.6446440 102.2225210  57.1537690 147.3096140
 101.5082660  41.6503550 133.3413830 101.1604660  40.9727540 132.7616280
 101.7095430  41.1893060 134.1557220 103.6731700  56.6384300 134.9600430
 104.5682490  56.9769270 134.9819190 103.7049330  55.9163710 134.3324710
  97.3127860  52.0111350 133.1887430  97.7502730  52.5541020 133.8445010
  97.7975590  51.1858300 133.1983770  94.5273660  54.8000380 140.6407690
  94.8576670  53.9321440 140.4086330  94.9564660  55.0058900 141.4712650
  99.1235580  53.1309390 138.3009660  98.8231120  53.0074360 139.2013570
  99.0173070  52.2717980 137.8925390  95.0163870  55.6670970 143.3789320
  94.5794860  55.8471770 144.2113470  95.5841550  56.4245590 143.2371040
 110.6526050  55.1687970 147.6666630 110.0528040  55.2280530 146.9230550
 110.7819950  54.2292950 147.7963480 111.8927500  52.9105790 133.0036340
 111.0620460  52.9782440 133.4743570 112.0699330  53.8009910 132.7003200
 111.3483960  49.6553270 135.5070540 112.1102870  50.2249920 135.6130230
 111.3638330  49.0880470 136.2778850  94.8488300  48.1791200 139.7378200
  94.1937140  47.9102840 139.0937900  95.6866250  48.0695680 139.2880180
 112.3543930  50.5103370 140.3512470 112.7252760  49.7270690 139.9448440
 112.9945860  51.1992470 140.1729770 109.3377690  51.8939950 145.7642790
 108.5237530  52.3237110 146.0268580 109.7451890  52.5058360 145.1511840
 111.4003130  49.9487640 132.6643060 111.6751970  50.8566520 132.5362280
 111.2113870  49.8850170 133.6005050 107.7978740  42.9732490 133.9596690
 108.2163620  42.7863470 133.1193350 107.4914800  42.1211540 134.2699620
 111.2968470  47.8856630 137.6572490 110.9212070  47.1184560 137.2253780
 110.5671590  48.2679330 138.1447420  95.8864230  48.5643770 144.2781540
  96.2537270  48.4771170 145.1577560  95.3175050  47.8010320 144.1788400
 110.6868090  47.0328150 147.2912010 110.4554180  46.8040900 146.3909960
 110.9472640  47.9527700 147.2456900  95.4380230  45.4752860 148.1839960
  94.5436280  45.4419620 148.5233670  95.9777780  45.6739650 148.9491210
  94.0626380  45.3890130 135.6803530  93.1590460  45.6520330 135.5055190
  94.5467000  45.6601300 134.9003490 110.5719430  46.1114120 140.9579730
 111.0956910  45.6176770 140.3269900 111.1578850  46.2464480 141.7027300
 110.7509150  46.1953990 144.4799280 109.8011860  46.1617530 144.5944270
 110.9322160  47.1054100 144.2449050  96.6053590  44.4455670 133.5897910
  97.3145290  44.0238890 133.1045190  95.8893530  44.5130900 132.9581260
  96.2527750  40.4995000 132.6300560  96.9755880  41.0403940 132.9481780
  96.5252270  40.2258420 131.7542100 110.0619400  45.3687470 136.8972140
 110.5578520  45.1358340 137.6821020 109.8635470  44.5299310 136.4809780
  95.9419940  39.7501190 142.5323180  96.5896130  39.1998570 142.0918340
  96.3621780  40.0044340 143.3538990 111.4906560  44.0048420 139.4309820
 111.3805840  43.8504460 140.3692090 112.2514150  43.4769360 139.1885230
 109.8372280  39.9442550 145.8892820 110.4744500  40.5576690 146.2552010
 109.9847170  39.9803210 144.9442050 112.3796830  41.8356340 132.6715960
 113.3046140  41.7037520 132.4634250 112.3572620  41.9149160 133.6252410
 112.4535320  42.6067000 135.2972670 111.6586820  42.5412120 135.8265580
 112.6578600  43.5417640 135.2858020 109.3953740  56.6458550 139.2911060
 109.9912810  56.3243120 138.6145480 109.6531890  56.1730370 140.0824330
  95.6951940  39.9056860 145.2748500  95.3466760  40.3620680 146.0406680
  95.3639640  39.0113990 145.3570930 101.0022340  54.6336050 145.0411410
 100.7613700  54.9010610 144.1541930 101.9424980  54.8041780 145.0962270
 103.2076760  41.0968740 148.7967920 103.1465650  41.6890570 149.5463330
 104.1477140  40.9894700 148.6518180 105.8451320  40.7538800 148.4360210
 106.4591730  41.0718090 147.7741290 106.3900880  40.2687390 149.0556070
 112.2626500  56.6530430 145.8422050 111.7684780  57.0499300 145.1249180
 111.6539790  56.0279640 146.2359330  96.3672580  39.4333060 148.5499270
  96.9155570  39.2521110 147.7865380  96.4327890  38.6427170 149.0855580
  97.1404340  56.0238710 146.5599470  96.5464660  55.8923410 147.2989510
  97.1328180  55.1876850 146.0941570 106.5859360  39.3170940 144.7629500
 105.7119200  39.6506050 144.5602430 106.4770110  38.8444120 145.5881370
 107.4931340  41.5241810 146.1471220 107.1644700  40.7093570 145.7672950
 108.4413640  41.4811620 146.0236910 109.9465950  57.2953850 143.1208790
 109.4868920  58.0469660 142.7466810 109.3178410  56.5760320 143.0623590
  96.7716570  53.3897090 145.5107510  96.0450630  52.7702380 145.4433460
  96.8325720  53.7837700 144.6405590 100.3761670  55.6042090 142.2956920
 100.8926690  54.9929450 141.7705180 101.0259050  56.1070870 142.7867930
 103.1157170  56.4950580 143.1225900 103.4034980  56.2404880 142.2458910
 103.6280390  55.9427940 143.7131470 104.3334180  40.2340780 143.7022410
 103.5505970  40.7086280 143.9819170 104.0397110  39.3295610 143.5935590
 108.8855250  40.9363880 141.7471500 109.3263340  40.8808980 140.8993100
 108.6162840  41.8521890 141.8181680 110.7493820  40.5679120 139.7580320
 110.6882220  39.6240340 139.6111340 111.5285850  40.6759210 140.3033780
  95.0546570  56.7071480 138.7204270  94.8868610  56.0742160 139.4186160
  94.1881080  56.9130880 138.3698460  95.6774590  40.5388260 136.2236130
  96.4353950  40.6517140 135.6500160  95.2151760  41.3757460 136.1779560
 102.2188400  42.6527530 139.2138440 101.4062910  42.2784420 138.8734320
 102.7230040  41.8972610 139.5159630 106.7213380  39.3169980 140.4521510
 107.3242750  39.8890190 140.9270030 105.9806370  39.8809420 140.2295410
 109.8647980  39.7191540 135.7261790 110.0598610  40.6174990 135.9929220
 109.0777850  39.4878620 136.2194740  96.6609270  55.4004710 136.1654410
  96.1356890  55.7812740 135.4616370  96.5853850  56.0255480 136.8864120
  98.0499740  41.0652310 134.7638100  98.5792500  40.2782110 134.6346050
  98.6828060  41.7443500 134.9973630 100.2437580  40.8027450 137.8183490
  99.6140320  40.1014760 137.9853620  99.7042720  41.5631580 137.6016650
 111.4174590  56.9592250 137.4868350 111.5926780  56.2729990 136.8429270
 110.7196160  57.4839300 137.0945020  99.2602240  57.3487090 135.0403660
  99.9921060  57.0646370 134.4927550  99.5195910  57.1100370 135.9303040
  98.4217030  53.4651820 135.0449990  97.7925910  53.9336920 135.5935820
  98.5364860  52.6201040 135.4796180 105.8766750  47.5157480 121.1951190
 105.7960800  46.6012090 120.9242900 105.4631170  48.0124550 120.4890900
 104.0084790  49.2936500 123.0760460 103.2326890  48.8136940 123.3659030
 104.6597720  48.6142150 122.9016620 108.0292220  53.6996690 121.8559590
 107.5673750  52.9283930 122.1846760 108.8417770  53.7262760 122.3612040
  96.4342570  44.5658200 117.7378610  95.5459270  44.9074170 117.6358490
  96.7183760  44.3658520 116.8459440 104.2555530  55.9854700 121.4763580
 103.6366970  56.4412200 120.9058020 105.1107310  56.1406160 121.0753280
  95.6400450  42.5748210 125.4087240  95.4603290  41.6773960 125.6890000
  95.2380530  43.1220080 126.0834190 104.4798950  44.7764070 123.3099550
 104.8563770  43.9035950 123.1973220 104.3818460  45.1122770 122.4189990
  98.6103960  43.1489700 118.7716990  98.7170710  44.0493430 119.0785750
  97.6996320  43.1007670 118.4811640 108.2623070  42.2714510 120.2427890
 109.0832690  41.7811080 120.2853370 108.2957150  42.8612170 120.9959730
  96.2587120  45.0708710 124.0169580  96.9397230  45.3347080 124.6356980
  95.9435170  44.2309580 124.3507590 100.4511690  46.1176070 123.1042170
 100.9589910  46.6157040 123.7447190 100.9824930  45.3411270 122.9281530
 112.5522620  44.2881260 126.8071520 111.8474790  44.6762970 126.2886630
 112.8180540  44.9831550 127.4092450  98.7347790  40.7574630 127.3705590
  98.7366230  41.2747020 126.5651490  97.9052100  40.2804810 127.3475520
 105.1218880  50.8693940 118.8695490 104.5036150  51.3343390 118.3058210
 105.6342130  51.5621420 119.2865000 108.4984550  44.2114890 123.0155430
 107.7940120  44.4999780 123.5958540 108.8596710  45.0215000 122.6554990
  98.4163120  42.4684590 125.3776040  98.7579930  43.3126640 125.0829910
  97.4778930  42.6168330 125.4941380  94.4902080  51.5550470 116.2435120
  94.1130060  52.0437570 115.5120020  94.7475150  52.2275750 116.8741650
 110.1147330  53.8290020 125.2782910 109.4310850  54.4989130 125.2699580
 110.6541620  54.0270670 124.5127770 111.5671470  43.6569680 123.4064640
 110.6196380  43.6908660 123.5380070 111.8921460  44.4708630 123.7914000
 102.0991010  39.9566860 121.7020630 102.4065990  39.4013750 120.9856130
 101.1691710  40.0911320 121.5193620 107.6506070  55.6734150 123.9928090
 107.6633230  55.2696440 123.1250350 107.0981290  56.4481440 123.8889520
 108.9451490  52.3950370 119.0818260 108.8347820  51.4524700 119.2067680
 108.9419740  52.7566010 119.9681020 107.0491510  50.5763990 125.3210700
 107.4660300  50.3624100 124.4864160 107.7731330  50.8336780 125.8919320
 104.4871770  48.0215690 118.4380750 103.5601050  47.9553070 118.6669220
 104.6396590  48.9595820 118.3235990 104.4740850  44.2932690 115.4347910
 103.5344520  44.4546650 115.5200370 104.7924110  45.0118370 114.8883900
 110.9953610  48.9751210 125.4126940 110.1672240  49.0444300 124.9377070
 111.5904090  49.5605520 124.9442770 108.5169060  49.5835990 118.9416000
 107.8981480  49.2455540 118.2942300 108.4993510  48.9395750 119.6495190
 107.9595620  45.7620530 126.3581810 107.5466800  46.5874240 126.6121800
 107.2271570  45.1765570 126.1658170 100.0928410  48.5480430 121.2200480
  99.6885410  47.8357680 120.7246380 100.1791530  48.2033670 122.1088520
  98.8057030  45.3223640 124.9999520  99.3571620  45.4318980 124.2252770
  99.3200540  45.6961240 125.7154750 108.6495720  55.8079860 127.0462790
 108.1726280  56.6152050 126.8535400 107.9657510  55.1558190 127.1989000
  99.6528540  51.9729680 130.0347490  98.7557070  52.1969650 130.2820890
  99.6781410  52.0964620 129.0858890  98.4799760  48.8443000 128.6104860
  98.3407530  49.7165800 128.9792260  97.5981120  48.5015810 128.4652800
 104.8029140  53.7618870 119.9169990 105.2425050  54.5043200 119.5025380
 104.7416030  54.0045440 120.8408950 100.2780110  54.7864700 130.8190010
 100.2495540  55.1907650 129.9518440 100.1145080  53.8575060 130.6561610
 110.2750900  40.0765610 114.2629790 109.9623560  40.1692440 115.1628860
 111.0363370  40.6546640 114.2127220  96.7933040  47.4425410 118.7207130
  96.6730640  48.1687500 118.1088400  96.4833930  46.6728320 118.2435040
 112.2294930  55.5691800 132.1154180 112.7054650  56.0474690 132.7943260
 112.8502090  55.5009290 131.3899680  95.6766040  52.3140740 120.9381950
  95.2694120  52.4555330 120.0835550  96.5679050  52.0300900 120.7353160
 111.6328180  52.7604650 129.2754190 111.7591240  52.5216530 128.3571370
 111.6749560  51.9289190 129.7476270 105.4944920  56.4632650 127.8449000
 106.0089590  56.3740660 128.6471430 104.6514000  56.8092350 128.1376910
 107.4699320  56.7487990 117.2733000 107.3100460  56.4590930 118.1714830
 107.3046030  55.9728120 116.7378230  99.9487700  56.5286520 119.0504620
  99.7730180  55.6122060 118.8372420  99.0943440  56.8873810 119.2902420
 107.1725450  54.2575550 115.8331000 106.4790610  54.2552840 115.1733280
 107.9148310  53.8334870 115.4025170 111.4852190  44.8137110 130.2403930
 110.8696460  45.3216780 129.7119390 111.1648610  43.9135440 130.1829870
  99.2596700  40.7860480 122.1030800  98.8164850  41.5670020 121.7715320
  99.8181690  41.1090370 122.8101740 103.5466510  43.6529000 127.7066120
 103.0845880  43.8612020 128.5186060 103.1444620  42.8388350 127.4036790
 108.5471020  44.8737950 128.8362780 107.6964610  44.5743700 129.1571850
 108.3872810  45.1179960 127.9246600 105.6420730  46.3739700 130.9361570
 105.9674140  45.5403450 130.5963800 106.4301060  46.8968220 131.0839900
 101.2972600  41.3307810 123.9620400 101.5944930  42.2370640 123.8812420
 101.8458160  40.8426590 123.3479970  99.0510920  45.9094050 119.8312050
  98.8251840  45.6931220 120.7358670  98.2703450  46.3422510 119.4858020
 106.2808680  45.9157420 118.4302700 105.6817570  46.6393220 118.2466320
 106.8288290  45.8534200 117.6479150 101.4910130  46.8079630 130.4972320
 101.3953730  45.8674360 130.3472720 102.3342110  47.0294700 130.1020390
 104.8873550  44.5520960 120.4605980 105.2803120  44.8693160 119.6474670
 105.2490400  43.6732840 120.5750500  96.6220670  43.2193300 128.6506100
  96.2284060  44.0668510 128.8578880  95.9339070  42.5819670 128.8414740
 103.1965720  43.3028270 131.7202840 102.5064040  43.1100470 132.3548930
 103.9398020  43.5862910 132.2527140  93.9237720  41.1421760 122.6836180
  93.6350770  41.7124620 123.3961160  94.6683480  40.6626210 123.0467410
 105.4728690  47.1426710 124.5556760 104.7409810  47.6513520 124.9046860
 105.0753030  46.3256690 124.2545540 101.9106080  43.8180910 122.9609250
 101.9142140  43.3770860 122.1113790 102.8057200  44.1398240 123.0681070
  97.7608460  43.7007400 121.9203460  97.4208510  44.1782630 122.6770510
  96.9985780  43.2472520 121.5604560 101.9726230  44.8192990 115.9516010
 102.0939050  44.7779470 116.9001830 101.5874740  45.6817140 115.7962740
 105.9354600  42.5960390 123.9679700 105.9527340  43.0469040 124.8121550
 105.6870180  41.6966030 124.1813140 100.9847730  47.1294130 115.3499310
 100.4164630  46.6812380 114.7235220 101.6936730  47.4886910 114.8164460
 109.3625350  40.0092570 129.8066080 109.6871120  39.2782230 130.3324060
 109.3981860  39.6906210 128.9047070  96.0616910  51.0306150 129.2266040
  95.6771700  50.3899820 129.8249000  96.3729100  51.7342270 129.7960770
 102.2114050  47.8782690 124.7074660 102.5784180  47.4041260 125.4536000
 102.0219110  48.7524260 125.0483000  95.0754540  42.6226380 120.8368130
  94.7901460  42.2582050 121.6746750  95.0133400  41.8906840 120.2231270
 100.0013420  46.9191330 127.0258870  99.6970490  47.7983310 127.2509230
 100.9559880  46.9791120 127.0616310  98.5295210  51.1252320 117.6225720
  97.7557470  50.5849940 117.4624440  99.2589840  50.6058930 117.2843480
 109.2883190  50.1217680 123.4152110 110.0082310  50.6172970 123.0248220
 109.0865010  49.4435570 122.7705980 104.7493130  41.5155640 117.5581500
 103.9357740  41.0168810 117.4826810 104.5555080  42.3553890 117.1417850
 104.6701990  50.1926740 129.3021110 104.6039300  49.2722410 129.0478700
 104.0407130  50.2902180 130.0165750 107.4641520  45.8875290 115.8543660
 108.3521140  46.1992520 115.6795000 107.4346610  45.0147540 115.4624240
  98.5732610  50.7932700 121.2604530  99.0911280  49.9900960 121.2061420
  98.1216630  50.7311840 122.1021360 103.4602110  52.0598980 116.5331830
 103.8017810  52.8041210 116.0375150 102.6314820  52.3730100 116.8956660
  99.2590270  48.2178310 131.0569780  98.9590410  48.3635490 130.1597600
 100.0301510  47.6583600 130.9643170 104.6018720  53.0147310 129.0524910
 104.6163260  52.0828270 128.8343820 103.8943820  53.1007070 129.6914680
 110.8129930  49.6554650 128.3993490 110.0878120  50.2483430 128.2022880
 111.3405390  49.6478190 127.6006860 110.7643040  54.0529390 118.0505650
 110.1219200  53.3985010 118.3249370 110.3773700  54.4584480 117.2746320
 106.3429520  51.3814820 121.8977340 106.6953340  50.7842950 121.2378710
 105.4591850  51.0559050 122.0685590 102.4292800  52.1412510 119.3047750
 103.1163930  52.6881720 119.6855340 101.6425220  52.6853240 119.3397360
 101.7320010  49.1458540 118.9173110 102.1882790  49.9563790 119.1433300
 101.3808220  48.8281680 119.7491600  97.6331790  39.4896190 119.3895630
  97.5046420  39.4814090 120.3380550  96.8093810  39.8279280 119.0386640
 105.3084700  52.6597230 124.8642860 105.9506930  51.9590390 124.9775030
 105.8334050  53.4395670 124.6839750 107.0822320  53.4592130 128.0678920
 107.4178560  54.0458820 128.7456840 106.1622660  53.3284840 128.2976710
  94.6325720  41.2487310 128.8502330  93.9184240  41.4484230 129.4554940
  95.0520760  40.4726880 129.2217130 102.9110900  53.5083460 131.2366980
 102.5907770  52.7892700 131.7812670 102.2369260  54.1838530 131.3103040
 100.9525070  54.3543910 116.1800130 100.9435170  55.0873600 115.5644640
 100.0323430  54.1075490 116.2727090  96.5531710  49.5758800 116.9246890
  95.9459660  50.3157700 116.9342190  97.0281060  49.6658160 116.0985090
 106.1264500  43.7409620 126.6003780 106.4945320  42.9204830 126.9283350
 105.2662700  43.8011510 127.0159430 109.4926530  42.6966560 117.4091340
 108.8639690  42.8012230 116.6949570 108.9978450  42.9163340 118.1985220
 103.9384670  54.4172150 114.8425320 104.0396650  54.2136140 113.9127300
 103.0386410  54.1630430 115.0473100 101.4610560  44.9752510 118.8249220
 100.7526710  45.4438850 119.2662830 101.7455040  44.3174520 119.4594410
 103.0866490  46.3949210 126.8241750 103.5851740  46.8695030 127.4893600
 103.2289440  45.4712730 127.0311780 105.4925990  41.7003170 120.2645010
 105.3693770  41.7189300 119.3154520 106.4410550  41.7482110 120.3843410
 102.5802780  56.9358470 119.5372990 102.8344280  56.8979860 118.6152360
 101.6315260  56.8091800 119.5301240  99.6645580  43.2837590 116.1999930
 100.5136110  43.7207740 116.1340120  99.2976850  43.5957850 117.0271990
 110.2933350  42.6117170 127.6670140 109.7906950  43.3522570 128.0063950
 111.1090010  43.0001170 127.3506930 108.5855360  47.8550350 121.1131500
 107.6445500  47.8700580 121.2879190 108.8999430  47.0686310 121.5591800
  98.5637000  49.5369950 114.6735460  99.3300270  49.4251310 115.2360890
  98.6411690  48.8407920 114.0212230 110.5880940  55.0259200 122.7885760
 110.7128360  55.8490370 123.2609570 111.4546500  54.8149930 122.4409910
  94.9443950  53.1863980 118.3344400  94.0183730  53.4285120 118.3249810
  95.4100380  54.0138240 118.2129150 101.1700780  56.2920720 114.2828460
 101.9629390  56.5809550 113.8310250 100.6505130  55.8612890 113.6040940
 105.9021380  52.4116350 131.5963880 105.2959540  52.4347950 130.8559630
 105.5975490  51.6799390 132.1331130 107.3321750  56.1396640 130.2073290
 108.2843500  56.0554660 130.1573530 107.1849970  56.8038350 130.8807080
 110.2230950  55.5190850 115.7065200 109.9372460  55.1055990 114.8919380
 110.0250500  56.4478560 115.5865720  94.7854560  48.7909940 130.5924520
  95.2893580  48.2117220 131.1640750  94.0461980  49.0750170 131.1300890
 101.6878180  51.5124130 114.1470810 101.5828820  50.8976480 114.8732190
 101.5202400  50.9890020 113.3633820 101.8392500  50.1980930 130.1260040
 101.0738170  50.7665930 130.0414710 102.0208460  49.9057140 129.2328270
 108.9815850  51.9286260 130.6835060 109.7225320  52.2662020 130.1802520
 108.2188530  52.0978320 130.1304830  96.8177640  46.9339530 131.4874590
  96.8582980  46.6353400 132.3959820  97.6723140  47.3347140 131.3282110
 100.5956030  49.5335080 116.6478100 101.0172450  49.3674950 117.4909490
 100.7206870  48.7235310 116.1533240  98.7583450  45.5131630 129.4549080
  98.2279910  45.0222580 128.8272420  99.4271520  45.9415830 128.9207010
 103.1083670  48.5572690 113.8955200 103.6289330  47.8421710 113.5296350
 103.7552070  49.1958560 114.1955710 107.6561510  49.9801090 129.2190270
 108.0702530  50.1346170 130.0680690 106.7212510  50.1056310 129.3816050
 108.1283680  47.3197250 131.2229420 108.7104450  46.5649570 131.1349900
 108.3045450  47.8504690 130.4460900  99.2455750  42.4794000 129.5346370
  99.1512620  41.8614750 128.8097240  98.6653140  43.2060290 129.3076280
 102.0117190  41.0367240 126.5673760 101.5634490  41.0591500 125.7219310
 101.3782390  40.6386260 127.1644060 102.4176740  49.9321570 127.1886200
 102.8364850  50.7754300 127.0162440 101.4985370  50.0693610 126.9592980
 104.7540640  47.6637750 128.5724040 104.8736850  47.0678890 129.3118880
 105.6134640  47.7007440 128.1525340 107.0928540  48.2174940 127.1486550
 106.5663760  48.7417560 126.5451690 107.4359880  48.8502330 127.7796280
  99.4914930  45.6068310 113.5936260  99.2903990  44.7435670 113.9549600
  99.3206980  45.5201670 112.6557860 101.5209410  44.2059100 129.8299860
 102.1109100  43.8974950 130.5177680 100.7029650  43.7338850 129.9859760
 106.3402840  43.8224910 130.0632880 105.6518360  43.1606450 129.9982870
 107.0608860  43.3763180 130.5081340 106.9703240  40.4176540 116.1223140
 107.2505530  39.5744440 116.4782560 106.1968970  40.6499650 116.6361890
  98.2897730  42.7068930 113.5814140  98.5923630  42.7136360 112.6733290
  99.0292320  42.3566790 114.0781800 103.6731700  56.6384300 116.1856940
 104.5682490  56.9769270 116.2075700 103.7049330  55.9163710 115.5581220
  97.3127860  52.0111350 114.4143940  97.7502730  52.5541020 115.0701520
  97.7975590  51.1858300 114.4240280  99.1235580  53.1309390 119.5266170
  98.8231120  53.0074360 120.4270080  99.0173070  52.2717980 119.1181900
 110.6526050  55.1687970 128.8923140 110.0528040  55.2280530 128.1487060
 110.7819950  54.2292950 129.0219990  94.8488300  48.1791200 120.9634710
  94.1937140  47.9102840 120.3194410  95.6866250  48.0695680 120.5136690
 112.3543930  50.5103370 121.5768980 112.7252760  49.7270690 121.1704950
 112.9945860  51.1992470 121.3986280 109.3377690  51.8939950 126.9899300
 108.5237530  52.3237110 127.2525090 109.7451890  52.5058360 126.3768350
 107.7978740  42.9732490 115.1853200 108.2163620  42.7863470 114.3449860
 107.4914800  42.1211540 115.4956130 111.2968470  47.8856630 118.8829000
 110.9212070  47.1184560 118.4510290 110.5671590  48.2679330 119.3703930
 110.6868090  47.0328150 128.5168520 110.4554180  46.8040900 127.6166470
 110.9472640  47.9527700 128.4713410  95.4380230  45.4752860 129.4096470
  94.5436280  45.4419620 129.7490180  95.9777780  45.6739650 130.1747720
 109.1256160  42.2584580 131.2948220 110.0026340  42.2667980 131.6782220
 109.1377000  41.5215420 130.6840570 110.5719430  46.1114120 122.1836240
 111.0956910  45.6176770 121.5526410 111.1578850  46.2464480 122.9283810
 110.7509150  46.1953990 125.7055790 109.8011860  46.1617530 125.8200780
 110.9322160  47.1054100 125.4705560 110.0619400  45.3687470 118.1228650
 110.5578520  45.1358340 118.9077530 109.8635470  44.5299310 117.7066290
  95.9419940  39.7501190 123.7579690  96.5896130  39.1998570 123.3174850
  96.3621780  40.0044340 124.5795500 111.4906560  44.0048420 120.6566330
 111.3805840  43.8504460 121.5948600 112.2514150  43.4769360 120.4141740
 109.8372280  39.9442550 127.1149330 110.4744500  40.5576690 127.4808520
 109.9847170  39.9803210 126.1698560 112.3796830  41.8356340 113.8972470
 113.3046140  41.7037520 113.6890760 112.3572620  41.9149160 114.8508920
 112.4535320  42.6067000 116.5229180 111.6586820  42.5412120 117.0522090
 112.6578600  43.5417640 116.5114530  95.6951940  39.9056860 126.5005010
  95.3466760  40.3620680 127.2663190  95.3639640  39.0113990 126.5827440
  97.3016310  53.0776460 130.6658200  97.2585940  52.7069370 131.5472660
  97.4327320  54.0154030 130.8060020 103.2076760  41.0968740 130.0224430
 103.1465650  41.6890570 130.7719840 104.1477140  40.9894700 129.8774690
 105.8451320  40.7538800 129.6616720 106.4591730  41.0718090 128.9997800
 106.3900880  40.2687390 130.2812580 112.2626500  56.6530430 127.0678560
 111.7684780  57.0499300 126.3505690 111.6539790  56.0279640 127.4615840
  96.3672580  39.4333060 129.7755780  96.9155570  39.2521110 129.0121890
  96.4327890  38.6427170 130.3112090 106.5859360  39.3170940 125.9886010
 105.7119200  39.6506050 125.7858940 106.4770110  38.8444120 126.8137880
 107.4931340  41.5241810 127.3727730 107.1644700  40.7093570 126.9929460
 108.4413640  41.4811620 127.2493420 109.9465950  57.2953850 124.3465300
 109.4868920  58.0469660 123.9723320 109.3178410  56.5760320 124.2880100
 104.3334180  40.2340780 124.9278920 103.5505970  40.7086280 125.2075680
 104.0397110  39.3295610 124.8192100 108.8855250  40.9363880 122.9728010
 109.3263340  40.8808980 122.1249610 108.6162840  41.8521890 123.0438190
 110.7493820  40.5679120 120.9836830 110.6882220  39.6240340 120.8367850
 111.5285850  40.6759210 121.5290290  95.6774590  40.5388260 117.4492640
  96.4353950  40.6517140 116.8756670  95.2151760  41.3757460 117.4036070
 102.2188400  42.6527530 120.4394950 101.4062910  42.2784420 120.0990830
 102.7230040  41.8972610 120.7416140 106.7213380  39.3169980 121.6778020
 107.3242750  39.8890190 122.1526540 105.9806370  39.8809420 121.4551920
 109.8647980  39.7191540 116.9518300 110.0598610  40.6174990 117.2185730
 109.0777850  39.4878620 117.4451250  96.6609270  55.4004710 117.3910920
  96.1356890  55.7812740 116.6872880  96.5853850  56.0255480 118.1120630
 100.2437580  40.8027450 119.0440000  99.6140320  40.1014760 119.2110130
  99.7042720  41.5631580 118.8273160 103.1829530  57.4166680 131.7150610
 104.1096840  57.1810950 131.7586570 103.1679960  58.2438680 131.2336640
 111.4174590  56.9592250 118.7124860 111.5926780  56.2729990 118.0685780
 110.7196160  57.4839300 118.3201530 100.3693140  40.0811430 131.4792490
 100.0877410  40.5845030 130.7153310 100.7512840  39.2833180 131.1134620
  99.2602240  57.3487090 116.2660170  99.9921060  57.0646370 115.7184060
  99.5195910  57.1100370 117.1559550  98.4217030  53.4651820 116.2706500
  97.7925910  53.9336920 116.8192330  98.5364860  52.6201040 116.7052690
 106.9708600  39.4965010 132.0572960 106.8574050  39.8159620 132.9524480
 107.7878340  39.8977520 131.7610240 109.7507090  56.6436540 131.5391650
 110.5432410  56.1485770 131.3317610 110.0440240  57.3226680 132.1467260
  98.0051880  53.6396400 105.3750750  98.3079920  52.7494140 105.1960970
  98.7495470  54.1966620 105.1473000 104.2555530  55.9854700 102.7020090
 103.6366970  56.4412200 102.1314530 105.1107310  56.1406160 102.3009790
  95.6400450  42.5748210 106.6343750  95.4603290  41.6773960 106.9146510
  95.2380530  43.1220080 107.3090700  98.6103960  43.1489700  99.9973500
  98.7170710  44.0493430 100.3042260  97.6996320  43.1007670  99.7068150
  98.7347790  40.7574630 108.5962100  98.7366230  41.2747020 107.7908000
  97.9052100  40.2804810 108.5732030  99.1969740  52.3650610 108.5884780
  99.8143740  53.0401690 108.3069230  98.3362860  52.7738590 108.4972280
  94.4902080  51.5550470  97.4691630  94.1130060  52.0437570  96.7376530
  94.7475150  52.2275750  98.0998160 110.1147330  53.8290020 106.5039420
 109.4310850  54.4989130 106.4956090 110.6541620  54.0270670 105.7384280
 107.6506070  55.6734150 105.2184600 107.6633230  55.2696440 104.3506860
 107.0981290  56.4481440 105.1146030 107.0491510  50.5763990 106.5467210
 107.4660300  50.3624100 105.7120670 107.7731330  50.8336780 107.1175830
 110.9953610  48.9751210 106.6383450 110.1672240  49.0444300 106.1633580
 111.5904090  49.5605520 106.1699280 100.0928410  48.5480430 102.4456990
  99.6885410  47.8357680 101.9502890 100.1791530  48.2033670 103.3345030
 100.5610110  52.2347990 104.6096200 100.2638400  51.6293460 103.9303980
 101.5109930  52.2725300 104.4985560 108.6495720  55.8079860 108.2719300
 108.1726280  56.6152050 108.0791910 107.9657510  55.1558190 108.4245510
  99.6528540  51.9729680 111.2604000  98.7557070  52.1969650 111.5077400
  99.6781410  52.0964620 110.3115400 106.6933760  48.8222800  97.1745260
 107.1327040  47.9845230  97.0283080 107.4062180  49.4552200  97.2609400
  98.4799760  48.8443000 109.8361370  98.3407530  49.7165800 110.2048770
  97.5981120  48.5015810 109.6909310 100.2780110  54.7864700 112.0446520
 100.2495540  55.1907650 111.1774950 100.1145080  53.8575060 111.8818120
 110.2750900  40.0765610  95.4886300 109.9623560  40.1692440  96.3885370
 111.0363370  40.6546640  95.4383730  95.6766040  52.3140740 102.1638460
  95.2694120  52.4555330 101.3092060  96.5679050  52.0300900 101.9609670
 105.4944920  56.4632650 109.0705510 106.0089590  56.3740660 109.8727940
 104.6514000  56.8092350 109.3633420  99.9487700  56.5286520 100.2761130
  99.7730180  55.6122060 100.0628930  99.0943440  56.8873810 100.5158930
  99.2596700  40.7860480 103.3287310  98.8164850  41.5670020 102.9971830
  99.8181690  41.1090370 104.0358250 103.5466510  43.6529000 108.9322630
 103.0845880  43.8612020 109.7442570 103.1444620  42.8388350 108.6293300
 105.6420730  46.3739700 112.1618080 105.9674140  45.5403450 111.8220310
 106.4301060  46.8968220 112.3096410 101.2972600  41.3307810 105.1876910
 101.5944930  42.2370640 105.1068930 101.8458160  40.8426590 104.5736480
  99.0510920  45.9094050 101.0568560  98.8251840  45.6931220 101.9615180
  98.2703450  46.3422510 100.7114530 101.4910130  46.8079630 111.7228830
 101.3953730  45.8674360 111.5729230 102.3342110  47.0294700 111.3276900
  96.6220670  43.2193300 109.8762610  96.2284060  44.0668510 110.0835390
  95.9339070  42.5819670 110.0671250 103.1965720  43.3028270 112.9459350
 102.5064040  43.1100470 113.5805440 103.9398020  43.5862910 113.4783650
  93.9237720  41.1421760 103.9092690  93.6350770  41.7124620 104.6217670
  94.6683480  40.6626210 104.2723920  94.1107950  45.0841880  95.1195410
  94.0282620  46.0272640  95.2610400  93.7591010  44.9416790  94.2407760
 105.4728690  47.1426710 105.7813270 104.7409810  47.6513520 106.1303370
 105.0753030  46.3256690 105.4802050 105.9354600  42.5960390 105.1936210
 105.9527340  43.0469040 106.0378060 105.6870180  41.6966030 105.4069650
 100.9847730  47.1294130  96.5755820 100.4164630  46.6812380  95.9491730
 101.6936730  47.4886910  96.0420970 109.3625350  40.0092570 111.0322590
 109.6871120  39.2782230 111.5580570 109.3981860  39.6906210 110.1303580
  96.0616910  51.0306150 110.4522550  95.6771700  50.3899820 111.0505510
  96.3729100  51.7342270 111.0217280  95.0754540  42.6226380 102.0624640
  94.7901460  42.2582050 102.9003260  95.0133400  41.8906840 101.4487780
  98.5295210  51.1252320  98.8482230  97.7557470  50.5849940  98.6880950
  99.2589840  50.6058930  98.5099990 109.2883190  50.1217680 104.6408620
 110.0082310  50.6172970 104.2504730 109.0865010  49.4435570 103.9962490
 104.6701990  50.1926740 110.5277620 104.6039300  49.2722410 110.2735210
 104.0407130  50.2902180 111.2422260  98.5732610  50.7932700 102.4861040
  99.0911280  49.9900960 102.4317930  98.1216630  50.7311840 103.3277870
 103.4602110  52.0598980  97.7588340 103.8017810  52.8041210  97.2631660
 102.6314820  52.3730100  98.1213170  96.0577150  47.7594070 109.3986740
  95.6992090  48.4247920 109.9860080  95.7631710  46.9277620 109.7699360
  99.2590270  48.2178310 112.2826290  98.9590410  48.3635490 111.3854110
 100.0301510  47.6583600 112.1899680 104.6018720  53.0147310 110.2781420
 104.6163260  52.0828270 110.0600330 103.8943820  53.1007070 110.9171190
 109.7355790  47.1987130  96.5480030 109.6519510  47.6301350  95.6976470
 110.4549980  47.6585480  96.9806850 104.0352620  54.6564880 107.3721920
 104.6794840  54.8624260 108.0495340 104.3982060  53.8953280 106.9192770
  97.6331790  39.4896190 100.6152140  97.5046420  39.4814090 101.5637060
  96.8093810  39.8279280 100.2643150 105.3084700  52.6597230 106.0899370
 105.9506930  51.9590390 106.2031540 105.8334050  53.4395670 105.9096260
 107.0822320  53.4592130 109.2935430 107.4178560  54.0458820 109.9713350
 106.1622660  53.3284840 109.5233220  94.9198310  55.2367570 111.0625370
  95.0289430  54.2962310 110.9220760  94.2678870  55.5022320 110.4139100
 102.9110900  53.5083460 112.4623490 102.5907770  52.7892700 113.0069180
 102.2369260  54.1838530 112.5359550 100.9525070  54.3543910  97.4056640
 100.9435170  55.0873600  96.7901150 100.0323430  54.1075490  97.4983600
 106.1264500  43.7409620 107.8260290 106.4945320  42.9204830 108.1539860
 105.2662700  43.8011510 108.2415940 109.4926530  42.6966560  98.6347850
 108.8639690  42.8012230  97.9206080 108.9978450  42.9163340  99.4241730
 103.9384670  54.4172150  96.0681830 104.0396650  54.2136140  95.1383810
 103.0386410  54.1630430  96.2729610 103.0866490  46.3949210 108.0498260
 103.5851740  46.8695030 108.7150110 103.2289440  45.4712730 108.2568290
 102.5802780  56.9358470 100.7629500 102.8344280  56.8979860  99.8408870
 101.6315260  56.8091800 100.7557750  99.6645580  43.2837590  97.4256440
 100.5136110  43.7207740  97.3596630  99.2976850  43.5957850  98.2528500
  98.5637000  49.5369950  95.8991970  99.3300270  49.4251310  96.4617400
  98.6411690  48.8407920  95.2468740  97.2583760  46.9695020  96.5824860
  97.3387350  46.0222530  96.6942260  98.1503510  47.3001900  96.6885520
 110.5880940  55.0259200 104.0142270 110.7128360  55.8490370 104.4866080
 111.4546500  54.8149930 103.6666420  94.9443950  53.1863980  99.5600910
  94.0183730  53.4285120  99.5506320  95.4100380  54.0138240  99.4385660
  97.0656750  56.3036480 112.8744980  97.8669480  56.6248530 113.2880380
  96.5508570  55.9432060 113.5964890 101.1700780  56.2920720  95.5084970
 101.9629390  56.5809550  95.0566760 100.6505130  55.8612890  94.8297450
 107.3321750  56.1396640 111.4329800 108.2843500  56.0554660 111.3830040
 107.1849970  56.8038350 112.1063590 101.6878180  51.5124130  95.3727320
 101.5828820  50.8976480  96.0988700 101.5202400  50.9890020  94.5890330
 101.8392500  50.1980930 111.3516550 101.0738170  50.7665930 111.2671220
 102.0208460  49.9057140 110.4584780 104.9280910  50.5744160  95.9769310
 104.3791010  51.0213460  96.6212050 105.5500170  50.0693410  96.5006980
 100.5956030  49.5335080  97.8734610 101.0172450  49.3674950  98.7166000
 100.7206870  48.7235310  97.3789750  98.7583450  45.5131630 110.6805590
  98.2279910  45.0222580 110.0528930  99.4271520  45.9415830 110.1463520
 103.1083670  48.5572690  95.1211710 103.6289330  47.8421710  94.7552860
 103.7552070  49.1958560  95.4212220  99.2455750  42.4794000 110.7602880
  99.1512620  41.8614750 110.0353750  98.6653140  43.2060290 110.5332790
 102.0117190  41.0367240 107.7930270 101.5634490  41.0591500 106.9475820
 101.3782390  40.6386260 108.3900570 102.4176740  49.9321570 108.4142710
 102.8364850  50.7754300 108.2418950 101.4985370  50.0693610 108.1849490
 104.7540640  47.6637750 109.7980550 104.8736850  47.0678890 110.5375390
 105.6134640  47.7007440 109.3781850 107.0928540  48.2174940 108.3743060
 106.5663760  48.7417560 107.7708200 107.4359880  48.8502330 109.0052790
  99.4914930  45.6068310  94.8192770  99.2903990  44.7435670  95.1806110
  99.3206980  45.5201670  93.8814370 100.2684160  56.2374580 109.5300440
  99.7305250  56.9620640 109.2109140 100.5218120  55.7604920 108.7397780
 101.5209410  44.2059100 111.0556370 102.1109100  43.8974950 111.7434190
 100.7029650  43.7338850 111.2116270 106.3402840  43.8224910 111.2889390
 105.6518360  43.1606450 111.2239380 107.0608860  43.3763180 111.7337850
  98.2897730  42.7068930  94.8070650  98.5923630  42.7136360  93.8989800
  99.0292320  42.3566790  95.3038310 103.1246370  57.4725790 109.7887090
 103.0505070  58.3760930 110.0959460 102.2225210  57.1537690 109.7609160
 101.5082660  41.6503550  95.7926850 101.1604660  40.9727540  95.2129300
 101.7095430  41.1893060  96.6070240 103.6731700  56.6384300  97.4113450
 104.5682490  56.9769270  97.4332210 103.7049330  55.9163710  96.7837730
  99.1235580  53.1309390 100.7522680  98.8231120  53.0074360 101.6526590
  99.0173070  52.2717980 100.3438410 111.8927500  52.9105790  95.4549360
 111.0620460  52.9782440  95.9256590 112.0699330  53.8009910  95.1516220
 111.3483960  49.6553270  97.9583560 112.1102870  50.2249920  98.0643250
 111.3638330  49.0880470  98.7291870 112.3543930  50.5103370 102.8025490
 112.7252760  49.7270690 102.3961460 112.9945860  51.1992470 102.6242790
 109.3377690  51.8939950 108.2155810 108.5237530  52.3237110 108.4781600
 109.7451890  52.5058360 107.6024860 111.4003130  49.9487640  95.1156080
 111.6751970  50.8566520  94.9875300 111.2113870  49.8850170  96.0518070
 111.2968470  47.8856630 100.1085510 110.9212070  47.1184560  99.6766800
 110.5671590  48.2679330 100.5960440 109.1256160  42.2584580 112.5204730
 110.0026340  42.2667980 112.9038730 109.1377000  41.5215420 111.9097080
 110.5719430  46.1114120 103.4092750 111.0956910  45.6176770 102.7782920
 111.1578850  46.2464480 104.1540320  96.6053590  44.4455670  96.0410930
  97.3145290  44.0238890  95.5558210  95.8893530  44.5130900  95.4094280
  96.2527750  40.4995000  95.0813580  96.9755880  41.0403940  95.3994800
  96.5252270  40.2258420  94.2055120 110.0619400  45.3687470  99.3485160
 110.5578520  45.1358340 100.1334040 109.8635470  44.5299310  98.9322800
  95.9419940  39.7501190 104.9836200  96.5896130  39.1998570 104.5431360
  96.3621780  40.0044340 105.8052010 111.4906560  44.0048420 101.8822840
 111.3805840  43.8504460 102.8205110 112.2514150  43.4769360 101.6398250
 109.8372280  39.9442550 108.3405840 110.4744500  40.5576690 108.7065030
 109.9847170  39.9803210 107.3955070 112.3796830  41.8356340  95.1228980
 113.3046140  41.7037520  94.9147270 112.3572620  41.9149160  96.0765430
 112.4535320  42.6067000  97.7485690 111.6586820  42.5412120  98.2778600
 112.6578600  43.5417640  97.7371040 109.3953740  56.6458550 101.7424080
 109.9912810  56.3243120 101.0658500 109.6531890  56.1730370 102.5337350
  95.6951940  39.9056860 107.7261520  95.3466760  40.3620680 108.4919700
  95.3639640  39.0113990 107.8083950  97.3016310  53.0776460 111.8914710
  97.2585940  52.7069370 112.7729170  97.4327320  54.0154030 112.0316530
 101.0022340  54.6336050 107.4924430 100.7613700  54.9010610 106.6054950
 101.9424980  54.8041780 107.5475290 103.2076760  41.0968740 111.2480940
 103.1465650  41.6890570 111.9976350 104.1477140  40.9894700 111.1031200
 105.8451320  40.7538800 110.8873230 106.4591730  41.0718090 110.2254310
 106.3900880  40.2687390 111.5069090  96.3672580  39.4333060 111.0012290
  96.9155570  39.2521110 110.2378400  96.4327890  38.6427170 111.5368600
  97.1404340  56.0238710 109.0112490  96.5464660  55.8923410 109.7502530
  97.1328180  55.1876850 108.5454590 106.5859360  39.3170940 107.2142520
 105.7119200  39.6506050 107.0115450 106.4770110  38.8444120 108.0394390
 107.4931340  41.5241810 108.5984240 107.1644700  40.7093570 108.2185970
 108.4413640  41.4811620 108.4749930 109.9465950  57.2953850 105.5721810
 109.4868920  58.0469660 105.1979830 109.3178410  56.5760320 105.5136610
  96.7716570  53.3897090 107.9620530  96.0450630  52.7702380 107.8946480
  96.8325720  53.7837700 107.0918610 100.3761670  55.6042090 104.7469940
 100.8926690  54.9929450 104.2218200 101.0259050  56.1070870 105.2380950
 103.1157170  56.4950580 105.5738920 103.4034980  56.2404880 104.6971930
 103.6280390  55.9427940 106.1644490 104.3334180  40.2340780 106.1535430
 103.5505970  40.7086280 106.4332190 104.0397110  39.3295610 106.0448610
 108.8855250  40.9363880 104.1984520 109.3263340  40.8808980 103.3506120
 108.6162840  41.8521890 104.2694700 110.7493820  40.5679120 102.2093340
 110.6882220  39.6240340 102.0624360 111.5285850  40.6759210 102.7546800
  95.0546570  56.7071480 101.1717290  94.8868610  56.0742160 101.8699180
  94.1881080  56.9130880 100.8211480  95.6774590  40.5388260  98.6749150
  96.4353950  40.6517140  98.1013180  95.2151760  41.3757460  98.6292580
 109.8647980  39.7191540  98.1774810 110.0598610  40.6174990  98.4442240
 109.0777850  39.4878620  98.6707760  98.0499740  41.0652310  97.2151120
  98.5792500  40.2782110  97.0859070  98.6828060  41.7443500  97.4486650
 100.2437580  40.8027450 100.2696510  99.6140320  40.1014760 100.4366640
  99.7042720  41.5631580 100.0529670 103.1829530  57.4166680 112.9407120
 104.1096840  57.1810950 112.9843080 103.1679960  58.2438680 112.4593150
 106.9708600  39.4965010 113.2829470 106.8574050  39.8159620 114.1780990
 107.7878340  39.8977520 112.9866750  98.0250620  49.6056310  86.4049240
  97.1935500  49.3505020  86.8045750  98.6331600  49.6767080  87.1407160
 108.0292220  53.6996690  84.3072610 107.5673750  52.9283930  84.6359780
 108.8417770  53.7262760  84.8125060  96.4342570  44.5658200  80.1891630
  95.5459270  44.9074170  80.0871510  96.7183760  44.3658520  79.2972460
  95.6400450  42.5748210  87.8600260  95.4603290  41.6773960  88.1403020
  95.2380530  43.1220080  88.5347210 104.4798950  44.7764070  85.7612570
 104.8563770  43.9035950  85.6486240 104.3818460  45.1122770  84.8703010
  98.6103960  43.1489700  81.2230010  98.7170710  44.0493430  81.5298770
  97.6996320  43.1007670  80.9324660 108.2623070  42.2714510  82.6940910
 109.0832690  41.7811080  82.7366390 108.2957150  42.8612170  83.4472750
  96.2587120  45.0708710  86.4682600  96.9397230  45.3347080  87.0870000
  95.9435170  44.2309580  86.8020610 100.4511690  46.1176070  85.5555190
 100.9589910  46.6157040  86.1960210 100.9824930  45.3411270  85.3794550
  98.7347790  40.7574630  89.8218610  98.7366230  41.2747020  89.0164510
  97.9052100  40.2804810  89.7988540  98.4163120  42.4684590  87.8289060
  98.7579930  43.3126640  87.5342930  97.4778930  42.6168330  87.9454400
  99.1969740  52.3650610  89.8141290  99.8143740  53.0401690  89.5325740
  98.3362860  52.7738590  89.7228790  94.4902080  51.5550470  78.6948140
  94.1130060  52.0437570  77.9633040  94.7475150  52.2275750  79.3254670
 110.1147330  53.8290020  87.7295930 109.4310850  54.4989130  87.7212600
 110.6541620  54.0270670  86.9640790 102.0991010  39.9566860  84.1533650
 102.4065990  39.4013750  83.4369150 101.1691710  40.0911320  83.9706640
 107.6506070  55.6734150  86.4441110 107.6633230  55.2696440  85.5763370
 107.0981290  56.4481440  86.3402540 110.9953610  48.9751210  87.8639960
 110.1672240  49.0444300  87.3890090 111.5904090  49.5605520  87.3955790
 100.0928410  48.5480430  83.6713500  99.6885410  47.8357680  83.1759400
 100.1791530  48.2033670  84.5601540  98.8057030  45.3223640  87.4512540
  99.3571620  45.4318980  86.6765790  99.3200540  45.6961240  88.1667770
 108.6495720  55.8079860  89.4975810 108.1726280  56.6152050  89.3048420
 107.9657510  55.1558190  89.6502020  99.6528540  51.9729680  92.4860510
  98.7557070  52.1969650  92.7333910  99.6781410  52.0964620  91.5371910
  98.4799760  48.8443000  91.0617880  98.3407530  49.7165800  91.4305280
  97.5981120  48.5015810  90.9165820 100.2780110  54.7864700  93.2703030
 100.2495540  55.1907650  92.4031460 100.1145080  53.8575060  93.1074630
  96.7933040  47.4425410  81.1720150  96.6730640  48.1687500  80.5601420
  96.4833930  46.6728320  80.6948060 112.2294930  55.5691800  94.5667200
 112.7054650  56.0474690  95.2456280 112.8502090  55.5009290  93.8412700
 111.6328180  52.7604650  91.7267210 111.7591240  52.5216530  90.8084390
 111.6749560  51.9289190  92.1989290 105.4944920  56.4632650  90.2962020
 106.0089590  56.3740660  91.0984450 104.6514000  56.8092350  90.5889930
 111.4852190  44.8137110  92.6916950 110.8696460  45.3216780  92.1632410
 111.1648610  43.9135440  92.6342890  99.2596700  40.7860480  84.5543820
  98.8164850  41.5670020  84.2228340  99.8181690  41.1090370  85.2614760
 103.5466510  43.6529000  90.1579140 103.0845880  43.8612020  90.9699080
 103.1444620  42.8388350  89.8549810 105.6420730  46.3739700  93.3874590
 105.9674140  45.5403450  93.0476820 106.4301060  46.8968220  93.5352920
 102.3755520  40.4071180  79.4349650 101.7509700  40.4031050  80.1602960
 102.2885640  39.5402140  79.0385620 101.2972600  41.3307810  86.4133420
 101.5944930  42.2370640  86.3325440 101.8458160  40.8426590  85.7992990
  99.0510920  45.9094050  82.2825070  98.8251840  45.6931220  83.1871690
  98.2703450  46.3422510  81.9371040 101.4910130  46.8079630  92.9485340
 101.3953730  45.8674360  92.7985740 102.3342110  47.0294700  92.5533410
  96.6220670  43.2193300  91.1019120  96.2284060  44.0668510  91.3091900
  95.9339070  42.5819670  91.2927760 103.1965720  43.3028270  94.1715860
 102.5064040  43.1100470  94.8061950 103.9398020  43.5862910  94.7040160
  93.9237720  41.1421760  85.1349200  93.6350770  41.7124620  85.8474180
  94.6683480  40.6626210  85.4980430  94.1107950  45.0841880  76.3451920
  94.0282620  46.0272640  76.4866910  93.7591010  44.9416790  75.4664270
 101.9106080  43.8180910  85.4122270 101.9142140  43.3770860  84.5626810
 102.8057200  44.1398240  85.5194090  97.7608460  43.7007400  84.3716480
  97.4208510  44.1782630  85.1283530  96.9985780  43.2472520  84.0117580
 101.9726230  44.8192990  78.4029030 102.0939050  44.7779470  79.3514850
 101.5874740  45.6817140  78.2475760 100.9847730  47.1294130  77.8012330
 100.4164630  46.6812380  77.1748240 101.6936730  47.4886910  77.2677480
 109.3625350  40.0092570  92.2579100 109.6871120  39.2782230  92.7837080
 109.3981860  39.6906210  91.3560090  95.0754540  42.6226380  83.2881150
  94.7901460  42.2582050  84.1259770  95.0133400  41.8906840  82.6744290
 109.2883190  50.1217680  85.8665130 110.0082310  50.6172970  85.4761240
 109.0865010  49.4435570  85.2219000 104.7493130  41.5155640  80.0094520
 103.9357740  41.0168810  79.9339830 104.5555080  42.3553890  79.5930870
 104.6701990  50.1926740  91.7534130 104.6039300  49.2722410  91.4991720
 104.0407130  50.2902180  92.4678770  99.2590270  48.2178310  93.5082800
  98.9590410  48.3635490  92.6110620 100.0301510  47.6583600  93.4156190
 104.6018720  53.0147310  91.5037930 104.6163260  52.0828270  91.2856840
 103.8943820  53.1007070  92.1427700 110.8129930  49.6554650  90.8506510
 110.0878120  50.2483430  90.6535900 111.3405390  49.6478190  90.0519880
 106.3429520  51.3814820  84.3490360 106.6953340  50.7842950  83.6891730
 105.4591850  51.0559050  84.5198610  94.5685200  47.7585330  77.2477850
  95.4380050  48.0410130  77.5313770  94.0775520  48.5721200  77.1326660
 104.0352620  54.6564880  88.5978430 104.6794840  54.8624260  89.2751850
 104.3982060  53.8953280  88.1449280  97.6331790  39.4896190  81.8408650
  97.5046420  39.4814090  82.7893570  96.8093810  39.8279280  81.4899660
 105.3084700  52.6597230  87.3155880 105.9506930  51.9590390  87.4288050
 105.8334050  53.4395670  87.1352770 109.1540420  52.9445850  77.0395020
 108.9278000  52.2276290  77.6319660 108.7636620  52.6958290  76.2016770
 107.0822320  53.4592130  90.5191940 107.4178560  54.0458820  91.1969860
 106.1622660  53.3284840  90.7489730  94.6325720  41.2487310  91.3015350
  93.9184240  41.4484230  91.9067960  95.0520760  40.4726880  91.6730150
 102.9110900  53.5083460  93.6880000 102.5907770  52.7892700  94.2325690
 102.2369260  54.1838530  93.7616060  96.5531710  49.5758800  79.3759910
  95.9459660  50.3157700  79.3855210  97.0281060  49.6658160  78.5498110
 103.9384670  54.4172150  77.2938340 104.0396650  54.2136140  76.3640320
 103.0386410  54.1630430  77.4986120 105.4925990  41.7003170  82.7158030
 105.3693770  41.7189300  81.7667540 106.4410550  41.7482110  82.8356430
  99.6645580  43.2837590  78.6512950 100.5136110  43.7207740  78.5853140
  99.2976850  43.5957850  79.4785010  98.5637000  49.5369950  77.1248480
  99.3300270  49.4251310  77.6873910  98.6411690  48.8407920  76.4725250
  97.2583760  46.9695020  77.8081370  97.3387350  46.0222530  77.9198770
  98.1503510  47.3001900  77.9142030 110.5880940  55.0259200  85.2398780
 110.7128360  55.8490370  85.7122590 111.4546500  54.8149930  84.8922930
  94.9443950  53.1863980  80.7857420  94.0183730  53.4285120  80.7762830
  95.4100380  54.0138240  80.6642170 105.9021380  52.4116350  94.0476900
 105.2959540  52.4347950  93.3072650 105.5975490  51.6799390  94.5844150
 107.3321750  56.1396640  92.6586310 108.2843500  56.0554660  92.6086550
 107.1849970  56.8038350  93.3320100 101.6878180  51.5124130  76.5983830
 101.5828820  50.8976480  77.3245210 101.5202400  50.9890020  75.8146840
 101.8392500  50.1980930  92.5773060 101.0738170  50.7665930  92.4927730
 102.0208460  49.9057140  91.6841290 104.9280910  50.5744160  77.2025820
 104.3791010  51.0213460  77.8468560 105.5500170  50.0693410  77.7263490
 108.9815850  51.9286260  93.1348080 109.7225320  52.2662020  92.6315540
 108.2188530  52.0978320  92.5817850  96.8177640  46.9339530  93.9387610
  96.8582980  46.6353400  94.8472840  97.6723140  47.3347140  93.7795130
 100.5956030  49.5335080  79.0991120 101.0172450  49.3674950  79.9422510
 100.7206870  48.7235310  78.6046260  98.7583450  45.5131630  91.9062100
  98.2279910  45.0222580  91.2785440  99.4271520  45.9415830  91.3720030
 103.1083670  48.5572690  76.3468220 103.6289330  47.8421710  75.9809370
 103.7552070  49.1958560  76.6468730 107.6561510  49.9801090  91.6703290
 108.0702530  50.1346170  92.5193710 106.7212510  50.1056310  91.8329070
 108.1283680  47.3197250  93.6742440 108.7104450  46.5649570  93.5862920
 108.3045450  47.8504690  92.8973920  99.2455750  42.4794000  91.9859390
  99.1512620  41.8614750  91.2610260  98.6653140  43.2060290  91.7589300
 102.0117190  41.0367240  89.0186780 101.5634490  41.0591500  88.1732330
 101.3782390  40.6386260  89.6157080 100.2684160  56.2374580  90.7556950
  99.7305250  56.9620640  90.4365650 100.5218120  55.7604920  89.9654290
 101.5209410  44.2059100  92.2812880 102.1109100  43.8974950  92.9690700
 100.7029650  43.7338850  92.4372780 106.3402840  43.8224910  92.5145900
 105.6518360  43.1606450  92.4495890 107.0608860  43.3763180  92.9594360
 106.9703240  40.4176540  78.5736160 107.2505530  39.5744440  78.9295580
 106.1968970  40.6499650  79.0874910  98.2897730  42.7068930  76.0327160
  98.5923630  42.7136360  75.1246310  99.0292320  42.3566790  76.5294820
 103.1246370  57.4725790  91.0143600 103.0505070  58.3760930  91.3215970
 102.2225210  57.1537690  90.9865670 103.6731700  56.6384300  78.6369960
 104.5682490  56.9769270  78.6588720 103.7049330  55.9163710  78.0094240
  97.3127860  52.0111350  76.8656960  97.7502730  52.5541020  77.5214540
  97.7975590  51.1858300  76.8753300  94.5273660  54.8000380  84.3177220
  94.8576670  53.9321440  84.0855860  94.9564660  55.0058900  85.1482180
  95.0163870  55.6670970  87.0558850  94.5794860  55.8471770  87.8883000
  95.5841550  56.4245590  86.9140570 110.6526050  55.1687970  91.3436160
 110.0528040  55.2280530  90.6000080 110.7819950  54.2292950  91.4733010
 111.8927500  52.9105790  76.6805870 111.0620460  52.9782440  77.1513100
 112.0699330  53.8009910  76.3772730  94.8488300  48.1791200  83.4147730
  94.1937140  47.9102840  82.7707430  95.6866250  48.0695680  82.9649710
 109.3377690  51.8939950  89.4412320 108.5237530  52.3237110  89.7038110
 109.7451890  52.5058360  88.8281370 110.6868090  47.0328150  90.9681540
 110.4554180  46.8040900  90.0679490 110.9472640  47.9527700  90.9226430
  95.4380230  45.4752860  91.8609490  94.5436280  45.4419620  92.2003200
  95.9777780  45.6739650  92.6260740 109.1256160  42.2584580  93.7461240
 110.0026340  42.2667980  94.1295240 109.1377000  41.5215420  93.1353590
  94.0626380  45.3890130  79.3573060  93.1590460  45.6520330  79.1824720
  94.5467000  45.6601300  78.5773020 110.5719430  46.1114120  84.6349260
 111.0956910  45.6176770  84.0039430 111.1578850  46.2464480  85.3796830
  96.6053590  44.4455670  77.2667440  97.3145290  44.0238890  76.7814720
  95.8893530  44.5130900  76.6350790  96.2527750  40.4995000  76.3070090
  96.9755880  41.0403940  76.6251310  96.5252270  40.2258420  75.4311630
  95.9419940  39.7501190  86.2092710  96.5896130  39.1998570  85.7687870
  96.3621780  40.0044340  87.0308520 111.4906560  44.0048420  83.1079350
 111.3805840  43.8504460  84.0461620 112.2514150  43.4769360  82.8654760
  95.6951940  39.9056860  88.9518030  95.3466760  40.3620680  89.7176210
  95.3639640  39.0113990  89.0340460  97.3016310  53.0776460  93.1171220
  97.2585940  52.7069370  93.9985680  97.4327320  54.0154030  93.2573040
 101.0022340  54.6336050  88.7180940 100.7613700  54.9010610  87.8311460
 101.9424980  54.8041780  88.7731800 103.2076760  41.0968740  92.4737450
 103.1465650  41.6890570  93.2232860 104.1477140  40.9894700  92.3287710
 105.8451320  40.7538800  92.1129740 106.4591730  41.0718090  91.4510820
 106.3900880  40.2687390  92.7325600 112.2626500  56.6530430  89.5191580
 111.7684780  57.0499300  88.8018710 111.6539790  56.0279640  89.9128860
  96.3672580  39.4333060  92.2268800  96.9155570  39.2521110  91.4634910
  96.4327890  38.6427170  92.7625110  97.1404340  56.0238710  90.2369000
  96.5464660  55.8923410  90.9759040  97.1328180  55.1876850  89.7711100
 109.9465950  57.2953850  86.7978320 109.4868920  58.0469660  86.4236340
 109.3178410  56.5760320  86.7393120 103.1157170  56.4950580  86.7995430
 103.4034980  56.2404880  85.9228440 103.6280390  55.9427940  87.3901000
 110.7493820  40.5679120  83.4349850 110.6882220  39.6240340  83.2880870
 111.5285850  40.6759210  83.9803310  95.0546570  56.7071480  82.3973800
  94.8868610  56.0742160  83.0955690  94.1881080  56.9130880  82.0467990
  95.6774590  40.5388260  79.9005660  96.4353950  40.6517140  79.3269690
  95.2151760  41.3757460  79.8549090 102.2188400  42.6527530  82.8907970
 101.4062910  42.2784420  82.5503850 102.7230040  41.8972610  83.1929160
 106.7213380  39.3169980  84.1291040 107.3242750  39.8890190  84.6039560
 105.9806370  39.8809420  83.9064940 109.8647980  39.7191540  79.4031320
 110.0598610  40.6174990  79.6698750 109.0777850  39.4878620  79.8964270
  98.0499740  41.0652310  78.4407630  98.5792500  40.2782110  78.3115580
  98.6828060  41.7443500  78.6743160 100.2437580  40.8027450  81.4953020
  99.6140320  40.1014760  81.6623150  99.7042720  41.5631580  81.2786180
 103.1829530  57.4166680  94.1663630 104.1096840  57.1810950  94.2099590
 103.1679960  58.2438680  93.6849660 100.3693140  40.0811430  93.9305510
 100.0877410  40.5845030  93.1666330 100.7512840  39.2833180  93.5647640
 106.9708600  39.4965010  94.5085980 106.8574050  39.8159620  95.4037500
 107.7878340  39.8977520  94.2123260 109.7507090  56.6436540  93.9904670
 110.5432410  56.1485770  93.7830630 110.0440240  57.3226680  94.5980280
 105.8766750  47.5157480  64.8720720 105.7960800  46.6012090  64.6012430
 105.4631170  48.0124550  64.1660430 104.0084790  49.2936500  66.7529990
 103.2326890  48.8136940  67.0428560 104.6597720  48.6142150  66.5786150
  98.0250620  49.6056310  67.6305750  97.1935500  49.3505020  68.0302260
  98.6331600  49.6767080  68.3663670 108.0292220  53.6996690  65.5329120
 107.5673750  52.9283930  65.8616290 108.8417770  53.7262760  66.0381570
  98.0051880  53.6396400  67.8263770  98.3079920  52.7494140  67.6473990
  98.7495470  54.1966620  67.5986020 104.2555530  55.9854700  65.1533110
 103.6366970  56.4412200  64.5827550 105.1107310  56.1406160  64.7522810
 103.4493780  51.9693690  66.7600150 103.3802060  51.0283630  66.5989280
 104.2113640  52.0595100  67.3322720  95.6400450  42.5748210  69.0856770
  95.4603290  41.6773960  69.3659530  95.2380530  43.1220080  69.7603720
 104.4798950  44.7764070  66.9869080 104.8563770  43.9035950  66.8742750
 104.3818460  45.1122770  66.0959520  98.6103960  43.1489700  62.4486520
  98.7170710  44.0493430  62.7555280  97.6996320  43.1007670  62.1581170
 108.2623070  42.2714510  63.9197420 109.0832690  41.7811080  63.9622900
 108.2957150  42.8612170  64.6729260  96.2587120  45.0708710  67.6939110
  96.9397230  45.3347080  68.3126510  95.9435170  44.2309580  68.0277120
 100.4511690  46.1176070  66.7811700 100.9589910  46.6157040  67.4216720
 100.9824930  45.3411270  66.6051060 112.5522620  44.2881260  70.4841050
 111.8474790  44.6762970  69.9656160 112.8180540  44.9831550  71.0861980
  99.9850640  50.3969810  69.2248620  99.6520020  51.0238730  69.8669690
 100.1617320  50.9231690  68.4450290 108.4984550  44.2114890  66.6924960
 107.7940120  44.4999780  67.2728070 108.8596710  45.0215000  66.3324520
  98.4163120  42.4684590  69.0545570  98.7579930  43.3126640  68.7599440
  97.4778930  42.6168330  69.1710910  99.1969740  52.3650610  71.0397800
  99.8143740  53.0401690  70.7582250  98.3362860  52.7738590  70.9485300
 110.1147330  53.8290020  68.9552440 109.4310850  54.4989130  68.9469110
 110.6541620  54.0270670  68.1897300 111.5671470  43.6569680  67.0834170
 110.6196380  43.6908660  67.2149600 111.8921460  44.4708630  67.4683530
 102.0991010  39.9566860  65.3790160 102.4065990  39.4013750  64.6625660
 101.1691710  40.0911320  65.1963150 107.6506070  55.6734150  67.6697620
 107.6633230  55.2696440  66.8019880 107.0981290  56.4481440  67.5659050
 108.9451490  52.3950370  62.7587790 108.8347820  51.4524700  62.8837210
 108.9419740  52.7566010  63.6450550 107.0491510  50.5763990  68.9980230
 107.4660300  50.3624100  68.1633690 107.7731330  50.8336780  69.5688850
 110.9953610  48.9751210  69.0896470 110.1672240  49.0444300  68.6146600
 111.5904090  49.5605520  68.6212300 100.0928410  48.5480430  64.8970010
  99.6885410  47.8357680  64.4015910 100.1791530  48.2033670  65.7858050
 100.5610110  52.2347990  67.0609220 100.2638400  51.6293460  66.3817000
 101.5109930  52.2725300  66.9498580 108.6495720  55.8079860  70.7232320
 108.1726280  56.6152050  70.5304930 107.9657510  55.1558190  70.8758530
  99.6528540  51.9729680  73.7117020  98.7557070  52.1969650  73.9590420
  99.6781410  52.0964620  72.7628420  98.4799760  48.8443000  72.2874390
  98.3407530  49.7165800  72.6561790  97.5981120  48.5015810  72.1422330
 104.8029140  53.7618870  63.5939520 105.2425050  54.5043200  63.1794910
 104.7416030  54.0045440  64.5178480 100.2780110  54.7864700  74.4959540
 100.2495540  55.1907650  73.6287970 100.1145080  53.8575060  74.3331140
 110.2750900  40.0765610  57.9399320 109.9623560  40.1692440  58.8398390
 111.0363370  40.6546640  57.8896750 112.2294930  55.5691800  75.7923710
 112.7054650  56.0474690  76.4712790 112.8502090  55.5009290  75.0669210
  94.4318410  50.6140550  68.2045300  94.5098830  50.7489320  67.2601020
  95.0460090  49.9056440  68.3973420 111.6328180  52.7604650  72.9523720
 111.7591240  52.5216530  72.0340900 111.6749560  51.9289190  73.4245800
  99.9487700  56.5286520  62.7274150  99.7730180  55.6122060  62.5141950
  99.0943440  56.8873810  62.9671950 107.1725450  54.2575550  59.5100530
 106.4790610  54.2552840  58.8502810 107.9148310  53.8334870  59.0794700
 106.7375380  55.8838260  63.5849020 107.1932330  55.1027640  63.8987640
 107.0767900  56.5945080  64.1290200 111.4852190  44.8137110  73.9173460
 110.8696460  45.3216780  73.3888920 111.1648610  43.9135440  73.8599400
  94.4877930  51.6554720  70.7439760  94.6508970  51.1860080  69.9259130
  94.9530380  51.1478280  71.4088600  99.2596700  40.7860480  65.7800330
  98.8164850  41.5670020  65.4484850  99.8181690  41.1090370  66.4871270
 105.6420730  46.3739700  74.6131100 105.9674140  45.5403450  74.2733330
 106.4301060  46.8968220  74.7609430 101.2972600  41.3307810  67.6389930
 101.5944930  42.2370640  67.5581950 101.8458160  40.8426590  67.0249500
  99.0510920  45.9094050  63.5081580  98.8251840  45.6931220  64.4128200
  98.2703450  46.3422510  63.1627550  96.6220670  43.2193300  72.3275630
  96.2284060  44.0668510  72.5348410  95.9339070  42.5819670  72.5184270
  93.9237720  41.1421760  66.3605710  93.6350770  41.7124620  67.0730690
  94.6683480  40.6626210  66.7236940 105.4728690  47.1426710  68.2326290
 104.7409810  47.6513520  68.5816390 105.0753030  46.3256690  67.9315070
 101.9106080  43.8180910  66.6378780 101.9142140  43.3770860  65.7883320
 102.8057200  44.1398240  66.7450600  97.7608460  43.7007400  65.5972990
  97.4208510  44.1782630  66.3540040  96.9985780  43.2472520  65.2374090
  96.0616910  51.0306150  72.9035570  95.6771700  50.3899820  73.5018530
  96.3729100  51.7342270  73.4730300 102.2114050  47.8782690  68.3844190
 102.5784180  47.4041260  69.1305530 102.0219110  48.7524260  68.7252530
 109.2883190  50.1217680  67.0921640 110.0082310  50.6172970  66.7017750
 109.0865010  49.4435570  66.4475510 104.6701990  50.1926740  72.9790640
 104.6039300  49.2722410  72.7248230 104.0407130  50.2902180  73.6935280
  96.0577150  47.7594070  71.8499760  95.6992090  48.4247920  72.4373100
  95.7631710  46.9277620  72.2212380 104.6018720  53.0147310  72.7294440
 104.6163260  52.0828270  72.5113350 103.8943820  53.1007070  73.3684210
 110.8129930  49.6554650  72.0763020 110.0878120  50.2483430  71.8792410
 111.3405390  49.6478190  71.2776390 106.3429520  51.3814820  65.5746870
 106.6953340  50.7842950  64.9148240 105.4591850  51.0559050  65.7455120
 102.4292800  52.1412510  62.9817280 103.1163930  52.6881720  63.3624870
 101.6425220  52.6853240  63.0166890 101.7320010  49.1458540  62.5942640
 102.1882790  49.9563790  62.8202830 101.3808220  48.8281680  63.4261130
 104.0352620  54.6564880  69.8234940 104.6794840  54.8624260  70.5008360
 104.3982060  53.8953280  69.3705790  97.6331790  39.4896190  63.0665160
  97.5046420  39.4814090  64.0150080  96.8093810  39.8279280  62.7156170
 105.3084700  52.6597230  68.5412390 105.9506930  51.9590390  68.6544560
 105.8334050  53.4395670  68.3609280 109.1540420  52.9445850  58.2651530
 108.9278000  52.2276290  58.8576170 108.7636620  52.6958290  57.4273280
 107.0822320  53.4592130  71.7448450 107.4178560  54.0458820  72.4226370
 106.1622660  53.3284840  71.9746240  94.6325720  41.2487310  72.5271860
  93.9184240  41.4484230  73.1324470  95.0520760  40.4726880  72.8986660
  94.9198310  55.2367570  73.5138390  95.0289430  54.2962310  73.3733780
  94.2678870  55.5022320  72.8652120 102.9110900  53.5083460  74.9136510
 102.5907770  52.7892700  75.4582200 102.2369260  54.1838530  74.9872570
 109.4926530  42.6966560  61.0860870 108.8639690  42.8012230  60.3719100
 108.9978450  42.9163340  61.8754750 103.9384670  54.4172150  58.5194850
 104.0396650  54.2136140  57.5896830 103.0386410  54.1630430  58.7242630
 105.4925990  41.7003170  63.9414540 105.3693770  41.7189300  62.9924050
 106.4410550  41.7482110  64.0612940 102.5802780  56.9358470  63.2142520
 102.8344280  56.8979860  62.2921890 101.6315260  56.8091800  63.2070770
 108.5855360  47.8550350  64.7901030 107.6445500  47.8700580  64.9648720
 108.8999430  47.0686310  65.2361330  98.5637000  49.5369950  58.3504990
  99.3300270  49.4251310  58.9130420  98.6411690  48.8407920  57.6981760
  97.2583760  46.9695020  59.0337880  97.3387350  46.0222530  59.1455280
  98.1503510  47.3001900  59.1398540 110.5880940  55.0259200  66.4655290
 110.7128360  55.8490370  66.9379100 111.4546500  54.8149930  66.1179440
 101.1700780  56.2920720  57.9597990 101.9629390  56.5809550  57.5079780
 100.6505130  55.8612890  57.2810470 105.9021380  52.4116350  75.2733410
 105.2959540  52.4347950  74.5329160 105.5975490  51.6799390  75.8100660
 107.3321750  56.1396640  73.8842820 108.2843500  56.0554660  73.8343060
 107.1849970  56.8038350  74.5576610 110.2230950  55.5190850  59.3834730
 109.9372460  55.1055990  58.5688910 110.0250500  56.4478560  59.2635250
  94.7854560  48.7909940  74.2694050  95.2893580  48.2117220  74.8410280
  94.0461980  49.0750170  74.8070420 101.6878180  51.5124130  57.8240340
 101.5828820  50.8976480  58.5501720 101.5202400  50.9890020  57.0403350
 101.8392500  50.1980930  73.8029570 101.0738170  50.7665930  73.7184240
 102.0208460  49.9057140  72.9097800 108.9815850  51.9286260  74.3604590
 109.7225320  52.2662020  73.8572050 108.2188530  52.0978320  73.8074360
  96.8177640  46.9339530  75.1644120  96.8582980  46.6353400  76.0729350
  97.6723140  47.3347140  75.0051640 100.5956030  49.5335080  60.3247630
 101.0172450  49.3674950  61.1679020 100.7206870  48.7235310  59.8302770
 107.6561510  49.9801090  72.8959800 108.0702530  50.1346170  73.7450220
 106.7212510  50.1056310  73.0585580 108.1283680  47.3197250  74.8998950
 108.7104450  46.5649570  74.8119430 108.3045450  47.8504690  74.1230430
 102.4176740  49.9321570  70.8655730 102.8364850  50.7754300  70.6931970
 101.4985370  50.0693610  70.6362510 104.7540640  47.6637750  72.2493570
 104.8736850  47.0678890  72.9888410 105.6134640  47.7007440  71.8294870
 107.0928540  48.2174940  70.8256080 106.5663760  48.7417560  70.2221220
 107.4359880  48.8502330  71.4565810 100.2684160  56.2374580  71.9813460
  99.7305250  56.9620640  71.6622160 100.5218120  55.7604920  71.1910800
 106.9703240  40.4176540  59.7992670 107.2505530  39.5744440  60.1552090
 106.1968970  40.6499650  60.3131420  98.2897730  42.7068930  57.2583670
  98.5923630  42.7136360  56.3502820  99.0292320  42.3566790  57.7551330
 103.6731700  56.6384300  59.8626470 104.5682490  56.9769270  59.8845230
 103.7049330  55.9163710  59.2350750 110.6526050  55.1687970  72.5692670
 110.0528040  55.2280530  71.8256590 110.7819950  54.2292950  72.6989520
 111.8927500  52.9105790  57.9062380 111.0620460  52.9782440  58.3769610
 112.0699330  53.8009910  57.6029240 112.3543930  50.5103370  65.2538510
 112.7252760  49.7270690  64.8474480 112.9945860  51.1992470  65.0755810
 109.3377690  51.8939950  70.6668830 108.5237530  52.3237110  70.9294620
 109.7451890  52.5058360  70.0537880  95.8864230  48.5643770  69.1807580
  96.2537270  48.4771170  70.0603600  95.3175050  47.8010320  69.0814440
 110.6868090  47.0328150  72.1938050 110.4554180  46.8040900  71.2936000
 110.9472640  47.9527700  72.1482940  95.4380230  45.4752860  73.0866000
  94.5436280  45.4419620  73.4259710  95.9777780  45.6739650  73.8517250
 110.5719430  46.1114120  65.8605770 111.0956910  45.6176770  65.2295940
 111.1578850  46.2464480  66.6053340 110.7509150  46.1953990  69.3825320
 109.8011860  46.1617530  69.4970310 110.9322160  47.1054100  69.1475090
  96.6053590  44.4455670  58.4923950  97.3145290  44.0238890  58.0071230
  95.8893530  44.5130900  57.8607300  96.2527750  40.4995000  57.5326600
  96.9755880  41.0403940  57.8507820  96.5252270  40.2258420  56.6568140
  95.9419940  39.7501190  67.4349220  96.5896130  39.1998570  66.9944380
  96.3621780  40.0044340  68.2565030 111.4906560  44.0048420  64.3335860
 111.3805840  43.8504460  65.2718130 112.2514150  43.4769360  64.0911270
 112.3796830  41.8356340  57.5742000 113.3046140  41.7037520  57.3660290
 112.3572620  41.9149160  58.5278450 112.4535320  42.6067000  60.1998710
 111.6586820  42.5412120  60.7291620 112.6578600  43.5417640  60.1884060
  95.6951940  39.9056860  70.1774540  95.3466760  40.3620680  70.9432720
  95.3639640  39.0113990  70.2596970  97.3016310  53.0776460  74.3427730
  97.2585940  52.7069370  75.2242190  97.4327320  54.0154030  74.4829550
 101.0022340  54.6336050  69.9437450 100.7613700  54.9010610  69.0567970
 101.9424980  54.8041780  69.9988310 112.2626500  56.6530430  70.7448090
 111.7684780  57.0499300  70.0275220 111.6539790  56.0279640  71.1385370
  96.3672580  39.4333060  73.4525310  96.9155570  39.2521110  72.6891420
  96.4327890  38.6427170  73.9881620  97.1404340  56.0238710  71.4625510
  96.5464660  55.8923410  72.2015550  97.1328180  55.1876850  70.9967610
 109.9465950  57.2953850  68.0234830 109.4868920  58.0469660  67.6492850
 109.3178410  56.5760320  67.9649630  96.7716570  53.3897090  70.4133550
  96.0450630  52.7702380  70.3459500  96.8325720  53.7837700  69.5431630
 100.3761670  55.6042090  67.1982960 100.8926690  54.9929450  66.6731220
 101.0259050  56.1070870  67.6893970 108.8855250  40.9363880  66.6497540
 109.3263340  40.8808980  65.8019140 108.6162840  41.8521890  66.7207720
  95.6774590  40.5388260  61.1262170  96.4353950  40.6517140  60.5526200
  95.2151760  41.3757460  61.0805600 106.7213380  39.3169980  65.3547550
 107.3242750  39.8890190  65.8296070 105.9806370  39.8809420  65.1321450
 109.8647980  39.7191540  60.6287830 110.0598610  40.6174990  60.8955260
 109.0777850  39.4878620  61.1220780  98.0499740  41.0652310  59.6664140
  98.5792500  40.2782110  59.5372090  98.6828060  41.7443500  59.8999670
 100.2437580  40.8027450  62.7209530  99.6140320  40.1014760  62.8879660
  99.7042720  41.5631580  62.5042690 103.1829530  57.4166680  75.3920140
 104.1096840  57.1810950  75.4356100 103.1679960  58.2438680  74.9106170
 106.9708600  39.4965010  75.7342490 106.8574050  39.8159620  76.6294010
 107.7878340  39.8977520  75.4379770 109.7507090  56.6436540  75.2161180
 110.5432410  56.1485770  75.0087140 110.0440240  57.3226680  75.8236790
 108.0292220  53.6996690  46.7585630 107.5673750  52.9283930  47.0872800
 108.8417770  53.7262760  47.2638080  96.4342570  44.5658200  42.6404650
  95.5459270  44.9074170  42.5384530  96.7183760  44.3658520  41.7485480
  94.3975580  47.1663850  48.5244350  94.9691690  46.3986050  48.5247990
  94.3977120  47.4652610  47.6150960 104.2555530  55.9854700  46.3789620
 103.6366970  56.4412200  45.8084060 105.1107310  56.1406160  45.9779320
 103.4493780  51.9693690  47.9856660 103.3802060  51.0283630  47.8245790
 104.2113640  52.0595100  48.5579230  95.6400450  42.5748210  50.3113280
  95.4603290  41.6773960  50.5916040  95.2380530  43.1220080  50.9860230
  98.6103960  43.1489700  43.6743030  98.7170710  44.0493430  43.9811790
  97.6996320  43.1007670  43.3837680  96.2587120  45.0708710  48.9195620
  96.9397230  45.3347080  49.5383020  95.9435170  44.2309580  49.2533630
 112.5522620  44.2881260  51.7097560 111.8474790  44.6762970  51.1912670
 112.8180540  44.9831550  52.3118490  98.7347790  40.7574630  52.2731630
  98.7366230  41.2747020  51.4677530  97.9052100  40.2804810  52.2501560
  98.4163120  42.4684590  50.2802080  98.7579930  43.3126640  49.9855950
  97.4778930  42.6168330  50.3967420  99.1969740  52.3650610  52.2654310
  99.8143740  53.0401690  51.9838760  98.3362860  52.7738590  52.1741810
  94.4902080  51.5550470  41.1461160  94.1130060  52.0437570  40.4146060
  94.7475150  52.2275750  41.7767690 110.1147330  53.8290020  50.1808950
 109.4310850  54.4989130  50.1725620 110.6541620  54.0270670  49.4153810
 102.0991010  39.9566860  46.6046670 102.4065990  39.4013750  45.8882170
 101.1691710  40.0911320  46.4219660 107.6506070  55.6734150  48.8954130
 107.6633230  55.2696440  48.0276390 107.0981290  56.4481440  48.7915560
 107.0491510  50.5763990  50.2236740 107.4660300  50.3624100  49.3890200
 107.7731330  50.8336780  50.7945360 110.9953610  48.9751210  50.3152980
 110.1672240  49.0444300  49.8403110 111.5904090  49.5605520  49.8468810
 107.9595620  45.7620530  51.2607850 107.5466800  46.5874240  51.5147840
 107.2271570  45.1765570  51.0684210 100.0928410  48.5480430  46.1226520
  99.6885410  47.8357680  45.6272420 100.1791530  48.2033670  47.0114560
  98.8057030  45.3223640  49.9025560  99.3571620  45.4318980  49.1278810
  99.3200540  45.6961240  50.6180790  99.6528540  51.9729680  54.9373530
  98.7557070  52.1969650  55.1846930  99.6781410  52.0964620  53.9884930
 100.2780110  54.7864700  55.7216050 100.2495540  55.1907650  54.8544480
 100.1145080  53.8575060  55.5587650 110.2750900  40.0765610  39.1655830
 109.9623560  40.1692440  40.0654900 111.0363370  40.6546640  39.1153260
  96.7933040  47.4425410  43.6233170  96.6730640  48.1687500  43.0114440
  96.4833930  46.6728320  43.1461080 112.2294930  55.5691800  57.0180220
 112.7054650  56.0474690  57.6969300 112.8502090  55.5009290  56.2925720
 111.6328180  52.7604650  54.1780230 111.7591240  52.5216530  53.2597410
 111.6749560  51.9289190  54.6502310 105.4944920  56.4632650  52.7475040
 106.0089590  56.3740660  53.5497470 104.6514000  56.8092350  53.0402950
 107.4699320  56.7487990  42.1759040 107.3100460  56.4590930  43.0740870
 107.3046030  55.9728120  41.6404270  99.9487700  56.5286520  43.9530660
  99.7730180  55.6122060  43.7398460  99.0943440  56.8873810  44.1928460
 106.7375380  55.8838260  44.8105530 107.1932330  55.1027640  45.1244150
 107.0767900  56.5945080  45.3546710 111.4852190  44.8137110  55.1429970
 110.8696460  45.3216780  54.6145430 111.1648610  43.9135440  55.0855910
  99.2596700  40.7860480  47.0056840  98.8164850  41.5670020  46.6741360
  99.8181690  41.1090370  47.7127780 108.5471020  44.8737950  53.7388820
 107.6964610  44.5743700  54.0597890 108.3872810  45.1179960  52.8272640
 105.6420730  46.3739700  55.8387610 105.9674140  45.5403450  55.4989840
 106.4301060  46.8968220  55.9865940 102.3755520  40.4071180  41.8862670
 101.7509700  40.4031050  42.6115980 102.2885640  39.5402140  41.4898640
 101.2972600  41.3307810  48.8646440 101.5944930  42.2370640  48.7838460
 101.8458160  40.8426590  48.2506010  99.0510920  45.9094050  44.7338090
  98.8251840  45.6931220  45.6384710  98.2703450  46.3422510  44.3884060
 106.2808680  45.9157420  43.3328740 105.6817570  46.6393220  43.1492360
 106.8288290  45.8534200  42.5505190  96.6220670  43.2193300  53.5532140
  96.2284060  44.0668510  53.7604920  95.9339070  42.5819670  53.7440780
  93.9237720  41.1421760  47.5862220  93.6350770  41.7124620  48.2987200
  94.6683480  40.6626210  47.9493450  94.1107950  45.0841880  38.7964940
  94.0282620  46.0272640  38.9379930  93.7591010  44.9416790  37.9177290
  97.7608460  43.7007400  46.8229500  97.4208510  44.1782630  47.5796550
  96.9985780  43.2472520  46.4630600 101.9726230  44.8192990  40.8542050
 102.0939050  44.7779470  41.8027870 101.5874740  45.6817140  40.6988780
 100.9847730  47.1294130  40.2525350 100.4164630  46.6812380  39.6261260
 101.6936730  47.4886910  39.7190500 109.3625350  40.0092570  54.7092120
 109.6871120  39.2782230  55.2350100 109.3981860  39.6906210  53.8073110
  95.0754540  42.6226380  45.7394170  94.7901460  42.2582050  46.5772790
  95.0133400  41.8906840  45.1257310  98.5295210  51.1252320  42.5251760
  97.7557470  50.5849940  42.3650480  99.2589840  50.6058930  42.1869520
 109.2883190  50.1217680  48.3178150 110.0082310  50.6172970  47.9274260
 109.0865010  49.4435570  47.6732020 104.7493130  41.5155640  42.4607540
 103.9357740  41.0168810  42.3852850 104.5555080  42.3553890  42.0443890
 104.6701990  50.1926740  54.2047150 104.6039300  49.2722410  53.9504740
 104.0407130  50.2902180  54.9191790 104.6018720  53.0147310  53.9550950
 104.6163260  52.0828270  53.7369860 103.8943820  53.1007070  54.5940720
 109.7355790  47.1987130  40.2249560 109.6519510  47.6301350  39.3746000
 110.4549980  47.6585480  40.6576380 110.8129930  49.6554650  53.3019530
 110.0878120  50.2483430  53.1048920 111.3405390  49.6478190  52.5032900
 106.3429520  51.3814820  46.8003380 106.6953340  50.7842950  46.1404750
 105.4591850  51.0559050  46.9711630  94.5685200  47.7585330  39.6990870
  95.4380050  48.0410130  39.9826790  94.0775520  48.5721200  39.5839680
 101.7320010  49.1458540  43.8199150 102.1882790  49.9563790  44.0459340
 101.3808220  48.8281680  44.6517640 104.0352620  54.6564880  51.0491450
 104.6794840  54.8624260  51.7264870 104.3982060  53.8953280  50.5962300
  97.6331790  39.4896190  44.2921670  97.5046420  39.4814090  45.2406590
  96.8093810  39.8279280  43.9412680 105.3084700  52.6597230  49.7668900
 105.9506930  51.9590390  49.8801070 105.8334050  53.4395670  49.5865790
 107.0822320  53.4592130  52.9704960 107.4178560  54.0458820  53.6482880
 106.1622660  53.3284840  53.2002750  94.9356450  56.9712710  40.2652500
  95.2954090  57.5702050  39.6109770  94.7948790  57.5172600  41.0387530
  94.6325720  41.2487310  53.7528370  93.9184240  41.4484230  54.3580980
  95.0520760  40.4726880  54.1243170 102.9110900  53.5083460  56.1393020
 102.5907770  52.7892700  56.6838710 102.2369260  54.1838530  56.2129080
  96.5531710  49.5758800  41.8272930  95.9459660  50.3157700  41.8368230
  97.0281060  49.6658160  41.0011130 106.1264500  43.7409620  51.5029820
 106.4945320  42.9204830  51.8309390 105.2662700  43.8011510  51.9185470
 109.4926530  42.6966560  42.3117380 108.8639690  42.8012230  41.5975610
 108.9978450  42.9163340  43.1011260 101.4610560  44.9752510  43.7275260
 100.7526710  45.4438850  44.1688870 101.7455040  44.3174520  44.3620450
 102.5802780  56.9358470  44.4399030 102.8344280  56.8979860  43.5178400
 101.6315260  56.8091800  44.4327280 110.2933350  42.6117170  52.5696180
 109.7906950  43.3522570  52.9089990 111.1090010  43.0001170  52.2532970
  98.5637000  49.5369950  39.5761500  99.3300270  49.4251310  40.1386930
  98.6411690  48.8407920  38.9238270  97.2583760  46.9695020  40.2594390
  97.3387350  46.0222530  40.3711790  98.1503510  47.3001900  40.3655050
  94.9443950  53.1863980  43.2370440  94.0183730  53.4285120  43.2275850
  95.4100380  54.0138240  43.1155190 101.1700780  56.2920720  39.1854500
 101.9629390  56.5809550  38.7336290 100.6505130  55.8612890  38.5066980
 105.9021380  52.4116350  56.4989920 105.2959540  52.4347950  55.7585670
 105.5975490  51.6799390  57.0357170 110.2230950  55.5190850  40.6091240
 109.9372460  55.1055990  39.7945420 110.0250500  56.4478560  40.4891760
 108.9815850  51.9286260  55.5861100 109.7225320  52.2662020  55.0828560
 108.2188530  52.0978320  55.0330870 100.5956030  49.5335080  41.5504140
 101.0172450  49.3674950  42.3935530 100.7206870  48.7235310  41.0559280
 107.6561510  49.9801090  54.1216310 108.0702530  50.1346170  54.9706730
 106.7212510  50.1056310  54.2842090 108.1283680  47.3197250  56.1255460
 108.7104450  46.5649570  56.0375940 108.3045450  47.8504690  55.3486940
 102.0117190  41.0367240  51.4699800 101.5634490  41.0591500  50.6245350
 101.3782390  40.6386260  52.0670100 102.4176740  49.9321570  52.0912240
 102.8364850  50.7754300  51.9188480 101.4985370  50.0693610  51.8619020
 107.0928540  48.2174940  52.0512590 106.5663760  48.7417560  51.4477730
 107.4359880  48.8502330  52.6822320  99.4914930  45.6068310  38.4962300
  99.2903990  44.7435670  38.8575640  99.3206980  45.5201670  37.5583900
 100.2684160  56.2374580  53.2069970  99.7305250  56.9620640  52.8878670
 100.5218120  55.7604920  52.4167310 106.3402840  43.8224910  54.9658920
 105.6518360  43.1606450  54.9008910 107.0608860  43.3763180  55.4107380
 106.9703240  40.4176540  41.0249180 107.2505530  39.5744440  41.3808600
 106.1968970  40.6499650  41.5387930 103.1246370  57.4725790  53.4656620
 103.0505070  58.3760930  53.7728990 102.2225210  57.1537690  53.4378690
  97.3127860  52.0111350  39.3169980  97.7502730  52.5541020  39.9727560
  97.7975590  51.1858300  39.3266320 111.8927500  52.9105790  39.1318890
 111.0620460  52.9782440  39.6026120 112.0699330  53.8009910  38.8285750
  94.8488300  48.1791200  45.8660750  94.1937140  47.9102840  45.2220450
  95.6866250  48.0695680  45.4162730 109.3377690  51.8939950  51.8925340
 108.5237530  52.3237110  52.1551130 109.7451890  52.5058360  51.2794390
 111.4003130  49.9487640  38.7925610 111.6751970  50.8566520  38.6644830
 111.2113870  49.8850170  39.7287600 107.7978740  42.9732490  40.0879240
 108.2163620  42.7863470  39.2475900 107.4914800  42.1211540  40.3982170
 110.6868090  47.0328150  53.4194560 110.4554180  46.8040900  52.5192510
 110.9472640  47.9527700  53.3739450 109.1256160  42.2584580  56.1974260
 110.0026340  42.2667980  56.5808260 109.1377000  41.5215420  55.5866610
  94.0626380  45.3890130  41.8086080  93.1590460  45.6520330  41.6337740
  94.5467000  45.6601300  41.0286040 110.5719430  46.1114120  47.0862280
 111.0956910  45.6176770  46.4552450 111.1578850  46.2464480  47.8309850
 110.7509150  46.1953990  50.6081830 109.8011860  46.1617530  50.7226820
 110.9322160  47.1054100  50.3731600  96.6053590  44.4455670  39.7180460
  97.3145290  44.0238890  39.2327740  95.8893530  44.5130900  39.0863810
 110.0619400  45.3687470  43.0254690 110.5578520  45.1358340  43.8103570
 109.8635470  44.5299310  42.6092330  95.9419940  39.7501190  48.6605730
  96.5896130  39.1998570  48.2200890  96.3621780  40.0044340  49.4821540
 111.4906560  44.0048420  45.5592370 111.3805840  43.8504460  46.4974640
 112.2514150  43.4769360  45.3167780 109.8372280  39.9442550  52.0175370
 110.4744500  40.5576690  52.3834560 109.9847170  39.9803210  51.0724600
 112.3796830  41.8356340  38.7998510 113.3046140  41.7037520  38.5916800
 112.3572620  41.9149160  39.7534960 112.4535320  42.6067000  41.4255220
 111.6586820  42.5412120  41.9548130 112.6578600  43.5417640  41.4140570
 109.3953740  56.6458550  45.4193610 109.9912810  56.3243120  44.7428030
 109.6531890  56.1730370  46.2106880  95.6951940  39.9056860  51.4031050
  95.3466760  40.3620680  52.1689230  95.3639640  39.0113990  51.4853480
 101.0022340  54.6336050  51.1693960 100.7613700  54.9010610  50.2824480
 101.9424980  54.8041780  51.2244820 103.2076760  41.0968740  54.9250470
 103.1465650  41.6890570  55.6745880 104.1477140  40.9894700  54.7800730
 105.8451320  40.7538800  54.5642760 106.4591730  41.0718090  53.9023840
 106.3900880  40.2687390  55.1838620 112.2626500  56.6530430  51.9704600
 111.7684780  57.0499300  51.2531730 111.6539790  56.0279640  52.3641880
  96.3672580  39.4333060  54.6781820  96.9155570  39.2521110  53.9147930
  96.4327890  38.6427170  55.2138130  97.1404340  56.0238710  52.6882020
  96.5464660  55.8923410  53.4272060  97.1328180  55.1876850  52.2224120
 107.4931340  41.5241810  52.2753770 107.1644700  40.7093570  51.8955500
 108.4413640  41.4811620  52.1519460 103.1157170  56.4950580  49.2508450
 103.4034980  56.2404880  48.3741460 103.6280390  55.9427940  49.8414020
  95.0546570  56.7071480  44.8486820  94.8868610  56.0742160  45.5468710
  94.1881080  56.9130880  44.4981010  95.6774590  40.5388260  42.3518680
  96.4353950  40.6517140  41.7782710  95.2151760  41.3757460  42.3062110
 102.2188400  42.6527530  45.3420990 101.4062910  42.2784420  45.0016870
 102.7230040  41.8972610  45.6442180 109.8647980  39.7191540  41.8544340
 110.0598610  40.6174990  42.1211770 109.0777850  39.4878620  42.3477290
  96.6609270  55.4004710  42.2936960  96.1356890  55.7812740  41.5898920
  96.5853850  56.0255480  43.0146670 100.2437580  40.8027450  43.9466040
  99.6140320  40.1014760  44.1136170  99.7042720  41.5631580  43.7299200
 103.1829530  57.4166680  56.6176650 104.1096840  57.1810950  56.6612610
 103.1679960  58.2438680  56.1362680 100.3693140  40.0811430  56.3818530
 100.0877410  40.5845030  55.6179350 100.7512840  39.2833180  56.0160660
  99.2602240  57.3487090  41.1686210  99.9921060  57.0646370  40.6210100
  99.5195910  57.1100370  42.0585590  98.4217030  53.4651820  41.1732540
  97.7925910  53.9336920  41.7218370  98.5364860  52.6201040  41.6078730
 106.9708600  39.4965010  56.9599000 106.8574050  39.8159620  57.8550520
 107.7878340  39.8977520  56.6636280 105.8766750  47.5157480  27.3233740
 105.7960800  46.6012090  27.0525450 105.4631170  48.0124550  26.6173450
 104.0084790  49.2936500  29.2043010 103.2326890  48.8136940  29.4941580
 104.6597720  48.6142150  29.0299170  98.0250620  49.6056310  30.0818770
  97.1935500  49.3505020  30.4815280  98.6331600  49.6767080  30.8176690
 108.0292220  53.6996690  27.9842140 107.5673750  52.9283930  28.3129310
 108.8417770  53.7262760  28.4894590  98.0051880  53.6396400  30.2776790
  98.3079920  52.7494140  30.0987010  98.7495470  54.1966620  30.0499040
  96.4342570  44.5658200  23.8661160  95.5459270  44.9074170  23.7641040
  96.7183760  44.3658520  22.9741990 104.2555530  55.9854700  27.6046130
 103.6366970  56.4412200  27.0340570 105.1107310  56.1406160  27.2035830
 103.4493780  51.9693690  29.2113170 103.3802060  51.0283630  29.0502300
 104.2113640  52.0595100  29.7835740 104.4798950  44.7764070  29.4382100
 104.8563770  43.9035950  29.3255770 104.3818460  45.1122770  28.5472540
  98.6103960  43.1489700  24.8999540  98.7170710  44.0493430  25.2068300
  97.6996320  43.1007670  24.6094190 108.2623070  42.2714510  26.3710440
 109.0832690  41.7811080  26.4135920 108.2957150  42.8612170  27.1242280
 100.4511690  46.1176070  29.2324720 100.9589910  46.6157040  29.8729740
 100.9824930  45.3411270  29.0564080 112.5522620  44.2881260  32.9354070
 111.8474790  44.6762970  32.4169180 112.8180540  44.9831550  33.5375000
 105.1218880  50.8693940  24.9978040 104.5036150  51.3343390  24.4340760
 105.6342130  51.5621420  25.4147550  99.9850640  50.3969810  31.6761640
  99.6520020  51.0238730  32.3182710 100.1617320  50.9231690  30.8963310
 108.4984550  44.2114890  29.1437980 107.7940120  44.4999780  29.7241090
 108.8596710  45.0215000  28.7837540  99.1969740  52.3650610  33.4910820
  99.8143740  53.0401690  33.2095270  98.3362860  52.7738590  33.3998320
  94.4902080  51.5550470  22.3717670  94.1130060  52.0437570  21.6402570
  94.7475150  52.2275750  23.0024200 111.5671470  43.6569680  29.5347190
 110.6196380  43.6908660  29.6662620 111.8921460  44.4708630  29.9196550
 108.9451490  52.3950370  25.2100810 108.8347820  51.4524700  25.3350230
 108.9419740  52.7566010  26.0963570 104.4871770  48.0215690  24.5663300
 103.5601050  47.9553070  24.7951770 104.6396590  48.9595820  24.4518540
 104.4740850  44.2932690  21.5630460 103.5344520  44.4546650  21.6482920
 104.7924110  45.0118370  21.0166450 110.9953610  48.9751210  31.5409490
 110.1672240  49.0444300  31.0659620 111.5904090  49.5605520  31.0725320
 108.5169060  49.5835990  25.0698550 107.8981480  49.2455540  24.4224850
 108.4993510  48.9395750  25.7777740 107.9595620  45.7620530  32.4864360
 107.5466800  46.5874240  32.7404350 107.2271570  45.1765570  32.2940720
 100.0928410  48.5480430  27.3483030  99.6885410  47.8357680  26.8528930
 100.1791530  48.2033670  28.2371070 100.5610110  52.2347990  29.5122240
 100.2638400  51.6293460  28.8330020 101.5109930  52.2725300  29.4011600
  98.8057030  45.3223640  31.1282070  99.3571620  45.4318980  30.3535320
  99.3200540  45.6961240  31.8437300  99.6528540  51.9729680  36.1630040
  98.7557070  52.1969650  36.4103440  99.6781410  52.0964620  35.2141440
 106.6933760  48.8222800  22.0771300 107.1327040  47.9845230  21.9309120
 107.4062180  49.4552200  22.1635440  98.4799760  48.8443000  34.7387410
  98.3407530  49.7165800  35.1074810  97.5981120  48.5015810  34.5935350
 104.8029140  53.7618870  26.0452540 105.2425050  54.5043200  25.6307930
 104.7416030  54.0045440  26.9691500 100.2780110  54.7864700  36.9472560
 100.2495540  55.1907650  36.0800990 100.1145080  53.8575060  36.7844160
 110.2750900  40.0765610  20.3912340 109.9623560  40.1692440  21.2911410
 111.0363370  40.6546640  20.3409770  96.7933040  47.4425410  24.8489680
  96.6730640  48.1687500  24.2370950  96.4833930  46.6728320  24.3717590
 112.2294930  55.5691800  38.2436730 112.7054650  56.0474690  38.9225810
 112.8502090  55.5009290  37.5182230  94.4318410  50.6140550  30.6558320
  94.5098830  50.7489320  29.7114040  95.0460090  49.9056440  30.8486440
  95.6766040  52.3140740  27.0664500  95.2694120  52.4555330  26.2118100
  96.5679050  52.0300900  26.8635710 105.4944920  56.4632650  33.9731550
 106.0089590  56.3740660  34.7753980 104.6514000  56.8092350  34.2659460
 107.4699320  56.7487990  23.4015550 107.3100460  56.4590930  24.2997380
 107.3046030  55.9728120  22.8660780  99.9487700  56.5286520  25.1787170
  99.7730180  55.6122060  24.9654970  99.0943440  56.8873810  25.4184970
 107.1725450  54.2575550  21.9613550 106.4790610  54.2552840  21.3015830
 107.9148310  53.8334870  21.5307720 106.7375380  55.8838260  26.0362040
 107.1932330  55.1027640  26.3500660 107.0767900  56.5945080  26.5803220
 111.4852190  44.8137110  36.3686480 110.8696460  45.3216780  35.8401940
 111.1648610  43.9135440  36.3112420  94.4877930  51.6554720  33.1952780
  94.6508970  51.1860080  32.3772150  94.9530380  51.1478280  33.8601620
 102.3755520  40.4071180  23.1119180 101.7509700  40.4031050  23.8372490
 102.2885640  39.5402140  22.7155150  99.0510920  45.9094050  25.9594600
  98.8251840  45.6931220  26.8641220  98.2703450  46.3422510  25.6140570
 106.2808680  45.9157420  24.5585250 105.6817570  46.6393220  24.3748870
 106.8288290  45.8534200  23.7761700 101.4910130  46.8079630  36.6254870
 101.3953730  45.8674360  36.4755270 102.3342110  47.0294700  36.2302940
 104.8873550  44.5520960  26.5888530 105.2803120  44.8693160  25.7757220
 105.2490400  43.6732840  26.7033050  96.6220670  43.2193300  34.7788650
  96.2284060  44.0668510  34.9861430  95.9339070  42.5819670  34.9697290
  94.1107950  45.0841880  20.0221450  94.0282620  46.0272640  20.1636440
  93.7591010  44.9416790  19.1433800 105.4728690  47.1426710  30.6839310
 104.7409810  47.6513520  31.0329410 105.0753030  46.3256690  30.3828090
 101.9106080  43.8180910  29.0891800 101.9142140  43.3770860  28.2396340
 102.8057200  44.1398240  29.1963620 101.9726230  44.8192990  22.0798560
 102.0939050  44.7779470  23.0284380 101.5874740  45.6817140  21.9245290
 105.9354600  42.5960390  30.0962250 105.9527340  43.0469040  30.9404100
 105.6870180  41.6966030  30.3095690 100.9847730  47.1294130  21.4781860
 100.4164630  46.6812380  20.8517770 101.6936730  47.4886910  20.9447010
 109.3625350  40.0092570  35.9348630 109.6871120  39.2782230  36.4606610
 109.3981860  39.6906210  35.0329620  96.0616910  51.0306150  35.3548590
  95.6771700  50.3899820  35.9531550  96.3729100  51.7342270  35.9243320
 102.2114050  47.8782690  30.8357210 102.5784180  47.4041260  31.5818550
 102.0219110  48.7524260  31.1765550 100.0013420  46.9191330  33.1541420
  99.6970490  47.7983310  33.3791780 100.9559880  46.9791120  33.1898860
  98.5295210  51.1252320  23.7508270  97.7557470  50.5849940  23.5906990
  99.2589840  50.6058930  23.4126030 109.2883190  50.1217680  29.5434660
 110.0082310  50.6172970  29.1530770 109.0865010  49.4435570  28.8988530
 104.7493130  41.5155640  23.6864050 103.9357740  41.0168810  23.6109360
 104.5555080  42.3553890  23.2700400 107.4641520  45.8875290  21.9826210
 108.3521140  46.1992520  21.8077550 107.4346610  45.0147540  21.5906790
  98.5732610  50.7932700  27.3887080  99.0911280  49.9900960  27.3343970
  98.1216630  50.7311840  28.2303910 103.4602110  52.0598980  22.6614380
 103.8017810  52.8041210  22.1657700 102.6314820  52.3730100  23.0239210
  96.0577150  47.7594070  34.3012780  95.6992090  48.4247920  34.8886120
  95.7631710  46.9277620  34.6725400  99.2590270  48.2178310  37.1852330
  98.9590410  48.3635490  36.2880150 100.0301510  47.6583600  37.0925720
 109.7355790  47.1987130  21.4506070 109.6519510  47.6301350  20.6002510
 110.4549980  47.6585480  21.8832890 110.7643040  54.0529390  24.1788200
 110.1219200  53.3985010  24.4531920 110.3773700  54.4584480  23.4028870
 106.3429520  51.3814820  28.0259890 106.6953340  50.7842950  27.3661260
 105.4591850  51.0559050  28.1968140 102.4292800  52.1412510  25.4330300
 103.1163930  52.6881720  25.8137890 101.6425220  52.6853240  25.4679910
  94.5685200  47.7585330  20.9247380  95.4380050  48.0410130  21.2083300
  94.0775520  48.5721200  20.8096190 101.7320010  49.1458540  25.0455660
 102.1882790  49.9563790  25.2715850 101.3808220  48.8281680  25.8774150
 104.0352620  54.6564880  32.2747960 104.6794840  54.8624260  32.9521380
 104.3982060  53.8953280  31.8218810  97.6331790  39.4896190  25.5178180
  97.5046420  39.4814090  26.4663100  96.8093810  39.8279280  25.1669190
 109.1540420  52.9445850  20.7164550 108.9278000  52.2276290  21.3089190
 108.7636620  52.6958290  19.8786300  94.9356450  56.9712710  21.4909010
  95.2954090  57.5702050  20.8366280  94.7948790  57.5172600  22.2644040
  94.6325720  41.2487310  34.9784880  93.9184240  41.4484230  35.5837490
  95.0520760  40.4726880  35.3499680 108.7356670  50.8617790  22.3778710
 108.4478370  51.3230480  23.1656590 109.5308840  50.4015560  22.6462930
  94.9198310  55.2367570  35.9651410  95.0289430  54.2962310  35.8246800
  94.2678870  55.5022320  35.3165140 100.9525070  54.3543910  22.3082680
 100.9435170  55.0873600  21.6927190 100.0323430  54.1075490  22.4009640
  96.5531710  49.5758800  23.0529440  95.9459660  50.3157700  23.0624740
  97.0281060  49.6658160  22.2267640 109.4926530  42.6966560  23.5373890
 108.8639690  42.8012230  22.8232120 108.9978450  42.9163340  24.3267770
 103.9384670  54.4172150  20.9707870 104.0396650  54.2136140  20.0409850
 103.0386410  54.1630430  21.1755650 101.4610560  44.9752510  24.9531770
 100.7526710  45.4438850  25.3945380 101.7455040  44.3174520  25.5876960
 103.0866490  46.3949210  32.9524300 103.5851740  46.8695030  33.6176150
 103.2289440  45.4712730  33.1594330 105.4925990  41.7003170  26.3927560
 105.3693770  41.7189300  25.4437070 106.4410550  41.7482110  26.5125960
 102.5802780  56.9358470  25.6655540 102.8344280  56.8979860  24.7434910
 101.6315260  56.8091800  25.6583790  99.6645580  43.2837590  22.3282480
 100.5136110  43.7207740  22.2622670  99.2976850  43.5957850  23.1554540
 110.2933350  42.6117170  33.7952690 109.7906950  43.3522570  34.1346500
 111.1090010  43.0001170  33.4789480 108.5855360  47.8550350  27.2414050
 107.6445500  47.8700580  27.4161740 108.8999430  47.0686310  27.6874350
  98.5637000  49.5369950  20.8018010  99.3300270  49.4251310  21.3643440
  98.6411690  48.8407920  20.1494780  97.2583760  46.9695020  21.4850900
  97.3387350  46.0222530  21.5968300  98.1503510  47.3001900  21.5911560
 110.5880940  55.0259200  28.9168310 110.7128360  55.8490370  29.3892120
 111.4546500  54.8149930  28.5692460  98.0598470  57.1190410  28.5885440
  98.7960950  56.5705870  28.8594010  98.4439390  57.9846420  28.4491430
  94.9443950  53.1863980  24.4626950  94.0183730  53.4285120  24.4532360
  95.4100380  54.0138240  24.3411700  97.0656750  56.3036480  37.7771020
  97.8669480  56.6248530  38.1906420  96.5508570  55.9432060  38.4990930
 101.1700780  56.2920720  20.4111010 101.9629390  56.5809550  19.9592800
 100.6505130  55.8612890  19.7323490 110.2230950  55.5190850  21.8347750
 109.9372460  55.1055990  21.0201930 110.0250500  56.4478560  21.7148270
  94.7854560  48.7909940  36.7207070  95.2893580  48.2117220  37.2923300
  94.0461980  49.0750170  37.2583440 101.6878180  51.5124130  20.2753360
 101.5828820  50.8976480  21.0014740 101.5202400  50.9890020  19.4916370
 101.8392500  50.1980930  36.2542590 101.0738170  50.7665930  36.1697260
 102.0208460  49.9057140  35.3610820 104.9280910  50.5744160  20.8795350
 104.3791010  51.0213460  21.5238090 105.5500170  50.0693410  21.4033020
  96.8177640  46.9339530  37.6157140  96.8582980  46.6353400  38.5242370
  97.6723140  47.3347140  37.4564660 100.5956030  49.5335080  22.7760650
 101.0172450  49.3674950  23.6192040 100.7206870  48.7235310  22.2815790
  98.7583450  45.5131630  35.5831630  98.2279910  45.0222580  34.9554970
  99.4271520  45.9415830  35.0489560 103.1083670  48.5572690  20.0237750
 103.6289330  47.8421710  19.6578900 103.7552070  49.1958560  20.3238260
 102.4176740  49.9321570  33.3168750 102.8364850  50.7754300  33.1444990
 101.4985370  50.0693610  33.0875530  99.4914930  45.6068310  19.7218810
  99.2903990  44.7435670  20.0832150  99.3206980  45.5201670  18.7840410
 100.2684160  56.2374580  34.4326480  99.7305250  56.9620640  34.1135180
 100.5218120  55.7604920  33.6423820 106.9703240  40.4176540  22.2505690
 107.2505530  39.5744440  22.6065110 106.1968970  40.6499650  22.7644440
  98.2897730  42.7068930  19.7096690  98.5923630  42.7136360  18.8015840
  99.0292320  42.3566790  20.2064350 103.1246370  57.4725790  34.6913130
 103.0505070  58.3760930  34.9985500 102.2225210  57.1537690  34.6635200
 101.5082660  41.6503550  20.6952890 101.1604660  40.9727540  20.1155340
 101.7095430  41.1893060  21.5096280 103.6731700  56.6384300  22.3139490
 104.5682490  56.9769270  22.3358250 103.7049330  55.9163710  21.6863770
  97.3127860  52.0111350  20.5426490  97.7502730  52.5541020  21.1984070
  97.7975590  51.1858300  20.5522830  94.5273660  54.8000380  27.9946750
  94.8576670  53.9321440  27.7625390  94.9564660  55.0058900  28.8251710
  99.1235580  53.1309390  25.6548720  98.8231120  53.0074360  26.5552630
  99.0173070  52.2717980  25.2464450  95.0163870  55.6670970  30.7328380
  94.5794860  55.8471770  31.5652530  95.5841550  56.4245590  30.5910100
 111.8927500  52.9105790  20.3575400 111.0620460  52.9782440  20.8282630
 112.0699330  53.8009910  20.0542260 111.3483960  49.6553270  22.8609600
 112.1102870  50.2249920  22.9669290 111.3638330  49.0880470  23.6317910
  94.8488300  48.1791200  27.0917260  94.1937140  47.9102840  26.4476960
  95.6866250  48.0695680  26.6419240 112.3543930  50.5103370  27.7051530
 112.7252760  49.7270690  27.2987500 112.9945860  51.1992470  27.5268830
 111.4003130  49.9487640  20.0182120 111.6751970  50.8566520  19.8901340
 111.2113870  49.8850170  20.9544110 107.7978740  42.9732490  21.3135750
 108.2163620  42.7863470  20.4732410 107.4914800  42.1211540  21.6238680
 111.2968470  47.8856630  25.0111550 110.9212070  47.1184560  24.5792840
 110.5671590  48.2679330  25.4986480  95.8864230  48.5643770  31.6320600
  96.2537270  48.4771170  32.5116620  95.3175050  47.8010320  31.5327460
 110.6868090  47.0328150  34.6451070 110.4554180  46.8040900  33.7449020
 110.9472640  47.9527700  34.5995960  95.4380230  45.4752860  35.5379020
  94.5436280  45.4419620  35.8772730  95.9777780  45.6739650  36.3030270
 109.1256160  42.2584580  37.4230770 110.0026340  42.2667980  37.8064770
 109.1377000  41.5215420  36.8123120  94.0626380  45.3890130  23.0342590
  93.1590460  45.6520330  22.8594250  94.5467000  45.6601300  22.2542550
 110.5719430  46.1114120  28.3118790 111.0956910  45.6176770  27.6808960
 111.1578850  46.2464480  29.0566360 110.7509150  46.1953990  31.8338340
 109.8011860  46.1617530  31.9483330 110.9322160  47.1054100  31.5988110
  96.6053590  44.4455670  20.9436970  97.3145290  44.0238890  20.4584250
  95.8893530  44.5130900  20.3120320  96.2527750  40.4995000  19.9839620
  96.9755880  41.0403940  20.3020840  96.5252270  40.2258420  19.1081160
 110.0619400  45.3687470  24.2511200 110.5578520  45.1358340  25.0360080
 109.8635470  44.5299310  23.8348840 111.4906560  44.0048420  26.7848880
 111.3805840  43.8504460  27.7231150 112.2514150  43.4769360  26.5424290
 109.8372280  39.9442550  33.2431880 110.4744500  40.5576690  33.6091070
 109.9847170  39.9803210  32.2981110 112.3796830  41.8356340  20.0255020
 113.3046140  41.7037520  19.8173310 112.3572620  41.9149160  20.9791470
 112.4535320  42.6067000  22.6511730 111.6586820  42.5412120  23.1804640
 112.6578600  43.5417640  22.6397080 109.3953740  56.6458550  26.6450120
 109.9912810  56.3243120  25.9684540 109.6531890  56.1730370  27.4363390
  95.6951940  39.9056860  32.6287560  95.3466760  40.3620680  33.3945740
  95.3639640  39.0113990  32.7109990  97.3016310  53.0776460  36.7940750
  97.2585940  52.7069370  37.6755210  97.4327320  54.0154030  36.9342570
 101.0022340  54.6336050  32.3950470 100.7613700  54.9010610  31.5080990
 101.9424980  54.8041780  32.4501330 105.8451320  40.7538800  35.7899270
 106.4591730  41.0718090  35.1280350 106.3900880  40.2687390  36.4095130
 112.2626500  56.6530430  33.1961110 111.7684780  57.0499300  32.4788240
 111.6539790  56.0279640  33.5898390  96.3672580  39.4333060  35.9038330
  96.9155570  39.2521110  35.1404440  96.4327890  38.6427170  36.4394640
  97.1404340  56.0238710  33.9138530  96.5464660  55.8923410  34.6528570
  97.1328180  55.1876850  33.4480630 106.5859360  39.3170940  32.1168560
 105.7119200  39.6506050  31.9141490 106.4770110  38.8444120  32.9420430
 107.4931340  41.5241810  33.5010280 107.1644700  40.7093570  33.1212010
 108.4413640  41.4811620  33.3775970 109.9465950  57.2953850  30.4747850
 109.4868920  58.0469660  30.1005870 109.3178410  56.5760320  30.4162650
  96.7716570  53.3897090  32.8646570  96.0450630  52.7702380  32.7972520
  96.8325720  53.7837700  31.9944650 100.3761670  55.6042090  29.6495980
 100.8926690  54.9929450  29.1244240 101.0259050  56.1070870  30.1406990
 103.1157170  56.4950580  30.4764960 103.4034980  56.2404880  29.5997970
 103.6280390  55.9427940  31.0670530 108.8855250  40.9363880  29.1010560
 109.3263340  40.8808980  28.2532160 108.6162840  41.8521890  29.1720740
 110.7493820  40.5679120  27.1119380 110.6882220  39.6240340  26.9650400
 111.5285850  40.6759210  27.6572840  95.0546570  56.7071480  26.0743330
  94.8868610  56.0742160  26.7725220  94.1881080  56.9130880  25.7237520
  95.6774590  40.5388260  23.5775190  96.4353950  40.6517140  23.0039220
  95.2151760  41.3757460  23.5318620 102.2188400  42.6527530  26.5677500
 101.4062910  42.2784420  26.2273380 102.7230040  41.8972610  26.8698690
 106.7213380  39.3169980  27.8060570 107.3242750  39.8890190  28.2809090
 105.9806370  39.8809420  27.5834470 109.8647980  39.7191540  23.0800850
 110.0598610  40.6174990  23.3468280 109.0777850  39.4878620  23.5733800
  96.6609270  55.4004710  23.5193470  96.1356890  55.7812740  22.8155430
  96.5853850  56.0255480  24.2403180  98.0499740  41.0652310  22.1177160
  98.5792500  40.2782110  21.9885110  98.6828060  41.7443500  22.3512690
 100.2437580  40.8027450  25.1722550  99.6140320  40.1014760  25.3392680
  99.7042720  41.5631580  24.9555710 103.1829530  57.4166680  37.8433160
 104.1096840  57.1810950  37.8869120 103.1679960  58.2438680  37.3619190
 111.4174590  56.9592250  24.8407410 111.5926780  56.2729990  24.1968330
 110.7196160  57.4839300  24.4484080  99.2602240  57.3487090  22.3942720
  99.9921060  57.0646370  21.8466610  99.5195910  57.1100370  23.2842100
  98.4217030  53.4651820  22.3989050  97.7925910  53.9336920  22.9474880
  98.5364860  52.6201040  22.8335240 106.9708600  39.4965010  38.1855510
 106.8574050  39.8159620  39.0807030 107.7878340  39.8977520  37.8892790
 109.7507090  56.6436540  37.6674200 110.5432410  56.1485770  37.4600160
 110.0440240  57.3226680  38.2749810 105.8766750  47.5157480   8.5490250
 105.7960800  46.6012090   8.2781960 105.4631170  48.0124550   7.8429960
 104.0084790  49.2936500  10.4299520 103.2326890  48.8136940  10.7198090
 104.6597720  48.6142150  10.2555680  98.0250620  49.6056310  11.3075280
  97.1935500  49.3505020  11.7071790  98.6331600  49.6767080  12.0433200
 108.0292220  53.6996690   9.2098650 107.5673750  52.9283930   9.5385820
 108.8417770  53.7262760   9.7151100  98.0051880  53.6396400  11.5033300
  98.3079920  52.7494140  11.3243520  98.7495470  54.1966620  11.2755550
  96.4342570  44.5658200   5.0917670  95.5459270  44.9074170   4.9897550
  96.7183760  44.3658520   4.1998500  94.3975580  47.1663850  10.9757370
  94.9691690  46.3986050  10.9761010  94.3977120  47.4652610  10.0663980
 104.2555530  55.9854700   8.8302640 103.6366970  56.4412200   8.2597080
 105.1107310  56.1406160   8.4292340 103.4493780  51.9693690  10.4369680
 103.3802060  51.0283630  10.2758810 104.2113640  52.0595100  11.0092250
  95.6400450  42.5748210  12.7626300  95.4603290  41.6773960  13.0429060
  95.2380530  43.1220080  13.4373250 104.4798950  44.7764070  10.6638610
 104.8563770  43.9035950  10.5512280 104.3818460  45.1122770   9.7729050
  98.6103960  43.1489700   6.1256050  98.7170710  44.0493430   6.4324810
  97.6996320  43.1007670   5.8350700 108.2623070  42.2714510   7.5966950
 109.0832690  41.7811080   7.6392430 108.2957150  42.8612170   8.3498790
  96.2587120  45.0708710  11.3708640  96.9397230  45.3347080  11.9896040
  95.9435170  44.2309580  11.7046650 100.4511690  46.1176070  10.4581230
 100.9589910  46.6157040  11.0986250 100.9824930  45.3411270  10.2820590
 112.5522620  44.2881260  14.1610580 111.8474790  44.6762970  13.6425690
 112.8180540  44.9831550  14.7631510  98.7347790  40.7574630  14.7244650
  98.7366230  41.2747020  13.9190550  97.9052100  40.2804810  14.7014580
 105.1218880  50.8693940   6.2234550 104.5036150  51.3343390   5.6597270
 105.6342130  51.5621420   6.6404060  99.9850640  50.3969810  12.9018150
  99.6520020  51.0238730  13.5439220 100.1617320  50.9231690  12.1219820
 108.4984550  44.2114890  10.3694490 107.7940120  44.4999780  10.9497600
 108.8596710  45.0215000  10.0094050  98.4163120  42.4684590  12.7315100
  98.7579930  43.3126640  12.4368970  97.4778930  42.6168330  12.8480440
  99.1969740  52.3650610  14.7167330  99.8143740  53.0401690  14.4351780
  98.3362860  52.7738590  14.6254830  94.4902080  51.5550470   3.5974180
  94.1130060  52.0437570   2.8659080  94.7475150  52.2275750   4.2280710
 110.1147330  53.8290020  12.6321970 109.4310850  54.4989130  12.6238640
 110.6541620  54.0270670  11.8666830 111.5671470  43.6569680  10.7603700
 110.6196380  43.6908660  10.8919130 111.8921460  44.4708630  11.1453060
 102.0991010  39.9566860   9.0559690 102.4065990  39.4013750   8.3395190
 101.1691710  40.0911320   8.8732680 107.6506070  55.6734150  11.3467150
 107.6633230  55.2696440  10.4789410 107.0981290  56.4481440  11.2428580
 108.9451490  52.3950370   6.4357320 108.8347820  51.4524700   6.5606740
 108.9419740  52.7566010   7.3220080 107.0491510  50.5763990  12.6749760
 107.4660300  50.3624100  11.8403220 107.7731330  50.8336780  13.2458380
 104.4871770  48.0215690   5.7919810 103.5601050  47.9553070   6.0208280
 104.6396590  48.9595820   5.6775050 104.4740850  44.2932690   2.7886970
 103.5344520  44.4546650   2.8739430 104.7924110  45.0118370   2.2422960
 110.9953610  48.9751210  12.7666000 110.1672240  49.0444300  12.2916130
 111.5904090  49.5605520  12.2981830 108.5169060  49.5835990   6.2955060
 107.8981480  49.2455540   5.6481360 108.4993510  48.9395750   7.0034250
 107.9595620  45.7620530  13.7120870 107.5466800  46.5874240  13.9660860
 107.2271570  45.1765570  13.5197230 100.0928410  48.5480430   8.5739540
  99.6885410  47.8357680   8.0785440 100.1791530  48.2033670   9.4627580
 100.5610110  52.2347990  10.7378750 100.2638400  51.6293460  10.0586530
 101.5109930  52.2725300  10.6268110  98.8057030  45.3223640  12.3538580
  99.3571620  45.4318980  11.5791830  99.3200540  45.6961240  13.0693810
 108.6495720  55.8079860  14.4001850 108.1726280  56.6152050  14.2074460
 107.9657510  55.1558190  14.5528060  99.6528540  51.9729680  17.3886550
  98.7557070  52.1969650  17.6359950  99.6781410  52.0964620  16.4397950
 106.6933760  48.8222800   3.3027810 107.1327040  47.9845230   3.1565630
 107.4062180  49.4552200   3.3891950  98.4799760  48.8443000  15.9643920
  98.3407530  49.7165800  16.3331320  97.5981120  48.5015810  15.8191860
 104.8029140  53.7618870   7.2709050 105.2425050  54.5043200   6.8564440
 104.7416030  54.0045440   8.1948010 100.2780110  54.7864700  18.1729070
 100.2495540  55.1907650  17.3057500 100.1145080  53.8575060  18.0100670
  96.7933040  47.4425410   6.0746190  96.6730640  48.1687500   5.4627460
  96.4833930  46.6728320   5.5974100 112.2294930  55.5691800  19.4693240
 112.7054650  56.0474690  20.1482320 112.8502090  55.5009290  18.7438740
  94.4318410  50.6140550  11.8814830  94.5098830  50.7489320  10.9370550
  95.0460090  49.9056440  12.0742950  95.6766040  52.3140740   8.2921010
  95.2694120  52.4555330   7.4374610  96.5679050  52.0300900   8.0892220
 111.6328180  52.7604650  16.6293250 111.7591240  52.5216530  15.7110430
 111.6749560  51.9289190  17.1015330 105.4944920  56.4632650  15.1988060
 106.0089590  56.3740660  16.0010490 104.6514000  56.8092350  15.4915970
 107.4699320  56.7487990   4.6272060 107.3100460  56.4590930   5.5253890
 107.3046030  55.9728120   4.0917290  99.9487700  56.5286520   6.4043680
  99.7730180  55.6122060   6.1911480  99.0943440  56.8873810   6.6441480
 107.1725450  54.2575550   3.1870060 106.4790610  54.2552840   2.5272340
 107.9148310  53.8334870   2.7564230 106.7375380  55.8838260   7.2618550
 107.1932330  55.1027640   7.5757170 107.0767900  56.5945080   7.8059730
 111.4852190  44.8137110  17.5942990 110.8696460  45.3216780  17.0658450
 111.1648610  43.9135440  17.5368930  94.4877930  51.6554720  14.4209290
  94.6508970  51.1860080  13.6028660  94.9530380  51.1478280  15.0858130
  99.2596700  40.7860480   9.4569860  98.8164850  41.5670020   9.1254380
  99.8181690  41.1090370  10.1640800 103.5466510  43.6529000  15.0605180
 103.0845880  43.8612020  15.8725120 103.1444620  42.8388350  14.7575850
 108.5471020  44.8737950  16.1901840 107.6964610  44.5743700  16.5110910
 108.3872810  45.1179960  15.2785660 105.6420730  46.3739700  18.2900630
 105.9674140  45.5403450  17.9502860 106.4301060  46.8968220  18.4378960
 102.3755520  40.4071180   4.3375690 101.7509700  40.4031050   5.0629000
 102.2885640  39.5402140   3.9411660 101.2972600  41.3307810  11.3159460
 101.5944930  42.2370640  11.2351480 101.8458160  40.8426590  10.7019030
  99.0510920  45.9094050   7.1851110  98.8251840  45.6931220   8.0897730
  98.2703450  46.3422510   6.8397080 106.2808680  45.9157420   5.7841760
 105.6817570  46.6393220   5.6005380 106.8288290  45.8534200   5.0018210
 101.4910130  46.8079630  17.8511380 101.3953730  45.8674360  17.7011780
 102.3342110  47.0294700  17.4559450 104.8873550  44.5520960   7.8145040
 105.2803120  44.8693160   7.0013730 105.2490400  43.6732840   7.9289560
  96.6220670  43.2193300  16.0045160  96.2284060  44.0668510  16.2117940
  95.9339070  42.5819670  16.1953800 103.1965720  43.3028270  19.0741900
 102.5064040  43.1100470  19.7087990 103.9398020  43.5862910  19.6066200
  93.9237720  41.1421760  10.0375240  93.6350770  41.7124620  10.7500220
  94.6683480  40.6626210  10.4006470 105.4728690  47.1426710  11.9095820
 104.7409810  47.6513520  12.2585920 105.0753030  46.3256690  11.6084600
 101.9106080  43.8180910  10.3148310 101.9142140  43.3770860   9.4652850
 102.8057200  44.1398240  10.4220130  97.7608460  43.7007400   9.2742520
  97.4208510  44.1782630  10.0309570  96.9985780  43.2472520   8.9143620
 101.9726230  44.8192990   3.3055070 102.0939050  44.7779470   4.2540890
 101.5874740  45.6817140   3.1501800 105.9354600  42.5960390  11.3218760
 105.9527340  43.0469040  12.1660610 105.6870180  41.6966030  11.5352200
 100.9847730  47.1294130   2.7038370 100.4164630  46.6812380   2.0774280
 101.6936730  47.4886910   2.1703520 109.3625350  40.0092570  17.1605140
 109.6871120  39.2782230  17.6863120 109.3981860  39.6906210  16.2586130
  96.0616910  51.0306150  16.5805100  95.6771700  50.3899820  17.1788060
  96.3729100  51.7342270  17.1499830 102.2114050  47.8782690  12.0613720
 102.5784180  47.4041260  12.8075060 102.0219110  48.7524260  12.4022060
  95.0754540  42.6226380   8.1907190  94.7901460  42.2582050   9.0285810
  95.0133400  41.8906840   7.5770330 100.0013420  46.9191330  14.3797930
  99.6970490  47.7983310  14.6048290 100.9559880  46.9791120  14.4155370
  98.5295210  51.1252320   4.9764780  97.7557470  50.5849940   4.8163500
  99.2589840  50.6058930   4.6382540 109.2883190  50.1217680  10.7691170
 110.0082310  50.6172970  10.3787280 109.0865010  49.4435570  10.1245040
 104.7493130  41.5155640   4.9120560 103.9357740  41.0168810   4.8365870
 104.5555080  42.3553890   4.4956910 104.6701990  50.1926740  16.6560170
 104.6039300  49.2722410  16.4017760 104.0407130  50.2902180  17.3704810
 107.4641520  45.8875290   3.2082720 108.3521140  46.1992520   3.0334060
 107.4346610  45.0147540   2.8163300  98.5732610  50.7932700   8.6143590
  99.0911280  49.9900960   8.5600480  98.1216630  50.7311840   9.4560420
 103.4602110  52.0598980   3.8870890 103.8017810  52.8041210   3.3914210
 102.6314820  52.3730100   4.2495720  96.0577150  47.7594070  15.5269290
  95.6992090  48.4247920  16.1142630  95.7631710  46.9277620  15.8981910
  99.2590270  48.2178310  18.4108840  98.9590410  48.3635490  17.5136660
 100.0301510  47.6583600  18.3182230 104.6018720  53.0147310  16.4063970
 104.6163260  52.0828270  16.1882880 103.8943820  53.1007070  17.0453740
 109.7355790  47.1987130   2.6762580 109.6519510  47.6301350   1.8259020
 110.4549980  47.6585480   3.1089400 110.8129930  49.6554650  15.7532550
 110.0878120  50.2483430  15.5561940 111.3405390  49.6478190  14.9545920
 110.7643040  54.0529390   5.4044710 110.1219200  53.3985010   5.6788430
 110.3773700  54.4584480   4.6285380 106.3429520  51.3814820   9.2516400
 106.6953340  50.7842950   8.5917770 105.4591850  51.0559050   9.4224650
 102.4292800  52.1412510   6.6586810 103.1163930  52.6881720   7.0394400
 101.6425220  52.6853240   6.6936420  94.5685200  47.7585330   2.1503890
  95.4380050  48.0410130   2.4339810  94.0775520  48.5721200   2.0352700
 101.7320010  49.1458540   6.2712170 102.1882790  49.9563790   6.4972360
 101.3808220  48.8281680   7.1030660 104.0352620  54.6564880  13.5004470
 104.6794840  54.8624260  14.1777890 104.3982060  53.8953280  13.0475320
  97.6331790  39.4896190   6.7434690  97.5046420  39.4814090   7.6919610
  96.8093810  39.8279280   6.3925700 105.3084700  52.6597230  12.2181920
 105.9506930  51.9590390  12.3314090 105.8334050  53.4395670  12.0378810
 107.0822320  53.4592130  15.4217980 107.4178560  54.0458820  16.0995900
 106.1622660  53.3284840  15.6515770  94.9356450  56.9712710   2.7165520
  95.2954090  57.5702050   2.0622790  94.7948790  57.5172600   3.4900550
  94.6325720  41.2487310  16.2041390  93.9184240  41.4484230  16.8094000
  95.0520760  40.4726880  16.5756190 108.7356670  50.8617790   3.6035220
 108.4478370  51.3230480   4.3913100 109.5308840  50.4015560   3.8719440
  94.9198310  55.2367570  17.1907920  95.0289430  54.2962310  17.0503310
  94.2678870  55.5022320  16.5421650 102.9110900  53.5083460  18.5906040
 102.5907770  52.7892700  19.1351730 102.2369260  54.1838530  18.6642100
 100.9525070  54.3543910   3.5339190 100.9435170  55.0873600   2.9183700
 100.0323430  54.1075490   3.6266150  96.5531710  49.5758800   4.2785950
  95.9459660  50.3157700   4.2881250  97.0281060  49.6658160   3.4524150
 106.1264500  43.7409620  13.9542840 106.4945320  42.9204830  14.2822410
 105.2662700  43.8011510  14.3698490 109.4926530  42.6966560   4.7630400
 108.8639690  42.8012230   4.0488630 108.9978450  42.9163340   5.5524280
 101.4610560  44.9752510   6.1788280 100.7526710  45.4438850   6.6201890
 101.7455040  44.3174520   6.8133470 103.0866490  46.3949210  14.1780810
 103.5851740  46.8695030  14.8432660 103.2289440  45.4712730  14.3850840
 105.4925990  41.7003170   7.6184070 105.3693770  41.7189300   6.6693580
 106.4410550  41.7482110   7.7382470 102.5802780  56.9358470   6.8912050
 102.8344280  56.8979860   5.9691420 101.6315260  56.8091800   6.8840300
  99.6645580  43.2837590   3.5538990 100.5136110  43.7207740   3.4879180
  99.2976850  43.5957850   4.3811050 110.2933350  42.6117170  15.0209200
 109.7906950  43.3522570  15.3603010 111.1090010  43.0001170  14.7045990
 108.5855360  47.8550350   8.4670560 107.6445500  47.8700580   8.6418250
 108.8999430  47.0686310   8.9130860  97.2583760  46.9695020   2.7107410
  97.3387350  46.0222530   2.8224810  98.1503510  47.3001900   2.8168070
 110.5880940  55.0259200  10.1424820 110.7128360  55.8490370  10.6148630
 111.4546500  54.8149930   9.7948970  98.0598470  57.1190410   9.8141950
  98.7960950  56.5705870  10.0850520  98.4439390  57.9846420   9.6747940
  94.9443950  53.1863980   5.6883460  94.0183730  53.4285120   5.6788870
  95.4100380  54.0138240   5.5668210  97.0656750  56.3036480  19.0027530
  97.8669480  56.6248530  19.4162930  96.5508570  55.9432060  19.7247440
 105.9021380  52.4116350  18.9502940 105.2959540  52.4347950  18.2098690
 105.5975490  51.6799390  19.4870190 107.3321750  56.1396640  17.5612350
 108.2843500  56.0554660  17.5112590 107.1849970  56.8038350  18.2346140
 110.2230950  55.5190850   3.0604260 109.9372460  55.1055990   2.2458440
 110.0250500  56.4478560   2.9404780  94.7854560  48.7909940  17.9463580
  95.2893580  48.2117220  18.5179810  94.0461980  49.0750170  18.4839950
 101.8392500  50.1980930  17.4799100 101.0738170  50.7665930  17.3953770
 102.0208460  49.9057140  16.5867330 104.9280910  50.5744160   2.1051860
 104.3791010  51.0213460   2.7494600 105.5500170  50.0693410   2.6289530
 108.9815850  51.9286260  18.0374120 109.7225320  52.2662020  17.5341580
 108.2188530  52.0978320  17.4843890  96.8177640  46.9339530  18.8413650
  96.8582980  46.6353400  19.7498880  97.6723140  47.3347140  18.6821170
 100.5956030  49.5335080   4.0017160 101.0172450  49.3674950   4.8448550
 100.7206870  48.7235310   3.5072300  98.7583450  45.5131630  16.8088140
  98.2279910  45.0222580  16.1811480  99.4271520  45.9415830  16.2746070
 107.6561510  49.9801090  16.5729330 108.0702530  50.1346170  17.4219750
 106.7212510  50.1056310  16.7355110 108.1283680  47.3197250  18.5768480
 108.7104450  46.5649570  18.4888960 108.3045450  47.8504690  17.7999960
  99.2455750  42.4794000  16.8885430  99.1512620  41.8614750  16.1636300
  98.6653140  43.2060290  16.6615340 102.0117190  41.0367240  13.9212820
 101.5634490  41.0591500  13.0758370 101.3782390  40.6386260  14.5183120
 102.4176740  49.9321570  14.5425260 102.8364850  50.7754300  14.3701500
 101.4985370  50.0693610  14.3132040 104.7540640  47.6637750  15.9263100
 104.8736850  47.0678890  16.6657940 105.6134640  47.7007440  15.5064400
 107.0928540  48.2174940  14.5025610 106.5663760  48.7417560  13.8990750
 107.4359880  48.8502330  15.1335340 100.2684160  56.2374580  15.6582990
  99.7305250  56.9620640  15.3391690 100.5218120  55.7604920  14.8680330
 101.5209410  44.2059100  17.1838920 102.1109100  43.8974950  17.8716740
 100.7029650  43.7338850  17.3398820 106.3402840  43.8224910  17.4171940
 105.6518360  43.1606450  17.3521930 107.0608860  43.3763180  17.8620400
 106.9703240  40.4176540   3.4762200 107.2505530  39.5744440   3.8321620
 106.1968970  40.6499650   3.9900950 103.1246370  57.4725790  15.9169640
 103.0505070  58.3760930  16.2242010 102.2225210  57.1537690  15.8891710
 103.6731700  56.6384300   3.5396000 104.5682490  56.9769270   3.5614760
 103.7049330  55.9163710   2.9120280  97.3127860  52.0111350   1.7683000
  97.7502730  52.5541020   2.4240580  97.7975590  51.1858300   1.7779340
  94.5273660  54.8000380   9.2203260  94.8576670  53.9321440   8.9881900
  94.9564660  55.0058900  10.0508220  99.1235580  53.1309390   6.8805230
  98.8231120  53.0074360   7.7809140  99.0173070  52.2717980   6.4720960
  95.0163870  55.6670970  11.9584890  94.5794860  55.8471770  12.7909040
  95.5841550  56.4245590  11.8166610 110.6526050  55.1687970  16.2462200
 110.0528040  55.2280530  15.5026120 110.7819950  54.2292950  16.3759050
 111.3483960  49.6553270   4.0866110 112.1102870  50.2249920   4.1925800
 111.3638330  49.0880470   4.8574420  94.8488300  48.1791200   8.3173770
  94.1937140  47.9102840   7.6733470  95.6866250  48.0695680   7.8675750
 112.3543930  50.5103370   8.9308040 112.7252760  49.7270690   8.5244010
 112.9945860  51.1992470   8.7525340 109.3377690  51.8939950  14.3438360
 108.5237530  52.3237110  14.6064150 109.7451890  52.5058360  13.7307410
 107.7978740  42.9732490   2.5392260 108.2163620  42.7863470   1.6988920
 107.4914800  42.1211540   2.8495190 111.2968470  47.8856630   6.2368060
 110.9212070  47.1184560   5.8049350 110.5671590  48.2679330   6.7242990
  95.8864230  48.5643770  12.8577110  96.2537270  48.4771170  13.7373130
  95.3175050  47.8010320  12.7583970 110.6868090  47.0328150  15.8707580
 110.4554180  46.8040900  14.9705530 110.9472640  47.9527700  15.8252470
  95.4380230  45.4752860  16.7635530  94.5436280  45.4419620  17.1029240
  95.9777780  45.6739650  17.5286780 109.1256160  42.2584580  18.6487280
 110.0026340  42.2667980  19.0321280 109.1377000  41.5215420  18.0379630
  94.0626380  45.3890130   4.2599100  93.1590460  45.6520330   4.0850760
  94.5467000  45.6601300   3.4799060 110.5719430  46.1114120   9.5375300
 111.0956910  45.6176770   8.9065470 111.1578850  46.2464480  10.2822870
 110.7509150  46.1953990  13.0594850 109.8011860  46.1617530  13.1739840
 110.9322160  47.1054100  12.8244620 110.0619400  45.3687470   5.4767710
 110.5578520  45.1358340   6.2616590 109.8635470  44.5299310   5.0605350
  95.9419940  39.7501190  11.1118750  96.5896130  39.1998570  10.6713910
  96.3621780  40.0044340  11.9334560 111.4906560  44.0048420   8.0105390
 111.3805840  43.8504460   8.9487660 112.2514150  43.4769360   7.7680800
 109.8372280  39.9442550  14.4688390 110.4744500  40.5576690  14.8347580
 109.9847170  39.9803210  13.5237620 112.4535320  42.6067000   3.8768240
 111.6586820  42.5412120   4.4061150 112.6578600  43.5417640   3.8653590
 109.3953740  56.6458550   7.8706630 109.9912810  56.3243120   7.1941050
 109.6531890  56.1730370   8.6619900  95.6951940  39.9056860  13.8544070
  95.3466760  40.3620680  14.6202250  95.3639640  39.0113990  13.9366500
  97.3016310  53.0776460  18.0197260  97.2585940  52.7069370  18.9011720
  97.4327320  54.0154030  18.1599080 101.0022340  54.6336050  13.6206980
 100.7613700  54.9010610  12.7337500 101.9424980  54.8041780  13.6757840
 103.2076760  41.0968740  17.3763490 103.1465650  41.6890570  18.1258900
 104.1477140  40.9894700  17.2313750 105.8451320  40.7538800  17.0155780
 106.4591730  41.0718090  16.3536860 106.3900880  40.2687390  17.6351640
 112.2626500  56.6530430  14.4217620 111.7684780  57.0499300  13.7044750
 111.6539790  56.0279640  14.8154900  96.3672580  39.4333060  17.1294840
  96.9155570  39.2521110  16.3660950  96.4327890  38.6427170  17.6651150
  97.1404340  56.0238710  15.1395040  96.5464660  55.8923410  15.8785080
  97.1328180  55.1876850  14.6737140 106.5859360  39.3170940  13.3425070
 105.7119200  39.6506050  13.1398000 106.4770110  38.8444120  14.1676940
 107.4931340  41.5241810  14.7266790 107.1644700  40.7093570  14.3468520
 108.4413640  41.4811620  14.6032480 109.9465950  57.2953850  11.7004360
 109.4868920  58.0469660  11.3262380 109.3178410  56.5760320  11.6419160
  96.7716570  53.3897090  14.0903080  96.0450630  52.7702380  14.0229030
  96.8325720  53.7837700  13.2201160 100.3761670  55.6042090  10.8752490
 100.8926690  54.9929450  10.3500750 101.0259050  56.1070870  11.3663500
 103.1157170  56.4950580  11.7021470 103.4034980  56.2404880  10.8254480
 103.6280390  55.9427940  12.2927040 104.3334180  40.2340780  12.2817980
 103.5505970  40.7086280  12.5614740 104.0397110  39.3295610  12.1731160
 108.8855250  40.9363880  10.3267070 109.3263340  40.8808980   9.4788670
 108.6162840  41.8521890  10.3977250 110.7493820  40.5679120   8.3375890
 110.6882220  39.6240340   8.1906910 111.5285850  40.6759210   8.8829350
  95.0546570  56.7071480   7.2999840  94.8868610  56.0742160   7.9981730
  94.1881080  56.9130880   6.9494030  95.6774590  40.5388260   4.8031700
  96.4353950  40.6517140   4.2295730  95.2151760  41.3757460   4.7575130
 102.2188400  42.6527530   7.7934010 101.4062910  42.2784420   7.4529890
 102.7230040  41.8972610   8.0955200 106.7213380  39.3169980   9.0317080
 107.3242750  39.8890190   9.5065600 105.9806370  39.8809420   8.8090980
 109.8647980  39.7191540   4.3057360 110.0598610  40.6174990   4.5724790
 109.0777850  39.4878620   4.7990310  96.6609270  55.4004710   4.7449980
  96.1356890  55.7812740   4.0411940  96.5853850  56.0255480   5.4659690
  98.0499740  41.0652310   3.3433670  98.5792500  40.2782110   3.2141620
  98.6828060  41.7443500   3.5769200 100.2437580  40.8027450   6.3979060
  99.6140320  40.1014760   6.5649190  99.7042720  41.5631580   6.1812220
 103.1829530  57.4166680  19.0689670 104.1096840  57.1810950  19.1125630
 103.1679960  58.2438680  18.5875700 111.4174590  56.9592250   6.0663920
 111.5926780  56.2729990   5.4224840 110.7196160  57.4839300   5.6740590
 100.3693140  40.0811430  18.8331550 100.0877410  40.5845030  18.0692370
 100.7512840  39.2833180  18.4673680  99.2602240  57.3487090   3.6199230
  99.9921060  57.0646370   3.0723120  99.5195910  57.1100370   4.5098610
  98.4217030  53.4651820   3.6245560  97.7925910  53.9336920   4.1731390
  98.5364860  52.6201040   4.0591750 106.9708600  39.4965010  19.4112020
 106.8574050  39.8159620  20.3063540 107.7878340  39.8977520  19.1149300
 109.7507090  56.6436540  18.8930710 110.5432410  56.1485770  18.6856670
 110.0440240  57.3226680  19.5006320 105.8766750  28.7413990 139.9694680
 105.7960800  27.8268600 139.6986390 105.4631170  29.2381060 139.2634390
 104.0084790  30.5193010 141.8503950 103.2326890  30.0393450 142.1402520
 104.6597720  29.8398660 141.6760110  98.0250620  30.8312820 142.7279710
  97.1935500  30.5761530 143.1276220  98.6331600  30.9023590 143.4637630
 108.0292220  34.9253200 140.6303080 107.5673750  34.1540440 140.9590250
 108.8417770  34.9519270 141.1355530  98.0051880  34.8652910 142.9237730
  98.3079920  33.9750650 142.7447950  98.7495470  35.4223130 142.6959980
  96.4342570  25.7914710 136.5122100  95.5459270  26.1330680 136.4101980
  96.7183760  25.5915030 135.6202930  94.3975580  28.3920360 142.3961800
  94.9691690  27.6242560 142.3965440  94.3977120  28.6909120 141.4868410
 104.2555530  37.2111210 140.2507070 103.6366970  37.6668710 139.6801510
 105.1107310  37.3662670 139.8496770 103.4493780  33.1950200 141.8574110
 103.3802060  32.2540140 141.6963240 104.2113640  33.2851610 142.4296680
  95.6400450  23.8004720 144.1830730  95.4603290  22.9030470 144.4633490
  95.2380530  24.3476590 144.8577680 104.4798950  26.0020580 142.0843040
 104.8563770  25.1292460 141.9716710 104.3818460  26.3379280 141.1933480
  98.6103960  24.3746210 137.5460480  98.7170710  25.2749940 137.8529240
  97.6996320  24.3264180 137.2555130 108.2623070  23.4971020 139.0171380
 109.0832690  23.0067590 139.0596860 108.2957150  24.0868680 139.7703220
  96.2587120  26.2965220 142.7913070  96.9397230  26.5603590 143.4100470
  95.9435170  25.4566090 143.1251080 100.4511690  27.3432580 141.8785660
 100.9589910  27.8413550 142.5190680 100.9824930  26.5667780 141.7025020
 112.5522620  25.5137770 145.5815010 111.8474790  25.9019480 145.0630120
 112.8180540  26.2088060 146.1835940  98.7347790  21.9831140 146.1449080
  98.7366230  22.5003530 145.3394980  97.9052100  21.5061320 146.1219010
 105.1218880  32.0950450 137.6438980 104.5036150  32.5599900 137.0801700
 105.6342130  32.7877930 138.0608490  99.9850640  31.6226320 144.3222580
  99.6520020  32.2495240 144.9643650 100.1617320  32.1488200 143.5424250
 108.4984550  25.4371400 141.7898920 107.7940120  25.7256290 142.3702030
 108.8596710  26.2471510 141.4298480  98.4163120  23.6941100 144.1519530
  98.7579930  24.5383150 143.8573400  97.4778930  23.8424840 144.2684870
  99.1969740  33.5907120 146.1371760  99.8143740  34.2658200 145.8556210
  98.3362860  33.9995100 146.0459260  94.4902080  32.7806980 135.0178610
  94.1130060  33.2694080 134.2863510  94.7475150  33.4532260 135.6485140
 110.1147330  35.0546530 144.0526400 109.4310850  35.7245640 144.0443070
 110.6541620  35.2527180 143.2871260 111.5671470  24.8826190 142.1808130
 110.6196380  24.9165170 142.3123560 111.8921460  25.6965140 142.5657490
 102.0991010  21.1823370 140.4764120 102.4065990  20.6270260 139.7599620
 101.1691710  21.3167830 140.2937110 107.6506070  36.8990660 142.7671580
 107.6633230  36.4952950 141.8993840 107.0981290  37.6737950 142.6633010
 108.9451490  33.6206880 137.8561750 108.8347820  32.6781210 137.9811170
 108.9419740  33.9822520 138.7424510 107.0491510  31.8020500 144.0954190
 107.4660300  31.5880610 143.2607650 107.7731330  32.0593290 144.6662810
 104.4871770  29.2472200 137.2124240 103.5601050  29.1809580 137.4412710
 104.6396590  30.1852330 137.0979480 104.4740850  25.5189200 134.2091400
 103.5344520  25.6803160 134.2943860 104.7924110  26.2374880 133.6627390
 110.9953610  30.2007720 144.1870430 110.1672240  30.2700810 143.7120560
 111.5904090  30.7862030 143.7186260 108.5169060  30.8092500 137.7159490
 107.8981480  30.4712050 137.0685790 108.4993510  30.1652260 138.4238680
 107.9595620  26.9877040 145.1325300 107.5466800  27.8130750 145.3865290
 107.2271570  26.4022080 144.9401660 100.0928410  29.7736940 139.9943970
  99.6885410  29.0614190 139.4989870 100.1791530  29.4290180 140.8832010
 100.5610110  33.4604500 142.1583180 100.2638400  32.8549970 141.4790960
 101.5109930  33.4981810 142.0472540  98.8057030  26.5480150 143.7743010
  99.3571620  26.6575490 142.9996260  99.3200540  26.9217750 144.4898240
 108.6495720  37.0336370 145.8206280 108.1726280  37.8408560 145.6278890
 107.9657510  36.3814700 145.9732490  99.6528540  33.1986190 148.8090980
  98.7557070  33.4226160 149.0564380  99.6781410  33.3221130 147.8602380
 106.6933760  30.0479310 134.7232240 107.1327040  29.2101740 134.5770060
 107.4062180  30.6808710 134.8096380  98.4799760  30.0699510 147.3848350
  98.3407530  30.9422310 147.7535750  97.5981120  29.7272320 147.2396290
 104.8029140  34.9875380 138.6913480 105.2425050  35.7299710 138.2768870
 104.7416030  35.2301950 139.6152440 100.2780110  36.0121210 149.5933500
 100.2495540  36.4164160 148.7261930 100.1145080  35.0831570 149.4305100
 110.2750900  21.3022120 133.0373280 109.9623560  21.3948950 133.9372350
 111.0363370  21.8803150 132.9870710  96.7933040  28.6681920 137.4950620
  96.6730640  29.3944010 136.8831890  96.4833930  27.8984830 137.0178530
  94.4318410  31.8397060 143.3019260  94.5098830  31.9745830 142.3574980
  95.0460090  31.1312950 143.4947380  95.6766040  33.5397250 139.7125440
  95.2694120  33.6811840 138.8579040  96.5679050  33.2557410 139.5096650
 111.6328180  33.9861160 148.0497680 111.7591240  33.7473040 147.1314860
 111.6749560  33.1545700 148.5219760 105.4944920  37.6889160 146.6192490
 106.0089590  37.5997170 147.4214920 104.6514000  38.0348860 146.9120400
 107.4699320  37.9744500 136.0476490 107.3100460  37.6847440 136.9458320
 107.3046030  37.1984630 135.5121720  99.9487700  37.7543030 137.8248110
  99.7730180  36.8378570 137.6115910  99.0943440  38.1130320 138.0645910
 107.1725450  35.4832060 134.6074490 106.4790610  35.4809350 133.9476770
 107.9148310  35.0591380 134.1768660 106.7375380  37.1094770 138.6822980
 107.1932330  36.3284150 138.9961600 107.0767900  37.8201590 139.2264160
 111.4852190  26.0393620 149.0147420 110.8696460  26.5473290 148.4862880
 111.1648610  25.1391950 148.9573360  94.4877930  32.8811230 145.8413720
  94.6508970  32.4116590 145.0233090  94.9530380  32.3734790 146.5062560
  99.2596700  22.0116990 140.8774290  98.8164850  22.7926530 140.5458810
  99.8181690  22.3346880 141.5845230 103.5466510  24.8785510 146.4809610
 103.0845880  25.0868530 147.2929550 103.1444620  24.0644860 146.1780280
 108.5471020  26.0994460 147.6106270 107.6964610  25.8000210 147.9315340
 108.3872810  26.3436470 146.6990090 105.6420730  27.5996210 149.7105060
 105.9674140  26.7659960 149.3707290 106.4301060  28.1224730 149.8583390
 102.3755520  21.6327690 135.7580120 101.7509700  21.6287560 136.4833430
 102.2885640  20.7658650 135.3616090 101.2972600  22.5564320 142.7363890
 101.5944930  23.4627150 142.6555910 101.8458160  22.0683100 142.1223460
  99.0510920  27.1350560 138.6055540  98.8251840  26.9187730 139.5102160
  98.2703450  27.5679020 138.2601510 106.2808680  27.1413930 137.2046190
 105.6817570  27.8649730 137.0209810 106.8288290  27.0790710 136.4222640
 101.4910130  28.0336140 149.2715810 101.3953730  27.0930870 149.1216210
 102.3342110  28.2551210 148.8763880 104.8873550  25.7777470 139.2349470
 105.2803120  26.0949670 138.4218160 105.2490400  24.8989350 139.3493990
  96.6220670  24.4449810 147.4249590  96.2284060  25.2925020 147.6322370
  95.9339070  23.8076180 147.6158230  93.9237720  22.3678270 141.4579670
  93.6350770  22.9381130 142.1704650  94.6683480  21.8882720 141.8210900
  94.1107950  26.3098390 132.6682390  94.0282620  27.2529150 132.8097380
  93.7591010  26.1673300 131.7894740 105.4728690  28.3683220 143.3300250
 104.7409810  28.8770030 143.6790350 105.0753030  27.5513200 143.0289030
 101.9106080  25.0437420 141.7352740 101.9142140  24.6027370 140.8857280
 102.8057200  25.3654750 141.8424560  97.7608460  24.9263910 140.6946950
  97.4208510  25.4039140 141.4514000  96.9985780  24.4729030 140.3348050
 101.9726230  26.0449500 134.7259500 102.0939050  26.0035980 135.6745320
 101.5874740  26.9073650 134.5706230 105.9354600  23.8216900 142.7423190
 105.9527340  24.2725550 143.5865040 105.6870180  22.9222540 142.9556630
 100.9847730  28.3550640 134.1242800 100.4164630  27.9068890 133.4978710
 101.6936730  28.7143420 133.5907950 109.3625350  21.2349080 148.5809570
 109.6871120  20.5038740 149.1067550 109.3981860  20.9162720 147.6790560
  96.0616910  32.2562660 148.0009530  95.6771700  31.6156330 148.5992490
  96.3729100  32.9598780 148.5704260 102.2114050  29.1039200 143.4818150
 102.5784180  28.6297770 144.2279490 102.0219110  29.9780770 143.8226490
  95.0754540  23.8482890 139.6111620  94.7901460  23.4838560 140.4490240
  95.0133400  23.1163350 138.9974760 100.0013420  28.1447840 145.8002360
  99.6970490  29.0239820 146.0252720 100.9559880  28.2047630 145.8359800
  98.5295210  32.3508830 136.3969210  97.7557470  31.8106450 136.2367930
  99.2589840  31.8315440 136.0586970 109.2883190  31.3474190 142.1895600
 110.0082310  31.8429480 141.7991710 109.0865010  30.6692080 141.5449470
 104.7493130  22.7412150 136.3324990 103.9357740  22.2425320 136.2570300
 104.5555080  23.5810400 135.9161340 104.6701990  31.4183250 148.0764600
 104.6039300  30.4978920 147.8222190 104.0407130  31.5158690 148.7909240
 107.4641520  27.1131800 134.6287150 108.3521140  27.4249030 134.4538490
 107.4346610  26.2404050 134.2367730  98.5732610  32.0189210 140.0348020
  99.0911280  31.2157470 139.9804910  98.1216630  31.9568350 140.8764850
 103.4602110  33.2855490 135.3075320 103.8017810  34.0297720 134.8118640
 102.6314820  33.5986610 135.6700150  96.0577150  28.9850580 146.9473720
  95.6992090  29.6504430 147.5347060  95.7631710  28.1534130 147.3186340
  99.2590270  29.4434820 149.8313270  98.9590410  29.5892000 148.9341090
 100.0301510  28.8840110 149.7386660 104.6018720  34.2403820 147.8268400
 104.6163260  33.3084780 147.6087310 103.8943820  34.3263580 148.4658170
 109.7355790  28.4243640 134.0967010 109.6519510  28.8557860 133.2463450
 110.4549980  28.8841990 134.5293830 110.8129930  30.8811160 147.1736980
 110.0878120  31.4739940 146.9766370 111.3405390  30.8734700 146.3750350
 110.7643040  35.2785900 136.8249140 110.1219200  34.6241520 137.0992860
 110.3773700  35.6840990 136.0489810 106.3429520  32.6071330 140.6720830
 106.6953340  32.0099460 140.0122200 105.4591850  32.2815560 140.8429080
 102.4292800  33.3669020 138.0791240 103.1163930  33.9138230 138.4598830
 101.6425220  33.9109750 138.1140850  94.5685200  28.9841840 133.5708320
  95.4380050  29.2666640 133.8544240  94.0775520  29.7977710 133.4557130
 101.7320010  30.3715050 137.6916600 102.1882790  31.1820300 137.9176790
 101.3808220  30.0538190 138.5235090 104.0352620  35.8821390 144.9208900
 104.6794840  36.0880770 145.5982320 104.3982060  35.1209790 144.4679750
  97.6331790  20.7152700 138.1639120  97.5046420  20.7070600 139.1124040
  96.8093810  21.0535790 137.8130130 105.3084700  33.8853740 143.6386350
 105.9506930  33.1846900 143.7518520 105.8334050  34.6652180 143.4583240
 109.1540420  34.1702360 133.3625490 108.9278000  33.4532800 133.9550130
 108.7636620  33.9214800 132.5247240 107.0822320  34.6848640 146.8422410
 107.4178560  35.2715330 147.5200330 106.1622660  34.5541350 147.0720200
  94.9356450  38.1969220 134.1369950  95.2954090  38.7958560 133.4827220
  94.7948790  38.7429110 134.9104980  94.6325720  22.4743820 147.6245820
  93.9184240  22.6740740 148.2298430  95.0520760  21.6983390 147.9960620
 108.7356670  32.0874300 135.0239650 108.4478370  32.5486990 135.8117530
 109.5308840  31.6272070 135.2923870  94.9198310  36.4624080 148.6112350
  95.0289430  35.5218820 148.4707740  94.2678870  36.7278830 147.9626080
 100.9525070  35.5800420 134.9543620 100.9435170  36.3130110 134.3388130
 100.0323430  35.3332000 135.0470580  96.5531710  30.8015310 135.6990380
  95.9459660  31.5414210 135.7085680  97.0281060  30.8914670 134.8728580
 106.1264500  24.9666130 145.3747270 106.4945320  24.1461340 145.7026840
 105.2662700  25.0268020 145.7902920 109.4926530  23.9223070 136.1834830
 108.8639690  24.0268740 135.4693060 108.9978450  24.1419850 136.9728710
 103.9384670  35.6428660 133.6168810 104.0396650  35.4392650 132.6870790
 103.0386410  35.3886940 133.8216590 101.4610560  26.2009020 137.5992710
 100.7526710  26.6695360 138.0406320 101.7455040  25.5431030 138.2337900
 103.0866490  27.6205720 145.5985240 103.5851740  28.0951540 146.2637090
 103.2289440  26.6969240 145.8055270 105.4925990  22.9259680 139.0388500
 105.3693770  22.9445810 138.0898010 106.4410550  22.9738620 139.1586900
 102.5802780  38.1614980 138.3116480 102.8344280  38.1236370 137.3895850
 101.6315260  38.0348310 138.3044730  99.6645580  24.5094100 134.9743420
 100.5136110  24.9464250 134.9083610  99.2976850  24.8214360 135.8015480
 110.2933350  23.8373680 146.4413630 109.7906950  24.5779080 146.7807440
 111.1090010  24.2257680 146.1250420 108.5855360  29.0806860 139.8874990
 107.6445500  29.0957090 140.0622680 108.8999430  28.2942820 140.3335290
  98.5637000  30.7626460 133.4478950  99.3300270  30.6507820 134.0104380
  98.6411690  30.0664430 132.7955720  97.2583760  28.1951530 134.1311840
  97.3387350  27.2479040 134.2429240  98.1503510  28.5258410 134.2372500
 110.5880940  36.2515710 141.5629250 110.7128360  37.0746880 142.0353060
 111.4546500  36.0406440 141.2153400  98.0598470  38.3446920 141.2346380
  98.7960950  37.7962380 141.5054950  98.4439390  39.2102930 141.0952370
  94.9443950  34.4120490 137.1087890  94.0183730  34.6541630 137.0993300
  95.4100380  35.2394750 136.9872640 101.1700780  37.5177230 133.0571950
 101.9629390  37.8066060 132.6053740 100.6505130  37.0869400 132.3784430
 107.3321750  37.3653150 148.9816780 108.2843500  37.2811170 148.9317020
 107.1849970  38.0294860 149.6550570 110.2230950  36.7447360 134.4808690
 109.9372460  36.3312500 133.6662870 110.0250500  37.6735070 134.3609210
  94.7854560  30.0166450 149.3668010  95.2893580  29.4373730 149.9384240
  94.0461980  30.3006680 149.9044380 101.6878180  32.7380640 132.9214300
 101.5828820  32.1232990 133.6475680 101.5202400  32.2146530 132.1377310
 101.8392500  31.4237440 148.9003530 101.0738170  31.9922440 148.8158200
 102.0208460  31.1313650 148.0071760 104.9280910  31.8000670 133.5256290
 104.3791010  32.2469970 134.1699030 105.5500170  31.2949920 134.0493960
 108.9815850  33.1542770 149.4578550 109.7225320  33.4918530 148.9546010
 108.2188530  33.3234830 148.9048320 100.5956030  30.7591590 135.4221590
 101.0172450  30.5931460 136.2652980 100.7206870  29.9491820 134.9276730
  98.7583450  26.7388140 148.2292570  98.2279910  26.2479090 147.6015910
  99.4271520  27.1672340 147.6950500 103.1083670  29.7829200 132.6698690
 103.6289330  29.0678220 132.3039840 103.7552070  30.4215070 132.9699200
 107.6561510  31.2057600 147.9933760 108.0702530  31.3602680 148.8424180
 106.7212510  31.3312820 148.1559540 108.1283680  28.5453760 149.9972910
 108.7104450  27.7906080 149.9093390 108.3045450  29.0761200 149.2204390
  99.2455750  23.7050510 148.3089860  99.1512620  23.0871260 147.5840730
  98.6653140  24.4316800 148.0819770 102.0117190  22.2623750 145.3417250
 101.5634490  22.2848010 144.4962800 101.3782390  21.8642770 145.9387550
 102.4176740  31.1578080 145.9629690 102.8364850  32.0010810 145.7905930
 101.4985370  31.2950120 145.7336470 104.7540640  28.8894260 147.3467530
 104.8736850  28.2935400 148.0862370 105.6134640  28.9263950 146.9268830
 107.0928540  29.4431450 145.9230040 106.5663760  29.9674070 145.3195180
 107.4359880  30.0758840 146.5539770  99.4914930  26.8324820 132.3679750
  99.2903990  25.9692180 132.7293090  99.3206980  26.7458180 131.4301350
 100.2684160  37.4631090 147.0787420  99.7305250  38.1877150 146.7596120
 100.5218120  36.9861430 146.2884760 101.5209410  25.4315610 148.6043350
 102.1109100  25.1231460 149.2921170 100.7029650  24.9595360 148.7603250
 106.3402840  25.0481420 148.8376370 105.6518360  24.3862960 148.7726360
 107.0608860  24.6019690 149.2824830 106.9703240  21.6433050 134.8966630
 107.2505530  20.8000950 135.2526050 106.1968970  21.8756160 135.4105380
  98.2897730  23.9325440 132.3557630  98.5923630  23.9392870 131.4476780
  99.0292320  23.5823300 132.8525290 103.1246370  38.6982300 147.3374070
 103.0505070  39.6017440 147.6446440 102.2225210  38.3794200 147.3096140
 101.5082660  22.8760060 133.3413830 101.1604660  22.1984050 132.7616280
 101.7095430  22.4149570 134.1557220 103.6731700  37.8640810 134.9600430
 104.5682490  38.2025780 134.9819190 103.7049330  37.1420220 134.3324710
  97.3127860  33.2367860 133.1887430  97.7502730  33.7797530 133.8445010
  97.7975590  32.4114810 133.1983770  94.5273660  36.0256890 140.6407690
  94.8576670  35.1577950 140.4086330  94.9564660  36.2315410 141.4712650
  99.1235580  34.3565900 138.3009660  98.8231120  34.2330870 139.2013570
  99.0173070  33.4974490 137.8925390  95.0163870  36.8927480 143.3789320
  94.5794860  37.0728280 144.2113470  95.5841550  37.6502100 143.2371040
 110.6526050  36.3944480 147.6666630 110.0528040  36.4537040 146.9230550
 110.7819950  35.4549460 147.7963480 111.8927500  34.1362300 133.0036340
 111.0620460  34.2038950 133.4743570 112.0699330  35.0266420 132.7003200
 111.3483960  30.8809780 135.5070540 112.1102870  31.4506430 135.6130230
 111.3638330  30.3136980 136.2778850  94.8488300  29.4047710 139.7378200
  94.1937140  29.1359350 139.0937900  95.6866250  29.2952190 139.2880180
 112.3543930  31.7359880 140.3512470 112.7252760  30.9527200 139.9448440
 112.9945860  32.4248980 140.1729770 109.3377690  33.1196460 145.7642790
 108.5237530  33.5493620 146.0268580 109.7451890  33.7314870 145.1511840
 111.4003130  31.1744150 132.6643060 111.6751970  32.0823030 132.5362280
 111.2113870  31.1106680 133.6005050 107.7978740  24.1989000 133.9596690
 108.2163620  24.0119980 133.1193350 107.4914800  23.3468050 134.2699620
 111.2968470  29.1113140 137.6572490 110.9212070  28.3441070 137.2253780
 110.5671590  29.4935840 138.1447420  95.8864230  29.7900280 144.2781540
  96.2537270  29.7027680 145.1577560  95.3175050  29.0266830 144.1788400
 110.6868090  28.2584660 147.2912010 110.4554180  28.0297410 146.3909960
 110.9472640  29.1784210 147.2456900  95.4380230  26.7009370 148.1839960
  94.5436280  26.6676130 148.5233670  95.9777780  26.8996160 148.9491210
  94.0626380  26.6146640 135.6803530  93.1590460  26.8776840 135.5055190
  94.5467000  26.8857810 134.9003490 110.5719430  27.3370630 140.9579730
 111.0956910  26.8433280 140.3269900 111.1578850  27.4720990 141.7027300
 110.7509150  27.4210500 144.4799280 109.8011860  27.3874040 144.5944270
 110.9322160  28.3310610 144.2449050  96.6053590  25.6712180 133.5897910
  97.3145290  25.2495400 133.1045190  95.8893530  25.7387410 132.9581260
  96.2527750  21.7251510 132.6300560  96.9755880  22.2660450 132.9481780
  96.5252270  21.4514930 131.7542100 110.0619400  26.5943980 136.8972140
 110.5578520  26.3614850 137.6821020 109.8635470  25.7555820 136.4809780
  95.9419940  20.9757700 142.5323180  96.5896130  20.4255080 142.0918340
  96.3621780  21.2300850 143.3538990 111.4906560  25.2304930 139.4309820
 111.3805840  25.0760970 140.3692090 112.2514150  24.7025870 139.1885230
 109.8372280  21.1699060 145.8892820 110.4744500  21.7833200 146.2552010
 109.9847170  21.2059720 144.9442050 112.3796830  23.0612850 132.6715960
 113.3046140  22.9294030 132.4634250 112.3572620  23.1405670 133.6252410
 112.4535320  23.8323510 135.2972670 111.6586820  23.7668630 135.8265580
 112.6578600  24.7674150 135.2858020 109.3953740  37.8715060 139.2911060
 109.9912810  37.5499630 138.6145480 109.6531890  37.3986880 140.0824330
  95.6951940  21.1313370 145.2748500  95.3466760  21.5877190 146.0406680
  95.3639640  20.2370500 145.3570930 101.0022340  35.8592560 145.0411410
 100.7613700  36.1267120 144.1541930 101.9424980  36.0298290 145.0962270
 103.2076760  22.3225250 148.7967920 103.1465650  22.9147080 149.5463330
 104.1477140  22.2151210 148.6518180 105.8451320  21.9795310 148.4360210
 106.4591730  22.2974600 147.7741290 106.3900880  21.4943900 149.0556070
 112.2626500  37.8786940 145.8422050 111.7684780  38.2755810 145.1249180
 111.6539790  37.2536150 146.2359330  96.3672580  20.6589570 148.5499270
  96.9155570  20.4777620 147.7865380  96.4327890  19.8683680 149.0855580
  97.1404340  37.2495220 146.5599470  96.5464660  37.1179920 147.2989510
  97.1328180  36.4133360 146.0941570 106.5859360  20.5427450 144.7629500
 105.7119200  20.8762560 144.5602430 106.4770110  20.0700630 145.5881370
 107.4931340  22.7498320 146.1471220 107.1644700  21.9350080 145.7672950
 108.4413640  22.7068130 146.0236910 109.9465950  38.5210360 143.1208790
 109.4868920  39.2726170 142.7466810 109.3178410  37.8016830 143.0623590
  96.7716570  34.6153600 145.5107510  96.0450630  33.9958890 145.4433460
  96.8325720  35.0094210 144.6405590 100.3761670  36.8298600 142.2956920
 100.8926690  36.2185960 141.7705180 101.0259050  37.3327380 142.7867930
 103.1157170  37.7207090 143.1225900 103.4034980  37.4661390 142.2458910
 103.6280390  37.1684450 143.7131470 104.3334180  21.4597290 143.7022410
 103.5505970  21.9342790 143.9819170 104.0397110  20.5552120 143.5935590
 108.8855250  22.1620390 141.7471500 109.3263340  22.1065490 140.8993100
 108.6162840  23.0778400 141.8181680 110.7493820  21.7935630 139.7580320
 110.6882220  20.8496850 139.6111340 111.5285850  21.9015720 140.3033780
  95.0546570  37.9327990 138.7204270  94.8868610  37.2998670 139.4186160
  94.1881080  38.1387390 138.3698460  95.6774590  21.7644770 136.2236130
  96.4353950  21.8773650 135.6500160  95.2151760  22.6013970 136.1779560
 102.2188400  23.8784040 139.2138440 101.4062910  23.5040930 138.8734320
 102.7230040  23.1229120 139.5159630 106.7213380  20.5426490 140.4521510
 107.3242750  21.1146700 140.9270030 105.9806370  21.1065930 140.2295410
 109.8647980  20.9448050 135.7261790 110.0598610  21.8431500 135.9929220
 109.0777850  20.7135130 136.2194740  96.6609270  36.6261220 136.1654410
  96.1356890  37.0069250 135.4616370  96.5853850  37.2511990 136.8864120
  98.0499740  22.2908820 134.7638100  98.5792500  21.5038620 134.6346050
  98.6828060  22.9700010 134.9973630 100.2437580  22.0283960 137.8183490
  99.6140320  21.3271270 137.9853620  99.7042720  22.7888090 137.6016650
 111.4174590  38.1848760 137.4868350 111.5926780  37.4986500 136.8429270
 110.7196160  38.7095810 137.0945020  99.2602240  38.5743600 135.0403660
  99.9921060  38.2902880 134.4927550  99.5195910  38.3356880 135.9303040
  98.4217030  34.6908330 135.0449990  97.7925910  35.1593430 135.5935820
  98.5364860  33.8457550 135.4796180 105.8766750  28.7413990 121.1951190
 105.7960800  27.8268600 120.9242900 105.4631170  29.2381060 120.4890900
 104.0084790  30.5193010 123.0760460 103.2326890  30.0393450 123.3659030
 104.6597720  29.8398660 122.9016620  98.0250620  30.8312820 123.9536220
  97.1935500  30.5761530 124.3532730  98.6331600  30.9023590 124.6894140
 108.0292220  34.9253200 121.8559590 107.5673750  34.1540440 122.1846760
 108.8417770  34.9519270 122.3612040  98.0051880  34.8652910 124.1494240
  98.3079920  33.9750650 123.9704460  98.7495470  35.4223130 123.9216490
  96.4342570  25.7914710 117.7378610  95.5459270  26.1330680 117.6358490
  96.7183760  25.5915030 116.8459440  94.3975580  28.3920360 123.6218310
  94.9691690  27.6242560 123.6221950  94.3977120  28.6909120 122.7124920
 104.2555530  37.2111210 121.4763580 103.6366970  37.6668710 120.9058020
 105.1107310  37.3662670 121.0753280 103.4493780  33.1950200 123.0830620
 103.3802060  32.2540140 122.9219750 104.2113640  33.2851610 123.6553190
  95.6400450  23.8004720 125.4087240  95.4603290  22.9030470 125.6890000
  95.2380530  24.3476590 126.0834190 104.4798950  26.0020580 123.3099550
 104.8563770  25.1292460 123.1973220 104.3818460  26.3379280 122.4189990
  98.6103960  24.3746210 118.7716990  98.7170710  25.2749940 119.0785750
  97.6996320  24.3264180 118.4811640 108.2623070  23.4971020 120.2427890
 109.0832690  23.0067590 120.2853370 108.2957150  24.0868680 120.9959730
  96.2587120  26.2965220 124.0169580  96.9397230  26.5603590 124.6356980
  95.9435170  25.4566090 124.3507590 100.4511690  27.3432580 123.1042170
 100.9589910  27.8413550 123.7447190 100.9824930  26.5667780 122.9281530
 112.5522620  25.5137770 126.8071520 111.8474790  25.9019480 126.2886630
 112.8180540  26.2088060 127.4092450  98.7347790  21.9831140 127.3705590
  98.7366230  22.5003530 126.5651490  97.9052100  21.5061320 127.3475520
 105.1218880  32.0950450 118.8695490 104.5036150  32.5599900 118.3058210
 105.6342130  32.7877930 119.2865000  99.9850640  31.6226320 125.5479090
  99.6520020  32.2495240 126.1900160 100.1617320  32.1488200 124.7680760
 108.4984550  25.4371400 123.0155430 107.7940120  25.7256290 123.5958540
 108.8596710  26.2471510 122.6554990  98.4163120  23.6941100 125.3776040
  98.7579930  24.5383150 125.0829910  97.4778930  23.8424840 125.4941380
  99.1969740  33.5907120 127.3628270  99.8143740  34.2658200 127.0812720
  98.3362860  33.9995100 127.2715770  94.4902080  32.7806980 116.2435120
  94.1130060  33.2694080 115.5120020  94.7475150  33.4532260 116.8741650
 110.1147330  35.0546530 125.2782910 109.4310850  35.7245640 125.2699580
 110.6541620  35.2527180 124.5127770 111.5671470  24.8826190 123.4064640
 110.6196380  24.9165170 123.5380070 111.8921460  25.6965140 123.7914000
 102.0991010  21.1823370 121.7020630 102.4065990  20.6270260 120.9856130
 101.1691710  21.3167830 121.5193620 107.6506070  36.8990660 123.9928090
 107.6633230  36.4952950 123.1250350 107.0981290  37.6737950 123.8889520
 108.9451490  33.6206880 119.0818260 108.8347820  32.6781210 119.2067680
 108.9419740  33.9822520 119.9681020 107.0491510  31.8020500 125.3210700
 107.4660300  31.5880610 124.4864160 107.7731330  32.0593290 125.8919320
 104.4871770  29.2472200 118.4380750 103.5601050  29.1809580 118.6669220
 104.6396590  30.1852330 118.3235990 104.4740850  25.5189200 115.4347910
 103.5344520  25.6803160 115.5200370 104.7924110  26.2374880 114.8883900
 110.9953610  30.2007720 125.4126940 110.1672240  30.2700810 124.9377070
 111.5904090  30.7862030 124.9442770 108.5169060  30.8092500 118.9416000
 107.8981480  30.4712050 118.2942300 108.4993510  30.1652260 119.6495190
 107.9595620  26.9877040 126.3581810 107.5466800  27.8130750 126.6121800
 107.2271570  26.4022080 126.1658170 100.0928410  29.7736940 121.2200480
  99.6885410  29.0614190 120.7246380 100.1791530  29.4290180 122.1088520
 100.5610110  33.4604500 123.3839690 100.2638400  32.8549970 122.7047470
 101.5109930  33.4981810 123.2729050  98.8057030  26.5480150 124.9999520
  99.3571620  26.6575490 124.2252770  99.3200540  26.9217750 125.7154750
 108.6495720  37.0336370 127.0462790 108.1726280  37.8408560 126.8535400
 107.9657510  36.3814700 127.1989000  99.6528540  33.1986190 130.0347490
  98.7557070  33.4226160 130.2820890  99.6781410  33.3221130 129.0858890
 106.6933760  30.0479310 115.9488750 107.1327040  29.2101740 115.8026570
 107.4062180  30.6808710 116.0352890  98.4799760  30.0699510 128.6104860
  98.3407530  30.9422310 128.9792260  97.5981120  29.7272320 128.4652800
 104.8029140  34.9875380 119.9169990 105.2425050  35.7299710 119.5025380
 104.7416030  35.2301950 120.8408950 100.2780110  36.0121210 130.8190010
 100.2495540  36.4164160 129.9518440 100.1145080  35.0831570 130.6561610
 110.2750900  21.3022120 114.2629790 109.9623560  21.3948950 115.1628860
 111.0363370  21.8803150 114.2127220  96.7933040  28.6681920 118.7207130
  96.6730640  29.3944010 118.1088400  96.4833930  27.8984830 118.2435040
 112.2294930  36.7948310 132.1154180 112.7054650  37.2731200 132.7943260
 112.8502090  36.7265800 131.3899680  94.4318410  31.8397060 124.5275770
  94.5098830  31.9745830 123.5831490  95.0460090  31.1312950 124.7203890
  95.6766040  33.5397250 120.9381950  95.2694120  33.6811840 120.0835550
  96.5679050  33.2557410 120.7353160 111.6328180  33.9861160 129.2754190
 111.7591240  33.7473040 128.3571370 111.6749560  33.1545700 129.7476270
 105.4944920  37.6889160 127.8449000 106.0089590  37.5997170 128.6471430
 104.6514000  38.0348860 128.1376910 107.4699320  37.9744500 117.2733000
 107.3100460  37.6847440 118.1714830 107.3046030  37.1984630 116.7378230
  99.9487700  37.7543030 119.0504620  99.7730180  36.8378570 118.8372420
  99.0943440  38.1130320 119.2902420 107.1725450  35.4832060 115.8331000
 106.4790610  35.4809350 115.1733280 107.9148310  35.0591380 115.4025170
 106.7375380  37.1094770 119.9079490 107.1932330  36.3284150 120.2218110
 107.0767900  37.8201590 120.4520670 111.4852190  26.0393620 130.2403930
 110.8696460  26.5473290 129.7119390 111.1648610  25.1391950 130.1829870
  94.4877930  32.8811230 127.0670230  94.6508970  32.4116590 126.2489600
  94.9530380  32.3734790 127.7319070  99.2596700  22.0116990 122.1030800
  98.8164850  22.7926530 121.7715320  99.8181690  22.3346880 122.8101740
 103.5466510  24.8785510 127.7066120 103.0845880  25.0868530 128.5186060
 103.1444620  24.0644860 127.4036790 108.5471020  26.0994460 128.8362780
 107.6964610  25.8000210 129.1571850 108.3872810  26.3436470 127.9246600
 105.6420730  27.5996210 130.9361570 105.9674140  26.7659960 130.5963800
 106.4301060  28.1224730 131.0839900 102.3755520  21.6327690 116.9836630
 101.7509700  21.6287560 117.7089940 102.2885640  20.7658650 116.5872600
 101.2972600  22.5564320 123.9620400 101.5944930  23.4627150 123.8812420
 101.8458160  22.0683100 123.3479970  99.0510920  27.1350560 119.8312050
  98.8251840  26.9187730 120.7358670  98.2703450  27.5679020 119.4858020
 106.2808680  27.1413930 118.4302700 105.6817570  27.8649730 118.2466320
 106.8288290  27.0790710 117.6479150 101.4910130  28.0336140 130.4972320
 101.3953730  27.0930870 130.3472720 102.3342110  28.2551210 130.1020390
 104.8873550  25.7777470 120.4605980 105.2803120  26.0949670 119.6474670
 105.2490400  24.8989350 120.5750500  96.6220670  24.4449810 128.6506100
  96.2284060  25.2925020 128.8578880  95.9339070  23.8076180 128.8414740
 103.1965720  24.5284780 131.7202840 102.5064040  24.3356980 132.3548930
 103.9398020  24.8119420 132.2527140  93.9237720  22.3678270 122.6836180
  93.6350770  22.9381130 123.3961160  94.6683480  21.8882720 123.0467410
  94.1107950  26.3098390 113.8938900  94.0282620  27.2529150 114.0353890
  93.7591010  26.1673300 113.0151250 105.4728690  28.3683220 124.5556760
 104.7409810  28.8770030 124.9046860 105.0753030  27.5513200 124.2545540
 101.9106080  25.0437420 122.9609250 101.9142140  24.6027370 122.1113790
 102.8057200  25.3654750 123.0681070  97.7608460  24.9263910 121.9203460
  97.4208510  25.4039140 122.6770510  96.9985780  24.4729030 121.5604560
 101.9726230  26.0449500 115.9516010 102.0939050  26.0035980 116.9001830
 101.5874740  26.9073650 115.7962740 105.9354600  23.8216900 123.9679700
 105.9527340  24.2725550 124.8121550 105.6870180  22.9222540 124.1813140
 100.9847730  28.3550640 115.3499310 100.4164630  27.9068890 114.7235220
 101.6936730  28.7143420 114.8164460 109.3625350  21.2349080 129.8066080
 109.6871120  20.5038740 130.3324060 109.3981860  20.9162720 128.9047070
  96.0616910  32.2562660 129.2266040  95.6771700  31.6156330 129.8249000
  96.3729100  32.9598780 129.7960770 102.2114050  29.1039200 124.7074660
 102.5784180  28.6297770 125.4536000 102.0219110  29.9780770 125.0483000
  95.0754540  23.8482890 120.8368130  94.7901460  23.4838560 121.6746750
  95.0133400  23.1163350 120.2231270 100.0013420  28.1447840 127.0258870
  99.6970490  29.0239820 127.2509230 100.9559880  28.2047630 127.0616310
  98.5295210  32.3508830 117.6225720  97.7557470  31.8106450 117.4624440
  99.2589840  31.8315440 117.2843480 109.2883190  31.3474190 123.4152110
 110.0082310  31.8429480 123.0248220 109.0865010  30.6692080 122.7705980
 104.7493130  22.7412150 117.5581500 103.9357740  22.2425320 117.4826810
 104.5555080  23.5810400 117.1417850 104.6701990  31.4183250 129.3021110
 104.6039300  30.4978920 129.0478700 104.0407130  31.5158690 130.0165750
 107.4641520  27.1131800 115.8543660 108.3521140  27.4249030 115.6795000
 107.4346610  26.2404050 115.4624240  98.5732610  32.0189210 121.2604530
  99.0911280  31.2157470 121.2061420  98.1216630  31.9568350 122.1021360
 103.4602110  33.2855490 116.5331830 103.8017810  34.0297720 116.0375150
 102.6314820  33.5986610 116.8956660  96.0577150  28.9850580 128.1730230
  95.6992090  29.6504430 128.7603570  95.7631710  28.1534130 128.5442850
  99.2590270  29.4434820 131.0569780  98.9590410  29.5892000 130.1597600
 100.0301510  28.8840110 130.9643170 104.6018720  34.2403820 129.0524910
 104.6163260  33.3084780 128.8343820 103.8943820  34.3263580 129.6914680
 109.7355790  28.4243640 115.3223520 109.6519510  28.8557860 114.4719960
 110.4549980  28.8841990 115.7550340 110.8129930  30.8811160 128.3993490
 110.0878120  31.4739940 128.2022880 111.3405390  30.8734700 127.6006860
 110.7643040  35.2785900 118.0505650 110.1219200  34.6241520 118.3249370
 110.3773700  35.6840990 117.2746320 106.3429520  32.6071330 121.8977340
 106.6953340  32.0099460 121.2378710 105.4591850  32.2815560 122.0685590
 102.4292800  33.3669020 119.3047750 103.1163930  33.9138230 119.6855340
 101.6425220  33.9109750 119.3397360  94.5685200  28.9841840 114.7964830
  95.4380050  29.2666640 115.0800750  94.0775520  29.7977710 114.6813640
 101.7320010  30.3715050 118.9173110 102.1882790  31.1820300 119.1433300
 101.3808220  30.0538190 119.7491600 104.0352620  35.8821390 126.1465410
 104.6794840  36.0880770 126.8238830 104.3982060  35.1209790 125.6936260
  97.6331790  20.7152700 119.3895630  97.5046420  20.7070600 120.3380550
  96.8093810  21.0535790 119.0386640 105.3084700  33.8853740 124.8642860
 105.9506930  33.1846900 124.9775030 105.8334050  34.6652180 124.6839750
 109.1540420  34.1702360 114.5882000 108.9278000  33.4532800 115.1806640
 108.7636620  33.9214800 113.7503750 107.0822320  34.6848640 128.0678920
 107.4178560  35.2715330 128.7456840 106.1622660  34.5541350 128.2976710
  94.9356450  38.1969220 115.3626460  95.2954090  38.7958560 114.7083730
  94.7948790  38.7429110 116.1361490  94.6325720  22.4743820 128.8502330
  93.9184240  22.6740740 129.4554940  95.0520760  21.6983390 129.2217130
 108.7356670  32.0874300 116.2496160 108.4478370  32.5486990 117.0374040
 109.5308840  31.6272070 116.5180380  94.9198310  36.4624080 129.8368860
  95.0289430  35.5218820 129.6964250  94.2678870  36.7278830 129.1882590
 102.9110900  34.7339970 131.2366980 102.5907770  34.0149210 131.7812670
 102.2369260  35.4095040 131.3103040  96.5531710  30.8015310 116.9246890
  95.9459660  31.5414210 116.9342190  97.0281060  30.8914670 116.0985090
 106.1264500  24.9666130 126.6003780 106.4945320  24.1461340 126.9283350
 105.2662700  25.0268020 127.0159430 109.4926530  23.9223070 117.4091340
 108.8639690  24.0268740 116.6949570 108.9978450  24.1419850 118.1985220
 101.4610560  26.2009020 118.8249220 100.7526710  26.6695360 119.2662830
 101.7455040  25.5431030 119.4594410 103.0866490  27.6205720 126.8241750
 103.5851740  28.0951540 127.4893600 103.2289440  26.6969240 127.0311780
 105.4925990  22.9259680 120.2645010 105.3693770  22.9445810 119.3154520
 106.4410550  22.9738620 120.3843410 102.5802780  38.1614980 119.5372990
 102.8344280  38.1236370 118.6152360 101.6315260  38.0348310 119.5301240
  99.6645580  24.5094100 116.1999930 100.5136110  24.9464250 116.1340120
  99.2976850  24.8214360 117.0271990 110.2933350  23.8373680 127.6670140
 109.7906950  24.5779080 128.0063950 111.1090010  24.2257680 127.3506930
 108.5855360  29.0806860 121.1131500 107.6445500  29.0957090 121.2879190
 108.8999430  28.2942820 121.5591800  98.5637000  30.7626460 114.6735460
  99.3300270  30.6507820 115.2360890  98.6411690  30.0664430 114.0212230
  97.2583760  28.1951530 115.3568350  97.3387350  27.2479040 115.4685750
  98.1503510  28.5258410 115.4629010 110.5880940  36.2515710 122.7885760
 110.7128360  37.0746880 123.2609570 111.4546500  36.0406440 122.4409910
  98.0598470  38.3446920 122.4602890  98.7960950  37.7962380 122.7311460
  98.4439390  39.2102930 122.3208880  94.9443950  34.4120490 118.3344400
  94.0183730  34.6541630 118.3249810  95.4100380  35.2394750 118.2129150
  97.0656750  37.5292990 131.6488470  97.8669480  37.8505040 132.0623870
  96.5508570  37.1688570 132.3708380 105.9021380  33.6372860 131.5963880
 105.2959540  33.6604460 130.8559630 105.5975490  32.9055900 132.1331130
 107.3321750  37.3653150 130.2073290 108.2843500  37.2811170 130.1573530
 107.1849970  38.0294860 130.8807080 110.2230950  36.7447360 115.7065200
 109.9372460  36.3312500 114.8919380 110.0250500  37.6735070 115.5865720
  94.7854560  30.0166450 130.5924520  95.2893580  29.4373730 131.1640750
  94.0461980  30.3006680 131.1300890 101.6878180  32.7380640 114.1470810
 101.5828820  32.1232990 114.8732190 101.5202400  32.2146530 113.3633820
 101.8392500  31.4237440 130.1260040 101.0738170  31.9922440 130.0414710
 102.0208460  31.1313650 129.2328270 104.9280910  31.8000670 114.7512800
 104.3791010  32.2469970 115.3955540 105.5500170  31.2949920 115.2750470
 108.9815850  33.1542770 130.6835060 109.7225320  33.4918530 130.1802520
 108.2188530  33.3234830 130.1304830  96.8177640  28.1596040 131.4874590
  96.8582980  27.8609910 132.3959820  97.6723140  28.5603650 131.3282110
 100.5956030  30.7591590 116.6478100 101.0172450  30.5931460 117.4909490
 100.7206870  29.9491820 116.1533240  98.7583450  26.7388140 129.4549080
  98.2279910  26.2479090 128.8272420  99.4271520  27.1672340 128.9207010
 103.1083670  29.7829200 113.8955200 103.6289330  29.0678220 113.5296350
 103.7552070  30.4215070 114.1955710 107.6561510  31.2057600 129.2190270
 108.0702530  31.3602680 130.0680690 106.7212510  31.3312820 129.3816050
 108.1283680  28.5453760 131.2229420 108.7104450  27.7906080 131.1349900
 108.3045450  29.0761200 130.4460900  99.2455750  23.7050510 129.5346370
  99.1512620  23.0871260 128.8097240  98.6653140  24.4316800 129.3076280
 102.0117190  22.2623750 126.5673760 101.5634490  22.2848010 125.7219310
 101.3782390  21.8642770 127.1644060 102.4176740  31.1578080 127.1886200
 102.8364850  32.0010810 127.0162440 101.4985370  31.2950120 126.9592980
 104.7540640  28.8894260 128.5724040 104.8736850  28.2935400 129.3118880
 105.6134640  28.9263950 128.1525340 107.0928540  29.4431450 127.1486550
 106.5663760  29.9674070 126.5451690 107.4359880  30.0758840 127.7796280
  99.4914930  26.8324820 113.5936260  99.2903990  25.9692180 113.9549600
  99.3206980  26.7458180 112.6557860 100.2684160  37.4631090 128.3043930
  99.7305250  38.1877150 127.9852630 100.5218120  36.9861430 127.5141270
 101.5209410  25.4315610 129.8299860 102.1109100  25.1231460 130.5177680
 100.7029650  24.9595360 129.9859760 106.3402840  25.0481420 130.0632880
 105.6518360  24.3862960 129.9982870 107.0608860  24.6019690 130.5081340
 106.9703240  21.6433050 116.1223140 107.2505530  20.8000950 116.4782560
 106.1968970  21.8756160 116.6361890  98.2897730  23.9325440 113.5814140
  98.5923630  23.9392870 112.6733290  99.0292320  23.5823300 114.0781800
 103.1246370  38.6982300 128.5630580 103.0505070  39.6017440 128.8702950
 102.2225210  38.3794200 128.5352650 101.5082660  22.8760060 114.5670340
 101.1604660  22.1984050 113.9872790 101.7095430  22.4149570 115.3813730
  97.3127860  33.2367860 114.4143940  97.7502730  33.7797530 115.0701520
  97.7975590  32.4114810 114.4240280  94.5273660  36.0256890 121.8664200
  94.8576670  35.1577950 121.6342840  94.9564660  36.2315410 122.6969160
  99.1235580  34.3565900 119.5266170  98.8231120  34.2330870 120.4270080
  99.0173070  33.4974490 119.1181900  95.0163870  36.8927480 124.6045830
  94.5794860  37.0728280 125.4369980  95.5841550  37.6502100 124.4627550
 110.6526050  36.3944480 128.8923140 110.0528040  36.4537040 128.1487060
 110.7819950  35.4549460 129.0219990 111.8927500  34.1362300 114.2292850
 111.0620460  34.2038950 114.7000080 112.0699330  35.0266420 113.9259710
 111.3483960  30.8809780 116.7327050 112.1102870  31.4506430 116.8386740
 111.3638330  30.3136980 117.5035360  94.8488300  29.4047710 120.9634710
  94.1937140  29.1359350 120.3194410  95.6866250  29.2952190 120.5136690
 112.3543930  31.7359880 121.5768980 112.7252760  30.9527200 121.1704950
 112.9945860  32.4248980 121.3986280 109.3377690  33.1196460 126.9899300
 108.5237530  33.5493620 127.2525090 109.7451890  33.7314870 126.3768350
 111.4003130  31.1744150 113.8899570 111.6751970  32.0823030 113.7618790
 111.2113870  31.1106680 114.8261560 107.7978740  24.1989000 115.1853200
 108.2163620  24.0119980 114.3449860 107.4914800  23.3468050 115.4956130
 111.2968470  29.1113140 118.8829000 110.9212070  28.3441070 118.4510290
 110.5671590  29.4935840 119.3703930  95.8864230  29.7900280 125.5038050
  96.2537270  29.7027680 126.3834070  95.3175050  29.0266830 125.4044910
 110.6868090  28.2584660 128.5168520 110.4554180  28.0297410 127.6166470
 110.9472640  29.1784210 128.4713410  95.4380230  26.7009370 129.4096470
  94.5436280  26.6676130 129.7490180  95.9777780  26.8996160 130.1747720
 109.1256160  23.4841090 131.2948220 110.0026340  23.4924490 131.6782220
 109.1377000  22.7471930 130.6840570  94.0626380  26.6146640 116.9060040
  93.1590460  26.8776840 116.7311700  94.5467000  26.8857810 116.1260000
 110.5719430  27.3370630 122.1836240 111.0956910  26.8433280 121.5526410
 111.1578850  27.4720990 122.9283810 110.7509150  27.4210500 125.7055790
 109.8011860  27.3874040 125.8200780 110.9322160  28.3310610 125.4705560
  96.6053590  25.6712180 114.8154420  97.3145290  25.2495400 114.3301700
  95.8893530  25.7387410 114.1837770  96.2527750  21.7251510 113.8557070
  96.9755880  22.2660450 114.1738290  96.5252270  21.4514930 112.9798610
 110.0619400  26.5943980 118.1228650 110.5578520  26.3614850 118.9077530
 109.8635470  25.7555820 117.7066290  95.9419940  20.9757700 123.7579690
  96.5896130  20.4255080 123.3174850  96.3621780  21.2300850 124.5795500
 111.4906560  25.2304930 120.6566330 111.3805840  25.0760970 121.5948600
 112.2514150  24.7025870 120.4141740 109.8372280  21.1699060 127.1149330
 110.4744500  21.7833200 127.4808520 109.9847170  21.2059720 126.1698560
 112.3796830  23.0612850 113.8972470 113.3046140  22.9294030 113.6890760
 112.3572620  23.1405670 114.8508920 112.4535320  23.8323510 116.5229180
 111.6586820  23.7668630 117.0522090 112.6578600  24.7674150 116.5114530
 109.3953740  37.8715060 120.5167570 109.9912810  37.5499630 119.8401990
 109.6531890  37.3986880 121.3080840  95.6951940  21.1313370 126.5005010
  95.3466760  21.5877190 127.2663190  95.3639640  20.2370500 126.5827440
  97.3016310  34.3032970 130.6658200  97.2585940  33.9325880 131.5472660
  97.4327320  35.2410540 130.8060020 101.0022340  35.8592560 126.2667920
 100.7613700  36.1267120 125.3798440 101.9424980  36.0298290 126.3218780
 103.2076760  22.3225250 130.0224430 103.1465650  22.9147080 130.7719840
 104.1477140  22.2151210 129.8774690 105.8451320  21.9795310 129.6616720
 106.4591730  22.2974600 128.9997800 106.3900880  21.4943900 130.2812580
 112.2626500  37.8786940 127.0678560 111.7684780  38.2755810 126.3505690
 111.6539790  37.2536150 127.4615840  96.3672580  20.6589570 129.7755780
  96.9155570  20.4777620 129.0121890  96.4327890  19.8683680 130.3112090
  97.1404340  37.2495220 127.7855980  96.5464660  37.1179920 128.5246020
  97.1328180  36.4133360 127.3198080 106.5859360  20.5427450 125.9886010
 105.7119200  20.8762560 125.7858940 106.4770110  20.0700630 126.8137880
 107.4931340  22.7498320 127.3727730 107.1644700  21.9350080 126.9929460
 108.4413640  22.7068130 127.2493420 109.9465950  38.5210360 124.3465300
 109.4868920  39.2726170 123.9723320 109.3178410  37.8016830 124.2880100
  96.7716570  34.6153600 126.7364020  96.0450630  33.9958890 126.6689970
  96.8325720  35.0094210 125.8662100 100.3761670  36.8298600 123.5213430
 100.8926690  36.2185960 122.9961690 101.0259050  37.3327380 124.0124440
 103.1157170  37.7207090 124.3482410 103.4034980  37.4661390 123.4715420
 103.6280390  37.1684450 124.9387980 104.3334180  21.4597290 124.9278920
 103.5505970  21.9342790 125.2075680 104.0397110  20.5552120 124.8192100
 108.8855250  22.1620390 122.9728010 109.3263340  22.1065490 122.1249610
 108.6162840  23.0778400 123.0438190 110.7493820  21.7935630 120.9836830
 110.6882220  20.8496850 120.8367850 111.5285850  21.9015720 121.5290290
  95.0546570  37.9327990 119.9460780  94.8868610  37.2998670 120.6442670
  94.1881080  38.1387390 119.5954970  95.6774590  21.7644770 117.4492640
  96.4353950  21.8773650 116.8756670  95.2151760  22.6013970 117.4036070
 102.2188400  23.8784040 120.4394950 101.4062910  23.5040930 120.0990830
 102.7230040  23.1229120 120.7416140 106.7213380  20.5426490 121.6778020
 107.3242750  21.1146700 122.1526540 105.9806370  21.1065930 121.4551920
 109.8647980  20.9448050 116.9518300 110.0598610  21.8431500 117.2185730
 109.0777850  20.7135130 117.4451250  98.0499740  22.2908820 115.9894610
  98.5792500  21.5038620 115.8602560  98.6828060  22.9700010 116.2230140
 100.2437580  22.0283960 119.0440000  99.6140320  21.3271270 119.2110130
  99.7042720  22.7888090 118.8273160 103.1829530  38.6423190 131.7150610
 104.1096840  38.4067460 131.7586570 103.1679960  39.4695190 131.2336640
 111.4174590  38.1848760 118.7124860 111.5926780  37.4986500 118.0685780
 110.7196160  38.7095810 118.3201530 100.3693140  21.3067940 131.4792490
 100.0877410  21.8101540 130.7153310 100.7512840  20.5089690 131.1134620
 106.9708600  20.7221520 132.0572960 106.8574050  21.0416130 132.9524480
 107.7878340  21.1234030 131.7610240 109.7507090  37.8693050 131.5391650
 110.5432410  37.3742280 131.3317610 110.0440240  38.5483190 132.1467260
 105.8766750  28.7413990 102.4207700 105.7960800  27.8268600 102.1499410
 105.4631170  29.2381060 101.7147410 104.0084790  30.5193010 104.3016970
 103.2326890  30.0393450 104.5915540 104.6597720  29.8398660 104.1273130
 108.0292220  34.9253200 103.0816100 107.5673750  34.1540440 103.4103270
 108.8417770  34.9519270 103.5868550  96.4342570  25.7914710  98.9635120
  95.5459270  26.1330680  98.8615000  96.7183760  25.5915030  98.0715950
 103.4493780  33.1950200 104.3087130 103.3802060  32.2540140 104.1476260
 104.2113640  33.2851610 104.8809700  95.6400450  23.8004720 106.6343750
  95.4603290  22.9030470 106.9146510  95.2380530  24.3476590 107.3090700
 104.4798950  26.0020580 104.5356060 104.8563770  25.1292460 104.4229730
 104.3818460  26.3379280 103.6446500 108.2623070  23.4971020 101.4684400
 109.0832690  23.0067590 101.5109880 108.2957150  24.0868680 102.2216240
 100.4511690  27.3432580 104.3298680 100.9589910  27.8413550 104.9703700
 100.9824930  26.5667780 104.1538040 112.5522620  25.5137770 108.0328030
 111.8474790  25.9019480 107.5143140 112.8180540  26.2088060 108.6348960
  98.7347790  21.9831140 108.5962100  98.7366230  22.5003530 107.7908000
  97.9052100  21.5061320 108.5732030 105.1218880  32.0950450 100.0952000
 104.5036150  32.5599900  99.5314720 105.6342130  32.7877930 100.5121510
 108.4984550  25.4371400 104.2411940 107.7940120  25.7256290 104.8215050
 108.8596710  26.2471510 103.8811500  98.4163120  23.6941100 106.6032550
  98.7579930  24.5383150 106.3086420  97.4778930  23.8424840 106.7197890
  94.4902080  32.7806980  97.4691630  94.1130060  33.2694080  96.7376530
  94.7475150  33.4532260  98.0998160 110.1147330  35.0546530 106.5039420
 109.4310850  35.7245640 106.4956090 110.6541620  35.2527180 105.7384280
 111.5671470  24.8826190 104.6321150 110.6196380  24.9165170 104.7636580
 111.8921460  25.6965140 105.0170510 102.0991010  21.1823370 102.9277140
 102.4065990  20.6270260 102.2112640 101.1691710  21.3167830 102.7450130
 107.6506070  36.8990660 105.2184600 107.6633230  36.4952950 104.3506860
 107.0981290  37.6737950 105.1146030 108.9451490  33.6206880 100.3074770
 108.8347820  32.6781210 100.4324190 108.9419740  33.9822520 101.1937530
 107.0491510  31.8020500 106.5467210 107.4660300  31.5880610 105.7120670
 107.7731330  32.0593290 107.1175830 104.4871770  29.2472200  99.6637260
 103.5601050  29.1809580  99.8925730 104.6396590  30.1852330  99.5492500
 110.9953610  30.2007720 106.6383450 110.1672240  30.2700810 106.1633580
 111.5904090  30.7862030 106.1699280 108.5169060  30.8092500 100.1672510
 107.8981480  30.4712050  99.5198810 108.4993510  30.1652260 100.8751700
 107.9595620  26.9877040 107.5838320 107.5466800  27.8130750 107.8378310
 107.2271570  26.4022080 107.3914680 100.0928410  29.7736940 102.4456990
  99.6885410  29.0614190 101.9502890 100.1791530  29.4290180 103.3345030
  98.8057030  26.5480150 106.2256030  99.3571620  26.6575490 105.4509280
  99.3200540  26.9217750 106.9411260 108.6495720  37.0336370 108.2719300
 108.1726280  37.8408560 108.0791910 107.9657510  36.3814700 108.4245510
  99.6528540  33.1986190 111.2604000  98.7557070  33.4226160 111.5077400
  99.6781410  33.3221130 110.3115400  98.4799760  30.0699510 109.8361370
  98.3407530  30.9422310 110.2048770  97.5981120  29.7272320 109.6909310
 110.2750900  21.3022120  95.4886300 109.9623560  21.3948950  96.3885370
 111.0363370  21.8803150  95.4383730 112.2294930  36.7948310 113.3410690
 112.7054650  37.2731200 114.0199770 112.8502090  36.7265800 112.6156190
 111.6328180  33.9861160 110.5010700 111.7591240  33.7473040 109.5827880
 111.6749560  33.1545700 110.9732780 105.4944920  37.6889160 109.0705510
 106.0089590  37.5997170 109.8727940 104.6514000  38.0348860 109.3633420
  99.9487700  37.7543030 100.2761130  99.7730180  36.8378570 100.0628930
  99.0943440  38.1130320 100.5158930 107.1725450  35.4832060  97.0587510
 106.4790610  35.4809350  96.3989790 107.9148310  35.0591380  96.6281680
 111.4852190  26.0393620 111.4660440 110.8696460  26.5473290 110.9375900
 111.1648610  25.1391950 111.4086380  99.2596700  22.0116990 103.3287310
  98.8164850  22.7926530 102.9971830  99.8181690  22.3346880 104.0358250
 103.5466510  24.8785510 108.9322630 103.0845880  25.0868530 109.7442570
 103.1444620  24.0644860 108.6293300 108.5471020  26.0994460 110.0619290
 107.6964610  25.8000210 110.3828360 108.3872810  26.3436470 109.1503110
 105.6420730  27.5996210 112.1618080 105.9674140  26.7659960 111.8220310
 106.4301060  28.1224730 112.3096410 101.2972600  22.5564320 105.1876910
 101.5944930  23.4627150 105.1068930 101.8458160  22.0683100 104.5736480
  99.0510920  27.1350560 101.0568560  98.8251840  26.9187730 101.9615180
  98.2703450  27.5679020 100.7114530 106.2808680  27.1413930  99.6559210
 105.6817570  27.8649730  99.4722830 106.8288290  27.0790710  98.8735660
 101.4910130  28.0336140 111.7228830 101.3953730  27.0930870 111.5729230
 102.3342110  28.2551210 111.3276900 104.8873550  25.7777470 101.6862490
 105.2803120  26.0949670 100.8731180 105.2490400  24.8989350 101.8007010
  96.6220670  24.4449810 109.8762610  96.2284060  25.2925020 110.0835390
  95.9339070  23.8076180 110.0671250 103.1965720  24.5284780 112.9459350
 102.5064040  24.3356980 113.5805440 103.9398020  24.8119420 113.4783650
  93.9237720  22.3678270 103.9092690  93.6350770  22.9381130 104.6217670
  94.6683480  21.8882720 104.2723920  94.1107950  26.3098390  95.1195410
  94.0282620  27.2529150  95.2610400  93.7591010  26.1673300  94.2407760
 105.4728690  28.3683220 105.7813270 104.7409810  28.8770030 106.1303370
 105.0753030  27.5513200 105.4802050 101.9106080  25.0437420 104.1865760
 101.9142140  24.6027370 103.3370300 102.8057200  25.3654750 104.2937580
  97.7608460  24.9263910 103.1459970  97.4208510  25.4039140 103.9027020
  96.9985780  24.4729030 102.7861070 105.9354600  23.8216900 105.1936210
 105.9527340  24.2725550 106.0378060 105.6870180  22.9222540 105.4069650
 109.3625350  21.2349080 111.0322590 109.6871120  20.5038740 111.5580570
 109.3981860  20.9162720 110.1303580  96.0616910  32.2562660 110.4522550
  95.6771700  31.6156330 111.0505510  96.3729100  32.9598780 111.0217280
 102.2114050  29.1039200 105.9331170 102.5784180  28.6297770 106.6792510
 102.0219110  29.9780770 106.2739510 100.0013420  28.1447840 108.2515380
  99.6970490  29.0239820 108.4765740 100.9559880  28.2047630 108.2872820
  98.5295210  32.3508830  98.8482230  97.7557470  31.8106450  98.6880950
  99.2589840  31.8315440  98.5099990 109.2883190  31.3474190 104.6408620
 110.0082310  31.8429480 104.2504730 109.0865010  30.6692080 103.9962490
 104.6701990  31.4183250 110.5277620 104.6039300  30.4978920 110.2735210
 104.0407130  31.5158690 111.2422260 103.4602110  33.2855490  97.7588340
 103.8017810  34.0297720  97.2631660 102.6314820  33.5986610  98.1213170
  99.2590270  29.4434820 112.2826290  98.9590410  29.5892000 111.3854110
 100.0301510  28.8840110 112.1899680 104.6018720  34.2403820 110.2781420
 104.6163260  33.3084780 110.0600330 103.8943820  34.3263580 110.9171190
 109.7355790  28.4243640  96.5480030 109.6519510  28.8557860  95.6976470
 110.4549980  28.8841990  96.9806850 110.8129930  30.8811160 109.6250000
 110.0878120  31.4739940 109.4279390 111.3405390  30.8734700 108.8263370
 110.7643040  35.2785900  99.2762160 110.1219200  34.6241520  99.5505880
 110.3773700  35.6840990  98.5002830 106.3429520  32.6071330 103.1233850
 106.6953340  32.0099460 102.4635220 105.4591850  32.2815560 103.2942100
 102.4292800  33.3669020 100.5304260 103.1163930  33.9138230 100.9111850
 101.6425220  33.9109750 100.5653870  94.5685200  28.9841840  96.0221340
  95.4380050  29.2666640  96.3057260  94.0775520  29.7977710  95.9070150
 101.7320010  30.3715050 100.1429620 102.1882790  31.1820300 100.3689810
 101.3808220  30.0538190 100.9748110 104.0352620  35.8821390 107.3721920
 104.6794840  36.0880770 108.0495340 104.3982060  35.1209790 106.9192770
  97.6331790  20.7152700 100.6152140  97.5046420  20.7070600 101.5637060
  96.8093810  21.0535790 100.2643150 105.3084700  33.8853740 106.0899370
 105.9506930  33.1846900 106.2031540 105.8334050  34.6652180 105.9096260
 109.1540420  34.1702360  95.8138510 108.9278000  33.4532800  96.4063150
 108.7636620  33.9214800  94.9760260 107.0822320  34.6848640 109.2935430
 107.4178560  35.2715330 109.9713350 106.1622660  34.5541350 109.5233220
  94.9356450  38.1969220  96.5882970  95.2954090  38.7958560  95.9340240
  94.7948790  38.7429110  97.3618000  94.6325720  22.4743820 110.0758840
  93.9184240  22.6740740 110.6811450  95.0520760  21.6983390 110.4473640
 108.7356670  32.0874300  97.4752670 108.4478370  32.5486990  98.2630550
 109.5308840  31.6272070  97.7436890  94.9198310  36.4624080 111.0625370
  95.0289430  35.5218820 110.9220760  94.2678870  36.7278830 110.4139100
 102.9110900  34.7339970 112.4623490 102.5907770  34.0149210 113.0069180
 102.2369260  35.4095040 112.5359550 100.9525070  35.5800420  97.4056640
 100.9435170  36.3130110  96.7901150 100.0323430  35.3332000  97.4983600
  96.5531710  30.8015310  98.1503400  95.9459660  31.5414210  98.1598700
  97.0281060  30.8914670  97.3241600 106.1264500  24.9666130 107.8260290
 106.4945320  24.1461340 108.1539860 105.2662700  25.0268020 108.2415940
 109.4926530  23.9223070  98.6347850 108.8639690  24.0268740  97.9206080
 108.9978450  24.1419850  99.4241730 103.9384670  35.6428660  96.0681830
 104.0396650  35.4392650  95.1383810 103.0386410  35.3886940  96.2729610
 103.0866490  27.6205720 108.0498260 103.5851740  28.0951540 108.7150110
 103.2289440  26.6969240 108.2568290 105.4925990  22.9259680 101.4901520
 105.3693770  22.9445810 100.5411030 106.4410550  22.9738620 101.6099920
 110.2933350  23.8373680 108.8926650 109.7906950  24.5779080 109.2320460
 111.1090010  24.2257680 108.5763440 108.5855360  29.0806860 102.3388010
 107.6445500  29.0957090 102.5135700 108.8999430  28.2942820 102.7848310
  98.5637000  30.7626460  95.8991970  99.3300270  30.6507820  96.4617400
  98.6411690  30.0664430  95.2468740  97.2583760  28.1951530  96.5824860
  97.3387350  27.2479040  96.6942260  98.1503510  28.5258410  96.6885520
 110.5880940  36.2515710 104.0142270 110.7128360  37.0746880 104.4866080
 111.4546500  36.0406440 103.6666420  98.0598470  38.3446920 103.6859400
  98.7960950  37.7962380 103.9567970  98.4439390  39.2102930 103.5465390
  94.9443950  34.4120490  99.5600910  94.0183730  34.6541630  99.5506320
  95.4100380  35.2394750  99.4385660 101.1700780  37.5177230  95.5084970
 101.9629390  37.8066060  95.0566760 100.6505130  37.0869400  94.8297450
 105.9021380  33.6372860 112.8220390 105.2959540  33.6604460 112.0816140
 105.5975490  32.9055900 113.3587640 107.3321750  37.3653150 111.4329800
 108.2843500  37.2811170 111.3830040 107.1849970  38.0294860 112.1063590
 110.2230950  36.7447360  96.9321710 109.9372460  36.3312500  96.1175890
 110.0250500  37.6735070  96.8122230  94.7854560  30.0166450 111.8181030
  95.2893580  29.4373730 112.3897260  94.0461980  30.3006680 112.3557400
 101.6878180  32.7380640  95.3727320 101.5828820  32.1232990  96.0988700
 101.5202400  32.2146530  94.5890330 101.8392500  31.4237440 111.3516550
 101.0738170  31.9922440 111.2671220 102.0208460  31.1313650 110.4584780
 108.9815850  33.1542770 111.9091570 109.7225320  33.4918530 111.4059030
 108.2188530  33.3234830 111.3561340  96.8177640  28.1596040 112.7131100
  96.8582980  27.8609910 113.6216330  97.6723140  28.5603650 112.5538620
 100.5956030  30.7591590  97.8734610 101.0172450  30.5931460  98.7166000
 100.7206870  29.9491820  97.3789750  98.7583450  26.7388140 110.6805590
  98.2279910  26.2479090 110.0528930  99.4271520  27.1672340 110.1463520
 107.6561510  31.2057600 110.4446780 108.0702530  31.3602680 111.2937200
 106.7212510  31.3312820 110.6072560 108.1283680  28.5453760 112.4485930
 108.7104450  27.7906080 112.3606410 108.3045450  29.0761200 111.6717410
  99.2455750  23.7050510 110.7602880  99.1512620  23.0871260 110.0353750
  98.6653140  24.4316800 110.5332790 102.0117190  22.2623750 107.7930270
 101.5634490  22.2848010 106.9475820 101.3782390  21.8642770 108.3900570
 102.4176740  31.1578080 108.4142710 102.8364850  32.0010810 108.2418950
 101.4985370  31.2950120 108.1849490 104.7540640  28.8894260 109.7980550
 104.8736850  28.2935400 110.5375390 105.6134640  28.9263950 109.3781850
 107.0928540  29.4431450 108.3743060 106.5663760  29.9674070 107.7708200
 107.4359880  30.0758840 109.0052790 100.2684160  37.4631090 109.5300440
  99.7305250  38.1877150 109.2109140 100.5218120  36.9861430 108.7397780
 101.5209410  25.4315610 111.0556370 102.1109100  25.1231460 111.7434190
 100.7029650  24.9595360 111.2116270 106.3402840  25.0481420 111.2889390
 105.6518360  24.3862960 111.2239380 107.0608860  24.6019690 111.7337850
 106.9703240  21.6433050  97.3479650 107.2505530  20.8000950  97.7039070
 106.1968970  21.8756160  97.8618400 103.1246370  38.6982300 109.7887090
 103.0505070  39.6017440 110.0959460 102.2225210  38.3794200 109.7609160
  97.3127860  33.2367860  95.6400450  97.7502730  33.7797530  96.2958030
  97.7975590  32.4114810  95.6496790  94.5273660  36.0256890 103.0920710
  94.8576670  35.1577950 102.8599350  94.9564660  36.2315410 103.9225670
  99.1235580  34.3565900 100.7522680  98.8231120  34.2330870 101.6526590
  99.0173070  33.4974490 100.3438410  95.0163870  36.8927480 105.8302340
  94.5794860  37.0728280 106.6626490  95.5841550  37.6502100 105.6884060
 110.6526050  36.3944480 110.1179650 110.0528040  36.4537040 109.3743570
 110.7819950  35.4549460 110.2476500 111.8927500  34.1362300  95.4549360
 111.0620460  34.2038950  95.9256590 112.0699330  35.0266420  95.1516220
 111.3483960  30.8809780  97.9583560 112.1102870  31.4506430  98.0643250
 111.3638330  30.3136980  98.7291870 112.3543930  31.7359880 102.8025490
 112.7252760  30.9527200 102.3961460 112.9945860  32.4248980 102.6242790
 109.3377690  33.1196460 108.2155810 108.5237530  33.5493620 108.4781600
 109.7451890  33.7314870 107.6024860 111.2968470  29.1113140 100.1085510
 110.9212070  28.3441070  99.6766800 110.5671590  29.4935840 100.5960440
 110.6868090  28.2584660 109.7425030 110.4554180  28.0297410 108.8422980
 110.9472640  29.1784210 109.6969920  95.4380230  26.7009370 110.6352980
  94.5436280  26.6676130 110.9746690  95.9777780  26.8996160 111.4004230
 109.1256160  23.4841090 112.5204730 110.0026340  23.4924490 112.9038730
 109.1377000  22.7471930 111.9097080 110.5719430  27.3370630 103.4092750
 111.0956910  26.8433280 102.7782920 111.1578850  27.4720990 104.1540320
 110.7509150  27.4210500 106.9312300 109.8011860  27.3874040 107.0457290
 110.9322160  28.3310610 106.6962070  96.6053590  25.6712180  96.0410930
  97.3145290  25.2495400  95.5558210  95.8893530  25.7387410  95.4094280
  96.2527750  21.7251510  95.0813580  96.9755880  22.2660450  95.3994800
  96.5252270  21.4514930  94.2055120 110.0619400  26.5943980  99.3485160
 110.5578520  26.3614850 100.1334040 109.8635470  25.7555820  98.9322800
  95.9419940  20.9757700 104.9836200  96.5896130  20.4255080 104.5431360
  96.3621780  21.2300850 105.8052010 111.4906560  25.2304930 101.8822840
 111.3805840  25.0760970 102.8205110 112.2514150  24.7025870 101.6398250
 109.8372280  21.1699060 108.3405840 110.4744500  21.7833200 108.7065030
 109.9847170  21.2059720 107.3955070 112.3796830  23.0612850  95.1228980
 113.3046140  22.9294030  94.9147270 112.3572620  23.1405670  96.0765430
 112.4535320  23.8323510  97.7485690 111.6586820  23.7668630  98.2778600
 112.6578600  24.7674150  97.7371040  95.6951940  21.1313370 107.7261520
  95.3466760  21.5877190 108.4919700  95.3639640  20.2370500 107.8083950
  97.3016310  34.3032970 111.8914710  97.2585940  33.9325880 112.7729170
  97.4327320  35.2410540 112.0316530 101.0022340  35.8592560 107.4924430
 100.7613700  36.1267120 106.6054950 101.9424980  36.0298290 107.5475290
 103.2076760  22.3225250 111.2480940 103.1465650  22.9147080 111.9976350
 104.1477140  22.2151210 111.1031200 105.8451320  21.9795310 110.8873230
 106.4591730  22.2974600 110.2254310 106.3900880  21.4943900 111.5069090
 112.2626500  37.8786940 108.2935070 111.7684780  38.2755810 107.5762200
 111.6539790  37.2536150 108.6872350  96.3672580  20.6589570 111.0012290
  96.9155570  20.4777620 110.2378400  96.4327890  19.8683680 111.5368600
  97.1404340  37.2495220 109.0112490  96.5464660  37.1179920 109.7502530
  97.1328180  36.4133360 108.5454590 106.5859360  20.5427450 107.2142520
 105.7119200  20.8762560 107.0115450 106.4770110  20.0700630 108.0394390
 107.4931340  22.7498320 108.5984240 107.1644700  21.9350080 108.2185970
 108.4413640  22.7068130 108.4749930 109.9465950  38.5210360 105.5721810
 109.4868920  39.2726170 105.1979830 109.3178410  37.8016830 105.5136610
 100.3761670  36.8298600 104.7469940 100.8926690  36.2185960 104.2218200
 101.0259050  37.3327380 105.2380950 103.1157170  37.7207090 105.5738920
 103.4034980  37.4661390 104.6971930 103.6280390  37.1684450 106.1644490
 104.3334180  21.4597290 106.1535430 103.5505970  21.9342790 106.4332190
 104.0397110  20.5552120 106.0448610 108.8855250  22.1620390 104.1984520
 109.3263340  22.1065490 103.3506120 108.6162840  23.0778400 104.2694700
 110.7493820  21.7935630 102.2093340 110.6882220  20.8496850 102.0624360
 111.5285850  21.9015720 102.7546800  95.0546570  37.9327990 101.1717290
  94.8868610  37.2998670 101.8699180  94.1881080  38.1387390 100.8211480
  95.6774590  21.7644770  98.6749150  96.4353950  21.8773650  98.1013180
  95.2151760  22.6013970  98.6292580 106.7213380  20.5426490 102.9034530
 107.3242750  21.1146700 103.3783050 105.9806370  21.1065930 102.6808430
 109.8647980  20.9448050  98.1774810 110.0598610  21.8431500  98.4442240
 109.0777850  20.7135130  98.6707760  96.6609270  36.6261220  98.6167430
  96.1356890  37.0069250  97.9129390  96.5853850  37.2511990  99.3377140
 111.4174590  38.1848760  99.9381370 111.5926780  37.4986500  99.2942290
 110.7196160  38.7095810  99.5458040 100.3693140  21.3067940 112.7049000
 100.0877410  21.8101540 111.9409820 100.7512840  20.5089690 112.3391130
  99.2602240  38.5743600  97.4916680  99.9921060  38.2902880  96.9440570
  99.5195910  38.3356880  98.3816060  98.4217030  34.6908330  97.4963010
  97.7925910  35.1593430  98.0448840  98.5364860  33.8457550  97.9309200
 106.9708600  20.7221520 113.2829470 106.8574050  21.0416130 114.1780990
 107.7878340  21.1234030 112.9866750 109.7507090  37.8693050 112.7648160
 110.5432410  37.3742280 112.5574120 110.0440240  38.5483190 113.3723770
 105.8766750  28.7413990  83.6464210 105.7960800  27.8268600  83.3755920
 105.4631170  29.2381060  82.9403920 104.0084790  30.5193010  85.5273480
 103.2326890  30.0393450  85.8172050 104.6597720  29.8398660  85.3529640
  98.0250620  30.8312820  86.4049240  97.1935500  30.5761530  86.8045750
  98.6331600  30.9023590  87.1407160  98.0051880  34.8652910  86.6007260
  98.3079920  33.9750650  86.4217480  98.7495470  35.4223130  86.3729510
  96.4342570  25.7914710  80.1891630  95.5459270  26.1330680  80.0871510
  96.7183760  25.5915030  79.2972460  94.3975580  28.3920360  86.0731330
  94.9691690  27.6242560  86.0734970  94.3977120  28.6909120  85.1637940
  95.6400450  23.8004720  87.8600260  95.4603290  22.9030470  88.1403020
  95.2380530  24.3476590  88.5347210  98.6103960  24.3746210  81.2230010
  98.7170710  25.2749940  81.5298770  97.6996320  24.3264180  80.9324660
 108.2623070  23.4971020  82.6940910 109.0832690  23.0067590  82.7366390
 108.2957150  24.0868680  83.4472750  96.2587120  26.2965220  86.4682600
  96.9397230  26.5603590  87.0870000  95.9435170  25.4566090  86.8020610
 112.5522620  25.5137770  89.2584540 111.8474790  25.9019480  88.7399650
 112.8180540  26.2088060  89.8605470  98.7347790  21.9831140  89.8218610
  98.7366230  22.5003530  89.0164510  97.9052100  21.5061320  89.7988540
 105.1218880  32.0950450  81.3208510 104.5036150  32.5599900  80.7571230
 105.6342130  32.7877930  81.7378020  99.9850640  31.6226320  87.9992110
  99.6520020  32.2495240  88.6413180 100.1617320  32.1488200  87.2193780
 108.4984550  25.4371400  85.4668450 107.7940120  25.7256290  86.0471560
 108.8596710  26.2471510  85.1068010  99.1969740  33.5907120  89.8141290
  99.8143740  34.2658200  89.5325740  98.3362860  33.9995100  89.7228790
  94.4902080  32.7806980  78.6948140  94.1130060  33.2694080  77.9633040
  94.7475150  33.4532260  79.3254670 111.5671470  24.8826190  85.8577660
 110.6196380  24.9165170  85.9893090 111.8921460  25.6965140  86.2427020
 104.4871770  29.2472200  80.8893770 103.5601050  29.1809580  81.1182240
 104.6396590  30.1852330  80.7749010 110.9953610  30.2007720  87.8639960
 110.1672240  30.2700810  87.3890090 111.5904090  30.7862030  87.3955790
 108.5169060  30.8092500  81.3929020 107.8981480  30.4712050  80.7455320
 108.4993510  30.1652260  82.1008210 107.9595620  26.9877040  88.8094830
 107.5466800  27.8130750  89.0634820 107.2271570  26.4022080  88.6171190
 100.0928410  29.7736940  83.6713500  99.6885410  29.0614190  83.1759400
 100.1791530  29.4290180  84.5601540 100.5610110  33.4604500  85.8352710
 100.2638400  32.8549970  85.1560490 101.5109930  33.4981810  85.7242070
 108.6495720  37.0336370  89.4975810 108.1726280  37.8408560  89.3048420
 107.9657510  36.3814700  89.6502020  99.6528540  33.1986190  92.4860510
  98.7557070  33.4226160  92.7333910  99.6781410  33.3221130  91.5371910
 106.6933760  30.0479310  78.4001770 107.1327040  29.2101740  78.2539590
 107.4062180  30.6808710  78.4865910  98.4799760  30.0699510  91.0617880
  98.3407530  30.9422310  91.4305280  97.5981120  29.7272320  90.9165820
 100.2780110  36.0121210  93.2703030 100.2495540  36.4164160  92.4031460
 100.1145080  35.0831570  93.1074630  96.7933040  28.6681920  81.1720150
  96.6730640  29.3944010  80.5601420  96.4833930  27.8984830  80.6948060
 112.2294930  36.7948310  94.5667200 112.7054650  37.2731200  95.2456280
 112.8502090  36.7265800  93.8412700  94.4318410  31.8397060  86.9788790
  94.5098830  31.9745830  86.0344510  95.0460090  31.1312950  87.1716910
  95.6766040  33.5397250  83.3894970  95.2694120  33.6811840  82.5348570
  96.5679050  33.2557410  83.1866180 107.4699320  37.9744500  79.7246020
 107.3100460  37.6847440  80.6227850 107.3046030  37.1984630  79.1891250
 107.1725450  35.4832060  78.2844020 106.4790610  35.4809350  77.6246300
 107.9148310  35.0591380  77.8538190 111.4852190  26.0393620  92.6916950
 110.8696460  26.5473290  92.1632410 111.1648610  25.1391950  92.6342890
  94.4877930  32.8811230  89.5183250  94.6508970  32.4116590  88.7002620
  94.9530380  32.3734790  90.1832090 103.5466510  24.8785510  90.1579140
 103.0845880  25.0868530  90.9699080 103.1444620  24.0644860  89.8549810
 108.5471020  26.0994460  91.2875800 107.6964610  25.8000210  91.6084870
 108.3872810  26.3436470  90.3759620 106.2808680  27.1413930  80.8815720
 105.6817570  27.8649730  80.6979340 106.8288290  27.0790710  80.0992170
 101.4910130  28.0336140  92.9485340 101.3953730  27.0930870  92.7985740
 102.3342110  28.2551210  92.5533410 104.8873550  25.7777470  82.9119000
 105.2803120  26.0949670  82.0987690 105.2490400  24.8989350  83.0263520
  96.6220670  24.4449810  91.1019120  96.2284060  25.2925020  91.3091900
  95.9339070  23.8076180  91.2927760  93.9237720  22.3678270  85.1349200
  93.6350770  22.9381130  85.8474180  94.6683480  21.8882720  85.4980430
 105.4728690  28.3683220  87.0069780 104.7409810  28.8770030  87.3559880
 105.0753030  27.5513200  86.7058560 105.9354600  23.8216900  86.4192720
 105.9527340  24.2725550  87.2634570 105.6870180  22.9222540  86.6326160
 100.9847730  28.3550640  77.8012330 100.4164630  27.9068890  77.1748240
 101.6936730  28.7143420  77.2677480 109.3625350  21.2349080  92.2579100
 109.6871120  20.5038740  92.7837080 109.3981860  20.9162720  91.3560090
  96.0616910  32.2562660  91.6779060  95.6771700  31.6156330  92.2762020
  96.3729100  32.9598780  92.2473790 102.2114050  29.1039200  87.1587680
 102.5784180  28.6297770  87.9049020 102.0219110  29.9780770  87.4996020
  95.0754540  23.8482890  83.2881150  94.7901460  23.4838560  84.1259770
  95.0133400  23.1163350  82.6744290 100.0013420  28.1447840  89.4771890
  99.6970490  29.0239820  89.7022250 100.9559880  28.2047630  89.5129330
 104.7493130  22.7412150  80.0094520 103.9357740  22.2425320  79.9339830
 104.5555080  23.5810400  79.5930870  98.5732610  32.0189210  83.7117550
  99.0911280  31.2157470  83.6574440  98.1216630  31.9568350  84.5534380
  96.0577150  28.9850580  90.6243250  95.6992090  29.6504430  91.2116590
  95.7631710  28.1534130  90.9955870  99.2590270  29.4434820  93.5082800
  98.9590410  29.5892000  92.6110620 100.0301510  28.8840110  93.4156190
 110.7643040  35.2785900  80.5018670 110.1219200  34.6241520  80.7762390
 110.3773700  35.6840990  79.7259340  94.5685200  28.9841840  77.2477850
  95.4380050  29.2666640  77.5313770  94.0775520  29.7977710  77.1326660
  97.6331790  20.7152700  81.8408650  97.5046420  20.7070600  82.7893570
  96.8093810  21.0535790  81.4899660 109.1540420  34.1702360  77.0395020
 108.9278000  33.4532800  77.6319660 108.7636620  33.9214800  76.2016770
  94.9356450  38.1969220  77.8139480  95.2954090  38.7958560  77.1596750
  94.7948790  38.7429110  78.5874510  94.6325720  22.4743820  91.3015350
  93.9184240  22.6740740  91.9067960  95.0520760  21.6983390  91.6730150
 108.7356670  32.0874300  78.7009180 108.4478370  32.5486990  79.4887060
 109.5308840  31.6272070  78.9693400  94.9198310  36.4624080  92.2881880
  95.0289430  35.5218820  92.1477270  94.2678870  36.7278830  91.6395610
  96.5531710  30.8015310  79.3759910  95.9459660  31.5414210  79.3855210
  97.0281060  30.8914670  78.5498110 106.1264500  24.9666130  89.0516800
 106.4945320  24.1461340  89.3796370 105.2662700  25.0268020  89.4672450
 103.9384670  35.6428660  77.2938340 104.0396650  35.4392650  76.3640320
 103.0386410  35.3886940  77.4986120 101.4610560  26.2009020  81.2762240
 100.7526710  26.6695360  81.7175850 101.7455040  25.5431030  81.9107430
 103.0866490  27.6205720  89.2754770 103.5851740  28.0951540  89.9406620
 103.2289440  26.6969240  89.4824800 105.4925990  22.9259680  82.7158030
 105.3693770  22.9445810  81.7667540 106.4410550  22.9738620  82.8356430
  99.6645580  24.5094100  78.6512950 100.5136110  24.9464250  78.5853140
  99.2976850  24.8214360  79.4785010 110.2933350  23.8373680  90.1183160
 109.7906950  24.5779080  90.4576970 111.1090010  24.2257680  89.8019950
 108.5855360  29.0806860  83.5644520 107.6445500  29.0957090  83.7392210
 108.8999430  28.2942820  84.0104820  98.5637000  30.7626460  77.1248480
  99.3300270  30.6507820  77.6873910  98.6411690  30.0664430  76.4725250
  97.2583760  28.1951530  77.8081370  97.3387350  27.2479040  77.9198770
  98.1503510  28.5258410  77.9142030  98.0598470  38.3446920  84.9115910
  98.7960950  37.7962380  85.1824480  98.4439390  39.2102930  84.7721900
  94.9443950  34.4120490  80.7857420  94.0183730  34.6541630  80.7762830
  95.4100380  35.2394750  80.6642170  97.0656750  37.5292990  94.1001490
  97.8669480  37.8505040  94.5136890  96.5508570  37.1688570  94.8221400
 101.1700780  37.5177230  76.7341480 101.9629390  37.8066060  76.2823270
 100.6505130  37.0869400  76.0553960 107.3321750  37.3653150  92.6586310
 108.2843500  37.2811170  92.6086550 107.1849970  38.0294860  93.3320100
 110.2230950  36.7447360  78.1578220 109.9372460  36.3312500  77.3432400
 110.0250500  37.6735070  78.0378740  94.7854560  30.0166450  93.0437540
  95.2893580  29.4373730  93.6153770  94.0461980  30.3006680  93.5813910
 101.6878180  32.7380640  76.5983830 101.5828820  32.1232990  77.3245210
 101.5202400  32.2146530  75.8146840 104.9280910  31.8000670  77.2025820
 104.3791010  32.2469970  77.8468560 105.5500170  31.2949920  77.7263490
  96.8177640  28.1596040  93.9387610  96.8582980  27.8609910  94.8472840
  97.6723140  28.5603650  93.7795130 100.5956030  30.7591590  79.0991120
 101.0172450  30.5931460  79.9422510 100.7206870  29.9491820  78.6046260
  98.7583450  26.7388140  91.9062100  98.2279910  26.2479090  91.2785440
  99.4271520  27.1672340  91.3720030 103.1083670  29.7829200  76.3468220
 103.6289330  29.0678220  75.9809370 103.7552070  30.4215070  76.6468730
  99.2455750  23.7050510  91.9859390  99.1512620  23.0871260  91.2610260
  98.6653140  24.4316800  91.7589300 107.0928540  29.4431450  89.5999570
 106.5663760  29.9674070  88.9964710 107.4359880  30.0758840  90.2309300
  99.4914930  26.8324820  76.0449280  99.2903990  25.9692180  76.4062620
  99.3206980  26.7458180  75.1070880 100.2684160  37.4631090  90.7556950
  99.7305250  38.1877150  90.4365650 100.5218120  36.9861430  89.9654290
 106.9703240  21.6433050  78.5736160 107.2505530  20.8000950  78.9295580
 106.1968970  21.8756160  79.0874910  98.2897730  23.9325440  76.0327160
  98.5923630  23.9392870  75.1246310  99.0292320  23.5823300  76.5294820
 103.1246370  38.6982300  91.0143600 103.0505070  39.6017440  91.3215970
 102.2225210  38.3794200  90.9865670  97.3127860  33.2367860  76.8656960
  97.7502730  33.7797530  77.5214540  97.7975590  32.4114810  76.8753300
  94.5273660  36.0256890  84.3177220  94.8576670  35.1577950  84.0855860
  94.9564660  36.2315410  85.1482180  95.0163870  36.8927480  87.0558850
  94.5794860  37.0728280  87.8883000  95.5841550  37.6502100  86.9140570
 110.6526050  36.3944480  91.3436160 110.0528040  36.4537040  90.6000080
 110.7819950  35.4549460  91.4733010 111.8927500  34.1362300  76.6805870
 111.0620460  34.2038950  77.1513100 112.0699330  35.0266420  76.3772730
 111.3483960  30.8809780  79.1840070 112.1102870  31.4506430  79.2899760
 111.3638330  30.3136980  79.9548380  94.8488300  29.4047710  83.4147730
  94.1937140  29.1359350  82.7707430  95.6866250  29.2952190  82.9649710
 112.3543930  31.7359880  84.0282000 112.7252760  30.9527200  83.6217970
 112.9945860  32.4248980  83.8499300 109.3377690  33.1196460  89.4412320
 108.5237530  33.5493620  89.7038110 109.7451890  33.7314870  88.8281370
 111.4003130  31.1744150  76.3412590 111.6751970  32.0823030  76.2131810
 111.2113870  31.1106680  77.2774580 111.2968470  29.1113140  81.3342020
 110.9212070  28.3441070  80.9023310 110.5671590  29.4935840  81.8216950
  95.8864230  29.7900280  87.9551070  96.2537270  29.7027680  88.8347090
  95.3175050  29.0266830  87.8557930  95.4380230  26.7009370  91.8609490
  94.5436280  26.6676130  92.2003200  95.9777780  26.8996160  92.6260740
 109.1256160  23.4841090  93.7461240 110.0026340  23.4924490  94.1295240
 109.1377000  22.7471930  93.1353590  94.0626380  26.6146640  79.3573060
  93.1590460  26.8776840  79.1824720  94.5467000  26.8857810  78.5773020
 110.5719430  27.3370630  84.6349260 111.0956910  26.8433280  84.0039430
 111.1578850  27.4720990  85.3796830 110.7509150  27.4210500  88.1568810
 109.8011860  27.3874040  88.2713800 110.9322160  28.3310610  87.9218580
  96.6053590  25.6712180  77.2667440  97.3145290  25.2495400  76.7814720
  95.8893530  25.7387410  76.6350790  96.2527750  21.7251510  76.3070090
  96.9755880  22.2660450  76.6251310  96.5252270  21.4514930  75.4311630
  95.9419940  20.9757700  86.2092710  96.5896130  20.4255080  85.7687870
  96.3621780  21.2300850  87.0308520 111.4906560  25.2304930  83.1079350
 111.3805840  25.0760970  84.0461620 112.2514150  24.7025870  82.8654760
 109.8372280  21.1699060  89.5662350 110.4744500  21.7833200  89.9321540
 109.9847170  21.2059720  88.6211580 109.3953740  37.8715060  82.9680590
 109.9912810  37.5499630  82.2915010 109.6531890  37.3986880  83.7593860
  95.6951940  21.1313370  88.9518030  95.3466760  21.5877190  89.7176210
  95.3639640  20.2370500  89.0340460  97.3016310  34.3032970  93.1171220
  97.2585940  33.9325880  93.9985680  97.4327320  35.2410540  93.2573040
  96.3672580  20.6589570  92.2268800  96.9155570  20.4777620  91.4634910
  96.4327890  19.8683680  92.7625110  97.1404340  37.2495220  90.2369000
  96.5464660  37.1179920  90.9759040  97.1328180  36.4133360  89.7711100
 106.5859360  20.5427450  88.4399030 105.7119200  20.8762560  88.2371960
 106.4770110  20.0700630  89.2650900 107.4931340  22.7498320  89.8240750
 107.1644700  21.9350080  89.4442480 108.4413640  22.7068130  89.7006440
 109.9465950  38.5210360  86.7978320 109.4868920  39.2726170  86.4236340
 109.3178410  37.8016830  86.7393120  96.7716570  34.6153600  89.1877040
  96.0450630  33.9958890  89.1202990  96.8325720  35.0094210  88.3175120
 100.3761670  36.8298600  85.9726450 100.8926690  36.2185960  85.4474710
 101.0259050  37.3327380  86.4637460 103.1157170  37.7207090  86.7995430
 103.4034980  37.4661390  85.9228440 103.6280390  37.1684450  87.3901000
 104.3334180  21.4597290  87.3791940 103.5505970  21.9342790  87.6588700
 104.0397110  20.5552120  87.2705120 108.8855250  22.1620390  85.4241030
 109.3263340  22.1065490  84.5762630 108.6162840  23.0778400  85.4951210
 110.7493820  21.7935630  83.4349850 110.6882220  20.8496850  83.2880870
 111.5285850  21.9015720  83.9803310  95.0546570  37.9327990  82.3973800
  94.8868610  37.2998670  83.0955690  94.1881080  38.1387390  82.0467990
  95.6774590  21.7644770  79.9005660  96.4353950  21.8773650  79.3269690
  95.2151760  22.6013970  79.8549090 106.7213380  20.5426490  84.1291040
 107.3242750  21.1146700  84.6039560 105.9806370  21.1065930  83.9064940
 109.8647980  20.9448050  79.4031320 110.0598610  21.8431500  79.6698750
 109.0777850  20.7135130  79.8964270  96.6609270  36.6261220  79.8423940
  96.1356890  37.0069250  79.1385900  96.5853850  37.2511990  80.5633650
  98.0499740  22.2908820  78.4407630  98.5792500  21.5038620  78.3115580
  98.6828060  22.9700010  78.6743160 100.2437580  22.0283960  81.4953020
  99.6140320  21.3271270  81.6623150  99.7042720  22.7888090  81.2786180
 103.1829530  38.6423190  94.1663630 104.1096840  38.4067460  94.2099590
 103.1679960  39.4695190  93.6849660 111.4174590  38.1848760  81.1637880
 111.5926780  37.4986500  80.5198800 110.7196160  38.7095810  80.7714550
 100.3693140  21.3067940  93.9305510 100.0877410  21.8101540  93.1666330
 100.7512840  20.5089690  93.5647640  99.2602240  38.5743600  78.7173190
  99.9921060  38.2902880  78.1697080  99.5195910  38.3356880  79.6072570
 106.9708600  20.7221520  94.5085980 106.8574050  21.0416130  95.4037500
 107.7878340  21.1234030  94.2123260 109.7507090  37.8693050  93.9904670
 110.5432410  37.3742280  93.7830630 110.0440240  38.5483190  94.5980280
  98.0250620  30.8312820  67.6305750  97.1935500  30.5761530  68.0302260
  98.6331600  30.9023590  68.3663670  98.0051880  34.8652910  67.8263770
  98.3079920  33.9750650  67.6473990  98.7495470  35.4223130  67.5986020
 104.2555530  37.2111210  65.1533110 103.6366970  37.6668710  64.5827550
 105.1107310  37.3662670  64.7522810 100.4511690  27.3432580  66.7811700
 100.9589910  27.8413550  67.4216720 100.9824930  26.5667780  66.6051060
 112.5522620  25.5137770  70.4841050 111.8474790  25.9019480  69.9656160
 112.8180540  26.2088060  71.0861980  98.7347790  21.9831140  71.0475120
  98.7366230  22.5003530  70.2421020  97.9052100  21.5061320  71.0245050
  99.9850640  31.6226320  69.2248620  99.6520020  32.2495240  69.8669690
 100.1617320  32.1488200  68.4450290 108.4984550  25.4371400  66.6924960
 107.7940120  25.7256290  67.2728070 108.8596710  26.2471510  66.3324520
  98.4163120  23.6941100  69.0545570  98.7579930  24.5383150  68.7599440
  97.4778930  23.8424840  69.1710910  99.1969740  33.5907120  71.0397800
  99.8143740  34.2658200  70.7582250  98.3362860  33.9995100  70.9485300
  94.4902080  32.7806980  59.9204650  94.1130060  33.2694080  59.1889550
  94.7475150  33.4532260  60.5511180 110.1147330  35.0546530  68.9552440
 109.4310850  35.7245640  68.9469110 110.6541620  35.2527180  68.1897300
 111.5671470  24.8826190  67.0834170 110.6196380  24.9165170  67.2149600
 111.8921460  25.6965140  67.4683530 107.0491510  31.8020500  68.9980230
 107.4660300  31.5880610  68.1633690 107.7731330  32.0593290  69.5688850
 104.4740850  25.5189200  59.1117440 103.5344520  25.6803160  59.1969900
 104.7924110  26.2374880  58.5653430 110.9953610  30.2007720  69.0896470
 110.1672240  30.2700810  68.6146600 111.5904090  30.7862030  68.6212300
 108.5169060  30.8092500  62.6185530 107.8981480  30.4712050  61.9711830
 108.4993510  30.1652260  63.3264720 107.9595620  26.9877040  70.0351340
 107.5466800  27.8130750  70.2891330 107.2271570  26.4022080  69.8427700
 100.5610110  33.4604500  67.0609220 100.2638400  32.8549970  66.3817000
 101.5109930  33.4981810  66.9498580  98.8057030  26.5480150  68.6769050
  99.3571620  26.6575490  67.9022300  99.3200540  26.9217750  69.3924280
 108.6495720  37.0336370  70.7232320 108.1726280  37.8408560  70.5304930
 107.9657510  36.3814700  70.8758530  99.6528540  33.1986190  73.7117020
  98.7557070  33.4226160  73.9590420  99.6781410  33.3221130  72.7628420
 106.6933760  30.0479310  59.6258280 107.1327040  29.2101740  59.4796100
 107.4062180  30.6808710  59.7122420  98.4799760  30.0699510  72.2874390
  98.3407530  30.9422310  72.6561790  97.5981120  29.7272320  72.1422330
 104.8029140  34.9875380  63.5939520 105.2425050  35.7299710  63.1794910
 104.7416030  35.2301950  64.5178480 100.2780110  36.0121210  74.4959540
 100.2495540  36.4164160  73.6287970 100.1145080  35.0831570  74.3331140
 110.2750900  21.3022120  57.9399320 109.9623560  21.3948950  58.8398390
 111.0363370  21.8803150  57.8896750 112.2294930  36.7948310  75.7923710
 112.7054650  37.2731200  76.4712790 112.8502090  36.7265800  75.0669210
  94.4318410  31.8397060  68.2045300  94.5098830  31.9745830  67.2601020
  95.0460090  31.1312950  68.3973420  95.6766040  33.5397250  64.6151480
  95.2694120  33.6811840  63.7605080  96.5679050  33.2557410  64.4122690
 111.6328180  33.9861160  72.9523720 111.7591240  33.7473040  72.0340900
 111.6749560  33.1545700  73.4245800 107.4699320  37.9744500  60.9502530
 107.3100460  37.6847440  61.8484360 107.3046030  37.1984630  60.4147760
  99.9487700  37.7543030  62.7274150  99.7730180  36.8378570  62.5141950
  99.0943440  38.1130320  62.9671950 107.1725450  35.4832060  59.5100530
 106.4790610  35.4809350  58.8502810 107.9148310  35.0591380  59.0794700
  94.4877930  32.8811230  70.7439760  94.6508970  32.4116590  69.9259130
  94.9530380  32.3734790  71.4088600 103.5466510  24.8785510  71.3835650
 103.0845880  25.0868530  72.1955590 103.1444620  24.0644860  71.0806320
 108.5471020  26.0994460  72.5132310 107.6964610  25.8000210  72.8341380
 108.3872810  26.3436470  71.6016130 101.4910130  28.0336140  74.1741850
 101.3953730  27.0930870  74.0242250 102.3342110  28.2551210  73.7789920
 109.3625350  21.2349080  73.4835610 109.6871120  20.5038740  74.0093590
 109.3981860  20.9162720  72.5816600  96.0616910  32.2562660  72.9035570
  95.6771700  31.6156330  73.5018530  96.3729100  32.9598780  73.4730300
 102.2114050  29.1039200  68.3844190 102.5784180  28.6297770  69.1305530
 102.0219110  29.9780770  68.7252530 100.0013420  28.1447840  70.7028400
  99.6970490  29.0239820  70.9278760 100.9559880  28.2047630  70.7385840
  98.5295210  32.3508830  61.2995250  97.7557470  31.8106450  61.1393970
  99.2589840  31.8315440  60.9613010 109.2883190  31.3474190  67.0921640
 110.0082310  31.8429480  66.7017750 109.0865010  30.6692080  66.4475510
 104.6701990  31.4183250  72.9790640 104.6039300  30.4978920  72.7248230
 104.0407130  31.5158690  73.6935280 107.4641520  27.1131800  59.5313190
 108.3521140  27.4249030  59.3564530 107.4346610  26.2404050  59.1393770
  98.5732610  32.0189210  64.9374060  99.0911280  31.2157470  64.8830950
  98.1216630  31.9568350  65.7790890 103.4602110  33.2855490  60.2101360
 103.8017810  34.0297720  59.7144680 102.6314820  33.5986610  60.5726190
  96.0577150  28.9850580  71.8499760  95.6992090  29.6504430  72.4373100
  95.7631710  28.1534130  72.2212380  99.2590270  29.4434820  74.7339310
  98.9590410  29.5892000  73.8367130 100.0301510  28.8840110  74.6412700
 104.6018720  34.2403820  72.7294440 104.6163260  33.3084780  72.5113350
 103.8943820  34.3263580  73.3684210 109.7355790  28.4243640  58.9993050
 109.6519510  28.8557860  58.1489490 110.4549980  28.8841990  59.4319870
 110.8129930  30.8811160  72.0763020 110.0878120  31.4739940  71.8792410
 111.3405390  30.8734700  71.2776390 104.0352620  35.8821390  69.8234940
 104.6794840  36.0880770  70.5008360 104.3982060  35.1209790  69.3705790
 105.3084700  33.8853740  68.5412390 105.9506930  33.1846900  68.6544560
 105.8334050  34.6652180  68.3609280 109.1540420  34.1702360  58.2651530
 108.9278000  33.4532800  58.8576170 108.7636620  33.9214800  57.4273280
 107.0822320  34.6848640  71.7448450 107.4178560  35.2715330  72.4226370
 106.1622660  34.5541350  71.9746240  94.9356450  38.1969220  59.0395990
  95.2954090  38.7958560  58.3853260  94.7948790  38.7429110  59.8131020
 108.7356670  32.0874300  59.9265690 108.4478370  32.5486990  60.7143570
 109.5308840  31.6272070  60.1949910  94.9198310  36.4624080  73.5138390
  95.0289430  35.5218820  73.3733780  94.2678870  36.7278830  72.8652120
 102.9110900  34.7339970  74.9136510 102.5907770  34.0149210  75.4582200
 102.2369260  35.4095040  74.9872570 100.9525070  35.5800420  59.8569660
 100.9435170  36.3130110  59.2414170 100.0323430  35.3332000  59.9496620
  96.5531710  30.8015310  60.6016420  95.9459660  31.5414210  60.6111720
  97.0281060  30.8914670  59.7754620 106.1264500  24.9666130  70.2773310
 106.4945320  24.1461340  70.6052880 105.2662700  25.0268020  70.6928960
 109.4926530  23.9223070  61.0860870 108.8639690  24.0268740  60.3719100
 108.9978450  24.1419850  61.8754750 103.9384670  35.6428660  58.5194850
 104.0396650  35.4392650  57.5896830 103.0386410  35.3886940  58.7242630
 103.0866490  27.6205720  70.5011280 103.5851740  28.0951540  71.1663130
 103.2289440  26.6969240  70.7081310 102.5802780  38.1614980  63.2142520
 102.8344280  38.1236370  62.2921890 101.6315260  38.0348310  63.2070770
 110.2933350  23.8373680  71.3439670 109.7906950  24.5779080  71.6833480
 111.1090010  24.2257680  71.0276460  98.5637000  30.7626460  58.3504990
  99.3300270  30.6507820  58.9130420  98.6411690  30.0664430  57.6981760
  98.0598470  38.3446920  66.1372420  98.7960950  37.7962380  66.4080990
  98.4439390  39.2102930  65.9978410  94.9443950  34.4120490  62.0113930
  94.0183730  34.6541630  62.0019340  95.4100380  35.2394750  61.8898680
  97.0656750  37.5292990  75.3258000  97.8669480  37.8505040  75.7393400
  96.5508570  37.1688570  76.0477910 101.1700780  37.5177230  57.9597990
 101.9629390  37.8066060  57.5079780 100.6505130  37.0869400  57.2810470
 105.9021380  33.6372860  75.2733410 105.2959540  33.6604460  74.5329160
 105.5975490  32.9055900  75.8100660 107.3321750  37.3653150  73.8842820
 108.2843500  37.2811170  73.8343060 107.1849970  38.0294860  74.5576610
  94.7854560  30.0166450  74.2694050  95.2893580  29.4373730  74.8410280
  94.0461980  30.3006680  74.8070420 101.6878180  32.7380640  57.8240340
 101.5828820  32.1232990  58.5501720 101.5202400  32.2146530  57.0403350
 101.8392500  31.4237440  73.8029570 101.0738170  31.9922440  73.7184240
 102.0208460  31.1313650  72.9097800 104.9280910  31.8000670  58.4282330
 104.3791010  32.2469970  59.0725070 105.5500170  31.2949920  58.9520000
 108.9815850  33.1542770  74.3604590 109.7225320  33.4918530  73.8572050
 108.2188530  33.3234830  73.8074360  96.8177640  28.1596040  75.1644120
  96.8582980  27.8609910  76.0729350  97.6723140  28.5603650  75.0051640
 100.5956030  30.7591590  60.3247630 101.0172450  30.5931460  61.1679020
 100.7206870  29.9491820  59.8302770  98.7583450  26.7388140  73.1318610
  98.2279910  26.2479090  72.5041950  99.4271520  27.1672340  72.5976540
 103.1083670  29.7829200  57.5724730 103.6289330  29.0678220  57.2065880
 103.7552070  30.4215070  57.8725240 107.6561510  31.2057600  72.8959800
 108.0702530  31.3602680  73.7450220 106.7212510  31.3312820  73.0585580
 108.1283680  28.5453760  74.8998950 108.7104450  27.7906080  74.8119430
 108.3045450  29.0761200  74.1230430  99.2455750  23.7050510  73.2115900
  99.1512620  23.0871260  72.4866770  98.6653140  24.4316800  72.9845810
 102.0117190  22.2623750  70.2443290 101.5634490  22.2848010  69.3988840
 101.3782390  21.8642770  70.8413590 102.4176740  31.1578080  70.8655730
 102.8364850  32.0010810  70.6931970 101.4985370  31.2950120  70.6362510
 104.7540640  28.8894260  72.2493570 104.8736850  28.2935400  72.9888410
 105.6134640  28.9263950  71.8294870 107.0928540  29.4431450  70.8256080
 106.5663760  29.9674070  70.2221220 107.4359880  30.0758840  71.4565810
  99.4914930  26.8324820  57.2705790  99.2903990  25.9692180  57.6319130
  99.3206980  26.7458180  56.3327390 100.2684160  37.4631090  71.9813460
  99.7305250  38.1877150  71.6622160 100.5218120  36.9861430  71.1910800
 106.9703240  21.6433050  59.7992670 107.2505530  20.8000950  60.1552090
 106.1968970  21.8756160  60.3131420  98.2897730  23.9325440  57.2583670
  98.5923630  23.9392870  56.3502820  99.0292320  23.5823300  57.7551330
 101.5082660  22.8760060  58.2439870 101.1604660  22.1984050  57.6642320
 101.7095430  22.4149570  59.0583260 103.6731700  37.8640810  59.8626470
 104.5682490  38.2025780  59.8845230 103.7049330  37.1420220  59.2350750
  97.3127860  33.2367860  58.0913470  97.7502730  33.7797530  58.7471050
  97.7975590  32.4114810  58.1009810  94.5273660  36.0256890  65.5433730
  94.8576670  35.1577950  65.3112370  94.9564660  36.2315410  66.3738690
  99.1235580  34.3565900  63.2035700  98.8231120  34.2330870  64.1039610
  99.0173070  33.4974490  62.7951430  95.0163870  36.8927480  68.2815360
  94.5794860  37.0728280  69.1139510  95.5841550  37.6502100  68.1397080
 110.6526050  36.3944480  72.5692670 110.0528040  36.4537040  71.8256590
 110.7819950  35.4549460  72.6989520 111.3483960  30.8809780  60.4096580
 112.1102870  31.4506430  60.5156270 111.3638330  30.3136980  61.1804890
 112.3543930  31.7359880  65.2538510 112.7252760  30.9527200  64.8474480
 112.9945860  32.4248980  65.0755810 109.3377690  33.1196460  70.6668830
 108.5237530  33.5493620  70.9294620 109.7451890  33.7314870  70.0537880
 111.4003130  31.1744150  57.5669100 111.6751970  32.0823030  57.4388320
 111.2113870  31.1106680  58.5031090 107.7978740  24.1989000  58.8622730
 108.2163620  24.0119980  58.0219390 107.4914800  23.3468050  59.1725660
 111.2968470  29.1113140  62.5598530 110.9212070  28.3441070  62.1279820
 110.5671590  29.4935840  63.0473460  95.8864230  29.7900280  69.1807580
  96.2537270  29.7027680  70.0603600  95.3175050  29.0266830  69.0814440
 110.6868090  28.2584660  72.1938050 110.4554180  28.0297410  71.2936000
 110.9472640  29.1784210  72.1482940  94.0626380  26.6146640  60.5829570
  93.1590460  26.8776840  60.4081230  94.5467000  26.8857810  59.8029530
 110.5719430  27.3370630  65.8605770 111.0956910  26.8433280  65.2295940
 111.1578850  27.4720990  66.6053340 110.7509150  27.4210500  69.3825320
 109.8011860  27.3874040  69.4970310 110.9322160  28.3310610  69.1475090
  96.2527750  21.7251510  57.5326600  96.9755880  22.2660450  57.8507820
  96.5252270  21.4514930  56.6568140 110.0619400  26.5943980  61.7998180
 110.5578520  26.3614850  62.5847060 109.8635470  25.7555820  61.3835820
  95.9419940  20.9757700  67.4349220  96.5896130  20.4255080  66.9944380
  96.3621780  21.2300850  68.2565030 111.4906560  25.2304930  64.3335860
 111.3805840  25.0760970  65.2718130 112.2514150  24.7025870  64.0911270
 109.8372280  21.1699060  70.7918860 110.4744500  21.7833200  71.1578050
 109.9847170  21.2059720  69.8468090 112.3796830  23.0612850  57.5742000
 113.3046140  22.9294030  57.3660290 112.3572620  23.1405670  58.5278450
 112.4535320  23.8323510  60.1998710 111.6586820  23.7668630  60.7291620
 112.6578600  24.7674150  60.1884060  97.3016310  34.3032970  74.3427730
  97.2585940  33.9325880  75.2242190  97.4327320  35.2410540  74.4829550
 101.0022340  35.8592560  69.9437450 100.7613700  36.1267120  69.0567970
 101.9424980  36.0298290  69.9988310 112.2626500  37.8786940  70.7448090
 111.7684780  38.2755810  70.0275220 111.6539790  37.2536150  71.1385370
  97.1404340  37.2495220  71.4625510  96.5464660  37.1179920  72.2015550
  97.1328180  36.4133360  70.9967610 106.5859360  20.5427450  69.6655540
 105.7119200  20.8762560  69.4628470 106.4770110  20.0700630  70.4907410
 107.4931340  22.7498320  71.0497260 107.1644700  21.9350080  70.6698990
 108.4413640  22.7068130  70.9262950  96.7716570  34.6153600  70.4133550
  96.0450630  33.9958890  70.3459500  96.8325720  35.0094210  69.5431630
 100.3761670  36.8298600  67.1982960 100.8926690  36.2185960  66.6731220
 101.0259050  37.3327380  67.6893970 103.1157170  37.7207090  68.0251940
 103.4034980  37.4661390  67.1484950 103.6280390  37.1684450  68.6157510
 104.3334180  21.4597290  68.6048450 103.5505970  21.9342790  68.8845210
 104.0397110  20.5552120  68.4961630 108.8855250  22.1620390  66.6497540
 109.3263340  22.1065490  65.8019140 108.6162840  23.0778400  66.7207720
 110.7493820  21.7935630  64.6606360 110.6882220  20.8496850  64.5137380
 111.5285850  21.9015720  65.2059820  95.0546570  37.9327990  63.6230310
  94.8868610  37.2998670  64.3212200  94.1881080  38.1387390  63.2724500
 106.7213380  20.5426490  65.3547550 107.3242750  21.1146700  65.8296070
 105.9806370  21.1065930  65.1321450 109.8647980  20.9448050  60.6287830
 110.0598610  21.8431500  60.8955260 109.0777850  20.7135130  61.1220780
  96.6609270  36.6261220  61.0680450  96.1356890  37.0069250  60.3642410
  96.5853850  37.2511990  61.7890160  99.2602240  38.5743600  59.9429700
  99.9921060  38.2902880  59.3953590  99.5195910  38.3356880  60.8329080
  98.4217030  34.6908330  59.9476030  97.7925910  35.1593430  60.4961860
  98.5364860  33.8457550  60.3822220 109.7507090  37.8693050  75.2161180
 110.5432410  37.3742280  75.0087140 110.0440240  38.5483190  75.8236790
 105.8766750  28.7413990  46.0977230 105.7960800  27.8268600  45.8268940
 105.4631170  29.2381060  45.3916940  96.4342570  25.7914710  42.6404650
  95.5459270  26.1330680  42.5384530  96.7183760  25.5915030  41.7485480
  94.3975580  28.3920360  48.5244350  94.9691690  27.6242560  48.5247990
  94.3977120  28.6909120  47.6150960  95.6400450  23.8004720  50.3113280
  95.4603290  22.9030470  50.5916040  95.2380530  24.3476590  50.9860230
 104.4798950  26.0020580  48.2125590 104.8563770  25.1292460  48.0999260
 104.3818460  26.3379280  47.3216030  98.6103960  24.3746210  43.6743030
  98.7170710  25.2749940  43.9811790  97.6996320  24.3264180  43.3837680
 108.2623070  23.4971020  45.1453930 109.0832690  23.0067590  45.1879410
 108.2957150  24.0868680  45.8985770  96.2587120  26.2965220  48.9195620
  96.9397230  26.5603590  49.5383020  95.9435170  25.4566090  49.2533630
 100.4511690  27.3432580  48.0068210 100.9589910  27.8413550  48.6473230
 100.9824930  26.5667780  47.8307570 112.5522620  25.5137770  51.7097560
 111.8474790  25.9019480  51.1912670 112.8180540  26.2088060  52.3118490
  98.7347790  21.9831140  52.2731630  98.7366230  22.5003530  51.4677530
  97.9052100  21.5061320  52.2501560 108.4984550  25.4371400  47.9181470
 107.7940120  25.7256290  48.4984580 108.8596710  26.2471510  47.5581030
  98.4163120  23.6941100  50.2802080  98.7579930  24.5383150  49.9855950
  97.4778930  23.8424840  50.3967420 111.5671470  24.8826190  48.3090680
 110.6196380  24.9165170  48.4406110 111.8921460  25.6965140  48.6940040
 102.0991010  21.1823370  46.6046670 102.4065990  20.6270260  45.8882170
 101.1691710  21.3167830  46.4219660 108.9451490  33.6206880  43.9844300
 108.8347820  32.6781210  44.1093720 108.9419740  33.9822520  44.8707060
 104.4740850  25.5189200  40.3373950 103.5344520  25.6803160  40.4226410
 104.7924110  26.2374880  39.7909940 107.9595620  26.9877040  51.2607850
 107.5466800  27.8130750  51.5147840 107.2271570  26.4022080  51.0684210
 100.0928410  29.7736940  46.1226520  99.6885410  29.0614190  45.6272420
 100.1791530  29.4290180  47.0114560  98.8057030  26.5480150  49.9025560
  99.3571620  26.6575490  49.1278810  99.3200540  26.9217750  50.6180790
 108.6495720  37.0336370  51.9488830 108.1726280  37.8408560  51.7561440
 107.9657510  36.3814700  52.1015040  99.6528540  33.1986190  54.9373530
  98.7557070  33.4226160  55.1846930  99.6781410  33.3221130  53.9884930
 100.2780110  36.0121210  55.7216050 100.2495540  36.4164160  54.8544480
 100.1145080  35.0831570  55.5587650 110.2750900  21.3022120  39.1655830
 109.9623560  21.3948950  40.0654900 111.0363370  21.8803150  39.1153260
  96.7933040  28.6681920  43.6233170  96.6730640  29.3944010  43.0114440
  96.4833930  27.8984830  43.1461080  94.4318410  31.8397060  49.4301810
  94.5098830  31.9745830  48.4857530  95.0460090  31.1312950  49.6229930
  95.6766040  33.5397250  45.8407990  95.2694120  33.6811840  44.9861590
  96.5679050  33.2557410  45.6379200 105.4944920  37.6889160  52.7475040
 106.0089590  37.5997170  53.5497470 104.6514000  38.0348860  53.0402950
 107.4699320  37.9744500  42.1759040 107.3100460  37.6847440  43.0740870
 107.3046030  37.1984630  41.6404270  99.9487700  37.7543030  43.9530660
  99.7730180  36.8378570  43.7398460  99.0943440  38.1130320  44.1928460
 111.4852190  26.0393620  55.1429970 110.8696460  26.5473290  54.6145430
 111.1648610  25.1391950  55.0855910  94.4877930  32.8811230  51.9696270
  94.6508970  32.4116590  51.1515640  94.9530380  32.3734790  52.6345110
  99.2596700  22.0116990  47.0056840  98.8164850  22.7926530  46.6741360
  99.8181690  22.3346880  47.7127780 103.5466510  24.8785510  52.6092160
 103.0845880  25.0868530  53.4212100 103.1444620  24.0644860  52.3062830
 108.5471020  26.0994460  53.7388820 107.6964610  25.8000210  54.0597890
 108.3872810  26.3436470  52.8272640 105.6420730  27.5996210  55.8387610
 105.9674140  26.7659960  55.4989840 106.4301060  28.1224730  55.9865940
 102.3755520  21.6327690  41.8862670 101.7509700  21.6287560  42.6115980
 102.2885640  20.7658650  41.4898640 101.2972600  22.5564320  48.8646440
 101.5944930  23.4627150  48.7838460 101.8458160  22.0683100  48.2506010
  99.0510920  27.1350560  44.7338090  98.8251840  26.9187730  45.6384710
  98.2703450  27.5679020  44.3884060 106.2808680  27.1413930  43.3328740
 105.6817570  27.8649730  43.1492360 106.8288290  27.0790710  42.5505190
 101.4910130  28.0336140  55.3998360 101.3953730  27.0930870  55.2498760
 102.3342110  28.2551210  55.0046430 104.8873550  25.7777470  45.3632020
 105.2803120  26.0949670  44.5500710 105.2490400  24.8989350  45.4776540
 103.1965720  24.5284780  56.6228880 102.5064040  24.3356980  57.2574970
 103.9398020  24.8119420  57.1553180  93.9237720  22.3678270  47.5862220
  93.6350770  22.9381130  48.2987200  94.6683480  21.8882720  47.9493450
  94.1107950  26.3098390  38.7964940  94.0282620  27.2529150  38.9379930
  93.7591010  26.1673300  37.9177290 105.4728690  28.3683220  49.4582800
 104.7409810  28.8770030  49.8072900 105.0753030  27.5513200  49.1571580
 101.9106080  25.0437420  47.8635290 101.9142140  24.6027370  47.0139830
 102.8057200  25.3654750  47.9707110  97.7608460  24.9263910  46.8229500
  97.4208510  25.4039140  47.5796550  96.9985780  24.4729030  46.4630600
 101.9726230  26.0449500  40.8542050 102.0939050  26.0035980  41.8027870
 101.5874740  26.9073650  40.6988780 105.9354600  23.8216900  48.8705740
 105.9527340  24.2725550  49.7147590 105.6870180  22.9222540  49.0839180
 100.9847730  28.3550640  40.2525350 100.4164630  27.9068890  39.6261260
 101.6936730  28.7143420  39.7190500 109.3625350  21.2349080  54.7092120
 109.6871120  20.5038740  55.2350100 109.3981860  20.9162720  53.8073110
 102.2114050  29.1039200  49.6100700 102.5784180  28.6297770  50.3562040
 102.0219110  29.9780770  49.9509040  95.0754540  23.8482890  45.7394170
  94.7901460  23.4838560  46.5772790  95.0133400  23.1163350  45.1257310
 100.0013420  28.1447840  51.9284910  99.6970490  29.0239820  52.1535270
 100.9559880  28.2047630  51.9642350  98.5295210  32.3508830  42.5251760
  97.7557470  31.8106450  42.3650480  99.2589840  31.8315440  42.1869520
 104.7493130  22.7412150  42.4607540 103.9357740  22.2425320  42.3852850
 104.5555080  23.5810400  42.0443890 104.6701990  31.4183250  54.2047150
 104.6039300  30.4978920  53.9504740 104.0407130  31.5158690  54.9191790
 107.4641520  27.1131800  40.7569700 108.3521140  27.4249030  40.5821040
 107.4346610  26.2404050  40.3650280  99.2590270  29.4434820  55.9595820
  98.9590410  29.5892000  55.0623640 100.0301510  28.8840110  55.8669210
 104.6018720  34.2403820  53.9550950 104.6163260  33.3084780  53.7369860
 103.8943820  34.3263580  54.5940720 109.7355790  28.4243640  40.2249560
 109.6519510  28.8557860  39.3746000 110.4549980  28.8841990  40.6576380
 110.7643040  35.2785900  42.9531690 110.1219200  34.6241520  43.2275410
 110.3773700  35.6840990  42.1772360  94.5685200  28.9841840  39.6990870
  95.4380050  29.2666640  39.9826790  94.0775520  29.7977710  39.5839680
  97.6331790  20.7152700  44.2921670  97.5046420  20.7070600  45.2406590
  96.8093810  21.0535790  43.9412680 109.1540420  34.1702360  39.4908040
 108.9278000  33.4532800  40.0832680 108.7636620  33.9214800  38.6529790
 107.0822320  34.6848640  52.9704960 107.4178560  35.2715330  53.6482880
 106.1622660  34.5541350  53.2002750  94.6325720  22.4743820  53.7528370
  93.9184240  22.6740740  54.3580980  95.0520760  21.6983390  54.1243170
  94.9198310  36.4624080  54.7394900  95.0289430  35.5218820  54.5990290
  94.2678870  36.7278830  54.0908630 102.9110900  34.7339970  56.1393020
 102.5907770  34.0149210  56.6838710 102.2369260  35.4095040  56.2129080
 100.9525070  35.5800420  41.0826170 100.9435170  36.3130110  40.4670680
 100.0323430  35.3332000  41.1753130  96.5531710  30.8015310  41.8272930
  95.9459660  31.5414210  41.8368230  97.0281060  30.8914670  41.0011130
 106.1264500  24.9666130  51.5029820 106.4945320  24.1461340  51.8309390
 105.2662700  25.0268020  51.9185470 109.4926530  23.9223070  42.3117380
 108.8639690  24.0268740  41.5975610 108.9978450  24.1419850  43.1011260
 101.4610560  26.2009020  43.7275260 100.7526710  26.6695360  44.1688870
 101.7455040  25.5431030  44.3620450 103.0866490  27.6205720  51.7267790
 103.5851740  28.0951540  52.3919640 103.2289440  26.6969240  51.9337820
 105.4925990  22.9259680  45.1671050 105.3693770  22.9445810  44.2180560
 106.4410550  22.9738620  45.2869450 102.5802780  38.1614980  44.4399030
 102.8344280  38.1236370  43.5178400 101.6315260  38.0348310  44.4327280
  99.6645580  24.5094100  41.1025970 100.5136110  24.9464250  41.0366160
  99.2976850  24.8214360  41.9298030 110.2933350  23.8373680  52.5696180
 109.7906950  24.5779080  52.9089990 111.1090010  24.2257680  52.2532970
 108.5855360  29.0806860  46.0157540 107.6445500  29.0957090  46.1905230
 108.8999430  28.2942820  46.4617840  98.5637000  30.7626460  39.5761500
  99.3300270  30.6507820  40.1386930  98.6411690  30.0664430  38.9238270
  97.2583760  28.1951530  40.2594390  97.3387350  27.2479040  40.3711790
  98.1503510  28.5258410  40.3655050  98.0598470  38.3446920  47.3628930
  98.7960950  37.7962380  47.6337500  98.4439390  39.2102930  47.2234920
  97.0656750  37.5292990  56.5514510  97.8669480  37.8505040  56.9649910
  96.5508570  37.1688570  57.2734420 105.9021380  33.6372860  56.4989920
 105.2959540  33.6604460  55.7585670 105.5975490  32.9055900  57.0357170
 107.3321750  37.3653150  55.1099330 108.2843500  37.2811170  55.0599570
 107.1849970  38.0294860  55.7833120 110.2230950  36.7447360  40.6091240
 109.9372460  36.3312500  39.7945420 110.0250500  37.6735070  40.4891760
 101.8392500  31.4237440  55.0286080 101.0738170  31.9922440  54.9440750
 102.0208460  31.1313650  54.1354310 108.9815850  33.1542770  55.5861100
 109.7225320  33.4918530  55.0828560 108.2188530  33.3234830  55.0330870
 103.1083670  29.7829200  38.7981240 103.6289330  29.0678220  38.4322390
 103.7552070  30.4215070  39.0981750 107.6561510  31.2057600  54.1216310
 108.0702530  31.3602680  54.9706730 106.7212510  31.3312820  54.2842090
 108.1283680  28.5453760  56.1255460 108.7104450  27.7906080  56.0375940
 108.3045450  29.0761200  55.3486940  99.2455750  23.7050510  54.4372410
  99.1512620  23.0871260  53.7123280  98.6653140  24.4316800  54.2102320
 102.0117190  22.2623750  51.4699800 101.5634490  22.2848010  50.6245350
 101.3782390  21.8642770  52.0670100 102.4176740  31.1578080  52.0912240
 102.8364850  32.0010810  51.9188480 101.4985370  31.2950120  51.8619020
 104.7540640  28.8894260  53.4750080 104.8736850  28.2935400  54.2144920
 105.6134640  28.9263950  53.0551380 107.0928540  29.4431450  52.0512590
 106.5663760  29.9674070  51.4477730 107.4359880  30.0758840  52.6822320
  99.4914930  26.8324820  38.4962300  99.2903990  25.9692180  38.8575640
  99.3206980  26.7458180  37.5583900 100.2684160  37.4631090  53.2069970
  99.7305250  38.1877150  52.8878670 100.5218120  36.9861430  52.4167310
 101.5209410  25.4315610  54.7325900 102.1109100  25.1231460  55.4203720
 100.7029650  24.9595360  54.8885800 106.3402840  25.0481420  54.9658920
 105.6518360  24.3862960  54.9008910 107.0608860  24.6019690  55.4107380
 106.9703240  21.6433050  41.0249180 107.2505530  20.8000950  41.3808600
 106.1968970  21.8756160  41.5387930  98.2897730  23.9325440  38.4840180
  98.5923630  23.9392870  37.5759330  99.0292320  23.5823300  38.9807840
 103.1246370  38.6982300  53.4656620 103.0505070  39.6017440  53.7728990
 102.2225210  38.3794200  53.4378690 101.5082660  22.8760060  39.4696380
 101.1604660  22.1984050  38.8898830 101.7095430  22.4149570  40.2839770
 103.6731700  37.8640810  41.0882980 104.5682490  38.2025780  41.1101740
 103.7049330  37.1420220  40.4607260  97.3127860  33.2367860  39.3169980
  97.7502730  33.7797530  39.9727560  97.7975590  32.4114810  39.3266320
  99.1235580  34.3565900  44.4292210  98.8231120  34.2330870  45.3296120
  99.0173070  33.4974490  44.0207940  95.0163870  36.8927480  49.5071870
  94.5794860  37.0728280  50.3396020  95.5841550  37.6502100  49.3653590
 110.6526050  36.3944480  53.7949180 110.0528040  36.4537040  53.0513100
 110.7819950  35.4549460  53.9246030 111.8927500  34.1362300  39.1318890
 111.0620460  34.2038950  39.6026120 112.0699330  35.0266420  38.8285750
 111.3483960  30.8809780  41.6353090 112.1102870  31.4506430  41.7412780
 111.3638330  30.3136980  42.4061400  94.8488300  29.4047710  45.8660750
  94.1937140  29.1359350  45.2220450  95.6866250  29.2952190  45.4162730
 112.3543930  31.7359880  46.4795020 112.7252760  30.9527200  46.0730990
 112.9945860  32.4248980  46.3012320 111.4003130  31.1744150  38.7925610
 111.6751970  32.0823030  38.6644830 111.2113870  31.1106680  39.7287600
 107.7978740  24.1989000  40.0879240 108.2163620  24.0119980  39.2475900
 107.4914800  23.3468050  40.3982170 111.2968470  29.1113140  43.7855040
 110.9212070  28.3441070  43.3536330 110.5671590  29.4935840  44.2729970
 109.1256160  23.4841090  56.1974260 110.0026340  23.4924490  56.5808260
 109.1377000  22.7471930  55.5866610  94.0626380  26.6146640  41.8086080
  93.1590460  26.8776840  41.6337740  94.5467000  26.8857810  41.0286040
 110.5719430  27.3370630  47.0862280 111.0956910  26.8433280  46.4552450
 111.1578850  27.4720990  47.8309850  96.6053590  25.6712180  39.7180460
  97.3145290  25.2495400  39.2327740  95.8893530  25.7387410  39.0863810
  96.2527750  21.7251510  38.7583110  96.9755880  22.2660450  39.0764330
  96.5252270  21.4514930  37.8824650 110.0619400  26.5943980  43.0254690
 110.5578520  26.3614850  43.8103570 109.8635470  25.7555820  42.6092330
  95.9419940  20.9757700  48.6605730  96.5896130  20.4255080  48.2200890
  96.3621780  21.2300850  49.4821540 111.4906560  25.2304930  45.5592370
 111.3805840  25.0760970  46.4974640 112.2514150  24.7025870  45.3167780
 109.8372280  21.1699060  52.0175370 110.4744500  21.7833200  52.3834560
 109.9847170  21.2059720  51.0724600 112.3796830  23.0612850  38.7998510
 113.3046140  22.9294030  38.5916800 112.3572620  23.1405670  39.7534960
 112.4535320  23.8323510  41.4255220 111.6586820  23.7668630  41.9548130
 112.6578600  24.7674150  41.4140570  95.6951940  21.1313370  51.4031050
  95.3466760  21.5877190  52.1689230  95.3639640  20.2370500  51.4853480
  97.3016310  34.3032970  55.5684240  97.2585940  33.9325880  56.4498700
  97.4327320  35.2410540  55.7086060 103.2076760  22.3225250  54.9250470
 103.1465650  22.9147080  55.6745880 104.1477140  22.2151210  54.7800730
 105.8451320  21.9795310  54.5642760 106.4591730  22.2974600  53.9023840
 106.3900880  21.4943900  55.1838620 112.2626500  37.8786940  51.9704600
 111.7684780  38.2755810  51.2531730 111.6539790  37.2536150  52.3641880
  96.3672580  20.6589570  54.6781820  96.9155570  20.4777620  53.9147930
  96.4327890  19.8683680  55.2138130  97.1404340  37.2495220  52.6882020
  96.5464660  37.1179920  53.4272060  97.1328180  36.4133360  52.2224120
 106.5859360  20.5427450  50.8912050 105.7119200  20.8762560  50.6884980
 106.4770110  20.0700630  51.7163920 107.4931340  22.7498320  52.2753770
 107.1644700  21.9350080  51.8955500 108.4413640  22.7068130  52.1519460
  96.7716570  34.6153600  51.6390060  96.0450630  33.9958890  51.5716010
  96.8325720  35.0094210  50.7688140 104.3334180  21.4597290  49.8304960
 103.5505970  21.9342790  50.1101720 104.0397110  20.5552120  49.7218140
 108.8855250  22.1620390  47.8754050 109.3263340  22.1065490  47.0275650
 108.6162840  23.0778400  47.9464230 110.7493820  21.7935630  45.8862870
 110.6882220  20.8496850  45.7393890 111.5285850  21.9015720  46.4316330
  95.0546570  37.9327990  44.8486820  94.8868610  37.2998670  45.5468710
  94.1881080  38.1387390  44.4981010  95.6774590  21.7644770  42.3518680
  96.4353950  21.8773650  41.7782710  95.2151760  22.6013970  42.3062110
 102.2188400  23.8784040  45.3420990 101.4062910  23.5040930  45.0016870
 102.7230040  23.1229120  45.6442180 106.7213380  20.5426490  46.5804060
 107.3242750  21.1146700  47.0552580 105.9806370  21.1065930  46.3577960
 109.8647980  20.9448050  41.8544340 110.0598610  21.8431500  42.1211770
 109.0777850  20.7135130  42.3477290  98.0499740  22.2908820  40.8920650
  98.5792500  21.5038620  40.7628600  98.6828060  22.9700010  41.1256180
 100.2437580  22.0283960  43.9466040  99.6140320  21.3271270  44.1136170
  99.7042720  22.7888090  43.7299200 103.1829530  38.6423190  56.6176650
 104.1096840  38.4067460  56.6612610 103.1679960  39.4695190  56.1362680
 111.4174590  38.1848760  43.6150900 111.5926780  37.4986500  42.9711820
 110.7196160  38.7095810  43.2227570 100.3693140  21.3067940  56.3818530
 100.0877410  21.8101540  55.6179350 100.7512840  20.5089690  56.0160660
  98.4217030  34.6908330  41.1732540  97.7925910  35.1593430  41.7218370
  98.5364860  33.8457550  41.6078730 106.9708600  20.7221520  56.9599000
 106.8574050  21.0416130  57.8550520 107.7878340  21.1234030  56.6636280
 109.7507090  37.8693050  56.4417690 110.5432410  37.3742280  56.2343650
 110.0440240  38.5483190  57.0493300 105.8766750  28.7413990  27.3233740
 105.7960800  27.8268600  27.0525450 105.4631170  29.2381060  26.6173450
 104.0084790  30.5193010  29.2043010 103.2326890  30.0393450  29.4941580
 104.6597720  29.8398660  29.0299170  98.0250620  30.8312820  30.0818770
  97.1935500  30.5761530  30.4815280  98.6331600  30.9023590  30.8176690
 108.0292220  34.9253200  27.9842140 107.5673750  34.1540440  28.3129310
 108.8417770  34.9519270  28.4894590  98.0051880  34.8652910  30.2776790
  98.3079920  33.9750650  30.0987010  98.7495470  35.4223130  30.0499040
  96.4342570  25.7914710  23.8661160  95.5459270  26.1330680  23.7641040
  96.7183760  25.5915030  22.9741990  94.3975580  28.3920360  29.7500860
  94.9691690  27.6242560  29.7504500  94.3977120  28.6909120  28.8407470
 104.2555530  37.2111210  27.6046130 103.6366970  37.6668710  27.0340570
 105.1107310  37.3662670  27.2035830 103.4493780  33.1950200  29.2113170
 103.3802060  32.2540140  29.0502300 104.2113640  33.2851610  29.7835740
  95.6400450  23.8004720  31.5369790  95.4603290  22.9030470  31.8172550
  95.2380530  24.3476590  32.2116740 104.4798950  26.0020580  29.4382100
 104.8563770  25.1292460  29.3255770 104.3818460  26.3379280  28.5472540
  98.6103960  24.3746210  24.8999540  98.7170710  25.2749940  25.2068300
  97.6996320  24.3264180  24.6094190 108.2623070  23.4971020  26.3710440
 109.0832690  23.0067590  26.4135920 108.2957150  24.0868680  27.1242280
  96.2587120  26.2965220  30.1452130  96.9397230  26.5603590  30.7639530
  95.9435170  25.4566090  30.4790140 100.4511690  27.3432580  29.2324720
 100.9589910  27.8413550  29.8729740 100.9824930  26.5667780  29.0564080
 112.5522620  25.5137770  32.9354070 111.8474790  25.9019480  32.4169180
 112.8180540  26.2088060  33.5375000  98.7347790  21.9831140  33.4988140
  98.7366230  22.5003530  32.6934040  97.9052100  21.5061320  33.4758070
 105.1218880  32.0950450  24.9978040 104.5036150  32.5599900  24.4340760
 105.6342130  32.7877930  25.4147550  99.9850640  31.6226320  31.6761640
  99.6520020  32.2495240  32.3182710 100.1617320  32.1488200  30.8963310
 108.4984550  25.4371400  29.1437980 107.7940120  25.7256290  29.7241090
 108.8596710  26.2471510  28.7837540  98.4163120  23.6941100  31.5058590
  98.7579930  24.5383150  31.2112460  97.4778930  23.8424840  31.6223930
  99.1969740  33.5907120  33.4910820  99.8143740  34.2658200  33.2095270
  98.3362860  33.9995100  33.3998320  94.4902080  32.7806980  22.3717670
  94.1130060  33.2694080  21.6402570  94.7475150  33.4532260  23.0024200
 110.1147330  35.0546530  31.4065460 109.4310850  35.7245640  31.3982130
 110.6541620  35.2527180  30.6410320 111.5671470  24.8826190  29.5347190
 110.6196380  24.9165170  29.6662620 111.8921460  25.6965140  29.9196550
 102.0991010  21.1823370  27.8303180 102.4065990  20.6270260  27.1138680
 101.1691710  21.3167830  27.6476170 107.6506070  36.8990660  30.1210640
 107.6633230  36.4952950  29.2532900 107.0981290  37.6737950  30.0172070
 108.9451490  33.6206880  25.2100810 108.8347820  32.6781210  25.3350230
 108.9419740  33.9822520  26.0963570 107.0491510  31.8020500  31.4493250
 107.4660300  31.5880610  30.6146710 107.7731330  32.0593290  32.0201870
 104.4871770  29.2472200  24.5663300 103.5601050  29.1809580  24.7951770
 104.6396590  30.1852330  24.4518540 104.4740850  25.5189200  21.5630460
 103.5344520  25.6803160  21.6482920 104.7924110  26.2374880  21.0166450
 110.9953610  30.2007720  31.5409490 110.1672240  30.2700810  31.0659620
 111.5904090  30.7862030  31.0725320 108.5169060  30.8092500  25.0698550
 107.8981480  30.4712050  24.4224850 108.4993510  30.1652260  25.7777740
 107.9595620  26.9877040  32.4864360 107.5466800  27.8130750  32.7404350
 107.2271570  26.4022080  32.2940720 100.0928410  29.7736940  27.3483030
  99.6885410  29.0614190  26.8528930 100.1791530  29.4290180  28.2371070
 100.5610110  33.4604500  29.5122240 100.2638400  32.8549970  28.8330020
 101.5109930  33.4981810  29.4011600  98.8057030  26.5480150  31.1282070
  99.3571620  26.6575490  30.3535320  99.3200540  26.9217750  31.8437300
 108.6495720  37.0336370  33.1745340 108.1726280  37.8408560  32.9817950
 107.9657510  36.3814700  33.3271550  99.6528540  33.1986190  36.1630040
  98.7557070  33.4226160  36.4103440  99.6781410  33.3221130  35.2141440
 106.6933760  30.0479310  22.0771300 107.1327040  29.2101740  21.9309120
 107.4062180  30.6808710  22.1635440  98.4799760  30.0699510  34.7387410
  98.3407530  30.9422310  35.1074810  97.5981120  29.7272320  34.5935350
 104.8029140  34.9875380  26.0452540 105.2425050  35.7299710  25.6307930
 104.7416030  35.2301950  26.9691500 100.2780110  36.0121210  36.9472560
 100.2495540  36.4164160  36.0800990 100.1145080  35.0831570  36.7844160
 110.2750900  21.3022120  20.3912340 109.9623560  21.3948950  21.2911410
 111.0363370  21.8803150  20.3409770  96.7933040  28.6681920  24.8489680
  96.6730640  29.3944010  24.2370950  96.4833930  27.8984830  24.3717590
 112.2294930  36.7948310  38.2436730 112.7054650  37.2731200  38.9225810
 112.8502090  36.7265800  37.5182230  94.4318410  31.8397060  30.6558320
  94.5098830  31.9745830  29.7114040  95.0460090  31.1312950  30.8486440
  95.6766040  33.5397250  27.0664500  95.2694120  33.6811840  26.2118100
  96.5679050  33.2557410  26.8635710 111.6328180  33.9861160  35.4036740
 111.7591240  33.7473040  34.4853920 111.6749560  33.1545700  35.8758820
 105.4944920  37.6889160  33.9731550 106.0089590  37.5997170  34.7753980
 104.6514000  38.0348860  34.2659460 107.4699320  37.9744500  23.4015550
 107.3100460  37.6847440  24.2997380 107.3046030  37.1984630  22.8660780
  99.9487700  37.7543030  25.1787170  99.7730180  36.8378570  24.9654970
  99.0943440  38.1130320  25.4184970 107.1725450  35.4832060  21.9613550
 106.4790610  35.4809350  21.3015830 107.9148310  35.0591380  21.5307720
 106.7375380  37.1094770  26.0362040 107.1932330  36.3284150  26.3500660
 107.0767900  37.8201590  26.5803220 111.4852190  26.0393620  36.3686480
 110.8696460  26.5473290  35.8401940 111.1648610  25.1391950  36.3112420
  94.4877930  32.8811230  33.1952780  94.6508970  32.4116590  32.3772150
  94.9530380  32.3734790  33.8601620  99.2596700  22.0116990  28.2313350
  98.8164850  22.7926530  27.8997870  99.8181690  22.3346880  28.9384290
 103.5466510  24.8785510  33.8348670 103.0845880  25.0868530  34.6468610
 103.1444620  24.0644860  33.5319340 108.5471020  26.0994460  34.9645330
 107.6964610  25.8000210  35.2854400 108.3872810  26.3436470  34.0529150
 105.6420730  27.5996210  37.0644120 105.9674140  26.7659960  36.7246350
 106.4301060  28.1224730  37.2122450 102.3755520  21.6327690  23.1119180
 101.7509700  21.6287560  23.8372490 102.2885640  20.7658650  22.7155150
 101.2972600  22.5564320  30.0902950 101.5944930  23.4627150  30.0094970
 101.8458160  22.0683100  29.4762520  99.0510920  27.1350560  25.9594600
  98.8251840  26.9187730  26.8641220  98.2703450  27.5679020  25.6140570
 106.2808680  27.1413930  24.5585250 105.6817570  27.8649730  24.3748870
 106.8288290  27.0790710  23.7761700 101.4910130  28.0336140  36.6254870
 101.3953730  27.0930870  36.4755270 102.3342110  28.2551210  36.2302940
 104.8873550  25.7777470  26.5888530 105.2803120  26.0949670  25.7757220
 105.2490400  24.8989350  26.7033050  96.6220670  24.4449810  34.7788650
  96.2284060  25.2925020  34.9861430  95.9339070  23.8076180  34.9697290
 103.1965720  24.5284780  37.8485390 102.5064040  24.3356980  38.4831480
 103.9398020  24.8119420  38.3809690  93.9237720  22.3678270  28.8118730
  93.6350770  22.9381130  29.5243710  94.6683480  21.8882720  29.1749960
  94.1107950  26.3098390  20.0221450  94.0282620  27.2529150  20.1636440
  93.7591010  26.1673300  19.1433800 105.4728690  28.3683220  30.6839310
 104.7409810  28.8770030  31.0329410 105.0753030  27.5513200  30.3828090
 101.9106080  25.0437420  29.0891800 101.9142140  24.6027370  28.2396340
 102.8057200  25.3654750  29.1963620  97.7608460  24.9263910  28.0486010
  97.4208510  25.4039140  28.8053060  96.9985780  24.4729030  27.6887110
 101.9726230  26.0449500  22.0798560 102.0939050  26.0035980  23.0284380
 101.5874740  26.9073650  21.9245290 105.9354600  23.8216900  30.0962250
 105.9527340  24.2725550  30.9404100 105.6870180  22.9222540  30.3095690
 100.9847730  28.3550640  21.4781860 100.4164630  27.9068890  20.8517770
 101.6936730  28.7143420  20.9447010 109.3625350  21.2349080  35.9348630
 109.6871120  20.5038740  36.4606610 109.3981860  20.9162720  35.0329620
  96.0616910  32.2562660  35.3548590  95.6771700  31.6156330  35.9531550
  96.3729100  32.9598780  35.9243320 102.2114050  29.1039200  30.8357210
 102.5784180  28.6297770  31.5818550 102.0219110  29.9780770  31.1765550
  95.0754540  23.8482890  26.9650680  94.7901460  23.4838560  27.8029300
  95.0133400  23.1163350  26.3513820 100.0013420  28.1447840  33.1541420
  99.6970490  29.0239820  33.3791780 100.9559880  28.2047630  33.1898860
  98.5295210  32.3508830  23.7508270  97.7557470  31.8106450  23.5906990
  99.2589840  31.8315440  23.4126030 109.2883190  31.3474190  29.5434660
 110.0082310  31.8429480  29.1530770 109.0865010  30.6692080  28.8988530
 104.7493130  22.7412150  23.6864050 103.9357740  22.2425320  23.6109360
 104.5555080  23.5810400  23.2700400 104.6701990  31.4183250  35.4303660
 104.6039300  30.4978920  35.1761250 104.0407130  31.5158690  36.1448300
 107.4641520  27.1131800  21.9826210 108.3521140  27.4249030  21.8077550
 107.4346610  26.2404050  21.5906790  98.5732610  32.0189210  27.3887080
  99.0911280  31.2157470  27.3343970  98.1216630  31.9568350  28.2303910
 103.4602110  33.2855490  22.6614380 103.8017810  34.0297720  22.1657700
 102.6314820  33.5986610  23.0239210  96.0577150  28.9850580  34.3012780
  95.6992090  29.6504430  34.8886120  95.7631710  28.1534130  34.6725400
  99.2590270  29.4434820  37.1852330  98.9590410  29.5892000  36.2880150
 100.0301510  28.8840110  37.0925720 104.6018720  34.2403820  35.1807460
 104.6163260  33.3084780  34.9626370 103.8943820  34.3263580  35.8197230
 109.7355790  28.4243640  21.4506070 109.6519510  28.8557860  20.6002510
 110.4549980  28.8841990  21.8832890 110.8129930  30.8811160  34.5276040
 110.0878120  31.4739940  34.3305430 111.3405390  30.8734700  33.7289410
 110.7643040  35.2785900  24.1788200 110.1219200  34.6241520  24.4531920
 110.3773700  35.6840990  23.4028870 106.3429520  32.6071330  28.0259890
 106.6953340  32.0099460  27.3661260 105.4591850  32.2815560  28.1968140
 102.4292800  33.3669020  25.4330300 103.1163930  33.9138230  25.8137890
 101.6425220  33.9109750  25.4679910  94.5685200  28.9841840  20.9247380
  95.4380050  29.2666640  21.2083300  94.0775520  29.7977710  20.8096190
 101.7320010  30.3715050  25.0455660 102.1882790  31.1820300  25.2715850
 101.3808220  30.0538190  25.8774150 104.0352620  35.8821390  32.2747960
 104.6794840  36.0880770  32.9521380 104.3982060  35.1209790  31.8218810
  97.6331790  20.7152700  25.5178180  97.5046420  20.7070600  26.4663100
  96.8093810  21.0535790  25.1669190 105.3084700  33.8853740  30.9925410
 105.9506930  33.1846900  31.1057580 105.8334050  34.6652180  30.8122300
 109.1540420  34.1702360  20.7164550 108.9278000  33.4532800  21.3089190
 108.7636620  33.9214800  19.8786300 107.0822320  34.6848640  34.1961470
 107.4178560  35.2715330  34.8739390 106.1622660  34.5541350  34.4259260
  94.9356450  38.1969220  21.4909010  95.2954090  38.7958560  20.8366280
  94.7948790  38.7429110  22.2644040  94.6325720  22.4743820  34.9784880
  93.9184240  22.6740740  35.5837490  95.0520760  21.6983390  35.3499680
 108.7356670  32.0874300  22.3778710 108.4478370  32.5486990  23.1656590
 109.5308840  31.6272070  22.6462930  94.9198310  36.4624080  35.9651410
  95.0289430  35.5218820  35.8246800  94.2678870  36.7278830  35.3165140
 102.9110900  34.7339970  37.3649530 102.5907770  34.0149210  37.9095220
 102.2369260  35.4095040  37.4385590 100.9525070  35.5800420  22.3082680
 100.9435170  36.3130110  21.6927190 100.0323430  35.3332000  22.4009640
  96.5531710  30.8015310  23.0529440  95.9459660  31.5414210  23.0624740
  97.0281060  30.8914670  22.2267640 106.1264500  24.9666130  32.7286330
 106.4945320  24.1461340  33.0565900 105.2662700  25.0268020  33.1441980
 109.4926530  23.9223070  23.5373890 108.8639690  24.0268740  22.8232120
 108.9978450  24.1419850  24.3267770 103.9384670  35.6428660  20.9707870
 104.0396650  35.4392650  20.0409850 103.0386410  35.3886940  21.1755650
 101.4610560  26.2009020  24.9531770 100.7526710  26.6695360  25.3945380
 101.7455040  25.5431030  25.5876960 103.0866490  27.6205720  32.9524300
 103.5851740  28.0951540  33.6176150 103.2289440  26.6969240  33.1594330
 105.4925990  22.9259680  26.3927560 105.3693770  22.9445810  25.4437070
 106.4410550  22.9738620  26.5125960 102.5802780  38.1614980  25.6655540
 102.8344280  38.1236370  24.7434910 101.6315260  38.0348310  25.6583790
  99.6645580  24.5094100  22.3282480 100.5136110  24.9464250  22.2622670
  99.2976850  24.8214360  23.1554540 110.2933350  23.8373680  33.7952690
 109.7906950  24.5779080  34.1346500 111.1090010  24.2257680  33.4789480
 108.5855360  29.0806860  27.2414050 107.6445500  29.0957090  27.4161740
 108.8999430  28.2942820  27.6874350  98.5637000  30.7626460  20.8018010
  99.3300270  30.6507820  21.3643440  98.6411690  30.0664430  20.1494780
  97.2583760  28.1951530  21.4850900  97.3387350  27.2479040  21.5968300
  98.1503510  28.5258410  21.5911560 110.5880940  36.2515710  28.9168310
 110.7128360  37.0746880  29.3892120 111.4546500  36.0406440  28.5692460
  98.0598470  38.3446920  28.5885440  98.7960950  37.7962380  28.8594010
  98.4439390  39.2102930  28.4491430  94.9443950  34.4120490  24.4626950
  94.0183730  34.6541630  24.4532360  95.4100380  35.2394750  24.3411700
 101.1700780  37.5177230  20.4111010 101.9629390  37.8066060  19.9592800
 100.6505130  37.0869400  19.7323490 105.9021380  33.6372860  37.7246430
 105.2959540  33.6604460  36.9842180 105.5975490  32.9055900  38.2613680
 107.3321750  37.3653150  36.3355840 108.2843500  37.2811170  36.2856080
 107.1849970  38.0294860  37.0089630 110.2230950  36.7447360  21.8347750
 109.9372460  36.3312500  21.0201930 110.0250500  37.6735070  21.7148270
  94.7854560  30.0166450  36.7207070  95.2893580  29.4373730  37.2923300
  94.0461980  30.3006680  37.2583440 101.6878180  32.7380640  20.2753360
 101.5828820  32.1232990  21.0014740 101.5202400  32.2146530  19.4916370
 101.8392500  31.4237440  36.2542590 101.0738170  31.9922440  36.1697260
 102.0208460  31.1313650  35.3610820 104.9280910  31.8000670  20.8795350
 104.3791010  32.2469970  21.5238090 105.5500170  31.2949920  21.4033020
 108.9815850  33.1542770  36.8117610 109.7225320  33.4918530  36.3085070
 108.2188530  33.3234830  36.2587380  96.8177640  28.1596040  37.6157140
  96.8582980  27.8609910  38.5242370  97.6723140  28.5603650  37.4564660
 100.5956030  30.7591590  22.7760650 101.0172450  30.5931460  23.6192040
 100.7206870  29.9491820  22.2815790  98.7583450  26.7388140  35.5831630
  98.2279910  26.2479090  34.9554970  99.4271520  27.1672340  35.0489560
 103.1083670  29.7829200  20.0237750 103.6289330  29.0678220  19.6578900
 103.7552070  30.4215070  20.3238260 107.6561510  31.2057600  35.3472820
 108.0702530  31.3602680  36.1963240 106.7212510  31.3312820  35.5098600
 108.1283680  28.5453760  37.3511970 108.7104450  27.7906080  37.2632450
 108.3045450  29.0761200  36.5743450  99.2455750  23.7050510  35.6628920
  99.1512620  23.0871260  34.9379790  98.6653140  24.4316800  35.4358830
 102.0117190  22.2623750  32.6956310 101.5634490  22.2848010  31.8501860
 101.3782390  21.8642770  33.2926610 102.4176740  31.1578080  33.3168750
 102.8364850  32.0010810  33.1444990 101.4985370  31.2950120  33.0875530
 104.7540640  28.8894260  34.7006590 104.8736850  28.2935400  35.4401430
 105.6134640  28.9263950  34.2807890 107.0928540  29.4431450  33.2769100
 106.5663760  29.9674070  32.6734240 107.4359880  30.0758840  33.9078830
  99.4914930  26.8324820  19.7218810  99.2903990  25.9692180  20.0832150
  99.3206980  26.7458180  18.7840410 101.5209410  25.4315610  35.9582410
 102.1109100  25.1231460  36.6460230 100.7029650  24.9595360  36.1142310
 106.3402840  25.0481420  36.1915430 105.6518360  24.3862960  36.1265420
 107.0608860  24.6019690  36.6363890 106.9703240  21.6433050  22.2505690
 107.2505530  20.8000950  22.6065110 106.1968970  21.8756160  22.7644440
  98.2897730  23.9325440  19.7096690  98.5923630  23.9392870  18.8015840
  99.0292320  23.5823300  20.2064350 101.5082660  22.8760060  20.6952890
 101.1604660  22.1984050  20.1155340 101.7095430  22.4149570  21.5096280
 103.6731700  37.8640810  22.3139490 104.5682490  38.2025780  22.3358250
 103.7049330  37.1420220  21.6863770  97.3127860  33.2367860  20.5426490
  97.7502730  33.7797530  21.1984070  97.7975590  32.4114810  20.5522830
  99.1235580  34.3565900  25.6548720  98.8231120  34.2330870  26.5552630
  99.0173070  33.4974490  25.2464450  95.0163870  36.8927480  30.7328380
  94.5794860  37.0728280  31.5652530  95.5841550  37.6502100  30.5910100
 110.6526050  36.3944480  35.0205690 110.0528040  36.4537040  34.2769610
 110.7819950  35.4549460  35.1502540 111.8927500  34.1362300  20.3575400
 111.0620460  34.2038950  20.8282630 112.0699330  35.0266420  20.0542260
 111.3483960  30.8809780  22.8609600 112.1102870  31.4506430  22.9669290
 111.3638330  30.3136980  23.6317910  94.8488300  29.4047710  27.0917260
  94.1937140  29.1359350  26.4476960  95.6866250  29.2952190  26.6419240
 112.3543930  31.7359880  27.7051530 112.7252760  30.9527200  27.2987500
 112.9945860  32.4248980  27.5268830 109.3377690  33.1196460  33.1181850
 108.5237530  33.5493620  33.3807640 109.7451890  33.7314870  32.5050900
 111.4003130  31.1744150  20.0182120 111.6751970  32.0823030  19.8901340
 111.2113870  31.1106680  20.9544110 107.7978740  24.1989000  21.3135750
 108.2163620  24.0119980  20.4732410 107.4914800  23.3468050  21.6238680
 111.2968470  29.1113140  25.0111550 110.9212070  28.3441070  24.5792840
 110.5671590  29.4935840  25.4986480  95.8864230  29.7900280  31.6320600
  96.2537270  29.7027680  32.5116620  95.3175050  29.0266830  31.5327460
 110.6868090  28.2584660  34.6451070 110.4554180  28.0297410  33.7449020
 110.9472640  29.1784210  34.5995960  95.4380230  26.7009370  35.5379020
  94.5436280  26.6676130  35.8772730  95.9777780  26.8996160  36.3030270
 109.1256160  23.4841090  37.4230770 110.0026340  23.4924490  37.8064770
 109.1377000  22.7471930  36.8123120  94.0626380  26.6146640  23.0342590
  93.1590460  26.8776840  22.8594250  94.5467000  26.8857810  22.2542550
 110.5719430  27.3370630  28.3118790 111.0956910  26.8433280  27.6808960
 111.1578850  27.4720990  29.0566360 110.7509150  27.4210500  31.8338340
 109.8011860  27.3874040  31.9483330 110.9322160  28.3310610  31.5988110
  96.6053590  25.6712180  20.9436970  97.3145290  25.2495400  20.4584250
  95.8893530  25.7387410  20.3120320  96.2527750  21.7251510  19.9839620
  96.9755880  22.2660450  20.3020840  96.5252270  21.4514930  19.1081160
 110.0619400  26.5943980  24.2511200 110.5578520  26.3614850  25.0360080
 109.8635470  25.7555820  23.8348840  95.9419940  20.9757700  29.8862240
  96.5896130  20.4255080  29.4457400  96.3621780  21.2300850  30.7078050
 111.4906560  25.2304930  26.7848880 111.3805840  25.0760970  27.7231150
 112.2514150  24.7025870  26.5424290 109.8372280  21.1699060  33.2431880
 110.4744500  21.7833200  33.6091070 109.9847170  21.2059720  32.2981110
 112.3796830  23.0612850  20.0255020 113.3046140  22.9294030  19.8173310
 112.3572620  23.1405670  20.9791470 112.4535320  23.8323510  22.6511730
 111.6586820  23.7668630  23.1804640 112.6578600  24.7674150  22.6397080
 109.3953740  37.8715060  26.6450120 109.9912810  37.5499630  25.9684540
 109.6531890  37.3986880  27.4363390  95.6951940  21.1313370  32.6287560
  95.3466760  21.5877190  33.3945740  95.3639640  20.2370500  32.7109990
  97.3016310  34.3032970  36.7940750  97.2585940  33.9325880  37.6755210
  97.4327320  35.2410540  36.9342570 101.0022340  35.8592560  32.3950470
 100.7613700  36.1267120  31.5080990 101.9424980  36.0298290  32.4501330
 103.2076760  22.3225250  36.1506980 103.1465650  22.9147080  36.9002390
 104.1477140  22.2151210  36.0057240 105.8451320  21.9795310  35.7899270
 106.4591730  22.2974600  35.1280350 106.3900880  21.4943900  36.4095130
 112.2626500  37.8786940  33.1961110 111.7684780  38.2755810  32.4788240
 111.6539790  37.2536150  33.5898390  96.3672580  20.6589570  35.9038330
  96.9155570  20.4777620  35.1404440  96.4327890  19.8683680  36.4394640
  97.1404340  37.2495220  33.9138530  96.5464660  37.1179920  34.6528570
  97.1328180  36.4133360  33.4480630 106.5859360  20.5427450  32.1168560
 105.7119200  20.8762560  31.9141490 106.4770110  20.0700630  32.9420430
 107.4931340  22.7498320  33.5010280 107.1644700  21.9350080  33.1212010
 108.4413640  22.7068130  33.3775970 109.9465950  38.5210360  30.4747850
 109.4868920  39.2726170  30.1005870 109.3178410  37.8016830  30.4162650
  96.7716570  34.6153600  32.8646570  96.0450630  33.9958890  32.7972520
  96.8325720  35.0094210  31.9944650 100.3761670  36.8298600  29.6495980
 100.8926690  36.2185960  29.1244240 101.0259050  37.3327380  30.1406990
 104.3334180  21.4597290  31.0561470 103.5505970  21.9342790  31.3358230
 104.0397110  20.5552120  30.9474650 108.8855250  22.1620390  29.1010560
 109.3263340  22.1065490  28.2532160 108.6162840  23.0778400  29.1720740
 110.7493820  21.7935630  27.1119380 110.6882220  20.8496850  26.9650400
 111.5285850  21.9015720  27.6572840  95.6774590  21.7644770  23.5775190
  96.4353950  21.8773650  23.0039220  95.2151760  22.6013970  23.5318620
 102.2188400  23.8784040  26.5677500 101.4062910  23.5040930  26.2273380
 102.7230040  23.1229120  26.8698690 106.7213380  20.5426490  27.8060570
 107.3242750  21.1146700  28.2809090 105.9806370  21.1065930  27.5834470
 109.8647980  20.9448050  23.0800850 110.0598610  21.8431500  23.3468280
 109.0777850  20.7135130  23.5733800  96.6609270  36.6261220  23.5193470
  96.1356890  37.0069250  22.8155430  96.5853850  37.2511990  24.2403180
  98.0499740  22.2908820  22.1177160  98.5792500  21.5038620  21.9885110
  98.6828060  22.9700010  22.3512690 100.2437580  22.0283960  25.1722550
  99.6140320  21.3271270  25.3392680  99.7042720  22.7888090  24.9555710
 111.4174590  38.1848760  24.8407410 111.5926780  37.4986500  24.1968330
 110.7196160  38.7095810  24.4484080 100.3693140  21.3067940  37.6075040
 100.0877410  21.8101540  36.8435860 100.7512840  20.5089690  37.2417170
  99.2602240  38.5743600  22.3942720  99.9921060  38.2902880  21.8466610
  99.5195910  38.3356880  23.2842100  98.4217030  34.6908330  22.3989050
  97.7925910  35.1593430  22.9474880  98.5364860  33.8457550  22.8335240
 106.9708600  20.7221520  38.1855510 106.8574050  21.0416130  39.0807030
 107.7878340  21.1234030  37.8892790 109.7507090  37.8693050  37.6674200
 110.5432410  37.3742280  37.4600160 110.0440240  38.5483190  38.2749810
 105.8766750  28.7413990   8.5490250 105.7960800  27.8268600   8.2781960
 105.4631170  29.2381060   7.8429960 104.0084790  30.5193010  10.4299520
 103.2326890  30.0393450  10.7198090 104.6597720  29.8398660  10.2555680
  98.0250620  30.8312820  11.3075280  97.1935500  30.5761530  11.7071790
  98.6331600  30.9023590  12.0433200 108.0292220  34.9253200   9.2098650
 107.5673750  34.1540440   9.5385820 108.8417770  34.9519270   9.7151100
  98.0051880  34.8652910  11.5033300  98.3079920  33.9750650  11.3243520
  98.7495470  35.4223130  11.2755550  96.4342570  25.7914710   5.0917670
  95.5459270  26.1330680   4.9897550  96.7183760  25.5915030   4.1998500
  94.3975580  28.3920360  10.9757370  94.9691690  27.6242560  10.9761010
  94.3977120  28.6909120  10.0663980 104.2555530  37.2111210   8.8302640
 103.6366970  37.6668710   8.2597080 105.1107310  37.3662670   8.4292340
 103.4493780  33.1950200  10.4369680 103.3802060  32.2540140  10.2758810
 104.2113640  33.2851610  11.0092250  95.6400450  23.8004720  12.7626300
  95.4603290  22.9030470  13.0429060  95.2380530  24.3476590  13.4373250
 104.4798950  26.0020580  10.6638610 104.8563770  25.1292460  10.5512280
 104.3818460  26.3379280   9.7729050  98.6103960  24.3746210   6.1256050
  98.7170710  25.2749940   6.4324810  97.6996320  24.3264180   5.8350700
 108.2623070  23.4971020   7.5966950 109.0832690  23.0067590   7.6392430
 108.2957150  24.0868680   8.3498790  96.2587120  26.2965220  11.3708640
  96.9397230  26.5603590  11.9896040  95.9435170  25.4566090  11.7046650
 100.4511690  27.3432580  10.4581230 100.9589910  27.8413550  11.0986250
 100.9824930  26.5667780  10.2820590 112.5522620  25.5137770  14.1610580
 111.8474790  25.9019480  13.6425690 112.8180540  26.2088060  14.7631510
  98.7347790  21.9831140  14.7244650  98.7366230  22.5003530  13.9190550
  97.9052100  21.5061320  14.7014580 105.1218880  32.0950450   6.2234550
 104.5036150  32.5599900   5.6597270 105.6342130  32.7877930   6.6404060
  99.9850640  31.6226320  12.9018150  99.6520020  32.2495240  13.5439220
 100.1617320  32.1488200  12.1219820 108.4984550  25.4371400  10.3694490
 107.7940120  25.7256290  10.9497600 108.8596710  26.2471510  10.0094050
  98.4163120  23.6941100  12.7315100  98.7579930  24.5383150  12.4368970
  97.4778930  23.8424840  12.8480440  99.1969740  33.5907120  14.7167330
  99.8143740  34.2658200  14.4351780  98.3362860  33.9995100  14.6254830
  94.4902080  32.7806980   3.5974180  94.1130060  33.2694080   2.8659080
  94.7475150  33.4532260   4.2280710 110.1147330  35.0546530  12.6321970
 109.4310850  35.7245640  12.6238640 110.6541620  35.2527180  11.8666830
 111.5671470  24.8826190  10.7603700 110.6196380  24.9165170  10.8919130
 111.8921460  25.6965140  11.1453060 102.0991010  21.1823370   9.0559690
 102.4065990  20.6270260   8.3395190 101.1691710  21.3167830   8.8732680
 107.6506070  36.8990660  11.3467150 107.6633230  36.4952950  10.4789410
 107.0981290  37.6737950  11.2428580 108.9451490  33.6206880   6.4357320
 108.8347820  32.6781210   6.5606740 108.9419740  33.9822520   7.3220080
 107.0491510  31.8020500  12.6749760 107.4660300  31.5880610  11.8403220
 107.7731330  32.0593290  13.2458380 104.4871770  29.2472200   5.7919810
 103.5601050  29.1809580   6.0208280 104.6396590  30.1852330   5.6775050
 104.4740850  25.5189200   2.7886970 103.5344520  25.6803160   2.8739430
 104.7924110  26.2374880   2.2422960 110.9953610  30.2007720  12.7666000
 110.1672240  30.2700810  12.2916130 111.5904090  30.7862030  12.2981830
 108.5169060  30.8092500   6.2955060 107.8981480  30.4712050   5.6481360
 108.4993510  30.1652260   7.0034250 107.9595620  26.9877040  13.7120870
 107.5466800  27.8130750  13.9660860 107.2271570  26.4022080  13.5197230
 100.0928410  29.7736940   8.5739540  99.6885410  29.0614190   8.0785440
 100.1791530  29.4290180   9.4627580 100.5610110  33.4604500  10.7378750
 100.2638400  32.8549970  10.0586530 101.5109930  33.4981810  10.6268110
  98.8057030  26.5480150  12.3538580  99.3571620  26.6575490  11.5791830
  99.3200540  26.9217750  13.0693810 108.6495720  37.0336370  14.4001850
 108.1726280  37.8408560  14.2074460 107.9657510  36.3814700  14.5528060
  99.6528540  33.1986190  17.3886550  98.7557070  33.4226160  17.6359950
  99.6781410  33.3221130  16.4397950 106.6933760  30.0479310   3.3027810
 107.1327040  29.2101740   3.1565630 107.4062180  30.6808710   3.3891950
  98.4799760  30.0699510  15.9643920  98.3407530  30.9422310  16.3331320
  97.5981120  29.7272320  15.8191860 104.8029140  34.9875380   7.2709050
 105.2425050  35.7299710   6.8564440 104.7416030  35.2301950   8.1948010
 100.2780110  36.0121210  18.1729070 100.2495540  36.4164160  17.3057500
 100.1145080  35.0831570  18.0100670  96.7933040  28.6681920   6.0746190
  96.6730640  29.3944010   5.4627460  96.4833930  27.8984830   5.5974100
 112.2294930  36.7948310  19.4693240 112.7054650  37.2731200  20.1482320
 112.8502090  36.7265800  18.7438740  94.4318410  31.8397060  11.8814830
  94.5098830  31.9745830  10.9370550  95.0460090  31.1312950  12.0742950
  95.6766040  33.5397250   8.2921010  95.2694120  33.6811840   7.4374610
  96.5679050  33.2557410   8.0892220 111.6328180  33.9861160  16.6293250
 111.7591240  33.7473040  15.7110430 111.6749560  33.1545700  17.1015330
 105.4944920  37.6889160  15.1988060 106.0089590  37.5997170  16.0010490
 104.6514000  38.0348860  15.4915970 107.4699320  37.9744500   4.6272060
 107.3100460  37.6847440   5.5253890 107.3046030  37.1984630   4.0917290
  99.9487700  37.7543030   6.4043680  99.7730180  36.8378570   6.1911480
  99.0943440  38.1130320   6.6441480 107.1725450  35.4832060   3.1870060
 106.4790610  35.4809350   2.5272340 107.9148310  35.0591380   2.7564230
 106.7375380  37.1094770   7.2618550 107.1932330  36.3284150   7.5757170
 107.0767900  37.8201590   7.8059730 111.4852190  26.0393620  17.5942990
 110.8696460  26.5473290  17.0658450 111.1648610  25.1391950  17.5368930
  94.4877930  32.8811230  14.4209290  94.6508970  32.4116590  13.6028660
  94.9530380  32.3734790  15.0858130  99.2596700  22.0116990   9.4569860
  98.8164850  22.7926530   9.1254380  99.8181690  22.3346880  10.1640800
 103.5466510  24.8785510  15.0605180 103.0845880  25.0868530  15.8725120
 103.1444620  24.0644860  14.7575850 108.5471020  26.0994460  16.1901840
 107.6964610  25.8000210  16.5110910 108.3872810  26.3436470  15.2785660
 105.6420730  27.5996210  18.2900630 105.9674140  26.7659960  17.9502860
 106.4301060  28.1224730  18.4378960 102.3755520  21.6327690   4.3375690
 101.7509700  21.6287560   5.0629000 102.2885640  20.7658650   3.9411660
 101.2972600  22.5564320  11.3159460 101.5944930  23.4627150  11.2351480
 101.8458160  22.0683100  10.7019030  99.0510920  27.1350560   7.1851110
  98.8251840  26.9187730   8.0897730  98.2703450  27.5679020   6.8397080
 106.2808680  27.1413930   5.7841760 105.6817570  27.8649730   5.6005380
 106.8288290  27.0790710   5.0018210 101.4910130  28.0336140  17.8511380
 101.3953730  27.0930870  17.7011780 102.3342110  28.2551210  17.4559450
 104.8873550  25.7777470   7.8145040 105.2803120  26.0949670   7.0013730
 105.2490400  24.8989350   7.9289560  96.6220670  24.4449810  16.0045160
  96.2284060  25.2925020  16.2117940  95.9339070  23.8076180  16.1953800
 103.1965720  24.5284780  19.0741900 102.5064040  24.3356980  19.7087990
 103.9398020  24.8119420  19.6066200  93.9237720  22.3678270  10.0375240
  93.6350770  22.9381130  10.7500220  94.6683480  21.8882720  10.4006470
 105.4728690  28.3683220  11.9095820 104.7409810  28.8770030  12.2585920
 105.0753030  27.5513200  11.6084600 101.9106080  25.0437420  10.3148310
 101.9142140  24.6027370   9.4652850 102.8057200  25.3654750  10.4220130
  97.7608460  24.9263910   9.2742520  97.4208510  25.4039140  10.0309570
  96.9985780  24.4729030   8.9143620 101.9726230  26.0449500   3.3055070
 102.0939050  26.0035980   4.2540890 101.5874740  26.9073650   3.1501800
 105.9354600  23.8216900  11.3218760 105.9527340  24.2725550  12.1660610
 105.6870180  22.9222540  11.5352200 100.9847730  28.3550640   2.7038370
 100.4164630  27.9068890   2.0774280 101.6936730  28.7143420   2.1703520
 109.3625350  21.2349080  17.1605140 109.6871120  20.5038740  17.6863120
 109.3981860  20.9162720  16.2586130  96.0616910  32.2562660  16.5805100
  95.6771700  31.6156330  17.1788060  96.3729100  32.9598780  17.1499830
 102.2114050  29.1039200  12.0613720 102.5784180  28.6297770  12.8075060
 102.0219110  29.9780770  12.4022060  95.0754540  23.8482890   8.1907190
  94.7901460  23.4838560   9.0285810  95.0133400  23.1163350   7.5770330
 100.0013420  28.1447840  14.3797930  99.6970490  29.0239820  14.6048290
 100.9559880  28.2047630  14.4155370  98.5295210  32.3508830   4.9764780
  97.7557470  31.8106450   4.8163500  99.2589840  31.8315440   4.6382540
 109.2883190  31.3474190  10.7691170 110.0082310  31.8429480  10.3787280
 109.0865010  30.6692080  10.1245040 104.7493130  22.7412150   4.9120560
 103.9357740  22.2425320   4.8365870 104.5555080  23.5810400   4.4956910
 104.6701990  31.4183250  16.6560170 104.6039300  30.4978920  16.4017760
 104.0407130  31.5158690  17.3704810 107.4641520  27.1131800   3.2082720
 108.3521140  27.4249030   3.0334060 107.4346610  26.2404050   2.8163300
  98.5732610  32.0189210   8.6143590  99.0911280  31.2157470   8.5600480
  98.1216630  31.9568350   9.4560420 103.4602110  33.2855490   3.8870890
 103.8017810  34.0297720   3.3914210 102.6314820  33.5986610   4.2495720
  96.0577150  28.9850580  15.5269290  95.6992090  29.6504430  16.1142630
  95.7631710  28.1534130  15.8981910  99.2590270  29.4434820  18.4108840
  98.9590410  29.5892000  17.5136660 100.0301510  28.8840110  18.3182230
 104.6018720  34.2403820  16.4063970 104.6163260  33.3084780  16.1882880
 103.8943820  34.3263580  17.0453740 109.7355790  28.4243640   2.6762580
 109.6519510  28.8557860   1.8259020 110.4549980  28.8841990   3.1089400
 110.8129930  30.8811160  15.7532550 110.0878120  31.4739940  15.5561940
 111.3405390  30.8734700  14.9545920 110.7643040  35.2785900   5.4044710
 110.1219200  34.6241520   5.6788430 110.3773700  35.6840990   4.6285380
 106.3429520  32.6071330   9.2516400 106.6953340  32.0099460   8.5917770
 105.4591850  32.2815560   9.4224650 102.4292800  33.3669020   6.6586810
 103.1163930  33.9138230   7.0394400 101.6425220  33.9109750   6.6936420
  94.5685200  28.9841840   2.1503890  95.4380050  29.2666640   2.4339810
  94.0775520  29.7977710   2.0352700 101.7320010  30.3715050   6.2712170
 102.1882790  31.1820300   6.4972360 101.3808220  30.0538190   7.1030660
 104.0352620  35.8821390  13.5004470 104.6794840  36.0880770  14.1777890
 104.3982060  35.1209790  13.0475320  97.6331790  20.7152700   6.7434690
  97.5046420  20.7070600   7.6919610  96.8093810  21.0535790   6.3925700
 105.3084700  33.8853740  12.2181920 105.9506930  33.1846900  12.3314090
 105.8334050  34.6652180  12.0378810 107.0822320  34.6848640  15.4217980
 107.4178560  35.2715330  16.0995900 106.1622660  34.5541350  15.6515770
  94.9356450  38.1969220   2.7165520  95.2954090  38.7958560   2.0622790
  94.7948790  38.7429110   3.4900550  94.6325720  22.4743820  16.2041390
  93.9184240  22.6740740  16.8094000  95.0520760  21.6983390  16.5756190
 108.7356670  32.0874300   3.6035220 108.4478370  32.5486990   4.3913100
 109.5308840  31.6272070   3.8719440  94.9198310  36.4624080  17.1907920
  95.0289430  35.5218820  17.0503310  94.2678870  36.7278830  16.5421650
 102.9110900  34.7339970  18.5906040 102.5907770  34.0149210  19.1351730
 102.2369260  35.4095040  18.6642100 100.9525070  35.5800420   3.5339190
 100.9435170  36.3130110   2.9183700 100.0323430  35.3332000   3.6266150
  96.5531710  30.8015310   4.2785950  95.9459660  31.5414210   4.2881250
  97.0281060  30.8914670   3.4524150 106.1264500  24.9666130  13.9542840
 106.4945320  24.1461340  14.2822410 105.2662700  25.0268020  14.3698490
 109.4926530  23.9223070   4.7630400 108.8639690  24.0268740   4.0488630
 108.9978450  24.1419850   5.5524280 101.4610560  26.2009020   6.1788280
 100.7526710  26.6695360   6.6201890 101.7455040  25.5431030   6.8133470
 103.0866490  27.6205720  14.1780810 103.5851740  28.0951540  14.8432660
 103.2289440  26.6969240  14.3850840 105.4925990  22.9259680   7.6184070
 105.3693770  22.9445810   6.6693580 106.4410550  22.9738620   7.7382470
 102.5802780  38.1614980   6.8912050 102.8344280  38.1236370   5.9691420
 101.6315260  38.0348310   6.8840300  99.6645580  24.5094100   3.5538990
 100.5136110  24.9464250   3.4879180  99.2976850  24.8214360   4.3811050
 110.2933350  23.8373680  15.0209200 109.7906950  24.5779080  15.3603010
 111.1090010  24.2257680  14.7045990 108.5855360  29.0806860   8.4670560
 107.6445500  29.0957090   8.6418250 108.8999430  28.2942820   8.9130860
  97.2583760  28.1951530   2.7107410  97.3387350  27.2479040   2.8224810
  98.1503510  28.5258410   2.8168070 110.5880940  36.2515710  10.1424820
 110.7128360  37.0746880  10.6148630 111.4546500  36.0406440   9.7948970
  98.0598470  38.3446920   9.8141950  98.7960950  37.7962380  10.0850520
  98.4439390  39.2102930   9.6747940  94.9443950  34.4120490   5.6883460
  94.0183730  34.6541630   5.6788870  95.4100380  35.2394750   5.5668210
  97.0656750  37.5292990  19.0027530  97.8669480  37.8505040  19.4162930
  96.5508570  37.1688570  19.7247440 105.9021380  33.6372860  18.9502940
 105.2959540  33.6604460  18.2098690 105.5975490  32.9055900  19.4870190
 107.3321750  37.3653150  17.5612350 108.2843500  37.2811170  17.5112590
 107.1849970  38.0294860  18.2346140 110.2230950  36.7447360   3.0604260
 109.9372460  36.3312500   2.2458440 110.0250500  37.6735070   2.9404780
  94.7854560  30.0166450  17.9463580  95.2893580  29.4373730  18.5179810
  94.0461980  30.3006680  18.4839950 101.8392500  31.4237440  17.4799100
 101.0738170  31.9922440  17.3953770 102.0208460  31.1313650  16.5867330
 104.9280910  31.8000670   2.1051860 104.3791010  32.2469970   2.7494600
 105.5500170  31.2949920   2.6289530 108.9815850  33.1542770  18.0374120
 109.7225320  33.4918530  17.5341580 108.2188530  33.3234830  17.4843890
  96.8177640  28.1596040  18.8413650  96.8582980  27.8609910  19.7498880
  97.6723140  28.5603650  18.6821170 100.5956030  30.7591590   4.0017160
 101.0172450  30.5931460   4.8448550 100.7206870  29.9491820   3.5072300
  98.7583450  26.7388140  16.8088140  98.2279910  26.2479090  16.1811480
  99.4271520  27.1672340  16.2746070 107.6561510  31.2057600  16.5729330
 108.0702530  31.3602680  17.4219750 106.7212510  31.3312820  16.7355110
 108.1283680  28.5453760  18.5768480 108.7104450  27.7906080  18.4888960
 108.3045450  29.0761200  17.7999960  99.2455750  23.7050510  16.8885430
  99.1512620  23.0871260  16.1636300  98.6653140  24.4316800  16.6615340
 102.0117190  22.2623750  13.9212820 101.5634490  22.2848010  13.0758370
 101.3782390  21.8642770  14.5183120 102.4176740  31.1578080  14.5425260
 102.8364850  32.0010810  14.3701500 101.4985370  31.2950120  14.3132040
 104.7540640  28.8894260  15.9263100 104.8736850  28.2935400  16.6657940
 105.6134640  28.9263950  15.5064400 107.0928540  29.4431450  14.5025610
 106.5663760  29.9674070  13.8990750 107.4359880  30.0758840  15.1335340
 100.2684160  37.4631090  15.6582990  99.7305250  38.1877150  15.3391690
 100.5218120  36.9861430  14.8680330 101.5209410  25.4315610  17.1838920
 102.1109100  25.1231460  17.8716740 100.7029650  24.9595360  17.3398820
 106.3402840  25.0481420  17.4171940 105.6518360  24.3862960  17.3521930
 107.0608860  24.6019690  17.8620400 106.9703240  21.6433050   3.4762200
 107.2505530  20.8000950   3.8321620 106.1968970  21.8756160   3.9900950
 103.1246370  38.6982300  15.9169640 103.0505070  39.6017440  16.2242010
 102.2225210  38.3794200  15.8891710 103.6731700  37.8640810   3.5396000
 104.5682490  38.2025780   3.5614760 103.7049330  37.1420220   2.9120280
  97.3127860  33.2367860   1.7683000  97.7502730  33.7797530   2.4240580
  97.7975590  32.4114810   1.7779340  94.5273660  36.0256890   9.2203260
  94.8576670  35.1577950   8.9881900  94.9564660  36.2315410  10.0508220
  99.1235580  34.3565900   6.8805230  98.8231120  34.2330870   7.7809140
  99.0173070  33.4974490   6.4720960  95.0163870  36.8927480  11.9584890
  94.5794860  37.0728280  12.7909040  95.5841550  37.6502100  11.8166610
 110.6526050  36.3944480  16.2462200 110.0528040  36.4537040  15.5026120
 110.7819950  35.4549460  16.3759050 111.3483960  30.8809780   4.0866110
 112.1102870  31.4506430   4.1925800 111.3638330  30.3136980   4.8574420
  94.8488300  29.4047710   8.3173770  94.1937140  29.1359350   7.6733470
  95.6866250  29.2952190   7.8675750 112.3543930  31.7359880   8.9308040
 112.7252760  30.9527200   8.5244010 112.9945860  32.4248980   8.7525340
 109.3377690  33.1196460  14.3438360 108.5237530  33.5493620  14.6064150
 109.7451890  33.7314870  13.7307410 107.7978740  24.1989000   2.5392260
 108.2163620  24.0119980   1.6988920 107.4914800  23.3468050   2.8495190
 111.2968470  29.1113140   6.2368060 110.9212070  28.3441070   5.8049350
 110.5671590  29.4935840   6.7242990  95.8864230  29.7900280  12.8577110
  96.2537270  29.7027680  13.7373130  95.3175050  29.0266830  12.7583970
 110.6868090  28.2584660  15.8707580 110.4554180  28.0297410  14.9705530
 110.9472640  29.1784210  15.8252470  95.4380230  26.7009370  16.7635530
  94.5436280  26.6676130  17.1029240  95.9777780  26.8996160  17.5286780
 109.1256160  23.4841090  18.6487280 110.0026340  23.4924490  19.0321280
 109.1377000  22.7471930  18.0379630  94.0626380  26.6146640   4.2599100
  93.1590460  26.8776840   4.0850760  94.5467000  26.8857810   3.4799060
 110.5719430  27.3370630   9.5375300 111.0956910  26.8433280   8.9065470
 111.1578850  27.4720990  10.2822870 110.7509150  27.4210500  13.0594850
 109.8011860  27.3874040  13.1739840 110.9322160  28.3310610  12.8244620
 110.0619400  26.5943980   5.4767710 110.5578520  26.3614850   6.2616590
 109.8635470  25.7555820   5.0605350  95.9419940  20.9757700  11.1118750
  96.5896130  20.4255080  10.6713910  96.3621780  21.2300850  11.9334560
 111.4906560  25.2304930   8.0105390 111.3805840  25.0760970   8.9487660
 112.2514150  24.7025870   7.7680800 109.8372280  21.1699060  14.4688390
 110.4744500  21.7833200  14.8347580 109.9847170  21.2059720  13.5237620
 112.4535320  23.8323510   3.8768240 111.6586820  23.7668630   4.4061150
 112.6578600  24.7674150   3.8653590 109.3953740  37.8715060   7.8706630
 109.9912810  37.5499630   7.1941050 109.6531890  37.3986880   8.6619900
  95.6951940  21.1313370  13.8544070  95.3466760  21.5877190  14.6202250
  95.3639640  20.2370500  13.9366500  97.3016310  34.3032970  18.0197260
  97.2585940  33.9325880  18.9011720  97.4327320  35.2410540  18.1599080
 101.0022340  35.8592560  13.6206980 100.7613700  36.1267120  12.7337500
 101.9424980  36.0298290  13.6757840 103.2076760  22.3225250  17.3763490
 103.1465650  22.9147080  18.1258900 104.1477140  22.2151210  17.2313750
 105.8451320  21.9795310  17.0155780 106.4591730  22.2974600  16.3536860
 106.3900880  21.4943900  17.6351640 112.2626500  37.8786940  14.4217620
 111.7684780  38.2755810  13.7044750 111.6539790  37.2536150  14.8154900
  96.3672580  20.6589570  17.1294840  96.9155570  20.4777620  16.3660950
  96.4327890  19.8683680  17.6651150  97.1404340  37.2495220  15.1395040
  96.5464660  37.1179920  15.8785080  97.1328180  36.4133360  14.6737140
 106.5859360  20.5427450  13.3425070 105.7119200  20.8762560  13.1398000
 106.4770110  20.0700630  14.1676940 107.4931340  22.7498320  14.7266790
 107.1644700  21.9350080  14.3468520 108.4413640  22.7068130  14.6032480
 109.9465950  38.5210360  11.7004360 109.4868920  39.2726170  11.3262380
 109.3178410  37.8016830  11.6419160  96.7716570  34.6153600  14.0903080
  96.0450630  33.9958890  14.0229030  96.8325720  35.0094210  13.2201160
 100.3761670  36.8298600  10.8752490 100.8926690  36.2185960  10.3500750
 101.0259050  37.3327380  11.3663500 103.1157170  37.7207090  11.7021470
 103.4034980  37.4661390  10.8254480 103.6280390  37.1684450  12.2927040
 104.3334180  21.4597290  12.2817980 103.5505970  21.9342790  12.5614740
 104.0397110  20.5552120  12.1731160 108.8855250  22.1620390  10.3267070
 109.3263340  22.1065490   9.4788670 108.6162840  23.0778400  10.3977250
 110.7493820  21.7935630   8.3375890 110.6882220  20.8496850   8.1906910
 111.5285850  21.9015720   8.8829350  95.0546570  37.9327990   7.2999840
  94.8868610  37.2998670   7.9981730  94.1881080  38.1387390   6.9494030
  95.6774590  21.7644770   4.8031700  96.4353950  21.8773650   4.2295730
  95.2151760  22.6013970   4.7575130 102.2188400  23.8784040   7.7934010
 101.4062910  23.5040930   7.4529890 102.7230040  23.1229120   8.0955200
 106.7213380  20.5426490   9.0317080 107.3242750  21.1146700   9.5065600
 105.9806370  21.1065930   8.8090980 109.8647980  20.9448050   4.3057360
 110.0598610  21.8431500   4.5724790 109.0777850  20.7135130   4.7990310
  96.6609270  36.6261220   4.7449980  96.1356890  37.0069250   4.0411940
  96.5853850  37.2511990   5.4659690  98.0499740  22.2908820   3.3433670
  98.5792500  21.5038620   3.2141620  98.6828060  22.9700010   3.5769200
 100.2437580  22.0283960   6.3979060  99.6140320  21.3271270   6.5649190
  99.7042720  22.7888090   6.1812220 103.1829530  38.6423190  19.0689670
 104.1096840  38.4067460  19.1125630 103.1679960  39.4695190  18.5875700
 111.4174590  38.1848760   6.0663920 111.5926780  37.4986500   5.4224840
 110.7196160  38.7095810   5.6740590 100.3693140  21.3067940  18.8331550
 100.0877410  21.8101540  18.0692370 100.7512840  20.5089690  18.4673680
  99.2602240  38.5743600   3.6199230  99.9921060  38.2902880   3.0723120
  99.5195910  38.3356880   4.5098610  98.4217030  34.6908330   3.6245560
  97.7925910  35.1593430   4.1731390  98.5364860  33.8457550   4.0591750
 106.9708600  20.7221520  19.4112020 106.8574050  21.0416130  20.3063540
 107.7878340  21.1234030  19.1149300 109.7507090  37.8693050  18.8930710
 110.5432410  37.3742280  18.6856670 110.0440240  38.5483190  19.5006320
 105.8766750   9.9670500 139.9694680 105.7960800   9.0525110 139.6986390
 105.4631170  10.4637570 139.2634390 104.0084790  11.7449520 141.8503950
 103.2326890  11.2649960 142.1402520 104.6597720  11.0655170 141.6760110
  98.0250620  12.0569330 142.7279710  97.1935500  11.8018040 143.1276220
  98.6331600  12.1280100 143.4637630 108.0292220  16.1509710 140.6303080
 107.5673750  15.3796950 140.9590250 108.8417770  16.1775780 141.1355530
  98.0051880  16.0909420 142.9237730  98.3079920  15.2007160 142.7447950
  98.7495470  16.6479640 142.6959980  96.4342570   7.0171220 136.5122100
  95.5459270   7.3587190 136.4101980  96.7183760   6.8171540 135.6202930
  94.3975580   9.6176870 142.3961800  94.9691690   8.8499070 142.3965440
  94.3977120   9.9165630 141.4868410 104.2555530  18.4367720 140.2507070
 103.6366970  18.8925220 139.6801510 105.1107310  18.5919180 139.8496770
 103.4493780  14.4206710 141.8574110 103.3802060  13.4796650 141.6963240
 104.2113640  14.5108120 142.4296680  95.6400450   5.0261230 144.1830730
  95.4603290   4.1286980 144.4633490  95.2380530   5.5733100 144.8577680
 104.4798950   7.2277090 142.0843040 104.8563770   6.3548970 141.9716710
 104.3818460   7.5635790 141.1933480  98.6103960   5.6002720 137.5460480
  98.7170710   6.5006450 137.8529240  97.6996320   5.5520690 137.2555130
 108.2623070   4.7227530 139.0171380 109.0832690   4.2324100 139.0596860
 108.2957150   5.3125190 139.7703220  96.2587120   7.5221730 142.7913070
  96.9397230   7.7860100 143.4100470  95.9435170   6.6822600 143.1251080
 100.4511690   8.5689090 141.8785660 100.9589910   9.0670060 142.5190680
 100.9824930   7.7924290 141.7025020 112.5522620   6.7394280 145.5815010
 111.8474790   7.1275990 145.0630120 112.8180540   7.4344570 146.1835940
  98.7347790   3.2087650 146.1449080  98.7366230   3.7260040 145.3394980
  97.9052100   2.7317830 146.1219010 105.1218880  13.3206960 137.6438980
 104.5036150  13.7856410 137.0801700 105.6342130  14.0134440 138.0608490
  99.9850640  12.8482830 144.3222580  99.6520020  13.4751750 144.9643650
 100.1617320  13.3744710 143.5424250 108.4984550   6.6627910 141.7898920
 107.7940120   6.9512800 142.3702030 108.8596710   7.4728020 141.4298480
  98.4163120   4.9197610 144.1519530  98.7579930   5.7639660 143.8573400
  97.4778930   5.0681350 144.2684870  99.1969740  14.8163630 146.1371760
  99.8143740  15.4914710 145.8556210  98.3362860  15.2251610 146.0459260
  94.4902080  14.0063490 135.0178610  94.1130060  14.4950590 134.2863510
  94.7475150  14.6788770 135.6485140 110.1147330  16.2803040 144.0526400
 109.4310850  16.9502150 144.0443070 110.6541620  16.4783690 143.2871260
 111.5671470   6.1082700 142.1808130 110.6196380   6.1421680 142.3123560
 111.8921460   6.9221650 142.5657490 102.0991010   2.4079880 140.4764120
 102.4065990   1.8526770 139.7599620 101.1691710   2.5424340 140.2937110
 107.6506070  18.1247170 142.7671580 107.6633230  17.7209460 141.8993840
 107.0981290  18.8994460 142.6633010 108.9451490  14.8463390 137.8561750
 108.8347820  13.9037720 137.9811170 108.9419740  15.2079030 138.7424510
 107.0491510  13.0277010 144.0954190 107.4660300  12.8137120 143.2607650
 107.7731330  13.2849800 144.6662810 104.4871770  10.4728710 137.2124240
 103.5601050  10.4066090 137.4412710 104.6396590  11.4108840 137.0979480
 104.4740850   6.7445710 134.2091400 103.5344520   6.9059670 134.2943860
 104.7924110   7.4631390 133.6627390 110.9953610  11.4264230 144.1870430
 110.1672240  11.4957320 143.7120560 111.5904090  12.0118540 143.7186260
 108.5169060  12.0349010 137.7159490 107.8981480  11.6968560 137.0685790
 108.4993510  11.3908770 138.4238680 107.9595620   8.2133550 145.1325300
 107.5466800   9.0387260 145.3865290 107.2271570   7.6278590 144.9401660
 100.0928410  10.9993450 139.9943970  99.6885410  10.2870700 139.4989870
 100.1791530  10.6546690 140.8832010 100.5610110  14.6861010 142.1583180
 100.2638400  14.0806480 141.4790960 101.5109930  14.7238320 142.0472540
  98.8057030   7.7736660 143.7743010  99.3571620   7.8832000 142.9996260
  99.3200540   8.1474260 144.4898240 108.6495720  18.2592880 145.8206280
 108.1726280  19.0665070 145.6278890 107.9657510  17.6071210 145.9732490
  99.6528540  14.4242700 148.8090980  98.7557070  14.6482670 149.0564380
  99.6781410  14.5477640 147.8602380 106.6933760  11.2735820 134.7232240
 107.1327040  10.4358250 134.5770060 107.4062180  11.9065220 134.8096380
  98.4799760  11.2956020 147.3848350  98.3407530  12.1678820 147.7535750
  97.5981120  10.9528830 147.2396290 104.8029140  16.2131890 138.6913480
 105.2425050  16.9556220 138.2768870 104.7416030  16.4558460 139.6152440
 100.2780110  17.2377720 149.5933500 100.2495540  17.6420670 148.7261930
 100.1145080  16.3088080 149.4305100 110.2750900   2.5278630 133.0373280
 109.9623560   2.6205460 133.9372350 111.0363370   3.1059660 132.9870710
  96.7933040   9.8938430 137.4950620  96.6730640  10.6200520 136.8831890
  96.4833930   9.1241340 137.0178530  94.4318410  13.0653570 143.3019260
  94.5098830  13.2002340 142.3574980  95.0460090  12.3569460 143.4947380
  95.6766040  14.7653760 139.7125440  95.2694120  14.9068350 138.8579040
  96.5679050  14.4813920 139.5096650 111.6328180  15.2117670 148.0497680
 111.7591240  14.9729550 147.1314860 111.6749560  14.3802210 148.5219760
 105.4944920  18.9145670 146.6192490 106.0089590  18.8253680 147.4214920
 104.6514000  19.2605370 146.9120400 107.4699320  19.2001010 136.0476490
 107.3100460  18.9103950 136.9458320 107.3046030  18.4241140 135.5121720
  99.9487700  18.9799540 137.8248110  99.7730180  18.0635080 137.6115910
  99.0943440  19.3386830 138.0645910 107.1725450  16.7088570 134.6074490
 106.4790610  16.7065860 133.9476770 107.9148310  16.2847890 134.1768660
 106.7375380  18.3351280 138.6822980 107.1932330  17.5540660 138.9961600
 107.0767900  19.0458100 139.2264160 111.4852190   7.2650130 149.0147420
 110.8696460   7.7729800 148.4862880 111.1648610   6.3648460 148.9573360
  94.4877930  14.1067740 145.8413720  94.6508970  13.6373100 145.0233090
  94.9530380  13.5991300 146.5062560  99.2596700   3.2373500 140.8774290
  98.8164850   4.0183040 140.5458810  99.8181690   3.5603390 141.5845230
 103.5466510   6.1042020 146.4809610 103.0845880   6.3125040 147.2929550
 103.1444620   5.2901370 146.1780280 108.5471020   7.3250970 147.6106270
 107.6964610   7.0256720 147.9315340 108.3872810   7.5692980 146.6990090
 105.6420730   8.8252720 149.7105060 105.9674140   7.9916470 149.3707290
 106.4301060   9.3481240 149.8583390 102.3755520   2.8584200 135.7580120
 101.7509700   2.8544070 136.4833430 102.2885640   1.9915160 135.3616090
 101.2972600   3.7820830 142.7363890 101.5944930   4.6883660 142.6555910
 101.8458160   3.2939610 142.1223460  99.0510920   8.3607070 138.6055540
  98.8251840   8.1444240 139.5102160  98.2703450   8.7935530 138.2601510
 106.2808680   8.3670440 137.2046190 105.6817570   9.0906240 137.0209810
 106.8288290   8.3047220 136.4222640 101.4910130   9.2592650 149.2715810
 101.3953730   8.3187380 149.1216210 102.3342110   9.4807720 148.8763880
 104.8873550   7.0033980 139.2349470 105.2803120   7.3206180 138.4218160
 105.2490400   6.1245860 139.3493990  96.6220670   5.6706320 147.4249590
  96.2284060   6.5181530 147.6322370  95.9339070   5.0332690 147.6158230
  93.9237720   3.5934780 141.4579670  93.6350770   4.1637640 142.1704650
  94.6683480   3.1139230 141.8210900  94.1107950   7.5354900 132.6682390
  94.0282620   8.4785660 132.8097380  93.7591010   7.3929810 131.7894740
 105.4728690   9.5939730 143.3300250 104.7409810  10.1026540 143.6790350
 105.0753030   8.7769710 143.0289030 101.9106080   6.2693930 141.7352740
 101.9142140   5.8283880 140.8857280 102.8057200   6.5911260 141.8424560
  97.7608460   6.1520420 140.6946950  97.4208510   6.6295650 141.4514000
  96.9985780   5.6985540 140.3348050 101.9726230   7.2706010 134.7259500
 102.0939050   7.2292490 135.6745320 101.5874740   8.1330160 134.5706230
 105.9354600   5.0473410 142.7423190 105.9527340   5.4982060 143.5865040
 105.6870180   4.1479050 142.9556630 100.9847730   9.5807150 134.1242800
 100.4164630   9.1325400 133.4978710 101.6936730   9.9399930 133.5907950
 109.3625350   2.4605590 148.5809570 109.6871120   1.7295250 149.1067550
 109.3981860   2.1419230 147.6790560  96.0616910  13.4819170 148.0009530
  95.6771700  12.8412840 148.5992490  96.3729100  14.1855290 148.5704260
 102.2114050  10.3295710 143.4818150 102.5784180   9.8554280 144.2279490
 102.0219110  11.2037280 143.8226490  95.0754540   5.0739400 139.6111620
  94.7901460   4.7095070 140.4490240  95.0133400   4.3419860 138.9974760
 100.0013420   9.3704350 145.8002360  99.6970490  10.2496330 146.0252720
 100.9559880   9.4304140 145.8359800  98.5295210  13.5765340 136.3969210
  97.7557470  13.0362960 136.2367930  99.2589840  13.0571950 136.0586970
 109.2883190  12.5730700 142.1895600 110.0082310  13.0685990 141.7991710
 109.0865010  11.8948590 141.5449470 104.7493130   3.9668660 136.3324990
 103.9357740   3.4681830 136.2570300 104.5555080   4.8066910 135.9161340
 104.6701990  12.6439760 148.0764600 104.6039300  11.7235430 147.8222190
 104.0407130  12.7415200 148.7909240 107.4641520   8.3388310 134.6287150
 108.3521140   8.6505540 134.4538490 107.4346610   7.4660560 134.2367730
  98.5732610  13.2445720 140.0348020  99.0911280  12.4413980 139.9804910
  98.1216630  13.1824860 140.8764850 103.4602110  14.5112000 135.3075320
 103.8017810  15.2554230 134.8118640 102.6314820  14.8243120 135.6700150
  96.0577150  10.2107090 146.9473720  95.6992090  10.8760940 147.5347060
  95.7631710   9.3790640 147.3186340  99.2590270  10.6691330 149.8313270
  98.9590410  10.8148510 148.9341090 100.0301510  10.1096620 149.7386660
 104.6018720  15.4660330 147.8268400 104.6163260  14.5341290 147.6087310
 103.8943820  15.5520090 148.4658170 109.7355790   9.6500150 134.0967010
 109.6519510  10.0814370 133.2463450 110.4549980  10.1098500 134.5293830
 110.8129930  12.1067670 147.1736980 110.0878120  12.6996450 146.9766370
 111.3405390  12.0991210 146.3750350 110.7643040  16.5042410 136.8249140
 110.1219200  15.8498030 137.0992860 110.3773700  16.9097500 136.0489810
 106.3429520  13.8327840 140.6720830 106.6953340  13.2355970 140.0122200
 105.4591850  13.5072070 140.8429080 102.4292800  14.5925530 138.0791240
 103.1163930  15.1394740 138.4598830 101.6425220  15.1366260 138.1140850
  94.5685200  10.2098350 133.5708320  95.4380050  10.4923150 133.8544240
  94.0775520  11.0234220 133.4557130 101.7320010  11.5971560 137.6916600
 102.1882790  12.4076810 137.9176790 101.3808220  11.2794700 138.5235090
 104.0352620  17.1077900 144.9208900 104.6794840  17.3137280 145.5982320
 104.3982060  16.3466300 144.4679750  97.6331790   1.9409210 138.1639120
  97.5046420   1.9327110 139.1124040  96.8093810   2.2792300 137.8130130
 105.3084700  15.1110250 143.6386350 105.9506930  14.4103410 143.7518520
 105.8334050  15.8908690 143.4583240 109.1540420  15.3958870 133.3625490
 108.9278000  14.6789310 133.9550130 108.7636620  15.1471310 132.5247240
 107.0822320  15.9105150 146.8422410 107.4178560  16.4971840 147.5200330
 106.1622660  15.7797860 147.0720200  94.9356450  19.4225730 134.1369950
  95.2954090  20.0215070 133.4827220  94.7948790  19.9685620 134.9104980
  94.6325720   3.7000330 147.6245820  93.9184240   3.8997250 148.2298430
  95.0520760   2.9239900 147.9960620 108.7356670  13.3130810 135.0239650
 108.4478370  13.7743500 135.8117530 109.5308840  12.8528580 135.2923870
  94.9198310  17.6880590 148.6112350  95.0289430  16.7475330 148.4707740
  94.2678870  17.9535340 147.9626080 100.9525070  16.8056930 134.9543620
 100.9435170  17.5386620 134.3388130 100.0323430  16.5588510 135.0470580
  96.5531710  12.0271820 135.6990380  95.9459660  12.7670720 135.7085680
  97.0281060  12.1171180 134.8728580 106.1264500   6.1922640 145.3747270
 106.4945320   5.3717850 145.7026840 105.2662700   6.2524530 145.7902920
 109.4926530   5.1479580 136.1834830 108.8639690   5.2525250 135.4693060
 108.9978450   5.3676360 136.9728710 103.9384670  16.8685170 133.6168810
 104.0396650  16.6649160 132.6870790 103.0386410  16.6143450 133.8216590
 101.4610560   7.4265530 137.5992710 100.7526710   7.8951870 138.0406320
 101.7455040   6.7687540 138.2337900 103.0866490   8.8462230 145.5985240
 103.5851740   9.3208050 146.2637090 103.2289440   7.9225750 145.8055270
 105.4925990   4.1516190 139.0388500 105.3693770   4.1702320 138.0898010
 106.4410550   4.1995130 139.1586900 102.5802780  19.3871490 138.3116480
 102.8344280  19.3492880 137.3895850 101.6315260  19.2604820 138.3044730
  99.6645580   5.7350610 134.9743420 100.5136110   6.1720760 134.9083610
  99.2976850   6.0470870 135.8015480 110.2933350   5.0630190 146.4413630
 109.7906950   5.8035590 146.7807440 111.1090010   5.4514190 146.1250420
 108.5855360  10.3063370 139.8874990 107.6445500  10.3213600 140.0622680
 108.8999430   9.5199330 140.3335290  98.5637000  11.9882970 133.4478950
  99.3300270  11.8764330 134.0104380  98.6411690  11.2920940 132.7955720
  97.2583760   9.4208040 134.1311840  97.3387350   8.4735550 134.2429240
  98.1503510   9.7514920 134.2372500 110.5880940  17.4772220 141.5629250
 110.7128360  18.3003390 142.0353060 111.4546500  17.2662950 141.2153400
  98.0598470  19.5703430 141.2346380  98.7960950  19.0218890 141.5054950
  98.4439390  20.4359440 141.0952370  94.9443950  15.6377000 137.1087890
  94.0183730  15.8798140 137.0993300  95.4100380  16.4651260 136.9872640
 101.1700780  18.7433740 133.0571950 101.9629390  19.0322570 132.6053740
 100.6505130  18.3125910 132.3784430 107.3321750  18.5909660 148.9816780
 108.2843500  18.5067680 148.9317020 107.1849970  19.2551370 149.6550570
 110.2230950  17.9703870 134.4808690 109.9372460  17.5569010 133.6662870
 110.0250500  18.8991580 134.3609210  94.7854560  11.2422960 149.3668010
  95.2893580  10.6630240 149.9384240  94.0461980  11.5263190 149.9044380
 101.6878180  13.9637150 132.9214300 101.5828820  13.3489500 133.6475680
 101.5202400  13.4403040 132.1377310 101.8392500  12.6493950 148.9003530
 101.0738170  13.2178950 148.8158200 102.0208460  12.3570160 148.0071760
 104.9280910  13.0257180 133.5256290 104.3791010  13.4726480 134.1699030
 105.5500170  12.5206430 134.0493960 108.9815850  14.3799280 149.4578550
 109.7225320  14.7175040 148.9546010 108.2188530  14.5491340 148.9048320
 100.5956030  11.9848100 135.4221590 101.0172450  11.8187970 136.2652980
 100.7206870  11.1748330 134.9276730  98.7583450   7.9644650 148.2292570
  98.2279910   7.4735600 147.6015910  99.4271520   8.3928850 147.6950500
 103.1083670  11.0085710 132.6698690 103.6289330  10.2934730 132.3039840
 103.7552070  11.6471580 132.9699200 107.6561510  12.4314110 147.9933760
 108.0702530  12.5859190 148.8424180 106.7212510  12.5569330 148.1559540
 108.1283680   9.7710270 149.9972910 108.7104450   9.0162590 149.9093390
 108.3045450  10.3017710 149.2204390  99.2455750   4.9307020 148.3089860
  99.1512620   4.3127770 147.5840730  98.6653140   5.6573310 148.0819770
 102.0117190   3.4880260 145.3417250 101.5634490   3.5104520 144.4962800
 101.3782390   3.0899280 145.9387550 102.4176740  12.3834590 145.9629690
 102.8364850  13.2267320 145.7905930 101.4985370  12.5206630 145.7336470
 104.7540640  10.1150770 147.3467530 104.8736850   9.5191910 148.0862370
 105.6134640  10.1520460 146.9268830 107.0928540  10.6687960 145.9230040
 106.5663760  11.1930580 145.3195180 107.4359880  11.3015350 146.5539770
  99.4914930   8.0581330 132.3679750  99.2903990   7.1948690 132.7293090
  99.3206980   7.9714690 131.4301350 100.2684160  18.6887600 147.0787420
  99.7305250  19.4133660 146.7596120 100.5218120  18.2117940 146.2884760
 101.5209410   6.6572120 148.6043350 102.1109100   6.3487970 149.2921170
 100.7029650   6.1851870 148.7603250 106.3402840   6.2737930 148.8376370
 105.6518360   5.6119470 148.7726360 107.0608860   5.8276200 149.2824830
 106.9703240   2.8689560 134.8966630 107.2505530   2.0257460 135.2526050
 106.1968970   3.1012670 135.4105380  98.2897730   5.1581950 132.3557630
  98.5923630   5.1649380 131.4476780  99.0292320   4.8079810 132.8525290
 103.1246370  19.9238810 147.3374070 103.0505070  20.8273950 147.6446440
 102.2225210  19.6050710 147.3096140 101.5082660   4.1016570 133.3413830
 101.1604660   3.4240560 132.7616280 101.7095430   3.6406080 134.1557220
 103.6731700  19.0897320 134.9600430 104.5682490  19.4282290 134.9819190
 103.7049330  18.3676730 134.3324710  97.3127860  14.4624370 133.1887430
  97.7502730  15.0054040 133.8445010  97.7975590  13.6371320 133.1983770
  94.5273660  17.2513400 140.6407690  94.8576670  16.3834460 140.4086330
  94.9564660  17.4571920 141.4712650  99.1235580  15.5822410 138.3009660
  98.8231120  15.4587380 139.2013570  99.0173070  14.7231000 137.8925390
  95.0163870  18.1183990 143.3789320  94.5794860  18.2984790 144.2113470
  95.5841550  18.8758610 143.2371040 110.6526050  17.6200990 147.6666630
 110.0528040  17.6793550 146.9230550 110.7819950  16.6805970 147.7963480
 111.8927500  15.3618810 133.0036340 111.0620460  15.4295460 133.4743570
 112.0699330  16.2522930 132.7003200 111.3483960  12.1066290 135.5070540
 112.1102870  12.6762940 135.6130230 111.3638330  11.5393490 136.2778850
  94.8488300  10.6304220 139.7378200  94.1937140  10.3615860 139.0937900
  95.6866250  10.5208700 139.2880180 112.3543930  12.9616390 140.3512470
 112.7252760  12.1783710 139.9448440 112.9945860  13.6505490 140.1729770
 109.3377690  14.3452970 145.7642790 108.5237530  14.7750130 146.0268580
 109.7451890  14.9571380 145.1511840 111.4003130  12.4000660 132.6643060
 111.6751970  13.3079540 132.5362280 111.2113870  12.3363190 133.6005050
 107.7978740   5.4245510 133.9596690 108.2163620   5.2376490 133.1193350
 107.4914800   4.5724560 134.2699620 111.2968470  10.3369650 137.6572490
 110.9212070   9.5697580 137.2253780 110.5671590  10.7192350 138.1447420
  95.8864230  11.0156790 144.2781540  96.2537270  10.9284190 145.1577560
  95.3175050  10.2523340 144.1788400 110.6868090   9.4841170 147.2912010
 110.4554180   9.2553920 146.3909960 110.9472640  10.4040720 147.2456900
  95.4380230   7.9265880 148.1839960  94.5436280   7.8932640 148.5233670
  95.9777780   8.1252670 148.9491210  94.0626380   7.8403150 135.6803530
  93.1590460   8.1033350 135.5055190  94.5467000   8.1114320 134.9003490
 110.5719430   8.5627140 140.9579730 111.0956910   8.0689790 140.3269900
 111.1578850   8.6977500 141.7027300 110.7509150   8.6467010 144.4799280
 109.8011860   8.6130550 144.5944270 110.9322160   9.5567120 144.2449050
  96.6053590   6.8968690 133.5897910  97.3145290   6.4751910 133.1045190
  95.8893530   6.9643920 132.9581260  96.2527750   2.9508020 132.6300560
  96.9755880   3.4916960 132.9481780  96.5252270   2.6771440 131.7542100
 110.0619400   7.8200490 136.8972140 110.5578520   7.5871360 137.6821020
 109.8635470   6.9812330 136.4809780  95.9419940   2.2014210 142.5323180
  96.5896130   1.6511590 142.0918340  96.3621780   2.4557360 143.3538990
 111.4906560   6.4561440 139.4309820 111.3805840   6.3017480 140.3692090
 112.2514150   5.9282380 139.1885230 109.8372280   2.3955570 145.8892820
 110.4744500   3.0089710 146.2552010 109.9847170   2.4316230 144.9442050
 112.3796830   4.2869360 132.6715960 113.3046140   4.1550540 132.4634250
 112.3572620   4.3662180 133.6252410 112.4535320   5.0580020 135.2972670
 111.6586820   4.9925140 135.8265580 112.6578600   5.9930660 135.2858020
 109.3953740  19.0971570 139.2911060 109.9912810  18.7756140 138.6145480
 109.6531890  18.6243390 140.0824330  95.6951940   2.3569880 145.2748500
  95.3466760   2.8133700 146.0406680  95.3639640   1.4627010 145.3570930
 101.0022340  17.0849070 145.0411410 100.7613700  17.3523630 144.1541930
 101.9424980  17.2554800 145.0962270 103.2076760   3.5481760 148.7967920
 103.1465650   4.1403590 149.5463330 104.1477140   3.4407720 148.6518180
 105.8451320   3.2051820 148.4360210 106.4591730   3.5231110 147.7741290
 106.3900880   2.7200410 149.0556070 112.2626500  19.1043450 145.8422050
 111.7684780  19.5012320 145.1249180 111.6539790  18.4792660 146.2359330
  97.1404340  18.4751730 146.5599470  96.5464660  18.3436430 147.2989510
  97.1328180  17.6389870 146.0941570 107.4931340   3.9754830 146.1471220
 107.1644700   3.1606590 145.7672950 108.4413640   3.9324640 146.0236910
 109.9465950  19.7466870 143.1208790 109.4868920  20.4982680 142.7466810
 109.3178410  19.0273340 143.0623590  96.7716570  15.8410110 145.5107510
  96.0450630  15.2215400 145.4433460  96.8325720  16.2350720 144.6405590
 100.3761670  18.0555110 142.2956920 100.8926690  17.4442470 141.7705180
 101.0259050  18.5583890 142.7867930 103.1157170  18.9463600 143.1225900
 103.4034980  18.6917900 142.2458910 103.6280390  18.3940960 143.7131470
 104.3334180   2.6853800 143.7022410 103.5505970   3.1599300 143.9819170
 104.0397110   1.7808630 143.5935590 108.8855250   3.3876900 141.7471500
 109.3263340   3.3322000 140.8993100 108.6162840   4.3034910 141.8181680
 110.7493820   3.0192140 139.7580320 110.6882220   2.0753360 139.6111340
 111.5285850   3.1272230 140.3033780  95.0546570  19.1584500 138.7204270
  94.8868610  18.5255180 139.4186160  94.1881080  19.3643900 138.3698460
  95.6774590   2.9901280 136.2236130  96.4353950   3.1030160 135.6500160
  95.2151760   3.8270480 136.1779560 102.2188400   5.1040550 139.2138440
 101.4062910   4.7297440 138.8734320 102.7230040   4.3485630 139.5159630
 106.7213380   1.7683000 140.4521510 107.3242750   2.3403210 140.9270030
 105.9806370   2.3322440 140.2295410 109.8647980   2.1704560 135.7261790
 110.0598610   3.0688010 135.9929220 109.0777850   1.9391640 136.2194740
  96.6609270  17.8517730 136.1654410  96.1356890  18.2325760 135.4616370
  96.5853850  18.4768500 136.8864120  98.0499740   3.5165330 134.7638100
  98.5792500   2.7295130 134.6346050  98.6828060   4.1956520 134.9973630
 100.2437580   3.2540470 137.8183490  99.6140320   2.5527780 137.9853620
  99.7042720   4.0144600 137.6016650 111.4174590  19.4105270 137.4868350
 111.5926780  18.7243010 136.8429270 110.7196160  19.9352320 137.0945020
  99.2602240  19.8000110 135.0403660  99.9921060  19.5159390 134.4927550
  99.5195910  19.5613390 135.9303040  98.4217030  15.9164840 135.0449990
  97.7925910  16.3849940 135.5935820  98.5364860  15.0714060 135.4796180
 105.8766750   9.9670500 121.1951190 105.7960800   9.0525110 120.9242900
 105.4631170  10.4637570 120.4890900 104.0084790  11.7449520 123.0760460
 103.2326890  11.2649960 123.3659030 104.6597720  11.0655170 122.9016620
  98.0250620  12.0569330 123.9536220  97.1935500  11.8018040 124.3532730
  98.6331600  12.1280100 124.6894140 108.0292220  16.1509710 121.8559590
 107.5673750  15.3796950 122.1846760 108.8417770  16.1775780 122.3612040
  98.0051880  16.0909420 124.1494240  98.3079920  15.2007160 123.9704460
  98.7495470  16.6479640 123.9216490  96.4342570   7.0171220 117.7378610
  95.5459270   7.3587190 117.6358490  96.7183760   6.8171540 116.8459440
  94.3975580   9.6176870 123.6218310  94.9691690   8.8499070 123.6221950
  94.3977120   9.9165630 122.7124920 104.2555530  18.4367720 121.4763580
 103.6366970  18.8925220 120.9058020 105.1107310  18.5919180 121.0753280
 103.4493780  14.4206710 123.0830620 103.3802060  13.4796650 122.9219750
 104.2113640  14.5108120 123.6553190  95.6400450   5.0261230 125.4087240
  95.4603290   4.1286980 125.6890000  95.2380530   5.5733100 126.0834190
 104.4798950   7.2277090 123.3099550 104.8563770   6.3548970 123.1973220
 104.3818460   7.5635790 122.4189990  98.6103960   5.6002720 118.7716990
  98.7170710   6.5006450 119.0785750  97.6996320   5.5520690 118.4811640
 108.2623070   4.7227530 120.2427890 109.0832690   4.2324100 120.2853370
 108.2957150   5.3125190 120.9959730  96.2587120   7.5221730 124.0169580
  96.9397230   7.7860100 124.6356980  95.9435170   6.6822600 124.3507590
 100.4511690   8.5689090 123.1042170 100.9589910   9.0670060 123.7447190
 100.9824930   7.7924290 122.9281530 112.5522620   6.7394280 126.8071520
 111.8474790   7.1275990 126.2886630 112.8180540   7.4344570 127.4092450
  98.7347790   3.2087650 127.3705590  98.7366230   3.7260040 126.5651490
  97.9052100   2.7317830 127.3475520 105.1218880  13.3206960 118.8695490
 104.5036150  13.7856410 118.3058210 105.6342130  14.0134440 119.2865000
  99.9850640  12.8482830 125.5479090  99.6520020  13.4751750 126.1900160
 100.1617320  13.3744710 124.7680760 108.4984550   6.6627910 123.0155430
 107.7940120   6.9512800 123.5958540 108.8596710   7.4728020 122.6554990
  98.4163120   4.9197610 125.3776040  98.7579930   5.7639660 125.0829910
  97.4778930   5.0681350 125.4941380  99.1969740  14.8163630 127.3628270
  99.8143740  15.4914710 127.0812720  98.3362860  15.2251610 127.2715770
  94.4902080  14.0063490 116.2435120  94.1130060  14.4950590 115.5120020
  94.7475150  14.6788770 116.8741650 110.1147330  16.2803040 125.2782910
 109.4310850  16.9502150 125.2699580 110.6541620  16.4783690 124.5127770
 111.5671470   6.1082700 123.4064640 110.6196380   6.1421680 123.5380070
 111.8921460   6.9221650 123.7914000 102.0991010   2.4079880 121.7020630
 102.4065990   1.8526770 120.9856130 101.1691710   2.5424340 121.5193620
 107.6506070  18.1247170 123.9928090 107.6633230  17.7209460 123.1250350
 107.0981290  18.8994460 123.8889520 108.9451490  14.8463390 119.0818260
 108.8347820  13.9037720 119.2067680 108.9419740  15.2079030 119.9681020
 107.0491510  13.0277010 125.3210700 107.4660300  12.8137120 124.4864160
 107.7731330  13.2849800 125.8919320 104.4871770  10.4728710 118.4380750
 103.5601050  10.4066090 118.6669220 104.6396590  11.4108840 118.3235990
 104.4740850   6.7445710 115.4347910 103.5344520   6.9059670 115.5200370
 104.7924110   7.4631390 114.8883900 110.9953610  11.4264230 125.4126940
 110.1672240  11.4957320 124.9377070 111.5904090  12.0118540 124.9442770
 108.5169060  12.0349010 118.9416000 107.8981480  11.6968560 118.2942300
 108.4993510  11.3908770 119.6495190 107.9595620   8.2133550 126.3581810
 107.5466800   9.0387260 126.6121800 107.2271570   7.6278590 126.1658170
 100.0928410  10.9993450 121.2200480  99.6885410  10.2870700 120.7246380
 100.1791530  10.6546690 122.1088520 100.5610110  14.6861010 123.3839690
 100.2638400  14.0806480 122.7047470 101.5109930  14.7238320 123.2729050
  98.8057030   7.7736660 124.9999520  99.3571620   7.8832000 124.2252770
  99.3200540   8.1474260 125.7154750 108.6495720  18.2592880 127.0462790
 108.1726280  19.0665070 126.8535400 107.9657510  17.6071210 127.1989000
  99.6528540  14.4242700 130.0347490  98.7557070  14.6482670 130.2820890
  99.6781410  14.5477640 129.0858890 106.6933760  11.2735820 115.9488750
 107.1327040  10.4358250 115.8026570 107.4062180  11.9065220 116.0352890
  98.4799760  11.2956020 128.6104860  98.3407530  12.1678820 128.9792260
  97.5981120  10.9528830 128.4652800 104.8029140  16.2131890 119.9169990
 105.2425050  16.9556220 119.5025380 104.7416030  16.4558460 120.8408950
 100.2780110  17.2377720 130.8190010 100.2495540  17.6420670 129.9518440
 100.1145080  16.3088080 130.6561610 110.2750900   2.5278630 114.2629790
 109.9623560   2.6205460 115.1628860 111.0363370   3.1059660 114.2127220
  96.7933040   9.8938430 118.7207130  96.6730640  10.6200520 118.1088400
  96.4833930   9.1241340 118.2435040 112.2294930  18.0204820 132.1154180
 112.7054650  18.4987710 132.7943260 112.8502090  17.9522310 131.3899680
  94.4318410  13.0653570 124.5275770  94.5098830  13.2002340 123.5831490
  95.0460090  12.3569460 124.7203890  95.6766040  14.7653760 120.9381950
  95.2694120  14.9068350 120.0835550  96.5679050  14.4813920 120.7353160
 111.6328180  15.2117670 129.2754190 111.7591240  14.9729550 128.3571370
 111.6749560  14.3802210 129.7476270 105.4944920  18.9145670 127.8449000
 106.0089590  18.8253680 128.6471430 104.6514000  19.2605370 128.1376910
 107.4699320  19.2001010 117.2733000 107.3100460  18.9103950 118.1714830
 107.3046030  18.4241140 116.7378230  99.9487700  18.9799540 119.0504620
  99.7730180  18.0635080 118.8372420  99.0943440  19.3386830 119.2902420
 107.1725450  16.7088570 115.8331000 106.4790610  16.7065860 115.1733280
 107.9148310  16.2847890 115.4025170 106.7375380  18.3351280 119.9079490
 107.1932330  17.5540660 120.2218110 107.0767900  19.0458100 120.4520670
 111.4852190   7.2650130 130.2403930 110.8696460   7.7729800 129.7119390
 111.1648610   6.3648460 130.1829870  94.4877930  14.1067740 127.0670230
  94.6508970  13.6373100 126.2489600  94.9530380  13.5991300 127.7319070
  99.2596700   3.2373500 122.1030800  98.8164850   4.0183040 121.7715320
  99.8181690   3.5603390 122.8101740 103.5466510   6.1042020 127.7066120
 103.0845880   6.3125040 128.5186060 103.1444620   5.2901370 127.4036790
 108.5471020   7.3250970 128.8362780 107.6964610   7.0256720 129.1571850
 108.3872810   7.5692980 127.9246600 105.6420730   8.8252720 130.9361570
 105.9674140   7.9916470 130.5963800 106.4301060   9.3481240 131.0839900
 102.3755520   2.8584200 116.9836630 101.7509700   2.8544070 117.7089940
 102.2885640   1.9915160 116.5872600 101.2972600   3.7820830 123.9620400
 101.5944930   4.6883660 123.8812420 101.8458160   3.2939610 123.3479970
  99.0510920   8.3607070 119.8312050  98.8251840   8.1444240 120.7358670
  98.2703450   8.7935530 119.4858020 106.2808680   8.3670440 118.4302700
 105.6817570   9.0906240 118.2466320 106.8288290   8.3047220 117.6479150
 101.4910130   9.2592650 130.4972320 101.3953730   8.3187380 130.3472720
 102.3342110   9.4807720 130.1020390 104.8873550   7.0033980 120.4605980
 105.2803120   7.3206180 119.6474670 105.2490400   6.1245860 120.5750500
  96.6220670   5.6706320 128.6506100  96.2284060   6.5181530 128.8578880
  95.9339070   5.0332690 128.8414740 103.1965720   5.7541290 131.7202840
 102.5064040   5.5613490 132.3548930 103.9398020   6.0375930 132.2527140
  93.9237720   3.5934780 122.6836180  93.6350770   4.1637640 123.3961160
  94.6683480   3.1139230 123.0467410  94.1107950   7.5354900 113.8938900
  94.0282620   8.4785660 114.0353890  93.7591010   7.3929810 113.0151250
 105.4728690   9.5939730 124.5556760 104.7409810  10.1026540 124.9046860
 105.0753030   8.7769710 124.2545540 101.9106080   6.2693930 122.9609250
 101.9142140   5.8283880 122.1113790 102.8057200   6.5911260 123.0681070
  97.7608460   6.1520420 121.9203460  97.4208510   6.6295650 122.6770510
  96.9985780   5.6985540 121.5604560 101.9726230   7.2706010 115.9516010
 102.0939050   7.2292490 116.9001830 101.5874740   8.1330160 115.7962740
 105.9354600   5.0473410 123.9679700 105.9527340   5.4982060 124.8121550
 105.6870180   4.1479050 124.1813140 100.9847730   9.5807150 115.3499310
 100.4164630   9.1325400 114.7235220 101.6936730   9.9399930 114.8164460
 109.3625350   2.4605590 129.8066080 109.6871120   1.7295250 130.3324060
 109.3981860   2.1419230 128.9047070  96.0616910  13.4819170 129.2266040
  95.6771700  12.8412840 129.8249000  96.3729100  14.1855290 129.7960770
 102.2114050  10.3295710 124.7074660 102.5784180   9.8554280 125.4536000
 102.0219110  11.2037280 125.0483000  95.0754540   5.0739400 120.8368130
  94.7901460   4.7095070 121.6746750  95.0133400   4.3419860 120.2231270
 100.0013420   9.3704350 127.0258870  99.6970490  10.2496330 127.2509230
 100.9559880   9.4304140 127.0616310  98.5295210  13.5765340 117.6225720
  97.7557470  13.0362960 117.4624440  99.2589840  13.0571950 117.2843480
 109.2883190  12.5730700 123.4152110 110.0082310  13.0685990 123.0248220
 109.0865010  11.8948590 122.7705980 104.7493130   3.9668660 117.5581500
 103.9357740   3.4681830 117.4826810 104.5555080   4.8066910 117.1417850
 104.6701990  12.6439760 129.3021110 104.6039300  11.7235430 129.0478700
 104.0407130  12.7415200 130.0165750 107.4641520   8.3388310 115.8543660
 108.3521140   8.6505540 115.6795000 107.4346610   7.4660560 115.4624240
  98.5732610  13.2445720 121.2604530  99.0911280  12.4413980 121.2061420
  98.1216630  13.1824860 122.1021360 103.4602110  14.5112000 116.5331830
 103.8017810  15.2554230 116.0375150 102.6314820  14.8243120 116.8956660
  96.0577150  10.2107090 128.1730230  95.6992090  10.8760940 128.7603570
  95.7631710   9.3790640 128.5442850  99.2590270  10.6691330 131.0569780
  98.9590410  10.8148510 130.1597600 100.0301510  10.1096620 130.9643170
 104.6018720  15.4660330 129.0524910 104.6163260  14.5341290 128.8343820
 103.8943820  15.5520090 129.6914680 109.7355790   9.6500150 115.3223520
 109.6519510  10.0814370 114.4719960 110.4549980  10.1098500 115.7550340
 110.8129930  12.1067670 128.3993490 110.0878120  12.6996450 128.2022880
 111.3405390  12.0991210 127.6006860 110.7643040  16.5042410 118.0505650
 110.1219200  15.8498030 118.3249370 110.3773700  16.9097500 117.2746320
 106.3429520  13.8327840 121.8977340 106.6953340  13.2355970 121.2378710
 105.4591850  13.5072070 122.0685590 102.4292800  14.5925530 119.3047750
 103.1163930  15.1394740 119.6855340 101.6425220  15.1366260 119.3397360
  94.5685200  10.2098350 114.7964830  95.4380050  10.4923150 115.0800750
  94.0775520  11.0234220 114.6813640 101.7320010  11.5971560 118.9173110
 102.1882790  12.4076810 119.1433300 101.3808220  11.2794700 119.7491600
 104.0352620  17.1077900 126.1465410 104.6794840  17.3137280 126.8238830
 104.3982060  16.3466300 125.6936260  97.6331790   1.9409210 119.3895630
  97.5046420   1.9327110 120.3380550  96.8093810   2.2792300 119.0386640
 105.3084700  15.1110250 124.8642860 105.9506930  14.4103410 124.9775030
 105.8334050  15.8908690 124.6839750 109.1540420  15.3958870 114.5882000
 108.9278000  14.6789310 115.1806640 108.7636620  15.1471310 113.7503750
 107.0822320  15.9105150 128.0678920 107.4178560  16.4971840 128.7456840
 106.1622660  15.7797860 128.2976710  94.9356450  19.4225730 115.3626460
  95.2954090  20.0215070 114.7083730  94.7948790  19.9685620 116.1361490
  94.6325720   3.7000330 128.8502330  93.9184240   3.8997250 129.4554940
  95.0520760   2.9239900 129.2217130 108.7356670  13.3130810 116.2496160
 108.4478370  13.7743500 117.0374040 109.5308840  12.8528580 116.5180380
  94.9198310  17.6880590 129.8368860  95.0289430  16.7475330 129.6964250
  94.2678870  17.9535340 129.1882590 102.9110900  15.9596480 131.2366980
 102.5907770  15.2405720 131.7812670 102.2369260  16.6351550 131.3103040
 100.9525070  16.8056930 116.1800130 100.9435170  17.5386620 115.5644640
 100.0323430  16.5588510 116.2727090  96.5531710  12.0271820 116.9246890
  95.9459660  12.7670720 116.9342190  97.0281060  12.1171180 116.0985090
 106.1264500   6.1922640 126.6003780 106.4945320   5.3717850 126.9283350
 105.2662700   6.2524530 127.0159430 109.4926530   5.1479580 117.4091340
 108.8639690   5.2525250 116.6949570 108.9978450   5.3676360 118.1985220
 103.9384670  16.8685170 114.8425320 104.0396650  16.6649160 113.9127300
 103.0386410  16.6143450 115.0473100 101.4610560   7.4265530 118.8249220
 100.7526710   7.8951870 119.2662830 101.7455040   6.7687540 119.4594410
 103.0866490   8.8462230 126.8241750 103.5851740   9.3208050 127.4893600
 103.2289440   7.9225750 127.0311780 105.4925990   4.1516190 120.2645010
 105.3693770   4.1702320 119.3154520 106.4410550   4.1995130 120.3843410
 102.5802780  19.3871490 119.5372990 102.8344280  19.3492880 118.6152360
 101.6315260  19.2604820 119.5301240  99.6645580   5.7350610 116.1999930
 100.5136110   6.1720760 116.1340120  99.2976850   6.0470870 117.0271990
 110.2933350   5.0630190 127.6670140 109.7906950   5.8035590 128.0063950
 111.1090010   5.4514190 127.3506930 108.5855360  10.3063370 121.1131500
 107.6445500  10.3213600 121.2879190 108.8999430   9.5199330 121.5591800
  98.5637000  11.9882970 114.6735460  99.3300270  11.8764330 115.2360890
  98.6411690  11.2920940 114.0212230  97.2583760   9.4208040 115.3568350
  97.3387350   8.4735550 115.4685750  98.1503510   9.7514920 115.4629010
 110.5880940  17.4772220 122.7885760 110.7128360  18.3003390 123.2609570
 111.4546500  17.2662950 122.4409910  98.0598470  19.5703430 122.4602890
  98.7960950  19.0218890 122.7311460  98.4439390  20.4359440 122.3208880
  94.9443950  15.6377000 118.3344400  94.0183730  15.8798140 118.3249810
  95.4100380  16.4651260 118.2129150  97.0656750  18.7549500 131.6488470
  97.8669480  19.0761550 132.0623870  96.5508570  18.3945080 132.3708380
 101.1700780  18.7433740 114.2828460 101.9629390  19.0322570 113.8310250
 100.6505130  18.3125910 113.6040940 105.9021380  14.8629370 131.5963880
 105.2959540  14.8860970 130.8559630 105.5975490  14.1312410 132.1331130
 107.3321750  18.5909660 130.2073290 108.2843500  18.5067680 130.1573530
 107.1849970  19.2551370 130.8807080 110.2230950  17.9703870 115.7065200
 109.9372460  17.5569010 114.8919380 110.0250500  18.8991580 115.5865720
  94.7854560  11.2422960 130.5924520  95.2893580  10.6630240 131.1640750
  94.0461980  11.5263190 131.1300890 101.6878180  13.9637150 114.1470810
 101.5828820  13.3489500 114.8732190 101.5202400  13.4403040 113.3633820
 101.8392500  12.6493950 130.1260040 101.0738170  13.2178950 130.0414710
 102.0208460  12.3570160 129.2328270 104.9280910  13.0257180 114.7512800
 104.3791010  13.4726480 115.3955540 105.5500170  12.5206430 115.2750470
 108.9815850  14.3799280 130.6835060 109.7225320  14.7175040 130.1802520
 108.2188530  14.5491340 130.1304830  96.8177640   9.3852550 131.4874590
  96.8582980   9.0866420 132.3959820  97.6723140   9.7860160 131.3282110
 100.5956030  11.9848100 116.6478100 101.0172450  11.8187970 117.4909490
 100.7206870  11.1748330 116.1533240  98.7583450   7.9644650 129.4549080
  98.2279910   7.4735600 128.8272420  99.4271520   8.3928850 128.9207010
 103.1083670  11.0085710 113.8955200 103.6289330  10.2934730 113.5296350
 103.7552070  11.6471580 114.1955710 107.6561510  12.4314110 129.2190270
 108.0702530  12.5859190 130.0680690 106.7212510  12.5569330 129.3816050
 108.1283680   9.7710270 131.2229420 108.7104450   9.0162590 131.1349900
 108.3045450  10.3017710 130.4460900  99.2455750   4.9307020 129.5346370
  99.1512620   4.3127770 128.8097240  98.6653140   5.6573310 129.3076280
 102.0117190   3.4880260 126.5673760 101.5634490   3.5104520 125.7219310
 101.3782390   3.0899280 127.1644060 102.4176740  12.3834590 127.1886200
 102.8364850  13.2267320 127.0162440 101.4985370  12.5206630 126.9592980
 104.7540640  10.1150770 128.5724040 104.8736850   9.5191910 129.3118880
 105.6134640  10.1520460 128.1525340 107.0928540  10.6687960 127.1486550
 106.5663760  11.1930580 126.5451690 107.4359880  11.3015350 127.7796280
  99.4914930   8.0581330 113.5936260  99.2903990   7.1948690 113.9549600
  99.3206980   7.9714690 112.6557860 100.2684160  18.6887600 128.3043930
  99.7305250  19.4133660 127.9852630 100.5218120  18.2117940 127.5141270
 101.5209410   6.6572120 129.8299860 102.1109100   6.3487970 130.5177680
 100.7029650   6.1851870 129.9859760 106.3402840   6.2737930 130.0632880
 105.6518360   5.6119470 129.9982870 107.0608860   5.8276200 130.5081340
 106.9703240   2.8689560 116.1223140 107.2505530   2.0257460 116.4782560
 106.1968970   3.1012670 116.6361890  98.2897730   5.1581950 113.5814140
  98.5923630   5.1649380 112.6733290  99.0292320   4.8079810 114.0781800
 103.1246370  19.9238810 128.5630580 103.0505070  20.8273950 128.8702950
 102.2225210  19.6050710 128.5352650 101.5082660   4.1016570 114.5670340
 101.1604660   3.4240560 113.9872790 101.7095430   3.6406080 115.3813730
 103.6731700  19.0897320 116.1856940 104.5682490  19.4282290 116.2075700
 103.7049330  18.3676730 115.5581220  97.3127860  14.4624370 114.4143940
  97.7502730  15.0054040 115.0701520  97.7975590  13.6371320 114.4240280
  94.5273660  17.2513400 121.8664200  94.8576670  16.3834460 121.6342840
  94.9564660  17.4571920 122.6969160  99.1235580  15.5822410 119.5266170
  98.8231120  15.4587380 120.4270080  99.0173070  14.7231000 119.1181900
  95.0163870  18.1183990 124.6045830  94.5794860  18.2984790 125.4369980
  95.5841550  18.8758610 124.4627550 110.6526050  17.6200990 128.8923140
 110.0528040  17.6793550 128.1487060 110.7819950  16.6805970 129.0219990
 111.8927500  15.3618810 114.2292850 111.0620460  15.4295460 114.7000080
 112.0699330  16.2522930 113.9259710 111.3483960  12.1066290 116.7327050
 112.1102870  12.6762940 116.8386740 111.3638330  11.5393490 117.5035360
  94.8488300  10.6304220 120.9634710  94.1937140  10.3615860 120.3194410
  95.6866250  10.5208700 120.5136690 112.3543930  12.9616390 121.5768980
 112.7252760  12.1783710 121.1704950 112.9945860  13.6505490 121.3986280
 109.3377690  14.3452970 126.9899300 108.5237530  14.7750130 127.2525090
 109.7451890  14.9571380 126.3768350 111.4003130  12.4000660 113.8899570
 111.6751970  13.3079540 113.7618790 111.2113870  12.3363190 114.8261560
 107.7978740   5.4245510 115.1853200 108.2163620   5.2376490 114.3449860
 107.4914800   4.5724560 115.4956130 111.2968470  10.3369650 118.8829000
 110.9212070   9.5697580 118.4510290 110.5671590  10.7192350 119.3703930
  95.8864230  11.0156790 125.5038050  96.2537270  10.9284190 126.3834070
  95.3175050  10.2523340 125.4044910 110.6868090   9.4841170 128.5168520
 110.4554180   9.2553920 127.6166470 110.9472640  10.4040720 128.4713410
  95.4380230   7.9265880 129.4096470  94.5436280   7.8932640 129.7490180
  95.9777780   8.1252670 130.1747720 109.1256160   4.7097600 131.2948220
 110.0026340   4.7181000 131.6782220 109.1377000   3.9728440 130.6840570
  94.0626380   7.8403150 116.9060040  93.1590460   8.1033350 116.7311700
  94.5467000   8.1114320 116.1260000 110.5719430   8.5627140 122.1836240
 111.0956910   8.0689790 121.5526410 111.1578850   8.6977500 122.9283810
 110.7509150   8.6467010 125.7055790 109.8011860   8.6130550 125.8200780
 110.9322160   9.5567120 125.4705560  96.6053590   6.8968690 114.8154420
  97.3145290   6.4751910 114.3301700  95.8893530   6.9643920 114.1837770
  96.2527750   2.9508020 113.8557070  96.9755880   3.4916960 114.1738290
  96.5252270   2.6771440 112.9798610 110.0619400   7.8200490 118.1228650
 110.5578520   7.5871360 118.9077530 109.8635470   6.9812330 117.7066290
  95.9419940   2.2014210 123.7579690  96.5896130   1.6511590 123.3174850
  96.3621780   2.4557360 124.5795500 111.4906560   6.4561440 120.6566330
 111.3805840   6.3017480 121.5948600 112.2514150   5.9282380 120.4141740
 109.8372280   2.3955570 127.1149330 110.4744500   3.0089710 127.4808520
 109.9847170   2.4316230 126.1698560 112.3796830   4.2869360 113.8972470
 113.3046140   4.1550540 113.6890760 112.3572620   4.3662180 114.8508920
 112.4535320   5.0580020 116.5229180 111.6586820   4.9925140 117.0522090
 112.6578600   5.9930660 116.5114530 109.3953740  19.0971570 120.5167570
 109.9912810  18.7756140 119.8401990 109.6531890  18.6243390 121.3080840
  95.6951940   2.3569880 126.5005010  95.3466760   2.8133700 127.2663190
  95.3639640   1.4627010 126.5827440  97.3016310  15.5289480 130.6658200
  97.2585940  15.1582390 131.5472660  97.4327320  16.4667050 130.8060020
 101.0022340  17.0849070 126.2667920 100.7613700  17.3523630 125.3798440
 101.9424980  17.2554800 126.3218780 103.2076760   3.5481760 130.0224430
 103.1465650   4.1403590 130.7719840 104.1477140   3.4407720 129.8774690
 105.8451320   3.2051820 129.6616720 106.4591730   3.5231110 128.9997800
 106.3900880   2.7200410 130.2812580 112.2626500  19.1043450 127.0678560
 111.7684780  19.5012320 126.3505690 111.6539790  18.4792660 127.4615840
  97.1404340  18.4751730 127.7855980  96.5464660  18.3436430 128.5246020
  97.1328180  17.6389870 127.3198080 107.4931340   3.9754830 127.3727730
 107.1644700   3.1606590 126.9929460 108.4413640   3.9324640 127.2493420
 109.9465950  19.7466870 124.3465300 109.4868920  20.4982680 123.9723320
 109.3178410  19.0273340 124.2880100  96.7716570  15.8410110 126.7364020
  96.0450630  15.2215400 126.6689970  96.8325720  16.2350720 125.8662100
 100.3761670  18.0555110 123.5213430 100.8926690  17.4442470 122.9961690
 101.0259050  18.5583890 124.0124440 103.1157170  18.9463600 124.3482410
 103.4034980  18.6917900 123.4715420 103.6280390  18.3940960 124.9387980
 104.3334180   2.6853800 124.9278920 103.5505970   3.1599300 125.2075680
 104.0397110   1.7808630 124.8192100 108.8855250   3.3876900 122.9728010
 109.3263340   3.3322000 122.1249610 108.6162840   4.3034910 123.0438190
 110.7493820   3.0192140 120.9836830 110.6882220   2.0753360 120.8367850
 111.5285850   3.1272230 121.5290290  95.0546570  19.1584500 119.9460780
  94.8868610  18.5255180 120.6442670  94.1881080  19.3643900 119.5954970
  95.6774590   2.9901280 117.4492640  96.4353950   3.1030160 116.8756670
  95.2151760   3.8270480 117.4036070 102.2188400   5.1040550 120.4394950
 101.4062910   4.7297440 120.0990830 102.7230040   4.3485630 120.7416140
 106.7213380   1.7683000 121.6778020 107.3242750   2.3403210 122.1526540
 105.9806370   2.3322440 121.4551920 109.8647980   2.1704560 116.9518300
 110.0598610   3.0688010 117.2185730 109.0777850   1.9391640 117.4451250
  96.6609270  17.8517730 117.3910920  96.1356890  18.2325760 116.6872880
  96.5853850  18.4768500 118.1120630  98.0499740   3.5165330 115.9894610
  98.5792500   2.7295130 115.8602560  98.6828060   4.1956520 116.2230140
 100.2437580   3.2540470 119.0440000  99.6140320   2.5527780 119.2110130
  99.7042720   4.0144600 118.8273160 103.1829530  19.8679700 131.7150610
 104.1096840  19.6323970 131.7586570 103.1679960  20.6951700 131.2336640
 111.4174590  19.4105270 118.7124860 111.5926780  18.7243010 118.0685780
 110.7196160  19.9352320 118.3201530 100.3693140   2.5324450 131.4792490
 100.0877410   3.0358050 130.7153310 100.7512840   1.7346200 131.1134620
  99.2602240  19.8000110 116.2660170  99.9921060  19.5159390 115.7184060
  99.5195910  19.5613390 117.1559550  98.4217030  15.9164840 116.2706500
  97.7925910  16.3849940 116.8192330  98.5364860  15.0714060 116.7052690
 106.9708600   1.9478030 132.0572960 106.8574050   2.2672640 132.9524480
 107.7878340   2.3490540 131.7610240 109.7507090  19.0949560 131.5391650
 110.5432410  18.5998790 131.3317610 110.0440240  19.7739700 132.1467260
 105.8766750   9.9670500 102.4207700 105.7960800   9.0525110 102.1499410
 105.4631170  10.4637570 101.7147410 104.0084790  11.7449520 104.3016970
 103.2326890  11.2649960 104.5915540 104.6597720  11.0655170 104.1273130
  98.0250620  12.0569330 105.1792730  97.1935500  11.8018040 105.5789240
  98.6331600  12.1280100 105.9150650 108.0292220  16.1509710 103.0816100
 107.5673750  15.3796950 103.4103270 108.8417770  16.1775780 103.5868550
  98.0051880  16.0909420 105.3750750  98.3079920  15.2007160 105.1960970
  98.7495470  16.6479640 105.1473000  96.4342570   7.0171220  98.9635120
  95.5459270   7.3587190  98.8615000  96.7183760   6.8171540  98.0715950
  94.3975580   9.6176870 104.8474820  94.9691690   8.8499070 104.8478460
  94.3977120   9.9165630 103.9381430 104.2555530  18.4367720 102.7020090
 103.6366970  18.8925220 102.1314530 105.1107310  18.5919180 102.3009790
 103.4493780  14.4206710 104.3087130 103.3802060  13.4796650 104.1476260
 104.2113640  14.5108120 104.8809700  95.6400450   5.0261230 106.6343750
  95.4603290   4.1286980 106.9146510  95.2380530   5.5733100 107.3090700
 104.4798950   7.2277090 104.5356060 104.8563770   6.3548970 104.4229730
 104.3818460   7.5635790 103.6446500  98.6103960   5.6002720  99.9973500
  98.7170710   6.5006450 100.3042260  97.6996320   5.5520690  99.7068150
 108.2623070   4.7227530 101.4684400 109.0832690   4.2324100 101.5109880
 108.2957150   5.3125190 102.2216240  96.2587120   7.5221730 105.2426090
  96.9397230   7.7860100 105.8613490  95.9435170   6.6822600 105.5764100
 100.4511690   8.5689090 104.3298680 100.9589910   9.0670060 104.9703700
 100.9824930   7.7924290 104.1538040 112.5522620   6.7394280 108.0328030
 111.8474790   7.1275990 107.5143140 112.8180540   7.4344570 108.6348960
  98.7347790   3.2087650 108.5962100  98.7366230   3.7260040 107.7908000
  97.9052100   2.7317830 108.5732030 105.1218880  13.3206960 100.0952000
 104.5036150  13.7856410  99.5314720 105.6342130  14.0134440 100.5121510
  99.9850640  12.8482830 106.7735600  99.6520020  13.4751750 107.4156670
 100.1617320  13.3744710 105.9937270 108.4984550   6.6627910 104.2411940
 107.7940120   6.9512800 104.8215050 108.8596710   7.4728020 103.8811500
  98.4163120   4.9197610 106.6032550  98.7579930   5.7639660 106.3086420
  97.4778930   5.0681350 106.7197890  99.1969740  14.8163630 108.5884780
  99.8143740  15.4914710 108.3069230  98.3362860  15.2251610 108.4972280
  94.4902080  14.0063490  97.4691630  94.1130060  14.4950590  96.7376530
  94.7475150  14.6788770  98.0998160 110.1147330  16.2803040 106.5039420
 109.4310850  16.9502150 106.4956090 110.6541620  16.4783690 105.7384280
 111.5671470   6.1082700 104.6321150 110.6196380   6.1421680 104.7636580
 111.8921460   6.9221650 105.0170510 102.0991010   2.4079880 102.9277140
 102.4065990   1.8526770 102.2112640 101.1691710   2.5424340 102.7450130
 107.6506070  18.1247170 105.2184600 107.6633230  17.7209460 104.3506860
 107.0981290  18.8994460 105.1146030 108.9451490  14.8463390 100.3074770
 108.8347820  13.9037720 100.4324190 108.9419740  15.2079030 101.1937530
 107.0491510  13.0277010 106.5467210 107.4660300  12.8137120 105.7120670
 107.7731330  13.2849800 107.1175830 104.4871770  10.4728710  99.6637260
 103.5601050  10.4066090  99.8925730 104.6396590  11.4108840  99.5492500
 104.4740850   6.7445710  96.6604420 103.5344520   6.9059670  96.7456880
 104.7924110   7.4631390  96.1140410 110.9953610  11.4264230 106.6383450
 110.1672240  11.4957320 106.1633580 111.5904090  12.0118540 106.1699280
 108.5169060  12.0349010 100.1672510 107.8981480  11.6968560  99.5198810
 108.4993510  11.3908770 100.8751700 107.9595620   8.2133550 107.5838320
 107.5466800   9.0387260 107.8378310 107.2271570   7.6278590 107.3914680
 100.0928410  10.9993450 102.4456990  99.6885410  10.2870700 101.9502890
 100.1791530  10.6546690 103.3345030 100.5610110  14.6861010 104.6096200
 100.2638400  14.0806480 103.9303980 101.5109930  14.7238320 104.4985560
  98.8057030   7.7736660 106.2256030  99.3571620   7.8832000 105.4509280
  99.3200540   8.1474260 106.9411260 108.6495720  18.2592880 108.2719300
 108.1726280  19.0665070 108.0791910 107.9657510  17.6071210 108.4245510
  99.6528540  14.4242700 111.2604000  98.7557070  14.6482670 111.5077400
  99.6781410  14.5477640 110.3115400 106.6933760  11.2735820  97.1745260
 107.1327040  10.4358250  97.0283080 107.4062180  11.9065220  97.2609400
  98.4799760  11.2956020 109.8361370  98.3407530  12.1678820 110.2048770
  97.5981120  10.9528830 109.6909310 104.8029140  16.2131890 101.1426500
 105.2425050  16.9556220 100.7281890 104.7416030  16.4558460 102.0665460
 100.2780110  17.2377720 112.0446520 100.2495540  17.6420670 111.1774950
 100.1145080  16.3088080 111.8818120 110.2750900   2.5278630  95.4886300
 109.9623560   2.6205460  96.3885370 111.0363370   3.1059660  95.4383730
  96.7933040   9.8938430  99.9463640  96.6730640  10.6200520  99.3344910
  96.4833930   9.1241340  99.4691550 112.2294930  18.0204820 113.3410690
 112.7054650  18.4987710 114.0199770 112.8502090  17.9522310 112.6156190
  94.4318410  13.0653570 105.7532280  94.5098830  13.2002340 104.8088000
  95.0460090  12.3569460 105.9460400  95.6766040  14.7653760 102.1638460
  95.2694120  14.9068350 101.3092060  96.5679050  14.4813920 101.9609670
 111.6328180  15.2117670 110.5010700 111.7591240  14.9729550 109.5827880
 111.6749560  14.3802210 110.9732780 105.4944920  18.9145670 109.0705510
 106.0089590  18.8253680 109.8727940 104.6514000  19.2605370 109.3633420
 107.4699320  19.2001010  98.4989510 107.3100460  18.9103950  99.3971340
 107.3046030  18.4241140  97.9634740  99.9487700  18.9799540 100.2761130
  99.7730180  18.0635080 100.0628930  99.0943440  19.3386830 100.5158930
 107.1725450  16.7088570  97.0587510 106.4790610  16.7065860  96.3989790
 107.9148310  16.2847890  96.6281680 106.7375380  18.3351280 101.1336000
 107.1932330  17.5540660 101.4474620 107.0767900  19.0458100 101.6777180
 111.4852190   7.2650130 111.4660440 110.8696460   7.7729800 110.9375900
 111.1648610   6.3648460 111.4086380  94.4877930  14.1067740 108.2926740
  94.6508970  13.6373100 107.4746110  94.9530380  13.5991300 108.9575580
  99.2596700   3.2373500 103.3287310  98.8164850   4.0183040 102.9971830
  99.8181690   3.5603390 104.0358250 103.5466510   6.1042020 108.9322630
 103.0845880   6.3125040 109.7442570 103.1444620   5.2901370 108.6293300
 108.5471020   7.3250970 110.0619290 107.6964610   7.0256720 110.3828360
 108.3872810   7.5692980 109.1503110 105.6420730   8.8252720 112.1618080
 105.9674140   7.9916470 111.8220310 106.4301060   9.3481240 112.3096410
 102.3755520   2.8584200  98.2093140 101.7509700   2.8544070  98.9346450
 102.2885640   1.9915160  97.8129110 101.2972600   3.7820830 105.1876910
 101.5944930   4.6883660 105.1068930 101.8458160   3.2939610 104.5736480
  99.0510920   8.3607070 101.0568560  98.8251840   8.1444240 101.9615180
  98.2703450   8.7935530 100.7114530 106.2808680   8.3670440  99.6559210
 105.6817570   9.0906240  99.4722830 106.8288290   8.3047220  98.8735660
 101.4910130   9.2592650 111.7228830 101.3953730   8.3187380 111.5729230
 102.3342110   9.4807720 111.3276900 104.8873550   7.0033980 101.6862490
 105.2803120   7.3206180 100.8731180 105.2490400   6.1245860 101.8007010
  96.6220670   5.6706320 109.8762610  96.2284060   6.5181530 110.0835390
  95.9339070   5.0332690 110.0671250 103.1965720   5.7541290 112.9459350
 102.5064040   5.5613490 113.5805440 103.9398020   6.0375930 113.4783650
  93.9237720   3.5934780 103.9092690  93.6350770   4.1637640 104.6217670
  94.6683480   3.1139230 104.2723920  94.1107950   7.5354900  95.1195410
  94.0282620   8.4785660  95.2610400  93.7591010   7.3929810  94.2407760
 105.4728690   9.5939730 105.7813270 104.7409810  10.1026540 106.1303370
 105.0753030   8.7769710 105.4802050 101.9106080   6.2693930 104.1865760
 101.9142140   5.8283880 103.3370300 102.8057200   6.5911260 104.2937580
  97.7608460   6.1520420 103.1459970  97.4208510   6.6295650 103.9027020
  96.9985780   5.6985540 102.7861070 101.9726230   7.2706010  97.1772520
 102.0939050   7.2292490  98.1258340 101.5874740   8.1330160  97.0219250
 105.9354600   5.0473410 105.1936210 105.9527340   5.4982060 106.0378060
 105.6870180   4.1479050 105.4069650 100.9847730   9.5807150  96.5755820
 100.4164630   9.1325400  95.9491730 101.6936730   9.9399930  96.0420970
 109.3625350   2.4605590 111.0322590 109.6871120   1.7295250 111.5580570
 109.3981860   2.1419230 110.1303580  96.0616910  13.4819170 110.4522550
  95.6771700  12.8412840 111.0505510  96.3729100  14.1855290 111.0217280
 102.2114050  10.3295710 105.9331170 102.5784180   9.8554280 106.6792510
 102.0219110  11.2037280 106.2739510  95.0754540   5.0739400 102.0624640
  94.7901460   4.7095070 102.9003260  95.0133400   4.3419860 101.4487780
 100.0013420   9.3704350 108.2515380  99.6970490  10.2496330 108.4765740
 100.9559880   9.4304140 108.2872820  98.5295210  13.5765340  98.8482230
  97.7557470  13.0362960  98.6880950  99.2589840  13.0571950  98.5099990
 109.2883190  12.5730700 104.6408620 110.0082310  13.0685990 104.2504730
 109.0865010  11.8948590 103.9962490 104.7493130   3.9668660  98.7838010
 103.9357740   3.4681830  98.7083320 104.5555080   4.8066910  98.3674360
 104.6701990  12.6439760 110.5277620 104.6039300  11.7235430 110.2735210
 104.0407130  12.7415200 111.2422260 107.4641520   8.3388310  97.0800170
 108.3521140   8.6505540  96.9051510 107.4346610   7.4660560  96.6880750
  98.5732610  13.2445720 102.4861040  99.0911280  12.4413980 102.4317930
  98.1216630  13.1824860 103.3277870 103.4602110  14.5112000  97.7588340
 103.8017810  15.2554230  97.2631660 102.6314820  14.8243120  98.1213170
  96.0577150  10.2107090 109.3986740  95.6992090  10.8760940 109.9860080
  95.7631710   9.3790640 109.7699360  99.2590270  10.6691330 112.2826290
  98.9590410  10.8148510 111.3854110 100.0301510  10.1096620 112.1899680
 104.6018720  15.4660330 110.2781420 104.6163260  14.5341290 110.0600330
 103.8943820  15.5520090 110.9171190 109.7355790   9.6500150  96.5480030
 109.6519510  10.0814370  95.6976470 110.4549980  10.1098500  96.9806850
 110.8129930  12.1067670 109.6250000 110.0878120  12.6996450 109.4279390
 111.3405390  12.0991210 108.8263370 110.7643040  16.5042410  99.2762160
 110.1219200  15.8498030  99.5505880 110.3773700  16.9097500  98.5002830
 106.3429520  13.8327840 103.1233850 106.6953340  13.2355970 102.4635220
 105.4591850  13.5072070 103.2942100 102.4292800  14.5925530 100.5304260
 103.1163930  15.1394740 100.9111850 101.6425220  15.1366260 100.5653870
  94.5685200  10.2098350  96.0221340  95.4380050  10.4923150  96.3057260
  94.0775520  11.0234220  95.9070150 101.7320010  11.5971560 100.1429620
 102.1882790  12.4076810 100.3689810 101.3808220  11.2794700 100.9748110
 104.0352620  17.1077900 107.3721920 104.6794840  17.3137280 108.0495340
 104.3982060  16.3466300 106.9192770  97.6331790   1.9409210 100.6152140
  97.5046420   1.9327110 101.5637060  96.8093810   2.2792300 100.2643150
 105.3084700  15.1110250 106.0899370 105.9506930  14.4103410 106.2031540
 105.8334050  15.8908690 105.9096260 109.1540420  15.3958870  95.8138510
 108.9278000  14.6789310  96.4063150 108.7636620  15.1471310  94.9760260
 107.0822320  15.9105150 109.2935430 107.4178560  16.4971840 109.9713350
 106.1622660  15.7797860 109.5233220  94.9356450  19.4225730  96.5882970
  95.2954090  20.0215070  95.9340240  94.7948790  19.9685620  97.3618000
  94.6325720   3.7000330 110.0758840  93.9184240   3.8997250 110.6811450
  95.0520760   2.9239900 110.4473640 108.7356670  13.3130810  97.4752670
 108.4478370  13.7743500  98.2630550 109.5308840  12.8528580  97.7436890
  94.9198310  17.6880590 111.0625370  95.0289430  16.7475330 110.9220760
  94.2678870  17.9535340 110.4139100 102.9110900  15.9596480 112.4623490
 102.5907770  15.2405720 113.0069180 102.2369260  16.6351550 112.5359550
 100.9525070  16.8056930  97.4056640 100.9435170  17.5386620  96.7901150
 100.0323430  16.5588510  97.4983600  96.5531710  12.0271820  98.1503400
  95.9459660  12.7670720  98.1598700  97.0281060  12.1171180  97.3241600
 106.1264500   6.1922640 107.8260290 106.4945320   5.3717850 108.1539860
 105.2662700   6.2524530 108.2415940 109.4926530   5.1479580  98.6347850
 108.8639690   5.2525250  97.9206080 108.9978450   5.3676360  99.4241730
 103.9384670  16.8685170  96.0681830 104.0396650  16.6649160  95.1383810
 103.0386410  16.6143450  96.2729610 101.4610560   7.4265530 100.0505730
 100.7526710   7.8951870 100.4919340 101.7455040   6.7687540 100.6850920
 103.0866490   8.8462230 108.0498260 103.5851740   9.3208050 108.7150110
 103.2289440   7.9225750 108.2568290 105.4925990   4.1516190 101.4901520
 105.3693770   4.1702320 100.5411030 106.4410550   4.1995130 101.6099920
 102.5802780  19.3871490 100.7629500 102.8344280  19.3492880  99.8408870
 101.6315260  19.2604820 100.7557750  99.6645580   5.7350610  97.4256440
 100.5136110   6.1720760  97.3596630  99.2976850   6.0470870  98.2528500
 110.2933350   5.0630190 108.8926650 109.7906950   5.8035590 109.2320460
 111.1090010   5.4514190 108.5763440 108.5855360  10.3063370 102.3388010
 107.6445500  10.3213600 102.5135700 108.8999430   9.5199330 102.7848310
  98.5637000  11.9882970  95.8991970  99.3300270  11.8764330  96.4617400
  98.6411690  11.2920940  95.2468740  97.2583760   9.4208040  96.5824860
  97.3387350   8.4735550  96.6942260  98.1503510   9.7514920  96.6885520
 110.5880940  17.4772220 104.0142270 110.7128360  18.3003390 104.4866080
 111.4546500  17.2662950 103.6666420  98.0598470  19.5703430 103.6859400
  98.7960950  19.0218890 103.9567970  98.4439390  20.4359440 103.5465390
  94.9443950  15.6377000  99.5600910  94.0183730  15.8798140  99.5506320
  95.4100380  16.4651260  99.4385660  97.0656750  18.7549500 112.8744980
  97.8669480  19.0761550 113.2880380  96.5508570  18.3945080 113.5964890
 101.1700780  18.7433740  95.5084970 101.9629390  19.0322570  95.0566760
 100.6505130  18.3125910  94.8297450 105.9021380  14.8629370 112.8220390
 105.2959540  14.8860970 112.0816140 105.5975490  14.1312410 113.3587640
 107.3321750  18.5909660 111.4329800 108.2843500  18.5067680 111.3830040
 107.1849970  19.2551370 112.1063590 110.2230950  17.9703870  96.9321710
 109.9372460  17.5569010  96.1175890 110.0250500  18.8991580  96.8122230
  94.7854560  11.2422960 111.8181030  95.2893580  10.6630240 112.3897260
  94.0461980  11.5263190 112.3557400 101.6878180  13.9637150  95.3727320
 101.5828820  13.3489500  96.0988700 101.5202400  13.4403040  94.5890330
 101.8392500  12.6493950 111.3516550 101.0738170  13.2178950 111.2671220
 102.0208460  12.3570160 110.4584780 104.9280910  13.0257180  95.9769310
 104.3791010  13.4726480  96.6212050 105.5500170  12.5206430  96.5006980
 108.9815850  14.3799280 111.9091570 109.7225320  14.7175040 111.4059030
 108.2188530  14.5491340 111.3561340  96.8177640   9.3852550 112.7131100
  96.8582980   9.0866420 113.6216330  97.6723140   9.7860160 112.5538620
 100.5956030  11.9848100  97.8734610 101.0172450  11.8187970  98.7166000
 100.7206870  11.1748330  97.3789750  98.7583450   7.9644650 110.6805590
  98.2279910   7.4735600 110.0528930  99.4271520   8.3928850 110.1463520
 103.1083670  11.0085710  95.1211710 103.6289330  10.2934730  94.7552860
 103.7552070  11.6471580  95.4212220 107.6561510  12.4314110 110.4446780
 108.0702530  12.5859190 111.2937200 106.7212510  12.5569330 110.6072560
 108.1283680   9.7710270 112.4485930 108.7104450   9.0162590 112.3606410
 108.3045450  10.3017710 111.6717410  99.2455750   4.9307020 110.7602880
  99.1512620   4.3127770 110.0353750  98.6653140   5.6573310 110.5332790
 102.0117190   3.4880260 107.7930270 101.5634490   3.5104520 106.9475820
 101.3782390   3.0899280 108.3900570 102.4176740  12.3834590 108.4142710
 102.8364850  13.2267320 108.2418950 101.4985370  12.5206630 108.1849490
 104.7540640  10.1150770 109.7980550 104.8736850   9.5191910 110.5375390
 105.6134640  10.1520460 109.3781850 107.0928540  10.6687960 108.3743060
 106.5663760  11.1930580 107.7708200 107.4359880  11.3015350 109.0052790
  99.4914930   8.0581330  94.8192770  99.2903990   7.1948690  95.1806110
  99.3206980   7.9714690  93.8814370 100.2684160  18.6887600 109.5300440
  99.7305250  19.4133660 109.2109140 100.5218120  18.2117940 108.7397780
 101.5209410   6.6572120 111.0556370 102.1109100   6.3487970 111.7434190
 100.7029650   6.1851870 111.2116270 106.3402840   6.2737930 111.2889390
 105.6518360   5.6119470 111.2239380 107.0608860   5.8276200 111.7337850
 106.9703240   2.8689560  97.3479650 107.2505530   2.0257460  97.7039070
 106.1968970   3.1012670  97.8618400  98.2897730   5.1581950  94.8070650
  98.5923630   5.1649380  93.8989800  99.0292320   4.8079810  95.3038310
 103.1246370  19.9238810 109.7887090 103.0505070  20.8273950 110.0959460
 102.2225210  19.6050710 109.7609160 101.5082660   4.1016570  95.7926850
 101.1604660   3.4240560  95.2129300 101.7095430   3.6406080  96.6070240
 103.6731700  19.0897320  97.4113450 104.5682490  19.4282290  97.4332210
 103.7049330  18.3676730  96.7837730  97.3127860  14.4624370  95.6400450
  97.7502730  15.0054040  96.2958030  97.7975590  13.6371320  95.6496790
  94.5273660  17.2513400 103.0920710  94.8576670  16.3834460 102.8599350
  94.9564660  17.4571920 103.9225670  99.1235580  15.5822410 100.7522680
  98.8231120  15.4587380 101.6526590  99.0173070  14.7231000 100.3438410
  95.0163870  18.1183990 105.8302340  94.5794860  18.2984790 106.6626490
  95.5841550  18.8758610 105.6884060 110.6526050  17.6200990 110.1179650
 110.0528040  17.6793550 109.3743570 110.7819950  16.6805970 110.2476500
 111.8927500  15.3618810  95.4549360 111.0620460  15.4295460  95.9256590
 112.0699330  16.2522930  95.1516220 111.3483960  12.1066290  97.9583560
 112.1102870  12.6762940  98.0643250 111.3638330  11.5393490  98.7291870
  94.8488300  10.6304220 102.1891220  94.1937140  10.3615860 101.5450920
  95.6866250  10.5208700 101.7393200 112.3543930  12.9616390 102.8025490
 112.7252760  12.1783710 102.3961460 112.9945860  13.6505490 102.6242790
 109.3377690  14.3452970 108.2155810 108.5237530  14.7750130 108.4781600
 109.7451890  14.9571380 107.6024860 111.4003130  12.4000660  95.1156080
 111.6751970  13.3079540  94.9875300 111.2113870  12.3363190  96.0518070
 107.7978740   5.4245510  96.4109710 108.2163620   5.2376490  95.5706370
 107.4914800   4.5724560  96.7212640 111.2968470  10.3369650 100.1085510
 110.9212070   9.5697580  99.6766800 110.5671590  10.7192350 100.5960440
  95.8864230  11.0156790 106.7294560  96.2537270  10.9284190 107.6090580
  95.3175050  10.2523340 106.6301420 110.6868090   9.4841170 109.7425030
 110.4554180   9.2553920 108.8422980 110.9472640  10.4040720 109.6969920
  95.4380230   7.9265880 110.6352980  94.5436280   7.8932640 110.9746690
  95.9777780   8.1252670 111.4004230 109.1256160   4.7097600 112.5204730
 110.0026340   4.7181000 112.9038730 109.1377000   3.9728440 111.9097080
  94.0626380   7.8403150  98.1316550  93.1590460   8.1033350  97.9568210
  94.5467000   8.1114320  97.3516510 110.5719430   8.5627140 103.4092750
 111.0956910   8.0689790 102.7782920 111.1578850   8.6977500 104.1540320
 110.7509150   8.6467010 106.9312300 109.8011860   8.6130550 107.0457290
 110.9322160   9.5567120 106.6962070  96.6053590   6.8968690  96.0410930
  97.3145290   6.4751910  95.5558210  95.8893530   6.9643920  95.4094280
  96.2527750   2.9508020  95.0813580  96.9755880   3.4916960  95.3994800
  96.5252270   2.6771440  94.2055120 110.0619400   7.8200490  99.3485160
 110.5578520   7.5871360 100.1334040 109.8635470   6.9812330  98.9322800
  95.9419940   2.2014210 104.9836200  96.5896130   1.6511590 104.5431360
  96.3621780   2.4557360 105.8052010 111.4906560   6.4561440 101.8822840
 111.3805840   6.3017480 102.8205110 112.2514150   5.9282380 101.6398250
 109.8372280   2.3955570 108.3405840 110.4744500   3.0089710 108.7065030
 109.9847170   2.4316230 107.3955070 112.3796830   4.2869360  95.1228980
 113.3046140   4.1550540  94.9147270 112.3572620   4.3662180  96.0765430
 112.4535320   5.0580020  97.7485690 111.6586820   4.9925140  98.2778600
 112.6578600   5.9930660  97.7371040 109.3953740  19.0971570 101.7424080
 109.9912810  18.7756140 101.0658500 109.6531890  18.6243390 102.5337350
  95.6951940   2.3569880 107.7261520  95.3466760   2.8133700 108.4919700
  95.3639640   1.4627010 107.8083950  97.3016310  15.5289480 111.8914710
  97.2585940  15.1582390 112.7729170  97.4327320  16.4667050 112.0316530
 101.0022340  17.0849070 107.4924430 100.7613700  17.3523630 106.6054950
 101.9424980  17.2554800 107.5475290 103.2076760   3.5481760 111.2480940
 103.1465650   4.1403590 111.9976350 104.1477140   3.4407720 111.1031200
 105.8451320   3.2051820 110.8873230 106.4591730   3.5231110 110.2254310
 106.3900880   2.7200410 111.5069090 112.2626500  19.1043450 108.2935070
 111.7684780  19.5012320 107.5762200 111.6539790  18.4792660 108.6872350
  97.1404340  18.4751730 109.0112490  96.5464660  18.3436430 109.7502530
  97.1328180  17.6389870 108.5454590 107.4931340   3.9754830 108.5984240
 107.1644700   3.1606590 108.2185970 108.4413640   3.9324640 108.4749930
 109.9465950  19.7466870 105.5721810 109.4868920  20.4982680 105.1979830
 109.3178410  19.0273340 105.5136610  96.7716570  15.8410110 107.9620530
  96.0450630  15.2215400 107.8946480  96.8325720  16.2350720 107.0918610
 100.3761670  18.0555110 104.7469940 100.8926690  17.4442470 104.2218200
 101.0259050  18.5583890 105.2380950 103.1157170  18.9463600 105.5738920
 103.4034980  18.6917900 104.6971930 103.6280390  18.3940960 106.1644490
 104.3334180   2.6853800 106.1535430 103.5505970   3.1599300 106.4332190
 104.0397110   1.7808630 106.0448610 108.8855250   3.3876900 104.1984520
 109.3263340   3.3322000 103.3506120 108.6162840   4.3034910 104.2694700
 110.7493820   3.0192140 102.2093340 110.6882220   2.0753360 102.0624360
 111.5285850   3.1272230 102.7546800  95.0546570  19.1584500 101.1717290
  94.8868610  18.5255180 101.8699180  94.1881080  19.3643900 100.8211480
  95.6774590   2.9901280  98.6749150  96.4353950   3.1030160  98.1013180
  95.2151760   3.8270480  98.6292580 102.2188400   5.1040550 101.6651460
 101.4062910   4.7297440 101.3247340 102.7230040   4.3485630 101.9672650
 106.7213380   1.7683000 102.9034530 107.3242750   2.3403210 103.3783050
 105.9806370   2.3322440 102.6808430 109.8647980   2.1704560  98.1774810
 110.0598610   3.0688010  98.4442240 109.0777850   1.9391640  98.6707760
  96.6609270  17.8517730  98.6167430  96.1356890  18.2325760  97.9129390
  96.5853850  18.4768500  99.3377140  98.0499740   3.5165330  97.2151120
  98.5792500   2.7295130  97.0859070  98.6828060   4.1956520  97.4486650
 100.2437580   3.2540470 100.2696510  99.6140320   2.5527780 100.4366640
  99.7042720   4.0144600 100.0529670 103.1829530  19.8679700 112.9407120
 104.1096840  19.6323970 112.9843080 103.1679960  20.6951700 112.4593150
 111.4174590  19.4105270  99.9381370 111.5926780  18.7243010  99.2942290
 110.7196160  19.9352320  99.5458040 100.3693140   2.5324450 112.7049000
 100.0877410   3.0358050 111.9409820 100.7512840   1.7346200 112.3391130
  99.2602240  19.8000110  97.4916680  99.9921060  19.5159390  96.9440570
  99.5195910  19.5613390  98.3816060  98.4217030  15.9164840  97.4963010
  97.7925910  16.3849940  98.0448840  98.5364860  15.0714060  97.9309200
 106.9708600   1.9478030 113.2829470 106.8574050   2.2672640 114.1780990
 107.7878340   2.3490540 112.9866750 109.7507090  19.0949560 112.7648160
 110.5432410  18.5998790 112.5574120 110.0440240  19.7739700 113.3723770
 105.8766750   9.9670500  83.6464210 105.7960800   9.0525110  83.3755920
 105.4631170  10.4637570  82.9403920 104.0084790  11.7449520  85.5273480
 103.2326890  11.2649960  85.8172050 104.6597720  11.0655170  85.3529640
  98.0250620  12.0569330  86.4049240  97.1935500  11.8018040  86.8045750
  98.6331600  12.1280100  87.1407160 108.0292220  16.1509710  84.3072610
 107.5673750  15.3796950  84.6359780 108.8417770  16.1775780  84.8125060
  98.0051880  16.0909420  86.6007260  98.3079920  15.2007160  86.4217480
  98.7495470  16.6479640  86.3729510  96.4342570   7.0171220  80.1891630
  95.5459270   7.3587190  80.0871510  96.7183760   6.8171540  79.2972460
  94.3975580   9.6176870  86.0731330  94.9691690   8.8499070  86.0734970
  94.3977120   9.9165630  85.1637940 104.2555530  18.4367720  83.9276600
 103.6366970  18.8925220  83.3571040 105.1107310  18.5919180  83.5266300
 103.4493780  14.4206710  85.5343640 103.3802060  13.4796650  85.3732770
 104.2113640  14.5108120  86.1066210  95.6400450   5.0261230  87.8600260
  95.4603290   4.1286980  88.1403020  95.2380530   5.5733100  88.5347210
 104.4798950   7.2277090  85.7612570 104.8563770   6.3548970  85.6486240
 104.3818460   7.5635790  84.8703010  98.6103960   5.6002720  81.2230010
  98.7170710   6.5006450  81.5298770  97.6996320   5.5520690  80.9324660
 108.2623070   4.7227530  82.6940910 109.0832690   4.2324100  82.7366390
 108.2957150   5.3125190  83.4472750  96.2587120   7.5221730  86.4682600
  96.9397230   7.7860100  87.0870000  95.9435170   6.6822600  86.8020610
 100.4511690   8.5689090  85.5555190 100.9589910   9.0670060  86.1960210
 100.9824930   7.7924290  85.3794550 112.5522620   6.7394280  89.2584540
 111.8474790   7.1275990  88.7399650 112.8180540   7.4344570  89.8605470
  98.7347790   3.2087650  89.8218610  98.7366230   3.7260040  89.0164510
  97.9052100   2.7317830  89.7988540 105.1218880  13.3206960  81.3208510
 104.5036150  13.7856410  80.7571230 105.6342130  14.0134440  81.7378020
  99.9850640  12.8482830  87.9992110  99.6520020  13.4751750  88.6413180
 100.1617320  13.3744710  87.2193780 108.4984550   6.6627910  85.4668450
 107.7940120   6.9512800  86.0471560 108.8596710   7.4728020  85.1068010
  98.4163120   4.9197610  87.8289060  98.7579930   5.7639660  87.5342930
  97.4778930   5.0681350  87.9454400  99.1969740  14.8163630  89.8141290
  99.8143740  15.4914710  89.5325740  98.3362860  15.2251610  89.7228790
 110.1147330  16.2803040  87.7295930 109.4310850  16.9502150  87.7212600
 110.6541620  16.4783690  86.9640790 111.5671470   6.1082700  85.8577660
 110.6196380   6.1421680  85.9893090 111.8921460   6.9221650  86.2427020
 102.0991010   2.4079880  84.1533650 102.4065990   1.8526770  83.4369150
 101.1691710   2.5424340  83.9706640 107.6506070  18.1247170  86.4441110
 107.6633230  17.7209460  85.5763370 107.0981290  18.8994460  86.3402540
 108.9451490  14.8463390  81.5331280 108.8347820  13.9037720  81.6580700
 108.9419740  15.2079030  82.4194040 107.0491510  13.0277010  87.7723720
 107.4660300  12.8137120  86.9377180 107.7731330  13.2849800  88.3432340
 104.4871770  10.4728710  80.8893770 103.5601050  10.4066090  81.1182240
 104.6396590  11.4108840  80.7749010 104.4740850   6.7445710  77.8860930
 103.5344520   6.9059670  77.9713390 104.7924110   7.4631390  77.3396920
 110.9953610  11.4264230  87.8639960 110.1672240  11.4957320  87.3890090
 111.5904090  12.0118540  87.3955790 108.5169060  12.0349010  81.3929020
 107.8981480  11.6968560  80.7455320 108.4993510  11.3908770  82.1008210
 107.9595620   8.2133550  88.8094830 107.5466800   9.0387260  89.0634820
 107.2271570   7.6278590  88.6171190 100.0928410  10.9993450  83.6713500
  99.6885410  10.2870700  83.1759400 100.1791530  10.6546690  84.5601540
 100.5610110  14.6861010  85.8352710 100.2638400  14.0806480  85.1560490
 101.5109930  14.7238320  85.7242070  98.8057030   7.7736660  87.4512540
  99.3571620   7.8832000  86.6765790  99.3200540   8.1474260  88.1667770
 108.6495720  18.2592880  89.4975810 108.1726280  19.0665070  89.3048420
 107.9657510  17.6071210  89.6502020  99.6528540  14.4242700  92.4860510
  98.7557070  14.6482670  92.7333910  99.6781410  14.5477640  91.5371910
 106.6933760  11.2735820  78.4001770 107.1327040  10.4358250  78.2539590
 107.4062180  11.9065220  78.4865910  98.4799760  11.2956020  91.0617880
  98.3407530  12.1678820  91.4305280  97.5981120  10.9528830  90.9165820
 104.8029140  16.2131890  82.3683010 105.2425050  16.9556220  81.9538400
 104.7416030  16.4558460  83.2921970 100.2780110  17.2377720  93.2703030
 100.2495540  17.6420670  92.4031460 100.1145080  16.3088080  93.1074630
 110.2750900   2.5278630  76.7142810 109.9623560   2.6205460  77.6141880
 111.0363370   3.1059660  76.6640240  96.7933040   9.8938430  81.1720150
  96.6730640  10.6200520  80.5601420  96.4833930   9.1241340  80.6948060
 112.2294930  18.0204820  94.5667200 112.7054650  18.4987710  95.2456280
 112.8502090  17.9522310  93.8412700  94.4318410  13.0653570  86.9788790
  94.5098830  13.2002340  86.0344510  95.0460090  12.3569460  87.1716910
 111.6328180  15.2117670  91.7267210 111.7591240  14.9729550  90.8084390
 111.6749560  14.3802210  92.1989290 105.4944920  18.9145670  90.2962020
 106.0089590  18.8253680  91.0984450 104.6514000  19.2605370  90.5889930
 107.4699320  19.2001010  79.7246020 107.3100460  18.9103950  80.6227850
 107.3046030  18.4241140  79.1891250  99.9487700  18.9799540  81.5017640
  99.7730180  18.0635080  81.2885440  99.0943440  19.3386830  81.7415440
 107.1725450  16.7088570  78.2844020 106.4790610  16.7065860  77.6246300
 107.9148310  16.2847890  77.8538190 106.7375380  18.3351280  82.3592510
 107.1932330  17.5540660  82.6731130 107.0767900  19.0458100  82.9033690
 111.4852190   7.2650130  92.6916950 110.8696460   7.7729800  92.1632410
 111.1648610   6.3648460  92.6342890  94.4877930  14.1067740  89.5183250
  94.6508970  13.6373100  88.7002620  94.9530380  13.5991300  90.1832090
  99.2596700   3.2373500  84.5543820  98.8164850   4.0183040  84.2228340
  99.8181690   3.5603390  85.2614760 103.5466510   6.1042020  90.1579140
 103.0845880   6.3125040  90.9699080 103.1444620   5.2901370  89.8549810
 108.5471020   7.3250970  91.2875800 107.6964610   7.0256720  91.6084870
 108.3872810   7.5692980  90.3759620 105.6420730   8.8252720  93.3874590
 105.9674140   7.9916470  93.0476820 106.4301060   9.3481240  93.5352920
 102.3755520   2.8584200  79.4349650 101.7509700   2.8544070  80.1602960
 102.2885640   1.9915160  79.0385620 101.2972600   3.7820830  86.4133420
 101.5944930   4.6883660  86.3325440 101.8458160   3.2939610  85.7992990
  99.0510920   8.3607070  82.2825070  98.8251840   8.1444240  83.1871690
  98.2703450   8.7935530  81.9371040 106.2808680   8.3670440  80.8815720
 105.6817570   9.0906240  80.6979340 106.8288290   8.3047220  80.0992170
 101.4910130   9.2592650  92.9485340 101.3953730   8.3187380  92.7985740
 102.3342110   9.4807720  92.5533410 104.8873550   7.0033980  82.9119000
 105.2803120   7.3206180  82.0987690 105.2490400   6.1245860  83.0263520
  96.6220670   5.6706320  91.1019120  96.2284060   6.5181530  91.3091900
  95.9339070   5.0332690  91.2927760 103.1965720   5.7541290  94.1715860
 102.5064040   5.5613490  94.8061950 103.9398020   6.0375930  94.7040160
  93.9237720   3.5934780  85.1349200  93.6350770   4.1637640  85.8474180
  94.6683480   3.1139230  85.4980430  94.1107950   7.5354900  76.3451920
  94.0282620   8.4785660  76.4866910  93.7591010   7.3929810  75.4664270
 105.4728690   9.5939730  87.0069780 104.7409810  10.1026540  87.3559880
 105.0753030   8.7769710  86.7058560 101.9106080   6.2693930  85.4122270
 101.9142140   5.8283880  84.5626810 102.8057200   6.5911260  85.5194090
  97.7608460   6.1520420  84.3716480  97.4208510   6.6295650  85.1283530
  96.9985780   5.6985540  84.0117580 101.9726230   7.2706010  78.4029030
 102.0939050   7.2292490  79.3514850 101.5874740   8.1330160  78.2475760
 105.9354600   5.0473410  86.4192720 105.9527340   5.4982060  87.2634570
 105.6870180   4.1479050  86.6326160 100.9847730   9.5807150  77.8012330
 100.4164630   9.1325400  77.1748240 101.6936730   9.9399930  77.2677480
 109.3625350   2.4605590  92.2579100 109.6871120   1.7295250  92.7837080
 109.3981860   2.1419230  91.3560090  96.0616910  13.4819170  91.6779060
  95.6771700  12.8412840  92.2762020  96.3729100  14.1855290  92.2473790
 102.2114050  10.3295710  87.1587680 102.5784180   9.8554280  87.9049020
 102.0219110  11.2037280  87.4996020  95.0754540   5.0739400  83.2881150
  94.7901460   4.7095070  84.1259770  95.0133400   4.3419860  82.6744290
 100.0013420   9.3704350  89.4771890  99.6970490  10.2496330  89.7022250
 100.9559880   9.4304140  89.5129330  98.5295210  13.5765340  80.0738740
  97.7557470  13.0362960  79.9137460  99.2589840  13.0571950  79.7356500
 109.2883190  12.5730700  85.8665130 110.0082310  13.0685990  85.4761240
 109.0865010  11.8948590  85.2219000 104.7493130   3.9668660  80.0094520
 103.9357740   3.4681830  79.9339830 104.5555080   4.8066910  79.5930870
 104.6701990  12.6439760  91.7534130 104.6039300  11.7235430  91.4991720
 104.0407130  12.7415200  92.4678770 107.4641520   8.3388310  78.3056680
 108.3521140   8.6505540  78.1308020 107.4346610   7.4660560  77.9137260
  98.5732610  13.2445720  83.7117550  99.0911280  12.4413980  83.6574440
  98.1216630  13.1824860  84.5534380 103.4602110  14.5112000  78.9844850
 103.8017810  15.2554230  78.4888170 102.6314820  14.8243120  79.3469680
  96.0577150  10.2107090  90.6243250  95.6992090  10.8760940  91.2116590
  95.7631710   9.3790640  90.9955870  99.2590270  10.6691330  93.5082800
  98.9590410  10.8148510  92.6110620 100.0301510  10.1096620  93.4156190
 104.6018720  15.4660330  91.5037930 104.6163260  14.5341290  91.2856840
 103.8943820  15.5520090  92.1427700 109.7355790   9.6500150  77.7736540
 109.6519510  10.0814370  76.9232980 110.4549980  10.1098500  78.2063360
 110.8129930  12.1067670  90.8506510 110.0878120  12.6996450  90.6535900
 111.3405390  12.0991210  90.0519880 110.7643040  16.5042410  80.5018670
 110.1219200  15.8498030  80.7762390 110.3773700  16.9097500  79.7259340
 106.3429520  13.8327840  84.3490360 106.6953340  13.2355970  83.6891730
 105.4591850  13.5072070  84.5198610 102.4292800  14.5925530  81.7560770
 103.1163930  15.1394740  82.1368360 101.6425220  15.1366260  81.7910380
  94.5685200  10.2098350  77.2477850  95.4380050  10.4923150  77.5313770
  94.0775520  11.0234220  77.1326660 101.7320010  11.5971560  81.3686130
 102.1882790  12.4076810  81.5946320 101.3808220  11.2794700  82.2004620
 104.0352620  17.1077900  88.5978430 104.6794840  17.3137280  89.2751850
 104.3982060  16.3466300  88.1449280  97.6331790   1.9409210  81.8408650
  97.5046420   1.9327110  82.7893570  96.8093810   2.2792300  81.4899660
 105.3084700  15.1110250  87.3155880 105.9506930  14.4103410  87.4288050
 105.8334050  15.8908690  87.1352770 109.1540420  15.3958870  77.0395020
 108.9278000  14.6789310  77.6319660 108.7636620  15.1471310  76.2016770
 107.0822320  15.9105150  90.5191940 107.4178560  16.4971840  91.1969860
 106.1622660  15.7797860  90.7489730  94.6325720   3.7000330  91.3015350
  93.9184240   3.8997250  91.9067960  95.0520760   2.9239900  91.6730150
 108.7356670  13.3130810  78.7009180 108.4478370  13.7743500  79.4887060
 109.5308840  12.8528580  78.9693400  94.9198310  17.6880590  92.2881880
  95.0289430  16.7475330  92.1477270  94.2678870  17.9535340  91.6395610
 102.9110900  15.9596480  93.6880000 102.5907770  15.2405720  94.2325690
 102.2369260  16.6351550  93.7616060 100.9525070  16.8056930  78.6313150
 100.9435170  17.5386620  78.0157660 100.0323430  16.5588510  78.7240110
  96.5531710  12.0271820  79.3759910  95.9459660  12.7670720  79.3855210
  97.0281060  12.1171180  78.5498110 106.1264500   6.1922640  89.0516800
 106.4945320   5.3717850  89.3796370 105.2662700   6.2524530  89.4672450
 109.4926530   5.1479580  79.8604360 108.8639690   5.2525250  79.1462590
 108.9978450   5.3676360  80.6498240 103.9384670  16.8685170  77.2938340
 104.0396650  16.6649160  76.3640320 103.0386410  16.6143450  77.4986120
 101.4610560   7.4265530  81.2762240 100.7526710   7.8951870  81.7175850
 101.7455040   6.7687540  81.9107430 103.0866490   8.8462230  89.2754770
 103.5851740   9.3208050  89.9406620 103.2289440   7.9225750  89.4824800
 105.4925990   4.1516190  82.7158030 105.3693770   4.1702320  81.7667540
 106.4410550   4.1995130  82.8356430 102.5802780  19.3871490  81.9886010
 102.8344280  19.3492880  81.0665380 101.6315260  19.2604820  81.9814260
  99.6645580   5.7350610  78.6512950 100.5136110   6.1720760  78.5853140
  99.2976850   6.0470870  79.4785010 110.2933350   5.0630190  90.1183160
 109.7906950   5.8035590  90.4576970 111.1090010   5.4514190  89.8019950
 108.5855360  10.3063370  83.5644520 107.6445500  10.3213600  83.7392210
 108.8999430   9.5199330  84.0104820  98.5637000  11.9882970  77.1248480
  99.3300270  11.8764330  77.6873910  98.6411690  11.2920940  76.4725250
  97.2583760   9.4208040  77.8081370  97.3387350   8.4735550  77.9198770
  98.1503510   9.7514920  77.9142030 110.5880940  17.4772220  85.2398780
 110.7128360  18.3003390  85.7122590 111.4546500  17.2662950  84.8922930
  98.0598470  19.5703430  84.9115910  98.7960950  19.0218890  85.1824480
  98.4439390  20.4359440  84.7721900  97.0656750  18.7549500  94.1001490
  97.8669480  19.0761550  94.5136890  96.5508570  18.3945080  94.8221400
 101.1700780  18.7433740  76.7341480 101.9629390  19.0322570  76.2823270
 100.6505130  18.3125910  76.0553960 105.9021380  14.8629370  94.0476900
 105.2959540  14.8860970  93.3072650 105.5975490  14.1312410  94.5844150
 107.3321750  18.5909660  92.6586310 108.2843500  18.5067680  92.6086550
 107.1849970  19.2551370  93.3320100 110.2230950  17.9703870  78.1578220
 109.9372460  17.5569010  77.3432400 110.0250500  18.8991580  78.0378740
  94.7854560  11.2422960  93.0437540  95.2893580  10.6630240  93.6153770
  94.0461980  11.5263190  93.5813910 101.6878180  13.9637150  76.5983830
 101.5828820  13.3489500  77.3245210 101.5202400  13.4403040  75.8146840
 101.8392500  12.6493950  92.5773060 101.0738170  13.2178950  92.4927730
 102.0208460  12.3570160  91.6841290 104.9280910  13.0257180  77.2025820
 104.3791010  13.4726480  77.8468560 105.5500170  12.5206430  77.7263490
 108.9815850  14.3799280  93.1348080 109.7225320  14.7175040  92.6315540
 108.2188530  14.5491340  92.5817850  96.8177640   9.3852550  93.9387610
  96.8582980   9.0866420  94.8472840  97.6723140   9.7860160  93.7795130
 100.5956030  11.9848100  79.0991120 101.0172450  11.8187970  79.9422510
 100.7206870  11.1748330  78.6046260  98.7583450   7.9644650  91.9062100
  98.2279910   7.4735600  91.2785440  99.4271520   8.3928850  91.3720030
 103.1083670  11.0085710  76.3468220 103.6289330  10.2934730  75.9809370
 103.7552070  11.6471580  76.6468730 107.6561510  12.4314110  91.6703290
 108.0702530  12.5859190  92.5193710 106.7212510  12.5569330  91.8329070
 108.1283680   9.7710270  93.6742440 108.7104450   9.0162590  93.5862920
 108.3045450  10.3017710  92.8973920  99.2455750   4.9307020  91.9859390
  99.1512620   4.3127770  91.2610260  98.6653140   5.6573310  91.7589300
 102.0117190   3.4880260  89.0186780 101.5634490   3.5104520  88.1732330
 101.3782390   3.0899280  89.6157080 102.4176740  12.3834590  89.6399220
 102.8364850  13.2267320  89.4675460 101.4985370  12.5206630  89.4106000
 104.7540640  10.1150770  91.0237060 104.8736850   9.5191910  91.7631900
 105.6134640  10.1520460  90.6038360 107.0928540  10.6687960  89.5999570
 106.5663760  11.1930580  88.9964710 107.4359880  11.3015350  90.2309300
  99.4914930   8.0581330  76.0449280  99.2903990   7.1948690  76.4062620
  99.3206980   7.9714690  75.1070880 100.2684160  18.6887600  90.7556950
  99.7305250  19.4133660  90.4365650 100.5218120  18.2117940  89.9654290
 101.5209410   6.6572120  92.2812880 102.1109100   6.3487970  92.9690700
 100.7029650   6.1851870  92.4372780 106.3402840   6.2737930  92.5145900
 105.6518360   5.6119470  92.4495890 107.0608860   5.8276200  92.9594360
 106.9703240   2.8689560  78.5736160 107.2505530   2.0257460  78.9295580
 106.1968970   3.1012670  79.0874910  98.2897730   5.1581950  76.0327160
  98.5923630   5.1649380  75.1246310  99.0292320   4.8079810  76.5294820
 103.1246370  19.9238810  91.0143600 103.0505070  20.8273950  91.3215970
 102.2225210  19.6050710  90.9865670 101.5082660   4.1016570  77.0183360
 101.1604660   3.4240560  76.4385810 101.7095430   3.6406080  77.8326750
 103.6731700  19.0897320  78.6369960 104.5682490  19.4282290  78.6588720
 103.7049330  18.3676730  78.0094240  97.3127860  14.4624370  76.8656960
  97.7502730  15.0054040  77.5214540  97.7975590  13.6371320  76.8753300
  99.1235580  15.5822410  81.9779190  98.8231120  15.4587380  82.8783100
  99.0173070  14.7231000  81.5694920  95.0163870  18.1183990  87.0558850
  94.5794860  18.2984790  87.8883000  95.5841550  18.8758610  86.9140570
 110.6526050  17.6200990  91.3436160 110.0528040  17.6793550  90.6000080
 110.7819950  16.6805970  91.4733010 111.8927500  15.3618810  76.6805870
 111.0620460  15.4295460  77.1513100 112.0699330  16.2522930  76.3772730
 111.3483960  12.1066290  79.1840070 112.1102870  12.6762940  79.2899760
 111.3638330  11.5393490  79.9548380  94.8488300  10.6304220  83.4147730
  94.1937140  10.3615860  82.7707430  95.6866250  10.5208700  82.9649710
 112.3543930  12.9616390  84.0282000 112.7252760  12.1783710  83.6217970
 112.9945860  13.6505490  83.8499300 109.3377690  14.3452970  89.4412320
 108.5237530  14.7750130  89.7038110 109.7451890  14.9571380  88.8281370
 111.4003130  12.4000660  76.3412590 111.6751970  13.3079540  76.2131810
 111.2113870  12.3363190  77.2774580 107.7978740   5.4245510  77.6366220
 108.2163620   5.2376490  76.7962880 107.4914800   4.5724560  77.9469150
 111.2968470  10.3369650  81.3342020 110.9212070   9.5697580  80.9023310
 110.5671590  10.7192350  81.8216950  95.8864230  11.0156790  87.9551070
  96.2537270  10.9284190  88.8347090  95.3175050  10.2523340  87.8557930
 110.6868090   9.4841170  90.9681540 110.4554180   9.2553920  90.0679490
 110.9472640  10.4040720  90.9226430  95.4380230   7.9265880  91.8609490
  94.5436280   7.8932640  92.2003200  95.9777780   8.1252670  92.6260740
 109.1256160   4.7097600  93.7461240 110.0026340   4.7181000  94.1295240
 109.1377000   3.9728440  93.1353590  94.0626380   7.8403150  79.3573060
  93.1590460   8.1033350  79.1824720  94.5467000   8.1114320  78.5773020
 110.5719430   8.5627140  84.6349260 111.0956910   8.0689790  84.0039430
 111.1578850   8.6977500  85.3796830 110.7509150   8.6467010  88.1568810
 109.8011860   8.6130550  88.2713800 110.9322160   9.5567120  87.9218580
  96.6053590   6.8968690  77.2667440  97.3145290   6.4751910  76.7814720
  95.8893530   6.9643920  76.6350790  96.2527750   2.9508020  76.3070090
  96.9755880   3.4916960  76.6251310  96.5252270   2.6771440  75.4311630
 110.0619400   7.8200490  80.5741670 110.5578520   7.5871360  81.3590550
 109.8635470   6.9812330  80.1579310  95.9419940   2.2014210  86.2092710
  96.5896130   1.6511590  85.7687870  96.3621780   2.4557360  87.0308520
 111.4906560   6.4561440  83.1079350 111.3805840   6.3017480  84.0461620
 112.2514150   5.9282380  82.8654760 109.8372280   2.3955570  89.5662350
 110.4744500   3.0089710  89.9321540 109.9847170   2.4316230  88.6211580
 112.3796830   4.2869360  76.3485490 113.3046140   4.1550540  76.1403780
 112.3572620   4.3662180  77.3021940 112.4535320   5.0580020  78.9742200
 111.6586820   4.9925140  79.5035110 112.6578600   5.9930660  78.9627550
 109.3953740  19.0971570  82.9680590 109.9912810  18.7756140  82.2915010
 109.6531890  18.6243390  83.7593860  95.6951940   2.3569880  88.9518030
  95.3466760   2.8133700  89.7176210  95.3639640   1.4627010  89.0340460
  97.3016310  15.5289480  93.1171220  97.2585940  15.1582390  93.9985680
  97.4327320  16.4667050  93.2573040 101.0022340  17.0849070  88.7180940
 100.7613700  17.3523630  87.8311460 101.9424980  17.2554800  88.7731800
 103.2076760   3.5481760  92.4737450 103.1465650   4.1403590  93.2232860
 104.1477140   3.4407720  92.3287710 105.8451320   3.2051820  92.1129740
 106.4591730   3.5231110  91.4510820 106.3900880   2.7200410  92.7325600
 112.2626500  19.1043450  89.5191580 111.7684780  19.5012320  88.8018710
 111.6539790  18.4792660  89.9128860  97.1404340  18.4751730  90.2369000
  96.5464660  18.3436430  90.9759040  97.1328180  17.6389870  89.7711100
 107.4931340   3.9754830  89.8240750 107.1644700   3.1606590  89.4442480
 108.4413640   3.9324640  89.7006440 109.9465950  19.7466870  86.7978320
 109.4868920  20.4982680  86.4236340 109.3178410  19.0273340  86.7393120
  96.7716570  15.8410110  89.1877040  96.0450630  15.2215400  89.1202990
  96.8325720  16.2350720  88.3175120 100.3761670  18.0555110  85.9726450
 100.8926690  17.4442470  85.4474710 101.0259050  18.5583890  86.4637460
 103.1157170  18.9463600  86.7995430 103.4034980  18.6917900  85.9228440
 103.6280390  18.3940960  87.3901000 104.3334180   2.6853800  87.3791940
 103.5505970   3.1599300  87.6588700 104.0397110   1.7808630  87.2705120
 108.8855250   3.3876900  85.4241030 109.3263340   3.3322000  84.5762630
 108.6162840   4.3034910  85.4951210 110.7493820   3.0192140  83.4349850
 110.6882220   2.0753360  83.2880870 111.5285850   3.1272230  83.9803310
  95.6774590   2.9901280  79.9005660  96.4353950   3.1030160  79.3269690
  95.2151760   3.8270480  79.8549090 102.2188400   5.1040550  82.8907970
 101.4062910   4.7297440  82.5503850 102.7230040   4.3485630  83.1929160
 106.7213380   1.7683000  84.1291040 107.3242750   2.3403210  84.6039560
 105.9806370   2.3322440  83.9064940 109.8647980   2.1704560  79.4031320
 110.0598610   3.0688010  79.6698750 109.0777850   1.9391640  79.8964270
  96.6609270  17.8517730  79.8423940  96.1356890  18.2325760  79.1385900
  96.5853850  18.4768500  80.5633650  98.0499740   3.5165330  78.4407630
  98.5792500   2.7295130  78.3115580  98.6828060   4.1956520  78.6743160
 100.2437580   3.2540470  81.4953020  99.6140320   2.5527780  81.6623150
  99.7042720   4.0144600  81.2786180 103.1829530  19.8679700  94.1663630
 104.1096840  19.6323970  94.2099590 103.1679960  20.6951700  93.6849660
 111.4174590  19.4105270  81.1637880 111.5926780  18.7243010  80.5198800
 110.7196160  19.9352320  80.7714550 100.3693140   2.5324450  93.9305510
 100.0877410   3.0358050  93.1666330 100.7512840   1.7346200  93.5647640
  99.2602240  19.8000110  78.7173190  99.9921060  19.5159390  78.1697080
  99.5195910  19.5613390  79.6072570  98.4217030  15.9164840  78.7219520
  97.7925910  16.3849940  79.2705350  98.5364860  15.0714060  79.1565710
 106.9708600   1.9478030  94.5085980 106.8574050   2.2672640  95.4037500
 107.7878340   2.3490540  94.2123260 109.7507090  19.0949560  93.9904670
 110.5432410  18.5998790  93.7830630 110.0440240  19.7739700  94.5980280
 105.8766750   9.9670500  64.8720720 105.7960800   9.0525110  64.6012430
 105.4631170  10.4637570  64.1660430 104.0084790  11.7449520  66.7529990
 103.2326890  11.2649960  67.0428560 104.6597720  11.0655170  66.5786150
  98.0250620  12.0569330  67.6305750  97.1935500  11.8018040  68.0302260
  98.6331600  12.1280100  68.3663670 108.0292220  16.1509710  65.5329120
 107.5673750  15.3796950  65.8616290 108.8417770  16.1775780  66.0381570
  98.0051880  16.0909420  67.8263770  98.3079920  15.2007160  67.6473990
  98.7495470  16.6479640  67.5986020  96.4342570   7.0171220  61.4148140
  95.5459270   7.3587190  61.3128020  96.7183760   6.8171540  60.5228970
  94.3975580   9.6176870  67.2987840  94.9691690   8.8499070  67.2991480
  94.3977120   9.9165630  66.3894450 104.2555530  18.4367720  65.1533110
 103.6366970  18.8925220  64.5827550 105.1107310  18.5919180  64.7522810
 103.4493780  14.4206710  66.7600150 103.3802060  13.4796650  66.5989280
 104.2113640  14.5108120  67.3322720  95.6400450   5.0261230  69.0856770
  95.4603290   4.1286980  69.3659530  95.2380530   5.5733100  69.7603720
 104.4798950   7.2277090  66.9869080 104.8563770   6.3548970  66.8742750
 104.3818460   7.5635790  66.0959520  98.6103960   5.6002720  62.4486520
  98.7170710   6.5006450  62.7555280  97.6996320   5.5520690  62.1581170
 108.2623070   4.7227530  63.9197420 109.0832690   4.2324100  63.9622900
 108.2957150   5.3125190  64.6729260  96.2587120   7.5221730  67.6939110
  96.9397230   7.7860100  68.3126510  95.9435170   6.6822600  68.0277120
 100.4511690   8.5689090  66.7811700 100.9589910   9.0670060  67.4216720
 100.9824930   7.7924290  66.6051060 112.5522620   6.7394280  70.4841050
 111.8474790   7.1275990  69.9656160 112.8180540   7.4344570  71.0861980
  98.7347790   3.2087650  71.0475120  98.7366230   3.7260040  70.2421020
  97.9052100   2.7317830  71.0245050 105.1218880  13.3206960  62.5465020
 104.5036150  13.7856410  61.9827740 105.6342130  14.0134440  62.9634530
  99.9850640  12.8482830  69.2248620  99.6520020  13.4751750  69.8669690
 100.1617320  13.3744710  68.4450290 108.4984550   6.6627910  66.6924960
 107.7940120   6.9512800  67.2728070 108.8596710   7.4728020  66.3324520
  98.4163120   4.9197610  69.0545570  98.7579930   5.7639660  68.7599440
  97.4778930   5.0681350  69.1710910  99.1969740  14.8163630  71.0397800
  99.8143740  15.4914710  70.7582250  98.3362860  15.2251610  70.9485300
  94.4902080  14.0063490  59.9204650  94.1130060  14.4950590  59.1889550
  94.7475150  14.6788770  60.5511180 110.1147330  16.2803040  68.9552440
 109.4310850  16.9502150  68.9469110 110.6541620  16.4783690  68.1897300
 111.5671470   6.1082700  67.0834170 110.6196380   6.1421680  67.2149600
 111.8921460   6.9221650  67.4683530 102.0991010   2.4079880  65.3790160
 102.4065990   1.8526770  64.6625660 101.1691710   2.5424340  65.1963150
 107.6506070  18.1247170  67.6697620 107.6633230  17.7209460  66.8019880
 107.0981290  18.8994460  67.5659050 108.9451490  14.8463390  62.7587790
 108.8347820  13.9037720  62.8837210 108.9419740  15.2079030  63.6450550
 107.0491510  13.0277010  68.9980230 107.4660300  12.8137120  68.1633690
 107.7731330  13.2849800  69.5688850 104.4871770  10.4728710  62.1150280
 103.5601050  10.4066090  62.3438750 104.6396590  11.4108840  62.0005520
 104.4740850   6.7445710  59.1117440 103.5344520   6.9059670  59.1969900
 104.7924110   7.4631390  58.5653430 110.9953610  11.4264230  69.0896470
 110.1672240  11.4957320  68.6146600 111.5904090  12.0118540  68.6212300
 108.5169060  12.0349010  62.6185530 107.8981480  11.6968560  61.9711830
 108.4993510  11.3908770  63.3264720 107.9595620   8.2133550  70.0351340
 107.5466800   9.0387260  70.2891330 107.2271570   7.6278590  69.8427700
 100.0928410  10.9993450  64.8970010  99.6885410  10.2870700  64.4015910
 100.1791530  10.6546690  65.7858050 100.5610110  14.6861010  67.0609220
 100.2638400  14.0806480  66.3817000 101.5109930  14.7238320  66.9498580
  98.8057030   7.7736660  68.6769050  99.3571620   7.8832000  67.9022300
  99.3200540   8.1474260  69.3924280 108.6495720  18.2592880  70.7232320
 108.1726280  19.0665070  70.5304930 107.9657510  17.6071210  70.8758530
  99.6528540  14.4242700  73.7117020  98.7557070  14.6482670  73.9590420
  99.6781410  14.5477640  72.7628420 106.6933760  11.2735820  59.6258280
 107.1327040  10.4358250  59.4796100 107.4062180  11.9065220  59.7122420
  98.4799760  11.2956020  72.2874390  98.3407530  12.1678820  72.6561790
  97.5981120  10.9528830  72.1422330 104.8029140  16.2131890  63.5939520
 105.2425050  16.9556220  63.1794910 104.7416030  16.4558460  64.5178480
 100.2780110  17.2377720  74.4959540 100.2495540  17.6420670  73.6287970
 100.1145080  16.3088080  74.3331140 110.2750900   2.5278630  57.9399320
 109.9623560   2.6205460  58.8398390 111.0363370   3.1059660  57.8896750
  96.7933040   9.8938430  62.3976660  96.6730640  10.6200520  61.7857930
  96.4833930   9.1241340  61.9204570 112.2294930  18.0204820  75.7923710
 112.7054650  18.4987710  76.4712790 112.8502090  17.9522310  75.0669210
  94.4318410  13.0653570  68.2045300  94.5098830  13.2002340  67.2601020
  95.0460090  12.3569460  68.3973420  95.6766040  14.7653760  64.6151480
  95.2694120  14.9068350  63.7605080  96.5679050  14.4813920  64.4122690
 111.6328180  15.2117670  72.9523720 111.7591240  14.9729550  72.0340900
 111.6749560  14.3802210  73.4245800 105.4944920  18.9145670  71.5218530
 106.0089590  18.8253680  72.3240960 104.6514000  19.2605370  71.8146440
 107.4699320  19.2001010  60.9502530 107.3100460  18.9103950  61.8484360
 107.3046030  18.4241140  60.4147760 107.1725450  16.7088570  59.5100530
 106.4790610  16.7065860  58.8502810 107.9148310  16.2847890  59.0794700
 106.7375380  18.3351280  63.5849020 107.1932330  17.5540660  63.8987640
 107.0767900  19.0458100  64.1290200 111.4852190   7.2650130  73.9173460
 110.8696460   7.7729800  73.3888920 111.1648610   6.3648460  73.8599400
  94.4877930  14.1067740  70.7439760  94.6508970  13.6373100  69.9259130
  94.9530380  13.5991300  71.4088600  99.2596700   3.2373500  65.7800330
  98.8164850   4.0183040  65.4484850  99.8181690   3.5603390  66.4871270
 103.5466510   6.1042020  71.3835650 103.0845880   6.3125040  72.1955590
 103.1444620   5.2901370  71.0806320 108.5471020   7.3250970  72.5132310
 107.6964610   7.0256720  72.8341380 108.3872810   7.5692980  71.6016130
 105.6420730   8.8252720  74.6131100 105.9674140   7.9916470  74.2733330
 106.4301060   9.3481240  74.7609430 102.3755520   2.8584200  60.6606160
 101.7509700   2.8544070  61.3859470 102.2885640   1.9915160  60.2642130
 101.2972600   3.7820830  67.6389930 101.5944930   4.6883660  67.5581950
 101.8458160   3.2939610  67.0249500  99.0510920   8.3607070  63.5081580
  98.8251840   8.1444240  64.4128200  98.2703450   8.7935530  63.1627550
 106.2808680   8.3670440  62.1072230 105.6817570   9.0906240  61.9235850
 106.8288290   8.3047220  61.3248680 101.4910130   9.2592650  74.1741850
 101.3953730   8.3187380  74.0242250 102.3342110   9.4807720  73.7789920
 104.8873550   7.0033980  64.1375510 105.2803120   7.3206180  63.3244200
 105.2490400   6.1245860  64.2520030  96.6220670   5.6706320  72.3275630
  96.2284060   6.5181530  72.5348410  95.9339070   5.0332690  72.5184270
 103.1965720   5.7541290  75.3972370 102.5064040   5.5613490  76.0318460
 103.9398020   6.0375930  75.9296670  93.9237720   3.5934780  66.3605710
  93.6350770   4.1637640  67.0730690  94.6683480   3.1139230  66.7236940
  94.1107950   7.5354900  57.5708430  94.0282620   8.4785660  57.7123420
  93.7591010   7.3929810  56.6920780 105.4728690   9.5939730  68.2326290
 104.7409810  10.1026540  68.5816390 105.0753030   8.7769710  67.9315070
 101.9106080   6.2693930  66.6378780 101.9142140   5.8283880  65.7883320
 102.8057200   6.5911260  66.7450600  97.7608460   6.1520420  65.5972990
  97.4208510   6.6295650  66.3540040  96.9985780   5.6985540  65.2374090
 101.9726230   7.2706010  59.6285540 102.0939050   7.2292490  60.5771360
 101.5874740   8.1330160  59.4732270 105.9354600   5.0473410  67.6449230
 105.9527340   5.4982060  68.4891080 105.6870180   4.1479050  67.8582670
 100.9847730   9.5807150  59.0268840 100.4164630   9.1325400  58.4004750
 101.6936730   9.9399930  58.4933990 109.3625350   2.4605590  73.4835610
 109.6871120   1.7295250  74.0093590 109.3981860   2.1419230  72.5816600
  96.0616910  13.4819170  72.9035570  95.6771700  12.8412840  73.5018530
  96.3729100  14.1855290  73.4730300 102.2114050  10.3295710  68.3844190
 102.5784180   9.8554280  69.1305530 102.0219110  11.2037280  68.7252530
  95.0754540   5.0739400  64.5137660  94.7901460   4.7095070  65.3516280
  95.0133400   4.3419860  63.9000800 100.0013420   9.3704350  70.7028400
  99.6970490  10.2496330  70.9278760 100.9559880   9.4304140  70.7385840
  98.5295210  13.5765340  61.2995250  97.7557470  13.0362960  61.1393970
  99.2589840  13.0571950  60.9613010 109.2883190  12.5730700  67.0921640
 110.0082310  13.0685990  66.7017750 109.0865010  11.8948590  66.4475510
 104.7493130   3.9668660  61.2351030 103.9357740   3.4681830  61.1596340
 104.5555080   4.8066910  60.8187380 104.6701990  12.6439760  72.9790640
 104.6039300  11.7235430  72.7248230 104.0407130  12.7415200  73.6935280
 107.4641520   8.3388310  59.5313190 108.3521140   8.6505540  59.3564530
 107.4346610   7.4660560  59.1393770  98.5732610  13.2445720  64.9374060
  99.0911280  12.4413980  64.8830950  98.1216630  13.1824860  65.7790890
 103.4602110  14.5112000  60.2101360 103.8017810  15.2554230  59.7144680
 102.6314820  14.8243120  60.5726190  96.0577150  10.2107090  71.8499760
  95.6992090  10.8760940  72.4373100  95.7631710   9.3790640  72.2212380
  99.2590270  10.6691330  74.7339310  98.9590410  10.8148510  73.8367130
 100.0301510  10.1096620  74.6412700 104.6018720  15.4660330  72.7294440
 104.6163260  14.5341290  72.5113350 103.8943820  15.5520090  73.3684210
 109.7355790   9.6500150  58.9993050 109.6519510  10.0814370  58.1489490
 110.4549980  10.1098500  59.4319870 110.8129930  12.1067670  72.0763020
 110.0878120  12.6996450  71.8792410 111.3405390  12.0991210  71.2776390
 110.7643040  16.5042410  61.7275180 110.1219200  15.8498030  62.0018900
 110.3773700  16.9097500  60.9515850 106.3429520  13.8327840  65.5746870
 106.6953340  13.2355970  64.9148240 105.4591850  13.5072070  65.7455120
 102.4292800  14.5925530  62.9817280 103.1163930  15.1394740  63.3624870
 101.6425220  15.1366260  63.0166890  94.5685200  10.2098350  58.4734360
  95.4380050  10.4923150  58.7570280  94.0775520  11.0234220  58.3583170
 101.7320010  11.5971560  62.5942640 102.1882790  12.4076810  62.8202830
 101.3808220  11.2794700  63.4261130 104.0352620  17.1077900  69.8234940
 104.6794840  17.3137280  70.5008360 104.3982060  16.3466300  69.3705790
  97.6331790   1.9409210  63.0665160  97.5046420   1.9327110  64.0150080
  96.8093810   2.2792300  62.7156170 105.3084700  15.1110250  68.5412390
 105.9506930  14.4103410  68.6544560 105.8334050  15.8908690  68.3609280
 109.1540420  15.3958870  58.2651530 108.9278000  14.6789310  58.8576170
 108.7636620  15.1471310  57.4273280 107.0822320  15.9105150  71.7448450
 107.4178560  16.4971840  72.4226370 106.1622660  15.7797860  71.9746240
  94.9356450  19.4225730  59.0395990  95.2954090  20.0215070  58.3853260
  94.7948790  19.9685620  59.8131020  94.6325720   3.7000330  72.5271860
  93.9184240   3.8997250  73.1324470  95.0520760   2.9239900  72.8986660
 108.7356670  13.3130810  59.9265690 108.4478370  13.7743500  60.7143570
 109.5308840  12.8528580  60.1949910  94.9198310  17.6880590  73.5138390
  95.0289430  16.7475330  73.3733780  94.2678870  17.9535340  72.8652120
 102.9110900  15.9596480  74.9136510 102.5907770  15.2405720  75.4582200
 102.2369260  16.6351550  74.9872570 100.9525070  16.8056930  59.8569660
 100.9435170  17.5386620  59.2414170 100.0323430  16.5588510  59.9496620
  96.5531710  12.0271820  60.6016420  95.9459660  12.7670720  60.6111720
  97.0281060  12.1171180  59.7754620 106.1264500   6.1922640  70.2773310
 106.4945320   5.3717850  70.6052880 105.2662700   6.2524530  70.6928960
 109.4926530   5.1479580  61.0860870 108.8639690   5.2525250  60.3719100
 108.9978450   5.3676360  61.8754750 103.9384670  16.8685170  58.5194850
 104.0396650  16.6649160  57.5896830 103.0386410  16.6143450  58.7242630
 101.4610560   7.4265530  62.5018750 100.7526710   7.8951870  62.9432360
 101.7455040   6.7687540  63.1363940 103.0866490   8.8462230  70.5011280
 103.5851740   9.3208050  71.1663130 103.2289440   7.9225750  70.7081310
 105.4925990   4.1516190  63.9414540 105.3693770   4.1702320  62.9924050
 106.4410550   4.1995130  64.0612940  99.6645580   5.7350610  59.8769460
 100.5136110   6.1720760  59.8109650  99.2976850   6.0470870  60.7041520
 110.2933350   5.0630190  71.3439670 109.7906950   5.8035590  71.6833480
 111.1090010   5.4514190  71.0276460 108.5855360  10.3063370  64.7901030
 107.6445500  10.3213600  64.9648720 108.8999430   9.5199330  65.2361330
  98.5637000  11.9882970  58.3504990  99.3300270  11.8764330  58.9130420
  98.6411690  11.2920940  57.6981760  97.2583760   9.4208040  59.0337880
  97.3387350   8.4735550  59.1455280  98.1503510   9.7514920  59.1398540
 110.5880940  17.4772220  66.4655290 110.7128360  18.3003390  66.9379100
 111.4546500  17.2662950  66.1179440  94.9443950  15.6377000  62.0113930
  94.0183730  15.8798140  62.0019340  95.4100380  16.4651260  61.8898680
  97.0656750  18.7549500  75.3258000  97.8669480  19.0761550  75.7393400
  96.5508570  18.3945080  76.0477910 101.1700780  18.7433740  57.9597990
 101.9629390  19.0322570  57.5079780 100.6505130  18.3125910  57.2810470
 105.9021380  14.8629370  75.2733410 105.2959540  14.8860970  74.5329160
 105.5975490  14.1312410  75.8100660 107.3321750  18.5909660  73.8842820
 108.2843500  18.5067680  73.8343060 107.1849970  19.2551370  74.5576610
 110.2230950  17.9703870  59.3834730 109.9372460  17.5569010  58.5688910
 110.0250500  18.8991580  59.2635250  94.7854560  11.2422960  74.2694050
  95.2893580  10.6630240  74.8410280  94.0461980  11.5263190  74.8070420
 101.6878180  13.9637150  57.8240340 101.5828820  13.3489500  58.5501720
 101.5202400  13.4403040  57.0403350 101.8392500  12.6493950  73.8029570
 101.0738170  13.2178950  73.7184240 102.0208460  12.3570160  72.9097800
 104.9280910  13.0257180  58.4282330 104.3791010  13.4726480  59.0725070
 105.5500170  12.5206430  58.9520000 108.9815850  14.3799280  74.3604590
 109.7225320  14.7175040  73.8572050 108.2188530  14.5491340  73.8074360
  96.8177640   9.3852550  75.1644120  96.8582980   9.0866420  76.0729350
  97.6723140   9.7860160  75.0051640 100.5956030  11.9848100  60.3247630
 101.0172450  11.8187970  61.1679020 100.7206870  11.1748330  59.8302770
  98.7583450   7.9644650  73.1318610  98.2279910   7.4735600  72.5041950
  99.4271520   8.3928850  72.5976540 103.1083670  11.0085710  57.5724730
 103.6289330  10.2934730  57.2065880 103.7552070  11.6471580  57.8725240
 107.6561510  12.4314110  72.8959800 108.0702530  12.5859190  73.7450220
 106.7212510  12.5569330  73.0585580 108.1283680   9.7710270  74.8998950
 108.7104450   9.0162590  74.8119430 108.3045450  10.3017710  74.1230430
  99.2455750   4.9307020  73.2115900  99.1512620   4.3127770  72.4866770
  98.6653140   5.6573310  72.9845810 102.0117190   3.4880260  70.2443290
 101.5634490   3.5104520  69.3988840 101.3782390   3.0899280  70.8413590
 102.4176740  12.3834590  70.8655730 102.8364850  13.2267320  70.6931970
 101.4985370  12.5206630  70.6362510 104.7540640  10.1150770  72.2493570
 104.8736850   9.5191910  72.9888410 105.6134640  10.1520460  71.8294870
 107.0928540  10.6687960  70.8256080 106.5663760  11.1930580  70.2221220
 107.4359880  11.3015350  71.4565810  99.4914930   8.0581330  57.2705790
  99.2903990   7.1948690  57.6319130  99.3206980   7.9714690  56.3327390
 100.2684160  18.6887600  71.9813460  99.7305250  19.4133660  71.6622160
 100.5218120  18.2117940  71.1910800 101.5209410   6.6572120  73.5069390
 102.1109100   6.3487970  74.1947210 100.7029650   6.1851870  73.6629290
 106.3402840   6.2737930  73.7402410 105.6518360   5.6119470  73.6752400
 107.0608860   5.8276200  74.1850870 106.9703240   2.8689560  59.7992670
 107.2505530   2.0257460  60.1552090 106.1968970   3.1012670  60.3131420
  98.2897730   5.1581950  57.2583670  98.5923630   5.1649380  56.3502820
  99.0292320   4.8079810  57.7551330 103.1246370  19.9238810  72.2400110
 103.0505070  20.8273950  72.5472480 102.2225210  19.6050710  72.2122180
 101.5082660   4.1016570  58.2439870 101.1604660   3.4240560  57.6642320
 101.7095430   3.6406080  59.0583260 103.6731700  19.0897320  59.8626470
 104.5682490  19.4282290  59.8845230 103.7049330  18.3676730  59.2350750
  97.3127860  14.4624370  58.0913470  97.7502730  15.0054040  58.7471050
  97.7975590  13.6371320  58.1009810  94.5273660  17.2513400  65.5433730
  94.8576670  16.3834460  65.3112370  94.9564660  17.4571920  66.3738690
  99.1235580  15.5822410  63.2035700  98.8231120  15.4587380  64.1039610
  99.0173070  14.7231000  62.7951430  95.0163870  18.1183990  68.2815360
  94.5794860  18.2984790  69.1139510  95.5841550  18.8758610  68.1397080
 110.6526050  17.6200990  72.5692670 110.0528040  17.6793550  71.8256590
 110.7819950  16.6805970  72.6989520 111.8927500  15.3618810  57.9062380
 111.0620460  15.4295460  58.3769610 112.0699330  16.2522930  57.6029240
 111.3483960  12.1066290  60.4096580 112.1102870  12.6762940  60.5156270
 111.3638330  11.5393490  61.1804890  94.8488300  10.6304220  64.6404240
  94.1937140  10.3615860  63.9963940  95.6866250  10.5208700  64.1906220
 112.3543930  12.9616390  65.2538510 112.7252760  12.1783710  64.8474480
 112.9945860  13.6505490  65.0755810 109.3377690  14.3452970  70.6668830
 108.5237530  14.7750130  70.9294620 109.7451890  14.9571380  70.0537880
 111.4003130  12.4000660  57.5669100 111.6751970  13.3079540  57.4388320
 111.2113870  12.3363190  58.5031090 107.7978740   5.4245510  58.8622730
 108.2163620   5.2376490  58.0219390 107.4914800   4.5724560  59.1725660
 111.2968470  10.3369650  62.5598530 110.9212070   9.5697580  62.1279820
 110.5671590  10.7192350  63.0473460  95.8864230  11.0156790  69.1807580
  96.2537270  10.9284190  70.0603600  95.3175050  10.2523340  69.0814440
 110.6868090   9.4841170  72.1938050 110.4554180   9.2553920  71.2936000
 110.9472640  10.4040720  72.1482940  95.4380230   7.9265880  73.0866000
  94.5436280   7.8932640  73.4259710  95.9777780   8.1252670  73.8517250
 109.1256160   4.7097600  74.9717750 110.0026340   4.7181000  75.3551750
 109.1377000   3.9728440  74.3610100  94.0626380   7.8403150  60.5829570
  93.1590460   8.1033350  60.4081230  94.5467000   8.1114320  59.8029530
 110.5719430   8.5627140  65.8605770 111.0956910   8.0689790  65.2295940
 111.1578850   8.6977500  66.6053340 110.7509150   8.6467010  69.3825320
 109.8011860   8.6130550  69.4970310 110.9322160   9.5567120  69.1475090
  96.6053590   6.8968690  58.4923950  97.3145290   6.4751910  58.0071230
  95.8893530   6.9643920  57.8607300  96.2527750   2.9508020  57.5326600
  96.9755880   3.4916960  57.8507820  96.5252270   2.6771440  56.6568140
 110.0619400   7.8200490  61.7998180 110.5578520   7.5871360  62.5847060
 109.8635470   6.9812330  61.3835820  95.9419940   2.2014210  67.4349220
  96.5896130   1.6511590  66.9944380  96.3621780   2.4557360  68.2565030
 111.4906560   6.4561440  64.3335860 111.3805840   6.3017480  65.2718130
 112.2514150   5.9282380  64.0911270 109.8372280   2.3955570  70.7918860
 110.4744500   3.0089710  71.1578050 109.9847170   2.4316230  69.8468090
 112.3796830   4.2869360  57.5742000 113.3046140   4.1550540  57.3660290
 112.3572620   4.3662180  58.5278450 112.4535320   5.0580020  60.1998710
 111.6586820   4.9925140  60.7291620 112.6578600   5.9930660  60.1884060
 109.3953740  19.0971570  64.1937100 109.9912810  18.7756140  63.5171520
 109.6531890  18.6243390  64.9850370  95.6951940   2.3569880  70.1774540
  95.3466760   2.8133700  70.9432720  95.3639640   1.4627010  70.2596970
  97.3016310  15.5289480  74.3427730  97.2585940  15.1582390  75.2242190
  97.4327320  16.4667050  74.4829550 101.0022340  17.0849070  69.9437450
 100.7613700  17.3523630  69.0567970 101.9424980  17.2554800  69.9988310
 103.2076760   3.5481760  73.6993960 103.1465650   4.1403590  74.4489370
 104.1477140   3.4407720  73.5544220 105.8451320   3.2051820  73.3386250
 106.4591730   3.5231110  72.6767330 106.3900880   2.7200410  73.9582110
 112.2626500  19.1043450  70.7448090 111.7684780  19.5012320  70.0275220
 111.6539790  18.4792660  71.1385370  97.1404340  18.4751730  71.4625510
  96.5464660  18.3436430  72.2015550  97.1328180  17.6389870  70.9967610
 107.4931340   3.9754830  71.0497260 107.1644700   3.1606590  70.6698990
 108.4413640   3.9324640  70.9262950 109.9465950  19.7466870  68.0234830
 109.4868920  20.4982680  67.6492850 109.3178410  19.0273340  67.9649630
  96.7716570  15.8410110  70.4133550  96.0450630  15.2215400  70.3459500
  96.8325720  16.2350720  69.5431630 100.3761670  18.0555110  67.1982960
 100.8926690  17.4442470  66.6731220 101.0259050  18.5583890  67.6893970
 103.1157170  18.9463600  68.0251940 103.4034980  18.6917900  67.1484950
 103.6280390  18.3940960  68.6157510 104.3334180   2.6853800  68.6048450
 103.5505970   3.1599300  68.8845210 104.0397110   1.7808630  68.4961630
 108.8855250   3.3876900  66.6497540 109.3263340   3.3322000  65.8019140
 108.6162840   4.3034910  66.7207720 110.7493820   3.0192140  64.6606360
 110.6882220   2.0753360  64.5137380 111.5285850   3.1272230  65.2059820
  95.6774590   2.9901280  61.1262170  96.4353950   3.1030160  60.5526200
  95.2151760   3.8270480  61.0805600 102.2188400   5.1040550  64.1164480
 101.4062910   4.7297440  63.7760360 102.7230040   4.3485630  64.4185670
 106.7213380   1.7683000  65.3547550 107.3242750   2.3403210  65.8296070
 105.9806370   2.3322440  65.1321450 109.8647980   2.1704560  60.6287830
 110.0598610   3.0688010  60.8955260 109.0777850   1.9391640  61.1220780
  96.6609270  17.8517730  61.0680450  96.1356890  18.2325760  60.3642410
  96.5853850  18.4768500  61.7890160  98.0499740   3.5165330  59.6664140
  98.5792500   2.7295130  59.5372090  98.6828060   4.1956520  59.8999670
 100.2437580   3.2540470  62.7209530  99.6140320   2.5527780  62.8879660
  99.7042720   4.0144600  62.5042690 111.4174590  19.4105270  62.3894390
 111.5926780  18.7243010  61.7455310 110.7196160  19.9352320  61.9971060
 100.3693140   2.5324450  75.1562020 100.0877410   3.0358050  74.3922840
 100.7512840   1.7346200  74.7904150  99.2602240  19.8000110  59.9429700
  99.9921060  19.5159390  59.3953590  99.5195910  19.5613390  60.8329080
  98.4217030  15.9164840  59.9476030  97.7925910  16.3849940  60.4961860
  98.5364860  15.0714060  60.3822220 106.9708600   1.9478030  75.7342490
 106.8574050   2.2672640  76.6294010 107.7878340   2.3490540  75.4379770
 109.7507090  19.0949560  75.2161180 110.5432410  18.5998790  75.0087140
 110.0440240  19.7739700  75.8236790 105.8766750   9.9670500  46.0977230
 105.7960800   9.0525110  45.8268940 105.4631170  10.4637570  45.3916940
 104.0084790  11.7449520  47.9786500 103.2326890  11.2649960  48.2685070
 104.6597720  11.0655170  47.8042660  98.0250620  12.0569330  48.8562260
  97.1935500  11.8018040  49.2558770  98.6331600  12.1280100  49.5920180
 108.0292220  16.1509710  46.7585630 107.5673750  15.3796950  47.0872800
 108.8417770  16.1775780  47.2638080  98.0051880  16.0909420  49.0520280
  98.3079920  15.2007160  48.8730500  98.7495470  16.6479640  48.8242530
  96.4342570   7.0171220  42.6404650  95.5459270   7.3587190  42.5384530
  96.7183760   6.8171540  41.7485480  94.3975580   9.6176870  48.5244350
  94.9691690   8.8499070  48.5247990  94.3977120   9.9165630  47.6150960
 104.2555530  18.4367720  46.3789620 103.6366970  18.8925220  45.8084060
 105.1107310  18.5919180  45.9779320 103.4493780  14.4206710  47.9856660
 103.3802060  13.4796650  47.8245790 104.2113640  14.5108120  48.5579230
  95.6400450   5.0261230  50.3113280  95.4603290   4.1286980  50.5916040
  95.2380530   5.5733100  50.9860230 104.4798950   7.2277090  48.2125590
 104.8563770   6.3548970  48.0999260 104.3818460   7.5635790  47.3216030
  98.6103960   5.6002720  43.6743030  98.7170710   6.5006450  43.9811790
  97.6996320   5.5520690  43.3837680 108.2623070   4.7227530  45.1453930
 109.0832690   4.2324100  45.1879410 108.2957150   5.3125190  45.8985770
  96.2587120   7.5221730  48.9195620  96.9397230   7.7860100  49.5383020
  95.9435170   6.6822600  49.2533630 100.4511690   8.5689090  48.0068210
 100.9589910   9.0670060  48.6473230 100.9824930   7.7924290  47.8307570
 112.5522620   6.7394280  51.7097560 111.8474790   7.1275990  51.1912670
 112.8180540   7.4344570  52.3118490  98.7347790   3.2087650  52.2731630
  98.7366230   3.7260040  51.4677530  97.9052100   2.7317830  52.2501560
 105.1218880  13.3206960  43.7721530 104.5036150  13.7856410  43.2084250
 105.6342130  14.0134440  44.1891040  99.9850640  12.8482830  50.4505130
  99.6520020  13.4751750  51.0926200 100.1617320  13.3744710  49.6706800
 108.4984550   6.6627910  47.9181470 107.7940120   6.9512800  48.4984580
 108.8596710   7.4728020  47.5581030  98.4163120   4.9197610  50.2802080
  98.7579930   5.7639660  49.9855950  97.4778930   5.0681350  50.3967420
  99.1969740  14.8163630  52.2654310  99.8143740  15.4914710  51.9838760
  98.3362860  15.2251610  52.1741810  94.4902080  14.0063490  41.1461160
  94.1130060  14.4950590  40.4146060  94.7475150  14.6788770  41.7767690
 110.1147330  16.2803040  50.1808950 109.4310850  16.9502150  50.1725620
 110.6541620  16.4783690  49.4153810 111.5671470   6.1082700  48.3090680
 110.6196380   6.1421680  48.4406110 111.8921460   6.9221650  48.6940040
 102.0991010   2.4079880  46.6046670 102.4065990   1.8526770  45.8882170
 101.1691710   2.5424340  46.4219660 107.6506070  18.1247170  48.8954130
 107.6633230  17.7209460  48.0276390 107.0981290  18.8994460  48.7915560
 108.9451490  14.8463390  43.9844300 108.8347820  13.9037720  44.1093720
 108.9419740  15.2079030  44.8707060 107.0491510  13.0277010  50.2236740
 107.4660300  12.8137120  49.3890200 107.7731330  13.2849800  50.7945360
 104.4871770  10.4728710  43.3406790 103.5601050  10.4066090  43.5695260
 104.6396590  11.4108840  43.2262030 104.4740850   6.7445710  40.3373950
 103.5344520   6.9059670  40.4226410 104.7924110   7.4631390  39.7909940
 110.9953610  11.4264230  50.3152980 110.1672240  11.4957320  49.8403110
 111.5904090  12.0118540  49.8468810 108.5169060  12.0349010  43.8442040
 107.8981480  11.6968560  43.1968340 108.4993510  11.3908770  44.5521230
 107.9595620   8.2133550  51.2607850 107.5466800   9.0387260  51.5147840
 107.2271570   7.6278590  51.0684210 100.0928410  10.9993450  46.1226520
  99.6885410  10.2870700  45.6272420 100.1791530  10.6546690  47.0114560
 100.5610110  14.6861010  48.2865730 100.2638400  14.0806480  47.6073510
 101.5109930  14.7238320  48.1755090  98.8057030   7.7736660  49.9025560
  99.3571620   7.8832000  49.1278810  99.3200540   8.1474260  50.6180790
 108.6495720  18.2592880  51.9488830 108.1726280  19.0665070  51.7561440
 107.9657510  17.6071210  52.1015040  99.6528540  14.4242700  54.9373530
  98.7557070  14.6482670  55.1846930  99.6781410  14.5477640  53.9884930
 106.6933760  11.2735820  40.8514790 107.1327040  10.4358250  40.7052610
 107.4062180  11.9065220  40.9378930  98.4799760  11.2956020  53.5130900
  98.3407530  12.1678820  53.8818300  97.5981120  10.9528830  53.3678840
 104.8029140  16.2131890  44.8196030 105.2425050  16.9556220  44.4051420
 104.7416030  16.4558460  45.7434990 100.2780110  17.2377720  55.7216050
 100.2495540  17.6420670  54.8544480 100.1145080  16.3088080  55.5587650
 110.2750900   2.5278630  39.1655830 109.9623560   2.6205460  40.0654900
 111.0363370   3.1059660  39.1153260  96.7933040   9.8938430  43.6233170
  96.6730640  10.6200520  43.0114440  96.4833930   9.1241340  43.1461080
 112.2294930  18.0204820  57.0180220 112.7054650  18.4987710  57.6969300
 112.8502090  17.9522310  56.2925720  94.4318410  13.0653570  49.4301810
  94.5098830  13.2002340  48.4857530  95.0460090  12.3569460  49.6229930
  95.6766040  14.7653760  45.8407990  95.2694120  14.9068350  44.9861590
  96.5679050  14.4813920  45.6379200 111.6328180  15.2117670  54.1780230
 111.7591240  14.9729550  53.2597410 111.6749560  14.3802210  54.6502310
 105.4944920  18.9145670  52.7475040 106.0089590  18.8253680  53.5497470
 104.6514000  19.2605370  53.0402950 107.4699320  19.2001010  42.1759040
 107.3100460  18.9103950  43.0740870 107.3046030  18.4241140  41.6404270
  99.9487700  18.9799540  43.9530660  99.7730180  18.0635080  43.7398460
  99.0943440  19.3386830  44.1928460 107.1725450  16.7088570  40.7357040
 106.4790610  16.7065860  40.0759320 107.9148310  16.2847890  40.3051210
 106.7375380  18.3351280  44.8105530 107.1932330  17.5540660  45.1244150
 107.0767900  19.0458100  45.3546710 111.4852190   7.2650130  55.1429970
 110.8696460   7.7729800  54.6145430 111.1648610   6.3648460  55.0855910
  94.4877930  14.1067740  51.9696270  94.6508970  13.6373100  51.1515640
  94.9530380  13.5991300  52.6345110  99.2596700   3.2373500  47.0056840
  98.8164850   4.0183040  46.6741360  99.8181690   3.5603390  47.7127780
 103.5466510   6.1042020  52.6092160 103.0845880   6.3125040  53.4212100
 103.1444620   5.2901370  52.3062830 108.5471020   7.3250970  53.7388820
 107.6964610   7.0256720  54.0597890 108.3872810   7.5692980  52.8272640
 105.6420730   8.8252720  55.8387610 105.9674140   7.9916470  55.4989840
 106.4301060   9.3481240  55.9865940 102.3755520   2.8584200  41.8862670
 101.7509700   2.8544070  42.6115980 102.2885640   1.9915160  41.4898640
 101.2972600   3.7820830  48.8646440 101.5944930   4.6883660  48.7838460
 101.8458160   3.2939610  48.2506010  99.0510920   8.3607070  44.7338090
  98.8251840   8.1444240  45.6384710  98.2703450   8.7935530  44.3884060
 106.2808680   8.3670440  43.3328740 105.6817570   9.0906240  43.1492360
 106.8288290   8.3047220  42.5505190 101.4910130   9.2592650  55.3998360
 101.3953730   8.3187380  55.2498760 102.3342110   9.4807720  55.0046430
 104.8873550   7.0033980  45.3632020 105.2803120   7.3206180  44.5500710
 105.2490400   6.1245860  45.4776540  96.6220670   5.6706320  53.5532140
  96.2284060   6.5181530  53.7604920  95.9339070   5.0332690  53.7440780
 103.1965720   5.7541290  56.6228880 102.5064040   5.5613490  57.2574970
 103.9398020   6.0375930  57.1553180  93.9237720   3.5934780  47.5862220
  93.6350770   4.1637640  48.2987200  94.6683480   3.1139230  47.9493450
  94.1107950   7.5354900  38.7964940  94.0282620   8.4785660  38.9379930
  93.7591010   7.3929810  37.9177290 105.4728690   9.5939730  49.4582800
 104.7409810  10.1026540  49.8072900 105.0753030   8.7769710  49.1571580
 101.9106080   6.2693930  47.8635290 101.9142140   5.8283880  47.0139830
 102.8057200   6.5911260  47.9707110  97.7608460   6.1520420  46.8229500
  97.4208510   6.6295650  47.5796550  96.9985780   5.6985540  46.4630600
 101.9726230   7.2706010  40.8542050 102.0939050   7.2292490  41.8027870
 101.5874740   8.1330160  40.6988780 105.9354600   5.0473410  48.8705740
 105.9527340   5.4982060  49.7147590 105.6870180   4.1479050  49.0839180
 100.9847730   9.5807150  40.2525350 100.4164630   9.1325400  39.6261260
 101.6936730   9.9399930  39.7190500 109.3625350   2.4605590  54.7092120
 109.6871120   1.7295250  55.2350100 109.3981860   2.1419230  53.8073110
  96.0616910  13.4819170  54.1292080  95.6771700  12.8412840  54.7275040
  96.3729100  14.1855290  54.6986810 102.2114050  10.3295710  49.6100700
 102.5784180   9.8554280  50.3562040 102.0219110  11.2037280  49.9509040
  95.0754540   5.0739400  45.7394170  94.7901460   4.7095070  46.5772790
  95.0133400   4.3419860  45.1257310 100.0013420   9.3704350  51.9284910
  99.6970490  10.2496330  52.1535270 100.9559880   9.4304140  51.9642350
  98.5295210  13.5765340  42.5251760  97.7557470  13.0362960  42.3650480
  99.2589840  13.0571950  42.1869520 109.2883190  12.5730700  48.3178150
 110.0082310  13.0685990  47.9274260 109.0865010  11.8948590  47.6732020
 104.7493130   3.9668660  42.4607540 103.9357740   3.4681830  42.3852850
 104.5555080   4.8066910  42.0443890 104.6701990  12.6439760  54.2047150
 104.6039300  11.7235430  53.9504740 104.0407130  12.7415200  54.9191790
 107.4641520   8.3388310  40.7569700 108.3521140   8.6505540  40.5821040
 107.4346610   7.4660560  40.3650280  98.5732610  13.2445720  46.1630570
  99.0911280  12.4413980  46.1087460  98.1216630  13.1824860  47.0047400
 103.4602110  14.5112000  41.4357870 103.8017810  15.2554230  40.9401190
 102.6314820  14.8243120  41.7982700  96.0577150  10.2107090  53.0756270
  95.6992090  10.8760940  53.6629610  95.7631710   9.3790640  53.4468890
  99.2590270  10.6691330  55.9595820  98.9590410  10.8148510  55.0623640
 100.0301510  10.1096620  55.8669210 104.6018720  15.4660330  53.9550950
 104.6163260  14.5341290  53.7369860 103.8943820  15.5520090  54.5940720
 109.7355790   9.6500150  40.2249560 109.6519510  10.0814370  39.3746000
 110.4549980  10.1098500  40.6576380 110.8129930  12.1067670  53.3019530
 110.0878120  12.6996450  53.1048920 111.3405390  12.0991210  52.5032900
 110.7643040  16.5042410  42.9531690 110.1219200  15.8498030  43.2275410
 110.3773700  16.9097500  42.1772360 106.3429520  13.8327840  46.8003380
 106.6953340  13.2355970  46.1404750 105.4591850  13.5072070  46.9711630
 102.4292800  14.5925530  44.2073790 103.1163930  15.1394740  44.5881380
 101.6425220  15.1366260  44.2423400  94.5685200  10.2098350  39.6990870
  95.4380050  10.4923150  39.9826790  94.0775520  11.0234220  39.5839680
 101.7320010  11.5971560  43.8199150 102.1882790  12.4076810  44.0459340
 101.3808220  11.2794700  44.6517640 104.0352620  17.1077900  51.0491450
 104.6794840  17.3137280  51.7264870 104.3982060  16.3466300  50.5962300
  97.6331790   1.9409210  44.2921670  97.5046420   1.9327110  45.2406590
  96.8093810   2.2792300  43.9412680 105.3084700  15.1110250  49.7668900
 105.9506930  14.4103410  49.8801070 105.8334050  15.8908690  49.5865790
 109.1540420  15.3958870  39.4908040 108.9278000  14.6789310  40.0832680
 108.7636620  15.1471310  38.6529790 107.0822320  15.9105150  52.9704960
 107.4178560  16.4971840  53.6482880 106.1622660  15.7797860  53.2002750
  94.9356450  19.4225730  40.2652500  95.2954090  20.0215070  39.6109770
  94.7948790  19.9685620  41.0387530  94.6325720   3.7000330  53.7528370
  93.9184240   3.8997250  54.3580980  95.0520760   2.9239900  54.1243170
 108.7356670  13.3130810  41.1522200 108.4478370  13.7743500  41.9400080
 109.5308840  12.8528580  41.4206420  94.9198310  17.6880590  54.7394900
  95.0289430  16.7475330  54.5990290  94.2678870  17.9535340  54.0908630
 102.9110900  15.9596480  56.1393020 102.5907770  15.2405720  56.6838710
 102.2369260  16.6351550  56.2129080 100.9525070  16.8056930  41.0826170
 100.9435170  17.5386620  40.4670680 100.0323430  16.5588510  41.1753130
  96.5531710  12.0271820  41.8272930  95.9459660  12.7670720  41.8368230
  97.0281060  12.1171180  41.0011130 106.1264500   6.1922640  51.5029820
 106.4945320   5.3717850  51.8309390 105.2662700   6.2524530  51.9185470
 109.4926530   5.1479580  42.3117380 108.8639690   5.2525250  41.5975610
 108.9978450   5.3676360  43.1011260 103.9384670  16.8685170  39.7451360
 104.0396650  16.6649160  38.8153340 103.0386410  16.6143450  39.9499140
 101.4610560   7.4265530  43.7275260 100.7526710   7.8951870  44.1688870
 101.7455040   6.7687540  44.3620450 103.0866490   8.8462230  51.7267790
 103.5851740   9.3208050  52.3919640 103.2289440   7.9225750  51.9337820
 105.4925990   4.1516190  45.1671050 105.3693770   4.1702320  44.2180560
 106.4410550   4.1995130  45.2869450 102.5802780  19.3871490  44.4399030
 102.8344280  19.3492880  43.5178400 101.6315260  19.2604820  44.4327280
  99.6645580   5.7350610  41.1025970 100.5136110   6.1720760  41.0366160
  99.2976850   6.0470870  41.9298030 110.2933350   5.0630190  52.5696180
 109.7906950   5.8035590  52.9089990 111.1090010   5.4514190  52.2532970
 108.5855360  10.3063370  46.0157540 107.6445500  10.3213600  46.1905230
 108.8999430   9.5199330  46.4617840  98.5637000  11.9882970  39.5761500
  99.3300270  11.8764330  40.1386930  98.6411690  11.2920940  38.9238270
  97.2583760   9.4208040  40.2594390  97.3387350   8.4735550  40.3711790
  98.1503510   9.7514920  40.3655050 110.5880940  17.4772220  47.6911800
 110.7128360  18.3003390  48.1635610 111.4546500  17.2662950  47.3435950
  98.0598470  19.5703430  47.3628930  98.7960950  19.0218890  47.6337500
  98.4439390  20.4359440  47.2234920  94.9443950  15.6377000  43.2370440
  94.0183730  15.8798140  43.2275850  95.4100380  16.4651260  43.1155190
  97.0656750  18.7549500  56.5514510  97.8669480  19.0761550  56.9649910
  96.5508570  18.3945080  57.2734420 101.1700780  18.7433740  39.1854500
 101.9629390  19.0322570  38.7336290 100.6505130  18.3125910  38.5066980
 105.9021380  14.8629370  56.4989920 105.2959540  14.8860970  55.7585670
 105.5975490  14.1312410  57.0357170 107.3321750  18.5909660  55.1099330
 108.2843500  18.5067680  55.0599570 107.1849970  19.2551370  55.7833120
 110.2230950  17.9703870  40.6091240 109.9372460  17.5569010  39.7945420
 110.0250500  18.8991580  40.4891760  94.7854560  11.2422960  55.4950560
  95.2893580  10.6630240  56.0666790  94.0461980  11.5263190  56.0326930
 101.6878180  13.9637150  39.0496850 101.5828820  13.3489500  39.7758230
 101.5202400  13.4403040  38.2659860 101.8392500  12.6493950  55.0286080
 101.0738170  13.2178950  54.9440750 102.0208460  12.3570160  54.1354310
 104.9280910  13.0257180  39.6538840 104.3791010  13.4726480  40.2981580
 105.5500170  12.5206430  40.1776510 108.9815850  14.3799280  55.5861100
 109.7225320  14.7175040  55.0828560 108.2188530  14.5491340  55.0330870
  96.8177640   9.3852550  56.3900630  96.8582980   9.0866420  57.2985860
  97.6723140   9.7860160  56.2308150 100.5956030  11.9848100  41.5504140
 101.0172450  11.8187970  42.3935530 100.7206870  11.1748330  41.0559280
  98.7583450   7.9644650  54.3575120  98.2279910   7.4735600  53.7298460
  99.4271520   8.3928850  53.8233050 103.1083670  11.0085710  38.7981240
 103.6289330  10.2934730  38.4322390 103.7552070  11.6471580  39.0981750
 107.6561510  12.4314110  54.1216310 108.0702530  12.5859190  54.9706730
 106.7212510  12.5569330  54.2842090 108.1283680   9.7710270  56.1255460
 108.7104450   9.0162590  56.0375940 108.3045450  10.3017710  55.3486940
  99.2455750   4.9307020  54.4372410  99.1512620   4.3127770  53.7123280
  98.6653140   5.6573310  54.2102320 102.0117190   3.4880260  51.4699800
 101.5634490   3.5104520  50.6245350 101.3782390   3.0899280  52.0670100
 102.4176740  12.3834590  52.0912240 102.8364850  13.2267320  51.9188480
 101.4985370  12.5206630  51.8619020 104.7540640  10.1150770  53.4750080
 104.8736850   9.5191910  54.2144920 105.6134640  10.1520460  53.0551380
 107.0928540  10.6687960  52.0512590 106.5663760  11.1930580  51.4477730
 107.4359880  11.3015350  52.6822320  99.4914930   8.0581330  38.4962300
  99.2903990   7.1948690  38.8575640  99.3206980   7.9714690  37.5583900
 100.2684160  18.6887600  53.2069970  99.7305250  19.4133660  52.8878670
 100.5218120  18.2117940  52.4167310 101.5209410   6.6572120  54.7325900
 102.1109100   6.3487970  55.4203720 100.7029650   6.1851870  54.8885800
 106.3402840   6.2737930  54.9658920 105.6518360   5.6119470  54.9008910
 107.0608860   5.8276200  55.4107380 106.9703240   2.8689560  41.0249180
 107.2505530   2.0257460  41.3808600 106.1968970   3.1012670  41.5387930
  98.2897730   5.1581950  38.4840180  98.5923630   5.1649380  37.5759330
  99.0292320   4.8079810  38.9807840 103.1246370  19.9238810  53.4656620
 103.0505070  20.8273950  53.7728990 102.2225210  19.6050710  53.4378690
 101.5082660   4.1016570  39.4696380 101.1604660   3.4240560  38.8898830
 101.7095430   3.6406080  40.2839770 103.6731700  19.0897320  41.0882980
 104.5682490  19.4282290  41.1101740 103.7049330  18.3676730  40.4607260
  97.3127860  14.4624370  39.3169980  97.7502730  15.0054040  39.9727560
  97.7975590  13.6371320  39.3266320  94.5273660  17.2513400  46.7690240
  94.8576670  16.3834460  46.5368880  94.9564660  17.4571920  47.5995200
  99.1235580  15.5822410  44.4292210  98.8231120  15.4587380  45.3296120
  99.0173070  14.7231000  44.0207940  95.0163870  18.1183990  49.5071870
  94.5794860  18.2984790  50.3396020  95.5841550  18.8758610  49.3653590
 110.6526050  17.6200990  53.7949180 110.0528040  17.6793550  53.0513100
 110.7819950  16.6805970  53.9246030 111.8927500  15.3618810  39.1318890
 111.0620460  15.4295460  39.6026120 112.0699330  16.2522930  38.8285750
 111.3483960  12.1066290  41.6353090 112.1102870  12.6762940  41.7412780
 111.3638330  11.5393490  42.4061400  94.8488300  10.6304220  45.8660750
  94.1937140  10.3615860  45.2220450  95.6866250  10.5208700  45.4162730
 112.3543930  12.9616390  46.4795020 112.7252760  12.1783710  46.0730990
 112.9945860  13.6505490  46.3012320 109.3377690  14.3452970  51.8925340
 108.5237530  14.7750130  52.1551130 109.7451890  14.9571380  51.2794390
 111.4003130  12.4000660  38.7925610 111.6751970  13.3079540  38.6644830
 111.2113870  12.3363190  39.7287600 107.7978740   5.4245510  40.0879240
 108.2163620   5.2376490  39.2475900 107.4914800   4.5724560  40.3982170
 111.2968470  10.3369650  43.7855040 110.9212070   9.5697580  43.3536330
 110.5671590  10.7192350  44.2729970  95.8864230  11.0156790  50.4064090
  96.2537270  10.9284190  51.2860110  95.3175050  10.2523340  50.3070950
 110.6868090   9.4841170  53.4194560 110.4554180   9.2553920  52.5192510
 110.9472640  10.4040720  53.3739450  95.4380230   7.9265880  54.3122510
  94.5436280   7.8932640  54.6516220  95.9777780   8.1252670  55.0773760
 109.1256160   4.7097600  56.1974260 110.0026340   4.7181000  56.5808260
 109.1377000   3.9728440  55.5866610  94.0626380   7.8403150  41.8086080
  93.1590460   8.1033350  41.6337740  94.5467000   8.1114320  41.0286040
 110.5719430   8.5627140  47.0862280 111.0956910   8.0689790  46.4552450
 111.1578850   8.6977500  47.8309850 110.7509150   8.6467010  50.6081830
 109.8011860   8.6130550  50.7226820 110.9322160   9.5567120  50.3731600
  96.6053590   6.8968690  39.7180460  97.3145290   6.4751910  39.2327740
  95.8893530   6.9643920  39.0863810  96.2527750   2.9508020  38.7583110
  96.9755880   3.4916960  39.0764330  96.5252270   2.6771440  37.8824650
 110.0619400   7.8200490  43.0254690 110.5578520   7.5871360  43.8103570
 109.8635470   6.9812330  42.6092330  95.9419940   2.2014210  48.6605730
  96.5896130   1.6511590  48.2200890  96.3621780   2.4557360  49.4821540
 111.4906560   6.4561440  45.5592370 111.3805840   6.3017480  46.4974640
 112.2514150   5.9282380  45.3167780 109.8372280   2.3955570  52.0175370
 110.4744500   3.0089710  52.3834560 109.9847170   2.4316230  51.0724600
 112.3796830   4.2869360  38.7998510 113.3046140   4.1550540  38.5916800
 112.3572620   4.3662180  39.7534960 112.4535320   5.0580020  41.4255220
 111.6586820   4.9925140  41.9548130 112.6578600   5.9930660  41.4140570
 109.3953740  19.0971570  45.4193610 109.9912810  18.7756140  44.7428030
 109.6531890  18.6243390  46.2106880  95.6951940   2.3569880  51.4031050
  95.3466760   2.8133700  52.1689230  95.3639640   1.4627010  51.4853480
  97.3016310  15.5289480  55.5684240  97.2585940  15.1582390  56.4498700
  97.4327320  16.4667050  55.7086060 101.0022340  17.0849070  51.1693960
 100.7613700  17.3523630  50.2824480 101.9424980  17.2554800  51.2244820
 103.2076760   3.5481760  54.9250470 103.1465650   4.1403590  55.6745880
 104.1477140   3.4407720  54.7800730 105.8451320   3.2051820  54.5642760
 106.4591730   3.5231110  53.9023840 106.3900880   2.7200410  55.1838620
 112.2626500  19.1043450  51.9704600 111.7684780  19.5012320  51.2531730
 111.6539790  18.4792660  52.3641880  97.1404340  18.4751730  52.6882020
  96.5464660  18.3436430  53.4272060  97.1328180  17.6389870  52.2224120
 107.4931340   3.9754830  52.2753770 107.1644700   3.1606590  51.8955500
 108.4413640   3.9324640  52.1519460 109.9465950  19.7466870  49.2491340
 109.4868920  20.4982680  48.8749360 109.3178410  19.0273340  49.1906140
  96.7716570  15.8410110  51.6390060  96.0450630  15.2215400  51.5716010
  96.8325720  16.2350720  50.7688140 100.3761670  18.0555110  48.4239470
 100.8926690  17.4442470  47.8987730 101.0259050  18.5583890  48.9150480
 103.1157170  18.9463600  49.2508450 103.4034980  18.6917900  48.3741460
 103.6280390  18.3940960  49.8414020 104.3334180   2.6853800  49.8304960
 103.5505970   3.1599300  50.1101720 104.0397110   1.7808630  49.7218140
 108.8855250   3.3876900  47.8754050 109.3263340   3.3322000  47.0275650
 108.6162840   4.3034910  47.9464230 110.7493820   3.0192140  45.8862870
 110.6882220   2.0753360  45.7393890 111.5285850   3.1272230  46.4316330
  95.0546570  19.1584500  44.8486820  94.8868610  18.5255180  45.5468710
  94.1881080  19.3643900  44.4981010  95.6774590   2.9901280  42.3518680
  96.4353950   3.1030160  41.7782710  95.2151760   3.8270480  42.3062110
 102.2188400   5.1040550  45.3420990 101.4062910   4.7297440  45.0016870
 102.7230040   4.3485630  45.6442180 106.7213380   1.7683000  46.5804060
 107.3242750   2.3403210  47.0552580 105.9806370   2.3322440  46.3577960
 109.8647980   2.1704560  41.8544340 110.0598610   3.0688010  42.1211770
 109.0777850   1.9391640  42.3477290  96.6609270  17.8517730  42.2936960
  96.1356890  18.2325760  41.5898920  96.5853850  18.4768500  43.0146670
  98.0499740   3.5165330  40.8920650  98.5792500   2.7295130  40.7628600
  98.6828060   4.1956520  41.1256180 100.2437580   3.2540470  43.9466040
  99.6140320   2.5527780  44.1136170  99.7042720   4.0144600  43.7299200
 103.1829530  19.8679700  56.6176650 104.1096840  19.6323970  56.6612610
 103.1679960  20.6951700  56.1362680 111.4174590  19.4105270  43.6150900
 111.5926780  18.7243010  42.9711820 110.7196160  19.9352320  43.2227570
 100.3693140   2.5324450  56.3818530 100.0877410   3.0358050  55.6179350
 100.7512840   1.7346200  56.0160660  99.2602240  19.8000110  41.1686210
  99.9921060  19.5159390  40.6210100  99.5195910  19.5613390  42.0585590
  98.4217030  15.9164840  41.1732540  97.7925910  16.3849940  41.7218370
  98.5364860  15.0714060  41.6078730 106.9708600   1.9478030  56.9599000
 106.8574050   2.2672640  57.8550520 107.7878340   2.3490540  56.6636280
 109.7507090  19.0949560  56.4417690 110.5432410  18.5998790  56.2343650
 110.0440240  19.7739700  57.0493300 105.8766750   9.9670500  27.3233740
 105.7960800   9.0525110  27.0525450 105.4631170  10.4637570  26.6173450
 104.0084790  11.7449520  29.2043010 103.2326890  11.2649960  29.4941580
 104.6597720  11.0655170  29.0299170  98.0250620  12.0569330  30.0818770
  97.1935500  11.8018040  30.4815280  98.6331600  12.1280100  30.8176690
 108.0292220  16.1509710  27.9842140 107.5673750  15.3796950  28.3129310
 108.8417770  16.1775780  28.4894590  98.0051880  16.0909420  30.2776790
  98.3079920  15.2007160  30.0987010  98.7495470  16.6479640  30.0499040
  96.4342570   7.0171220  23.8661160  95.5459270   7.3587190  23.7641040
  96.7183760   6.8171540  22.9741990  94.3975580   9.6176870  29.7500860
  94.9691690   8.8499070  29.7504500  94.3977120   9.9165630  28.8407470
 104.2555530  18.4367720  27.6046130 103.6366970  18.8925220  27.0340570
 105.1107310  18.5919180  27.2035830 103.4493780  14.4206710  29.2113170
 103.3802060  13.4796650  29.0502300 104.2113640  14.5108120  29.7835740
  95.6400450   5.0261230  31.5369790  95.4603290   4.1286980  31.8172550
  95.2380530   5.5733100  32.2116740 104.4798950   7.2277090  29.4382100
 104.8563770   6.3548970  29.3255770 104.3818460   7.5635790  28.5472540
  98.6103960   5.6002720  24.8999540  98.7170710   6.5006450  25.2068300
  97.6996320   5.5520690  24.6094190 108.2623070   4.7227530  26.3710440
 109.0832690   4.2324100  26.4135920 108.2957150   5.3125190  27.1242280
  96.2587120   7.5221730  30.1452130  96.9397230   7.7860100  30.7639530
  95.9435170   6.6822600  30.4790140 100.4511690   8.5689090  29.2324720
 100.9589910   9.0670060  29.8729740 100.9824930   7.7924290  29.0564080
 112.5522620   6.7394280  32.9354070 111.8474790   7.1275990  32.4169180
 112.8180540   7.4344570  33.5375000  98.7347790   3.2087650  33.4988140
  98.7366230   3.7260040  32.6934040  97.9052100   2.7317830  33.4758070
 105.1218880  13.3206960  24.9978040 104.5036150  13.7856410  24.4340760
 105.6342130  14.0134440  25.4147550  99.9850640  12.8482830  31.6761640
  99.6520020  13.4751750  32.3182710 100.1617320  13.3744710  30.8963310
 108.4984550   6.6627910  29.1437980 107.7940120   6.9512800  29.7241090
 108.8596710   7.4728020  28.7837540  98.4163120   4.9197610  31.5058590
  98.7579930   5.7639660  31.2112460  97.4778930   5.0681350  31.6223930
  99.1969740  14.8163630  33.4910820  99.8143740  15.4914710  33.2095270
  98.3362860  15.2251610  33.3998320  94.4902080  14.0063490  22.3717670
  94.1130060  14.4950590  21.6402570  94.7475150  14.6788770  23.0024200
 110.1147330  16.2803040  31.4065460 109.4310850  16.9502150  31.3982130
 110.6541620  16.4783690  30.6410320 111.5671470   6.1082700  29.5347190
 110.6196380   6.1421680  29.6662620 111.8921460   6.9221650  29.9196550
 102.0991010   2.4079880  27.8303180 102.4065990   1.8526770  27.1138680
 101.1691710   2.5424340  27.6476170 107.6506070  18.1247170  30.1210640
 107.6633230  17.7209460  29.2532900 107.0981290  18.8994460  30.0172070
 108.9451490  14.8463390  25.2100810 108.8347820  13.9037720  25.3350230
 108.9419740  15.2079030  26.0963570 107.0491510  13.0277010  31.4493250
 107.4660300  12.8137120  30.6146710 107.7731330  13.2849800  32.0201870
 104.4871770  10.4728710  24.5663300 103.5601050  10.4066090  24.7951770
 104.6396590  11.4108840  24.4518540 104.4740850   6.7445710  21.5630460
 103.5344520   6.9059670  21.6482920 104.7924110   7.4631390  21.0166450
 110.9953610  11.4264230  31.5409490 110.1672240  11.4957320  31.0659620
 111.5904090  12.0118540  31.0725320 108.5169060  12.0349010  25.0698550
 107.8981480  11.6968560  24.4224850 108.4993510  11.3908770  25.7777740
 107.9595620   8.2133550  32.4864360 107.5466800   9.0387260  32.7404350
 107.2271570   7.6278590  32.2940720 100.0928410  10.9993450  27.3483030
  99.6885410  10.2870700  26.8528930 100.1791530  10.6546690  28.2371070
 100.5610110  14.6861010  29.5122240 100.2638400  14.0806480  28.8330020
 101.5109930  14.7238320  29.4011600  98.8057030   7.7736660  31.1282070
  99.3571620   7.8832000  30.3535320  99.3200540   8.1474260  31.8437300
 108.6495720  18.2592880  33.1745340 108.1726280  19.0665070  32.9817950
 107.9657510  17.6071210  33.3271550  99.6528540  14.4242700  36.1630040
  98.7557070  14.6482670  36.4103440  99.6781410  14.5477640  35.2141440
 106.6933760  11.2735820  22.0771300 107.1327040  10.4358250  21.9309120
 107.4062180  11.9065220  22.1635440  98.4799760  11.2956020  34.7387410
  98.3407530  12.1678820  35.1074810  97.5981120  10.9528830  34.5935350
 104.8029140  16.2131890  26.0452540 105.2425050  16.9556220  25.6307930
 104.7416030  16.4558460  26.9691500 100.2780110  17.2377720  36.9472560
 100.2495540  17.6420670  36.0800990 100.1145080  16.3088080  36.7844160
 110.2750900   2.5278630  20.3912340 109.9623560   2.6205460  21.2911410
 111.0363370   3.1059660  20.3409770  96.7933040   9.8938430  24.8489680
  96.6730640  10.6200520  24.2370950  96.4833930   9.1241340  24.3717590
 112.2294930  18.0204820  38.2436730 112.7054650  18.4987710  38.9225810
 112.8502090  17.9522310  37.5182230  94.4318410  13.0653570  30.6558320
  94.5098830  13.2002340  29.7114040  95.0460090  12.3569460  30.8486440
  95.6766040  14.7653760  27.0664500  95.2694120  14.9068350  26.2118100
  96.5679050  14.4813920  26.8635710 111.6328180  15.2117670  35.4036740
 111.7591240  14.9729550  34.4853920 111.6749560  14.3802210  35.8758820
 105.4944920  18.9145670  33.9731550 106.0089590  18.8253680  34.7753980
 104.6514000  19.2605370  34.2659460 107.4699320  19.2001010  23.4015550
 107.3100460  18.9103950  24.2997380 107.3046030  18.4241140  22.8660780
  99.9487700  18.9799540  25.1787170  99.7730180  18.0635080  24.9654970
  99.0943440  19.3386830  25.4184970 107.1725450  16.7088570  21.9613550
 106.4790610  16.7065860  21.3015830 107.9148310  16.2847890  21.5307720
 106.7375380  18.3351280  26.0362040 107.1932330  17.5540660  26.3500660
 107.0767900  19.0458100  26.5803220 111.4852190   7.2650130  36.3686480
 110.8696460   7.7729800  35.8401940 111.1648610   6.3648460  36.3112420
  94.4877930  14.1067740  33.1952780  94.6508970  13.6373100  32.3772150
  94.9530380  13.5991300  33.8601620  99.2596700   3.2373500  28.2313350
  98.8164850   4.0183040  27.8997870  99.8181690   3.5603390  28.9384290
 103.5466510   6.1042020  33.8348670 103.0845880   6.3125040  34.6468610
 103.1444620   5.2901370  33.5319340 108.5471020   7.3250970  34.9645330
 107.6964610   7.0256720  35.2854400 108.3872810   7.5692980  34.0529150
 105.6420730   8.8252720  37.0644120 105.9674140   7.9916470  36.7246350
 106.4301060   9.3481240  37.2122450 102.3755520   2.8584200  23.1119180
 101.7509700   2.8544070  23.8372490 102.2885640   1.9915160  22.7155150
 101.2972600   3.7820830  30.0902950 101.5944930   4.6883660  30.0094970
 101.8458160   3.2939610  29.4762520  99.0510920   8.3607070  25.9594600
  98.8251840   8.1444240  26.8641220  98.2703450   8.7935530  25.6140570
 106.2808680   8.3670440  24.5585250 105.6817570   9.0906240  24.3748870
 106.8288290   8.3047220  23.7761700 101.4910130   9.2592650  36.6254870
 101.3953730   8.3187380  36.4755270 102.3342110   9.4807720  36.2302940
 104.8873550   7.0033980  26.5888530 105.2803120   7.3206180  25.7757220
 105.2490400   6.1245860  26.7033050  96.6220670   5.6706320  34.7788650
  96.2284060   6.5181530  34.9861430  95.9339070   5.0332690  34.9697290
 103.1965720   5.7541290  37.8485390 102.5064040   5.5613490  38.4831480
 103.9398020   6.0375930  38.3809690  93.9237720   3.5934780  28.8118730
  93.6350770   4.1637640  29.5243710  94.6683480   3.1139230  29.1749960
  94.1107950   7.5354900  20.0221450  94.0282620   8.4785660  20.1636440
  93.7591010   7.3929810  19.1433800 105.4728690   9.5939730  30.6839310
 104.7409810  10.1026540  31.0329410 105.0753030   8.7769710  30.3828090
 101.9106080   6.2693930  29.0891800 101.9142140   5.8283880  28.2396340
 102.8057200   6.5911260  29.1963620  97.7608460   6.1520420  28.0486010
  97.4208510   6.6295650  28.8053060  96.9985780   5.6985540  27.6887110
 101.9726230   7.2706010  22.0798560 102.0939050   7.2292490  23.0284380
 101.5874740   8.1330160  21.9245290 105.9354600   5.0473410  30.0962250
 105.9527340   5.4982060  30.9404100 105.6870180   4.1479050  30.3095690
 100.9847730   9.5807150  21.4781860 100.4164630   9.1325400  20.8517770
 101.6936730   9.9399930  20.9447010 109.3625350   2.4605590  35.9348630
 109.6871120   1.7295250  36.4606610 109.3981860   2.1419230  35.0329620
  96.0616910  13.4819170  35.3548590  95.6771700  12.8412840  35.9531550
  96.3729100  14.1855290  35.9243320 102.2114050  10.3295710  30.8357210
 102.5784180   9.8554280  31.5818550 102.0219110  11.2037280  31.1765550
  95.0754540   5.0739400  26.9650680  94.7901460   4.7095070  27.8029300
  95.0133400   4.3419860  26.3513820 100.0013420   9.3704350  33.1541420
  99.6970490  10.2496330  33.3791780 100.9559880   9.4304140  33.1898860
  98.5295210  13.5765340  23.7508270  97.7557470  13.0362960  23.5906990
  99.2589840  13.0571950  23.4126030 109.2883190  12.5730700  29.5434660
 110.0082310  13.0685990  29.1530770 109.0865010  11.8948590  28.8988530
 104.7493130   3.9668660  23.6864050 103.9357740   3.4681830  23.6109360
 104.5555080   4.8066910  23.2700400 104.6701990  12.6439760  35.4303660
 104.6039300  11.7235430  35.1761250 104.0407130  12.7415200  36.1448300
 107.4641520   8.3388310  21.9826210 108.3521140   8.6505540  21.8077550
 107.4346610   7.4660560  21.5906790  98.5732610  13.2445720  27.3887080
  99.0911280  12.4413980  27.3343970  98.1216630  13.1824860  28.2303910
 103.4602110  14.5112000  22.6614380 103.8017810  15.2554230  22.1657700
 102.6314820  14.8243120  23.0239210  96.0577150  10.2107090  34.3012780
  95.6992090  10.8760940  34.8886120  95.7631710   9.3790640  34.6725400
  99.2590270  10.6691330  37.1852330  98.9590410  10.8148510  36.2880150
 100.0301510  10.1096620  37.0925720 104.6018720  15.4660330  35.1807460
 104.6163260  14.5341290  34.9626370 103.8943820  15.5520090  35.8197230
 109.7355790   9.6500150  21.4506070 109.6519510  10.0814370  20.6002510
 110.4549980  10.1098500  21.8832890 110.8129930  12.1067670  34.5276040
 110.0878120  12.6996450  34.3305430 111.3405390  12.0991210  33.7289410
 110.7643040  16.5042410  24.1788200 110.1219200  15.8498030  24.4531920
 110.3773700  16.9097500  23.4028870 106.3429520  13.8327840  28.0259890
 106.6953340  13.2355970  27.3661260 105.4591850  13.5072070  28.1968140
 102.4292800  14.5925530  25.4330300 103.1163930  15.1394740  25.8137890
 101.6425220  15.1366260  25.4679910  94.5685200  10.2098350  20.9247380
  95.4380050  10.4923150  21.2083300  94.0775520  11.0234220  20.8096190
 101.7320010  11.5971560  25.0455660 102.1882790  12.4076810  25.2715850
 101.3808220  11.2794700  25.8774150 104.0352620  17.1077900  32.2747960
 104.6794840  17.3137280  32.9521380 104.3982060  16.3466300  31.8218810
  97.6331790   1.9409210  25.5178180  97.5046420   1.9327110  26.4663100
  96.8093810   2.2792300  25.1669190 105.3084700  15.1110250  30.9925410
 105.9506930  14.4103410  31.1057580 105.8334050  15.8908690  30.8122300
 109.1540420  15.3958870  20.7164550 108.9278000  14.6789310  21.3089190
 108.7636620  15.1471310  19.8786300 107.0822320  15.9105150  34.1961470
 107.4178560  16.4971840  34.8739390 106.1622660  15.7797860  34.4259260
  94.9356450  19.4225730  21.4909010  95.2954090  20.0215070  20.8366280
  94.7948790  19.9685620  22.2644040  94.6325720   3.7000330  34.9784880
  93.9184240   3.8997250  35.5837490  95.0520760   2.9239900  35.3499680
 108.7356670  13.3130810  22.3778710 108.4478370  13.7743500  23.1656590
 109.5308840  12.8528580  22.6462930  94.9198310  17.6880590  35.9651410
  95.0289430  16.7475330  35.8246800  94.2678870  17.9535340  35.3165140
 102.9110900  15.9596480  37.3649530 102.5907770  15.2405720  37.9095220
 102.2369260  16.6351550  37.4385590 100.9525070  16.8056930  22.3082680
 100.9435170  17.5386620  21.6927190 100.0323430  16.5588510  22.4009640
  96.5531710  12.0271820  23.0529440  95.9459660  12.7670720  23.0624740
  97.0281060  12.1171180  22.2267640 106.1264500   6.1922640  32.7286330
 106.4945320   5.3717850  33.0565900 105.2662700   6.2524530  33.1441980
 109.4926530   5.1479580  23.5373890 108.8639690   5.2525250  22.8232120
 108.9978450   5.3676360  24.3267770 103.9384670  16.8685170  20.9707870
 104.0396650  16.6649160  20.0409850 103.0386410  16.6143450  21.1755650
 101.4610560   7.4265530  24.9531770 100.7526710   7.8951870  25.3945380
 101.7455040   6.7687540  25.5876960 103.0866490   8.8462230  32.9524300
 103.5851740   9.3208050  33.6176150 103.2289440   7.9225750  33.1594330
 105.4925990   4.1516190  26.3927560 105.3693770   4.1702320  25.4437070
 106.4410550   4.1995130  26.5125960 102.5802780  19.3871490  25.6655540
 102.8344280  19.3492880  24.7434910 101.6315260  19.2604820  25.6583790
  99.6645580   5.7350610  22.3282480 100.5136110   6.1720760  22.2622670
  99.2976850   6.0470870  23.1554540 110.2933350   5.0630190  33.7952690
 109.7906950   5.8035590  34.1346500 111.1090010   5.4514190  33.4789480
 108.5855360  10.3063370  27.2414050 107.6445500  10.3213600  27.4161740
 108.8999430   9.5199330  27.6874350  98.5637000  11.9882970  20.8018010
  99.3300270  11.8764330  21.3643440  98.6411690  11.2920940  20.1494780
  97.2583760   9.4208040  21.4850900  97.3387350   8.4735550  21.5968300
  98.1503510   9.7514920  21.5911560 110.5880940  17.4772220  28.9168310
 110.7128360  18.3003390  29.3892120 111.4546500  17.2662950  28.5692460
  98.0598470  19.5703430  28.5885440  98.7960950  19.0218890  28.8594010
  98.4439390  20.4359440  28.4491430  94.9443950  15.6377000  24.4626950
  94.0183730  15.8798140  24.4532360  95.4100380  16.4651260  24.3411700
  97.0656750  18.7549500  37.7771020  97.8669480  19.0761550  38.1906420
  96.5508570  18.3945080  38.4990930 101.1700780  18.7433740  20.4111010
 101.9629390  19.0322570  19.9592800 100.6505130  18.3125910  19.7323490
 105.9021380  14.8629370  37.7246430 105.2959540  14.8860970  36.9842180
 105.5975490  14.1312410  38.2613680 107.3321750  18.5909660  36.3355840
 108.2843500  18.5067680  36.2856080 107.1849970  19.2551370  37.0089630
 110.2230950  17.9703870  21.8347750 109.9372460  17.5569010  21.0201930
 110.0250500  18.8991580  21.7148270  94.7854560  11.2422960  36.7207070
  95.2893580  10.6630240  37.2923300  94.0461980  11.5263190  37.2583440
 101.6878180  13.9637150  20.2753360 101.5828820  13.3489500  21.0014740
 101.5202400  13.4403040  19.4916370 101.8392500  12.6493950  36.2542590
 101.0738170  13.2178950  36.1697260 102.0208460  12.3570160  35.3610820
 104.9280910  13.0257180  20.8795350 104.3791010  13.4726480  21.5238090
 105.5500170  12.5206430  21.4033020 108.9815850  14.3799280  36.8117610
 109.7225320  14.7175040  36.3085070 108.2188530  14.5491340  36.2587380
  96.8177640   9.3852550  37.6157140  96.8582980   9.0866420  38.5242370
  97.6723140   9.7860160  37.4564660 100.5956030  11.9848100  22.7760650
 101.0172450  11.8187970  23.6192040 100.7206870  11.1748330  22.2815790
  98.7583450   7.9644650  35.5831630  98.2279910   7.4735600  34.9554970
  99.4271520   8.3928850  35.0489560 103.1083670  11.0085710  20.0237750
 103.6289330  10.2934730  19.6578900 103.7552070  11.6471580  20.3238260
 107.6561510  12.4314110  35.3472820 108.0702530  12.5859190  36.1963240
 106.7212510  12.5569330  35.5098600 108.1283680   9.7710270  37.3511970
 108.7104450   9.0162590  37.2632450 108.3045450  10.3017710  36.5743450
  99.2455750   4.9307020  35.6628920  99.1512620   4.3127770  34.9379790
  98.6653140   5.6573310  35.4358830 102.0117190   3.4880260  32.6956310
 101.5634490   3.5104520  31.8501860 101.3782390   3.0899280  33.2926610
 102.4176740  12.3834590  33.3168750 102.8364850  13.2267320  33.1444990
 101.4985370  12.5206630  33.0875530 104.7540640  10.1150770  34.7006590
 104.8736850   9.5191910  35.4401430 105.6134640  10.1520460  34.2807890
 107.0928540  10.6687960  33.2769100 106.5663760  11.1930580  32.6734240
 107.4359880  11.3015350  33.9078830  99.4914930   8.0581330  19.7218810
  99.2903990   7.1948690  20.0832150  99.3206980   7.9714690  18.7840410
 100.2684160  18.6887600  34.4326480  99.7305250  19.4133660  34.1135180
 100.5218120  18.2117940  33.6423820 101.5209410   6.6572120  35.9582410
 102.1109100   6.3487970  36.6460230 100.7029650   6.1851870  36.1142310
 106.3402840   6.2737930  36.1915430 105.6518360   5.6119470  36.1265420
 107.0608860   5.8276200  36.6363890 106.9703240   2.8689560  22.2505690
 107.2505530   2.0257460  22.6065110 106.1968970   3.1012670  22.7644440
  98.2897730   5.1581950  19.7096690  98.5923630   5.1649380  18.8015840
  99.0292320   4.8079810  20.2064350 103.1246370  19.9238810  34.6913130
 103.0505070  20.8273950  34.9985500 102.2225210  19.6050710  34.6635200
 101.5082660   4.1016570  20.6952890 101.1604660   3.4240560  20.1155340
 101.7095430   3.6406080  21.5096280 103.6731700  19.0897320  22.3139490
 104.5682490  19.4282290  22.3358250 103.7049330  18.3676730  21.6863770
  97.3127860  14.4624370  20.5426490  97.7502730  15.0054040  21.1984070
  97.7975590  13.6371320  20.5522830  94.5273660  17.2513400  27.9946750
  94.8576670  16.3834460  27.7625390  94.9564660  17.4571920  28.8251710
  99.1235580  15.5822410  25.6548720  98.8231120  15.4587380  26.5552630
  99.0173070  14.7231000  25.2464450  95.0163870  18.1183990  30.7328380
  94.5794860  18.2984790  31.5652530  95.5841550  18.8758610  30.5910100
 110.6526050  17.6200990  35.0205690 110.0528040  17.6793550  34.2769610
 110.7819950  16.6805970  35.1502540 111.8927500  15.3618810  20.3575400
 111.0620460  15.4295460  20.8282630 112.0699330  16.2522930  20.0542260
 111.3483960  12.1066290  22.8609600 112.1102870  12.6762940  22.9669290
 111.3638330  11.5393490  23.6317910  94.8488300  10.6304220  27.0917260
  94.1937140  10.3615860  26.4476960  95.6866250  10.5208700  26.6419240
 112.3543930  12.9616390  27.7051530 112.7252760  12.1783710  27.2987500
 112.9945860  13.6505490  27.5268830 109.3377690  14.3452970  33.1181850
 108.5237530  14.7750130  33.3807640 109.7451890  14.9571380  32.5050900
 111.4003130  12.4000660  20.0182120 111.6751970  13.3079540  19.8901340
 111.2113870  12.3363190  20.9544110 107.7978740   5.4245510  21.3135750
 108.2163620   5.2376490  20.4732410 107.4914800   4.5724560  21.6238680
 111.2968470  10.3369650  25.0111550 110.9212070   9.5697580  24.5792840
 110.5671590  10.7192350  25.4986480  95.8864230  11.0156790  31.6320600
  96.2537270  10.9284190  32.5116620  95.3175050  10.2523340  31.5327460
 110.6868090   9.4841170  34.6451070 110.4554180   9.2553920  33.7449020
 110.9472640  10.4040720  34.5995960  95.4380230   7.9265880  35.5379020
  94.5436280   7.8932640  35.8772730  95.9777780   8.1252670  36.3030270
 109.1256160   4.7097600  37.4230770 110.0026340   4.7181000  37.8064770
 109.1377000   3.9728440  36.8123120  94.0626380   7.8403150  23.0342590
  93.1590460   8.1033350  22.8594250  94.5467000   8.1114320  22.2542550
 110.5719430   8.5627140  28.3118790 111.0956910   8.0689790  27.6808960
 111.1578850   8.6977500  29.0566360 110.7509150   8.6467010  31.8338340
 109.8011860   8.6130550  31.9483330 110.9322160   9.5567120  31.5988110
  96.6053590   6.8968690  20.9436970  97.3145290   6.4751910  20.4584250
  95.8893530   6.9643920  20.3120320  96.2527750   2.9508020  19.9839620
  96.9755880   3.4916960  20.3020840  96.5252270   2.6771440  19.1081160
 110.0619400   7.8200490  24.2511200 110.5578520   7.5871360  25.0360080
 109.8635470   6.9812330  23.8348840  95.9419940   2.2014210  29.8862240
  96.5896130   1.6511590  29.4457400  96.3621780   2.4557360  30.7078050
 111.4906560   6.4561440  26.7848880 111.3805840   6.3017480  27.7231150
 112.2514150   5.9282380  26.5424290 109.8372280   2.3955570  33.2431880
 110.4744500   3.0089710  33.6091070 109.9847170   2.4316230  32.2981110
 112.3796830   4.2869360  20.0255020 113.3046140   4.1550540  19.8173310
 112.3572620   4.3662180  20.9791470 112.4535320   5.0580020  22.6511730
 111.6586820   4.9925140  23.1804640 112.6578600   5.9930660  22.6397080
 109.3953740  19.0971570  26.6450120 109.9912810  18.7756140  25.9684540
 109.6531890  18.6243390  27.4363390  95.6951940   2.3569880  32.6287560
  95.3466760   2.8133700  33.3945740  95.3639640   1.4627010  32.7109990
  97.3016310  15.5289480  36.7940750  97.2585940  15.1582390  37.6755210
  97.4327320  16.4667050  36.9342570 101.0022340  17.0849070  32.3950470
 100.7613700  17.3523630  31.5080990 101.9424980  17.2554800  32.4501330
 103.2076760   3.5481760  36.1506980 103.1465650   4.1403590  36.9002390
 104.1477140   3.4407720  36.0057240 105.8451320   3.2051820  35.7899270
 106.4591730   3.5231110  35.1280350 106.3900880   2.7200410  36.4095130
 112.2626500  19.1043450  33.1961110 111.7684780  19.5012320  32.4788240
 111.6539790  18.4792660  33.5898390  97.1404340  18.4751730  33.9138530
  96.5464660  18.3436430  34.6528570  97.1328180  17.6389870  33.4480630
 107.4931340   3.9754830  33.5010280 107.1644700   3.1606590  33.1212010
 108.4413640   3.9324640  33.3775970 109.9465950  19.7466870  30.4747850
 109.4868920  20.4982680  30.1005870 109.3178410  19.0273340  30.4162650
  96.7716570  15.8410110  32.8646570  96.0450630  15.2215400  32.7972520
  96.8325720  16.2350720  31.9944650 100.3761670  18.0555110  29.6495980
 100.8926690  17.4442470  29.1244240 101.0259050  18.5583890  30.1406990
 103.1157170  18.9463600  30.4764960 103.4034980  18.6917900  29.5997970
 103.6280390  18.3940960  31.0670530 104.3334180   2.6853800  31.0561470
 103.5505970   3.1599300  31.3358230 104.0397110   1.7808630  30.9474650
 108.8855250   3.3876900  29.1010560 109.3263340   3.3322000  28.2532160
 108.6162840   4.3034910  29.1720740 110.7493820   3.0192140  27.1119380
 110.6882220   2.0753360  26.9650400 111.5285850   3.1272230  27.6572840
  95.0546570  19.1584500  26.0743330  94.8868610  18.5255180  26.7725220
  94.1881080  19.3643900  25.7237520  95.6774590   2.9901280  23.5775190
  96.4353950   3.1030160  23.0039220  95.2151760   3.8270480  23.5318620
 102.2188400   5.1040550  26.5677500 101.4062910   4.7297440  26.2273380
 102.7230040   4.3485630  26.8698690 106.7213380   1.7683000  27.8060570
 107.3242750   2.3403210  28.2809090 105.9806370   2.3322440  27.5834470
 109.8647980   2.1704560  23.0800850 110.0598610   3.0688010  23.3468280
 109.0777850   1.9391640  23.5733800  96.6609270  17.8517730  23.5193470
  96.1356890  18.2325760  22.8155430  96.5853850  18.4768500  24.2403180
  98.0499740   3.5165330  22.1177160  98.5792500   2.7295130  21.9885110
  98.6828060   4.1956520  22.3512690 100.2437580   3.2540470  25.1722550
  99.6140320   2.5527780  25.3392680  99.7042720   4.0144600  24.9555710
 103.1829530  19.8679700  37.8433160 104.1096840  19.6323970  37.8869120
 103.1679960  20.6951700  37.3619190 111.4174590  19.4105270  24.8407410
 111.5926780  18.7243010  24.1968330 110.7196160  19.9352320  24.4484080
 100.3693140   2.5324450  37.6075040 100.0877410   3.0358050  36.8435860
 100.7512840   1.7346200  37.2417170  99.2602240  19.8000110  22.3942720
  99.9921060  19.5159390  21.8466610  99.5195910  19.5613390  23.2842100
  98.4217030  15.9164840  22.3989050  97.7925910  16.3849940  22.9474880
  98.5364860  15.0714060  22.8335240 106.9708600   1.9478030  38.1855510
 106.8574050   2.2672640  39.0807030 107.7878340   2.3490540  37.8892790
 109.7507090  19.0949560  37.6674200 110.5432410  18.5998790  37.4600160
 110.0440240  19.7739700  38.2749810 105.8766750   9.9670500   8.5490250
 105.7960800   9.0525110   8.2781960 105.4631170  10.4637570   7.8429960
 104.0084790  11.7449520  10.4299520 103.2326890  11.2649960  10.7198090
 104.6597720  11.0655170  10.2555680  98.0250620  12.0569330  11.3075280
  97.1935500  11.8018040  11.7071790  98.6331600  12.1280100  12.0433200
 108.0292220  16.1509710   9.2098650 107.5673750  15.3796950   9.5385820
 108.8417770  16.1775780   9.7151100  98.0051880  16.0909420  11.5033300
  98.3079920  15.2007160  11.3243520  98.7495470  16.6479640  11.2755550
  96.4342570   7.0171220   5.0917670  95.5459270   7.3587190   4.9897550
  96.7183760   6.8171540   4.1998500  94.3975580   9.6176870  10.9757370
  94.9691690   8.8499070  10.9761010  94.3977120   9.9165630  10.0663980
 104.2555530  18.4367720   8.8302640 103.6366970  18.8925220   8.2597080
 105.1107310  18.5919180   8.4292340 103.4493780  14.4206710  10.4369680
 103.3802060  13.4796650  10.2758810 104.2113640  14.5108120  11.0092250
  95.6400450   5.0261230  12.7626300  95.4603290   4.1286980  13.0429060
  95.2380530   5.5733100  13.4373250 104.4798950   7.2277090  10.6638610
 104.8563770   6.3548970  10.5512280 104.3818460   7.5635790   9.7729050
  98.6103960   5.6002720   6.1256050  98.7170710   6.5006450   6.4324810
  97.6996320   5.5520690   5.8350700 108.2623070   4.7227530   7.5966950
 109.0832690   4.2324100   7.6392430 108.2957150   5.3125190   8.3498790
  96.2587120   7.5221730  11.3708640  96.9397230   7.7860100  11.9896040
  95.9435170   6.6822600  11.7046650 100.4511690   8.5689090  10.4581230
 100.9589910   9.0670060  11.0986250 100.9824930   7.7924290  10.2820590
 112.5522620   6.7394280  14.1610580 111.8474790   7.1275990  13.6425690
 112.8180540   7.4344570  14.7631510  98.7347790   3.2087650  14.7244650
  98.7366230   3.7260040  13.9190550  97.9052100   2.7317830  14.7014580
 105.1218880  13.3206960   6.2234550 104.5036150  13.7856410   5.6597270
 105.6342130  14.0134440   6.6404060  99.9850640  12.8482830  12.9018150
  99.6520020  13.4751750  13.5439220 100.1617320  13.3744710  12.1219820
 108.4984550   6.6627910  10.3694490 107.7940120   6.9512800  10.9497600
 108.8596710   7.4728020  10.0094050  98.4163120   4.9197610  12.7315100
  98.7579930   5.7639660  12.4368970  97.4778930   5.0681350  12.8480440
  99.1969740  14.8163630  14.7167330  99.8143740  15.4914710  14.4351780
  98.3362860  15.2251610  14.6254830  94.4902080  14.0063490   3.5974180
  94.1130060  14.4950590   2.8659080  94.7475150  14.6788770   4.2280710
 110.1147330  16.2803040  12.6321970 109.4310850  16.9502150  12.6238640
 110.6541620  16.4783690  11.8666830 111.5671470   6.1082700  10.7603700
 110.6196380   6.1421680  10.8919130 111.8921460   6.9221650  11.1453060
 102.0991010   2.4079880   9.0559690 102.4065990   1.8526770   8.3395190
 101.1691710   2.5424340   8.8732680 107.6506070  18.1247170  11.3467150
 107.6633230  17.7209460  10.4789410 107.0981290  18.8994460  11.2428580
 108.9451490  14.8463390   6.4357320 108.8347820  13.9037720   6.5606740
 108.9419740  15.2079030   7.3220080 107.0491510  13.0277010  12.6749760
 107.4660300  12.8137120  11.8403220 107.7731330  13.2849800  13.2458380
 104.4871770  10.4728710   5.7919810 103.5601050  10.4066090   6.0208280
 104.6396590  11.4108840   5.6775050 104.4740850   6.7445710   2.7886970
 103.5344520   6.9059670   2.8739430 104.7924110   7.4631390   2.2422960
 110.9953610  11.4264230  12.7666000 110.1672240  11.4957320  12.2916130
 111.5904090  12.0118540  12.2981830 108.5169060  12.0349010   6.2955060
 107.8981480  11.6968560   5.6481360 108.4993510  11.3908770   7.0034250
 107.9595620   8.2133550  13.7120870 107.5466800   9.0387260  13.9660860
 107.2271570   7.6278590  13.5197230 100.0928410  10.9993450   8.5739540
  99.6885410  10.2870700   8.0785440 100.1791530  10.6546690   9.4627580
 100.5610110  14.6861010  10.7378750 100.2638400  14.0806480  10.0586530
 101.5109930  14.7238320  10.6268110  98.8057030   7.7736660  12.3538580
  99.3571620   7.8832000  11.5791830  99.3200540   8.1474260  13.0693810
 108.6495720  18.2592880  14.4001850 108.1726280  19.0665070  14.2074460
 107.9657510  17.6071210  14.5528060  99.6528540  14.4242700  17.3886550
  98.7557070  14.6482670  17.6359950  99.6781410  14.5477640  16.4397950
 106.6933760  11.2735820   3.3027810 107.1327040  10.4358250   3.1565630
 107.4062180  11.9065220   3.3891950  98.4799760  11.2956020  15.9643920
  98.3407530  12.1678820  16.3331320  97.5981120  10.9528830  15.8191860
 104.8029140  16.2131890   7.2709050 105.2425050  16.9556220   6.8564440
 104.7416030  16.4558460   8.1948010 100.2780110  17.2377720  18.1729070
 100.2495540  17.6420670  17.3057500 100.1145080  16.3088080  18.0100670
  96.7933040   9.8938430   6.0746190  96.6730640  10.6200520   5.4627460
  96.4833930   9.1241340   5.5974100 112.2294930  18.0204820  19.4693240
 112.7054650  18.4987710  20.1482320 112.8502090  17.9522310  18.7438740
  94.4318410  13.0653570  11.8814830  94.5098830  13.2002340  10.9370550
  95.0460090  12.3569460  12.0742950  95.6766040  14.7653760   8.2921010
  95.2694120  14.9068350   7.4374610  96.5679050  14.4813920   8.0892220
 111.6328180  15.2117670  16.6293250 111.7591240  14.9729550  15.7110430
 111.6749560  14.3802210  17.1015330 105.4944920  18.9145670  15.1988060
 106.0089590  18.8253680  16.0010490 104.6514000  19.2605370  15.4915970
 107.4699320  19.2001010   4.6272060 107.3100460  18.9103950   5.5253890
 107.3046030  18.4241140   4.0917290  99.9487700  18.9799540   6.4043680
  99.7730180  18.0635080   6.1911480  99.0943440  19.3386830   6.6441480
 107.1725450  16.7088570   3.1870060 106.4790610  16.7065860   2.5272340
 107.9148310  16.2847890   2.7564230 106.7375380  18.3351280   7.2618550
 107.1932330  17.5540660   7.5757170 107.0767900  19.0458100   7.8059730
 111.4852190   7.2650130  17.5942990 110.8696460   7.7729800  17.0658450
 111.1648610   6.3648460  17.5368930  94.4877930  14.1067740  14.4209290
  94.6508970  13.6373100  13.6028660  94.9530380  13.5991300  15.0858130
  99.2596700   3.2373500   9.4569860  98.8164850   4.0183040   9.1254380
  99.8181690   3.5603390  10.1640800 103.5466510   6.1042020  15.0605180
 103.0845880   6.3125040  15.8725120 103.1444620   5.2901370  14.7575850
 108.5471020   7.3250970  16.1901840 107.6964610   7.0256720  16.5110910
 108.3872810   7.5692980  15.2785660 105.6420730   8.8252720  18.2900630
 105.9674140   7.9916470  17.9502860 106.4301060   9.3481240  18.4378960
 102.3755520   2.8584200   4.3375690 101.7509700   2.8544070   5.0629000
 102.2885640   1.9915160   3.9411660 101.2972600   3.7820830  11.3159460
 101.5944930   4.6883660  11.2351480 101.8458160   3.2939610  10.7019030
  99.0510920   8.3607070   7.1851110  98.8251840   8.1444240   8.0897730
  98.2703450   8.7935530   6.8397080 106.2808680   8.3670440   5.7841760
 105.6817570   9.0906240   5.6005380 106.8288290   8.3047220   5.0018210
 101.4910130   9.2592650  17.8511380 101.3953730   8.3187380  17.7011780
 102.3342110   9.4807720  17.4559450 104.8873550   7.0033980   7.8145040
 105.2803120   7.3206180   7.0013730 105.2490400   6.1245860   7.9289560
  96.6220670   5.6706320  16.0045160  96.2284060   6.5181530  16.2117940
  95.9339070   5.0332690  16.1953800 103.1965720   5.7541290  19.0741900
 102.5064040   5.5613490  19.7087990 103.9398020   6.0375930  19.6066200
  93.9237720   3.5934780  10.0375240  93.6350770   4.1637640  10.7500220
  94.6683480   3.1139230  10.4006470 105.4728690   9.5939730  11.9095820
 104.7409810  10.1026540  12.2585920 105.0753030   8.7769710  11.6084600
 101.9106080   6.2693930  10.3148310 101.9142140   5.8283880   9.4652850
 102.8057200   6.5911260  10.4220130  97.7608460   6.1520420   9.2742520
  97.4208510   6.6295650  10.0309570  96.9985780   5.6985540   8.9143620
 101.9726230   7.2706010   3.3055070 102.0939050   7.2292490   4.2540890
 101.5874740   8.1330160   3.1501800 105.9354600   5.0473410  11.3218760
 105.9527340   5.4982060  12.1660610 105.6870180   4.1479050  11.5352200
 100.9847730   9.5807150   2.7038370 100.4164630   9.1325400   2.0774280
 101.6936730   9.9399930   2.1703520 109.3625350   2.4605590  17.1605140
 109.6871120   1.7295250  17.6863120 109.3981860   2.1419230  16.2586130
  96.0616910  13.4819170  16.5805100  95.6771700  12.8412840  17.1788060
  96.3729100  14.1855290  17.1499830 102.2114050  10.3295710  12.0613720
 102.5784180   9.8554280  12.8075060 102.0219110  11.2037280  12.4022060
  95.0754540   5.0739400   8.1907190  94.7901460   4.7095070   9.0285810
  95.0133400   4.3419860   7.5770330 100.0013420   9.3704350  14.3797930
  99.6970490  10.2496330  14.6048290 100.9559880   9.4304140  14.4155370
  98.5295210  13.5765340   4.9764780  97.7557470  13.0362960   4.8163500
  99.2589840  13.0571950   4.6382540 109.2883190  12.5730700  10.7691170
 110.0082310  13.0685990  10.3787280 109.0865010  11.8948590  10.1245040
 104.7493130   3.9668660   4.9120560 103.9357740   3.4681830   4.8365870
 104.5555080   4.8066910   4.4956910 104.6701990  12.6439760  16.6560170
 104.6039300  11.7235430  16.4017760 104.0407130  12.7415200  17.3704810
 107.4641520   8.3388310   3.2082720 108.3521140   8.6505540   3.0334060
 107.4346610   7.4660560   2.8163300  98.5732610  13.2445720   8.6143590
  99.0911280  12.4413980   8.5600480  98.1216630  13.1824860   9.4560420
 103.4602110  14.5112000   3.8870890 103.8017810  15.2554230   3.3914210
 102.6314820  14.8243120   4.2495720  96.0577150  10.2107090  15.5269290
  95.6992090  10.8760940  16.1142630  95.7631710   9.3790640  15.8981910
  99.2590270  10.6691330  18.4108840  98.9590410  10.8148510  17.5136660
 100.0301510  10.1096620  18.3182230 104.6018720  15.4660330  16.4063970
 104.6163260  14.5341290  16.1882880 103.8943820  15.5520090  17.0453740
 109.7355790   9.6500150   2.6762580 109.6519510  10.0814370   1.8259020
 110.4549980  10.1098500   3.1089400 110.8129930  12.1067670  15.7532550
 110.0878120  12.6996450  15.5561940 111.3405390  12.0991210  14.9545920
 110.7643040  16.5042410   5.4044710 110.1219200  15.8498030   5.6788430
 110.3773700  16.9097500   4.6285380 106.3429520  13.8327840   9.2516400
 106.6953340  13.2355970   8.5917770 105.4591850  13.5072070   9.4224650
 102.4292800  14.5925530   6.6586810 103.1163930  15.1394740   7.0394400
 101.6425220  15.1366260   6.6936420  94.5685200  10.2098350   2.1503890
  95.4380050  10.4923150   2.4339810  94.0775520  11.0234220   2.0352700
 101.7320010  11.5971560   6.2712170 102.1882790  12.4076810   6.4972360
 101.3808220  11.2794700   7.1030660 104.0352620  17.1077900  13.5004470
 104.6794840  17.3137280  14.1777890 104.3982060  16.3466300  13.0475320
  97.6331790   1.9409210   6.7434690  97.5046420   1.9327110   7.6919610
  96.8093810   2.2792300   6.3925700 105.3084700  15.1110250  12.2181920
 105.9506930  14.4103410  12.3314090 105.8334050  15.8908690  12.0378810
 107.0822320  15.9105150  15.4217980 107.4178560  16.4971840  16.0995900
 106.1622660  15.7797860  15.6515770  94.9356450  19.4225730   2.7165520
  95.2954090  20.0215070   2.0622790  94.7948790  19.9685620   3.4900550
  94.6325720   3.7000330  16.2041390  93.9184240   3.8997250  16.8094000
  95.0520760   2.9239900  16.5756190 108.7356670  13.3130810   3.6035220
 108.4478370  13.7743500   4.3913100 109.5308840  12.8528580   3.8719440
  94.9198310  17.6880590  17.1907920  95.0289430  16.7475330  17.0503310
  94.2678870  17.9535340  16.5421650 102.9110900  15.9596480  18.5906040
 102.5907770  15.2405720  19.1351730 102.2369260  16.6351550  18.6642100
 100.9525070  16.8056930   3.5339190 100.9435170  17.5386620   2.9183700
 100.0323430  16.5588510   3.6266150  96.5531710  12.0271820   4.2785950
  95.9459660  12.7670720   4.2881250  97.0281060  12.1171180   3.4524150
 106.1264500   6.1922640  13.9542840 106.4945320   5.3717850  14.2822410
 105.2662700   6.2524530  14.3698490 109.4926530   5.1479580   4.7630400
 108.8639690   5.2525250   4.0488630 108.9978450   5.3676360   5.5524280
 101.4610560   7.4265530   6.1788280 100.7526710   7.8951870   6.6201890
 101.7455040   6.7687540   6.8133470 103.0866490   8.8462230  14.1780810
 103.5851740   9.3208050  14.8432660 103.2289440   7.9225750  14.3850840
 105.4925990   4.1516190   7.6184070 105.3693770   4.1702320   6.6693580
 106.4410550   4.1995130   7.7382470 102.5802780  19.3871490   6.8912050
 102.8344280  19.3492880   5.9691420 101.6315260  19.2604820   6.8840300
  99.6645580   5.7350610   3.5538990 100.5136110   6.1720760   3.4879180
  99.2976850   6.0470870   4.3811050 110.2933350   5.0630190  15.0209200
 109.7906950   5.8035590  15.3603010 111.1090010   5.4514190  14.7045990
 108.5855360  10.3063370   8.4670560 107.6445500  10.3213600   8.6418250
 108.8999430   9.5199330   8.9130860  97.2583760   9.4208040   2.7107410
  97.3387350   8.4735550   2.8224810  98.1503510   9.7514920   2.8168070
 110.5880940  17.4772220  10.1424820 110.7128360  18.3003390  10.6148630
 111.4546500  17.2662950   9.7948970  98.0598470  19.5703430   9.8141950
  98.7960950  19.0218890  10.0850520  98.4439390  20.4359440   9.6747940
  94.9443950  15.6377000   5.6883460  94.0183730  15.8798140   5.6788870
  95.4100380  16.4651260   5.5668210  97.0656750  18.7549500  19.0027530
  97.8669480  19.0761550  19.4162930  96.5508570  18.3945080  19.7247440
 105.9021380  14.8629370  18.9502940 105.2959540  14.8860970  18.2098690
 105.5975490  14.1312410  19.4870190 107.3321750  18.5909660  17.5612350
 108.2843500  18.5067680  17.5112590 107.1849970  19.2551370  18.2346140
 110.2230950  17.9703870   3.0604260 109.9372460  17.5569010   2.2458440
 110.0250500  18.8991580   2.9404780  94.7854560  11.2422960  17.9463580
  95.2893580  10.6630240  18.5179810  94.0461980  11.5263190  18.4839950
 101.8392500  12.6493950  17.4799100 101.0738170  13.2178950  17.3953770
 102.0208460  12.3570160  16.5867330 104.9280910  13.0257180   2.1051860
 104.3791010  13.4726480   2.7494600 105.5500170  12.5206430   2.6289530
 108.9815850  14.3799280  18.0374120 109.7225320  14.7175040  17.5341580
 108.2188530  14.5491340  17.4843890  96.8177640   9.3852550  18.8413650
  96.8582980   9.0866420  19.7498880  97.6723140   9.7860160  18.6821170
 100.5956030  11.9848100   4.0017160 101.0172450  11.8187970   4.8448550
 100.7206870  11.1748330   3.5072300  98.7583450   7.9644650  16.8088140
  98.2279910   7.4735600  16.1811480  99.4271520   8.3928850  16.2746070
 107.6561510  12.4314110  16.5729330 108.0702530  12.5859190  17.4219750
 106.7212510  12.5569330  16.7355110 108.1283680   9.7710270  18.5768480
 108.7104450   9.0162590  18.4888960 108.3045450  10.3017710  17.7999960
  99.2455750   4.9307020  16.8885430  99.1512620   4.3127770  16.1636300
  98.6653140   5.6573310  16.6615340 102.0117190   3.4880260  13.9212820
 101.5634490   3.5104520  13.0758370 101.3782390   3.0899280  14.5183120
 102.4176740  12.3834590  14.5425260 102.8364850  13.2267320  14.3701500
 101.4985370  12.5206630  14.3132040 104.7540640  10.1150770  15.9263100
 104.8736850   9.5191910  16.6657940 105.6134640  10.1520460  15.5064400
 107.0928540  10.6687960  14.5025610 106.5663760  11.1930580  13.8990750
 107.4359880  11.3015350  15.1335340 100.2684160  18.6887600  15.6582990
  99.7305250  19.4133660  15.3391690 100.5218120  18.2117940  14.8680330
 101.5209410   6.6572120  17.1838920 102.1109100   6.3487970  17.8716740
 100.7029650   6.1851870  17.3398820 106.3402840   6.2737930  17.4171940
 105.6518360   5.6119470  17.3521930 107.0608860   5.8276200  17.8620400
 106.9703240   2.8689560   3.4762200 107.2505530   2.0257460   3.8321620
 106.1968970   3.1012670   3.9900950 103.1246370  19.9238810  15.9169640
 103.0505070  20.8273950  16.2242010 102.2225210  19.6050710  15.8891710
 103.6731700  19.0897320   3.5396000 104.5682490  19.4282290   3.5614760
 103.7049330  18.3676730   2.9120280  97.3127860  14.4624370   1.7683000
  97.7502730  15.0054040   2.4240580  97.7975590  13.6371320   1.7779340
  94.5273660  17.2513400   9.2203260  94.8576670  16.3834460   8.9881900
  94.9564660  17.4571920  10.0508220  99.1235580  15.5822410   6.8805230
  98.8231120  15.4587380   7.7809140  99.0173070  14.7231000   6.4720960
  95.0163870  18.1183990  11.9584890  94.5794860  18.2984790  12.7909040
  95.5841550  18.8758610  11.8166610 110.6526050  17.6200990  16.2462200
 110.0528040  17.6793550  15.5026120 110.7819950  16.6805970  16.3759050
 111.3483960  12.1066290   4.0866110 112.1102870  12.6762940   4.1925800
 111.3638330  11.5393490   4.8574420  94.8488300  10.6304220   8.3173770
  94.1937140  10.3615860   7.6733470  95.6866250  10.5208700   7.8675750
 112.3543930  12.9616390   8.9308040 112.7252760  12.1783710   8.5244010
 112.9945860  13.6505490   8.7525340 109.3377690  14.3452970  14.3438360
 108.5237530  14.7750130  14.6064150 109.7451890  14.9571380  13.7307410
 107.7978740   5.4245510   2.5392260 108.2163620   5.2376490   1.6988920
 107.4914800   4.5724560   2.8495190 111.2968470  10.3369650   6.2368060
 110.9212070   9.5697580   5.8049350 110.5671590  10.7192350   6.7242990
  95.8864230  11.0156790  12.8577110  96.2537270  10.9284190  13.7373130
  95.3175050  10.2523340  12.7583970 110.6868090   9.4841170  15.8707580
 110.4554180   9.2553920  14.9705530 110.9472640  10.4040720  15.8252470
  95.4380230   7.9265880  16.7635530  94.5436280   7.8932640  17.1029240
  95.9777780   8.1252670  17.5286780 109.1256160   4.7097600  18.6487280
 110.0026340   4.7181000  19.0321280 109.1377000   3.9728440  18.0379630
  94.0626380   7.8403150   4.2599100  93.1590460   8.1033350   4.0850760
  94.5467000   8.1114320   3.4799060 110.5719430   8.5627140   9.5375300
 111.0956910   8.0689790   8.9065470 111.1578850   8.6977500  10.2822870
 110.7509150   8.6467010  13.0594850 109.8011860   8.6130550  13.1739840
 110.9322160   9.5567120  12.8244620 110.0619400   7.8200490   5.4767710
 110.5578520   7.5871360   6.2616590 109.8635470   6.9812330   5.0605350
  95.9419940   2.2014210  11.1118750  96.5896130   1.6511590  10.6713910
  96.3621780   2.4557360  11.9334560 111.4906560   6.4561440   8.0105390
 111.3805840   6.3017480   8.9487660 112.2514150   5.9282380   7.7680800
 109.8372280   2.3955570  14.4688390 110.4744500   3.0089710  14.8347580
 109.9847170   2.4316230  13.5237620 112.4535320   5.0580020   3.8768240
 111.6586820   4.9925140   4.4061150 112.6578600   5.9930660   3.8653590
 109.3953740  19.0971570   7.8706630 109.9912810  18.7756140   7.1941050
 109.6531890  18.6243390   8.6619900  95.6951940   2.3569880  13.8544070
  95.3466760   2.8133700  14.6202250  95.3639640   1.4627010  13.9366500
  97.3016310  15.5289480  18.0197260  97.2585940  15.1582390  18.9011720
  97.4327320  16.4667050  18.1599080 101.0022340  17.0849070  13.6206980
 100.7613700  17.3523630  12.7337500 101.9424980  17.2554800  13.6757840
 103.2076760   3.5481760  17.3763490 103.1465650   4.1403590  18.1258900
 104.1477140   3.4407720  17.2313750 105.8451320   3.2051820  17.0155780
 106.4591730   3.5231110  16.3536860 106.3900880   2.7200410  17.6351640
 112.2626500  19.1043450  14.4217620 111.7684780  19.5012320  13.7044750
 111.6539790  18.4792660  14.8154900  97.1404340  18.4751730  15.1395040
  96.5464660  18.3436430  15.8785080  97.1328180  17.6389870  14.6737140
 107.4931340   3.9754830  14.7266790 107.1644700   3.1606590  14.3468520
 108.4413640   3.9324640  14.6032480 109.9465950  19.7466870  11.7004360
 109.4868920  20.4982680  11.3262380 109.3178410  19.0273340  11.6419160
  96.7716570  15.8410110  14.0903080  96.0450630  15.2215400  14.0229030
  96.8325720  16.2350720  13.2201160 100.3761670  18.0555110  10.8752490
 100.8926690  17.4442470  10.3500750 101.0259050  18.5583890  11.3663500
 103.1157170  18.9463600  11.7021470 103.4034980  18.6917900  10.8254480
 103.6280390  18.3940960  12.2927040 104.3334180   2.6853800  12.2817980
 103.5505970   3.1599300  12.5614740 104.0397110   1.7808630  12.1731160
 108.8855250   3.3876900  10.3267070 109.3263340   3.3322000   9.4788670
 108.6162840   4.3034910  10.3977250 110.7493820   3.0192140   8.3375890
 110.6882220   2.0753360   8.1906910 111.5285850   3.1272230   8.8829350
  95.0546570  19.1584500   7.2999840  94.8868610  18.5255180   7.9981730
  94.1881080  19.3643900   6.9494030  95.6774590   2.9901280   4.8031700
  96.4353950   3.1030160   4.2295730  95.2151760   3.8270480   4.7575130
 102.2188400   5.1040550   7.7934010 101.4062910   4.7297440   7.4529890
 102.7230040   4.3485630   8.0955200 106.7213380   1.7683000   9.0317080
 107.3242750   2.3403210   9.5065600 105.9806370   2.3322440   8.8090980
 109.8647980   2.1704560   4.3057360 110.0598610   3.0688010   4.5724790
 109.0777850   1.9391640   4.7990310  96.6609270  17.8517730   4.7449980
  96.1356890  18.2325760   4.0411940  96.5853850  18.4768500   5.4659690
  98.0499740   3.5165330   3.3433670  98.5792500   2.7295130   3.2141620
  98.6828060   4.1956520   3.5769200 100.2437580   3.2540470   6.3979060
  99.6140320   2.5527780   6.5649190  99.7042720   4.0144600   6.1812220
 103.1829530  19.8679700  19.0689670 104.1096840  19.6323970  19.1125630
 103.1679960  20.6951700  18.5875700 111.4174590  19.4105270   6.0663920
 111.5926780  18.7243010   5.4224840 110.7196160  19.9352320   5.6740590
 100.3693140   2.5324450  18.8331550 100.0877410   3.0358050  18.0692370
 100.7512840   1.7346200  18.4673680  99.2602240  19.8000110   3.6199230
  99.9921060  19.5159390   3.0723120  99.5195910  19.5613390   4.5098610
  98.4217030  15.9164840   3.6245560  97.7925910  16.3849940   4.1731390
  98.5364860  15.0714060   4.0591750 106.9708600   1.9478030  19.4112020
 106.8574050   2.2672640  20.3063540 107.7878340   2.3490540  19.1149300
 109.7507090  19.0949560  18.8930710 110.5432410  18.5998790  18.6856670
 110.0440240  19.7739700  19.5006320  87.1023260 141.3874930 139.9694680
  87.0217310 140.4729540 139.6986390  86.6887680 141.8842000 139.2634390
  85.2341300 143.1653950 141.8503950  84.4583400 142.6854390 142.1402520
  85.8854230 142.4859600 141.6760110  79.2507130 143.4773760 142.7279710
  78.4192010 143.2222470 143.1276220  79.8588110 143.5484530 143.4637630
  89.2548730 147.5714140 140.6303080  88.7930260 146.8001380 140.9590250
  90.0674280 147.5980210 141.1355530  79.2308390 147.5113850 142.9237730
  79.5336430 146.6211590 142.7447950  79.9751980 148.0684070 142.6959980
  77.6599080 138.4375650 136.5122100  76.7715780 138.7791620 136.4101980
  77.9440270 138.2375970 135.6202930  75.6232090 141.0381300 142.3961800
  76.1948200 140.2703500 142.3965440  75.6233630 141.3370060 141.4868410
  85.4812040 149.8572150 140.2507070  84.8623480 150.3129650 139.6801510
  86.3363820 150.0123610 139.8496770  84.6750290 145.8411140 141.8574110
  84.6058570 144.9001080 141.6963240  85.4370150 145.9312550 142.4296680
  76.8656960 136.4465660 144.1830730  76.6859800 135.5491410 144.4633490
  76.4637040 136.9937530 144.8577680  85.7055460 138.6481520 142.0843040
  86.0820280 137.7753400 141.9716710  85.6074970 138.9840220 141.1933480
  79.8360470 137.0207150 137.5460480  79.9427220 137.9210880 137.8529240
  78.9252830 136.9725120 137.2555130  89.4879580 136.1431960 139.0171380
  90.3089200 135.6528530 139.0596860  89.5213660 136.7329620 139.7703220
  77.4843630 138.9426160 142.7913070  78.1653740 139.2064530 143.4100470
  77.1691680 138.1027030 143.1251080  81.6768200 139.9893520 141.8785660
  82.1846420 140.4874490 142.5190680  82.2081440 139.2128720 141.7025020
  93.7779130 138.1598710 145.5815010  93.0731300 138.5480420 145.0630120
  94.0437050 138.8549000 146.1835940  79.9604300 134.6292080 146.1449080
  79.9622740 135.1464470 145.3394980  79.1308610 134.1522260 146.1219010
  86.3475390 144.7411390 137.6438980  85.7292660 145.2060840 137.0801700
  86.8598640 145.4338870 138.0608490  81.2107150 144.2687260 144.3222580
  80.8776530 144.8956180 144.9643650  81.3873830 144.7949140 143.5424250
  89.7241060 138.0832340 141.7898920  89.0196630 138.3717230 142.3702030
  90.0853220 138.8932450 141.4298480  79.6419630 136.3402040 144.1519530
  79.9836440 137.1844090 143.8573400  78.7035440 136.4885780 144.2684870
  80.4226250 146.2368060 146.1371760  81.0400250 146.9119140 145.8556210
  79.5619370 146.6456040 146.0459260  75.7158590 145.4267920 135.0178610
  75.3386570 145.9155020 134.2863510  75.9731660 146.0993200 135.6485140
  91.3403840 147.7007470 144.0526400  90.6567360 148.3706580 144.0443070
  91.8798130 147.8988120 143.2871260  92.7927980 137.5287130 142.1808130
  91.8452890 137.5626110 142.3123560  93.1177970 138.3426080 142.5657490
  83.3247520 133.8284310 140.4764120  83.6322500 133.2731200 139.7599620
  82.3948220 133.9628770 140.2937110  88.8762580 149.5451600 142.7671580
  88.8889740 149.1413890 141.8993840  88.3237800 150.3198890 142.6633010
  90.1708000 146.2667820 137.8561750  90.0604330 145.3242150 137.9811170
  90.1676250 146.6283460 138.7424510  88.2748020 144.4481440 144.0954190
  88.6916810 144.2341550 143.2607650  88.9987840 144.7054230 144.6662810
  85.7128280 141.8933140 137.2124240  84.7857560 141.8270520 137.4412710
  85.8653100 142.8313270 137.0979480  85.6997360 138.1650140 134.2091400
  84.7601030 138.3264100 134.2943860  86.0180620 138.8835820 133.6627390
  92.2210120 142.8468660 144.1870430  91.3928750 142.9161750 143.7120560
  92.8160600 143.4322970 143.7186260  89.7425570 143.4553440 137.7159490
  89.1237990 143.1172990 137.0685790  89.7250020 142.8113200 138.4238680
  89.1852130 139.6337980 145.1325300  88.7723310 140.4591690 145.3865290
  88.4528080 139.0483020 144.9401660  81.3184920 142.4197880 139.9943970
  80.9141920 141.7075130 139.4989870  81.4048040 142.0751120 140.8832010
  81.7866620 146.1065440 142.1583180  81.4894910 145.5010910 141.4790960
  82.7366440 146.1442750 142.0472540  80.0313540 139.1941090 143.7743010
  80.5828130 139.3036430 142.9996260  80.5457050 139.5678690 144.4898240
  89.8752230 149.6797310 145.8206280  89.3982790 150.4869500 145.6278890
  89.1914020 149.0275640 145.9732490  80.8785050 145.8447130 148.8090980
  79.9813580 146.0687100 149.0564380  80.9037920 145.9682070 147.8602380
  87.9190270 142.6940250 134.7232240  88.3583550 141.8562680 134.5770060
  88.6318690 143.3269650 134.8096380  79.7056270 142.7160450 147.3848350
  79.5664040 143.5883250 147.7535750  78.8237630 142.3733260 147.2396290
  86.0285650 147.6336320 138.6913480  86.4681560 148.3760650 138.2768870
  85.9672540 147.8762890 139.6152440  81.5036620 148.6582150 149.5933500
  81.4752050 149.0625100 148.7261930  81.3401590 147.7292510 149.4305100
  91.5007410 133.9483060 133.0373280  91.1880070 134.0409890 133.9372350
  92.2619880 134.5264090 132.9870710  78.0189550 141.3142860 137.4950620
  77.8987150 142.0404950 136.8831890  77.7090440 140.5445770 137.0178530
  75.6574920 144.4858000 143.3019260  75.7355340 144.6206770 142.3574980
  76.2716600 143.7773890 143.4947380  76.9022550 146.1858190 139.7125440
  76.4950630 146.3272780 138.8579040  77.7935560 145.9018350 139.5096650
  92.8584690 146.6322100 148.0497680  92.9847750 146.3933980 147.1314860
  92.9006070 145.8006640 148.5219760  86.7201430 150.3350100 146.6192490
  87.2346100 150.2458110 147.4214920  85.8770510 150.6809800 146.9120400
  88.6955830 150.6205440 136.0476490  88.5356970 150.3308380 136.9458320
  88.5302540 149.8445570 135.5121720  81.1744210 150.4003970 137.8248110
  80.9986690 149.4839510 137.6115910  80.3199950 150.7591260 138.0645910
  88.3981960 148.1293000 134.6074490  87.7047120 148.1270290 133.9476770
  89.1404820 147.7052320 134.1768660  87.9631890 149.7555710 138.6822980
  88.4188840 148.9745090 138.9961600  88.3024410 150.4662530 139.2264160
  92.7108700 138.6854560 149.0147420  92.0952970 139.1934230 148.4862880
  92.3905120 137.7852890 148.9573360  75.7134440 145.5272170 145.8413720
  75.8765480 145.0577530 145.0233090  76.1786890 145.0195730 146.5062560
  80.4853210 134.6577930 140.8774290  80.0421360 135.4387470 140.5458810
  81.0438200 134.9807820 141.5845230  84.7723020 137.5246450 146.4809610
  84.3102390 137.7329470 147.2929550  84.3701130 136.7105800 146.1780280
  89.7727530 138.7455400 147.6106270  88.9221120 138.4461150 147.9315340
  89.6129320 138.9897410 146.6990090  86.8677240 140.2457150 149.7105060
  87.1930650 139.4120900 149.3707290  87.6557570 140.7685670 149.8583390
  83.6012030 134.2788630 135.7580120  82.9766210 134.2748500 136.4833430
  83.5142150 133.4119590 135.3616090  82.5229110 135.2025260 142.7363890
  82.8201440 136.1088090 142.6555910  83.0714670 134.7144040 142.1223460
  80.2767430 139.7811500 138.6055540  80.0508350 139.5648670 139.5102160
  79.4959960 140.2139960 138.2601510  87.5065190 139.7874870 137.2046190
  86.9074080 140.5110670 137.0209810  88.0544800 139.7251650 136.4222640
  82.7166640 140.6797080 149.2715810  82.6210240 139.7391810 149.1216210
  83.5598620 140.9012150 148.8763880  86.1130060 138.4238410 139.2349470
  86.5059630 138.7410610 138.4218160  86.4746910 137.5450290 139.3493990
  77.8477180 137.0910750 147.4249590  77.4540570 137.9385960 147.6322370
  77.1595580 136.4537120 147.6158230  75.1494230 135.0139210 141.4579670
  74.8607280 135.5842070 142.1704650  75.8939990 134.5343660 141.8210900
  75.3364460 138.9559330 132.6682390  75.2539130 139.8990090 132.8097380
  74.9847520 138.8134240 131.7894740  86.6985200 141.0144160 143.3300250
  85.9666320 141.5230970 143.6790350  86.3009540 140.1974140 143.0289030
  83.1362590 137.6898360 141.7352740  83.1398650 137.2488310 140.8857280
  84.0313710 138.0115690 141.8424560  78.9864970 137.5724850 140.6946950
  78.6465020 138.0500080 141.4514000  78.2242290 137.1189970 140.3348050
  83.1982740 138.6910440 134.7259500  83.3195560 138.6496920 135.6745320
  82.8131250 139.5534590 134.5706230  87.1611110 136.4677840 142.7423190
  87.1783850 136.9186490 143.5865040  86.9126690 135.5683480 142.9556630
  82.2104240 141.0011580 134.1242800  81.6421140 140.5529830 133.4978710
  82.9193240 141.3604360 133.5907950  90.5881860 133.8810020 148.5809570
  90.9127630 133.1499680 149.1067550  90.6238370 133.5623660 147.6790560
  77.2873420 144.9023600 148.0009530  76.9028210 144.2617270 148.5992490
  77.5985610 145.6059720 148.5704260  83.4370560 141.7500140 143.4818150
  83.8040690 141.2758710 144.2279490  83.2475620 142.6241710 143.8226490
  76.3011050 136.4943830 139.6111620  76.0157970 136.1299500 140.4490240
  76.2389910 135.7624290 138.9974760  81.2269930 140.7908780 145.8002360
  80.9227000 141.6700760 146.0252720  82.1816390 140.8508570 145.8359800
  79.7551720 144.9969770 136.3969210  78.9813980 144.4567390 136.2367930
  80.4846350 144.4776380 136.0586970  90.5139700 143.9935130 142.1895600
  91.2338820 144.4890420 141.7991710  90.3121520 143.3153020 141.5449470
  85.9749640 135.3873090 136.3324990  85.1614250 134.8886260 136.2570300
  85.7811590 136.2271340 135.9161340  85.8958500 144.0644190 148.0764600
  85.8295810 143.1439860 147.8222190  85.2663640 144.1619630 148.7909240
  88.6898030 139.7592740 134.6287150  89.5777650 140.0709970 134.4538490
  88.6603120 138.8864990 134.2367730  79.7989120 144.6650150 140.0348020
  80.3167790 143.8618410 139.9804910  79.3473140 144.6029290 140.8764850
  84.6858620 145.9316430 135.3075320  85.0274320 146.6758660 134.8118640
  83.8571330 146.2447550 135.6700150  77.2833660 141.6311520 146.9473720
  76.9248600 142.2965370 147.5347060  76.9888220 140.7995070 147.3186340
  80.4846780 142.0895760 149.8313270  80.1846920 142.2352940 148.9341090
  81.2558020 141.5301050 149.7386660  85.8275230 146.8864760 147.8268400
  85.8419770 145.9545720 147.6087310  85.1200330 146.9724520 148.4658170
  90.9612300 141.0704580 134.0967010  90.8776020 141.5018800 133.2463450
  91.6806490 141.5302930 134.5293830  92.0386440 143.5272100 147.1736980
  91.3134630 144.1200880 146.9766370  92.5661900 143.5195640 146.3750350
  91.9899550 147.9246840 136.8249140  91.3475710 147.2702460 137.0992860
  91.6030210 148.3301930 136.0489810  87.5686030 145.2532270 140.6720830
  87.9209850 144.6560400 140.0122200  86.6848360 144.9276500 140.8429080
  83.6549310 146.0129960 138.0791240  84.3420440 146.5599170 138.4598830
  82.8681730 146.5570690 138.1140850  75.7941710 141.6302780 133.5708320
  76.6636560 141.9127580 133.8544240  75.3032030 142.4438650 133.4557130
  82.9576520 143.0175990 137.6916600  83.4139300 143.8281240 137.9176790
  82.6064730 142.6999130 138.5235090  85.2609130 148.5282330 144.9208900
  85.9051350 148.7341710 145.5982320  85.6238570 147.7670730 144.4679750
  78.8588300 133.3613640 138.1639120  78.7302930 133.3531540 139.1124040
  78.0350320 133.6996730 137.8130130  86.5341210 146.5314680 143.6386350
  87.1763440 145.8307840 143.7518520  87.0590560 147.3113120 143.4583240
  90.3796930 146.8163300 133.3625490  90.1534510 146.0993740 133.9550130
  89.9893130 146.5675740 132.5247240  88.3078830 147.3309580 146.8422410
  88.6435070 147.9176270 147.5200330  87.3879170 147.2002290 147.0720200
  76.1612960 150.8430160 134.1369950  76.5210600 151.4419500 133.4827220
  76.0205300 151.3890050 134.9104980  75.8582230 135.1204760 147.6245820
  75.1440750 135.3201680 148.2298430  76.2777270 134.3444330 147.9960620
  89.9613180 144.7335240 135.0239650  89.6734880 145.1947930 135.8117530
  90.7565350 144.2733010 135.2923870  76.1454820 149.1085020 148.6112350
  76.2545940 148.1679760 148.4707740  75.4935380 149.3739770 147.9626080
  82.1781580 148.2261360 134.9543620  82.1691680 148.9591050 134.3388130
  81.2579940 147.9792940 135.0470580  77.7788220 143.4476250 135.6990380
  77.1716170 144.1875150 135.7085680  78.2537570 143.5375610 134.8728580
  87.3521010 137.6127070 145.3747270  87.7201830 136.7922280 145.7026840
  86.4919210 137.6728960 145.7902920  90.7183040 136.5684010 136.1834830
  90.0896200 136.6729680 135.4693060  90.2234960 136.7880790 136.9728710
  85.1641180 148.2889600 133.6168810  85.2653160 148.0853590 132.6870790
  84.2642920 148.0347880 133.8216590  82.6867070 138.8469960 137.5992710
  81.9783220 139.3156300 138.0406320  82.9711550 138.1891970 138.2337900
  84.3123000 140.2666660 145.5985240  84.8108250 140.7412480 146.2637090
  84.4545950 139.3430180 145.8055270  86.7182500 135.5720620 139.0388500
  86.5950280 135.5906750 138.0898010  87.6667060 135.6199560 139.1586900
  83.8059290 150.8075920 138.3116480  84.0600790 150.7697310 137.3895850
  82.8571770 150.6809250 138.3044730  80.8902090 137.1555040 134.9743420
  81.7392620 137.5925190 134.9083610  80.5233360 137.4675300 135.8015480
  91.5189860 136.4834620 146.4413630  91.0163460 137.2240020 146.7807440
  92.3346520 136.8718620 146.1250420  89.8111870 141.7267800 139.8874990
  88.8702010 141.7418030 140.0622680  90.1255940 140.9403760 140.3335290
  79.7893510 143.4087400 133.4478950  80.5556780 143.2968760 134.0104380
  79.8668200 142.7125370 132.7955720  78.4840270 140.8412470 134.1311840
  78.5643860 139.8939980 134.2429240  79.3760020 141.1719350 134.2372500
  91.8137450 148.8976650 141.5629250  91.9384870 149.7207820 142.0353060
  92.6803010 148.6867380 141.2153400  76.1700460 147.0581430 137.1087890
  75.2440240 147.3002570 137.0993300  76.6356890 147.8855690 136.9872640
  82.3957290 150.1638170 133.0571950  83.1885900 150.4527000 132.6053740
  81.8761640 149.7330340 132.3784430  88.5578260 150.0114090 148.9816780
  89.5100010 149.9272110 148.9317020  88.4106480 150.6755800 149.6550570
  91.4487460 149.3908300 134.4808690  91.1628970 148.9773440 133.6662870
  91.2507010 150.3196010 134.3609210  76.0111070 142.6627390 149.3668010
  76.5150090 142.0834670 149.9384240  75.2718490 142.9467620 149.9044380
  82.9134690 145.3841580 132.9214300  82.8085330 144.7693930 133.6475680
  82.7458910 144.8607470 132.1377310  83.0649010 144.0698380 148.9003530
  82.2994680 144.6383380 148.8158200  83.2464970 143.7774590 148.0071760
  86.1537420 144.4461610 133.5256290  85.6047520 144.8930910 134.1699030
  86.7756680 143.9410860 134.0493960  90.2072360 145.8003710 149.4578550
  90.9481830 146.1379470 148.9546010  89.4445040 145.9695770 148.9048320
  81.8212540 143.4052530 135.4221590  82.2428960 143.2392400 136.2652980
  81.9463380 142.5952760 134.9276730  79.9839960 139.3849080 148.2292570
  79.4536420 138.8940030 147.6015910  80.6528030 139.8133280 147.6950500
  84.3340180 142.4290140 132.6698690  84.8545840 141.7139160 132.3039840
  84.9808580 143.0676010 132.9699200  88.8818020 143.8518540 147.9933760
  89.2959040 144.0063620 148.8424180  87.9469020 143.9773760 148.1559540
  89.3540190 141.1914700 149.9972910  89.9360960 140.4367020 149.9093390
  89.5301960 141.7222140 149.2204390  80.4712260 136.3511450 148.3089860
  80.3769130 135.7332200 147.5840730  79.8909650 137.0777740 148.0819770
  83.2373700 134.9084690 145.3417250  82.7891000 134.9308950 144.4962800
  82.6038900 134.5103710 145.9387550  83.6433250 143.8039020 145.9629690
  84.0621360 144.6471750 145.7905930  82.7241880 143.9411060 145.7336470
  85.9797150 141.5355200 147.3467530  86.0993360 140.9396340 148.0862370
  86.8391150 141.5724890 146.9268830  88.3185050 142.0892390 145.9230040
  87.7920270 142.6135010 145.3195180  88.6616390 142.7219780 146.5539770
  80.7171440 139.4785760 132.3679750  80.5160500 138.6153120 132.7293090
  80.5463490 139.3919120 131.4301350  81.4940670 150.1092030 147.0787420
  80.9561760 150.8338090 146.7596120  81.7474630 149.6322370 146.2884760
  82.7465920 138.0776550 148.6043350  83.3365610 137.7692400 149.2921170
  81.9286160 137.6056300 148.7603250  87.5659350 137.6942360 148.8376370
  86.8774870 137.0323900 148.7726360  88.2865370 137.2480630 149.2824830
  88.1959750 134.2893990 134.8966630  88.4762040 133.4461890 135.2526050
  87.4225480 134.5217100 135.4105380  79.5154240 136.5786380 132.3557630
  79.8180140 136.5853810 131.4476780  80.2548830 136.2284240 132.8525290
  82.7339170 135.5221000 133.3413830  82.3861170 134.8444990 132.7616280
  82.9351940 135.0610510 134.1557220  84.8988210 150.5101750 134.9600430
  85.7939000 150.8486720 134.9819190  84.9305840 149.7881160 134.3324710
  78.5384370 145.8828800 133.1887430  78.9759240 146.4258470 133.8445010
  79.0232100 145.0575750 133.1983770  75.7530170 148.6717830 140.6407690
  76.0833180 147.8038890 140.4086330  76.1821170 148.8776350 141.4712650
  80.3492090 147.0026840 138.3009660  80.0487630 146.8791810 139.2013570
  80.2429580 146.1435430 137.8925390  76.2420380 149.5388420 143.3789320
  75.8051370 149.7189220 144.2113470  76.8098060 150.2963040 143.2371040
  91.8782560 149.0405420 147.6666630  91.2784550 149.0997980 146.9230550
  92.0076460 148.1010400 147.7963480  93.1184010 146.7823240 133.0036340
  92.2876970 146.8499890 133.4743570  93.2955840 147.6727360 132.7003200
  92.5740470 143.5270720 135.5070540  93.3359380 144.0967370 135.6130230
  92.5894840 142.9597920 136.2778850  76.0744810 142.0508650 139.7378200
  75.4193650 141.7820290 139.0937900  76.9122760 141.9413130 139.2880180
  93.5800440 144.3820820 140.3512470  93.9509270 143.5988140 139.9448440
  94.2202370 145.0709920 140.1729770  90.5634200 145.7657400 145.7642790
  89.7494040 146.1954560 146.0268580  90.9708400 146.3775810 145.1511840
  92.6259640 143.8205090 132.6643060  92.9008480 144.7283970 132.5362280
  92.4370380 143.7567620 133.6005050  89.0235250 136.8449940 133.9596690
  89.4420130 136.6580920 133.1193350  88.7171310 135.9928990 134.2699620
  92.5224980 141.7574080 137.6572490  92.1468580 140.9902010 137.2253780
  91.7928100 142.1396780 138.1447420  77.1120740 142.4361220 144.2781540
  77.4793780 142.3488620 145.1577560  76.5431560 141.6727770 144.1788400
  91.9124600 140.9045600 147.2912010  91.6810690 140.6758350 146.3909960
  92.1729150 141.8245150 147.2456900  76.6636740 139.3470310 148.1839960
  75.7692790 139.3137070 148.5233670  77.2034290 139.5457100 148.9491210
  75.2882890 139.2607580 135.6803530  74.3846970 139.5237780 135.5055190
  75.7723510 139.5318750 134.9003490  91.7975940 139.9831570 140.9579730
  92.3213420 139.4894220 140.3269900  92.3835360 140.1181930 141.7027300
  91.9765660 140.0671440 144.4799280  91.0268370 140.0334980 144.5944270
  92.1578670 140.9771550 144.2449050  77.8310100 138.3173120 133.5897910
  78.5401800 137.8956340 133.1045190  77.1150040 138.3848350 132.9581260
  77.4784260 134.3712450 132.6300560  78.2012390 134.9121390 132.9481780
  77.7508780 134.0975870 131.7542100  91.2875910 139.2404920 136.8972140
  91.7835030 139.0075790 137.6821020  91.0891980 138.4016760 136.4809780
  77.1676450 133.6218640 142.5323180  77.8152640 133.0716020 142.0918340
  77.5878290 133.8761790 143.3538990  92.7163070 137.8765870 139.4309820
  92.6062350 137.7221910 140.3692090  93.4770660 137.3486810 139.1885230
  91.0628790 133.8160000 145.8892820  91.7001010 134.4294140 146.2552010
  91.2103680 133.8520660 144.9442050  93.6053340 135.7073790 132.6715960
  94.5302650 135.5754970 132.4634250  93.5829130 135.7866610 133.6252410
  93.6791830 136.4784450 135.2972670  92.8843330 136.4129570 135.8265580
  93.8835110 137.4135090 135.2858020  90.6210250 150.5176000 139.2911060
  91.2169320 150.1960570 138.6145480  90.8788400 150.0447820 140.0824330
  76.9208450 133.7774310 145.2748500  76.5723270 134.2338130 146.0406680
  76.5896150 132.8831440 145.3570930  82.2278850 148.5053500 145.0411410
  81.9870210 148.7728060 144.1541930  83.1681490 148.6759230 145.0962270
  84.4333270 134.9686190 148.7967920  84.3722160 135.5608020 149.5463330
  85.3733650 134.8612150 148.6518180  87.0707830 134.6256250 148.4360210
  87.6848240 134.9435540 147.7741290  87.6157390 134.1404840 149.0556070
  93.4883010 150.5247880 145.8422050  92.9941290 150.9216750 145.1249180
  92.8796300 149.8997090 146.2359330  77.5929090 133.3050510 148.5499270
  78.1412080 133.1238560 147.7865380  77.6584400 132.5144620 149.0855580
  78.3660850 149.8956160 146.5599470  77.7721170 149.7640860 147.2989510
  78.3584690 149.0594300 146.0941570  87.8115870 133.1888390 144.7629500
  86.9375710 133.5223500 144.5602430  87.7026620 132.7161570 145.5881370
  88.7187850 135.3959260 146.1471220  88.3901210 134.5811020 145.7672950
  89.6670150 135.3529070 146.0236910  77.9973080 147.2614540 145.5107510
  77.2707140 146.6419830 145.4433460  78.0582230 147.6555150 144.6405590
  81.6018180 149.4759540 142.2956920  82.1183200 148.8646900 141.7705180
  82.2515560 149.9788320 142.7867930  84.3413680 150.3668030 143.1225900
  84.6291490 150.1122330 142.2458910  84.8536900 149.8145390 143.7131470
  85.5590690 134.1058230 143.7022410  84.7762480 134.5803730 143.9819170
  85.2653620 133.2013060 143.5935590  90.1111760 134.8081330 141.7471500
  90.5519850 134.7526430 140.8993100  89.8419350 135.7239340 141.8181680
  91.9750330 134.4396570 139.7580320  91.9138730 133.4957790 139.6111340
  92.7542360 134.5476660 140.3033780  76.2803080 150.5788930 138.7204270
  76.1125120 149.9459610 139.4186160  75.4137590 150.7848330 138.3698460
  76.9031100 134.4105710 136.2236130  77.6610460 134.5234590 135.6500160
  76.4408270 135.2474910 136.1779560  83.4444910 136.5244980 139.2138440
  82.6319420 136.1501870 138.8734320  83.9486550 135.7690060 139.5159630
  87.9469890 133.1887430 140.4521510  88.5499260 133.7607640 140.9270030
  87.2062880 133.7526870 140.2295410  91.0904490 133.5908990 135.7261790
  91.2855120 134.4892440 135.9929220  90.3034360 133.3596070 136.2194740
  77.8865780 149.2722160 136.1654410  77.3613400 149.6530190 135.4616370
  77.8110360 149.8972930 136.8864120  79.2756250 134.9369760 134.7638100
  79.8049010 134.1499560 134.6346050  79.9084570 135.6160950 134.9973630
  81.4694090 134.6744900 137.8183490  80.8396830 133.9732210 137.9853620
  80.9299230 135.4349030 137.6016650  92.6431100 150.8309700 137.4868350
  92.8183290 150.1447440 136.8429270  91.9452670 151.3556750 137.0945020
  80.4858750 151.2204540 135.0403660  81.2177570 150.9363820 134.4927550
  80.7452420 150.9817820 135.9303040  79.6473540 147.3369270 135.0449990
  79.0182420 147.8054370 135.5935820  79.7621370 146.4918490 135.4796180
  87.1023260 141.3874930 121.1951190  87.0217310 140.4729540 120.9242900
  86.6887680 141.8842000 120.4890900  85.2341300 143.1653950 123.0760460
  84.4583400 142.6854390 123.3659030  85.8854230 142.4859600 122.9016620
  79.2507130 143.4773760 123.9536220  78.4192010 143.2222470 124.3532730
  79.8588110 143.5484530 124.6894140  89.2548730 147.5714140 121.8559590
  88.7930260 146.8001380 122.1846760  90.0674280 147.5980210 122.3612040
  79.2308390 147.5113850 124.1494240  79.5336430 146.6211590 123.9704460
  79.9751980 148.0684070 123.9216490  77.6599080 138.4375650 117.7378610
  76.7715780 138.7791620 117.6358490  77.9440270 138.2375970 116.8459440
  75.6232090 141.0381300 123.6218310  76.1948200 140.2703500 123.6221950
  75.6233630 141.3370060 122.7124920  85.4812040 149.8572150 121.4763580
  84.8623480 150.3129650 120.9058020  86.3363820 150.0123610 121.0753280
  84.6750290 145.8411140 123.0830620  84.6058570 144.9001080 122.9219750
  85.4370150 145.9312550 123.6553190  76.8656960 136.4465660 125.4087240
  76.6859800 135.5491410 125.6890000  76.4637040 136.9937530 126.0834190
  85.7055460 138.6481520 123.3099550  86.0820280 137.7753400 123.1973220
  85.6074970 138.9840220 122.4189990  79.8360470 137.0207150 118.7716990
  79.9427220 137.9210880 119.0785750  78.9252830 136.9725120 118.4811640
  89.4879580 136.1431960 120.2427890  90.3089200 135.6528530 120.2853370
  89.5213660 136.7329620 120.9959730  77.4843630 138.9426160 124.0169580
  78.1653740 139.2064530 124.6356980  77.1691680 138.1027030 124.3507590
  81.6768200 139.9893520 123.1042170  82.1846420 140.4874490 123.7447190
  82.2081440 139.2128720 122.9281530  93.7779130 138.1598710 126.8071520
  93.0731300 138.5480420 126.2886630  94.0437050 138.8549000 127.4092450
  79.9604300 134.6292080 127.3705590  79.9622740 135.1464470 126.5651490
  79.1308610 134.1522260 127.3475520  86.3475390 144.7411390 118.8695490
  85.7292660 145.2060840 118.3058210  86.8598640 145.4338870 119.2865000
  81.2107150 144.2687260 125.5479090  80.8776530 144.8956180 126.1900160
  81.3873830 144.7949140 124.7680760  89.7241060 138.0832340 123.0155430
  89.0196630 138.3717230 123.5958540  90.0853220 138.8932450 122.6554990
  79.6419630 136.3402040 125.3776040  79.9836440 137.1844090 125.0829910
  78.7035440 136.4885780 125.4941380  80.4226250 146.2368060 127.3628270
  81.0400250 146.9119140 127.0812720  79.5619370 146.6456040 127.2715770
  75.7158590 145.4267920 116.2435120  75.3386570 145.9155020 115.5120020
  75.9731660 146.0993200 116.8741650  91.3403840 147.7007470 125.2782910
  90.6567360 148.3706580 125.2699580  91.8798130 147.8988120 124.5127770
  92.7927980 137.5287130 123.4064640  91.8452890 137.5626110 123.5380070
  93.1177970 138.3426080 123.7914000  83.3247520 133.8284310 121.7020630
  83.6322500 133.2731200 120.9856130  82.3948220 133.9628770 121.5193620
  88.8762580 149.5451600 123.9928090  88.8889740 149.1413890 123.1250350
  88.3237800 150.3198890 123.8889520  90.1708000 146.2667820 119.0818260
  90.0604330 145.3242150 119.2067680  90.1676250 146.6283460 119.9681020
  88.2748020 144.4481440 125.3210700  88.6916810 144.2341550 124.4864160
  88.9987840 144.7054230 125.8919320  85.7128280 141.8933140 118.4380750
  84.7857560 141.8270520 118.6669220  85.8653100 142.8313270 118.3235990
  85.6997360 138.1650140 115.4347910  84.7601030 138.3264100 115.5200370
  86.0180620 138.8835820 114.8883900  92.2210120 142.8468660 125.4126940
  91.3928750 142.9161750 124.9377070  92.8160600 143.4322970 124.9442770
  89.7425570 143.4553440 118.9416000  89.1237990 143.1172990 118.2942300
  89.7250020 142.8113200 119.6495190  89.1852130 139.6337980 126.3581810
  88.7723310 140.4591690 126.6121800  88.4528080 139.0483020 126.1658170
  81.3184920 142.4197880 121.2200480  80.9141920 141.7075130 120.7246380
  81.4048040 142.0751120 122.1088520  81.7866620 146.1065440 123.3839690
  81.4894910 145.5010910 122.7047470  82.7366440 146.1442750 123.2729050
  80.0313540 139.1941090 124.9999520  80.5828130 139.3036430 124.2252770
  80.5457050 139.5678690 125.7154750  89.8752230 149.6797310 127.0462790
  89.3982790 150.4869500 126.8535400  89.1914020 149.0275640 127.1989000
  80.8785050 145.8447130 130.0347490  79.9813580 146.0687100 130.2820890
  80.9037920 145.9682070 129.0858890  87.9190270 142.6940250 115.9488750
  88.3583550 141.8562680 115.8026570  88.6318690 143.3269650 116.0352890
  79.7056270 142.7160450 128.6104860  79.5664040 143.5883250 128.9792260
  78.8237630 142.3733260 128.4652800  86.0285650 147.6336320 119.9169990
  86.4681560 148.3760650 119.5025380  85.9672540 147.8762890 120.8408950
  81.5036620 148.6582150 130.8190010  81.4752050 149.0625100 129.9518440
  81.3401590 147.7292510 130.6561610  91.5007410 133.9483060 114.2629790
  91.1880070 134.0409890 115.1628860  92.2619880 134.5264090 114.2127220
  78.0189550 141.3142860 118.7207130  77.8987150 142.0404950 118.1088400
  77.7090440 140.5445770 118.2435040  93.4551440 149.4409250 132.1154180
  93.9311160 149.9192140 132.7943260  94.0758600 149.3726740 131.3899680
  75.6574920 144.4858000 124.5275770  75.7355340 144.6206770 123.5831490
  76.2716600 143.7773890 124.7203890  76.9022550 146.1858190 120.9381950
  76.4950630 146.3272780 120.0835550  77.7935560 145.9018350 120.7353160
  92.8584690 146.6322100 129.2754190  92.9847750 146.3933980 128.3571370
  92.9006070 145.8006640 129.7476270  86.7201430 150.3350100 127.8449000
  87.2346100 150.2458110 128.6471430  85.8770510 150.6809800 128.1376910
  88.6955830 150.6205440 117.2733000  88.5356970 150.3308380 118.1714830
  88.5302540 149.8445570 116.7378230  81.1744210 150.4003970 119.0504620
  80.9986690 149.4839510 118.8372420  80.3199950 150.7591260 119.2902420
  88.3981960 148.1293000 115.8331000  87.7047120 148.1270290 115.1733280
  89.1404820 147.7052320 115.4025170  87.9631890 149.7555710 119.9079490
  88.4188840 148.9745090 120.2218110  88.3024410 150.4662530 120.4520670
  92.7108700 138.6854560 130.2403930  92.0952970 139.1934230 129.7119390
  92.3905120 137.7852890 130.1829870  75.7134440 145.5272170 127.0670230
  75.8765480 145.0577530 126.2489600  76.1786890 145.0195730 127.7319070
  80.4853210 134.6577930 122.1030800  80.0421360 135.4387470 121.7715320
  81.0438200 134.9807820 122.8101740  84.7723020 137.5246450 127.7066120
  84.3102390 137.7329470 128.5186060  84.3701130 136.7105800 127.4036790
  89.7727530 138.7455400 128.8362780  88.9221120 138.4461150 129.1571850
  89.6129320 138.9897410 127.9246600  86.8677240 140.2457150 130.9361570
  87.1930650 139.4120900 130.5963800  87.6557570 140.7685670 131.0839900
  83.6012030 134.2788630 116.9836630  82.9766210 134.2748500 117.7089940
  83.5142150 133.4119590 116.5872600  82.5229110 135.2025260 123.9620400
  82.8201440 136.1088090 123.8812420  83.0714670 134.7144040 123.3479970
  80.2767430 139.7811500 119.8312050  80.0508350 139.5648670 120.7358670
  79.4959960 140.2139960 119.4858020  87.5065190 139.7874870 118.4302700
  86.9074080 140.5110670 118.2466320  88.0544800 139.7251650 117.6479150
  82.7166640 140.6797080 130.4972320  82.6210240 139.7391810 130.3472720
  83.5598620 140.9012150 130.1020390  86.1130060 138.4238410 120.4605980
  86.5059630 138.7410610 119.6474670  86.4746910 137.5450290 120.5750500
  77.8477180 137.0910750 128.6506100  77.4540570 137.9385960 128.8578880
  77.1595580 136.4537120 128.8414740  84.4222230 137.1745720 131.7202840
  83.7320550 136.9817920 132.3548930  85.1654530 137.4580360 132.2527140
  75.1494230 135.0139210 122.6836180  74.8607280 135.5842070 123.3961160
  75.8939990 134.5343660 123.0467410  75.3364460 138.9559330 113.8938900
  75.2539130 139.8990090 114.0353890  74.9847520 138.8134240 113.0151250
  86.6985200 141.0144160 124.5556760  85.9666320 141.5230970 124.9046860
  86.3009540 140.1974140 124.2545540  83.1362590 137.6898360 122.9609250
  83.1398650 137.2488310 122.1113790  84.0313710 138.0115690 123.0681070
  78.9864970 137.5724850 121.9203460  78.6465020 138.0500080 122.6770510
  78.2242290 137.1189970 121.5604560  83.1982740 138.6910440 115.9516010
  83.3195560 138.6496920 116.9001830  82.8131250 139.5534590 115.7962740
  87.1611110 136.4677840 123.9679700  87.1783850 136.9186490 124.8121550
  86.9126690 135.5683480 124.1813140  82.2104240 141.0011580 115.3499310
  81.6421140 140.5529830 114.7235220  82.9193240 141.3604360 114.8164460
  90.5881860 133.8810020 129.8066080  90.9127630 133.1499680 130.3324060
  90.6238370 133.5623660 128.9047070  77.2873420 144.9023600 129.2266040
  76.9028210 144.2617270 129.8249000  77.5985610 145.6059720 129.7960770
  83.4370560 141.7500140 124.7074660  83.8040690 141.2758710 125.4536000
  83.2475620 142.6241710 125.0483000  76.3011050 136.4943830 120.8368130
  76.0157970 136.1299500 121.6746750  76.2389910 135.7624290 120.2231270
  81.2269930 140.7908780 127.0258870  80.9227000 141.6700760 127.2509230
  82.1816390 140.8508570 127.0616310  79.7551720 144.9969770 117.6225720
  78.9813980 144.4567390 117.4624440  80.4846350 144.4776380 117.2843480
  90.5139700 143.9935130 123.4152110  91.2338820 144.4890420 123.0248220
  90.3121520 143.3153020 122.7705980  85.9749640 135.3873090 117.5581500
  85.1614250 134.8886260 117.4826810  85.7811590 136.2271340 117.1417850
  85.8958500 144.0644190 129.3021110  85.8295810 143.1439860 129.0478700
  85.2663640 144.1619630 130.0165750  88.6898030 139.7592740 115.8543660
  89.5777650 140.0709970 115.6795000  88.6603120 138.8864990 115.4624240
  79.7989120 144.6650150 121.2604530  80.3167790 143.8618410 121.2061420
  79.3473140 144.6029290 122.1021360  84.6858620 145.9316430 116.5331830
  85.0274320 146.6758660 116.0375150  83.8571330 146.2447550 116.8956660
  77.2833660 141.6311520 128.1730230  76.9248600 142.2965370 128.7603570
  76.9888220 140.7995070 128.5442850  80.4846780 142.0895760 131.0569780
  80.1846920 142.2352940 130.1597600  81.2558020 141.5301050 130.9643170
  85.8275230 146.8864760 129.0524910  85.8419770 145.9545720 128.8343820
  85.1200330 146.9724520 129.6914680  90.9612300 141.0704580 115.3223520
  90.8776020 141.5018800 114.4719960  91.6806490 141.5302930 115.7550340
  92.0386440 143.5272100 128.3993490  91.3134630 144.1200880 128.2022880
  92.5661900 143.5195640 127.6006860  91.9899550 147.9246840 118.0505650
  91.3475710 147.2702460 118.3249370  91.6030210 148.3301930 117.2746320
  87.5686030 145.2532270 121.8977340  87.9209850 144.6560400 121.2378710
  86.6848360 144.9276500 122.0685590  83.6549310 146.0129960 119.3047750
  84.3420440 146.5599170 119.6855340  82.8681730 146.5570690 119.3397360
  75.7941710 141.6302780 114.7964830  76.6636560 141.9127580 115.0800750
  75.3032030 142.4438650 114.6813640  82.9576520 143.0175990 118.9173110
  83.4139300 143.8281240 119.1433300  82.6064730 142.6999130 119.7491600
  85.2609130 148.5282330 126.1465410  85.9051350 148.7341710 126.8238830
  85.6238570 147.7670730 125.6936260  78.8588300 133.3613640 119.3895630
  78.7302930 133.3531540 120.3380550  78.0350320 133.6996730 119.0386640
  86.5341210 146.5314680 124.8642860  87.1763440 145.8307840 124.9775030
  87.0590560 147.3113120 124.6839750  90.3796930 146.8163300 114.5882000
  90.1534510 146.0993740 115.1806640  89.9893130 146.5675740 113.7503750
  88.3078830 147.3309580 128.0678920  88.6435070 147.9176270 128.7456840
  87.3879170 147.2002290 128.2976710  76.1612960 150.8430160 115.3626460
  76.5210600 151.4419500 114.7083730  76.0205300 151.3890050 116.1361490
  75.8582230 135.1204760 128.8502330  75.1440750 135.3201680 129.4554940
  76.2777270 134.3444330 129.2217130  89.9613180 144.7335240 116.2496160
  89.6734880 145.1947930 117.0374040  90.7565350 144.2733010 116.5180380
  76.1454820 149.1085020 129.8368860  76.2545940 148.1679760 129.6964250
  75.4935380 149.3739770 129.1882590  84.1367410 147.3800910 131.2366980
  83.8164280 146.6610150 131.7812670  83.4625770 148.0555980 131.3103040
  82.1781580 148.2261360 116.1800130  82.1691680 148.9591050 115.5644640
  81.2579940 147.9792940 116.2727090  77.7788220 143.4476250 116.9246890
  77.1716170 144.1875150 116.9342190  78.2537570 143.5375610 116.0985090
  87.3521010 137.6127070 126.6003780  87.7201830 136.7922280 126.9283350
  86.4919210 137.6728960 127.0159430  90.7183040 136.5684010 117.4091340
  90.0896200 136.6729680 116.6949570  90.2234960 136.7880790 118.1985220
  85.1641180 148.2889600 114.8425320  85.2653160 148.0853590 113.9127300
  84.2642920 148.0347880 115.0473100  82.6867070 138.8469960 118.8249220
  81.9783220 139.3156300 119.2662830  82.9711550 138.1891970 119.4594410
  84.3123000 140.2666660 126.8241750  84.8108250 140.7412480 127.4893600
  84.4545950 139.3430180 127.0311780  86.7182500 135.5720620 120.2645010
  86.5950280 135.5906750 119.3154520  87.6667060 135.6199560 120.3843410
  83.8059290 150.8075920 119.5372990  84.0600790 150.7697310 118.6152360
  82.8571770 150.6809250 119.5301240  80.8902090 137.1555040 116.1999930
  81.7392620 137.5925190 116.1340120  80.5233360 137.4675300 117.0271990
  91.5189860 136.4834620 127.6670140  91.0163460 137.2240020 128.0063950
  92.3346520 136.8718620 127.3506930  89.8111870 141.7267800 121.1131500
  88.8702010 141.7418030 121.2879190  90.1255940 140.9403760 121.5591800
  79.7893510 143.4087400 114.6735460  80.5556780 143.2968760 115.2360890
  79.8668200 142.7125370 114.0212230  78.4840270 140.8412470 115.3568350
  78.5643860 139.8939980 115.4685750  79.3760020 141.1719350 115.4629010
  91.8137450 148.8976650 122.7885760  91.9384870 149.7207820 123.2609570
  92.6803010 148.6867380 122.4409910  76.1700460 147.0581430 118.3344400
  75.2440240 147.3002570 118.3249810  76.6356890 147.8855690 118.2129150
  78.2913260 150.1753930 131.6488470  79.0925990 150.4965980 132.0623870
  77.7765080 149.8149510 132.3708380  82.3957290 150.1638170 114.2828460
  83.1885900 150.4527000 113.8310250  81.8761640 149.7330340 113.6040940
  87.1277890 146.2833800 131.5963880  86.5216050 146.3065400 130.8559630
  86.8232000 145.5516840 132.1331130  88.5578260 150.0114090 130.2073290
  89.5100010 149.9272110 130.1573530  88.4106480 150.6755800 130.8807080
  91.4487460 149.3908300 115.7065200  91.1628970 148.9773440 114.8919380
  91.2507010 150.3196010 115.5865720  76.0111070 142.6627390 130.5924520
  76.5150090 142.0834670 131.1640750  75.2718490 142.9467620 131.1300890
  82.9134690 145.3841580 114.1470810  82.8085330 144.7693930 114.8732190
  82.7458910 144.8607470 113.3633820  83.0649010 144.0698380 130.1260040
  82.2994680 144.6383380 130.0414710  83.2464970 143.7774590 129.2328270
  86.1537420 144.4461610 114.7512800  85.6047520 144.8930910 115.3955540
  86.7756680 143.9410860 115.2750470  90.2072360 145.8003710 130.6835060
  90.9481830 146.1379470 130.1802520  89.4445040 145.9695770 130.1304830
  78.0434150 140.8056980 131.4874590  78.0839490 140.5070850 132.3959820
  78.8979650 141.2064590 131.3282110  81.8212540 143.4052530 116.6478100
  82.2428960 143.2392400 117.4909490  81.9463380 142.5952760 116.1533240
  79.9839960 139.3849080 129.4549080  79.4536420 138.8940030 128.8272420
  80.6528030 139.8133280 128.9207010  84.3340180 142.4290140 113.8955200
  84.8545840 141.7139160 113.5296350  84.9808580 143.0676010 114.1955710
  88.8818020 143.8518540 129.2190270  89.2959040 144.0063620 130.0680690
  87.9469020 143.9773760 129.3816050  89.3540190 141.1914700 131.2229420
  89.9360960 140.4367020 131.1349900  89.5301960 141.7222140 130.4460900
  80.4712260 136.3511450 129.5346370  80.3769130 135.7332200 128.8097240
  79.8909650 137.0777740 129.3076280  83.2373700 134.9084690 126.5673760
  82.7891000 134.9308950 125.7219310  82.6038900 134.5103710 127.1644060
  83.6433250 143.8039020 127.1886200  84.0621360 144.6471750 127.0162440
  82.7241880 143.9411060 126.9592980  85.9797150 141.5355200 128.5724040
  86.0993360 140.9396340 129.3118880  86.8391150 141.5724890 128.1525340
  88.3185050 142.0892390 127.1486550  87.7920270 142.6135010 126.5451690
  88.6616390 142.7219780 127.7796280  80.7171440 139.4785760 113.5936260
  80.5160500 138.6153120 113.9549600  80.5463490 139.3919120 112.6557860
  81.4940670 150.1092030 128.3043930  80.9561760 150.8338090 127.9852630
  81.7474630 149.6322370 127.5141270  82.7465920 138.0776550 129.8299860
  83.3365610 137.7692400 130.5177680  81.9286160 137.6056300 129.9859760
  87.5659350 137.6942360 130.0632880  86.8774870 137.0323900 129.9982870
  88.2865370 137.2480630 130.5081340  88.1959750 134.2893990 116.1223140
  88.4762040 133.4461890 116.4782560  87.4225480 134.5217100 116.6361890
  79.5154240 136.5786380 113.5814140  79.8180140 136.5853810 112.6733290
  80.2548830 136.2284240 114.0781800  82.7339170 135.5221000 114.5670340
  82.3861170 134.8444990 113.9872790  82.9351940 135.0610510 115.3813730
  84.8988210 150.5101750 116.1856940  85.7939000 150.8486720 116.2075700
  84.9305840 149.7881160 115.5581220  78.5384370 145.8828800 114.4143940
  78.9759240 146.4258470 115.0701520  79.0232100 145.0575750 114.4240280
  75.7530170 148.6717830 121.8664200  76.0833180 147.8038890 121.6342840
  76.1821170 148.8776350 122.6969160  80.3492090 147.0026840 119.5266170
  80.0487630 146.8791810 120.4270080  80.2429580 146.1435430 119.1181900
  76.2420380 149.5388420 124.6045830  75.8051370 149.7189220 125.4369980
  76.8098060 150.2963040 124.4627550  91.8782560 149.0405420 128.8923140
  91.2784550 149.0997980 128.1487060  92.0076460 148.1010400 129.0219990
  93.1184010 146.7823240 114.2292850  92.2876970 146.8499890 114.7000080
  93.2955840 147.6727360 113.9259710  92.5740470 143.5270720 116.7327050
  93.3359380 144.0967370 116.8386740  92.5894840 142.9597920 117.5035360
  76.0744810 142.0508650 120.9634710  75.4193650 141.7820290 120.3194410
  76.9122760 141.9413130 120.5136690  93.5800440 144.3820820 121.5768980
  93.9509270 143.5988140 121.1704950  94.2202370 145.0709920 121.3986280
  90.5634200 145.7657400 126.9899300  89.7494040 146.1954560 127.2525090
  90.9708400 146.3775810 126.3768350  92.6259640 143.8205090 113.8899570
  92.9008480 144.7283970 113.7618790  92.4370380 143.7567620 114.8261560
  89.0235250 136.8449940 115.1853200  89.4420130 136.6580920 114.3449860
  88.7171310 135.9928990 115.4956130  92.5224980 141.7574080 118.8829000
  92.1468580 140.9902010 118.4510290  91.7928100 142.1396780 119.3703930
  77.1120740 142.4361220 125.5038050  77.4793780 142.3488620 126.3834070
  76.5431560 141.6727770 125.4044910  91.9124600 140.9045600 128.5168520
  91.6810690 140.6758350 127.6166470  92.1729150 141.8245150 128.4713410
  76.6636740 139.3470310 129.4096470  75.7692790 139.3137070 129.7490180
  77.2034290 139.5457100 130.1747720  90.3512670 136.1302030 131.2948220
  91.2282850 136.1385430 131.6782220  90.3633510 135.3932870 130.6840570
  75.2882890 139.2607580 116.9060040  74.3846970 139.5237780 116.7311700
  75.7723510 139.5318750 116.1260000  91.7975940 139.9831570 122.1836240
  92.3213420 139.4894220 121.5526410  92.3835360 140.1181930 122.9283810
  91.9765660 140.0671440 125.7055790  91.0268370 140.0334980 125.8200780
  92.1578670 140.9771550 125.4705560  77.8310100 138.3173120 114.8154420
  78.5401800 137.8956340 114.3301700  77.1150040 138.3848350 114.1837770
  77.4784260 134.3712450 113.8557070  78.2012390 134.9121390 114.1738290
  77.7508780 134.0975870 112.9798610  91.2875910 139.2404920 118.1228650
  91.7835030 139.0075790 118.9077530  91.0891980 138.4016760 117.7066290
  77.1676450 133.6218640 123.7579690  77.8152640 133.0716020 123.3174850
  77.5878290 133.8761790 124.5795500  92.7163070 137.8765870 120.6566330
  92.6062350 137.7221910 121.5948600  93.4770660 137.3486810 120.4141740
  91.0628790 133.8160000 127.1149330  91.7001010 134.4294140 127.4808520
  91.2103680 133.8520660 126.1698560  93.6053340 135.7073790 113.8972470
  94.5302650 135.5754970 113.6890760  93.5829130 135.7866610 114.8508920
  93.6791830 136.4784450 116.5229180  92.8843330 136.4129570 117.0522090
  93.8835110 137.4135090 116.5114530  90.6210250 150.5176000 120.5167570
  91.2169320 150.1960570 119.8401990  90.8788400 150.0447820 121.3080840
  76.9208450 133.7774310 126.5005010  76.5723270 134.2338130 127.2663190
  76.5896150 132.8831440 126.5827440  78.5272820 146.9493910 130.6658200
  78.4842450 146.5786820 131.5472660  78.6583830 147.8871480 130.8060020
  82.2278850 148.5053500 126.2667920  81.9870210 148.7728060 125.3798440
  83.1681490 148.6759230 126.3218780  84.4333270 134.9686190 130.0224430
  84.3722160 135.5608020 130.7719840  85.3733650 134.8612150 129.8774690
  87.0707830 134.6256250 129.6616720  87.6848240 134.9435540 128.9997800
  87.6157390 134.1404840 130.2812580  93.4883010 150.5247880 127.0678560
  92.9941290 150.9216750 126.3505690  92.8796300 149.8997090 127.4615840
  77.5929090 133.3050510 129.7755780  78.1412080 133.1238560 129.0121890
  77.6584400 132.5144620 130.3112090  78.3660850 149.8956160 127.7855980
  77.7721170 149.7640860 128.5246020  78.3584690 149.0594300 127.3198080
  87.8115870 133.1888390 125.9886010  86.9375710 133.5223500 125.7858940
  87.7026620 132.7161570 126.8137880  88.7187850 135.3959260 127.3727730
  88.3901210 134.5811020 126.9929460  89.6670150 135.3529070 127.2493420
  77.9973080 147.2614540 126.7364020  77.2707140 146.6419830 126.6689970
  78.0582230 147.6555150 125.8662100  81.6018180 149.4759540 123.5213430
  82.1183200 148.8646900 122.9961690  82.2515560 149.9788320 124.0124440
  84.3413680 150.3668030 124.3482410  84.6291490 150.1122330 123.4715420
  84.8536900 149.8145390 124.9387980  85.5590690 134.1058230 124.9278920
  84.7762480 134.5803730 125.2075680  85.2653620 133.2013060 124.8192100
  90.1111760 134.8081330 122.9728010  90.5519850 134.7526430 122.1249610
  89.8419350 135.7239340 123.0438190  91.9750330 134.4396570 120.9836830
  91.9138730 133.4957790 120.8367850  92.7542360 134.5476660 121.5290290
  76.2803080 150.5788930 119.9460780  76.1125120 149.9459610 120.6442670
  75.4137590 150.7848330 119.5954970  76.9031100 134.4105710 117.4492640
  77.6610460 134.5234590 116.8756670  76.4408270 135.2474910 117.4036070
  83.4444910 136.5244980 120.4394950  82.6319420 136.1501870 120.0990830
  83.9486550 135.7690060 120.7416140  87.9469890 133.1887430 121.6778020
  88.5499260 133.7607640 122.1526540  87.2062880 133.7526870 121.4551920
  91.0904490 133.5908990 116.9518300  91.2855120 134.4892440 117.2185730
  90.3034360 133.3596070 117.4451250  77.8865780 149.2722160 117.3910920
  77.3613400 149.6530190 116.6872880  77.8110360 149.8972930 118.1120630
  79.2756250 134.9369760 115.9894610  79.8049010 134.1499560 115.8602560
  79.9084570 135.6160950 116.2230140  81.4694090 134.6744900 119.0440000
  80.8396830 133.9732210 119.2110130  80.9299230 135.4349030 118.8273160
  92.6431100 150.8309700 118.7124860  92.8183290 150.1447440 118.0685780
  91.9452670 151.3556750 118.3201530  81.5949650 133.9528880 131.4792490
  81.3133920 134.4562480 130.7153310  81.9769350 133.1550630 131.1134620
  80.4858750 151.2204540 116.2660170  81.2177570 150.9363820 115.7184060
  80.7452420 150.9817820 117.1559550  79.6473540 147.3369270 116.2706500
  79.0182420 147.8054370 116.8192330  79.7621370 146.4918490 116.7052690
  88.1965110 133.3682460 132.0572960  88.0830560 133.6877070 132.9524480
  89.0134850 133.7694970 131.7610240  90.9763600 150.5153990 131.5391650
  91.7688920 150.0203220 131.3317610  91.2696750 151.1944130 132.1467260
  87.1023260 141.3874930 102.4207700  87.0217310 140.4729540 102.1499410
  86.6887680 141.8842000 101.7147410  85.2341300 143.1653950 104.3016970
  84.4583400 142.6854390 104.5915540  85.8854230 142.4859600 104.1273130
  79.2507130 143.4773760 105.1792730  78.4192010 143.2222470 105.5789240
  79.8588110 143.5484530 105.9150650  89.2548730 147.5714140 103.0816100
  88.7930260 146.8001380 103.4103270  90.0674280 147.5980210 103.5868550
  79.2308390 147.5113850 105.3750750  79.5336430 146.6211590 105.1960970
  79.9751980 148.0684070 105.1473000  77.6599080 138.4375650  98.9635120
  76.7715780 138.7791620  98.8615000  77.9440270 138.2375970  98.0715950
  75.6232090 141.0381300 104.8474820  76.1948200 140.2703500 104.8478460
  75.6233630 141.3370060 103.9381430  85.4812040 149.8572150 102.7020090
  84.8623480 150.3129650 102.1314530  86.3363820 150.0123610 102.3009790
  84.6750290 145.8411140 104.3087130  84.6058570 144.9001080 104.1476260
  85.4370150 145.9312550 104.8809700  76.8656960 136.4465660 106.6343750
  76.6859800 135.5491410 106.9146510  76.4637040 136.9937530 107.3090700
  85.7055460 138.6481520 104.5356060  86.0820280 137.7753400 104.4229730
  85.6074970 138.9840220 103.6446500  79.8360470 137.0207150  99.9973500
  79.9427220 137.9210880 100.3042260  78.9252830 136.9725120  99.7068150
  89.4879580 136.1431960 101.4684400  90.3089200 135.6528530 101.5109880
  89.5213660 136.7329620 102.2216240  77.4843630 138.9426160 105.2426090
  78.1653740 139.2064530 105.8613490  77.1691680 138.1027030 105.5764100
  81.6768200 139.9893520 104.3298680  82.1846420 140.4874490 104.9703700
  82.2081440 139.2128720 104.1538040  93.7779130 138.1598710 108.0328030
  93.0731300 138.5480420 107.5143140  94.0437050 138.8549000 108.6348960
  79.9604300 134.6292080 108.5962100  79.9622740 135.1464470 107.7908000
  79.1308610 134.1522260 108.5732030  86.3475390 144.7411390 100.0952000
  85.7292660 145.2060840  99.5314720  86.8598640 145.4338870 100.5121510
  81.2107150 144.2687260 106.7735600  80.8776530 144.8956180 107.4156670
  81.3873830 144.7949140 105.9937270  89.7241060 138.0832340 104.2411940
  89.0196630 138.3717230 104.8215050  90.0853220 138.8932450 103.8811500
  79.6419630 136.3402040 106.6032550  79.9836440 137.1844090 106.3086420
  78.7035440 136.4885780 106.7197890  80.4226250 146.2368060 108.5884780
  81.0400250 146.9119140 108.3069230  79.5619370 146.6456040 108.4972280
  75.7158590 145.4267920  97.4691630  75.3386570 145.9155020  96.7376530
  75.9731660 146.0993200  98.0998160  91.3403840 147.7007470 106.5039420
  90.6567360 148.3706580 106.4956090  91.8798130 147.8988120 105.7384280
  92.7927980 137.5287130 104.6321150  91.8452890 137.5626110 104.7636580
  93.1177970 138.3426080 105.0170510  83.3247520 133.8284310 102.9277140
  83.6322500 133.2731200 102.2112640  82.3948220 133.9628770 102.7450130
  88.8762580 149.5451600 105.2184600  88.8889740 149.1413890 104.3506860
  88.3237800 150.3198890 105.1146030  90.1708000 146.2667820 100.3074770
  90.0604330 145.3242150 100.4324190  90.1676250 146.6283460 101.1937530
  88.2748020 144.4481440 106.5467210  88.6916810 144.2341550 105.7120670
  88.9987840 144.7054230 107.1175830  85.7128280 141.8933140  99.6637260
  84.7857560 141.8270520  99.8925730  85.8653100 142.8313270  99.5492500
  85.6997360 138.1650140  96.6604420  84.7601030 138.3264100  96.7456880
  86.0180620 138.8835820  96.1140410  92.2210120 142.8468660 106.6383450
  91.3928750 142.9161750 106.1633580  92.8160600 143.4322970 106.1699280
  89.7425570 143.4553440 100.1672510  89.1237990 143.1172990  99.5198810
  89.7250020 142.8113200 100.8751700  89.1852130 139.6337980 107.5838320
  88.7723310 140.4591690 107.8378310  88.4528080 139.0483020 107.3914680
  81.3184920 142.4197880 102.4456990  80.9141920 141.7075130 101.9502890
  81.4048040 142.0751120 103.3345030  81.7866620 146.1065440 104.6096200
  81.4894910 145.5010910 103.9303980  82.7366440 146.1442750 104.4985560
  80.0313540 139.1941090 106.2256030  80.5828130 139.3036430 105.4509280
  80.5457050 139.5678690 106.9411260  89.8752230 149.6797310 108.2719300
  89.3982790 150.4869500 108.0791910  89.1914020 149.0275640 108.4245510
  80.8785050 145.8447130 111.2604000  79.9813580 146.0687100 111.5077400
  80.9037920 145.9682070 110.3115400  87.9190270 142.6940250  97.1745260
  88.3583550 141.8562680  97.0283080  88.6318690 143.3269650  97.2609400
  79.7056270 142.7160450 109.8361370  79.5664040 143.5883250 110.2048770
  78.8237630 142.3733260 109.6909310  86.0285650 147.6336320 101.1426500
  86.4681560 148.3760650 100.7281890  85.9672540 147.8762890 102.0665460
  81.5036620 148.6582150 112.0446520  81.4752050 149.0625100 111.1774950
  81.3401590 147.7292510 111.8818120  78.0189550 141.3142860  99.9463640
  77.8987150 142.0404950  99.3344910  77.7090440 140.5445770  99.4691550
  93.4551440 149.4409250 113.3410690  93.9311160 149.9192140 114.0199770
  94.0758600 149.3726740 112.6156190  75.6574920 144.4858000 105.7532280
  75.7355340 144.6206770 104.8088000  76.2716600 143.7773890 105.9460400
  76.9022550 146.1858190 102.1638460  76.4950630 146.3272780 101.3092060
  77.7935560 145.9018350 101.9609670  92.8584690 146.6322100 110.5010700
  92.9847750 146.3933980 109.5827880  92.9006070 145.8006640 110.9732780
  86.7201430 150.3350100 109.0705510  87.2346100 150.2458110 109.8727940
  85.8770510 150.6809800 109.3633420  88.6955830 150.6205440  98.4989510
  88.5356970 150.3308380  99.3971340  88.5302540 149.8445570  97.9634740
  81.1744210 150.4003970 100.2761130  80.9986690 149.4839510 100.0628930
  80.3199950 150.7591260 100.5158930  88.3981960 148.1293000  97.0587510
  87.7047120 148.1270290  96.3989790  89.1404820 147.7052320  96.6281680
  87.9631890 149.7555710 101.1336000  88.4188840 148.9745090 101.4474620
  88.3024410 150.4662530 101.6777180  92.7108700 138.6854560 111.4660440
  92.0952970 139.1934230 110.9375900  92.3905120 137.7852890 111.4086380
  75.7134440 145.5272170 108.2926740  75.8765480 145.0577530 107.4746110
  76.1786890 145.0195730 108.9575580  80.4853210 134.6577930 103.3287310
  80.0421360 135.4387470 102.9971830  81.0438200 134.9807820 104.0358250
  84.7723020 137.5246450 108.9322630  84.3102390 137.7329470 109.7442570
  84.3701130 136.7105800 108.6293300  89.7727530 138.7455400 110.0619290
  88.9221120 138.4461150 110.3828360  89.6129320 138.9897410 109.1503110
  86.8677240 140.2457150 112.1618080  87.1930650 139.4120900 111.8220310
  87.6557570 140.7685670 112.3096410  82.5229110 135.2025260 105.1876910
  82.8201440 136.1088090 105.1068930  83.0714670 134.7144040 104.5736480
  80.2767430 139.7811500 101.0568560  80.0508350 139.5648670 101.9615180
  79.4959960 140.2139960 100.7114530  87.5065190 139.7874870  99.6559210
  86.9074080 140.5110670  99.4722830  88.0544800 139.7251650  98.8735660
  82.7166640 140.6797080 111.7228830  82.6210240 139.7391810 111.5729230
  83.5598620 140.9012150 111.3276900  86.1130060 138.4238410 101.6862490
  86.5059630 138.7410610 100.8731180  86.4746910 137.5450290 101.8007010
  77.8477180 137.0910750 109.8762610  77.4540570 137.9385960 110.0835390
  77.1595580 136.4537120 110.0671250  84.4222230 137.1745720 112.9459350
  83.7320550 136.9817920 113.5805440  85.1654530 137.4580360 113.4783650
  75.3364460 138.9559330  95.1195410  75.2539130 139.8990090  95.2610400
  74.9847520 138.8134240  94.2407760  86.6985200 141.0144160 105.7813270
  85.9666320 141.5230970 106.1303370  86.3009540 140.1974140 105.4802050
  83.1362590 137.6898360 104.1865760  83.1398650 137.2488310 103.3370300
  84.0313710 138.0115690 104.2937580  78.9864970 137.5724850 103.1459970
  78.6465020 138.0500080 103.9027020  78.2242290 137.1189970 102.7861070
  83.1982740 138.6910440  97.1772520  83.3195560 138.6496920  98.1258340
  82.8131250 139.5534590  97.0219250  87.1611110 136.4677840 105.1936210
  87.1783850 136.9186490 106.0378060  86.9126690 135.5683480 105.4069650
  82.2104240 141.0011580  96.5755820  81.6421140 140.5529830  95.9491730
  82.9193240 141.3604360  96.0420970  90.5881860 133.8810020 111.0322590
  90.9127630 133.1499680 111.5580570  90.6238370 133.5623660 110.1303580
  77.2873420 144.9023600 110.4522550  76.9028210 144.2617270 111.0505510
  77.5985610 145.6059720 111.0217280  83.4370560 141.7500140 105.9331170
  83.8040690 141.2758710 106.6792510  83.2475620 142.6241710 106.2739510
  81.2269930 140.7908780 108.2515380  80.9227000 141.6700760 108.4765740
  82.1816390 140.8508570 108.2872820  79.7551720 144.9969770  98.8482230
  78.9813980 144.4567390  98.6880950  80.4846350 144.4776380  98.5099990
  90.5139700 143.9935130 104.6408620  91.2338820 144.4890420 104.2504730
  90.3121520 143.3153020 103.9962490  85.9749640 135.3873090  98.7838010
  85.1614250 134.8886260  98.7083320  85.7811590 136.2271340  98.3674360
  85.8958500 144.0644190 110.5277620  85.8295810 143.1439860 110.2735210
  85.2663640 144.1619630 111.2422260  88.6898030 139.7592740  97.0800170
  89.5777650 140.0709970  96.9051510  88.6603120 138.8864990  96.6880750
  79.7989120 144.6650150 102.4861040  80.3167790 143.8618410 102.4317930
  79.3473140 144.6029290 103.3277870  84.6858620 145.9316430  97.7588340
  85.0274320 146.6758660  97.2631660  83.8571330 146.2447550  98.1213170
  77.2833660 141.6311520 109.3986740  76.9248600 142.2965370 109.9860080
  76.9888220 140.7995070 109.7699360  80.4846780 142.0895760 112.2826290
  80.1846920 142.2352940 111.3854110  81.2558020 141.5301050 112.1899680
  85.8275230 146.8864760 110.2781420  85.8419770 145.9545720 110.0600330
  85.1200330 146.9724520 110.9171190  90.9612300 141.0704580  96.5480030
  90.8776020 141.5018800  95.6976470  91.6806490 141.5302930  96.9806850
  92.0386440 143.5272100 109.6250000  91.3134630 144.1200880 109.4279390
  92.5661900 143.5195640 108.8263370  91.9899550 147.9246840  99.2762160
  91.3475710 147.2702460  99.5505880  91.6030210 148.3301930  98.5002830
  87.5686030 145.2532270 103.1233850  87.9209850 144.6560400 102.4635220
  86.6848360 144.9276500 103.2942100  83.6549310 146.0129960 100.5304260
  84.3420440 146.5599170 100.9111850  82.8681730 146.5570690 100.5653870
  75.7941710 141.6302780  96.0221340  76.6636560 141.9127580  96.3057260
  75.3032030 142.4438650  95.9070150  82.9576520 143.0175990 100.1429620
  83.4139300 143.8281240 100.3689810  82.6064730 142.6999130 100.9748110
  85.2609130 148.5282330 107.3721920  85.9051350 148.7341710 108.0495340
  85.6238570 147.7670730 106.9192770  86.5341210 146.5314680 106.0899370
  87.1763440 145.8307840 106.2031540  87.0590560 147.3113120 105.9096260
  90.3796930 146.8163300  95.8138510  90.1534510 146.0993740  96.4063150
  89.9893130 146.5675740  94.9760260  88.3078830 147.3309580 109.2935430
  88.6435070 147.9176270 109.9713350  87.3879170 147.2002290 109.5233220
  76.1612960 150.8430160  96.5882970  76.5210600 151.4419500  95.9340240
  76.0205300 151.3890050  97.3618000  75.8582230 135.1204760 110.0758840
  75.1440750 135.3201680 110.6811450  76.2777270 134.3444330 110.4473640
  89.9613180 144.7335240  97.4752670  89.6734880 145.1947930  98.2630550
  90.7565350 144.2733010  97.7436890  76.1454820 149.1085020 111.0625370
  76.2545940 148.1679760 110.9220760  75.4935380 149.3739770 110.4139100
  84.1367410 147.3800910 112.4623490  83.8164280 146.6610150 113.0069180
  83.4625770 148.0555980 112.5359550  82.1781580 148.2261360  97.4056640
  82.1691680 148.9591050  96.7901150  81.2579940 147.9792940  97.4983600
  77.7788220 143.4476250  98.1503400  77.1716170 144.1875150  98.1598700
  78.2537570 143.5375610  97.3241600  87.3521010 137.6127070 107.8260290
  87.7201830 136.7922280 108.1539860  86.4919210 137.6728960 108.2415940
  90.7183040 136.5684010  98.6347850  90.0896200 136.6729680  97.9206080
  90.2234960 136.7880790  99.4241730  85.1641180 148.2889600  96.0681830
  85.2653160 148.0853590  95.1383810  84.2642920 148.0347880  96.2729610
  82.6867070 138.8469960 100.0505730  81.9783220 139.3156300 100.4919340
  82.9711550 138.1891970 100.6850920  84.3123000 140.2666660 108.0498260
  84.8108250 140.7412480 108.7150110  84.4545950 139.3430180 108.2568290
  86.7182500 135.5720620 101.4901520  86.5950280 135.5906750 100.5411030
  87.6667060 135.6199560 101.6099920  83.8059290 150.8075920 100.7629500
  84.0600790 150.7697310  99.8408870  82.8571770 150.6809250 100.7557750
  80.8902090 137.1555040  97.4256440  81.7392620 137.5925190  97.3596630
  80.5233360 137.4675300  98.2528500  91.5189860 136.4834620 108.8926650
  91.0163460 137.2240020 109.2320460  92.3346520 136.8718620 108.5763440
  89.8111870 141.7267800 102.3388010  88.8702010 141.7418030 102.5135700
  90.1255940 140.9403760 102.7848310  79.7893510 143.4087400  95.8991970
  80.5556780 143.2968760  96.4617400  79.8668200 142.7125370  95.2468740
  78.4840270 140.8412470  96.5824860  78.5643860 139.8939980  96.6942260
  79.3760020 141.1719350  96.6885520  91.8137450 148.8976650 104.0142270
  91.9384870 149.7207820 104.4866080  92.6803010 148.6867380 103.6666420
  76.1700460 147.0581430  99.5600910  75.2440240 147.3002570  99.5506320
  76.6356890 147.8855690  99.4385660  78.2913260 150.1753930 112.8744980
  79.0925990 150.4965980 113.2880380  77.7765080 149.8149510 113.5964890
  82.3957290 150.1638170  95.5084970  83.1885900 150.4527000  95.0566760
  81.8761640 149.7330340  94.8297450  87.1277890 146.2833800 112.8220390
  86.5216050 146.3065400 112.0816140  86.8232000 145.5516840 113.3587640
  88.5578260 150.0114090 111.4329800  89.5100010 149.9272110 111.3830040
  88.4106480 150.6755800 112.1063590  91.4487460 149.3908300  96.9321710
  91.1628970 148.9773440  96.1175890  91.2507010 150.3196010  96.8122230
  76.0111070 142.6627390 111.8181030  76.5150090 142.0834670 112.3897260
  75.2718490 142.9467620 112.3557400  82.9134690 145.3841580  95.3727320
  82.8085330 144.7693930  96.0988700  82.7458910 144.8607470  94.5890330
  83.0649010 144.0698380 111.3516550  82.2994680 144.6383380 111.2671220
  83.2464970 143.7774590 110.4584780  86.1537420 144.4461610  95.9769310
  85.6047520 144.8930910  96.6212050  86.7756680 143.9410860  96.5006980
  90.2072360 145.8003710 111.9091570  90.9481830 146.1379470 111.4059030
  89.4445040 145.9695770 111.3561340  78.0434150 140.8056980 112.7131100
  78.0839490 140.5070850 113.6216330  78.8979650 141.2064590 112.5538620
  81.8212540 143.4052530  97.8734610  82.2428960 143.2392400  98.7166000
  81.9463380 142.5952760  97.3789750  79.9839960 139.3849080 110.6805590
  79.4536420 138.8940030 110.0528930  80.6528030 139.8133280 110.1463520
  84.3340180 142.4290140  95.1211710  84.8545840 141.7139160  94.7552860
  84.9808580 143.0676010  95.4212220  88.8818020 143.8518540 110.4446780
  89.2959040 144.0063620 111.2937200  87.9469020 143.9773760 110.6072560
  89.3540190 141.1914700 112.4485930  89.9360960 140.4367020 112.3606410
  89.5301960 141.7222140 111.6717410  80.4712260 136.3511450 110.7602880
  80.3769130 135.7332200 110.0353750  79.8909650 137.0777740 110.5332790
  83.2373700 134.9084690 107.7930270  82.7891000 134.9308950 106.9475820
  82.6038900 134.5103710 108.3900570  83.6433250 143.8039020 108.4142710
  84.0621360 144.6471750 108.2418950  82.7241880 143.9411060 108.1849490
  85.9797150 141.5355200 109.7980550  86.0993360 140.9396340 110.5375390
  86.8391150 141.5724890 109.3781850  88.3185050 142.0892390 108.3743060
  87.7920270 142.6135010 107.7708200  88.6616390 142.7219780 109.0052790
  80.7171440 139.4785760  94.8192770  80.5160500 138.6153120  95.1806110
  80.5463490 139.3919120  93.8814370  81.4940670 150.1092030 109.5300440
  80.9561760 150.8338090 109.2109140  81.7474630 149.6322370 108.7397780
  82.7465920 138.0776550 111.0556370  83.3365610 137.7692400 111.7434190
  81.9286160 137.6056300 111.2116270  87.5659350 137.6942360 111.2889390
  86.8774870 137.0323900 111.2239380  88.2865370 137.2480630 111.7337850
  88.1959750 134.2893990  97.3479650  88.4762040 133.4461890  97.7039070
  87.4225480 134.5217100  97.8618400  79.5154240 136.5786380  94.8070650
  79.8180140 136.5853810  93.8989800  80.2548830 136.2284240  95.3038310
  82.7339170 135.5221000  95.7926850  82.3861170 134.8444990  95.2129300
  82.9351940 135.0610510  96.6070240  84.8988210 150.5101750  97.4113450
  85.7939000 150.8486720  97.4332210  84.9305840 149.7881160  96.7837730
  78.5384370 145.8828800  95.6400450  78.9759240 146.4258470  96.2958030
  79.0232100 145.0575750  95.6496790  75.7530170 148.6717830 103.0920710
  76.0833180 147.8038890 102.8599350  76.1821170 148.8776350 103.9225670
  80.3492090 147.0026840 100.7522680  80.0487630 146.8791810 101.6526590
  80.2429580 146.1435430 100.3438410  76.2420380 149.5388420 105.8302340
  75.8051370 149.7189220 106.6626490  76.8098060 150.2963040 105.6884060
  91.8782560 149.0405420 110.1179650  91.2784550 149.0997980 109.3743570
  92.0076460 148.1010400 110.2476500  93.1184010 146.7823240  95.4549360
  92.2876970 146.8499890  95.9256590  93.2955840 147.6727360  95.1516220
  92.5740470 143.5270720  97.9583560  93.3359380 144.0967370  98.0643250
  92.5894840 142.9597920  98.7291870  76.0744810 142.0508650 102.1891220
  75.4193650 141.7820290 101.5450920  76.9122760 141.9413130 101.7393200
  93.5800440 144.3820820 102.8025490  93.9509270 143.5988140 102.3961460
  94.2202370 145.0709920 102.6242790  90.5634200 145.7657400 108.2155810
  89.7494040 146.1954560 108.4781600  90.9708400 146.3775810 107.6024860
  92.6259640 143.8205090  95.1156080  92.9008480 144.7283970  94.9875300
  92.4370380 143.7567620  96.0518070  89.0235250 136.8449940  96.4109710
  89.4420130 136.6580920  95.5706370  88.7171310 135.9928990  96.7212640
  92.5224980 141.7574080 100.1085510  92.1468580 140.9902010  99.6766800
  91.7928100 142.1396780 100.5960440  77.1120740 142.4361220 106.7294560
  77.4793780 142.3488620 107.6090580  76.5431560 141.6727770 106.6301420
  91.9124600 140.9045600 109.7425030  91.6810690 140.6758350 108.8422980
  92.1729150 141.8245150 109.6969920  76.6636740 139.3470310 110.6352980
  75.7692790 139.3137070 110.9746690  77.2034290 139.5457100 111.4004230
  90.3512670 136.1302030 112.5204730  91.2282850 136.1385430 112.9038730
  90.3633510 135.3932870 111.9097080  75.2882890 139.2607580  98.1316550
  74.3846970 139.5237780  97.9568210  75.7723510 139.5318750  97.3516510
  91.7975940 139.9831570 103.4092750  92.3213420 139.4894220 102.7782920
  92.3835360 140.1181930 104.1540320  91.9765660 140.0671440 106.9312300
  91.0268370 140.0334980 107.0457290  92.1578670 140.9771550 106.6962070
  77.8310100 138.3173120  96.0410930  78.5401800 137.8956340  95.5558210
  77.1150040 138.3848350  95.4094280  77.4784260 134.3712450  95.0813580
  78.2012390 134.9121390  95.3994800  77.7508780 134.0975870  94.2055120
  91.2875910 139.2404920  99.3485160  91.7835030 139.0075790 100.1334040
  91.0891980 138.4016760  98.9322800  92.7163070 137.8765870 101.8822840
  92.6062350 137.7221910 102.8205110  93.4770660 137.3486810 101.6398250
  91.0628790 133.8160000 108.3405840  91.7001010 134.4294140 108.7065030
  91.2103680 133.8520660 107.3955070  93.6053340 135.7073790  95.1228980
  94.5302650 135.5754970  94.9147270  93.5829130 135.7866610  96.0765430
  93.6791830 136.4784450  97.7485690  92.8843330 136.4129570  98.2778600
  93.8835110 137.4135090  97.7371040  90.6210250 150.5176000 101.7424080
  91.2169320 150.1960570 101.0658500  90.8788400 150.0447820 102.5337350
  76.9208450 133.7774310 107.7261520  76.5723270 134.2338130 108.4919700
  76.5896150 132.8831440 107.8083950  78.5272820 146.9493910 111.8914710
  78.4842450 146.5786820 112.7729170  78.6583830 147.8871480 112.0316530
  82.2278850 148.5053500 107.4924430  81.9870210 148.7728060 106.6054950
  83.1681490 148.6759230 107.5475290  84.4333270 134.9686190 111.2480940
  84.3722160 135.5608020 111.9976350  85.3733650 134.8612150 111.1031200
  87.0707830 134.6256250 110.8873230  87.6848240 134.9435540 110.2254310
  87.6157390 134.1404840 111.5069090  93.4883010 150.5247880 108.2935070
  92.9941290 150.9216750 107.5762200  92.8796300 149.8997090 108.6872350
  77.5929090 133.3050510 111.0012290  78.1412080 133.1238560 110.2378400
  77.6584400 132.5144620 111.5368600  78.3660850 149.8956160 109.0112490
  77.7721170 149.7640860 109.7502530  78.3584690 149.0594300 108.5454590
  87.8115870 133.1888390 107.2142520  86.9375710 133.5223500 107.0115450
  87.7026620 132.7161570 108.0394390  88.7187850 135.3959260 108.5984240
  88.3901210 134.5811020 108.2185970  89.6670150 135.3529070 108.4749930
  77.9973080 147.2614540 107.9620530  77.2707140 146.6419830 107.8946480
  78.0582230 147.6555150 107.0918610  81.6018180 149.4759540 104.7469940
  82.1183200 148.8646900 104.2218200  82.2515560 149.9788320 105.2380950
  84.3413680 150.3668030 105.5738920  84.6291490 150.1122330 104.6971930
  84.8536900 149.8145390 106.1644490  85.5590690 134.1058230 106.1535430
  84.7762480 134.5803730 106.4332190  85.2653620 133.2013060 106.0448610
  90.1111760 134.8081330 104.1984520  90.5519850 134.7526430 103.3506120
  89.8419350 135.7239340 104.2694700  91.9750330 134.4396570 102.2093340
  91.9138730 133.4957790 102.0624360  92.7542360 134.5476660 102.7546800
  76.2803080 150.5788930 101.1717290  76.1125120 149.9459610 101.8699180
  75.4137590 150.7848330 100.8211480  83.4444910 136.5244980 101.6651460
  82.6319420 136.1501870 101.3247340  83.9486550 135.7690060 101.9672650
  87.9469890 133.1887430 102.9034530  88.5499260 133.7607640 103.3783050
  87.2062880 133.7526870 102.6808430  91.0904490 133.5908990  98.1774810
  91.2855120 134.4892440  98.4442240  90.3034360 133.3596070  98.6707760
  77.8865780 149.2722160  98.6167430  77.3613400 149.6530190  97.9129390
  77.8110360 149.8972930  99.3377140  92.6431100 150.8309700  99.9381370
  92.8183290 150.1447440  99.2942290  91.9452670 151.3556750  99.5458040
  81.5949650 133.9528880 112.7049000  81.3133920 134.4562480 111.9409820
  81.9769350 133.1550630 112.3391130  80.4858750 151.2204540  97.4916680
  81.2177570 150.9363820  96.9440570  80.7452420 150.9817820  98.3816060
  79.6473540 147.3369270  97.4963010  79.0182420 147.8054370  98.0448840
  79.7621370 146.4918490  97.9309200  88.1965110 133.3682460 113.2829470
  88.0830560 133.6877070 114.1780990  89.0134850 133.7694970 112.9866750
  90.9763600 150.5153990 112.7648160  91.7688920 150.0203220 112.5574120
  91.2696750 151.1944130 113.3723770  87.1023260 141.3874930  83.6464210
  87.0217310 140.4729540  83.3755920  86.6887680 141.8842000  82.9403920
  85.2341300 143.1653950  85.5273480  84.4583400 142.6854390  85.8172050
  85.8854230 142.4859600  85.3529640  79.2507130 143.4773760  86.4049240
  78.4192010 143.2222470  86.8045750  79.8588110 143.5484530  87.1407160
  89.2548730 147.5714140  84.3072610  88.7930260 146.8001380  84.6359780
  90.0674280 147.5980210  84.8125060  79.2308390 147.5113850  86.6007260
  79.5336430 146.6211590  86.4217480  79.9751980 148.0684070  86.3729510
  77.6599080 138.4375650  80.1891630  76.7715780 138.7791620  80.0871510
  77.9440270 138.2375970  79.2972460  75.6232090 141.0381300  86.0731330
  76.1948200 140.2703500  86.0734970  75.6233630 141.3370060  85.1637940
  85.4812040 149.8572150  83.9276600  84.8623480 150.3129650  83.3571040
  86.3363820 150.0123610  83.5266300  84.6750290 145.8411140  85.5343640
  84.6058570 144.9001080  85.3732770  85.4370150 145.9312550  86.1066210
  76.8656960 136.4465660  87.8600260  76.6859800 135.5491410  88.1403020
  76.4637040 136.9937530  88.5347210  85.7055460 138.6481520  85.7612570
  86.0820280 137.7753400  85.6486240  85.6074970 138.9840220  84.8703010
  89.4879580 136.1431960  82.6940910  90.3089200 135.6528530  82.7366390
  89.5213660 136.7329620  83.4472750  77.4843630 138.9426160  86.4682600
  78.1653740 139.2064530  87.0870000  77.1691680 138.1027030  86.8020610
  81.6768200 139.9893520  85.5555190  82.1846420 140.4874490  86.1960210
  82.2081440 139.2128720  85.3794550  93.7779130 138.1598710  89.2584540
  93.0731300 138.5480420  88.7399650  94.0437050 138.8549000  89.8605470
  79.9604300 134.6292080  89.8218610  79.9622740 135.1464470  89.0164510
  79.1308610 134.1522260  89.7988540  86.3475390 144.7411390  81.3208510
  85.7292660 145.2060840  80.7571230  86.8598640 145.4338870  81.7378020
  81.2107150 144.2687260  87.9992110  80.8776530 144.8956180  88.6413180
  81.3873830 144.7949140  87.2193780  89.7241060 138.0832340  85.4668450
  89.0196630 138.3717230  86.0471560  90.0853220 138.8932450  85.1068010
  79.6419630 136.3402040  87.8289060  79.9836440 137.1844090  87.5342930
  78.7035440 136.4885780  87.9454400  80.4226250 146.2368060  89.8141290
  81.0400250 146.9119140  89.5325740  79.5619370 146.6456040  89.7228790
  75.7158590 145.4267920  78.6948140  75.3386570 145.9155020  77.9633040
  75.9731660 146.0993200  79.3254670  91.3403840 147.7007470  87.7295930
  90.6567360 148.3706580  87.7212600  91.8798130 147.8988120  86.9640790
  92.7927980 137.5287130  85.8577660  91.8452890 137.5626110  85.9893090
  93.1177970 138.3426080  86.2427020  88.8762580 149.5451600  86.4441110
  88.8889740 149.1413890  85.5763370  88.3237800 150.3198890  86.3402540
  90.1708000 146.2667820  81.5331280  90.0604330 145.3242150  81.6580700
  90.1676250 146.6283460  82.4194040  88.2748020 144.4481440  87.7723720
  88.6916810 144.2341550  86.9377180  88.9987840 144.7054230  88.3432340
  85.7128280 141.8933140  80.8893770  84.7857560 141.8270520  81.1182240
  85.8653100 142.8313270  80.7749010  85.6997360 138.1650140  77.8860930
  84.7601030 138.3264100  77.9713390  86.0180620 138.8835820  77.3396920
  92.2210120 142.8468660  87.8639960  91.3928750 142.9161750  87.3890090
  92.8160600 143.4322970  87.3955790  89.7425570 143.4553440  81.3929020
  89.1237990 143.1172990  80.7455320  89.7250020 142.8113200  82.1008210
  89.1852130 139.6337980  88.8094830  88.7723310 140.4591690  89.0634820
  88.4528080 139.0483020  88.6171190  81.3184920 142.4197880  83.6713500
  80.9141920 141.7075130  83.1759400  81.4048040 142.0751120  84.5601540
  81.7866620 146.1065440  85.8352710  81.4894910 145.5010910  85.1560490
  82.7366440 146.1442750  85.7242070  80.0313540 139.1941090  87.4512540
  80.5828130 139.3036430  86.6765790  80.5457050 139.5678690  88.1667770
  89.8752230 149.6797310  89.4975810  89.3982790 150.4869500  89.3048420
  89.1914020 149.0275640  89.6502020  80.8785050 145.8447130  92.4860510
  79.9813580 146.0687100  92.7333910  80.9037920 145.9682070  91.5371910
  87.9190270 142.6940250  78.4001770  88.3583550 141.8562680  78.2539590
  88.6318690 143.3269650  78.4865910  79.7056270 142.7160450  91.0617880
  79.5664040 143.5883250  91.4305280  78.8237630 142.3733260  90.9165820
  86.0285650 147.6336320  82.3683010  86.4681560 148.3760650  81.9538400
  85.9672540 147.8762890  83.2921970  81.5036620 148.6582150  93.2703030
  81.4752050 149.0625100  92.4031460  81.3401590 147.7292510  93.1074630
  91.5007410 133.9483060  76.7142810  91.1880070 134.0409890  77.6141880
  92.2619880 134.5264090  76.6640240  78.0189550 141.3142860  81.1720150
  77.8987150 142.0404950  80.5601420  77.7090440 140.5445770  80.6948060
  93.4551440 149.4409250  94.5667200  93.9311160 149.9192140  95.2456280
  94.0758600 149.3726740  93.8412700  75.6574920 144.4858000  86.9788790
  75.7355340 144.6206770  86.0344510  76.2716600 143.7773890  87.1716910
  76.9022550 146.1858190  83.3894970  76.4950630 146.3272780  82.5348570
  77.7935560 145.9018350  83.1866180  92.8584690 146.6322100  91.7267210
  92.9847750 146.3933980  90.8084390  92.9006070 145.8006640  92.1989290
  86.7201430 150.3350100  90.2962020  87.2346100 150.2458110  91.0984450
  85.8770510 150.6809800  90.5889930  88.6955830 150.6205440  79.7246020
  88.5356970 150.3308380  80.6227850  88.5302540 149.8445570  79.1891250
  81.1744210 150.4003970  81.5017640  80.9986690 149.4839510  81.2885440
  80.3199950 150.7591260  81.7415440  88.3981960 148.1293000  78.2844020
  87.7047120 148.1270290  77.6246300  89.1404820 147.7052320  77.8538190
  87.9631890 149.7555710  82.3592510  88.4188840 148.9745090  82.6731130
  88.3024410 150.4662530  82.9033690  92.7108700 138.6854560  92.6916950
  92.0952970 139.1934230  92.1632410  92.3905120 137.7852890  92.6342890
  75.7134440 145.5272170  89.5183250  75.8765480 145.0577530  88.7002620
  76.1786890 145.0195730  90.1832090  84.7723020 137.5246450  90.1579140
  84.3102390 137.7329470  90.9699080  84.3701130 136.7105800  89.8549810
  89.7727530 138.7455400  91.2875800  88.9221120 138.4461150  91.6084870
  89.6129320 138.9897410  90.3759620  86.8677240 140.2457150  93.3874590
  87.1930650 139.4120900  93.0476820  87.6557570 140.7685670  93.5352920
  82.5229110 135.2025260  86.4133420  82.8201440 136.1088090  86.3325440
  83.0714670 134.7144040  85.7992990  80.2767430 139.7811500  82.2825070
  80.0508350 139.5648670  83.1871690  79.4959960 140.2139960  81.9371040
  87.5065190 139.7874870  80.8815720  86.9074080 140.5110670  80.6979340
  88.0544800 139.7251650  80.0992170  82.7166640 140.6797080  92.9485340
  82.6210240 139.7391810  92.7985740  83.5598620 140.9012150  92.5533410
  86.1130060 138.4238410  82.9119000  86.5059630 138.7410610  82.0987690
  86.4746910 137.5450290  83.0263520  77.8477180 137.0910750  91.1019120
  77.4540570 137.9385960  91.3091900  77.1595580 136.4537120  91.2927760
  84.4222230 137.1745720  94.1715860  83.7320550 136.9817920  94.8061950
  85.1654530 137.4580360  94.7040160  75.1494230 135.0139210  85.1349200
  74.8607280 135.5842070  85.8474180  75.8939990 134.5343660  85.4980430
  86.6985200 141.0144160  87.0069780  85.9666320 141.5230970  87.3559880
  86.3009540 140.1974140  86.7058560  83.1362590 137.6898360  85.4122270
  83.1398650 137.2488310  84.5626810  84.0313710 138.0115690  85.5194090
  78.9864970 137.5724850  84.3716480  78.6465020 138.0500080  85.1283530
  78.2242290 137.1189970  84.0117580  87.1611110 136.4677840  86.4192720
  87.1783850 136.9186490  87.2634570  86.9126690 135.5683480  86.6326160
  82.2104240 141.0011580  77.8012330  81.6421140 140.5529830  77.1748240
  82.9193240 141.3604360  77.2677480  90.5881860 133.8810020  92.2579100
  90.9127630 133.1499680  92.7837080  90.6238370 133.5623660  91.3560090
  77.2873420 144.9023600  91.6779060  76.9028210 144.2617270  92.2762020
  77.5985610 145.6059720  92.2473790  83.4370560 141.7500140  87.1587680
  83.8040690 141.2758710  87.9049020  83.2475620 142.6241710  87.4996020
  76.3011050 136.4943830  83.2881150  76.0157970 136.1299500  84.1259770
  76.2389910 135.7624290  82.6744290  81.2269930 140.7908780  89.4771890
  80.9227000 141.6700760  89.7022250  82.1816390 140.8508570  89.5129330
  79.7551720 144.9969770  80.0738740  78.9813980 144.4567390  79.9137460
  80.4846350 144.4776380  79.7356500  90.5139700 143.9935130  85.8665130
  91.2338820 144.4890420  85.4761240  90.3121520 143.3153020  85.2219000
  85.8958500 144.0644190  91.7534130  85.8295810 143.1439860  91.4991720
  85.2663640 144.1619630  92.4678770  88.6898030 139.7592740  78.3056680
  89.5777650 140.0709970  78.1308020  88.6603120 138.8864990  77.9137260
  79.7989120 144.6650150  83.7117550  80.3167790 143.8618410  83.6574440
  79.3473140 144.6029290  84.5534380  84.6858620 145.9316430  78.9844850
  85.0274320 146.6758660  78.4888170  83.8571330 146.2447550  79.3469680
  77.2833660 141.6311520  90.6243250  76.9248600 142.2965370  91.2116590
  76.9888220 140.7995070  90.9955870  80.4846780 142.0895760  93.5082800
  80.1846920 142.2352940  92.6110620  81.2558020 141.5301050  93.4156190
  85.8275230 146.8864760  91.5037930  85.8419770 145.9545720  91.2856840
  85.1200330 146.9724520  92.1427700  90.9612300 141.0704580  77.7736540
  90.8776020 141.5018800  76.9232980  91.6806490 141.5302930  78.2063360
  92.0386440 143.5272100  90.8506510  91.3134630 144.1200880  90.6535900
  92.5661900 143.5195640  90.0519880  91.9899550 147.9246840  80.5018670
  91.3475710 147.2702460  80.7762390  91.6030210 148.3301930  79.7259340
  87.5686030 145.2532270  84.3490360  87.9209850 144.6560400  83.6891730
  86.6848360 144.9276500  84.5198610  83.6549310 146.0129960  81.7560770
  84.3420440 146.5599170  82.1368360  82.8681730 146.5570690  81.7910380
  82.9576520 143.0175990  81.3686130  83.4139300 143.8281240  81.5946320
  82.6064730 142.6999130  82.2004620  85.2609130 148.5282330  88.5978430
  85.9051350 148.7341710  89.2751850  85.6238570 147.7670730  88.1449280
  86.5341210 146.5314680  87.3155880  87.1763440 145.8307840  87.4288050
  87.0590560 147.3113120  87.1352770  90.3796930 146.8163300  77.0395020
  90.1534510 146.0993740  77.6319660  89.9893130 146.5675740  76.2016770
  88.3078830 147.3309580  90.5191940  88.6435070 147.9176270  91.1969860
  87.3879170 147.2002290  90.7489730  76.1612960 150.8430160  77.8139480
  76.5210600 151.4419500  77.1596750  76.0205300 151.3890050  78.5874510
  89.9613180 144.7335240  78.7009180  89.6734880 145.1947930  79.4887060
  90.7565350 144.2733010  78.9693400  76.1454820 149.1085020  92.2881880
  76.2545940 148.1679760  92.1477270  75.4935380 149.3739770  91.6395610
  84.1367410 147.3800910  93.6880000  83.8164280 146.6610150  94.2325690
  83.4625770 148.0555980  93.7616060  82.1781580 148.2261360  78.6313150
  82.1691680 148.9591050  78.0157660  81.2579940 147.9792940  78.7240110
  77.7788220 143.4476250  79.3759910  77.1716170 144.1875150  79.3855210
  78.2537570 143.5375610  78.5498110  87.3521010 137.6127070  89.0516800
  87.7201830 136.7922280  89.3796370  86.4919210 137.6728960  89.4672450
  90.7183040 136.5684010  79.8604360  90.0896200 136.6729680  79.1462590
  90.2234960 136.7880790  80.6498240  85.1641180 148.2889600  77.2938340
  85.2653160 148.0853590  76.3640320  84.2642920 148.0347880  77.4986120
  84.3123000 140.2666660  89.2754770  84.8108250 140.7412480  89.9406620
  84.4545950 139.3430180  89.4824800  86.7182500 135.5720620  82.7158030
  86.5950280 135.5906750  81.7667540  87.6667060 135.6199560  82.8356430
  83.8059290 150.8075920  81.9886010  84.0600790 150.7697310  81.0665380
  82.8571770 150.6809250  81.9814260  91.5189860 136.4834620  90.1183160
  91.0163460 137.2240020  90.4576970  92.3346520 136.8718620  89.8019950
  89.8111870 141.7267800  83.5644520  88.8702010 141.7418030  83.7392210
  90.1255940 140.9403760  84.0104820  79.7893510 143.4087400  77.1248480
  80.5556780 143.2968760  77.6873910  79.8668200 142.7125370  76.4725250
  78.4840270 140.8412470  77.8081370  78.5643860 139.8939980  77.9198770
  79.3760020 141.1719350  77.9142030  91.8137450 148.8976650  85.2398780
  91.9384870 149.7207820  85.7122590  92.6803010 148.6867380  84.8922930
  76.1700460 147.0581430  80.7857420  75.2440240 147.3002570  80.7762830
  76.6356890 147.8855690  80.6642170  78.2913260 150.1753930  94.1001490
  79.0925990 150.4965980  94.5136890  77.7765080 149.8149510  94.8221400
  82.3957290 150.1638170  76.7341480  83.1885900 150.4527000  76.2823270
  81.8761640 149.7330340  76.0553960  87.1277890 146.2833800  94.0476900
  86.5216050 146.3065400  93.3072650  86.8232000 145.5516840  94.5844150
  88.5578260 150.0114090  92.6586310  89.5100010 149.9272110  92.6086550
  88.4106480 150.6755800  93.3320100  91.4487460 149.3908300  78.1578220
  91.1628970 148.9773440  77.3432400  91.2507010 150.3196010  78.0378740
  76.0111070 142.6627390  93.0437540  76.5150090 142.0834670  93.6153770
  75.2718490 142.9467620  93.5813910  82.9134690 145.3841580  76.5983830
  82.8085330 144.7693930  77.3245210  82.7458910 144.8607470  75.8146840
  83.0649010 144.0698380  92.5773060  82.2994680 144.6383380  92.4927730
  83.2464970 143.7774590  91.6841290  86.1537420 144.4461610  77.2025820
  85.6047520 144.8930910  77.8468560  86.7756680 143.9410860  77.7263490
  90.2072360 145.8003710  93.1348080  90.9481830 146.1379470  92.6315540
  89.4445040 145.9695770  92.5817850  78.0434150 140.8056980  93.9387610
  78.0839490 140.5070850  94.8472840  78.8979650 141.2064590  93.7795130
  81.8212540 143.4052530  79.0991120  82.2428960 143.2392400  79.9422510
  81.9463380 142.5952760  78.6046260  79.9839960 139.3849080  91.9062100
  79.4536420 138.8940030  91.2785440  80.6528030 139.8133280  91.3720030
  84.3340180 142.4290140  76.3468220  84.8545840 141.7139160  75.9809370
  84.9808580 143.0676010  76.6468730  88.8818020 143.8518540  91.6703290
  89.2959040 144.0063620  92.5193710  87.9469020 143.9773760  91.8329070
  89.3540190 141.1914700  93.6742440  89.9360960 140.4367020  93.5862920
  89.5301960 141.7222140  92.8973920  80.4712260 136.3511450  91.9859390
  80.3769130 135.7332200  91.2610260  79.8909650 137.0777740  91.7589300
  83.2373700 134.9084690  89.0186780  82.7891000 134.9308950  88.1732330
  82.6038900 134.5103710  89.6157080  83.6433250 143.8039020  89.6399220
  84.0621360 144.6471750  89.4675460  82.7241880 143.9411060  89.4106000
  85.9797150 141.5355200  91.0237060  86.0993360 140.9396340  91.7631900
  86.8391150 141.5724890  90.6038360  88.3185050 142.0892390  89.5999570
  87.7920270 142.6135010  88.9964710  88.6616390 142.7219780  90.2309300
  80.7171440 139.4785760  76.0449280  80.5160500 138.6153120  76.4062620
  80.5463490 139.3919120  75.1070880  81.4940670 150.1092030  90.7556950
  80.9561760 150.8338090  90.4365650  81.7474630 149.6322370  89.9654290
  82.7465920 138.0776550  92.2812880  83.3365610 137.7692400  92.9690700
  81.9286160 137.6056300  92.4372780  87.5659350 137.6942360  92.5145900
  86.8774870 137.0323900  92.4495890  88.2865370 137.2480630  92.9594360
  88.1959750 134.2893990  78.5736160  88.4762040 133.4461890  78.9295580
  87.4225480 134.5217100  79.0874910  79.5154240 136.5786380  76.0327160
  79.8180140 136.5853810  75.1246310  80.2548830 136.2284240  76.5294820
  84.8988210 150.5101750  78.6369960  85.7939000 150.8486720  78.6588720
  84.9305840 149.7881160  78.0094240  78.5384370 145.8828800  76.8656960
  78.9759240 146.4258470  77.5214540  79.0232100 145.0575750  76.8753300
  75.7530170 148.6717830  84.3177220  76.0833180 147.8038890  84.0855860
  76.1821170 148.8776350  85.1482180  80.3492090 147.0026840  81.9779190
  80.0487630 146.8791810  82.8783100  80.2429580 146.1435430  81.5694920
  76.2420380 149.5388420  87.0558850  75.8051370 149.7189220  87.8883000
  76.8098060 150.2963040  86.9140570  91.8782560 149.0405420  91.3436160
  91.2784550 149.0997980  90.6000080  92.0076460 148.1010400  91.4733010
  93.1184010 146.7823240  76.6805870  92.2876970 146.8499890  77.1513100
  93.2955840 147.6727360  76.3772730  92.5740470 143.5270720  79.1840070
  93.3359380 144.0967370  79.2899760  92.5894840 142.9597920  79.9548380
  76.0744810 142.0508650  83.4147730  75.4193650 141.7820290  82.7707430
  76.9122760 141.9413130  82.9649710  93.5800440 144.3820820  84.0282000
  93.9509270 143.5988140  83.6217970  94.2202370 145.0709920  83.8499300
  90.5634200 145.7657400  89.4412320  89.7494040 146.1954560  89.7038110
  90.9708400 146.3775810  88.8281370  92.6259640 143.8205090  76.3412590
  92.9008480 144.7283970  76.2131810  92.4370380 143.7567620  77.2774580
  89.0235250 136.8449940  77.6366220  89.4420130 136.6580920  76.7962880
  88.7171310 135.9928990  77.9469150  92.5224980 141.7574080  81.3342020
  92.1468580 140.9902010  80.9023310  91.7928100 142.1396780  81.8216950
  77.1120740 142.4361220  87.9551070  77.4793780 142.3488620  88.8347090
  76.5431560 141.6727770  87.8557930  91.9124600 140.9045600  90.9681540
  91.6810690 140.6758350  90.0679490  92.1729150 141.8245150  90.9226430
  76.6636740 139.3470310  91.8609490  75.7692790 139.3137070  92.2003200
  77.2034290 139.5457100  92.6260740  90.3512670 136.1302030  93.7461240
  91.2282850 136.1385430  94.1295240  90.3633510 135.3932870  93.1353590
  75.2882890 139.2607580  79.3573060  74.3846970 139.5237780  79.1824720
  75.7723510 139.5318750  78.5773020  91.7975940 139.9831570  84.6349260
  92.3213420 139.4894220  84.0039430  92.3835360 140.1181930  85.3796830
  91.9765660 140.0671440  88.1568810  91.0268370 140.0334980  88.2713800
  92.1578670 140.9771550  87.9218580  77.8310100 138.3173120  77.2667440
  78.5401800 137.8956340  76.7814720  77.1150040 138.3848350  76.6350790
  91.2875910 139.2404920  80.5741670  91.7835030 139.0075790  81.3590550
  91.0891980 138.4016760  80.1579310  77.1676450 133.6218640  86.2092710
  77.8152640 133.0716020  85.7687870  77.5878290 133.8761790  87.0308520
  92.7163070 137.8765870  83.1079350  92.6062350 137.7221910  84.0461620
  93.4770660 137.3486810  82.8654760  93.6053340 135.7073790  76.3485490
  94.5302650 135.5754970  76.1403780  93.5829130 135.7866610  77.3021940
  93.6791830 136.4784450  78.9742200  92.8843330 136.4129570  79.5035110
  93.8835110 137.4135090  78.9627550  90.6210250 150.5176000  82.9680590
  91.2169320 150.1960570  82.2915010  90.8788400 150.0447820  83.7593860
  76.9208450 133.7774310  88.9518030  76.5723270 134.2338130  89.7176210
  76.5896150 132.8831440  89.0340460  78.5272820 146.9493910  93.1171220
  78.4842450 146.5786820  93.9985680  78.6583830 147.8871480  93.2573040
  82.2278850 148.5053500  88.7180940  81.9870210 148.7728060  87.8311460
  83.1681490 148.6759230  88.7731800  84.4333270 134.9686190  92.4737450
  84.3722160 135.5608020  93.2232860  85.3733650 134.8612150  92.3287710
  93.4883010 150.5247880  89.5191580  92.9941290 150.9216750  88.8018710
  92.8796300 149.8997090  89.9128860  77.5929090 133.3050510  92.2268800
  78.1412080 133.1238560  91.4634910  77.6584400 132.5144620  92.7625110
  78.3660850 149.8956160  90.2369000  77.7721170 149.7640860  90.9759040
  78.3584690 149.0594300  89.7711100  77.9973080 147.2614540  89.1877040
  77.2707140 146.6419830  89.1202990  78.0582230 147.6555150  88.3175120
  81.6018180 149.4759540  85.9726450  82.1183200 148.8646900  85.4474710
  82.2515560 149.9788320  86.4637460  84.3413680 150.3668030  86.7995430
  84.6291490 150.1122330  85.9228440  84.8536900 149.8145390  87.3901000
  90.1111760 134.8081330  85.4241030  90.5519850 134.7526430  84.5762630
  89.8419350 135.7239340  85.4951210  91.9750330 134.4396570  83.4349850
  91.9138730 133.4957790  83.2880870  92.7542360 134.5476660  83.9803310
  76.2803080 150.5788930  82.3973800  76.1125120 149.9459610  83.0955690
  75.4137590 150.7848330  82.0467990  76.9031100 134.4105710  79.9005660
  77.6610460 134.5234590  79.3269690  76.4408270 135.2474910  79.8549090
  91.0904490 133.5908990  79.4031320  91.2855120 134.4892440  79.6698750
  90.3034360 133.3596070  79.8964270  77.8865780 149.2722160  79.8423940
  77.3613400 149.6530190  79.1385900  77.8110360 149.8972930  80.5633650
  92.6431100 150.8309700  81.1637880  92.8183290 150.1447440  80.5198800
  91.9452670 151.3556750  80.7714550  81.5949650 133.9528880  93.9305510
  81.3133920 134.4562480  93.1666330  81.9769350 133.1550630  93.5647640
  80.4858750 151.2204540  78.7173190  81.2177570 150.9363820  78.1697080
  80.7452420 150.9817820  79.6072570  79.6473540 147.3369270  78.7219520
  79.0182420 147.8054370  79.2705350  79.7621370 146.4918490  79.1565710
  88.1965110 133.3682460  94.5085980  88.0830560 133.6877070  95.4037500
  89.0134850 133.7694970  94.2123260  90.9763600 150.5153990  93.9904670
  91.7688920 150.0203220  93.7830630  91.2696750 151.1944130  94.5980280
  87.1023260 141.3874930  64.8720720  87.0217310 140.4729540  64.6012430
  86.6887680 141.8842000  64.1660430  85.2341300 143.1653950  66.7529990
  84.4583400 142.6854390  67.0428560  85.8854230 142.4859600  66.5786150
  79.2507130 143.4773760  67.6305750  78.4192010 143.2222470  68.0302260
  79.8588110 143.5484530  68.3663670  89.2548730 147.5714140  65.5329120
  88.7930260 146.8001380  65.8616290  90.0674280 147.5980210  66.0381570
  79.2308390 147.5113850  67.8263770  79.5336430 146.6211590  67.6473990
  79.9751980 148.0684070  67.5986020  77.6599080 138.4375650  61.4148140
  76.7715780 138.7791620  61.3128020  77.9440270 138.2375970  60.5228970
  75.6232090 141.0381300  67.2987840  76.1948200 140.2703500  67.2991480
  75.6233630 141.3370060  66.3894450  85.4812040 149.8572150  65.1533110
  84.8623480 150.3129650  64.5827550  86.3363820 150.0123610  64.7522810
  84.6750290 145.8411140  66.7600150  84.6058570 144.9001080  66.5989280
  85.4370150 145.9312550  67.3322720  79.8360470 137.0207150  62.4486520
  79.9427220 137.9210880  62.7555280  78.9252830 136.9725120  62.1581170
  89.4879580 136.1431960  63.9197420  90.3089200 135.6528530  63.9622900
  89.5213660 136.7329620  64.6729260  81.6768200 139.9893520  66.7811700
  82.1846420 140.4874490  67.4216720  82.2081440 139.2128720  66.6051060
  79.9604300 134.6292080  71.0475120  79.9622740 135.1464470  70.2421020
  79.1308610 134.1522260  71.0245050  86.3475390 144.7411390  62.5465020
  85.7292660 145.2060840  61.9827740  86.8598640 145.4338870  62.9634530
  81.2107150 144.2687260  69.2248620  80.8776530 144.8956180  69.8669690
  81.3873830 144.7949140  68.4450290  89.7241060 138.0832340  66.6924960
  89.0196630 138.3717230  67.2728070  90.0853220 138.8932450  66.3324520
  79.6419630 136.3402040  69.0545570  79.9836440 137.1844090  68.7599440
  78.7035440 136.4885780  69.1710910  80.4226250 146.2368060  71.0397800
  81.0400250 146.9119140  70.7582250  79.5619370 146.6456040  70.9485300
  75.7158590 145.4267920  59.9204650  75.3386570 145.9155020  59.1889550
  75.9731660 146.0993200  60.5511180  91.3403840 147.7007470  68.9552440
  90.6567360 148.3706580  68.9469110  91.8798130 147.8988120  68.1897300
  92.7927980 137.5287130  67.0834170  91.8452890 137.5626110  67.2149600
  93.1177970 138.3426080  67.4683530  88.8762580 149.5451600  67.6697620
  88.8889740 149.1413890  66.8019880  88.3237800 150.3198890  67.5659050
  90.1708000 146.2667820  62.7587790  90.0604330 145.3242150  62.8837210
  90.1676250 146.6283460  63.6450550  88.2748020 144.4481440  68.9980230
  88.6916810 144.2341550  68.1633690  88.9987840 144.7054230  69.5688850
  85.7128280 141.8933140  62.1150280  84.7857560 141.8270520  62.3438750
  85.8653100 142.8313270  62.0005520  85.6997360 138.1650140  59.1117440
  84.7601030 138.3264100  59.1969900  86.0180620 138.8835820  58.5653430
  92.2210120 142.8468660  69.0896470  91.3928750 142.9161750  68.6146600
  92.8160600 143.4322970  68.6212300  89.7425570 143.4553440  62.6185530
  89.1237990 143.1172990  61.9711830  89.7250020 142.8113200  63.3264720
  89.1852130 139.6337980  70.0351340  88.7723310 140.4591690  70.2891330
  88.4528080 139.0483020  69.8427700  81.3184920 142.4197880  64.8970010
  80.9141920 141.7075130  64.4015910  81.4048040 142.0751120  65.7858050
  81.7866620 146.1065440  67.0609220  81.4894910 145.5010910  66.3817000
  82.7366440 146.1442750  66.9498580  80.0313540 139.1941090  68.6769050
  80.5828130 139.3036430  67.9022300  80.5457050 139.5678690  69.3924280
  89.8752230 149.6797310  70.7232320  89.3982790 150.4869500  70.5304930
  89.1914020 149.0275640  70.8758530  80.8785050 145.8447130  73.7117020
  79.9813580 146.0687100  73.9590420  80.9037920 145.9682070  72.7628420
  87.9190270 142.6940250  59.6258280  88.3583550 141.8562680  59.4796100
  88.6318690 143.3269650  59.7122420  79.7056270 142.7160450  72.2874390
  79.5664040 143.5883250  72.6561790  78.8237630 142.3733260  72.1422330
  86.0285650 147.6336320  63.5939520  86.4681560 148.3760650  63.1794910
  85.9672540 147.8762890  64.5178480  81.5036620 148.6582150  74.4959540
  81.4752050 149.0625100  73.6287970  81.3401590 147.7292510  74.3331140
  91.5007410 133.9483060  57.9399320  91.1880070 134.0409890  58.8398390
  92.2619880 134.5264090  57.8896750  78.0189550 141.3142860  62.3976660
  77.8987150 142.0404950  61.7857930  77.7090440 140.5445770  61.9204570
  93.4551440 149.4409250  75.7923710  93.9311160 149.9192140  76.4712790
  94.0758600 149.3726740  75.0669210  75.6574920 144.4858000  68.2045300
  75.7355340 144.6206770  67.2601020  76.2716600 143.7773890  68.3973420
  76.9022550 146.1858190  64.6151480  76.4950630 146.3272780  63.7605080
  77.7935560 145.9018350  64.4122690  92.8584690 146.6322100  72.9523720
  92.9847750 146.3933980  72.0340900  92.9006070 145.8006640  73.4245800
  86.7201430 150.3350100  71.5218530  87.2346100 150.2458110  72.3240960
  85.8770510 150.6809800  71.8146440  88.6955830 150.6205440  60.9502530
  88.5356970 150.3308380  61.8484360  88.5302540 149.8445570  60.4147760
  81.1744210 150.4003970  62.7274150  80.9986690 149.4839510  62.5141950
  80.3199950 150.7591260  62.9671950  88.3981960 148.1293000  59.5100530
  87.7047120 148.1270290  58.8502810  89.1404820 147.7052320  59.0794700
  87.9631890 149.7555710  63.5849020  88.4188840 148.9745090  63.8987640
  88.3024410 150.4662530  64.1290200  75.7134440 145.5272170  70.7439760
  75.8765480 145.0577530  69.9259130  76.1786890 145.0195730  71.4088600
  80.4853210 134.6577930  65.7800330  80.0421360 135.4387470  65.4484850
  81.0438200 134.9807820  66.4871270  84.7723020 137.5246450  71.3835650
  84.3102390 137.7329470  72.1955590  84.3701130 136.7105800  71.0806320
  89.7727530 138.7455400  72.5132310  88.9221120 138.4461150  72.8341380
  89.6129320 138.9897410  71.6016130  86.8677240 140.2457150  74.6131100
  87.1930650 139.4120900  74.2733330  87.6557570 140.7685670  74.7609430
  80.2767430 139.7811500  63.5081580  80.0508350 139.5648670  64.4128200
  79.4959960 140.2139960  63.1627550  87.5065190 139.7874870  62.1072230
  86.9074080 140.5110670  61.9235850  88.0544800 139.7251650  61.3248680
  82.7166640 140.6797080  74.1741850  82.6210240 139.7391810  74.0242250
  83.5598620 140.9012150  73.7789920  77.8477180 137.0910750  72.3275630
  77.4540570 137.9385960  72.5348410  77.1595580 136.4537120  72.5184270
  84.4222230 137.1745720  75.3972370  83.7320550 136.9817920  76.0318460
  85.1654530 137.4580360  75.9296670  75.3364460 138.9559330  57.5708430
  75.2539130 139.8990090  57.7123420  74.9847520 138.8134240  56.6920780
  86.6985200 141.0144160  68.2326290  85.9666320 141.5230970  68.5816390
  86.3009540 140.1974140  67.9315070  83.1982740 138.6910440  59.6285540
  83.3195560 138.6496920  60.5771360  82.8131250 139.5534590  59.4732270
  82.2104240 141.0011580  59.0268840  81.6421140 140.5529830  58.4004750
  82.9193240 141.3604360  58.4933990  77.2873420 144.9023600  72.9035570
  76.9028210 144.2617270  73.5018530  77.5985610 145.6059720  73.4730300
  83.4370560 141.7500140  68.3844190  83.8040690 141.2758710  69.1305530
  83.2475620 142.6241710  68.7252530  81.2269930 140.7908780  70.7028400
  80.9227000 141.6700760  70.9278760  82.1816390 140.8508570  70.7385840
  79.7551720 144.9969770  61.2995250  78.9813980 144.4567390  61.1393970
  80.4846350 144.4776380  60.9613010  90.5139700 143.9935130  67.0921640
  91.2338820 144.4890420  66.7017750  90.3121520 143.3153020  66.4475510
  85.9749640 135.3873090  61.2351030  85.1614250 134.8886260  61.1596340
  85.7811590 136.2271340  60.8187380  85.8958500 144.0644190  72.9790640
  85.8295810 143.1439860  72.7248230  85.2663640 144.1619630  73.6935280
  88.6898030 139.7592740  59.5313190  89.5777650 140.0709970  59.3564530
  88.6603120 138.8864990  59.1393770  79.7989120 144.6650150  64.9374060
  80.3167790 143.8618410  64.8830950  79.3473140 144.6029290  65.7790890
  84.6858620 145.9316430  60.2101360  85.0274320 146.6758660  59.7144680
  83.8571330 146.2447550  60.5726190  77.2833660 141.6311520  71.8499760
  76.9248600 142.2965370  72.4373100  76.9888220 140.7995070  72.2212380
  80.4846780 142.0895760  74.7339310  80.1846920 142.2352940  73.8367130
  81.2558020 141.5301050  74.6412700  85.8275230 146.8864760  72.7294440
  85.8419770 145.9545720  72.5113350  85.1200330 146.9724520  73.3684210
  90.9612300 141.0704580  58.9993050  90.8776020 141.5018800  58.1489490
  91.6806490 141.5302930  59.4319870  92.0386440 143.5272100  72.0763020
  91.3134630 144.1200880  71.8792410  92.5661900 143.5195640  71.2776390
  91.9899550 147.9246840  61.7275180  91.3475710 147.2702460  62.0018900
  91.6030210 148.3301930  60.9515850  87.5686030 145.2532270  65.5746870
  87.9209850 144.6560400  64.9148240  86.6848360 144.9276500  65.7455120
  83.6549310 146.0129960  62.9817280  84.3420440 146.5599170  63.3624870
  82.8681730 146.5570690  63.0166890  75.7941710 141.6302780  58.4734360
  76.6636560 141.9127580  58.7570280  75.3032030 142.4438650  58.3583170
  82.9576520 143.0175990  62.5942640  83.4139300 143.8281240  62.8202830
  82.6064730 142.6999130  63.4261130  85.2609130 148.5282330  69.8234940
  85.9051350 148.7341710  70.5008360  85.6238570 147.7670730  69.3705790
  78.8588300 133.3613640  63.0665160  78.7302930 133.3531540  64.0150080
  78.0350320 133.6996730  62.7156170  86.5341210 146.5314680  68.5412390
  87.1763440 145.8307840  68.6544560  87.0590560 147.3113120  68.3609280
  90.3796930 146.8163300  58.2651530  90.1534510 146.0993740  58.8576170
  89.9893130 146.5675740  57.4273280  88.3078830 147.3309580  71.7448450
  88.6435070 147.9176270  72.4226370  87.3879170 147.2002290  71.9746240
  76.1612960 150.8430160  59.0395990  76.5210600 151.4419500  58.3853260
  76.0205300 151.3890050  59.8131020  75.8582230 135.1204760  72.5271860
  75.1440750 135.3201680  73.1324470  76.2777270 134.3444330  72.8986660
  89.9613180 144.7335240  59.9265690  89.6734880 145.1947930  60.7143570
  90.7565350 144.2733010  60.1949910  76.1454820 149.1085020  73.5138390
  76.2545940 148.1679760  73.3733780  75.4935380 149.3739770  72.8652120
  84.1367410 147.3800910  74.9136510  83.8164280 146.6610150  75.4582200
  83.4625770 148.0555980  74.9872570  82.1781580 148.2261360  59.8569660
  82.1691680 148.9591050  59.2414170  81.2579940 147.9792940  59.9496620
  77.7788220 143.4476250  60.6016420  77.1716170 144.1875150  60.6111720
  78.2537570 143.5375610  59.7754620  87.3521010 137.6127070  70.2773310
  87.7201830 136.7922280  70.6052880  86.4919210 137.6728960  70.6928960
  90.7183040 136.5684010  61.0860870  90.0896200 136.6729680  60.3719100
  90.2234960 136.7880790  61.8754750  85.1641180 148.2889600  58.5194850
  85.2653160 148.0853590  57.5896830  84.2642920 148.0347880  58.7242630
  82.6867070 138.8469960  62.5018750  81.9783220 139.3156300  62.9432360
  82.9711550 138.1891970  63.1363940  84.3123000 140.2666660  70.5011280
  84.8108250 140.7412480  71.1663130  84.4545950 139.3430180  70.7081310
  83.8059290 150.8075920  63.2142520  84.0600790 150.7697310  62.2921890
  82.8571770 150.6809250  63.2070770  80.8902090 137.1555040  59.8769460
  81.7392620 137.5925190  59.8109650  80.5233360 137.4675300  60.7041520
  89.8111870 141.7267800  64.7901030  88.8702010 141.7418030  64.9648720
  90.1255940 140.9403760  65.2361330  79.7893510 143.4087400  58.3504990
  80.5556780 143.2968760  58.9130420  79.8668200 142.7125370  57.6981760
  78.4840270 140.8412470  59.0337880  78.5643860 139.8939980  59.1455280
  79.3760020 141.1719350  59.1398540  91.8137450 148.8976650  66.4655290
  91.9384870 149.7207820  66.9379100  92.6803010 148.6867380  66.1179440
  76.1700460 147.0581430  62.0113930  75.2440240 147.3002570  62.0019340
  76.6356890 147.8855690  61.8898680  78.2913260 150.1753930  75.3258000
  79.0925990 150.4965980  75.7393400  77.7765080 149.8149510  76.0477910
  82.3957290 150.1638170  57.9597990  83.1885900 150.4527000  57.5079780
  81.8761640 149.7330340  57.2810470  87.1277890 146.2833800  75.2733410
  86.5216050 146.3065400  74.5329160  86.8232000 145.5516840  75.8100660
  88.5578260 150.0114090  73.8842820  89.5100010 149.9272110  73.8343060
  88.4106480 150.6755800  74.5576610  91.4487460 149.3908300  59.3834730
  91.1628970 148.9773440  58.5688910  91.2507010 150.3196010  59.2635250
  76.0111070 142.6627390  74.2694050  76.5150090 142.0834670  74.8410280
  75.2718490 142.9467620  74.8070420  82.9134690 145.3841580  57.8240340
  82.8085330 144.7693930  58.5501720  82.7458910 144.8607470  57.0403350
  83.0649010 144.0698380  73.8029570  82.2994680 144.6383380  73.7184240
  83.2464970 143.7774590  72.9097800  86.1537420 144.4461610  58.4282330
  85.6047520 144.8930910  59.0725070  86.7756680 143.9410860  58.9520000
  90.2072360 145.8003710  74.3604590  90.9481830 146.1379470  73.8572050
  89.4445040 145.9695770  73.8074360  78.0434150 140.8056980  75.1644120
  78.0839490 140.5070850  76.0729350  78.8979650 141.2064590  75.0051640
  81.8212540 143.4052530  60.3247630  82.2428960 143.2392400  61.1679020
  81.9463380 142.5952760  59.8302770  79.9839960 139.3849080  73.1318610
  79.4536420 138.8940030  72.5041950  80.6528030 139.8133280  72.5976540
  84.3340180 142.4290140  57.5724730  84.8545840 141.7139160  57.2065880
  84.9808580 143.0676010  57.8725240  88.8818020 143.8518540  72.8959800
  89.2959040 144.0063620  73.7450220  87.9469020 143.9773760  73.0585580
  89.3540190 141.1914700  74.8998950  89.9360960 140.4367020  74.8119430
  89.5301960 141.7222140  74.1230430  80.4712260 136.3511450  73.2115900
  80.3769130 135.7332200  72.4866770  79.8909650 137.0777740  72.9845810
  83.2373700 134.9084690  70.2443290  82.7891000 134.9308950  69.3988840
  82.6038900 134.5103710  70.8413590  83.6433250 143.8039020  70.8655730
  84.0621360 144.6471750  70.6931970  82.7241880 143.9411060  70.6362510
  85.9797150 141.5355200  72.2493570  86.0993360 140.9396340  72.9888410
  86.8391150 141.5724890  71.8294870  88.3185050 142.0892390  70.8256080
  87.7920270 142.6135010  70.2221220  88.6616390 142.7219780  71.4565810
  80.7171440 139.4785760  57.2705790  80.5160500 138.6153120  57.6319130
  80.5463490 139.3919120  56.3327390  81.4940670 150.1092030  71.9813460
  80.9561760 150.8338090  71.6622160  81.7474630 149.6322370  71.1910800
  82.7465920 138.0776550  73.5069390  83.3365610 137.7692400  74.1947210
  81.9286160 137.6056300  73.6629290  87.5659350 137.6942360  73.7402410
  86.8774870 137.0323900  73.6752400  88.2865370 137.2480630  74.1850870
  88.1959750 134.2893990  59.7992670  88.4762040 133.4461890  60.1552090
  87.4225480 134.5217100  60.3131420  79.5154240 136.5786380  57.2583670
  79.8180140 136.5853810  56.3502820  80.2548830 136.2284240  57.7551330
  84.8988210 150.5101750  59.8626470  85.7939000 150.8486720  59.8845230
  84.9305840 149.7881160  59.2350750  78.5384370 145.8828800  58.0913470
  78.9759240 146.4258470  58.7471050  79.0232100 145.0575750  58.1009810
  75.7530170 148.6717830  65.5433730  76.0833180 147.8038890  65.3112370
  76.1821170 148.8776350  66.3738690  80.3492090 147.0026840  63.2035700
  80.0487630 146.8791810  64.1039610  80.2429580 146.1435430  62.7951430
  76.2420380 149.5388420  68.2815360  75.8051370 149.7189220  69.1139510
  76.8098060 150.2963040  68.1397080  91.8782560 149.0405420  72.5692670
  91.2784550 149.0997980  71.8256590  92.0076460 148.1010400  72.6989520
  93.1184010 146.7823240  57.9062380  92.2876970 146.8499890  58.3769610
  93.2955840 147.6727360  57.6029240  92.5740470 143.5270720  60.4096580
  93.3359380 144.0967370  60.5156270  92.5894840 142.9597920  61.1804890
  76.0744810 142.0508650  64.6404240  75.4193650 141.7820290  63.9963940
  76.9122760 141.9413130  64.1906220  93.5800440 144.3820820  65.2538510
  93.9509270 143.5988140  64.8474480  94.2202370 145.0709920  65.0755810
  90.5634200 145.7657400  70.6668830  89.7494040 146.1954560  70.9294620
  90.9708400 146.3775810  70.0537880  92.6259640 143.8205090  57.5669100
  92.9008480 144.7283970  57.4388320  92.4370380 143.7567620  58.5031090
  89.0235250 136.8449940  58.8622730  89.4420130 136.6580920  58.0219390
  88.7171310 135.9928990  59.1725660  92.5224980 141.7574080  62.5598530
  92.1468580 140.9902010  62.1279820  91.7928100 142.1396780  63.0473460
  77.1120740 142.4361220  69.1807580  77.4793780 142.3488620  70.0603600
  76.5431560 141.6727770  69.0814440  91.9124600 140.9045600  72.1938050
  91.6810690 140.6758350  71.2936000  92.1729150 141.8245150  72.1482940
  76.6636740 139.3470310  73.0866000  75.7692790 139.3137070  73.4259710
  77.2034290 139.5457100  73.8517250  90.3512670 136.1302030  74.9717750
  91.2282850 136.1385430  75.3551750  90.3633510 135.3932870  74.3610100
  75.2882890 139.2607580  60.5829570  74.3846970 139.5237780  60.4081230
  75.7723510 139.5318750  59.8029530  91.7975940 139.9831570  65.8605770
  92.3213420 139.4894220  65.2295940  92.3835360 140.1181930  66.6053340
  91.9765660 140.0671440  69.3825320  91.0268370 140.0334980  69.4970310
  92.1578670 140.9771550  69.1475090  77.8310100 138.3173120  58.4923950
  78.5401800 137.8956340  58.0071230  77.1150040 138.3848350  57.8607300
  77.4784260 134.3712450  57.5326600  78.2012390 134.9121390  57.8507820
  77.7508780 134.0975870  56.6568140  91.2875910 139.2404920  61.7998180
  91.7835030 139.0075790  62.5847060  91.0891980 138.4016760  61.3835820
  92.7163070 137.8765870  64.3335860  92.6062350 137.7221910  65.2718130
  93.4770660 137.3486810  64.0911270  93.6053340 135.7073790  57.5742000
  94.5302650 135.5754970  57.3660290  93.5829130 135.7866610  58.5278450
  93.6791830 136.4784450  60.1998710  92.8843330 136.4129570  60.7291620
  93.8835110 137.4135090  60.1884060  90.6210250 150.5176000  64.1937100
  91.2169320 150.1960570  63.5171520  90.8788400 150.0447820  64.9850370
  76.9208450 133.7774310  70.1774540  76.5723270 134.2338130  70.9432720
  76.5896150 132.8831440  70.2596970  78.5272820 146.9493910  74.3427730
  78.4842450 146.5786820  75.2242190  78.6583830 147.8871480  74.4829550
  82.2278850 148.5053500  69.9437450  81.9870210 148.7728060  69.0567970
  83.1681490 148.6759230  69.9988310  84.4333270 134.9686190  73.6993960
  84.3722160 135.5608020  74.4489370  85.3733650 134.8612150  73.5544220
  87.0707830 134.6256250  73.3386250  87.6848240 134.9435540  72.6767330
  87.6157390 134.1404840  73.9582110  93.4883010 150.5247880  70.7448090
  92.9941290 150.9216750  70.0275220  92.8796300 149.8997090  71.1385370
  78.3660850 149.8956160  71.4625510  77.7721170 149.7640860  72.2015550
  78.3584690 149.0594300  70.9967610  87.8115870 133.1888390  69.6655540
  86.9375710 133.5223500  69.4628470  87.7026620 132.7161570  70.4907410
  88.7187850 135.3959260  71.0497260  88.3901210 134.5811020  70.6698990
  89.6670150 135.3529070  70.9262950  77.9973080 147.2614540  70.4133550
  77.2707140 146.6419830  70.3459500  78.0582230 147.6555150  69.5431630
  81.6018180 149.4759540  67.1982960  82.1183200 148.8646900  66.6731220
  82.2515560 149.9788320  67.6893970  84.3413680 150.3668030  68.0251940
  84.6291490 150.1122330  67.1484950  84.8536900 149.8145390  68.6157510
  90.1111760 134.8081330  66.6497540  90.5519850 134.7526430  65.8019140
  89.8419350 135.7239340  66.7207720  91.9750330 134.4396570  64.6606360
  91.9138730 133.4957790  64.5137380  92.7542360 134.5476660  65.2059820
  76.2803080 150.5788930  63.6230310  76.1125120 149.9459610  64.3212200
  75.4137590 150.7848330  63.2724500  76.9031100 134.4105710  61.1262170
  77.6610460 134.5234590  60.5526200  76.4408270 135.2474910  61.0805600
  91.0904490 133.5908990  60.6287830  91.2855120 134.4892440  60.8955260
  90.3034360 133.3596070  61.1220780  77.8865780 149.2722160  61.0680450
  77.3613400 149.6530190  60.3642410  77.8110360 149.8972930  61.7890160
  79.2756250 134.9369760  59.6664140  79.8049010 134.1499560  59.5372090
  79.9084570 135.6160950  59.8999670  81.4694090 134.6744900  62.7209530
  80.8396830 133.9732210  62.8879660  80.9299230 135.4349030  62.5042690
  92.6431100 150.8309700  62.3894390  92.8183290 150.1447440  61.7455310
  91.9452670 151.3556750  61.9971060  80.4858750 151.2204540  59.9429700
  81.2177570 150.9363820  59.3953590  80.7452420 150.9817820  60.8329080
  79.6473540 147.3369270  59.9476030  79.0182420 147.8054370  60.4961860
  79.7621370 146.4918490  60.3822220  88.1965110 133.3682460  75.7342490
  88.0830560 133.6877070  76.6294010  89.0134850 133.7694970  75.4379770
  90.9763600 150.5153990  75.2161180  91.7688920 150.0203220  75.0087140
  91.2696750 151.1944130  75.8236790  87.1023260 141.3874930  46.0977230
  87.0217310 140.4729540  45.8268940  86.6887680 141.8842000  45.3916940
  85.2341300 143.1653950  47.9786500  84.4583400 142.6854390  48.2685070
  85.8854230 142.4859600  47.8042660  79.2507130 143.4773760  48.8562260
  78.4192010 143.2222470  49.2558770  79.8588110 143.5484530  49.5920180
  89.2548730 147.5714140  46.7585630  88.7930260 146.8001380  47.0872800
  90.0674280 147.5980210  47.2638080  79.2308390 147.5113850  49.0520280
  79.5336430 146.6211590  48.8730500  79.9751980 148.0684070  48.8242530
  77.6599080 138.4375650  42.6404650  76.7715780 138.7791620  42.5384530
  77.9440270 138.2375970  41.7485480  75.6232090 141.0381300  48.5244350
  76.1948200 140.2703500  48.5247990  75.6233630 141.3370060  47.6150960
  85.4812040 149.8572150  46.3789620  84.8623480 150.3129650  45.8084060
  86.3363820 150.0123610  45.9779320  84.6750290 145.8411140  47.9856660
  84.6058570 144.9001080  47.8245790  85.4370150 145.9312550  48.5579230
  76.8656960 136.4465660  50.3113280  76.6859800 135.5491410  50.5916040
  76.4637040 136.9937530  50.9860230  85.7055460 138.6481520  48.2125590
  86.0820280 137.7753400  48.0999260  85.6074970 138.9840220  47.3216030
  79.8360470 137.0207150  43.6743030  79.9427220 137.9210880  43.9811790
  78.9252830 136.9725120  43.3837680  89.4879580 136.1431960  45.1453930
  90.3089200 135.6528530  45.1879410  89.5213660 136.7329620  45.8985770
  77.4843630 138.9426160  48.9195620  78.1653740 139.2064530  49.5383020
  77.1691680 138.1027030  49.2533630  81.6768200 139.9893520  48.0068210
  82.1846420 140.4874490  48.6473230  82.2081440 139.2128720  47.8307570
  93.7779130 138.1598710  51.7097560  93.0731300 138.5480420  51.1912670
  94.0437050 138.8549000  52.3118490  79.9604300 134.6292080  52.2731630
  79.9622740 135.1464470  51.4677530  79.1308610 134.1522260  52.2501560
  86.3475390 144.7411390  43.7721530  85.7292660 145.2060840  43.2084250
  86.8598640 145.4338870  44.1891040  81.2107150 144.2687260  50.4505130
  80.8776530 144.8956180  51.0926200  81.3873830 144.7949140  49.6706800
  89.7241060 138.0832340  47.9181470  89.0196630 138.3717230  48.4984580
  90.0853220 138.8932450  47.5581030  79.6419630 136.3402040  50.2802080
  79.9836440 137.1844090  49.9855950  78.7035440 136.4885780  50.3967420
  80.4226250 146.2368060  52.2654310  81.0400250 146.9119140  51.9838760
  79.5619370 146.6456040  52.1741810  75.7158590 145.4267920  41.1461160
  75.3386570 145.9155020  40.4146060  75.9731660 146.0993200  41.7767690
  91.3403840 147.7007470  50.1808950  90.6567360 148.3706580  50.1725620
  91.8798130 147.8988120  49.4153810  92.7927980 137.5287130  48.3090680
  91.8452890 137.5626110  48.4406110  93.1177970 138.3426080  48.6940040
  83.3247520 133.8284310  46.6046670  83.6322500 133.2731200  45.8882170
  82.3948220 133.9628770  46.4219660  88.8762580 149.5451600  48.8954130
  88.8889740 149.1413890  48.0276390  88.3237800 150.3198890  48.7915560
  90.1708000 146.2667820  43.9844300  90.0604330 145.3242150  44.1093720
  90.1676250 146.6283460  44.8707060  88.2748020 144.4481440  50.2236740
  88.6916810 144.2341550  49.3890200  88.9987840 144.7054230  50.7945360
  85.7128280 141.8933140  43.3406790  84.7857560 141.8270520  43.5695260
  85.8653100 142.8313270  43.2262030  85.6997360 138.1650140  40.3373950
  84.7601030 138.3264100  40.4226410  86.0180620 138.8835820  39.7909940
  92.2210120 142.8468660  50.3152980  91.3928750 142.9161750  49.8403110
  92.8160600 143.4322970  49.8468810  89.7425570 143.4553440  43.8442040
  89.1237990 143.1172990  43.1968340  89.7250020 142.8113200  44.5521230
  89.1852130 139.6337980  51.2607850  88.7723310 140.4591690  51.5147840
  88.4528080 139.0483020  51.0684210  81.3184920 142.4197880  46.1226520
  80.9141920 141.7075130  45.6272420  81.4048040 142.0751120  47.0114560
  81.7866620 146.1065440  48.2865730  81.4894910 145.5010910  47.6073510
  82.7366440 146.1442750  48.1755090  80.0313540 139.1941090  49.9025560
  80.5828130 139.3036430  49.1278810  80.5457050 139.5678690  50.6180790
  89.8752230 149.6797310  51.9488830  89.3982790 150.4869500  51.7561440
  89.1914020 149.0275640  52.1015040  80.8785050 145.8447130  54.9373530
  79.9813580 146.0687100  55.1846930  80.9037920 145.9682070  53.9884930
  87.9190270 142.6940250  40.8514790  88.3583550 141.8562680  40.7052610
  88.6318690 143.3269650  40.9378930  79.7056270 142.7160450  53.5130900
  79.5664040 143.5883250  53.8818300  78.8237630 142.3733260  53.3678840
  86.0285650 147.6336320  44.8196030  86.4681560 148.3760650  44.4051420
  85.9672540 147.8762890  45.7434990  81.5036620 148.6582150  55.7216050
  81.4752050 149.0625100  54.8544480  81.3401590 147.7292510  55.5587650
  91.5007410 133.9483060  39.1655830  91.1880070 134.0409890  40.0654900
  92.2619880 134.5264090  39.1153260  78.0189550 141.3142860  43.6233170
  77.8987150 142.0404950  43.0114440  77.7090440 140.5445770  43.1461080
  93.4551440 149.4409250  57.0180220  93.9311160 149.9192140  57.6969300
  94.0758600 149.3726740  56.2925720  75.6574920 144.4858000  49.4301810
  75.7355340 144.6206770  48.4857530  76.2716600 143.7773890  49.6229930
  76.9022550 146.1858190  45.8407990  76.4950630 146.3272780  44.9861590
  77.7935560 145.9018350  45.6379200  92.8584690 146.6322100  54.1780230
  92.9847750 146.3933980  53.2597410  92.9006070 145.8006640  54.6502310
  86.7201430 150.3350100  52.7475040  87.2346100 150.2458110  53.5497470
  85.8770510 150.6809800  53.0402950  88.6955830 150.6205440  42.1759040
  88.5356970 150.3308380  43.0740870  88.5302540 149.8445570  41.6404270
  81.1744210 150.4003970  43.9530660  80.9986690 149.4839510  43.7398460
  80.3199950 150.7591260  44.1928460  88.3981960 148.1293000  40.7357040
  87.7047120 148.1270290  40.0759320  89.1404820 147.7052320  40.3051210
  87.9631890 149.7555710  44.8105530  88.4188840 148.9745090  45.1244150
  88.3024410 150.4662530  45.3546710  92.7108700 138.6854560  55.1429970
  92.0952970 139.1934230  54.6145430  92.3905120 137.7852890  55.0855910
  75.7134440 145.5272170  51.9696270  75.8765480 145.0577530  51.1515640
  76.1786890 145.0195730  52.6345110  80.4853210 134.6577930  47.0056840
  80.0421360 135.4387470  46.6741360  81.0438200 134.9807820  47.7127780
  84.7723020 137.5246450  52.6092160  84.3102390 137.7329470  53.4212100
  84.3701130 136.7105800  52.3062830  89.7727530 138.7455400  53.7388820
  88.9221120 138.4461150  54.0597890  89.6129320 138.9897410  52.8272640
  86.8677240 140.2457150  55.8387610  87.1930650 139.4120900  55.4989840
  87.6557570 140.7685670  55.9865940  83.6012030 134.2788630  41.8862670
  82.9766210 134.2748500  42.6115980  83.5142150 133.4119590  41.4898640
  82.5229110 135.2025260  48.8646440  82.8201440 136.1088090  48.7838460
  83.0714670 134.7144040  48.2506010  80.2767430 139.7811500  44.7338090
  80.0508350 139.5648670  45.6384710  79.4959960 140.2139960  44.3884060
  87.5065190 139.7874870  43.3328740  86.9074080 140.5110670  43.1492360
  88.0544800 139.7251650  42.5505190  82.7166640 140.6797080  55.3998360
  82.6210240 139.7391810  55.2498760  83.5598620 140.9012150  55.0046430
  86.1130060 138.4238410  45.3632020  86.5059630 138.7410610  44.5500710
  86.4746910 137.5450290  45.4776540  77.8477180 137.0910750  53.5532140
  77.4540570 137.9385960  53.7604920  77.1595580 136.4537120  53.7440780
  84.4222230 137.1745720  56.6228880  83.7320550 136.9817920  57.2574970
  85.1654530 137.4580360  57.1553180  75.1494230 135.0139210  47.5862220
  74.8607280 135.5842070  48.2987200  75.8939990 134.5343660  47.9493450
  75.3364460 138.9559330  38.7964940  75.2539130 139.8990090  38.9379930
  74.9847520 138.8134240  37.9177290  86.6985200 141.0144160  49.4582800
  85.9666320 141.5230970  49.8072900  86.3009540 140.1974140  49.1571580
  83.1362590 137.6898360  47.8635290  83.1398650 137.2488310  47.0139830
  84.0313710 138.0115690  47.9707110  78.9864970 137.5724850  46.8229500
  78.6465020 138.0500080  47.5796550  78.2242290 137.1189970  46.4630600
  83.1982740 138.6910440  40.8542050  83.3195560 138.6496920  41.8027870
  82.8131250 139.5534590  40.6988780  87.1611110 136.4677840  48.8705740
  87.1783850 136.9186490  49.7147590  86.9126690 135.5683480  49.0839180
  82.2104240 141.0011580  40.2525350  81.6421140 140.5529830  39.6261260
  82.9193240 141.3604360  39.7190500  77.2873420 144.9023600  54.1292080
  76.9028210 144.2617270  54.7275040  77.5985610 145.6059720  54.6986810
  83.4370560 141.7500140  49.6100700  83.8040690 141.2758710  50.3562040
  83.2475620 142.6241710  49.9509040  76.3011050 136.4943830  45.7394170
  76.0157970 136.1299500  46.5772790  76.2389910 135.7624290  45.1257310
  81.2269930 140.7908780  51.9284910  80.9227000 141.6700760  52.1535270
  82.1816390 140.8508570  51.9642350  79.7551720 144.9969770  42.5251760
  78.9813980 144.4567390  42.3650480  80.4846350 144.4776380  42.1869520
  90.5139700 143.9935130  48.3178150  91.2338820 144.4890420  47.9274260
  90.3121520 143.3153020  47.6732020  85.9749640 135.3873090  42.4607540
  85.1614250 134.8886260  42.3852850  85.7811590 136.2271340  42.0443890
  85.8958500 144.0644190  54.2047150  85.8295810 143.1439860  53.9504740
  85.2663640 144.1619630  54.9191790  88.6898030 139.7592740  40.7569700
  89.5777650 140.0709970  40.5821040  88.6603120 138.8864990  40.3650280
  79.7989120 144.6650150  46.1630570  80.3167790 143.8618410  46.1087460
  79.3473140 144.6029290  47.0047400  84.6858620 145.9316430  41.4357870
  85.0274320 146.6758660  40.9401190  83.8571330 146.2447550  41.7982700
  77.2833660 141.6311520  53.0756270  76.9248600 142.2965370  53.6629610
  76.9888220 140.7995070  53.4468890  80.4846780 142.0895760  55.9595820
  80.1846920 142.2352940  55.0623640  81.2558020 141.5301050  55.8669210
  85.8275230 146.8864760  53.9550950  85.8419770 145.9545720  53.7369860
  85.1200330 146.9724520  54.5940720  90.9612300 141.0704580  40.2249560
  90.8776020 141.5018800  39.3746000  91.6806490 141.5302930  40.6576380
  92.0386440 143.5272100  53.3019530  91.3134630 144.1200880  53.1048920
  92.5661900 143.5195640  52.5032900  91.9899550 147.9246840  42.9531690
  91.3475710 147.2702460  43.2275410  91.6030210 148.3301930  42.1772360
  87.5686030 145.2532270  46.8003380  87.9209850 144.6560400  46.1404750
  86.6848360 144.9276500  46.9711630  83.6549310 146.0129960  44.2073790
  84.3420440 146.5599170  44.5881380  82.8681730 146.5570690  44.2423400
  75.7941710 141.6302780  39.6990870  76.6636560 141.9127580  39.9826790
  75.3032030 142.4438650  39.5839680  82.9576520 143.0175990  43.8199150
  83.4139300 143.8281240  44.0459340  82.6064730 142.6999130  44.6517640
  85.2609130 148.5282330  51.0491450  85.9051350 148.7341710  51.7264870
  85.6238570 147.7670730  50.5962300  78.8588300 133.3613640  44.2921670
  78.7302930 133.3531540  45.2406590  78.0350320 133.6996730  43.9412680
  86.5341210 146.5314680  49.7668900  87.1763440 145.8307840  49.8801070
  87.0590560 147.3113120  49.5865790  90.3796930 146.8163300  39.4908040
  90.1534510 146.0993740  40.0832680  89.9893130 146.5675740  38.6529790
  88.3078830 147.3309580  52.9704960  88.6435070 147.9176270  53.6482880
  87.3879170 147.2002290  53.2002750  76.1612960 150.8430160  40.2652500
  76.5210600 151.4419500  39.6109770  76.0205300 151.3890050  41.0387530
  75.8582230 135.1204760  53.7528370  75.1440750 135.3201680  54.3580980
  76.2777270 134.3444330  54.1243170  89.9613180 144.7335240  41.1522200
  89.6734880 145.1947930  41.9400080  90.7565350 144.2733010  41.4206420
  76.1454820 149.1085020  54.7394900  76.2545940 148.1679760  54.5990290
  75.4935380 149.3739770  54.0908630  84.1367410 147.3800910  56.1393020
  83.8164280 146.6610150  56.6838710  83.4625770 148.0555980  56.2129080
  82.1781580 148.2261360  41.0826170  82.1691680 148.9591050  40.4670680
  81.2579940 147.9792940  41.1753130  77.7788220 143.4476250  41.8272930
  77.1716170 144.1875150  41.8368230  78.2537570 143.5375610  41.0011130
  87.3521010 137.6127070  51.5029820  87.7201830 136.7922280  51.8309390
  86.4919210 137.6728960  51.9185470  90.7183040 136.5684010  42.3117380
  90.0896200 136.6729680  41.5975610  90.2234960 136.7880790  43.1011260
  85.1641180 148.2889600  39.7451360  85.2653160 148.0853590  38.8153340
  84.2642920 148.0347880  39.9499140  82.6867070 138.8469960  43.7275260
  81.9783220 139.3156300  44.1688870  82.9711550 138.1891970  44.3620450
  84.3123000 140.2666660  51.7267790  84.8108250 140.7412480  52.3919640
  84.4545950 139.3430180  51.9337820  86.7182500 135.5720620  45.1671050
  86.5950280 135.5906750  44.2180560  87.6667060 135.6199560  45.2869450
  83.8059290 150.8075920  44.4399030  84.0600790 150.7697310  43.5178400
  82.8571770 150.6809250  44.4327280  80.8902090 137.1555040  41.1025970
  81.7392620 137.5925190  41.0366160  80.5233360 137.4675300  41.9298030
  91.5189860 136.4834620  52.5696180  91.0163460 137.2240020  52.9089990
  92.3346520 136.8718620  52.2532970  89.8111870 141.7267800  46.0157540
  88.8702010 141.7418030  46.1905230  90.1255940 140.9403760  46.4617840
  79.7893510 143.4087400  39.5761500  80.5556780 143.2968760  40.1386930
  79.8668200 142.7125370  38.9238270  78.4840270 140.8412470  40.2594390
  78.5643860 139.8939980  40.3711790  79.3760020 141.1719350  40.3655050
  91.8137450 148.8976650  47.6911800  91.9384870 149.7207820  48.1635610
  92.6803010 148.6867380  47.3435950  76.1700460 147.0581430  43.2370440
  75.2440240 147.3002570  43.2275850  76.6356890 147.8855690  43.1155190
  78.2913260 150.1753930  56.5514510  79.0925990 150.4965980  56.9649910
  77.7765080 149.8149510  57.2734420  82.3957290 150.1638170  39.1854500
  83.1885900 150.4527000  38.7336290  81.8761640 149.7330340  38.5066980
  87.1277890 146.2833800  56.4989920  86.5216050 146.3065400  55.7585670
  86.8232000 145.5516840  57.0357170  88.5578260 150.0114090  55.1099330
  89.5100010 149.9272110  55.0599570  88.4106480 150.6755800  55.7833120
  91.4487460 149.3908300  40.6091240  91.1628970 148.9773440  39.7945420
  91.2507010 150.3196010  40.4891760  76.0111070 142.6627390  55.4950560
  76.5150090 142.0834670  56.0666790  75.2718490 142.9467620  56.0326930
  82.9134690 145.3841580  39.0496850  82.8085330 144.7693930  39.7758230
  82.7458910 144.8607470  38.2659860  83.0649010 144.0698380  55.0286080
  82.2994680 144.6383380  54.9440750  83.2464970 143.7774590  54.1354310
  86.1537420 144.4461610  39.6538840  85.6047520 144.8930910  40.2981580
  86.7756680 143.9410860  40.1776510  90.2072360 145.8003710  55.5861100
  90.9481830 146.1379470  55.0828560  89.4445040 145.9695770  55.0330870
  78.0434150 140.8056980  56.3900630  78.0839490 140.5070850  57.2985860
  78.8979650 141.2064590  56.2308150  81.8212540 143.4052530  41.5504140
  82.2428960 143.2392400  42.3935530  81.9463380 142.5952760  41.0559280
  79.9839960 139.3849080  54.3575120  79.4536420 138.8940030  53.7298460
  80.6528030 139.8133280  53.8233050  84.3340180 142.4290140  38.7981240
  84.8545840 141.7139160  38.4322390  84.9808580 143.0676010  39.0981750
  88.8818020 143.8518540  54.1216310  89.2959040 144.0063620  54.9706730
  87.9469020 143.9773760  54.2842090  89.3540190 141.1914700  56.1255460
  89.9360960 140.4367020  56.0375940  89.5301960 141.7222140  55.3486940
  80.4712260 136.3511450  54.4372410  80.3769130 135.7332200  53.7123280
  79.8909650 137.0777740  54.2102320  83.2373700 134.9084690  51.4699800
  82.7891000 134.9308950  50.6245350  82.6038900 134.5103710  52.0670100
  83.6433250 143.8039020  52.0912240  84.0621360 144.6471750  51.9188480
  82.7241880 143.9411060  51.8619020  85.9797150 141.5355200  53.4750080
  86.0993360 140.9396340  54.2144920  86.8391150 141.5724890  53.0551380
  88.3185050 142.0892390  52.0512590  87.7920270 142.6135010  51.4477730
  88.6616390 142.7219780  52.6822320  80.7171440 139.4785760  38.4962300
  80.5160500 138.6153120  38.8575640  80.5463490 139.3919120  37.5583900
  81.4940670 150.1092030  53.2069970  80.9561760 150.8338090  52.8878670
  81.7474630 149.6322370  52.4167310  82.7465920 138.0776550  54.7325900
  83.3365610 137.7692400  55.4203720  81.9286160 137.6056300  54.8885800
  87.5659350 137.6942360  54.9658920  86.8774870 137.0323900  54.9008910
  88.2865370 137.2480630  55.4107380  88.1959750 134.2893990  41.0249180
  88.4762040 133.4461890  41.3808600  87.4225480 134.5217100  41.5387930
  79.5154240 136.5786380  38.4840180  79.8180140 136.5853810  37.5759330
  80.2548830 136.2284240  38.9807840  82.7339170 135.5221000  39.4696380
  82.3861170 134.8444990  38.8898830  82.9351940 135.0610510  40.2839770
  84.8988210 150.5101750  41.0882980  85.7939000 150.8486720  41.1101740
  84.9305840 149.7881160  40.4607260  78.5384370 145.8828800  39.3169980
  78.9759240 146.4258470  39.9727560  79.0232100 145.0575750  39.3266320
  75.7530170 148.6717830  46.7690240  76.0833180 147.8038890  46.5368880
  76.1821170 148.8776350  47.5995200  80.3492090 147.0026840  44.4292210
  80.0487630 146.8791810  45.3296120  80.2429580 146.1435430  44.0207940
  76.2420380 149.5388420  49.5071870  75.8051370 149.7189220  50.3396020
  76.8098060 150.2963040  49.3653590  91.8782560 149.0405420  53.7949180
  91.2784550 149.0997980  53.0513100  92.0076460 148.1010400  53.9246030
  93.1184010 146.7823240  39.1318890  92.2876970 146.8499890  39.6026120
  93.2955840 147.6727360  38.8285750  92.5740470 143.5270720  41.6353090
  93.3359380 144.0967370  41.7412780  92.5894840 142.9597920  42.4061400
  76.0744810 142.0508650  45.8660750  75.4193650 141.7820290  45.2220450
  76.9122760 141.9413130  45.4162730  93.5800440 144.3820820  46.4795020
  93.9509270 143.5988140  46.0730990  94.2202370 145.0709920  46.3012320
  90.5634200 145.7657400  51.8925340  89.7494040 146.1954560  52.1551130
  90.9708400 146.3775810  51.2794390  92.6259640 143.8205090  38.7925610
  92.9008480 144.7283970  38.6644830  92.4370380 143.7567620  39.7287600
  89.0235250 136.8449940  40.0879240  89.4420130 136.6580920  39.2475900
  88.7171310 135.9928990  40.3982170  92.5224980 141.7574080  43.7855040
  92.1468580 140.9902010  43.3536330  91.7928100 142.1396780  44.2729970
  77.1120740 142.4361220  50.4064090  77.4793780 142.3488620  51.2860110
  76.5431560 141.6727770  50.3070950  91.9124600 140.9045600  53.4194560
  91.6810690 140.6758350  52.5192510  92.1729150 141.8245150  53.3739450
  76.6636740 139.3470310  54.3122510  75.7692790 139.3137070  54.6516220
  77.2034290 139.5457100  55.0773760  90.3512670 136.1302030  56.1974260
  91.2282850 136.1385430  56.5808260  90.3633510 135.3932870  55.5866610
  75.2882890 139.2607580  41.8086080  74.3846970 139.5237780  41.6337740
  75.7723510 139.5318750  41.0286040  91.7975940 139.9831570  47.0862280
  92.3213420 139.4894220  46.4552450  92.3835360 140.1181930  47.8309850
  91.9765660 140.0671440  50.6081830  91.0268370 140.0334980  50.7226820
  92.1578670 140.9771550  50.3731600  77.8310100 138.3173120  39.7180460
  78.5401800 137.8956340  39.2327740  77.1150040 138.3848350  39.0863810
  77.4784260 134.3712450  38.7583110  78.2012390 134.9121390  39.0764330
  77.7508780 134.0975870  37.8824650  91.2875910 139.2404920  43.0254690
  91.7835030 139.0075790  43.8103570  91.0891980 138.4016760  42.6092330
  77.1676450 133.6218640  48.6605730  77.8152640 133.0716020  48.2200890
  77.5878290 133.8761790  49.4821540  92.7163070 137.8765870  45.5592370
  92.6062350 137.7221910  46.4974640  93.4770660 137.3486810  45.3167780
  91.0628790 133.8160000  52.0175370  91.7001010 134.4294140  52.3834560
  91.2103680 133.8520660  51.0724600  93.6053340 135.7073790  38.7998510
  94.5302650 135.5754970  38.5916800  93.5829130 135.7866610  39.7534960
  93.6791830 136.4784450  41.4255220  92.8843330 136.4129570  41.9548130
  93.8835110 137.4135090  41.4140570  90.6210250 150.5176000  45.4193610
  91.2169320 150.1960570  44.7428030  90.8788400 150.0447820  46.2106880
  76.9208450 133.7774310  51.4031050  76.5723270 134.2338130  52.1689230
  76.5896150 132.8831440  51.4853480  78.5272820 146.9493910  55.5684240
  78.4842450 146.5786820  56.4498700  78.6583830 147.8871480  55.7086060
  82.2278850 148.5053500  51.1693960  81.9870210 148.7728060  50.2824480
  83.1681490 148.6759230  51.2244820  93.4883010 150.5247880  51.9704600
  92.9941290 150.9216750  51.2531730  92.8796300 149.8997090  52.3641880
  77.5929090 133.3050510  54.6781820  78.1412080 133.1238560  53.9147930
  77.6584400 132.5144620  55.2138130  78.3660850 149.8956160  52.6882020
  77.7721170 149.7640860  53.4272060  78.3584690 149.0594300  52.2224120
  77.9973080 147.2614540  51.6390060  77.2707140 146.6419830  51.5716010
  78.0582230 147.6555150  50.7688140  81.6018180 149.4759540  48.4239470
  82.1183200 148.8646900  47.8987730  82.2515560 149.9788320  48.9150480
  84.3413680 150.3668030  49.2508450  84.6291490 150.1122330  48.3741460
  84.8536900 149.8145390  49.8414020  85.5590690 134.1058230  49.8304960
  84.7762480 134.5803730  50.1101720  85.2653620 133.2013060  49.7218140
  90.1111760 134.8081330  47.8754050  90.5519850 134.7526430  47.0275650
  89.8419350 135.7239340  47.9464230  91.9750330 134.4396570  45.8862870
  91.9138730 133.4957790  45.7393890  92.7542360 134.5476660  46.4316330
  76.2803080 150.5788930  44.8486820  76.1125120 149.9459610  45.5468710
  75.4137590 150.7848330  44.4981010  76.9031100 134.4105710  42.3518680
  77.6610460 134.5234590  41.7782710  76.4408270 135.2474910  42.3062110
  83.4444910 136.5244980  45.3420990  82.6319420 136.1501870  45.0016870
  83.9486550 135.7690060  45.6442180  87.9469890 133.1887430  46.5804060
  88.5499260 133.7607640  47.0552580  87.2062880 133.7526870  46.3577960
  91.0904490 133.5908990  41.8544340  91.2855120 134.4892440  42.1211770
  90.3034360 133.3596070  42.3477290  77.8865780 149.2722160  42.2936960
  77.3613400 149.6530190  41.5898920  77.8110360 149.8972930  43.0146670
  79.2756250 134.9369760  40.8920650  79.8049010 134.1499560  40.7628600
  79.9084570 135.6160950  41.1256180  81.4694090 134.6744900  43.9466040
  80.8396830 133.9732210  44.1136170  80.9299230 135.4349030  43.7299200
  92.6431100 150.8309700  43.6150900  92.8183290 150.1447440  42.9711820
  91.9452670 151.3556750  43.2227570  80.4858750 151.2204540  41.1686210
  81.2177570 150.9363820  40.6210100  80.7452420 150.9817820  42.0585590
  79.6473540 147.3369270  41.1732540  79.0182420 147.8054370  41.7218370
  79.7621370 146.4918490  41.6078730  90.9763600 150.5153990  56.4417690
  91.7688920 150.0203220  56.2343650  91.2696750 151.1944130  57.0493300
  87.1023260 141.3874930  27.3233740  87.0217310 140.4729540  27.0525450
  86.6887680 141.8842000  26.6173450  85.2341300 143.1653950  29.2043010
  84.4583400 142.6854390  29.4941580  85.8854230 142.4859600  29.0299170
  79.2507130 143.4773760  30.0818770  78.4192010 143.2222470  30.4815280
  79.8588110 143.5484530  30.8176690  89.2548730 147.5714140  27.9842140
  88.7930260 146.8001380  28.3129310  90.0674280 147.5980210  28.4894590
  79.2308390 147.5113850  30.2776790  79.5336430 146.6211590  30.0987010
  79.9751980 148.0684070  30.0499040  77.6599080 138.4375650  23.8661160
  76.7715780 138.7791620  23.7641040  77.9440270 138.2375970  22.9741990
  75.6232090 141.0381300  29.7500860  76.1948200 140.2703500  29.7504500
  75.6233630 141.3370060  28.8407470  85.4812040 149.8572150  27.6046130
  84.8623480 150.3129650  27.0340570  86.3363820 150.0123610  27.2035830
  84.6750290 145.8411140  29.2113170  84.6058570 144.9001080  29.0502300
  85.4370150 145.9312550  29.7835740  76.8656960 136.4465660  31.5369790
  76.6859800 135.5491410  31.8172550  76.4637040 136.9937530  32.2116740
  85.7055460 138.6481520  29.4382100  86.0820280 137.7753400  29.3255770
  85.6074970 138.9840220  28.5472540  79.8360470 137.0207150  24.8999540
  79.9427220 137.9210880  25.2068300  78.9252830 136.9725120  24.6094190
  89.4879580 136.1431960  26.3710440  90.3089200 135.6528530  26.4135920
  89.5213660 136.7329620  27.1242280  77.4843630 138.9426160  30.1452130
  78.1653740 139.2064530  30.7639530  77.1691680 138.1027030  30.4790140
  81.6768200 139.9893520  29.2324720  82.1846420 140.4874490  29.8729740
  82.2081440 139.2128720  29.0564080  93.7779130 138.1598710  32.9354070
  93.0731300 138.5480420  32.4169180  94.0437050 138.8549000  33.5375000
  79.9604300 134.6292080  33.4988140  79.9622740 135.1464470  32.6934040
  79.1308610 134.1522260  33.4758070  86.3475390 144.7411390  24.9978040
  85.7292660 145.2060840  24.4340760  86.8598640 145.4338870  25.4147550
  81.2107150 144.2687260  31.6761640  80.8776530 144.8956180  32.3182710
  81.3873830 144.7949140  30.8963310  89.7241060 138.0832340  29.1437980
  89.0196630 138.3717230  29.7241090  90.0853220 138.8932450  28.7837540
  79.6419630 136.3402040  31.5058590  79.9836440 137.1844090  31.2112460
  78.7035440 136.4885780  31.6223930  80.4226250 146.2368060  33.4910820
  81.0400250 146.9119140  33.2095270  79.5619370 146.6456040  33.3998320
  75.7158590 145.4267920  22.3717670  75.3386570 145.9155020  21.6402570
  75.9731660 146.0993200  23.0024200  91.3403840 147.7007470  31.4065460
  90.6567360 148.3706580  31.3982130  91.8798130 147.8988120  30.6410320
  92.7927980 137.5287130  29.5347190  91.8452890 137.5626110  29.6662620
  93.1177970 138.3426080  29.9196550  83.3247520 133.8284310  27.8303180
  83.6322500 133.2731200  27.1138680  82.3948220 133.9628770  27.6476170
  88.8762580 149.5451600  30.1210640  88.8889740 149.1413890  29.2532900
  88.3237800 150.3198890  30.0172070  90.1708000 146.2667820  25.2100810
  90.0604330 145.3242150  25.3350230  90.1676250 146.6283460  26.0963570
  88.2748020 144.4481440  31.4493250  88.6916810 144.2341550  30.6146710
  88.9987840 144.7054230  32.0201870  85.7128280 141.8933140  24.5663300
  84.7857560 141.8270520  24.7951770  85.8653100 142.8313270  24.4518540
  85.6997360 138.1650140  21.5630460  84.7601030 138.3264100  21.6482920
  86.0180620 138.8835820  21.0166450  92.2210120 142.8468660  31.5409490
  91.3928750 142.9161750  31.0659620  92.8160600 143.4322970  31.0725320
  89.7425570 143.4553440  25.0698550  89.1237990 143.1172990  24.4224850
  89.7250020 142.8113200  25.7777740  89.1852130 139.6337980  32.4864360
  88.7723310 140.4591690  32.7404350  88.4528080 139.0483020  32.2940720
  81.3184920 142.4197880  27.3483030  80.9141920 141.7075130  26.8528930
  81.4048040 142.0751120  28.2371070  81.7866620 146.1065440  29.5122240
  81.4894910 145.5010910  28.8330020  82.7366440 146.1442750  29.4011600
  80.0313540 139.1941090  31.1282070  80.5828130 139.3036430  30.3535320
  80.5457050 139.5678690  31.8437300  89.8752230 149.6797310  33.1745340
  89.3982790 150.4869500  32.9817950  89.1914020 149.0275640  33.3271550
  80.8785050 145.8447130  36.1630040  79.9813580 146.0687100  36.4103440
  80.9037920 145.9682070  35.2141440  87.9190270 142.6940250  22.0771300
  88.3583550 141.8562680  21.9309120  88.6318690 143.3269650  22.1635440
  79.7056270 142.7160450  34.7387410  79.5664040 143.5883250  35.1074810
  78.8237630 142.3733260  34.5935350  86.0285650 147.6336320  26.0452540
  86.4681560 148.3760650  25.6307930  85.9672540 147.8762890  26.9691500
  81.5036620 148.6582150  36.9472560  81.4752050 149.0625100  36.0800990
  81.3401590 147.7292510  36.7844160  91.5007410 133.9483060  20.3912340
  91.1880070 134.0409890  21.2911410  92.2619880 134.5264090  20.3409770
  78.0189550 141.3142860  24.8489680  77.8987150 142.0404950  24.2370950
  77.7090440 140.5445770  24.3717590  93.4551440 149.4409250  38.2436730
  93.9311160 149.9192140  38.9225810  94.0758600 149.3726740  37.5182230
  75.6574920 144.4858000  30.6558320  75.7355340 144.6206770  29.7114040
  76.2716600 143.7773890  30.8486440  76.9022550 146.1858190  27.0664500
  76.4950630 146.3272780  26.2118100  77.7935560 145.9018350  26.8635710
  92.8584690 146.6322100  35.4036740  92.9847750 146.3933980  34.4853920
  92.9006070 145.8006640  35.8758820  86.7201430 150.3350100  33.9731550
  87.2346100 150.2458110  34.7753980  85.8770510 150.6809800  34.2659460
  88.6955830 150.6205440  23.4015550  88.5356970 150.3308380  24.2997380
  88.5302540 149.8445570  22.8660780  81.1744210 150.4003970  25.1787170
  80.9986690 149.4839510  24.9654970  80.3199950 150.7591260  25.4184970
  88.3981960 148.1293000  21.9613550  87.7047120 148.1270290  21.3015830
  89.1404820 147.7052320  21.5307720  87.9631890 149.7555710  26.0362040
  88.4188840 148.9745090  26.3500660  88.3024410 150.4662530  26.5803220
  92.7108700 138.6854560  36.3686480  92.0952970 139.1934230  35.8401940
  92.3905120 137.7852890  36.3112420  75.7134440 145.5272170  33.1952780
  75.8765480 145.0577530  32.3772150  76.1786890 145.0195730  33.8601620
  80.4853210 134.6577930  28.2313350  80.0421360 135.4387470  27.8997870
  81.0438200 134.9807820  28.9384290  84.7723020 137.5246450  33.8348670
  84.3102390 137.7329470  34.6468610  84.3701130 136.7105800  33.5319340
  89.7727530 138.7455400  34.9645330  88.9221120 138.4461150  35.2854400
  89.6129320 138.9897410  34.0529150  86.8677240 140.2457150  37.0644120
  87.1930650 139.4120900  36.7246350  87.6557570 140.7685670  37.2122450
  83.6012030 134.2788630  23.1119180  82.9766210 134.2748500  23.8372490
  83.5142150 133.4119590  22.7155150  82.5229110 135.2025260  30.0902950
  82.8201440 136.1088090  30.0094970  83.0714670 134.7144040  29.4762520
  80.2767430 139.7811500  25.9594600  80.0508350 139.5648670  26.8641220
  79.4959960 140.2139960  25.6140570  87.5065190 139.7874870  24.5585250
  86.9074080 140.5110670  24.3748870  88.0544800 139.7251650  23.7761700
  82.7166640 140.6797080  36.6254870  82.6210240 139.7391810  36.4755270
  83.5598620 140.9012150  36.2302940  86.1130060 138.4238410  26.5888530
  86.5059630 138.7410610  25.7757220  86.4746910 137.5450290  26.7033050
  77.8477180 137.0910750  34.7788650  77.4540570 137.9385960  34.9861430
  77.1595580 136.4537120  34.9697290  84.4222230 137.1745720  37.8485390
  83.7320550 136.9817920  38.4831480  85.1654530 137.4580360  38.3809690
  75.1494230 135.0139210  28.8118730  74.8607280 135.5842070  29.5243710
  75.8939990 134.5343660  29.1749960  75.3364460 138.9559330  20.0221450
  75.2539130 139.8990090  20.1636440  74.9847520 138.8134240  19.1433800
  86.6985200 141.0144160  30.6839310  85.9666320 141.5230970  31.0329410
  86.3009540 140.1974140  30.3828090  83.1362590 137.6898360  29.0891800
  83.1398650 137.2488310  28.2396340  84.0313710 138.0115690  29.1963620
  78.9864970 137.5724850  28.0486010  78.6465020 138.0500080  28.8053060
  78.2242290 137.1189970  27.6887110  83.1982740 138.6910440  22.0798560
  83.3195560 138.6496920  23.0284380  82.8131250 139.5534590  21.9245290
  87.1611110 136.4677840  30.0962250  87.1783850 136.9186490  30.9404100
  86.9126690 135.5683480  30.3095690  82.2104240 141.0011580  21.4781860
  81.6421140 140.5529830  20.8517770  82.9193240 141.3604360  20.9447010
  90.5881860 133.8810020  35.9348630  90.9127630 133.1499680  36.4606610
  90.6238370 133.5623660  35.0329620  77.2873420 144.9023600  35.3548590
  76.9028210 144.2617270  35.9531550  77.5985610 145.6059720  35.9243320
  83.4370560 141.7500140  30.8357210  83.8040690 141.2758710  31.5818550
  83.2475620 142.6241710  31.1765550  76.3011050 136.4943830  26.9650680
  76.0157970 136.1299500  27.8029300  76.2389910 135.7624290  26.3513820
  81.2269930 140.7908780  33.1541420  80.9227000 141.6700760  33.3791780
  82.1816390 140.8508570  33.1898860  79.7551720 144.9969770  23.7508270
  78.9813980 144.4567390  23.5906990  80.4846350 144.4776380  23.4126030
  90.5139700 143.9935130  29.5434660  91.2338820 144.4890420  29.1530770
  90.3121520 143.3153020  28.8988530  85.9749640 135.3873090  23.6864050
  85.1614250 134.8886260  23.6109360  85.7811590 136.2271340  23.2700400
  85.8958500 144.0644190  35.4303660  85.8295810 143.1439860  35.1761250
  85.2663640 144.1619630  36.1448300  88.6898030 139.7592740  21.9826210
  89.5777650 140.0709970  21.8077550  88.6603120 138.8864990  21.5906790
  79.7989120 144.6650150  27.3887080  80.3167790 143.8618410  27.3343970
  79.3473140 144.6029290  28.2303910  84.6858620 145.9316430  22.6614380
  85.0274320 146.6758660  22.1657700  83.8571330 146.2447550  23.0239210
  77.2833660 141.6311520  34.3012780  76.9248600 142.2965370  34.8886120
  76.9888220 140.7995070  34.6725400  80.4846780 142.0895760  37.1852330
  80.1846920 142.2352940  36.2880150  81.2558020 141.5301050  37.0925720
  85.8275230 146.8864760  35.1807460  85.8419770 145.9545720  34.9626370
  85.1200330 146.9724520  35.8197230  90.9612300 141.0704580  21.4506070
  90.8776020 141.5018800  20.6002510  91.6806490 141.5302930  21.8832890
  92.0386440 143.5272100  34.5276040  91.3134630 144.1200880  34.3305430
  92.5661900 143.5195640  33.7289410  91.9899550 147.9246840  24.1788200
  91.3475710 147.2702460  24.4531920  91.6030210 148.3301930  23.4028870
  87.5686030 145.2532270  28.0259890  87.9209850 144.6560400  27.3661260
  86.6848360 144.9276500  28.1968140  83.6549310 146.0129960  25.4330300
  84.3420440 146.5599170  25.8137890  82.8681730 146.5570690  25.4679910
  75.7941710 141.6302780  20.9247380  76.6636560 141.9127580  21.2083300
  75.3032030 142.4438650  20.8096190  82.9576520 143.0175990  25.0455660
  83.4139300 143.8281240  25.2715850  82.6064730 142.6999130  25.8774150
  85.2609130 148.5282330  32.2747960  85.9051350 148.7341710  32.9521380
  85.6238570 147.7670730  31.8218810  78.8588300 133.3613640  25.5178180
  78.7302930 133.3531540  26.4663100  78.0350320 133.6996730  25.1669190
  86.5341210 146.5314680  30.9925410  87.1763440 145.8307840  31.1057580
  87.0590560 147.3113120  30.8122300  90.3796930 146.8163300  20.7164550
  90.1534510 146.0993740  21.3089190  89.9893130 146.5675740  19.8786300
  88.3078830 147.3309580  34.1961470  88.6435070 147.9176270  34.8739390
  87.3879170 147.2002290  34.4259260  76.1612960 150.8430160  21.4909010
  76.5210600 151.4419500  20.8366280  76.0205300 151.3890050  22.2644040
  75.8582230 135.1204760  34.9784880  75.1440750 135.3201680  35.5837490
  76.2777270 134.3444330  35.3499680  89.9613180 144.7335240  22.3778710
  89.6734880 145.1947930  23.1656590  90.7565350 144.2733010  22.6462930
  76.1454820 149.1085020  35.9651410  76.2545940 148.1679760  35.8246800
  75.4935380 149.3739770  35.3165140  84.1367410 147.3800910  37.3649530
  83.8164280 146.6610150  37.9095220  83.4625770 148.0555980  37.4385590
  82.1781580 148.2261360  22.3082680  82.1691680 148.9591050  21.6927190
  81.2579940 147.9792940  22.4009640  77.7788220 143.4476250  23.0529440
  77.1716170 144.1875150  23.0624740  78.2537570 143.5375610  22.2267640
  87.3521010 137.6127070  32.7286330  87.7201830 136.7922280  33.0565900
  86.4919210 137.6728960  33.1441980  90.7183040 136.5684010  23.5373890
  90.0896200 136.6729680  22.8232120  90.2234960 136.7880790  24.3267770
  85.1641180 148.2889600  20.9707870  85.2653160 148.0853590  20.0409850
  84.2642920 148.0347880  21.1755650  82.6867070 138.8469960  24.9531770
  81.9783220 139.3156300  25.3945380  82.9711550 138.1891970  25.5876960
  84.3123000 140.2666660  32.9524300  84.8108250 140.7412480  33.6176150
  84.4545950 139.3430180  33.1594330  86.7182500 135.5720620  26.3927560
  86.5950280 135.5906750  25.4437070  87.6667060 135.6199560  26.5125960
  83.8059290 150.8075920  25.6655540  84.0600790 150.7697310  24.7434910
  82.8571770 150.6809250  25.6583790  80.8902090 137.1555040  22.3282480
  81.7392620 137.5925190  22.2622670  80.5233360 137.4675300  23.1554540
  91.5189860 136.4834620  33.7952690  91.0163460 137.2240020  34.1346500
  92.3346520 136.8718620  33.4789480  89.8111870 141.7267800  27.2414050
  88.8702010 141.7418030  27.4161740  90.1255940 140.9403760  27.6874350
  79.7893510 143.4087400  20.8018010  80.5556780 143.2968760  21.3643440
  79.8668200 142.7125370  20.1494780  78.4840270 140.8412470  21.4850900
  78.5643860 139.8939980  21.5968300  79.3760020 141.1719350  21.5911560
  91.8137450 148.8976650  28.9168310  91.9384870 149.7207820  29.3892120
  92.6803010 148.6867380  28.5692460  76.1700460 147.0581430  24.4626950
  75.2440240 147.3002570  24.4532360  76.6356890 147.8855690  24.3411700
  78.2913260 150.1753930  37.7771020  79.0925990 150.4965980  38.1906420
  77.7765080 149.8149510  38.4990930  82.3957290 150.1638170  20.4111010
  83.1885900 150.4527000  19.9592800  81.8761640 149.7330340  19.7323490
  87.1277890 146.2833800  37.7246430  86.5216050 146.3065400  36.9842180
  86.8232000 145.5516840  38.2613680  88.5578260 150.0114090  36.3355840
  89.5100010 149.9272110  36.2856080  88.4106480 150.6755800  37.0089630
  91.4487460 149.3908300  21.8347750  91.1628970 148.9773440  21.0201930
  91.2507010 150.3196010  21.7148270  76.0111070 142.6627390  36.7207070
  76.5150090 142.0834670  37.2923300  75.2718490 142.9467620  37.2583440
  82.9134690 145.3841580  20.2753360  82.8085330 144.7693930  21.0014740
  82.7458910 144.8607470  19.4916370  83.0649010 144.0698380  36.2542590
  82.2994680 144.6383380  36.1697260  83.2464970 143.7774590  35.3610820
  86.1537420 144.4461610  20.8795350  85.6047520 144.8930910  21.5238090
  86.7756680 143.9410860  21.4033020  90.2072360 145.8003710  36.8117610
  90.9481830 146.1379470  36.3085070  89.4445040 145.9695770  36.2587380
  78.0434150 140.8056980  37.6157140  78.0839490 140.5070850  38.5242370
  78.8979650 141.2064590  37.4564660  81.8212540 143.4052530  22.7760650
  82.2428960 143.2392400  23.6192040  81.9463380 142.5952760  22.2815790
  79.9839960 139.3849080  35.5831630  79.4536420 138.8940030  34.9554970
  80.6528030 139.8133280  35.0489560  84.3340180 142.4290140  20.0237750
  84.8545840 141.7139160  19.6578900  84.9808580 143.0676010  20.3238260
  88.8818020 143.8518540  35.3472820  89.2959040 144.0063620  36.1963240
  87.9469020 143.9773760  35.5098600  89.3540190 141.1914700  37.3511970
  89.9360960 140.4367020  37.2632450  89.5301960 141.7222140  36.5743450
  80.4712260 136.3511450  35.6628920  80.3769130 135.7332200  34.9379790
  79.8909650 137.0777740  35.4358830  83.2373700 134.9084690  32.6956310
  82.7891000 134.9308950  31.8501860  82.6038900 134.5103710  33.2926610
  83.6433250 143.8039020  33.3168750  84.0621360 144.6471750  33.1444990
  82.7241880 143.9411060  33.0875530  85.9797150 141.5355200  34.7006590
  86.0993360 140.9396340  35.4401430  86.8391150 141.5724890  34.2807890
  88.3185050 142.0892390  33.2769100  87.7920270 142.6135010  32.6734240
  88.6616390 142.7219780  33.9078830  80.7171440 139.4785760  19.7218810
  80.5160500 138.6153120  20.0832150  80.5463490 139.3919120  18.7840410
  81.4940670 150.1092030  34.4326480  80.9561760 150.8338090  34.1135180
  81.7474630 149.6322370  33.6423820  82.7465920 138.0776550  35.9582410
  83.3365610 137.7692400  36.6460230  81.9286160 137.6056300  36.1142310
  87.5659350 137.6942360  36.1915430  86.8774870 137.0323900  36.1265420
  88.2865370 137.2480630  36.6363890  88.1959750 134.2893990  22.2505690
  88.4762040 133.4461890  22.6065110  87.4225480 134.5217100  22.7644440
  79.5154240 136.5786380  19.7096690  79.8180140 136.5853810  18.8015840
  80.2548830 136.2284240  20.2064350  82.7339170 135.5221000  20.6952890
  82.3861170 134.8444990  20.1155340  82.9351940 135.0610510  21.5096280
  84.8988210 150.5101750  22.3139490  85.7939000 150.8486720  22.3358250
  84.9305840 149.7881160  21.6863770  78.5384370 145.8828800  20.5426490
  78.9759240 146.4258470  21.1984070  79.0232100 145.0575750  20.5522830
  75.7530170 148.6717830  27.9946750  76.0833180 147.8038890  27.7625390
  76.1821170 148.8776350  28.8251710  80.3492090 147.0026840  25.6548720
  80.0487630 146.8791810  26.5552630  80.2429580 146.1435430  25.2464450
  76.2420380 149.5388420  30.7328380  75.8051370 149.7189220  31.5652530
  76.8098060 150.2963040  30.5910100  91.8782560 149.0405420  35.0205690
  91.2784550 149.0997980  34.2769610  92.0076460 148.1010400  35.1502540
  93.1184010 146.7823240  20.3575400  92.2876970 146.8499890  20.8282630
  93.2955840 147.6727360  20.0542260  92.5740470 143.5270720  22.8609600
  93.3359380 144.0967370  22.9669290  92.5894840 142.9597920  23.6317910
  76.0744810 142.0508650  27.0917260  75.4193650 141.7820290  26.4476960
  76.9122760 141.9413130  26.6419240  93.5800440 144.3820820  27.7051530
  93.9509270 143.5988140  27.2987500  94.2202370 145.0709920  27.5268830
  90.5634200 145.7657400  33.1181850  89.7494040 146.1954560  33.3807640
  90.9708400 146.3775810  32.5050900  92.6259640 143.8205090  20.0182120
  92.9008480 144.7283970  19.8901340  92.4370380 143.7567620  20.9544110
  89.0235250 136.8449940  21.3135750  89.4420130 136.6580920  20.4732410
  88.7171310 135.9928990  21.6238680  92.5224980 141.7574080  25.0111550
  92.1468580 140.9902010  24.5792840  91.7928100 142.1396780  25.4986480
  77.1120740 142.4361220  31.6320600  77.4793780 142.3488620  32.5116620
  76.5431560 141.6727770  31.5327460  91.9124600 140.9045600  34.6451070
  91.6810690 140.6758350  33.7449020  92.1729150 141.8245150  34.5995960
  76.6636740 139.3470310  35.5379020  75.7692790 139.3137070  35.8772730
  77.2034290 139.5457100  36.3030270  90.3512670 136.1302030  37.4230770
  91.2282850 136.1385430  37.8064770  90.3633510 135.3932870  36.8123120
  75.2882890 139.2607580  23.0342590  74.3846970 139.5237780  22.8594250
  75.7723510 139.5318750  22.2542550  91.7975940 139.9831570  28.3118790
  92.3213420 139.4894220  27.6808960  92.3835360 140.1181930  29.0566360
  91.9765660 140.0671440  31.8338340  91.0268370 140.0334980  31.9483330
  92.1578670 140.9771550  31.5988110  77.8310100 138.3173120  20.9436970
  78.5401800 137.8956340  20.4584250  77.1150040 138.3848350  20.3120320
  77.4784260 134.3712450  19.9839620  78.2012390 134.9121390  20.3020840
  77.7508780 134.0975870  19.1081160  91.2875910 139.2404920  24.2511200
  91.7835030 139.0075790  25.0360080  91.0891980 138.4016760  23.8348840
  77.1676450 133.6218640  29.8862240  77.8152640 133.0716020  29.4457400
  77.5878290 133.8761790  30.7078050  92.7163070 137.8765870  26.7848880
  92.6062350 137.7221910  27.7231150  93.4770660 137.3486810  26.5424290
  91.0628790 133.8160000  33.2431880  91.7001010 134.4294140  33.6091070
  91.2103680 133.8520660  32.2981110  93.6053340 135.7073790  20.0255020
  94.5302650 135.5754970  19.8173310  93.5829130 135.7866610  20.9791470
  93.6791830 136.4784450  22.6511730  92.8843330 136.4129570  23.1804640
  93.8835110 137.4135090  22.6397080  90.6210250 150.5176000  26.6450120
  91.2169320 150.1960570  25.9684540  90.8788400 150.0447820  27.4363390
  76.9208450 133.7774310  32.6287560  76.5723270 134.2338130  33.3945740
  76.5896150 132.8831440  32.7109990  78.5272820 146.9493910  36.7940750
  78.4842450 146.5786820  37.6755210  78.6583830 147.8871480  36.9342570
  82.2278850 148.5053500  32.3950470  81.9870210 148.7728060  31.5080990
  83.1681490 148.6759230  32.4501330  84.4333270 134.9686190  36.1506980
  84.3722160 135.5608020  36.9002390  85.3733650 134.8612150  36.0057240
  87.0707830 134.6256250  35.7899270  87.6848240 134.9435540  35.1280350
  87.6157390 134.1404840  36.4095130  93.4883010 150.5247880  33.1961110
  92.9941290 150.9216750  32.4788240  92.8796300 149.8997090  33.5898390
  77.5929090 133.3050510  35.9038330  78.1412080 133.1238560  35.1404440
  77.6584400 132.5144620  36.4394640  78.3660850 149.8956160  33.9138530
  77.7721170 149.7640860  34.6528570  78.3584690 149.0594300  33.4480630
  87.8115870 133.1888390  32.1168560  86.9375710 133.5223500  31.9141490
  87.7026620 132.7161570  32.9420430  88.7187850 135.3959260  33.5010280
  88.3901210 134.5811020  33.1212010  89.6670150 135.3529070  33.3775970
  77.9973080 147.2614540  32.8646570  77.2707140 146.6419830  32.7972520
  78.0582230 147.6555150  31.9944650  81.6018180 149.4759540  29.6495980
  82.1183200 148.8646900  29.1244240  82.2515560 149.9788320  30.1406990
  84.3413680 150.3668030  30.4764960  84.6291490 150.1122330  29.5997970
  84.8536900 149.8145390  31.0670530  85.5590690 134.1058230  31.0561470
  84.7762480 134.5803730  31.3358230  85.2653620 133.2013060  30.9474650
  90.1111760 134.8081330  29.1010560  90.5519850 134.7526430  28.2532160
  89.8419350 135.7239340  29.1720740  91.9750330 134.4396570  27.1119380
  91.9138730 133.4957790  26.9650400  92.7542360 134.5476660  27.6572840
  76.2803080 150.5788930  26.0743330  76.1125120 149.9459610  26.7725220
  75.4137590 150.7848330  25.7237520  76.9031100 134.4105710  23.5775190
  77.6610460 134.5234590  23.0039220  76.4408270 135.2474910  23.5318620
  83.4444910 136.5244980  26.5677500  82.6319420 136.1501870  26.2273380
  83.9486550 135.7690060  26.8698690  87.9469890 133.1887430  27.8060570
  88.5499260 133.7607640  28.2809090  87.2062880 133.7526870  27.5834470
  91.0904490 133.5908990  23.0800850  91.2855120 134.4892440  23.3468280
  90.3034360 133.3596070  23.5733800  77.8865780 149.2722160  23.5193470
  77.3613400 149.6530190  22.8155430  77.8110360 149.8972930  24.2403180
  79.2756250 134.9369760  22.1177160  79.8049010 134.1499560  21.9885110
  79.9084570 135.6160950  22.3512690  81.4694090 134.6744900  25.1722550
  80.8396830 133.9732210  25.3392680  80.9299230 135.4349030  24.9555710
  92.6431100 150.8309700  24.8407410  92.8183290 150.1447440  24.1968330
  91.9452670 151.3556750  24.4484080  81.5949650 133.9528880  37.6075040
  81.3133920 134.4562480  36.8435860  81.9769350 133.1550630  37.2417170
  80.4858750 151.2204540  22.3942720  81.2177570 150.9363820  21.8466610
  80.7452420 150.9817820  23.2842100  79.6473540 147.3369270  22.3989050
  79.0182420 147.8054370  22.9474880  79.7621370 146.4918490  22.8335240
  88.1965110 133.3682460  38.1855510  88.0830560 133.6877070  39.0807030
  89.0134850 133.7694970  37.8892790  90.9763600 150.5153990  37.6674200
  91.7688920 150.0203220  37.4600160  91.2696750 151.1944130  38.2749810
  87.1023260 141.3874930   8.5490250  87.0217310 140.4729540   8.2781960
  86.6887680 141.8842000   7.8429960  85.2341300 143.1653950  10.4299520
  84.4583400 142.6854390  10.7198090  85.8854230 142.4859600  10.2555680
  79.2507130 143.4773760  11.3075280  78.4192010 143.2222470  11.7071790
  79.8588110 143.5484530  12.0433200  89.2548730 147.5714140   9.2098650
  88.7930260 146.8001380   9.5385820  90.0674280 147.5980210   9.7151100
  79.2308390 147.5113850  11.5033300  79.5336430 146.6211590  11.3243520
  79.9751980 148.0684070  11.2755550  77.6599080 138.4375650   5.0917670
  76.7715780 138.7791620   4.9897550  77.9440270 138.2375970   4.1998500
  75.6232090 141.0381300  10.9757370  76.1948200 140.2703500  10.9761010
  75.6233630 141.3370060  10.0663980  85.4812040 149.8572150   8.8302640
  84.8623480 150.3129650   8.2597080  86.3363820 150.0123610   8.4292340
  84.6750290 145.8411140  10.4369680  84.6058570 144.9001080  10.2758810
  85.4370150 145.9312550  11.0092250  76.8656960 136.4465660  12.7626300
  76.6859800 135.5491410  13.0429060  76.4637040 136.9937530  13.4373250
  85.7055460 138.6481520  10.6638610  86.0820280 137.7753400  10.5512280
  85.6074970 138.9840220   9.7729050  79.8360470 137.0207150   6.1256050
  79.9427220 137.9210880   6.4324810  78.9252830 136.9725120   5.8350700
  89.4879580 136.1431960   7.5966950  90.3089200 135.6528530   7.6392430
  89.5213660 136.7329620   8.3498790  77.4843630 138.9426160  11.3708640
  78.1653740 139.2064530  11.9896040  77.1691680 138.1027030  11.7046650
  81.6768200 139.9893520  10.4581230  82.1846420 140.4874490  11.0986250
  82.2081440 139.2128720  10.2820590  93.7779130 138.1598710  14.1610580
  93.0731300 138.5480420  13.6425690  94.0437050 138.8549000  14.7631510
  79.9604300 134.6292080  14.7244650  79.9622740 135.1464470  13.9190550
  79.1308610 134.1522260  14.7014580  86.3475390 144.7411390   6.2234550
  85.7292660 145.2060840   5.6597270  86.8598640 145.4338870   6.6404060
  81.2107150 144.2687260  12.9018150  80.8776530 144.8956180  13.5439220
  81.3873830 144.7949140  12.1219820  89.7241060 138.0832340  10.3694490
  89.0196630 138.3717230  10.9497600  90.0853220 138.8932450  10.0094050
  79.6419630 136.3402040  12.7315100  79.9836440 137.1844090  12.4368970
  78.7035440 136.4885780  12.8480440  80.4226250 146.2368060  14.7167330
  81.0400250 146.9119140  14.4351780  79.5619370 146.6456040  14.6254830
  75.7158590 145.4267920   3.5974180  75.3386570 145.9155020   2.8659080
  75.9731660 146.0993200   4.2280710  91.3403840 147.7007470  12.6321970
  90.6567360 148.3706580  12.6238640  91.8798130 147.8988120  11.8666830
  92.7927980 137.5287130  10.7603700  91.8452890 137.5626110  10.8919130
  93.1177970 138.3426080  11.1453060  83.3247520 133.8284310   9.0559690
  83.6322500 133.2731200   8.3395190  82.3948220 133.9628770   8.8732680
  88.8762580 149.5451600  11.3467150  88.8889740 149.1413890  10.4789410
  88.3237800 150.3198890  11.2428580  90.1708000 146.2667820   6.4357320
  90.0604330 145.3242150   6.5606740  90.1676250 146.6283460   7.3220080
  88.2748020 144.4481440  12.6749760  88.6916810 144.2341550  11.8403220
  88.9987840 144.7054230  13.2458380  85.7128280 141.8933140   5.7919810
  84.7857560 141.8270520   6.0208280  85.8653100 142.8313270   5.6775050
  85.6997360 138.1650140   2.7886970  84.7601030 138.3264100   2.8739430
  86.0180620 138.8835820   2.2422960  92.2210120 142.8468660  12.7666000
  91.3928750 142.9161750  12.2916130  92.8160600 143.4322970  12.2981830
  89.7425570 143.4553440   6.2955060  89.1237990 143.1172990   5.6481360
  89.7250020 142.8113200   7.0034250  89.1852130 139.6337980  13.7120870
  88.7723310 140.4591690  13.9660860  88.4528080 139.0483020  13.5197230
  81.3184920 142.4197880   8.5739540  80.9141920 141.7075130   8.0785440
  81.4048040 142.0751120   9.4627580  81.7866620 146.1065440  10.7378750
  81.4894910 145.5010910  10.0586530  82.7366440 146.1442750  10.6268110
  80.0313540 139.1941090  12.3538580  80.5828130 139.3036430  11.5791830
  80.5457050 139.5678690  13.0693810  89.8752230 149.6797310  14.4001850
  89.3982790 150.4869500  14.2074460  89.1914020 149.0275640  14.5528060
  80.8785050 145.8447130  17.3886550  79.9813580 146.0687100  17.6359950
  80.9037920 145.9682070  16.4397950  87.9190270 142.6940250   3.3027810
  88.3583550 141.8562680   3.1565630  88.6318690 143.3269650   3.3891950
  79.7056270 142.7160450  15.9643920  79.5664040 143.5883250  16.3331320
  78.8237630 142.3733260  15.8191860  86.0285650 147.6336320   7.2709050
  86.4681560 148.3760650   6.8564440  85.9672540 147.8762890   8.1948010
  81.5036620 148.6582150  18.1729070  81.4752050 149.0625100  17.3057500
  81.3401590 147.7292510  18.0100670  78.0189550 141.3142860   6.0746190
  77.8987150 142.0404950   5.4627460  77.7090440 140.5445770   5.5974100
  93.4551440 149.4409250  19.4693240  93.9311160 149.9192140  20.1482320
  94.0758600 149.3726740  18.7438740  75.6574920 144.4858000  11.8814830
  75.7355340 144.6206770  10.9370550  76.2716600 143.7773890  12.0742950
  76.9022550 146.1858190   8.2921010  76.4950630 146.3272780   7.4374610
  77.7935560 145.9018350   8.0892220  92.8584690 146.6322100  16.6293250
  92.9847750 146.3933980  15.7110430  92.9006070 145.8006640  17.1015330
  86.7201430 150.3350100  15.1988060  87.2346100 150.2458110  16.0010490
  85.8770510 150.6809800  15.4915970  88.6955830 150.6205440   4.6272060
  88.5356970 150.3308380   5.5253890  88.5302540 149.8445570   4.0917290
  81.1744210 150.4003970   6.4043680  80.9986690 149.4839510   6.1911480
  80.3199950 150.7591260   6.6441480  88.3981960 148.1293000   3.1870060
  87.7047120 148.1270290   2.5272340  89.1404820 147.7052320   2.7564230
  87.9631890 149.7555710   7.2618550  88.4188840 148.9745090   7.5757170
  88.3024410 150.4662530   7.8059730  92.7108700 138.6854560  17.5942990
  92.0952970 139.1934230  17.0658450  92.3905120 137.7852890  17.5368930
  75.7134440 145.5272170  14.4209290  75.8765480 145.0577530  13.6028660
  76.1786890 145.0195730  15.0858130  80.4853210 134.6577930   9.4569860
  80.0421360 135.4387470   9.1254380  81.0438200 134.9807820  10.1640800
  84.7723020 137.5246450  15.0605180  84.3102390 137.7329470  15.8725120
  84.3701130 136.7105800  14.7575850  89.7727530 138.7455400  16.1901840
  88.9221120 138.4461150  16.5110910  89.6129320 138.9897410  15.2785660
  86.8677240 140.2457150  18.2900630  87.1930650 139.4120900  17.9502860
  87.6557570 140.7685670  18.4378960  83.6012030 134.2788630   4.3375690
  82.9766210 134.2748500   5.0629000  83.5142150 133.4119590   3.9411660
  82.5229110 135.2025260  11.3159460  82.8201440 136.1088090  11.2351480
  83.0714670 134.7144040  10.7019030  80.2767430 139.7811500   7.1851110
  80.0508350 139.5648670   8.0897730  79.4959960 140.2139960   6.8397080
  87.5065190 139.7874870   5.7841760  86.9074080 140.5110670   5.6005380
  88.0544800 139.7251650   5.0018210  82.7166640 140.6797080  17.8511380
  82.6210240 139.7391810  17.7011780  83.5598620 140.9012150  17.4559450
  86.1130060 138.4238410   7.8145040  86.5059630 138.7410610   7.0013730
  86.4746910 137.5450290   7.9289560  77.8477180 137.0910750  16.0045160
  77.4540570 137.9385960  16.2117940  77.1595580 136.4537120  16.1953800
  84.4222230 137.1745720  19.0741900  83.7320550 136.9817920  19.7087990
  85.1654530 137.4580360  19.6066200  75.1494230 135.0139210  10.0375240
  74.8607280 135.5842070  10.7500220  75.8939990 134.5343660  10.4006470
  86.6985200 141.0144160  11.9095820  85.9666320 141.5230970  12.2585920
  86.3009540 140.1974140  11.6084600  83.1362590 137.6898360  10.3148310
  83.1398650 137.2488310   9.4652850  84.0313710 138.0115690  10.4220130
  78.9864970 137.5724850   9.2742520  78.6465020 138.0500080  10.0309570
  78.2242290 137.1189970   8.9143620  83.1982740 138.6910440   3.3055070
  83.3195560 138.6496920   4.2540890  82.8131250 139.5534590   3.1501800
  87.1611110 136.4677840  11.3218760  87.1783850 136.9186490  12.1660610
  86.9126690 135.5683480  11.5352200  82.2104240 141.0011580   2.7038370
  81.6421140 140.5529830   2.0774280  82.9193240 141.3604360   2.1703520
  90.5881860 133.8810020  17.1605140  90.9127630 133.1499680  17.6863120
  90.6238370 133.5623660  16.2586130  77.2873420 144.9023600  16.5805100
  76.9028210 144.2617270  17.1788060  77.5985610 145.6059720  17.1499830
  83.4370560 141.7500140  12.0613720  83.8040690 141.2758710  12.8075060
  83.2475620 142.6241710  12.4022060  76.3011050 136.4943830   8.1907190
  76.0157970 136.1299500   9.0285810  76.2389910 135.7624290   7.5770330
  81.2269930 140.7908780  14.3797930  80.9227000 141.6700760  14.6048290
  82.1816390 140.8508570  14.4155370  79.7551720 144.9969770   4.9764780
  78.9813980 144.4567390   4.8163500  80.4846350 144.4776380   4.6382540
  90.5139700 143.9935130  10.7691170  91.2338820 144.4890420  10.3787280
  90.3121520 143.3153020  10.1245040  85.9749640 135.3873090   4.9120560
  85.1614250 134.8886260   4.8365870  85.7811590 136.2271340   4.4956910
  85.8958500 144.0644190  16.6560170  85.8295810 143.1439860  16.4017760
  85.2663640 144.1619630  17.3704810  88.6898030 139.7592740   3.2082720
  89.5777650 140.0709970   3.0334060  88.6603120 138.8864990   2.8163300
  79.7989120 144.6650150   8.6143590  80.3167790 143.8618410   8.5600480
  79.3473140 144.6029290   9.4560420  84.6858620 145.9316430   3.8870890
  85.0274320 146.6758660   3.3914210  83.8571330 146.2447550   4.2495720
  77.2833660 141.6311520  15.5269290  76.9248600 142.2965370  16.1142630
  76.9888220 140.7995070  15.8981910  80.4846780 142.0895760  18.4108840
  80.1846920 142.2352940  17.5136660  81.2558020 141.5301050  18.3182230
  85.8275230 146.8864760  16.4063970  85.8419770 145.9545720  16.1882880
  85.1200330 146.9724520  17.0453740  90.9612300 141.0704580   2.6762580
  90.8776020 141.5018800   1.8259020  91.6806490 141.5302930   3.1089400
  92.0386440 143.5272100  15.7532550  91.3134630 144.1200880  15.5561940
  92.5661900 143.5195640  14.9545920  91.9899550 147.9246840   5.4044710
  91.3475710 147.2702460   5.6788430  91.6030210 148.3301930   4.6285380
  87.5686030 145.2532270   9.2516400  87.9209850 144.6560400   8.5917770
  86.6848360 144.9276500   9.4224650  83.6549310 146.0129960   6.6586810
  84.3420440 146.5599170   7.0394400  82.8681730 146.5570690   6.6936420
  75.7941710 141.6302780   2.1503890  76.6636560 141.9127580   2.4339810
  75.3032030 142.4438650   2.0352700  82.9576520 143.0175990   6.2712170
  83.4139300 143.8281240   6.4972360  82.6064730 142.6999130   7.1030660
  85.2609130 148.5282330  13.5004470  85.9051350 148.7341710  14.1777890
  85.6238570 147.7670730  13.0475320  78.8588300 133.3613640   6.7434690
  78.7302930 133.3531540   7.6919610  78.0350320 133.6996730   6.3925700
  86.5341210 146.5314680  12.2181920  87.1763440 145.8307840  12.3314090
  87.0590560 147.3113120  12.0378810  88.3078830 147.3309580  15.4217980
  88.6435070 147.9176270  16.0995900  87.3879170 147.2002290  15.6515770
  76.1612960 150.8430160   2.7165520  76.5210600 151.4419500   2.0622790
  76.0205300 151.3890050   3.4900550  75.8582230 135.1204760  16.2041390
  75.1440750 135.3201680  16.8094000  76.2777270 134.3444330  16.5756190
  89.9613180 144.7335240   3.6035220  89.6734880 145.1947930   4.3913100
  90.7565350 144.2733010   3.8719440  76.1454820 149.1085020  17.1907920
  76.2545940 148.1679760  17.0503310  75.4935380 149.3739770  16.5421650
  84.1367410 147.3800910  18.5906040  83.8164280 146.6610150  19.1351730
  83.4625770 148.0555980  18.6642100  82.1781580 148.2261360   3.5339190
  82.1691680 148.9591050   2.9183700  81.2579940 147.9792940   3.6266150
  77.7788220 143.4476250   4.2785950  77.1716170 144.1875150   4.2881250
  78.2537570 143.5375610   3.4524150  87.3521010 137.6127070  13.9542840
  87.7201830 136.7922280  14.2822410  86.4919210 137.6728960  14.3698490
  90.7183040 136.5684010   4.7630400  90.0896200 136.6729680   4.0488630
  90.2234960 136.7880790   5.5524280  82.6867070 138.8469960   6.1788280
  81.9783220 139.3156300   6.6201890  82.9711550 138.1891970   6.8133470
  84.3123000 140.2666660  14.1780810  84.8108250 140.7412480  14.8432660
  84.4545950 139.3430180  14.3850840  86.7182500 135.5720620   7.6184070
  86.5950280 135.5906750   6.6693580  87.6667060 135.6199560   7.7382470
  83.8059290 150.8075920   6.8912050  84.0600790 150.7697310   5.9691420
  82.8571770 150.6809250   6.8840300  80.8902090 137.1555040   3.5538990
  81.7392620 137.5925190   3.4879180  80.5233360 137.4675300   4.3811050
  91.5189860 136.4834620  15.0209200  91.0163460 137.2240020  15.3603010
  92.3346520 136.8718620  14.7045990  89.8111870 141.7267800   8.4670560
  88.8702010 141.7418030   8.6418250  90.1255940 140.9403760   8.9130860
  78.4840270 140.8412470   2.7107410  78.5643860 139.8939980   2.8224810
  79.3760020 141.1719350   2.8168070  91.8137450 148.8976650  10.1424820
  91.9384870 149.7207820  10.6148630  92.6803010 148.6867380   9.7948970
  76.1700460 147.0581430   5.6883460  75.2440240 147.3002570   5.6788870
  76.6356890 147.8855690   5.5668210  78.2913260 150.1753930  19.0027530
  79.0925990 150.4965980  19.4162930  77.7765080 149.8149510  19.7247440
  87.1277890 146.2833800  18.9502940  86.5216050 146.3065400  18.2098690
  86.8232000 145.5516840  19.4870190  88.5578260 150.0114090  17.5612350
  89.5100010 149.9272110  17.5112590  88.4106480 150.6755800  18.2346140
  91.4487460 149.3908300   3.0604260  91.1628970 148.9773440   2.2458440
  91.2507010 150.3196010   2.9404780  76.0111070 142.6627390  17.9463580
  76.5150090 142.0834670  18.5179810  75.2718490 142.9467620  18.4839950
  83.0649010 144.0698380  17.4799100  82.2994680 144.6383380  17.3953770
  83.2464970 143.7774590  16.5867330  86.1537420 144.4461610   2.1051860
  85.6047520 144.8930910   2.7494600  86.7756680 143.9410860   2.6289530
  90.2072360 145.8003710  18.0374120  90.9481830 146.1379470  17.5341580
  89.4445040 145.9695770  17.4843890  78.0434150 140.8056980  18.8413650
  78.0839490 140.5070850  19.7498880  78.8979650 141.2064590  18.6821170
  81.8212540 143.4052530   4.0017160  82.2428960 143.2392400   4.8448550
  81.9463380 142.5952760   3.5072300  79.9839960 139.3849080  16.8088140
  79.4536420 138.8940030  16.1811480  80.6528030 139.8133280  16.2746070
  88.8818020 143.8518540  16.5729330  89.2959040 144.0063620  17.4219750
  87.9469020 143.9773760  16.7355110  89.3540190 141.1914700  18.5768480
  89.9360960 140.4367020  18.4888960  89.5301960 141.7222140  17.7999960
  80.4712260 136.3511450  16.8885430  80.3769130 135.7332200  16.1636300
  79.8909650 137.0777740  16.6615340  83.2373700 134.9084690  13.9212820
  82.7891000 134.9308950  13.0758370  82.6038900 134.5103710  14.5183120
  83.6433250 143.8039020  14.5425260  84.0621360 144.6471750  14.3701500
  82.7241880 143.9411060  14.3132040  85.9797150 141.5355200  15.9263100
  86.0993360 140.9396340  16.6657940  86.8391150 141.5724890  15.5064400
  88.3185050 142.0892390  14.5025610  87.7920270 142.6135010  13.8990750
  88.6616390 142.7219780  15.1335340  81.4940670 150.1092030  15.6582990
  80.9561760 150.8338090  15.3391690  81.7474630 149.6322370  14.8680330
  82.7465920 138.0776550  17.1838920  83.3365610 137.7692400  17.8716740
  81.9286160 137.6056300  17.3398820  87.5659350 137.6942360  17.4171940
  86.8774870 137.0323900  17.3521930  88.2865370 137.2480630  17.8620400
  88.1959750 134.2893990   3.4762200  88.4762040 133.4461890   3.8321620
  87.4225480 134.5217100   3.9900950  84.8988210 150.5101750   3.5396000
  85.7939000 150.8486720   3.5614760  84.9305840 149.7881160   2.9120280
  78.5384370 145.8828800   1.7683000  78.9759240 146.4258470   2.4240580
  79.0232100 145.0575750   1.7779340  75.7530170 148.6717830   9.2203260
  76.0833180 147.8038890   8.9881900  76.1821170 148.8776350  10.0508220
  80.3492090 147.0026840   6.8805230  80.0487630 146.8791810   7.7809140
  80.2429580 146.1435430   6.4720960  76.2420380 149.5388420  11.9584890
  75.8051370 149.7189220  12.7909040  76.8098060 150.2963040  11.8166610
  91.8782560 149.0405420  16.2462200  91.2784550 149.0997980  15.5026120
  92.0076460 148.1010400  16.3759050  92.5740470 143.5270720   4.0866110
  93.3359380 144.0967370   4.1925800  92.5894840 142.9597920   4.8574420
  76.0744810 142.0508650   8.3173770  75.4193650 141.7820290   7.6733470
  76.9122760 141.9413130   7.8675750  93.5800440 144.3820820   8.9308040
  93.9509270 143.5988140   8.5244010  94.2202370 145.0709920   8.7525340
  90.5634200 145.7657400  14.3438360  89.7494040 146.1954560  14.6064150
  90.9708400 146.3775810  13.7307410  89.0235250 136.8449940   2.5392260
  89.4420130 136.6580920   1.6988920  88.7171310 135.9928990   2.8495190
  92.5224980 141.7574080   6.2368060  92.1468580 140.9902010   5.8049350
  91.7928100 142.1396780   6.7242990  77.1120740 142.4361220  12.8577110
  77.4793780 142.3488620  13.7373130  76.5431560 141.6727770  12.7583970
  91.9124600 140.9045600  15.8707580  91.6810690 140.6758350  14.9705530
  92.1729150 141.8245150  15.8252470  76.6636740 139.3470310  16.7635530
  75.7692790 139.3137070  17.1029240  77.2034290 139.5457100  17.5286780
  90.3512670 136.1302030  18.6487280  91.2282850 136.1385430  19.0321280
  90.3633510 135.3932870  18.0379630  75.2882890 139.2607580   4.2599100
  74.3846970 139.5237780   4.0850760  75.7723510 139.5318750   3.4799060
  91.7975940 139.9831570   9.5375300  92.3213420 139.4894220   8.9065470
  92.3835360 140.1181930  10.2822870  91.9765660 140.0671440  13.0594850
  91.0268370 140.0334980  13.1739840  92.1578670 140.9771550  12.8244620
  91.2875910 139.2404920   5.4767710  91.7835030 139.0075790   6.2616590
  91.0891980 138.4016760   5.0605350  77.1676450 133.6218640  11.1118750
  77.8152640 133.0716020  10.6713910  77.5878290 133.8761790  11.9334560
  92.7163070 137.8765870   8.0105390  92.6062350 137.7221910   8.9487660
  93.4770660 137.3486810   7.7680800  91.0628790 133.8160000  14.4688390
  91.7001010 134.4294140  14.8347580  91.2103680 133.8520660  13.5237620
  93.6791830 136.4784450   3.8768240  92.8843330 136.4129570   4.4061150
  93.8835110 137.4135090   3.8653590  90.6210250 150.5176000   7.8706630
  91.2169320 150.1960570   7.1941050  90.8788400 150.0447820   8.6619900
  76.9208450 133.7774310  13.8544070  76.5723270 134.2338130  14.6202250
  76.5896150 132.8831440  13.9366500  78.5272820 146.9493910  18.0197260
  78.4842450 146.5786820  18.9011720  78.6583830 147.8871480  18.1599080
  82.2278850 148.5053500  13.6206980  81.9870210 148.7728060  12.7337500
  83.1681490 148.6759230  13.6757840  84.4333270 134.9686190  17.3763490
  84.3722160 135.5608020  18.1258900  85.3733650 134.8612150  17.2313750
  87.0707830 134.6256250  17.0155780  87.6848240 134.9435540  16.3536860
  87.6157390 134.1404840  17.6351640  93.4883010 150.5247880  14.4217620
  92.9941290 150.9216750  13.7044750  92.8796300 149.8997090  14.8154900
  77.5929090 133.3050510  17.1294840  78.1412080 133.1238560  16.3660950
  77.6584400 132.5144620  17.6651150  78.3660850 149.8956160  15.1395040
  77.7721170 149.7640860  15.8785080  78.3584690 149.0594300  14.6737140
  87.8115870 133.1888390  13.3425070  86.9375710 133.5223500  13.1398000
  87.7026620 132.7161570  14.1676940  88.7187850 135.3959260  14.7266790
  88.3901210 134.5811020  14.3468520  89.6670150 135.3529070  14.6032480
  77.9973080 147.2614540  14.0903080  77.2707140 146.6419830  14.0229030
  78.0582230 147.6555150  13.2201160  81.6018180 149.4759540  10.8752490
  82.1183200 148.8646900  10.3500750  82.2515560 149.9788320  11.3663500
  84.3413680 150.3668030  11.7021470  84.6291490 150.1122330  10.8254480
  84.8536900 149.8145390  12.2927040  85.5590690 134.1058230  12.2817980
  84.7762480 134.5803730  12.5614740  85.2653620 133.2013060  12.1731160
  90.1111760 134.8081330  10.3267070  90.5519850 134.7526430   9.4788670
  89.8419350 135.7239340  10.3977250  91.9750330 134.4396570   8.3375890
  91.9138730 133.4957790   8.1906910  92.7542360 134.5476660   8.8829350
  76.2803080 150.5788930   7.2999840  76.1125120 149.9459610   7.9981730
  75.4137590 150.7848330   6.9494030  76.9031100 134.4105710   4.8031700
  77.6610460 134.5234590   4.2295730  76.4408270 135.2474910   4.7575130
  83.4444910 136.5244980   7.7934010  82.6319420 136.1501870   7.4529890
  83.9486550 135.7690060   8.0955200  87.9469890 133.1887430   9.0317080
  88.5499260 133.7607640   9.5065600  87.2062880 133.7526870   8.8090980
  91.0904490 133.5908990   4.3057360  91.2855120 134.4892440   4.5724790
  90.3034360 133.3596070   4.7990310  77.8865780 149.2722160   4.7449980
  77.3613400 149.6530190   4.0411940  77.8110360 149.8972930   5.4659690
  79.2756250 134.9369760   3.3433670  79.8049010 134.1499560   3.2141620
  79.9084570 135.6160950   3.5769200  81.4694090 134.6744900   6.3979060
  80.8396830 133.9732210   6.5649190  80.9299230 135.4349030   6.1812220
  92.6431100 150.8309700   6.0663920  92.8183290 150.1447440   5.4224840
  91.9452670 151.3556750   5.6740590  81.5949650 133.9528880  18.8331550
  81.3133920 134.4562480  18.0692370  81.9769350 133.1550630  18.4673680
  80.4858750 151.2204540   3.6199230  81.2177570 150.9363820   3.0723120
  80.7452420 150.9817820   4.5098610  79.6473540 147.3369270   3.6245560
  79.0182420 147.8054370   4.1731390  79.7621370 146.4918490   4.0591750
  88.1965110 133.3682460  19.4112020  88.0830560 133.6877070  20.3063540
  89.0134850 133.7694970  19.1149300  90.9763600 150.5153990  18.8930710
  91.7688920 150.0203220  18.6856670  91.2696750 151.1944130  19.5006320
  87.1023260 122.6131440 139.9694680  87.0217310 121.6986050 139.6986390
  86.6887680 123.1098510 139.2634390  85.2341300 124.3910460 141.8503950
  84.4583400 123.9110900 142.1402520  85.8854230 123.7116110 141.6760110
  79.2507130 124.7030270 142.7279710  78.4192010 124.4478980 143.1276220
  79.8588110 124.7741040 143.4637630  89.2548730 128.7970650 140.6303080
  88.7930260 128.0257890 140.9590250  90.0674280 128.8236720 141.1355530
  79.2308390 128.7370360 142.9237730  79.5336430 127.8468100 142.7447950
  79.9751980 129.2940580 142.6959980  77.6599080 119.6632160 136.5122100
  76.7715780 120.0048130 136.4101980  77.9440270 119.4632480 135.6202930
  75.6232090 122.2637810 142.3961800  76.1948200 121.4960010 142.3965440
  75.6233630 122.5626570 141.4868410  85.4812040 131.0828660 140.2507070
  84.8623480 131.5386160 139.6801510  86.3363820 131.2380120 139.8496770
  84.6750290 127.0667650 141.8574110  84.6058570 126.1257590 141.6963240
  85.4370150 127.1569060 142.4296680  76.8656960 117.6722170 144.1830730
  76.6859800 116.7747920 144.4633490  76.4637040 118.2194040 144.8577680
  85.7055460 119.8738030 142.0843040  86.0820280 119.0009910 141.9716710
  85.6074970 120.2096730 141.1933480  79.8360470 118.2463660 137.5460480
  79.9427220 119.1467390 137.8529240  78.9252830 118.1981630 137.2555130
  89.4879580 117.3688470 139.0171380  90.3089200 116.8785040 139.0596860
  89.5213660 117.9586130 139.7703220  77.4843630 120.1682670 142.7913070
  78.1653740 120.4321040 143.4100470  77.1691680 119.3283540 143.1251080
  81.6768200 121.2150030 141.8785660  82.1846420 121.7131000 142.5190680
  82.2081440 120.4385230 141.7025020  93.7779130 119.3855220 145.5815010
  93.0731300 119.7736930 145.0630120  94.0437050 120.0805510 146.1835940
  79.9604300 115.8548590 146.1449080  79.9622740 116.3720980 145.3394980
  79.1308610 115.3778770 146.1219010  86.3475390 125.9667900 137.6438980
  85.7292660 126.4317350 137.0801700  86.8598640 126.6595380 138.0608490
  81.2107150 125.4943770 144.3222580  80.8776530 126.1212690 144.9643650
  81.3873830 126.0205650 143.5424250  89.7241060 119.3088850 141.7898920
  89.0196630 119.5973740 142.3702030  90.0853220 120.1188960 141.4298480
  79.6419630 117.5658550 144.1519530  79.9836440 118.4100600 143.8573400
  78.7035440 117.7142290 144.2684870  80.4226250 127.4624570 146.1371760
  81.0400250 128.1375650 145.8556210  79.5619370 127.8712550 146.0459260
  75.7158590 126.6524430 135.0178610  75.3386570 127.1411530 134.2863510
  75.9731660 127.3249710 135.6485140  91.3403840 128.9263980 144.0526400
  90.6567360 129.5963090 144.0443070  91.8798130 129.1244630 143.2871260
  92.7927980 118.7543640 142.1808130  91.8452890 118.7882620 142.3123560
  93.1177970 119.5682590 142.5657490  83.3247520 115.0540820 140.4764120
  83.6322500 114.4987710 139.7599620  82.3948220 115.1885280 140.2937110
  88.8762580 130.7708110 142.7671580  88.8889740 130.3670400 141.8993840
  88.3237800 131.5455400 142.6633010  90.1708000 127.4924330 137.8561750
  90.0604330 126.5498660 137.9811170  90.1676250 127.8539970 138.7424510
  88.2748020 125.6737950 144.0954190  88.6916810 125.4598060 143.2607650
  88.9987840 125.9310740 144.6662810  85.7128280 123.1189650 137.2124240
  84.7857560 123.0527030 137.4412710  85.8653100 124.0569780 137.0979480
  85.6997360 119.3906650 134.2091400  84.7601030 119.5520610 134.2943860
  86.0180620 120.1092330 133.6627390  92.2210120 124.0725170 144.1870430
  91.3928750 124.1418260 143.7120560  92.8160600 124.6579480 143.7186260
  89.7425570 124.6809950 137.7159490  89.1237990 124.3429500 137.0685790
  89.7250020 124.0369710 138.4238680  89.1852130 120.8594490 145.1325300
  88.7723310 121.6848200 145.3865290  88.4528080 120.2739530 144.9401660
  81.3184920 123.6454390 139.9943970  80.9141920 122.9331640 139.4989870
  81.4048040 123.3007630 140.8832010  81.7866620 127.3321950 142.1583180
  81.4894910 126.7267420 141.4790960  82.7366440 127.3699260 142.0472540
  80.0313540 120.4197600 143.7743010  80.5828130 120.5292940 142.9996260
  80.5457050 120.7935200 144.4898240  89.8752230 130.9053820 145.8206280
  89.3982790 131.7126010 145.6278890  89.1914020 130.2532150 145.9732490
  80.8785050 127.0703640 148.8090980  79.9813580 127.2943610 149.0564380
  80.9037920 127.1938580 147.8602380  87.9190270 123.9196760 134.7232240
  88.3583550 123.0819190 134.5770060  88.6318690 124.5526160 134.8096380
  79.7056270 123.9416960 147.3848350  79.5664040 124.8139760 147.7535750
  78.8237630 123.5989770 147.2396290  86.0285650 128.8592830 138.6913480
  86.4681560 129.6017160 138.2768870  85.9672540 129.1019400 139.6152440
  81.5036620 129.8838660 149.5933500  81.4752050 130.2881610 148.7261930
  81.3401590 128.9549020 149.4305100  91.5007410 115.1739570 133.0373280
  91.1880070 115.2666400 133.9372350  92.2619880 115.7520600 132.9870710
  78.0189550 122.5399370 137.4950620  77.8987150 123.2661460 136.8831890
  77.7090440 121.7702280 137.0178530  75.6574920 125.7114510 143.3019260
  75.7355340 125.8463280 142.3574980  76.2716600 125.0030400 143.4947380
  76.9022550 127.4114700 139.7125440  76.4950630 127.5529290 138.8579040
  77.7935560 127.1274860 139.5096650  92.8584690 127.8578610 148.0497680
  92.9847750 127.6190490 147.1314860  92.9006070 127.0263150 148.5219760
  86.7201430 131.5606610 146.6192490  87.2346100 131.4714620 147.4214920
  85.8770510 131.9066310 146.9120400  88.6955830 131.8461950 136.0476490
  88.5356970 131.5564890 136.9458320  88.5302540 131.0702080 135.5121720
  81.1744210 131.6260480 137.8248110  80.9986690 130.7096020 137.6115910
  80.3199950 131.9847770 138.0645910  88.3981960 129.3549510 134.6074490
  87.7047120 129.3526800 133.9476770  89.1404820 128.9308830 134.1768660
  87.9631890 130.9812220 138.6822980  88.4188840 130.2001600 138.9961600
  88.3024410 131.6919040 139.2264160  92.7108700 119.9111070 149.0147420
  92.0952970 120.4190740 148.4862880  92.3905120 119.0109400 148.9573360
  75.7134440 126.7528680 145.8413720  75.8765480 126.2834040 145.0233090
  76.1786890 126.2452240 146.5062560  80.4853210 115.8834440 140.8774290
  80.0421360 116.6643980 140.5458810  81.0438200 116.2064330 141.5845230
  84.7723020 118.7502960 146.4809610  84.3102390 118.9585980 147.2929550
  84.3701130 117.9362310 146.1780280  89.7727530 119.9711910 147.6106270
  88.9221120 119.6717660 147.9315340  89.6129320 120.2153920 146.6990090
  86.8677240 121.4713660 149.7105060  87.1930650 120.6377410 149.3707290
  87.6557570 121.9942180 149.8583390  83.6012030 115.5045140 135.7580120
  82.9766210 115.5005010 136.4833430  83.5142150 114.6376100 135.3616090
  82.5229110 116.4281770 142.7363890  82.8201440 117.3344600 142.6555910
  83.0714670 115.9400550 142.1223460  80.2767430 121.0068010 138.6055540
  80.0508350 120.7905180 139.5102160  79.4959960 121.4396470 138.2601510
  87.5065190 121.0131380 137.2046190  86.9074080 121.7367180 137.0209810
  88.0544800 120.9508160 136.4222640  82.7166640 121.9053590 149.2715810
  82.6210240 120.9648320 149.1216210  83.5598620 122.1268660 148.8763880
  86.1130060 119.6494920 139.2349470  86.5059630 119.9667120 138.4218160
  86.4746910 118.7706800 139.3493990  77.8477180 118.3167260 147.4249590
  77.4540570 119.1642470 147.6322370  77.1595580 117.6793630 147.6158230
  75.1494230 116.2395720 141.4579670  74.8607280 116.8098580 142.1704650
  75.8939990 115.7600170 141.8210900  75.3364460 120.1815840 132.6682390
  75.2539130 121.1246600 132.8097380  74.9847520 120.0390750 131.7894740
  86.6985200 122.2400670 143.3300250  85.9666320 122.7487480 143.6790350
  86.3009540 121.4230650 143.0289030  83.1362590 118.9154870 141.7352740
  83.1398650 118.4744820 140.8857280  84.0313710 119.2372200 141.8424560
  78.9864970 118.7981360 140.6946950  78.6465020 119.2756590 141.4514000
  78.2242290 118.3446480 140.3348050  83.1982740 119.9166950 134.7259500
  83.3195560 119.8753430 135.6745320  82.8131250 120.7791100 134.5706230
  87.1611110 117.6934350 142.7423190  87.1783850 118.1443000 143.5865040
  86.9126690 116.7939990 142.9556630  82.2104240 122.2268090 134.1242800
  81.6421140 121.7786340 133.4978710  82.9193240 122.5860870 133.5907950
  90.5881860 115.1066530 148.5809570  90.9127630 114.3756190 149.1067550
  90.6238370 114.7880170 147.6790560  77.2873420 126.1280110 148.0009530
  76.9028210 125.4873780 148.5992490  77.5985610 126.8316230 148.5704260
  83.4370560 122.9756650 143.4818150  83.8040690 122.5015220 144.2279490
  83.2475620 123.8498220 143.8226490  76.3011050 117.7200340 139.6111620
  76.0157970 117.3556010 140.4490240  76.2389910 116.9880800 138.9974760
  81.2269930 122.0165290 145.8002360  80.9227000 122.8957270 146.0252720
  82.1816390 122.0765080 145.8359800  79.7551720 126.2226280 136.3969210
  78.9813980 125.6823900 136.2367930  80.4846350 125.7032890 136.0586970
  90.5139700 125.2191640 142.1895600  91.2338820 125.7146930 141.7991710
  90.3121520 124.5409530 141.5449470  85.9749640 116.6129600 136.3324990
  85.1614250 116.1142770 136.2570300  85.7811590 117.4527850 135.9161340
  85.8958500 125.2900700 148.0764600  85.8295810 124.3696370 147.8222190
  85.2663640 125.3876140 148.7909240  88.6898030 120.9849250 134.6287150
  89.5777650 121.2966480 134.4538490  88.6603120 120.1121500 134.2367730
  79.7989120 125.8906660 140.0348020  80.3167790 125.0874920 139.9804910
  79.3473140 125.8285800 140.8764850  84.6858620 127.1572940 135.3075320
  85.0274320 127.9015170 134.8118640  83.8571330 127.4704060 135.6700150
  77.2833660 122.8568030 146.9473720  76.9248600 123.5221880 147.5347060
  76.9888220 122.0251580 147.3186340  80.4846780 123.3152270 149.8313270
  80.1846920 123.4609450 148.9341090  81.2558020 122.7557560 149.7386660
  85.8275230 128.1121270 147.8268400  85.8419770 127.1802230 147.6087310
  85.1200330 128.1981030 148.4658170  90.9612300 122.2961090 134.0967010
  90.8776020 122.7275310 133.2463450  91.6806490 122.7559440 134.5293830
  92.0386440 124.7528610 147.1736980  91.3134630 125.3457390 146.9766370
  92.5661900 124.7452150 146.3750350  91.9899550 129.1503350 136.8249140
  91.3475710 128.4958970 137.0992860  91.6030210 129.5558440 136.0489810
  87.5686030 126.4788780 140.6720830  87.9209850 125.8816910 140.0122200
  86.6848360 126.1533010 140.8429080  83.6549310 127.2386470 138.0791240
  84.3420440 127.7855680 138.4598830  82.8681730 127.7827200 138.1140850
  75.7941710 122.8559290 133.5708320  76.6636560 123.1384090 133.8544240
  75.3032030 123.6695160 133.4557130  82.9576520 124.2432500 137.6916600
  83.4139300 125.0537750 137.9176790  82.6064730 123.9255640 138.5235090
  85.2609130 129.7538840 144.9208900  85.9051350 129.9598220 145.5982320
  85.6238570 128.9927240 144.4679750  78.8588300 114.5870150 138.1639120
  78.7302930 114.5788050 139.1124040  78.0350320 114.9253240 137.8130130
  86.5341210 127.7571190 143.6386350  87.1763440 127.0564350 143.7518520
  87.0590560 128.5369630 143.4583240  90.3796930 128.0419810 133.3625490
  90.1534510 127.3250250 133.9550130  89.9893130 127.7932250 132.5247240
  88.3078830 128.5566090 146.8422410  88.6435070 129.1432780 147.5200330
  87.3879170 128.4258800 147.0720200  76.1612960 132.0686670 134.1369950
  76.5210600 132.6676010 133.4827220  76.0205300 132.6146560 134.9104980
  75.8582230 116.3461270 147.6245820  75.1440750 116.5458190 148.2298430
  76.2777270 115.5700840 147.9960620  89.9613180 125.9591750 135.0239650
  89.6734880 126.4204440 135.8117530  90.7565350 125.4989520 135.2923870
  76.1454820 130.3341530 148.6112350  76.2545940 129.3936270 148.4707740
  75.4935380 130.5996280 147.9626080  82.1781580 129.4517870 134.9543620
  82.1691680 130.1847560 134.3388130  81.2579940 129.2049450 135.0470580
  77.7788220 124.6732760 135.6990380  77.1716170 125.4131660 135.7085680
  78.2537570 124.7632120 134.8728580  87.3521010 118.8383580 145.3747270
  87.7201830 118.0178790 145.7026840  86.4919210 118.8985470 145.7902920
  90.7183040 117.7940520 136.1834830  90.0896200 117.8986190 135.4693060
  90.2234960 118.0137300 136.9728710  85.1641180 129.5146110 133.6168810
  85.2653160 129.3110100 132.6870790  84.2642920 129.2604390 133.8216590
  82.6867070 120.0726470 137.5992710  81.9783220 120.5412810 138.0406320
  82.9711550 119.4148480 138.2337900  84.3123000 121.4923170 145.5985240
  84.8108250 121.9668990 146.2637090  84.4545950 120.5686690 145.8055270
  86.7182500 116.7977130 139.0388500  86.5950280 116.8163260 138.0898010
  87.6667060 116.8456070 139.1586900  83.8059290 132.0332430 138.3116480
  84.0600790 131.9953820 137.3895850  82.8571770 131.9065760 138.3044730
  80.8902090 118.3811550 134.9743420  81.7392620 118.8181700 134.9083610
  80.5233360 118.6931810 135.8015480  91.5189860 117.7091130 146.4413630
  91.0163460 118.4496530 146.7807440  92.3346520 118.0975130 146.1250420
  89.8111870 122.9524310 139.8874990  88.8702010 122.9674540 140.0622680
  90.1255940 122.1660270 140.3335290  79.7893510 124.6343910 133.4478950
  80.5556780 124.5225270 134.0104380  79.8668200 123.9381880 132.7955720
  78.4840270 122.0668980 134.1311840  78.5643860 121.1196490 134.2429240
  79.3760020 122.3975860 134.2372500  91.8137450 130.1233160 141.5629250
  91.9384870 130.9464330 142.0353060  92.6803010 129.9123890 141.2153400
  79.2854980 132.2164370 141.2346380  80.0217460 131.6679830 141.5054950
  79.6695900 133.0820380 141.0952370  76.1700460 128.2837940 137.1087890
  75.2440240 128.5259080 137.0993300  76.6356890 129.1112200 136.9872640
  82.3957290 131.3894680 133.0571950  83.1885900 131.6783510 132.6053740
  81.8761640 130.9586850 132.3784430  88.5578260 131.2370600 148.9816780
  89.5100010 131.1528620 148.9317020  88.4106480 131.9012310 149.6550570
  91.4487460 130.6164810 134.4808690  91.1628970 130.2029950 133.6662870
  91.2507010 131.5452520 134.3609210  76.0111070 123.8883900 149.3668010
  76.5150090 123.3091180 149.9384240  75.2718490 124.1724130 149.9044380
  82.9134690 126.6098090 132.9214300  82.8085330 125.9950440 133.6475680
  82.7458910 126.0863980 132.1377310  83.0649010 125.2954890 148.9003530
  82.2994680 125.8639890 148.8158200  83.2464970 125.0031100 148.0071760
  86.1537420 125.6718120 133.5256290  85.6047520 126.1187420 134.1699030
  86.7756680 125.1667370 134.0493960  90.2072360 127.0260220 149.4578550
  90.9481830 127.3635980 148.9546010  89.4445040 127.1952280 148.9048320
  81.8212540 124.6309040 135.4221590  82.2428960 124.4648910 136.2652980
  81.9463380 123.8209270 134.9276730  79.9839960 120.6105590 148.2292570
  79.4536420 120.1196540 147.6015910  80.6528030 121.0389790 147.6950500
  84.3340180 123.6546650 132.6698690  84.8545840 122.9395670 132.3039840
  84.9808580 124.2932520 132.9699200  88.8818020 125.0775050 147.9933760
  89.2959040 125.2320130 148.8424180  87.9469020 125.2030270 148.1559540
  89.3540190 122.4171210 149.9972910  89.9360960 121.6623530 149.9093390
  89.5301960 122.9478650 149.2204390  80.4712260 117.5767960 148.3089860
  80.3769130 116.9588710 147.5840730  79.8909650 118.3034250 148.0819770
  83.2373700 116.1341200 145.3417250  82.7891000 116.1565460 144.4962800
  82.6038900 115.7360220 145.9387550  83.6433250 125.0295530 145.9629690
  84.0621360 125.8728260 145.7905930  82.7241880 125.1667570 145.7336470
  85.9797150 122.7611710 147.3467530  86.0993360 122.1652850 148.0862370
  86.8391150 122.7981400 146.9268830  88.3185050 123.3148900 145.9230040
  87.7920270 123.8391520 145.3195180  88.6616390 123.9476290 146.5539770
  80.7171440 120.7042270 132.3679750  80.5160500 119.8409630 132.7293090
  80.5463490 120.6175630 131.4301350  81.4940670 131.3348540 147.0787420
  80.9561760 132.0594600 146.7596120  81.7474630 130.8578880 146.2884760
  82.7465920 119.3033060 148.6043350  83.3365610 118.9948910 149.2921170
  81.9286160 118.8312810 148.7603250  87.5659350 118.9198870 148.8376370
  86.8774870 118.2580410 148.7726360  88.2865370 118.4737140 149.2824830
  88.1959750 115.5150500 134.8966630  88.4762040 114.6718400 135.2526050
  87.4225480 115.7473610 135.4105380  79.5154240 117.8042890 132.3557630
  79.8180140 117.8110320 131.4476780  80.2548830 117.4540750 132.8525290
  84.3502880 132.5699750 147.3374070  84.2761580 133.4734890 147.6446440
  83.4481720 132.2511650 147.3096140  82.7339170 116.7477510 133.3413830
  82.3861170 116.0701500 132.7616280  82.9351940 116.2867020 134.1557220
  84.8988210 131.7358260 134.9600430  85.7939000 132.0743230 134.9819190
  84.9305840 131.0137670 134.3324710  78.5384370 127.1085310 133.1887430
  78.9759240 127.6514980 133.8445010  79.0232100 126.2832260 133.1983770
  75.7530170 129.8974340 140.6407690  76.0833180 129.0295400 140.4086330
  76.1821170 130.1032860 141.4712650  80.3492090 128.2283350 138.3009660
  80.0487630 128.1048320 139.2013570  80.2429580 127.3691940 137.8925390
  76.2420380 130.7644930 143.3789320  75.8051370 130.9445730 144.2113470
  76.8098060 131.5219550 143.2371040  91.8782560 130.2661930 147.6666630
  91.2784550 130.3254490 146.9230550  92.0076460 129.3266910 147.7963480
  93.1184010 128.0079750 133.0036340  92.2876970 128.0756400 133.4743570
  93.2955840 128.8983870 132.7003200  92.5740470 124.7527230 135.5070540
  93.3359380 125.3223880 135.6130230  92.5894840 124.1854430 136.2778850
  76.0744810 123.2765160 139.7378200  75.4193650 123.0076800 139.0937900
  76.9122760 123.1669640 139.2880180  93.5800440 125.6077330 140.3512470
  93.9509270 124.8244650 139.9448440  94.2202370 126.2966430 140.1729770
  90.5634200 126.9913910 145.7642790  89.7494040 127.4211070 146.0268580
  90.9708400 127.6032320 145.1511840  92.6259640 125.0461600 132.6643060
  92.9008480 125.9540480 132.5362280  92.4370380 124.9824130 133.6005050
  89.0235250 118.0706450 133.9596690  89.4420130 117.8837430 133.1193350
  88.7171310 117.2185500 134.2699620  92.5224980 122.9830590 137.6572490
  92.1468580 122.2158520 137.2253780  91.7928100 123.3653290 138.1447420
  77.1120740 123.6617730 144.2781540  77.4793780 123.5745130 145.1577560
  76.5431560 122.8984280 144.1788400  91.9124600 122.1302110 147.2912010
  91.6810690 121.9014860 146.3909960  92.1729150 123.0501660 147.2456900
  76.6636740 120.5726820 148.1839960  75.7692790 120.5393580 148.5233670
  77.2034290 120.7713610 148.9491210  75.2882890 120.4864090 135.6803530
  74.3846970 120.7494290 135.5055190  75.7723510 120.7575260 134.9003490
  91.7975940 121.2088080 140.9579730  92.3213420 120.7150730 140.3269900
  92.3835360 121.3438440 141.7027300  91.9765660 121.2927950 144.4799280
  91.0268370 121.2591490 144.5944270  92.1578670 122.2028060 144.2449050
  77.8310100 119.5429630 133.5897910  78.5401800 119.1212850 133.1045190
  77.1150040 119.6104860 132.9581260  77.4784260 115.5968960 132.6300560
  78.2012390 116.1377900 132.9481780  77.7508780 115.3232380 131.7542100
  91.2875910 120.4661430 136.8972140  91.7835030 120.2332300 137.6821020
  91.0891980 119.6273270 136.4809780  77.1676450 114.8475150 142.5323180
  77.8152640 114.2972530 142.0918340  77.5878290 115.1018300 143.3538990
  92.7163070 119.1022380 139.4309820  92.6062350 118.9478420 140.3692090
  93.4770660 118.5743320 139.1885230  91.0628790 115.0416510 145.8892820
  91.7001010 115.6550650 146.2552010  91.2103680 115.0777170 144.9442050
  93.6053340 116.9330300 132.6715960  94.5302650 116.8011480 132.4634250
  93.5829130 117.0123120 133.6252410  93.6791830 117.7040960 135.2972670
  92.8843330 117.6386080 135.8265580  93.8835110 118.6391600 135.2858020
  90.6210250 131.7432510 139.2911060  91.2169320 131.4217080 138.6145480
  90.8788400 131.2704330 140.0824330  76.9208450 115.0030820 145.2748500
  76.5723270 115.4594640 146.0406680  76.5896150 114.1087950 145.3570930
  82.2278850 129.7310010 145.0411410  81.9870210 129.9984570 144.1541930
  83.1681490 129.9015740 145.0962270  84.4333270 116.1942700 148.7967920
  84.3722160 116.7864530 149.5463330  85.3733650 116.0868660 148.6518180
  87.0707830 115.8512760 148.4360210  87.6848240 116.1692050 147.7741290
  87.6157390 115.3661350 149.0556070  93.4883010 131.7504390 145.8422050
  92.9941290 132.1473260 145.1249180  92.8796300 131.1253600 146.2359330
  77.5929090 114.5307020 148.5499270  78.1412080 114.3495070 147.7865380
  77.6584400 113.7401130 149.0855580  78.3660850 131.1212670 146.5599470
  77.7721170 130.9897370 147.2989510  78.3584690 130.2850810 146.0941570
  87.8115870 114.4144900 144.7629500  86.9375710 114.7480010 144.5602430
  87.7026620 113.9418080 145.5881370  88.7187850 116.6215770 146.1471220
  88.3901210 115.8067530 145.7672950  89.6670150 116.5785580 146.0236910
  91.1722460 132.3927810 143.1208790  90.7125430 133.1443620 142.7466810
  90.5434920 131.6734280 143.0623590  77.9973080 128.4871050 145.5107510
  77.2707140 127.8676340 145.4433460  78.0582230 128.8811660 144.6405590
  81.6018180 130.7016050 142.2956920  82.1183200 130.0903410 141.7705180
  82.2515560 131.2044830 142.7867930  84.3413680 131.5924540 143.1225900
  84.6291490 131.3378840 142.2458910  84.8536900 131.0401900 143.7131470
  85.5590690 115.3314740 143.7022410  84.7762480 115.8060240 143.9819170
  85.2653620 114.4269570 143.5935590  90.1111760 116.0337840 141.7471500
  90.5519850 115.9782940 140.8993100  89.8419350 116.9495850 141.8181680
  91.9750330 115.6653080 139.7580320  91.9138730 114.7214300 139.6111340
  92.7542360 115.7733170 140.3033780  76.2803080 131.8045440 138.7204270
  76.1125120 131.1716120 139.4186160  75.4137590 132.0104840 138.3698460
  76.9031100 115.6362220 136.2236130  77.6610460 115.7491100 135.6500160
  76.4408270 116.4731420 136.1779560  83.4444910 117.7501490 139.2138440
  82.6319420 117.3758380 138.8734320  83.9486550 116.9946570 139.5159630
  87.9469890 114.4143940 140.4521510  88.5499260 114.9864150 140.9270030
  87.2062880 114.9783380 140.2295410  91.0904490 114.8165500 135.7261790
  91.2855120 115.7148950 135.9929220  90.3034360 114.5852580 136.2194740
  77.8865780 130.4978670 136.1654410  77.3613400 130.8786700 135.4616370
  77.8110360 131.1229440 136.8864120  79.2756250 116.1626270 134.7638100
  79.8049010 115.3756070 134.6346050  79.9084570 116.8417460 134.9973630
  81.4694090 115.9001410 137.8183490  80.8396830 115.1988720 137.9853620
  80.9299230 116.6605540 137.6016650  92.6431100 132.0566210 137.4868350
  92.8183290 131.3703950 136.8429270  91.9452670 132.5813260 137.0945020
  80.4858750 132.4461050 135.0403660  81.2177570 132.1620330 134.4927550
  80.7452420 132.2074330 135.9303040  79.6473540 128.5625780 135.0449990
  79.0182420 129.0310880 135.5935820  79.7621370 127.7175000 135.4796180
  87.1023260 122.6131440 121.1951190  87.0217310 121.6986050 120.9242900
  86.6887680 123.1098510 120.4890900  85.2341300 124.3910460 123.0760460
  84.4583400 123.9110900 123.3659030  85.8854230 123.7116110 122.9016620
  79.2507130 124.7030270 123.9536220  78.4192010 124.4478980 124.3532730
  79.8588110 124.7741040 124.6894140  89.2548730 128.7970650 121.8559590
  88.7930260 128.0257890 122.1846760  90.0674280 128.8236720 122.3612040
  79.2308390 128.7370360 124.1494240  79.5336430 127.8468100 123.9704460
  79.9751980 129.2940580 123.9216490  77.6599080 119.6632160 117.7378610
  76.7715780 120.0048130 117.6358490  77.9440270 119.4632480 116.8459440
  75.6232090 122.2637810 123.6218310  76.1948200 121.4960010 123.6221950
  75.6233630 122.5626570 122.7124920  85.4812040 131.0828660 121.4763580
  84.8623480 131.5386160 120.9058020  86.3363820 131.2380120 121.0753280
  84.6750290 127.0667650 123.0830620  84.6058570 126.1257590 122.9219750
  85.4370150 127.1569060 123.6553190  76.8656960 117.6722170 125.4087240
  76.6859800 116.7747920 125.6890000  76.4637040 118.2194040 126.0834190
  79.8360470 118.2463660 118.7716990  79.9427220 119.1467390 119.0785750
  78.9252830 118.1981630 118.4811640  77.4843630 120.1682670 124.0169580
  78.1653740 120.4321040 124.6356980  77.1691680 119.3283540 124.3507590
  81.6768200 121.2150030 123.1042170  82.1846420 121.7131000 123.7447190
  82.2081440 120.4385230 122.9281530  93.7779130 119.3855220 126.8071520
  93.0731300 119.7736930 126.2886630  94.0437050 120.0805510 127.4092450
  79.9604300 115.8548590 127.3705590  79.9622740 116.3720980 126.5651490
  79.1308610 115.3778770 127.3475520  86.3475390 125.9667900 118.8695490
  85.7292660 126.4317350 118.3058210  86.8598640 126.6595380 119.2865000
  81.2107150 125.4943770 125.5479090  80.8776530 126.1212690 126.1900160
  81.3873830 126.0205650 124.7680760  89.7241060 119.3088850 123.0155430
  89.0196630 119.5973740 123.5958540  90.0853220 120.1188960 122.6554990
  79.6419630 117.5658550 125.3776040  79.9836440 118.4100600 125.0829910
  78.7035440 117.7142290 125.4941380  80.4226250 127.4624570 127.3628270
  81.0400250 128.1375650 127.0812720  79.5619370 127.8712550 127.2715770
  75.7158590 126.6524430 116.2435120  75.3386570 127.1411530 115.5120020
  75.9731660 127.3249710 116.8741650  91.3403840 128.9263980 125.2782910
  90.6567360 129.5963090 125.2699580  91.8798130 129.1244630 124.5127770
  92.7927980 118.7543640 123.4064640  91.8452890 118.7882620 123.5380070
  93.1177970 119.5682590 123.7914000  88.8762580 130.7708110 123.9928090
  88.8889740 130.3670400 123.1250350  88.3237800 131.5455400 123.8889520
  90.1708000 127.4924330 119.0818260  90.0604330 126.5498660 119.2067680
  90.1676250 127.8539970 119.9681020  88.2748020 125.6737950 125.3210700
  88.6916810 125.4598060 124.4864160  88.9987840 125.9310740 125.8919320
  85.7128280 123.1189650 118.4380750  84.7857560 123.0527030 118.6669220
  85.8653100 124.0569780 118.3235990  85.6997360 119.3906650 115.4347910
  84.7601030 119.5520610 115.5200370  86.0180620 120.1092330 114.8883900
  92.2210120 124.0725170 125.4126940  91.3928750 124.1418260 124.9377070
  92.8160600 124.6579480 124.9442770  89.7425570 124.6809950 118.9416000
  89.1237990 124.3429500 118.2942300  89.7250020 124.0369710 119.6495190
  89.1852130 120.8594490 126.3581810  88.7723310 121.6848200 126.6121800
  88.4528080 120.2739530 126.1658170  81.3184920 123.6454390 121.2200480
  80.9141920 122.9331640 120.7246380  81.4048040 123.3007630 122.1088520
  81.7866620 127.3321950 123.3839690  81.4894910 126.7267420 122.7047470
  82.7366440 127.3699260 123.2729050  80.0313540 120.4197600 124.9999520
  80.5828130 120.5292940 124.2252770  80.5457050 120.7935200 125.7154750
  89.8752230 130.9053820 127.0462790  89.3982790 131.7126010 126.8535400
  89.1914020 130.2532150 127.1989000  80.8785050 127.0703640 130.0347490
  79.9813580 127.2943610 130.2820890  80.9037920 127.1938580 129.0858890
  87.9190270 123.9196760 115.9488750  88.3583550 123.0819190 115.8026570
  88.6318690 124.5526160 116.0352890  79.7056270 123.9416960 128.6104860
  79.5664040 124.8139760 128.9792260  78.8237630 123.5989770 128.4652800
  86.0285650 128.8592830 119.9169990  86.4681560 129.6017160 119.5025380
  85.9672540 129.1019400 120.8408950  81.5036620 129.8838660 130.8190010
  81.4752050 130.2881610 129.9518440  81.3401590 128.9549020 130.6561610
  91.5007410 115.1739570 114.2629790  91.1880070 115.2666400 115.1628860
  92.2619880 115.7520600 114.2127220  78.0189550 122.5399370 118.7207130
  77.8987150 123.2661460 118.1088400  77.7090440 121.7702280 118.2435040
  93.4551440 130.6665760 132.1154180  93.9311160 131.1448650 132.7943260
  94.0758600 130.5983250 131.3899680  75.6574920 125.7114510 124.5275770
  75.7355340 125.8463280 123.5831490  76.2716600 125.0030400 124.7203890
  76.9022550 127.4114700 120.9381950  76.4950630 127.5529290 120.0835550
  77.7935560 127.1274860 120.7353160  92.8584690 127.8578610 129.2754190
  92.9847750 127.6190490 128.3571370  92.9006070 127.0263150 129.7476270
  86.7201430 131.5606610 127.8449000  87.2346100 131.4714620 128.6471430
  85.8770510 131.9066310 128.1376910  88.6955830 131.8461950 117.2733000
  88.5356970 131.5564890 118.1714830  88.5302540 131.0702080 116.7378230
  81.1744210 131.6260480 119.0504620  80.9986690 130.7096020 118.8372420
  80.3199950 131.9847770 119.2902420  88.3981960 129.3549510 115.8331000
  87.7047120 129.3526800 115.1733280  89.1404820 128.9308830 115.4025170
  87.9631890 130.9812220 119.9079490  88.4188840 130.2001600 120.2218110
  88.3024410 131.6919040 120.4520670  92.7108700 119.9111070 130.2403930
  92.0952970 120.4190740 129.7119390  92.3905120 119.0109400 130.1829870
  75.7134440 126.7528680 127.0670230  75.8765480 126.2834040 126.2489600
  76.1786890 126.2452240 127.7319070  80.4853210 115.8834440 122.1030800
  80.0421360 116.6643980 121.7715320  81.0438200 116.2064330 122.8101740
  84.7723020 118.7502960 127.7066120  84.3102390 118.9585980 128.5186060
  84.3701130 117.9362310 127.4036790  89.7727530 119.9711910 128.8362780
  88.9221120 119.6717660 129.1571850  89.6129320 120.2153920 127.9246600
  86.8677240 121.4713660 130.9361570  87.1930650 120.6377410 130.5963800
  87.6557570 121.9942180 131.0839900  82.5229110 116.4281770 123.9620400
  82.8201440 117.3344600 123.8812420  83.0714670 115.9400550 123.3479970
  80.2767430 121.0068010 119.8312050  80.0508350 120.7905180 120.7358670
  79.4959960 121.4396470 119.4858020  82.7166640 121.9053590 130.4972320
  82.6210240 120.9648320 130.3472720  83.5598620 122.1268660 130.1020390
  77.8477180 118.3167260 128.6506100  77.4540570 119.1642470 128.8578880
  77.1595580 117.6793630 128.8414740  84.4222230 118.4002230 131.7202840
  83.7320550 118.2074430 132.3548930  85.1654530 118.6836870 132.2527140
  75.3364460 120.1815840 113.8938900  75.2539130 121.1246600 114.0353890
  74.9847520 120.0390750 113.0151250  86.6985200 122.2400670 124.5556760
  85.9666320 122.7487480 124.9046860  86.3009540 121.4230650 124.2545540
  83.1362590 118.9154870 122.9609250  83.1398650 118.4744820 122.1113790
  84.0313710 119.2372200 123.0681070  78.9864970 118.7981360 121.9203460
  78.6465020 119.2756590 122.6770510  78.2242290 118.3446480 121.5604560
  83.1982740 119.9166950 115.9516010  83.3195560 119.8753430 116.9001830
  82.8131250 120.7791100 115.7962740  82.2104240 122.2268090 115.3499310
  81.6421140 121.7786340 114.7235220  82.9193240 122.5860870 114.8164460
  90.5881860 115.1066530 129.8066080  90.9127630 114.3756190 130.3324060
  90.6238370 114.7880170 128.9047070  77.2873420 126.1280110 129.2266040
  76.9028210 125.4873780 129.8249000  77.5985610 126.8316230 129.7960770
  83.4370560 122.9756650 124.7074660  83.8040690 122.5015220 125.4536000
  83.2475620 123.8498220 125.0483000  76.3011050 117.7200340 120.8368130
  76.0157970 117.3556010 121.6746750  76.2389910 116.9880800 120.2231270
  81.2269930 122.0165290 127.0258870  80.9227000 122.8957270 127.2509230
  82.1816390 122.0765080 127.0616310  79.7551720 126.2226280 117.6225720
  78.9813980 125.6823900 117.4624440  80.4846350 125.7032890 117.2843480
  90.5139700 125.2191640 123.4152110  91.2338820 125.7146930 123.0248220
  90.3121520 124.5409530 122.7705980  85.8958500 125.2900700 129.3021110
  85.8295810 124.3696370 129.0478700  85.2663640 125.3876140 130.0165750
  88.6898030 120.9849250 115.8543660  89.5777650 121.2966480 115.6795000
  88.6603120 120.1121500 115.4624240  79.7989120 125.8906660 121.2604530
  80.3167790 125.0874920 121.2061420  79.3473140 125.8285800 122.1021360
  84.6858620 127.1572940 116.5331830  85.0274320 127.9015170 116.0375150
  83.8571330 127.4704060 116.8956660  77.2833660 122.8568030 128.1730230
  76.9248600 123.5221880 128.7603570  76.9888220 122.0251580 128.5442850
  80.4846780 123.3152270 131.0569780  80.1846920 123.4609450 130.1597600
  81.2558020 122.7557560 130.9643170  85.8275230 128.1121270 129.0524910
  85.8419770 127.1802230 128.8343820  85.1200330 128.1981030 129.6914680
  90.9612300 122.2961090 115.3223520  90.8776020 122.7275310 114.4719960
  91.6806490 122.7559440 115.7550340  92.0386440 124.7528610 128.3993490
  91.3134630 125.3457390 128.2022880  92.5661900 124.7452150 127.6006860
  91.9899550 129.1503350 118.0505650  91.3475710 128.4958970 118.3249370
  91.6030210 129.5558440 117.2746320  87.5686030 126.4788780 121.8977340
  87.9209850 125.8816910 121.2378710  86.6848360 126.1533010 122.0685590
  83.6549310 127.2386470 119.3047750  84.3420440 127.7855680 119.6855340
  82.8681730 127.7827200 119.3397360  75.7941710 122.8559290 114.7964830
  76.6636560 123.1384090 115.0800750  75.3032030 123.6695160 114.6813640
  82.9576520 124.2432500 118.9173110  83.4139300 125.0537750 119.1433300
  82.6064730 123.9255640 119.7491600  85.2609130 129.7538840 126.1465410
  85.9051350 129.9598220 126.8238830  85.6238570 128.9927240 125.6936260
  78.8588300 114.5870150 119.3895630  78.7302930 114.5788050 120.3380550
  78.0350320 114.9253240 119.0386640  86.5341210 127.7571190 124.8642860
  87.1763440 127.0564350 124.9775030  87.0590560 128.5369630 124.6839750
  90.3796930 128.0419810 114.5882000  90.1534510 127.3250250 115.1806640
  89.9893130 127.7932250 113.7503750  88.3078830 128.5566090 128.0678920
  88.6435070 129.1432780 128.7456840  87.3879170 128.4258800 128.2976710
  76.1612960 132.0686670 115.3626460  76.5210600 132.6676010 114.7083730
  76.0205300 132.6146560 116.1361490  75.8582230 116.3461270 128.8502330
  75.1440750 116.5458190 129.4554940  76.2777270 115.5700840 129.2217130
  89.9613180 125.9591750 116.2496160  89.6734880 126.4204440 117.0374040
  90.7565350 125.4989520 116.5180380  76.1454820 130.3341530 129.8368860
  76.2545940 129.3936270 129.6964250  75.4935380 130.5996280 129.1882590
  84.1367410 128.6057420 131.2366980  83.8164280 127.8866660 131.7812670
  83.4625770 129.2812490 131.3103040  82.1781580 129.4517870 116.1800130
  82.1691680 130.1847560 115.5644640  81.2579940 129.2049450 116.2727090
  77.7788220 124.6732760 116.9246890  77.1716170 125.4131660 116.9342190
  78.2537570 124.7632120 116.0985090  87.3521010 118.8383580 126.6003780
  87.7201830 118.0178790 126.9283350  86.4919210 118.8985470 127.0159430
  90.7183040 117.7940520 117.4091340  90.0896200 117.8986190 116.6949570
  90.2234960 118.0137300 118.1985220  85.1641180 129.5146110 114.8425320
  85.2653160 129.3110100 113.9127300  84.2642920 129.2604390 115.0473100
  82.6867070 120.0726470 118.8249220  81.9783220 120.5412810 119.2662830
  82.9711550 119.4148480 119.4594410  84.3123000 121.4923170 126.8241750
  84.8108250 121.9668990 127.4893600  84.4545950 120.5686690 127.0311780
  83.8059290 132.0332430 119.5372990  84.0600790 131.9953820 118.6152360
  82.8571770 131.9065760 119.5301240  80.8902090 118.3811550 116.1999930
  81.7392620 118.8181700 116.1340120  80.5233360 118.6931810 117.0271990
  91.5189860 117.7091130 127.6670140  91.0163460 118.4496530 128.0063950
  92.3346520 118.0975130 127.3506930  89.8111870 122.9524310 121.1131500
  88.8702010 122.9674540 121.2879190  90.1255940 122.1660270 121.5591800
  79.7893510 124.6343910 114.6735460  80.5556780 124.5225270 115.2360890
  79.8668200 123.9381880 114.0212230  78.4840270 122.0668980 115.3568350
  78.5643860 121.1196490 115.4685750  79.3760020 122.3975860 115.4629010
  91.8137450 130.1233160 122.7885760  91.9384870 130.9464330 123.2609570
  92.6803010 129.9123890 122.4409910  79.2854980 132.2164370 122.4602890
  80.0217460 131.6679830 122.7311460  79.6695900 133.0820380 122.3208880
  76.1700460 128.2837940 118.3344400  75.2440240 128.5259080 118.3249810
  76.6356890 129.1112200 118.2129150  78.2913260 131.4010440 131.6488470
  79.0925990 131.7222490 132.0623870  77.7765080 131.0406020 132.3708380
  82.3957290 131.3894680 114.2828460  83.1885900 131.6783510 113.8310250
  81.8761640 130.9586850 113.6040940  87.1277890 127.5090310 131.5963880
  86.5216050 127.5321910 130.8559630  86.8232000 126.7773350 132.1331130
  88.5578260 131.2370600 130.2073290  89.5100010 131.1528620 130.1573530
  88.4106480 131.9012310 130.8807080  91.4487460 130.6164810 115.7065200
  91.1628970 130.2029950 114.8919380  91.2507010 131.5452520 115.5865720
  76.0111070 123.8883900 130.5924520  76.5150090 123.3091180 131.1640750
  75.2718490 124.1724130 131.1300890  82.9134690 126.6098090 114.1470810
  82.8085330 125.9950440 114.8732190  82.7458910 126.0863980 113.3633820
  83.0649010 125.2954890 130.1260040  82.2994680 125.8639890 130.0414710
  83.2464970 125.0031100 129.2328270  86.1537420 125.6718120 114.7512800
  85.6047520 126.1187420 115.3955540  86.7756680 125.1667370 115.2750470
  90.2072360 127.0260220 130.6835060  90.9481830 127.3635980 130.1802520
  89.4445040 127.1952280 130.1304830  78.0434150 122.0313490 131.4874590
  78.0839490 121.7327360 132.3959820  78.8979650 122.4321100 131.3282110
  81.8212540 124.6309040 116.6478100  82.2428960 124.4648910 117.4909490
  81.9463380 123.8209270 116.1533240  79.9839960 120.6105590 129.4549080
  79.4536420 120.1196540 128.8272420  80.6528030 121.0389790 128.9207010
  84.3340180 123.6546650 113.8955200  84.8545840 122.9395670 113.5296350
  84.9808580 124.2932520 114.1955710  88.8818020 125.0775050 129.2190270
  89.2959040 125.2320130 130.0680690  87.9469020 125.2030270 129.3816050
  89.3540190 122.4171210 131.2229420  89.9360960 121.6623530 131.1349900
  89.5301960 122.9478650 130.4460900  80.4712260 117.5767960 129.5346370
  80.3769130 116.9588710 128.8097240  79.8909650 118.3034250 129.3076280
  83.2373700 116.1341200 126.5673760  82.7891000 116.1565460 125.7219310
  82.6038900 115.7360220 127.1644060  83.6433250 125.0295530 127.1886200
  84.0621360 125.8728260 127.0162440  82.7241880 125.1667570 126.9592980
  85.9797150 122.7611710 128.5724040  86.0993360 122.1652850 129.3118880
  86.8391150 122.7981400 128.1525340  88.3185050 123.3148900 127.1486550
  87.7920270 123.8391520 126.5451690  88.6616390 123.9476290 127.7796280
  80.7171440 120.7042270 113.5936260  80.5160500 119.8409630 113.9549600
  80.5463490 120.6175630 112.6557860  81.4940670 131.3348540 128.3043930
  80.9561760 132.0594600 127.9852630  81.7474630 130.8578880 127.5141270
  82.7465920 119.3033060 129.8299860  83.3365610 118.9948910 130.5177680
  81.9286160 118.8312810 129.9859760  87.5659350 118.9198870 130.0632880
  86.8774870 118.2580410 129.9982870  88.2865370 118.4737140 130.5081340
  84.3502880 132.5699750 128.5630580  84.2761580 133.4734890 128.8702950
  83.4481720 132.2511650 128.5352650  84.8988210 131.7358260 116.1856940
  85.7939000 132.0743230 116.2075700  84.9305840 131.0137670 115.5581220
  78.5384370 127.1085310 114.4143940  78.9759240 127.6514980 115.0701520
  79.0232100 126.2832260 114.4240280  75.7530170 129.8974340 121.8664200
  76.0833180 129.0295400 121.6342840  76.1821170 130.1032860 122.6969160
  80.3492090 128.2283350 119.5266170  80.0487630 128.1048320 120.4270080
  80.2429580 127.3691940 119.1181900  76.2420380 130.7644930 124.6045830
  75.8051370 130.9445730 125.4369980  76.8098060 131.5219550 124.4627550
  91.8782560 130.2661930 128.8923140  91.2784550 130.3254490 128.1487060
  92.0076460 129.3266910 129.0219990  93.1184010 128.0079750 114.2292850
  92.2876970 128.0756400 114.7000080  93.2955840 128.8983870 113.9259710
  92.5740470 124.7527230 116.7327050  93.3359380 125.3223880 116.8386740
  92.5894840 124.1854430 117.5035360  76.0744810 123.2765160 120.9634710
  75.4193650 123.0076800 120.3194410  76.9122760 123.1669640 120.5136690
  93.5800440 125.6077330 121.5768980  93.9509270 124.8244650 121.1704950
  94.2202370 126.2966430 121.3986280  90.5634200 126.9913910 126.9899300
  89.7494040 127.4211070 127.2525090  90.9708400 127.6032320 126.3768350
  92.6259640 125.0461600 113.8899570  92.9008480 125.9540480 113.7618790
  92.4370380 124.9824130 114.8261560  89.0235250 118.0706450 115.1853200
  89.4420130 117.8837430 114.3449860  88.7171310 117.2185500 115.4956130
  92.5224980 122.9830590 118.8829000  92.1468580 122.2158520 118.4510290
  91.7928100 123.3653290 119.3703930  77.1120740 123.6617730 125.5038050
  77.4793780 123.5745130 126.3834070  76.5431560 122.8984280 125.4044910
  91.9124600 122.1302110 128.5168520  91.6810690 121.9014860 127.6166470
  92.1729150 123.0501660 128.4713410  76.6636740 120.5726820 129.4096470
  75.7692790 120.5393580 129.7490180  77.2034290 120.7713610 130.1747720
  90.3512670 117.3558540 131.2948220  91.2282850 117.3641940 131.6782220
  90.3633510 116.6189380 130.6840570  75.2882890 120.4864090 116.9060040
  74.3846970 120.7494290 116.7311700  75.7723510 120.7575260 116.1260000
  91.7975940 121.2088080 122.1836240  92.3213420 120.7150730 121.5526410
  92.3835360 121.3438440 122.9283810  91.9765660 121.2927950 125.7055790
  91.0268370 121.2591490 125.8200780  92.1578670 122.2028060 125.4705560
  91.2875910 120.4661430 118.1228650  91.7835030 120.2332300 118.9077530
  91.0891980 119.6273270 117.7066290  92.7163070 119.1022380 120.6566330
  92.6062350 118.9478420 121.5948600  93.4770660 118.5743320 120.4141740
  91.0628790 115.0416510 127.1149330  91.7001010 115.6550650 127.4808520
  91.2103680 115.0777170 126.1698560  93.6053340 116.9330300 113.8972470
  94.5302650 116.8011480 113.6890760  93.5829130 117.0123120 114.8508920
  93.6791830 117.7040960 116.5229180  92.8843330 117.6386080 117.0522090
  93.8835110 118.6391600 116.5114530  90.6210250 131.7432510 120.5167570
  91.2169320 131.4217080 119.8401990  90.8788400 131.2704330 121.3080840
  76.9208450 115.0030820 126.5005010  76.5723270 115.4594640 127.2663190
  76.5896150 114.1087950 126.5827440  78.5272820 128.1750420 130.6658200
  78.4842450 127.8043330 131.5472660  78.6583830 129.1127990 130.8060020
  82.2278850 129.7310010 126.2667920  81.9870210 129.9984570 125.3798440
  83.1681490 129.9015740 126.3218780  84.4333270 116.1942700 130.0224430
  84.3722160 116.7864530 130.7719840  85.3733650 116.0868660 129.8774690
  87.0707830 115.8512760 129.6616720  87.6848240 116.1692050 128.9997800
  87.6157390 115.3661350 130.2812580  93.4883010 131.7504390 127.0678560
  92.9941290 132.1473260 126.3505690  92.8796300 131.1253600 127.4615840
  77.5929090 114.5307020 129.7755780  78.1412080 114.3495070 129.0121890
  77.6584400 113.7401130 130.3112090  78.3660850 131.1212670 127.7855980
  77.7721170 130.9897370 128.5246020  78.3584690 130.2850810 127.3198080
  87.8115870 114.4144900 125.9886010  86.9375710 114.7480010 125.7858940
  87.7026620 113.9418080 126.8137880  88.7187850 116.6215770 127.3727730
  88.3901210 115.8067530 126.9929460  89.6670150 116.5785580 127.2493420
  91.1722460 132.3927810 124.3465300  90.7125430 133.1443620 123.9723320
  90.5434920 131.6734280 124.2880100  77.9973080 128.4871050 126.7364020
  77.2707140 127.8676340 126.6689970  78.0582230 128.8811660 125.8662100
  81.6018180 130.7016050 123.5213430  82.1183200 130.0903410 122.9961690
  82.2515560 131.2044830 124.0124440  84.3413680 131.5924540 124.3482410
  84.6291490 131.3378840 123.4715420  84.8536900 131.0401900 124.9387980
  85.5590690 115.3314740 124.9278920  84.7762480 115.8060240 125.2075680
  85.2653620 114.4269570 124.8192100  90.1111760 116.0337840 122.9728010
  90.5519850 115.9782940 122.1249610  89.8419350 116.9495850 123.0438190
  91.9750330 115.6653080 120.9836830  91.9138730 114.7214300 120.8367850
  92.7542360 115.7733170 121.5290290  76.2803080 131.8045440 119.9460780
  76.1125120 131.1716120 120.6442670  75.4137590 132.0104840 119.5954970
  76.9031100 115.6362220 117.4492640  77.6610460 115.7491100 116.8756670
  76.4408270 116.4731420 117.4036070  91.0904490 114.8165500 116.9518300
  91.2855120 115.7148950 117.2185730  90.3034360 114.5852580 117.4451250
  77.8865780 130.4978670 117.3910920  77.3613400 130.8786700 116.6872880
  77.8110360 131.1229440 118.1120630  81.4694090 115.9001410 119.0440000
  80.8396830 115.1988720 119.2110130  80.9299230 116.6605540 118.8273160
  84.4086040 132.5140640 131.7150610  85.3353350 132.2784910 131.7586570
  84.3936470 133.3412640 131.2336640  92.6431100 132.0566210 118.7124860
  92.8183290 131.3703950 118.0685780  91.9452670 132.5813260 118.3201530
  81.5949650 115.1785390 131.4792490  81.3133920 115.6818990 130.7153310
  81.9769350 114.3807140 131.1134620  80.4858750 132.4461050 116.2660170
  81.2177570 132.1620330 115.7184060  80.7452420 132.2074330 117.1559550
  79.6473540 128.5625780 116.2706500  79.0182420 129.0310880 116.8192330
  79.7621370 127.7175000 116.7052690  88.1965110 114.5938970 132.0572960
  88.0830560 114.9133580 132.9524480  89.0134850 114.9951480 131.7610240
  90.9763600 131.7410500 131.5391650  91.7688920 131.2459730 131.3317610
  91.2696750 132.4200640 132.1467260  79.2507130 124.7030270 105.1792730
  78.4192010 124.4478980 105.5789240  79.8588110 124.7741040 105.9150650
  89.2548730 128.7970650 103.0816100  88.7930260 128.0257890 103.4103270
  90.0674280 128.8236720 103.5868550  79.2308390 128.7370360 105.3750750
  79.5336430 127.8468100 105.1960970  79.9751980 129.2940580 105.1473000
  75.6232090 122.2637810 104.8474820  76.1948200 121.4960010 104.8478460
  75.6233630 122.5626570 103.9381430  85.4812040 131.0828660 102.7020090
  84.8623480 131.5386160 102.1314530  86.3363820 131.2380120 102.3009790
  76.8656960 117.6722170 106.6343750  76.6859800 116.7747920 106.9146510
  76.4637040 118.2194040 107.3090700  85.7055460 119.8738030 104.5356060
  86.0820280 119.0009910 104.4229730  85.6074970 120.2096730 103.6446500
  79.8360470 118.2463660  99.9973500  79.9427220 119.1467390 100.3042260
  78.9252830 118.1981630  99.7068150  77.4843630 120.1682670 105.2426090
  78.1653740 120.4321040 105.8613490  77.1691680 119.3283540 105.5764100
  81.6768200 121.2150030 104.3298680  82.1846420 121.7131000 104.9703700
  82.2081440 120.4385230 104.1538040  93.7779130 119.3855220 108.0328030
  93.0731300 119.7736930 107.5143140  94.0437050 120.0805510 108.6348960
  86.3475390 125.9667900 100.0952000  85.7292660 126.4317350  99.5314720
  86.8598640 126.6595380 100.5121510  89.7241060 119.3088850 104.2411940
  89.0196630 119.5973740 104.8215050  90.0853220 120.1188960 103.8811500
  79.6419630 117.5658550 106.6032550  79.9836440 118.4100600 106.3086420
  78.7035440 117.7142290 106.7197890  80.4226250 127.4624570 108.5884780
  81.0400250 128.1375650 108.3069230  79.5619370 127.8712550 108.4972280
  91.3403840 128.9263980 106.5039420  90.6567360 129.5963090 106.4956090
  91.8798130 129.1244630 105.7384280  83.3247520 115.0540820 102.9277140
  83.6322500 114.4987710 102.2112640  82.3948220 115.1885280 102.7450130
  88.8762580 130.7708110 105.2184600  88.8889740 130.3670400 104.3506860
  88.3237800 131.5455400 105.1146030  90.1708000 127.4924330 100.3074770
  90.0604330 126.5498660 100.4324190  90.1676250 127.8539970 101.1937530
  85.6997360 119.3906650  96.6604420  84.7601030 119.5520610  96.7456880
  86.0180620 120.1092330  96.1140410  92.2210120 124.0725170 106.6383450
  91.3928750 124.1418260 106.1633580  92.8160600 124.6579480 106.1699280
  81.3184920 123.6454390 102.4456990  80.9141920 122.9331640 101.9502890
  81.4048040 123.3007630 103.3345030  80.0313540 120.4197600 106.2256030
  80.5828130 120.5292940 105.4509280  80.5457050 120.7935200 106.9411260
  89.8752230 130.9053820 108.2719300  89.3982790 131.7126010 108.0791910
  89.1914020 130.2532150 108.4245510  80.8785050 127.0703640 111.2604000
  79.9813580 127.2943610 111.5077400  80.9037920 127.1938580 110.3115400
  79.7056270 123.9416960 109.8361370  79.5664040 124.8139760 110.2048770
  78.8237630 123.5989770 109.6909310  86.0285650 128.8592830 101.1426500
  86.4681560 129.6017160 100.7281890  85.9672540 129.1019400 102.0665460
  81.5036620 129.8838660 112.0446520  81.4752050 130.2881610 111.1774950
  81.3401590 128.9549020 111.8818120  91.5007410 115.1739570  95.4886300
  91.1880070 115.2666400  96.3885370  92.2619880 115.7520600  95.4383730
  93.4551440 130.6665760 113.3410690  93.9311160 131.1448650 114.0199770
  94.0758600 130.5983250 112.6156190  75.6574920 125.7114510 105.7532280
  75.7355340 125.8463280 104.8088000  76.2716600 125.0030400 105.9460400
  92.8584690 127.8578610 110.5010700  92.9847750 127.6190490 109.5827880
  92.9006070 127.0263150 110.9732780  86.7201430 131.5606610 109.0705510
  87.2346100 131.4714620 109.8727940  85.8770510 131.9066310 109.3633420
  88.6955830 131.8461950  98.4989510  88.5356970 131.5564890  99.3971340
  88.5302540 131.0702080  97.9634740  87.9631890 130.9812220 101.1336000
  88.4188840 130.2001600 101.4474620  88.3024410 131.6919040 101.6777180
  92.7108700 119.9111070 111.4660440  92.0952970 120.4190740 110.9375900
  92.3905120 119.0109400 111.4086380  75.7134440 126.7528680 108.2926740
  75.8765480 126.2834040 107.4746110  76.1786890 126.2452240 108.9575580
  80.4853210 115.8834440 103.3287310  80.0421360 116.6643980 102.9971830
  81.0438200 116.2064330 104.0358250  86.8677240 121.4713660 112.1618080
  87.1930650 120.6377410 111.8220310  87.6557570 121.9942180 112.3096410
  83.6012030 115.5045140  98.2093140  82.9766210 115.5005010  98.9346450
  83.5142150 114.6376100  97.8129110  82.5229110 116.4281770 105.1876910
  82.8201440 117.3344600 105.1068930  83.0714670 115.9400550 104.5736480
  80.2767430 121.0068010 101.0568560  80.0508350 120.7905180 101.9615180
  79.4959960 121.4396470 100.7114530  82.7166640 121.9053590 111.7228830
  82.6210240 120.9648320 111.5729230  83.5598620 122.1268660 111.3276900
  84.4222230 118.4002230 112.9459350  83.7320550 118.2074430 113.5805440
  85.1654530 118.6836870 113.4783650  75.1494230 116.2395720 103.9092690
  74.8607280 116.8098580 104.6217670  75.8939990 115.7600170 104.2723920
  75.3364460 120.1815840  95.1195410  75.2539130 121.1246600  95.2610400
  74.9847520 120.0390750  94.2407760  83.1362590 118.9154870 104.1865760
  83.1398650 118.4744820 103.3370300  84.0313710 119.2372200 104.2937580
  78.9864970 118.7981360 103.1459970  78.6465020 119.2756590 103.9027020
  78.2242290 118.3446480 102.7861070  83.1982740 119.9166950  97.1772520
  83.3195560 119.8753430  98.1258340  82.8131250 120.7791100  97.0219250
  82.2104240 122.2268090  96.5755820  81.6421140 121.7786340  95.9491730
  82.9193240 122.5860870  96.0420970  90.5881860 115.1066530 111.0322590
  90.9127630 114.3756190 111.5580570  90.6238370 114.7880170 110.1303580
  77.2873420 126.1280110 110.4522550  76.9028210 125.4873780 111.0505510
  77.5985610 126.8316230 111.0217280  76.3011050 117.7200340 102.0624640
  76.0157970 117.3556010 102.9003260  76.2389910 116.9880800 101.4487780
  81.2269930 122.0165290 108.2515380  80.9227000 122.8957270 108.4765740
  82.1816390 122.0765080 108.2872820  79.7551720 126.2226280  98.8482230
  78.9813980 125.6823900  98.6880950  80.4846350 125.7032890  98.5099990
  90.5139700 125.2191640 104.6408620  91.2338820 125.7146930 104.2504730
  90.3121520 124.5409530 103.9962490  85.9749640 116.6129600  98.7838010
  85.1614250 116.1142770  98.7083320  85.7811590 117.4527850  98.3674360
  85.8958500 125.2900700 110.5277620  85.8295810 124.3696370 110.2735210
  85.2663640 125.3876140 111.2422260  79.7989120 125.8906660 102.4861040
  80.3167790 125.0874920 102.4317930  79.3473140 125.8285800 103.3277870
  84.6858620 127.1572940  97.7588340  85.0274320 127.9015170  97.2631660
  83.8571330 127.4704060  98.1213170  77.2833660 122.8568030 109.3986740
  76.9248600 123.5221880 109.9860080  76.9888220 122.0251580 109.7699360
  80.4846780 123.3152270 112.2826290  80.1846920 123.4609450 111.3854110
  81.2558020 122.7557560 112.1899680  85.8275230 128.1121270 110.2781420
  85.8419770 127.1802230 110.0600330  85.1200330 128.1981030 110.9171190
  90.9612300 122.2961090  96.5480030  90.8776020 122.7275310  95.6976470
  91.6806490 122.7559440  96.9806850  92.0386440 124.7528610 109.6250000
  91.3134630 125.3457390 109.4279390  92.5661900 124.7452150 108.8263370
  83.6549310 127.2386470 100.5304260  84.3420440 127.7855680 100.9111850
  82.8681730 127.7827200 100.5653870  85.2609130 129.7538840 107.3721920
  85.9051350 129.9598220 108.0495340  85.6238570 128.9927240 106.9192770
  78.8588300 114.5870150 100.6152140  78.7302930 114.5788050 101.5637060
  78.0350320 114.9253240 100.2643150  88.3078830 128.5566090 109.2935430
  88.6435070 129.1432780 109.9713350  87.3879170 128.4258800 109.5233220
  76.1612960 132.0686670  96.5882970  76.5210600 132.6676010  95.9340240
  76.0205300 132.6146560  97.3618000  76.1454820 130.3341530 111.0625370
  76.2545940 129.3936270 110.9220760  75.4935380 130.5996280 110.4139100
  84.1367410 128.6057420 112.4623490  83.8164280 127.8866660 113.0069180
  83.4625770 129.2812490 112.5359550  90.7183040 117.7940520  98.6347850
  90.0896200 117.8986190  97.9206080  90.2234960 118.0137300  99.4241730
  85.1641180 129.5146110  96.0681830  85.2653160 129.3110100  95.1383810
  84.2642920 129.2604390  96.2729610  82.6867070 120.0726470 100.0505730
  81.9783220 120.5412810 100.4919340  82.9711550 119.4148480 100.6850920
  84.3123000 121.4923170 108.0498260  84.8108250 121.9668990 108.7150110
  84.4545950 120.5686690 108.2568290  83.8059290 132.0332430 100.7629500
  84.0600790 131.9953820  99.8408870  82.8571770 131.9065760 100.7557750
  80.8902090 118.3811550  97.4256440  81.7392620 118.8181700  97.3596630
  80.5233360 118.6931810  98.2528500  79.7893510 124.6343910  95.8991970
  80.5556780 124.5225270  96.4617400  79.8668200 123.9381880  95.2468740
  78.4840270 122.0668980  96.5824860  78.5643860 121.1196490  96.6942260
  79.3760020 122.3975860  96.6885520  91.8137450 130.1233160 104.0142270
  91.9384870 130.9464330 104.4866080  92.6803010 129.9123890 103.6666420
  78.2913260 131.4010440 112.8744980  79.0925990 131.7222490 113.2880380
  77.7765080 131.0406020 113.5964890  87.1277890 127.5090310 112.8220390
  86.5216050 127.5321910 112.0816140  86.8232000 126.7773350 113.3587640
  88.5578260 131.2370600 111.4329800  89.5100010 131.1528620 111.3830040
  88.4106480 131.9012310 112.1063590  76.0111070 123.8883900 111.8181030
  76.5150090 123.3091180 112.3897260  75.2718490 124.1724130 112.3557400
  82.9134690 126.6098090  95.3727320  82.8085330 125.9950440  96.0988700
  82.7458910 126.0863980  94.5890330  83.0649010 125.2954890 111.3516550
  82.2994680 125.8639890 111.2671220  83.2464970 125.0031100 110.4584780
  90.2072360 127.0260220 111.9091570  90.9481830 127.3635980 111.4059030
  89.4445040 127.1952280 111.3561340  78.0434150 122.0313490 112.7131100
  78.0839490 121.7327360 113.6216330  78.8979650 122.4321100 112.5538620
  81.8212540 124.6309040  97.8734610  82.2428960 124.4648910  98.7166000
  81.9463380 123.8209270  97.3789750  88.8818020 125.0775050 110.4446780
  89.2959040 125.2320130 111.2937200  87.9469020 125.2030270 110.6072560
  89.3540190 122.4171210 112.4485930  89.9360960 121.6623530 112.3606410
  89.5301960 122.9478650 111.6717410  83.2373700 116.1341200 107.7930270
  82.7891000 116.1565460 106.9475820  82.6038900 115.7360220 108.3900570
  85.9797150 122.7611710 109.7980550  86.0993360 122.1652850 110.5375390
  86.8391150 122.7981400 109.3781850  88.3185050 123.3148900 108.3743060
  87.7920270 123.8391520 107.7708200  88.6616390 123.9476290 109.0052790
  80.7171440 120.7042270  94.8192770  80.5160500 119.8409630  95.1806110
  80.5463490 120.6175630  93.8814370  81.4940670 131.3348540 109.5300440
  80.9561760 132.0594600 109.2109140  81.7474630 130.8578880 108.7397780
  88.1959750 115.5150500  97.3479650  88.4762040 114.6718400  97.7039070
  87.4225480 115.7473610  97.8618400  79.5154240 117.8042890  94.8070650
  79.8180140 117.8110320  93.8989800  80.2548830 117.4540750  95.3038310
  84.3502880 132.5699750 109.7887090  84.2761580 133.4734890 110.0959460
  83.4481720 132.2511650 109.7609160  82.7339170 116.7477510  95.7926850
  82.3861170 116.0701500  95.2129300  82.9351940 116.2867020  96.6070240
  80.3492090 128.2283350 100.7522680  80.0487630 128.1048320 101.6526590
  80.2429580 127.3691940 100.3438410  91.8782560 130.2661930 110.1179650
  91.2784550 130.3254490 109.3743570  92.0076460 129.3266910 110.2476500
  92.5740470 124.7527230  97.9583560  93.3359380 125.3223880  98.0643250
  92.5894840 124.1854430  98.7291870  93.5800440 125.6077330 102.8025490
  93.9509270 124.8244650 102.3961460  94.2202370 126.2966430 102.6242790
  90.5634200 126.9913910 108.2155810  89.7494040 127.4211070 108.4781600
  90.9708400 127.6032320 107.6024860  92.6259640 125.0461600  95.1156080
  92.9008480 125.9540480  94.9875300  92.4370380 124.9824130  96.0518070
  89.0235250 118.0706450  96.4109710  89.4420130 117.8837430  95.5706370
  88.7171310 117.2185500  96.7212640  77.1120740 123.6617730 106.7294560
  77.4793780 123.5745130 107.6090580  76.5431560 122.8984280 106.6301420
  91.9124600 122.1302110 109.7425030  91.6810690 121.9014860 108.8422980
  92.1729150 123.0501660 109.6969920  76.6636740 120.5726820 110.6352980
  75.7692790 120.5393580 110.9746690  77.2034290 120.7713610 111.4004230
  90.3512670 117.3558540 112.5204730  91.2282850 117.3641940 112.9038730
  90.3633510 116.6189380 111.9097080  91.9765660 121.2927950 106.9312300
  91.0268370 121.2591490 107.0457290  92.1578670 122.2028060 106.6962070
  77.8310100 119.5429630  96.0410930  78.5401800 119.1212850  95.5558210
  77.1150040 119.6104860  95.4094280  77.1676450 114.8475150 104.9836200
  77.8152640 114.2972530 104.5431360  77.5878290 115.1018300 105.8052010
  93.6053340 116.9330300  95.1228980  94.5302650 116.8011480  94.9147270
  93.5829130 117.0123120  96.0765430  93.6791830 117.7040960  97.7485690
  92.8843330 117.6386080  98.2778600  93.8835110 118.6391600  97.7371040
  90.6210250 131.7432510 101.7424080  91.2169320 131.4217080 101.0658500
  90.8788400 131.2704330 102.5337350  76.9208450 115.0030820 107.7261520
  76.5723270 115.4594640 108.4919700  76.5896150 114.1087950 107.8083950
  78.5272820 128.1750420 111.8914710  78.4842450 127.8043330 112.7729170
  78.6583830 129.1127990 112.0316530  82.2278850 129.7310010 107.4924430
  81.9870210 129.9984570 106.6054950  83.1681490 129.9015740 107.5475290
  93.4883010 131.7504390 108.2935070  92.9941290 132.1473260 107.5762200
  92.8796300 131.1253600 108.6872350  78.3660850 131.1212670 109.0112490
  77.7721170 130.9897370 109.7502530  78.3584690 130.2850810 108.5454590
  91.1722460 132.3927810 105.5721810  90.7125430 133.1443620 105.1979830
  90.5434920 131.6734280 105.5136610  77.9973080 128.4871050 107.9620530
  77.2707140 127.8676340 107.8946480  78.0582230 128.8811660 107.0918610
  81.6018180 130.7016050 104.7469940  82.1183200 130.0903410 104.2218200
  82.2515560 131.2044830 105.2380950  84.3413680 131.5924540 105.5738920
  84.6291490 131.3378840 104.6971930  84.8536900 131.0401900 106.1644490
  76.9031100 115.6362220  98.6749150  77.6610460 115.7491100  98.1013180
  76.4408270 116.4731420  98.6292580  83.4444910 117.7501490 101.6651460
  82.6319420 117.3758380 101.3247340  83.9486550 116.9946570 101.9672650
  87.9469890 114.4143940 102.9034530  88.5499260 114.9864150 103.3783050
  87.2062880 114.9783380 102.6808430  91.0904490 114.8165500  98.1774810
  91.2855120 115.7148950  98.4442240  90.3034360 114.5852580  98.6707760
  79.2756250 116.1626270  97.2151120  79.8049010 115.3756070  97.0859070
  79.9084570 116.8417460  97.4486650  81.4694090 115.9001410 100.2696510
  80.8396830 115.1988720 100.4366640  80.9299230 116.6605540 100.0529670
  84.4086040 132.5140640 112.9407120  85.3353350 132.2784910 112.9843080
  84.3936470 133.3412640 112.4593150  88.1965110 114.5938970 113.2829470
  88.0830560 114.9133580 114.1780990  89.0134850 114.9951480 112.9866750
  90.9763600 131.7410500 112.7648160  91.7688920 131.2459730 112.5574120
  91.2696750 132.4200640 113.3723770  79.2507130 124.7030270  86.4049240
  78.4192010 124.4478980  86.8045750  79.8588110 124.7741040  87.1407160
  89.2548730 128.7970650  84.3072610  88.7930260 128.0257890  84.6359780
  90.0674280 128.8236720  84.8125060  79.2308390 128.7370360  86.6007260
  79.5336430 127.8468100  86.4217480  79.9751980 129.2940580  86.3729510
  75.6232090 122.2637810  86.0731330  76.1948200 121.4960010  86.0734970
  75.6233630 122.5626570  85.1637940  85.4812040 131.0828660  83.9276600
  84.8623480 131.5386160  83.3571040  86.3363820 131.2380120  83.5266300
  84.6750290 127.0667650  85.5343640  84.6058570 126.1257590  85.3732770
  85.4370150 127.1569060  86.1066210  85.7055460 119.8738030  85.7612570
  86.0820280 119.0009910  85.6486240  85.6074970 120.2096730  84.8703010
  89.4879580 117.3688470  82.6940910  90.3089200 116.8785040  82.7366390
  89.5213660 117.9586130  83.4472750  77.4843630 120.1682670  86.4682600
  78.1653740 120.4321040  87.0870000  77.1691680 119.3283540  86.8020610
  81.6768200 121.2150030  85.5555190  82.1846420 121.7131000  86.1960210
  82.2081440 120.4385230  85.3794550  93.7779130 119.3855220  89.2584540
  93.0731300 119.7736930  88.7399650  94.0437050 120.0805510  89.8605470
  86.3475390 125.9667900  81.3208510  85.7292660 126.4317350  80.7571230
  86.8598640 126.6595380  81.7378020  81.2107150 125.4943770  87.9992110
  80.8776530 126.1212690  88.6413180  81.3873830 126.0205650  87.2193780
  89.7241060 119.3088850  85.4668450  89.0196630 119.5973740  86.0471560
  90.0853220 120.1188960  85.1068010  80.4226250 127.4624570  89.8141290
  81.0400250 128.1375650  89.5325740  79.5619370 127.8712550  89.7228790
  75.7158590 126.6524430  78.6948140  75.3386570 127.1411530  77.9633040
  75.9731660 127.3249710  79.3254670  92.7927980 118.7543640  85.8577660
  91.8452890 118.7882620  85.9893090  93.1177970 119.5682590  86.2427020
  90.1708000 127.4924330  81.5331280  90.0604330 126.5498660  81.6580700
  90.1676250 127.8539970  82.4194040  85.7128280 123.1189650  80.8893770
  84.7857560 123.0527030  81.1182240  85.8653100 124.0569780  80.7749010
  85.6997360 119.3906650  77.8860930  84.7601030 119.5520610  77.9713390
  86.0180620 120.1092330  77.3396920  89.7425570 124.6809950  81.3929020
  89.1237990 124.3429500  80.7455320  89.7250020 124.0369710  82.1008210
  89.1852130 120.8594490  88.8094830  88.7723310 121.6848200  89.0634820
  88.4528080 120.2739530  88.6171190  81.3184920 123.6454390  83.6713500
  80.9141920 122.9331640  83.1759400  81.4048040 123.3007630  84.5601540
  81.7866620 127.3321950  85.8352710  81.4894910 126.7267420  85.1560490
  82.7366440 127.3699260  85.7242070  80.0313540 120.4197600  87.4512540
  80.5828130 120.5292940  86.6765790  80.5457050 120.7935200  88.1667770
  80.8785050 127.0703640  92.4860510  79.9813580 127.2943610  92.7333910
  80.9037920 127.1938580  91.5371910  87.9190270 123.9196760  78.4001770
  88.3583550 123.0819190  78.2539590  88.6318690 124.5526160  78.4865910
  79.7056270 123.9416960  91.0617880  79.5664040 124.8139760  91.4305280
  78.8237630 123.5989770  90.9165820  86.0285650 128.8592830  82.3683010
  86.4681560 129.6017160  81.9538400  85.9672540 129.1019400  83.2921970
  81.5036620 129.8838660  93.2703030  81.4752050 130.2881610  92.4031460
  81.3401590 128.9549020  93.1074630  91.5007410 115.1739570  76.7142810
  91.1880070 115.2666400  77.6141880  92.2619880 115.7520600  76.6640240
  75.6574920 125.7114510  86.9788790  75.7355340 125.8463280  86.0344510
  76.2716600 125.0030400  87.1716910  76.9022550 127.4114700  83.3894970
  76.4950630 127.5529290  82.5348570  77.7935560 127.1274860  83.1866180
  92.8584690 127.8578610  91.7267210  92.9847750 127.6190490  90.8084390
  92.9006070 127.0263150  92.1989290  88.6955830 131.8461950  79.7246020
  88.5356970 131.5564890  80.6227850  88.5302540 131.0702080  79.1891250
  88.3981960 129.3549510  78.2844020  87.7047120 129.3526800  77.6246300
  89.1404820 128.9308830  77.8538190  87.9631890 130.9812220  82.3592510
  88.4188840 130.2001600  82.6731130  88.3024410 131.6919040  82.9033690
  92.7108700 119.9111070  92.6916950  92.0952970 120.4190740  92.1632410
  92.3905120 119.0109400  92.6342890  75.7134440 126.7528680  89.5183250
  75.8765480 126.2834040  88.7002620  76.1786890 126.2452240  90.1832090
  84.7723020 118.7502960  90.1579140  84.3102390 118.9585980  90.9699080
  84.3701130 117.9362310  89.8549810  89.7727530 119.9711910  91.2875800
  88.9221120 119.6717660  91.6084870  89.6129320 120.2153920  90.3759620
  86.8677240 121.4713660  93.3874590  87.1930650 120.6377410  93.0476820
  87.6557570 121.9942180  93.5352920  87.5065190 121.0131380  80.8815720
  86.9074080 121.7367180  80.6979340  88.0544800 120.9508160  80.0992170
  82.7166640 121.9053590  92.9485340  82.6210240 120.9648320  92.7985740
  83.5598620 122.1268660  92.5533410  86.1130060 119.6494920  82.9119000
  86.5059630 119.9667120  82.0987690  86.4746910 118.7706800  83.0263520
  84.4222230 118.4002230  94.1715860  83.7320550 118.2074430  94.8061950
  85.1654530 118.6836870  94.7040160  75.1494230 116.2395720  85.1349200
  74.8607280 116.8098580  85.8474180  75.8939990 115.7600170  85.4980430
  75.3364460 120.1815840  76.3451920  75.2539130 121.1246600  76.4866910
  74.9847520 120.0390750  75.4664270  83.1362590 118.9154870  85.4122270
  83.1398650 118.4744820  84.5626810  84.0313710 119.2372200  85.5194090
  87.1611110 117.6934350  86.4192720  87.1783850 118.1443000  87.2634570
  86.9126690 116.7939990  86.6326160  90.5881860 115.1066530  92.2579100
  90.9127630 114.3756190  92.7837080  90.6238370 114.7880170  91.3560090
  83.4370560 122.9756650  87.1587680  83.8040690 122.5015220  87.9049020
  83.2475620 123.8498220  87.4996020  76.3011050 117.7200340  83.2881150
  76.0157970 117.3556010  84.1259770  76.2389910 116.9880800  82.6744290
  81.2269930 122.0165290  89.4771890  80.9227000 122.8957270  89.7022250
  82.1816390 122.0765080  89.5129330  79.7551720 126.2226280  80.0738740
  78.9813980 125.6823900  79.9137460  80.4846350 125.7032890  79.7356500
  85.9749640 116.6129600  80.0094520  85.1614250 116.1142770  79.9339830
  85.7811590 117.4527850  79.5930870  79.7989120 125.8906660  83.7117550
  80.3167790 125.0874920  83.6574440  79.3473140 125.8285800  84.5534380
  84.6858620 127.1572940  78.9844850  85.0274320 127.9015170  78.4888170
  83.8571330 127.4704060  79.3469680  77.2833660 122.8568030  90.6243250
  76.9248600 123.5221880  91.2116590  76.9888220 122.0251580  90.9955870
  80.4846780 123.3152270  93.5082800  80.1846920 123.4609450  92.6110620
  81.2558020 122.7557560  93.4156190  91.9899550 129.1503350  80.5018670
  91.3475710 128.4958970  80.7762390  91.6030210 129.5558440  79.7259340
  83.6549310 127.2386470  81.7560770  84.3420440 127.7855680  82.1368360
  82.8681730 127.7827200  81.7910380  82.9576520 124.2432500  81.3686130
  83.4139300 125.0537750  81.5946320  82.6064730 123.9255640  82.2004620
  76.1612960 132.0686670  77.8139480  76.5210600 132.6676010  77.1596750
  76.0205300 132.6146560  78.5874510  77.7788220 124.6732760  79.3759910
  77.1716170 125.4131660  79.3855210  78.2537570 124.7632120  78.5498110
  87.3521010 118.8383580  89.0516800  87.7201830 118.0178790  89.3796370
  86.4919210 118.8985470  89.4672450  90.7183040 117.7940520  79.8604360
  90.0896200 117.8986190  79.1462590  90.2234960 118.0137300  80.6498240
  85.1641180 129.5146110  77.2938340  85.2653160 129.3110100  76.3640320
  84.2642920 129.2604390  77.4986120  84.3123000 121.4923170  89.2754770
  84.8108250 121.9668990  89.9406620  84.4545950 120.5686690  89.4824800
  86.7182500 116.7977130  82.7158030  86.5950280 116.8163260  81.7667540
  87.6667060 116.8456070  82.8356430  91.5189860 117.7091130  90.1183160
  91.0163460 118.4496530  90.4576970  92.3346520 118.0975130  89.8019950
  79.7893510 124.6343910  77.1248480  80.5556780 124.5225270  77.6873910
  79.8668200 123.9381880  76.4725250  79.2854980 132.2164370  84.9115910
  80.0217460 131.6679830  85.1824480  79.6695900 133.0820380  84.7721900
  76.1700460 128.2837940  80.7857420  75.2440240 128.5259080  80.7762830
  76.6356890 129.1112200  80.6642170  78.2913260 131.4010440  94.1001490
  79.0925990 131.7222490  94.5136890  77.7765080 131.0406020  94.8221400
  91.4487460 130.6164810  78.1578220  91.1628970 130.2029950  77.3432400
  91.2507010 131.5452520  78.0378740  82.9134690 126.6098090  76.5983830
  82.8085330 125.9950440  77.3245210  82.7458910 126.0863980  75.8146840
  86.1537420 125.6718120  77.2025820  85.6047520 126.1187420  77.8468560
  86.7756680 125.1667370  77.7263490  78.0434150 122.0313490  93.9387610
  78.0839490 121.7327360  94.8472840  78.8979650 122.4321100  93.7795130
  81.8212540 124.6309040  79.0991120  82.2428960 124.4648910  79.9422510
  81.9463380 123.8209270  78.6046260  79.9839960 120.6105590  91.9062100
  79.4536420 120.1196540  91.2785440  80.6528030 121.0389790  91.3720030
  84.3340180 123.6546650  76.3468220  84.8545840 122.9395670  75.9809370
  84.9808580 124.2932520  76.6468730  89.3540190 122.4171210  93.6742440
  89.9360960 121.6623530  93.5862920  89.5301960 122.9478650  92.8973920
  83.6433250 125.0295530  89.6399220  84.0621360 125.8728260  89.4675460
  82.7241880 125.1667570  89.4106000  80.7171440 120.7042270  76.0449280
  80.5160500 119.8409630  76.4062620  80.5463490 120.6175630  75.1070880
  81.4940670 131.3348540  90.7556950  80.9561760 132.0594600  90.4365650
  81.7474630 130.8578880  89.9654290  82.7465920 119.3033060  92.2812880
  83.3365610 118.9948910  92.9690700  81.9286160 118.8312810  92.4372780
  87.5659350 118.9198870  92.5145900  86.8774870 118.2580410  92.4495890
  88.2865370 118.4737140  92.9594360  88.1959750 115.5150500  78.5736160
  88.4762040 114.6718400  78.9295580  87.4225480 115.7473610  79.0874910
  79.5154240 117.8042890  76.0327160  79.8180140 117.8110320  75.1246310
  80.2548830 117.4540750  76.5294820  84.8988210 131.7358260  78.6369960
  85.7939000 132.0743230  78.6588720  84.9305840 131.0137670  78.0094240
  75.7530170 129.8974340  84.3177220  76.0833180 129.0295400  84.0855860
  76.1821170 130.1032860  85.1482180  80.3492090 128.2283350  81.9779190
  80.0487630 128.1048320  82.8783100  80.2429580 127.3691940  81.5694920
  76.2420380 130.7644930  87.0558850  75.8051370 130.9445730  87.8883000
  76.8098060 131.5219550  86.9140570  76.0744810 123.2765160  83.4147730
  75.4193650 123.0076800  82.7707430  76.9122760 123.1669640  82.9649710
  93.5800440 125.6077330  84.0282000  93.9509270 124.8244650  83.6217970
  94.2202370 126.2966430  83.8499300  89.0235250 118.0706450  77.6366220
  89.4420130 117.8837430  76.7962880  88.7171310 117.2185500  77.9469150
  92.5224980 122.9830590  81.3342020  92.1468580 122.2158520  80.9023310
  91.7928100 123.3653290  81.8216950  77.1120740 123.6617730  87.9551070
  77.4793780 123.5745130  88.8347090  76.5431560 122.8984280  87.8557930
  76.6636740 120.5726820  91.8609490  75.7692790 120.5393580  92.2003200
  77.2034290 120.7713610  92.6260740  90.3512670 117.3558540  93.7461240
  91.2282850 117.3641940  94.1295240  90.3633510 116.6189380  93.1353590
  91.9765660 121.2927950  88.1568810  91.0268370 121.2591490  88.2713800
  92.1578670 122.2028060  87.9218580  77.8310100 119.5429630  77.2667440
  78.5401800 119.1212850  76.7814720  77.1150040 119.6104860  76.6350790
  77.4784260 115.5968960  76.3070090  78.2012390 116.1377900  76.6251310
  77.7508780 115.3232380  75.4311630  92.7163070 119.1022380  83.1079350
  92.6062350 118.9478420  84.0461620  93.4770660 118.5743320  82.8654760
  91.0628790 115.0416510  89.5662350  91.7001010 115.6550650  89.9321540
  91.2103680 115.0777170  88.6211580  93.6053340 116.9330300  76.3485490
  94.5302650 116.8011480  76.1403780  93.5829130 117.0123120  77.3021940
  90.6210250 131.7432510  82.9680590  91.2169320 131.4217080  82.2915010
  90.8788400 131.2704330  83.7593860  78.5272820 128.1750420  93.1171220
  78.4842450 127.8043330  93.9985680  78.6583830 129.1127990  93.2573040
  82.2278850 129.7310010  88.7180940  81.9870210 129.9984570  87.8311460
  83.1681490 129.9015740  88.7731800  78.3660850 131.1212670  90.2369000
  77.7721170 130.9897370  90.9759040  78.3584690 130.2850810  89.7711100
  88.7187850 116.6215770  89.8240750  88.3901210 115.8067530  89.4442480
  89.6670150 116.5785580  89.7006440  77.9973080 128.4871050  89.1877040
  77.2707140 127.8676340  89.1202990  78.0582230 128.8811660  88.3175120
  81.6018180 130.7016050  85.9726450  82.1183200 130.0903410  85.4474710
  82.2515560 131.2044830  86.4637460  84.3413680 131.5924540  86.7995430
  84.6291490 131.3378840  85.9228440  84.8536900 131.0401900  87.3901000
  90.1111760 116.0337840  85.4241030  90.5519850 115.9782940  84.5762630
  89.8419350 116.9495850  85.4951210  91.9750330 115.6653080  83.4349850
  91.9138730 114.7214300  83.2880870  92.7542360 115.7733170  83.9803310
  76.2803080 131.8045440  82.3973800  76.1125120 131.1716120  83.0955690
  75.4137590 132.0104840  82.0467990  76.9031100 115.6362220  79.9005660
  77.6610460 115.7491100  79.3269690  76.4408270 116.4731420  79.8549090
  91.0904490 114.8165500  79.4031320  91.2855120 115.7148950  79.6698750
  90.3034360 114.5852580  79.8964270  81.4694090 115.9001410  81.4953020
  80.8396830 115.1988720  81.6623150  80.9299230 116.6605540  81.2786180
  84.4086040 132.5140640  94.1663630  85.3353350 132.2784910  94.2099590
  84.3936470 133.3412640  93.6849660  92.6431100 132.0566210  81.1637880
  92.8183290 131.3703950  80.5198800  91.9452670 132.5813260  80.7714550
  88.1965110 114.5938970  94.5085980  88.0830560 114.9133580  95.4037500
  89.0134850 114.9951480  94.2123260  87.1023260 122.6131440  64.8720720
  87.0217310 121.6986050  64.6012430  86.6887680 123.1098510  64.1660430
  89.2548730 128.7970650  65.5329120  88.7930260 128.0257890  65.8616290
  90.0674280 128.8236720  66.0381570  79.2308390 128.7370360  67.8263770
  79.5336430 127.8468100  67.6473990  79.9751980 129.2940580  67.5986020
  77.6599080 119.6632160  61.4148140  76.7715780 120.0048130  61.3128020
  77.9440270 119.4632480  60.5228970  75.6232090 122.2637810  67.2987840
  76.1948200 121.4960010  67.2991480  75.6233630 122.5626570  66.3894450
  85.7055460 119.8738030  66.9869080  86.0820280 119.0009910  66.8742750
  85.6074970 120.2096730  66.0959520  79.8360470 118.2463660  62.4486520
  79.9427220 119.1467390  62.7555280  78.9252830 118.1981630  62.1581170
  89.4879580 117.3688470  63.9197420  90.3089200 116.8785040  63.9622900
  89.5213660 117.9586130  64.6729260  89.7241060 119.3088850  66.6924960
  89.0196630 119.5973740  67.2728070  90.0853220 120.1188960  66.3324520
  80.4226250 127.4624570  71.0397800  81.0400250 128.1375650  70.7582250
  79.5619370 127.8712550  70.9485300  75.7158590 126.6524430  59.9204650
  75.3386570 127.1411530  59.1889550  75.9731660 127.3249710  60.5511180
  91.3403840 128.9263980  68.9552440  90.6567360 129.5963090  68.9469110
  91.8798130 129.1244630  68.1897300  83.3247520 115.0540820  65.3790160
  83.6322500 114.4987710  64.6625660  82.3948220 115.1885280  65.1963150
  88.8762580 130.7708110  67.6697620  88.8889740 130.3670400  66.8019880
  88.3237800 131.5455400  67.5659050  90.1708000 127.4924330  62.7587790
  90.0604330 126.5498660  62.8837210  90.1676250 127.8539970  63.6450550
  89.7425570 124.6809950  62.6185530  89.1237990 124.3429500  61.9711830
  89.7250020 124.0369710  63.3264720  89.8752230 130.9053820  70.7232320
  89.3982790 131.7126010  70.5304930  89.1914020 130.2532150  70.8758530
  80.8785050 127.0703640  73.7117020  79.9813580 127.2943610  73.9590420
  80.9037920 127.1938580  72.7628420  87.9190270 123.9196760  59.6258280
  88.3583550 123.0819190  59.4796100  88.6318690 124.5526160  59.7122420
  79.7056270 123.9416960  72.2874390  79.5664040 124.8139760  72.6561790
  78.8237630 123.5989770  72.1422330  91.5007410 115.1739570  57.9399320
  91.1880070 115.2666400  58.8398390  92.2619880 115.7520600  57.8896750
  78.0189550 122.5399370  62.3976660  77.8987150 123.2661460  61.7857930
  77.7090440 121.7702280  61.9204570  93.4551440 130.6665760  75.7923710
  93.9311160 131.1448650  76.4712790  94.0758600 130.5983250  75.0669210
  75.6574920 125.7114510  68.2045300  75.7355340 125.8463280  67.2601020
  76.2716600 125.0030400  68.3973420  76.9022550 127.4114700  64.6151480
  76.4950630 127.5529290  63.7605080  77.7935560 127.1274860  64.4122690
  86.7201430 131.5606610  71.5218530  87.2346100 131.4714620  72.3240960
  85.8770510 131.9066310  71.8146440  88.6955830 131.8461950  60.9502530
  88.5356970 131.5564890  61.8484360  88.5302540 131.0702080  60.4147760
  81.1744210 131.6260480  62.7274150  80.9986690 130.7096020  62.5141950
  80.3199950 131.9847770  62.9671950  88.3981960 129.3549510  59.5100530
  87.7047120 129.3526800  58.8502810  89.1404820 128.9308830  59.0794700
  75.7134440 126.7528680  70.7439760  75.8765480 126.2834040  69.9259130
  76.1786890 126.2452240  71.4088600  80.4853210 115.8834440  65.7800330
  80.0421360 116.6643980  65.4484850  81.0438200 116.2064330  66.4871270
  84.7723020 118.7502960  71.3835650  84.3102390 118.9585980  72.1955590
  84.3701130 117.9362310  71.0806320  86.8677240 121.4713660  74.6131100
  87.1930650 120.6377410  74.2733330  87.6557570 121.9942180  74.7609430
  82.5229110 116.4281770  67.6389930  82.8201440 117.3344600  67.5581950
  83.0714670 115.9400550  67.0249500  87.5065190 121.0131380  62.1072230
  86.9074080 121.7367180  61.9235850  88.0544800 120.9508160  61.3248680
  82.7166640 121.9053590  74.1741850  82.6210240 120.9648320  74.0242250
  83.5598620 122.1268660  73.7789920  86.1130060 119.6494920  64.1375510
  86.5059630 119.9667120  63.3244200  86.4746910 118.7706800  64.2520030
  84.4222230 118.4002230  75.3972370  83.7320550 118.2074430  76.0318460
  85.1654530 118.6836870  75.9296670  75.1494230 116.2395720  66.3605710
  74.8607280 116.8098580  67.0730690  75.8939990 115.7600170  66.7236940
  75.3364460 120.1815840  57.5708430  75.2539130 121.1246600  57.7123420
  74.9847520 120.0390750  56.6920780  86.6985200 122.2400670  68.2326290
  85.9666320 122.7487480  68.5816390  86.3009540 121.4230650  67.9315070
  83.1362590 118.9154870  66.6378780  83.1398650 118.4744820  65.7883320
  84.0313710 119.2372200  66.7450600  78.9864970 118.7981360  65.5972990
  78.6465020 119.2756590  66.3540040  78.2242290 118.3446480  65.2374090
  87.1611110 117.6934350  67.6449230  87.1783850 118.1443000  68.4891080
  86.9126690 116.7939990  67.8582670  77.2873420 126.1280110  72.9035570
  76.9028210 125.4873780  73.5018530  77.5985610 126.8316230  73.4730300
  76.3011050 117.7200340  64.5137660  76.0157970 117.3556010  65.3516280
  76.2389910 116.9880800  63.9000800  81.2269930 122.0165290  70.7028400
  80.9227000 122.8957270  70.9278760  82.1816390 122.0765080  70.7385840
  79.7551720 126.2226280  61.2995250  78.9813980 125.6823900  61.1393970
  80.4846350 125.7032890  60.9613010  85.8958500 125.2900700  72.9790640
  85.8295810 124.3696370  72.7248230  85.2663640 125.3876140  73.6935280
  88.6898030 120.9849250  59.5313190  89.5777650 121.2966480  59.3564530
  88.6603120 120.1121500  59.1393770  80.4846780 123.3152270  74.7339310
  80.1846920 123.4609450  73.8367130  81.2558020 122.7557560  74.6412700
  85.8275230 128.1121270  72.7294440  85.8419770 127.1802230  72.5113350
  85.1200330 128.1981030  73.3684210  90.9612300 122.2961090  58.9993050
  90.8776020 122.7275310  58.1489490  91.6806490 122.7559440  59.4319870
  91.9899550 129.1503350  61.7275180  91.3475710 128.4958970  62.0018900
  91.6030210 129.5558440  60.9515850  87.5686030 126.4788780  65.5746870
  87.9209850 125.8816910  64.9148240  86.6848360 126.1533010  65.7455120
  75.7941710 122.8559290  58.4734360  76.6636560 123.1384090  58.7570280
  75.3032030 123.6695160  58.3583170  85.2609130 129.7538840  69.8234940
  85.9051350 129.9598220  70.5008360  85.6238570 128.9927240  69.3705790
  78.8588300 114.5870150  63.0665160  78.7302930 114.5788050  64.0150080
  78.0350320 114.9253240  62.7156170  86.5341210 127.7571190  68.5412390
  87.1763440 127.0564350  68.6544560  87.0590560 128.5369630  68.3609280
  90.3796930 128.0419810  58.2651530  90.1534510 127.3250250  58.8576170
  89.9893130 127.7932250  57.4273280  88.3078830 128.5566090  71.7448450
  88.6435070 129.1432780  72.4226370  87.3879170 128.4258800  71.9746240
  76.1612960 132.0686670  59.0395990  76.5210600 132.6676010  58.3853260
  76.0205300 132.6146560  59.8131020  75.8582230 116.3461270  72.5271860
  75.1440750 116.5458190  73.1324470  76.2777270 115.5700840  72.8986660
  89.9613180 125.9591750  59.9265690  89.6734880 126.4204440  60.7143570
  90.7565350 125.4989520  60.1949910  84.1367410 128.6057420  74.9136510
  83.8164280 127.8866660  75.4582200  83.4625770 129.2812490  74.9872570
  77.7788220 124.6732760  60.6016420  77.1716170 125.4131660  60.6111720
  78.2537570 124.7632120  59.7754620  87.3521010 118.8383580  70.2773310
  87.7201830 118.0178790  70.6052880  86.4919210 118.8985470  70.6928960
  90.7183040 117.7940520  61.0860870  90.0896200 117.8986190  60.3719100
  90.2234960 118.0137300  61.8754750  84.3123000 121.4923170  70.5011280
  84.8108250 121.9668990  71.1663130  84.4545950 120.5686690  70.7081310
  89.8111870 122.9524310  64.7901030  88.8702010 122.9674540  64.9648720
  90.1255940 122.1660270  65.2361330  91.8137450 130.1233160  66.4655290
  91.9384870 130.9464330  66.9379100  92.6803010 129.9123890  66.1179440
  79.2854980 132.2164370  66.1372420  80.0217460 131.6679830  66.4080990
  79.6695900 133.0820380  65.9978410  76.1700460 128.2837940  62.0113930
  75.2440240 128.5259080  62.0019340  76.6356890 129.1112200  61.8898680
  87.1277890 127.5090310  75.2733410  86.5216050 127.5321910  74.5329160
  86.8232000 126.7773350  75.8100660  88.5578260 131.2370600  73.8842820
  89.5100010 131.1528620  73.8343060  88.4106480 131.9012310  74.5576610
  91.4487460 130.6164810  59.3834730  91.1628970 130.2029950  58.5688910
  91.2507010 131.5452520  59.2635250  83.0649010 125.2954890  73.8029570
  82.2994680 125.8639890  73.7184240  83.2464970 125.0031100  72.9097800
  78.0434150 122.0313490  75.1644120  78.0839490 121.7327360  76.0729350
  78.8979650 122.4321100  75.0051640  83.6433250 125.0295530  70.8655730
  84.0621360 125.8728260  70.6931970  82.7241880 125.1667570  70.6362510
  85.9797150 122.7611710  72.2493570  86.0993360 122.1652850  72.9888410
  86.8391150 122.7981400  71.8294870  81.4940670 131.3348540  71.9813460
  80.9561760 132.0594600  71.6622160  81.7474630 130.8578880  71.1910800
  82.7465920 119.3033060  73.5069390  83.3365610 118.9948910  74.1947210
  81.9286160 118.8312810  73.6629290  87.5659350 118.9198870  73.7402410
  86.8774870 118.2580410  73.6752400  88.2865370 118.4737140  74.1850870
  79.5154240 117.8042890  57.2583670  79.8180140 117.8110320  56.3502820
  80.2548830 117.4540750  57.7551330  84.3502880 132.5699750  72.2400110
  84.2761580 133.4734890  72.5472480  83.4481720 132.2511650  72.2122180
  82.7339170 116.7477510  58.2439870  82.3861170 116.0701500  57.6642320
  82.9351940 116.2867020  59.0583260  78.5384370 127.1085310  58.0913470
  78.9759240 127.6514980  58.7471050  79.0232100 126.2832260  58.1009810
  75.7530170 129.8974340  65.5433730  76.0833180 129.0295400  65.3112370
  76.1821170 130.1032860  66.3738690  76.2420380 130.7644930  68.2815360
  75.8051370 130.9445730  69.1139510  76.8098060 131.5219550  68.1397080
  91.8782560 130.2661930  72.5692670  91.2784550 130.3254490  71.8256590
  92.0076460 129.3266910  72.6989520  93.1184010 128.0079750  57.9062380
  92.2876970 128.0756400  58.3769610  93.2955840 128.8983870  57.6029240
  92.5740470 124.7527230  60.4096580  93.3359380 125.3223880  60.5156270
  92.5894840 124.1854430  61.1804890  76.0744810 123.2765160  64.6404240
  75.4193650 123.0076800  63.9963940  76.9122760 123.1669640  64.1906220
  93.5800440 125.6077330  65.2538510  93.9509270 124.8244650  64.8474480
  94.2202370 126.2966430  65.0755810  92.6259640 125.0461600  57.5669100
  92.9008480 125.9540480  57.4388320  92.4370380 124.9824130  58.5031090
  89.0235250 118.0706450  58.8622730  89.4420130 117.8837430  58.0219390
  88.7171310 117.2185500  59.1725660  92.5224980 122.9830590  62.5598530
  92.1468580 122.2158520  62.1279820  91.7928100 123.3653290  63.0473460
  90.3512670 117.3558540  74.9717750  91.2282850 117.3641940  75.3551750
  90.3633510 116.6189380  74.3610100  75.2882890 120.4864090  60.5829570
  74.3846970 120.7494290  60.4081230  75.7723510 120.7575260  59.8029530
  77.8310100 119.5429630  58.4923950  78.5401800 119.1212850  58.0071230
  77.1150040 119.6104860  57.8607300  77.4784260 115.5968960  57.5326600
  78.2012390 116.1377900  57.8507820  77.7508780 115.3232380  56.6568140
  91.2875910 120.4661430  61.7998180  91.7835030 120.2332300  62.5847060
  91.0891980 119.6273270  61.3835820  77.1676450 114.8475150  67.4349220
  77.8152640 114.2972530  66.9944380  77.5878290 115.1018300  68.2565030
  92.7163070 119.1022380  64.3335860  92.6062350 118.9478420  65.2718130
  93.4770660 118.5743320  64.0911270  93.6053340 116.9330300  57.5742000
  94.5302650 116.8011480  57.3660290  93.5829130 117.0123120  58.5278450
  93.6791830 117.7040960  60.1998710  92.8843330 117.6386080  60.7291620
  93.8835110 118.6391600  60.1884060  90.6210250 131.7432510  64.1937100
  91.2169320 131.4217080  63.5171520  90.8788400 131.2704330  64.9850370
  76.9208450 115.0030820  70.1774540  76.5723270 115.4594640  70.9432720
  76.5896150 114.1087950  70.2596970  82.2278850 129.7310010  69.9437450
  81.9870210 129.9984570  69.0567970  83.1681490 129.9015740  69.9988310
  87.0707830 115.8512760  73.3386250  87.6848240 116.1692050  72.6767330
  87.6157390 115.3661350  73.9582110  91.1722460 132.3927810  68.0234830
  90.7125430 133.1443620  67.6492850  90.5434920 131.6734280  67.9649630
  77.9973080 128.4871050  70.4133550  77.2707140 127.8676340  70.3459500
  78.0582230 128.8811660  69.5431630  81.6018180 130.7016050  67.1982960
  82.1183200 130.0903410  66.6731220  82.2515560 131.2044830  67.6893970
  85.5590690 115.3314740  68.6048450  84.7762480 115.8060240  68.8845210
  85.2653620 114.4269570  68.4961630  91.9750330 115.6653080  64.6606360
  91.9138730 114.7214300  64.5137380  92.7542360 115.7733170  65.2059820
  76.2803080 131.8045440  63.6230310  76.1125120 131.1716120  64.3212200
  75.4137590 132.0104840  63.2724500  76.9031100 115.6362220  61.1262170
  77.6610460 115.7491100  60.5526200  76.4408270 116.4731420  61.0805600
  83.4444910 117.7501490  64.1164480  82.6319420 117.3758380  63.7760360
  83.9486550 116.9946570  64.4185670  87.9469890 114.4143940  65.3547550
  88.5499260 114.9864150  65.8296070  87.2062880 114.9783380  65.1321450
  77.8865780 130.4978670  61.0680450  77.3613400 130.8786700  60.3642410
  77.8110360 131.1229440  61.7890160  79.2756250 116.1626270  59.6664140
  79.8049010 115.3756070  59.5372090  79.9084570 116.8417460  59.8999670
  81.4694090 115.9001410  62.7209530  80.8396830 115.1988720  62.8879660
  80.9299230 116.6605540  62.5042690  84.4086040 132.5140640  75.3920140
  85.3353350 132.2784910  75.4356100  84.3936470 133.3412640  74.9106170
  92.6431100 132.0566210  62.3894390  92.8183290 131.3703950  61.7455310
  91.9452670 132.5813260  61.9971060  79.6473540 128.5625780  59.9476030
  79.0182420 129.0310880  60.4961860  79.7621370 127.7175000  60.3822220
  88.1965110 114.5938970  75.7342490  88.0830560 114.9133580  76.6294010
  89.0134850 114.9951480  75.4379770  90.9763600 131.7410500  75.2161180
  91.7688920 131.2459730  75.0087140  91.2696750 132.4200640  75.8236790
  87.1023260 122.6131440  46.0977230  87.0217310 121.6986050  45.8268940
  86.6887680 123.1098510  45.3916940  85.2341300 124.3910460  47.9786500
  84.4583400 123.9110900  48.2685070  85.8854230 123.7116110  47.8042660
  79.2507130 124.7030270  48.8562260  78.4192010 124.4478980  49.2558770
  79.8588110 124.7741040  49.5920180  89.2548730 128.7970650  46.7585630
  88.7930260 128.0257890  47.0872800  90.0674280 128.8236720  47.2638080
  79.2308390 128.7370360  49.0520280  79.5336430 127.8468100  48.8730500
  79.9751980 129.2940580  48.8242530  77.6599080 119.6632160  42.6404650
  76.7715780 120.0048130  42.5384530  77.9440270 119.4632480  41.7485480
  75.6232090 122.2637810  48.5244350  76.1948200 121.4960010  48.5247990
  75.6233630 122.5626570  47.6150960  85.4812040 131.0828660  46.3789620
  84.8623480 131.5386160  45.8084060  86.3363820 131.2380120  45.9779320
  84.6750290 127.0667650  47.9856660  84.6058570 126.1257590  47.8245790
  85.4370150 127.1569060  48.5579230  85.7055460 119.8738030  48.2125590
  86.0820280 119.0009910  48.0999260  85.6074970 120.2096730  47.3216030
  79.8360470 118.2463660  43.6743030  79.9427220 119.1467390  43.9811790
  78.9252830 118.1981630  43.3837680  77.4843630 120.1682670  48.9195620
  78.1653740 120.4321040  49.5383020  77.1691680 119.3283540  49.2533630
  81.6768200 121.2150030  48.0068210  82.1846420 121.7131000  48.6473230
  82.2081440 120.4385230  47.8307570  86.3475390 125.9667900  43.7721530
  85.7292660 126.4317350  43.2084250  86.8598640 126.6595380  44.1891040
  81.2107150 125.4943770  50.4505130  80.8776530 126.1212690  51.0926200
  81.3873830 126.0205650  49.6706800  80.4226250 127.4624570  52.2654310
  81.0400250 128.1375650  51.9838760  79.5619370 127.8712550  52.1741810
  75.7158590 126.6524430  41.1461160  75.3386570 127.1411530  40.4146060
  75.9731660 127.3249710  41.7767690  91.3403840 128.9263980  50.1808950
  90.6567360 129.5963090  50.1725620  91.8798130 129.1244630  49.4153810
  83.3247520 115.0540820  46.6046670  83.6322500 114.4987710  45.8882170
  82.3948220 115.1885280  46.4219660  88.8762580 130.7708110  48.8954130
  88.8889740 130.3670400  48.0276390  88.3237800 131.5455400  48.7915560
  90.1708000 127.4924330  43.9844300  90.0604330 126.5498660  44.1093720
  90.1676250 127.8539970  44.8707060  88.2748020 125.6737950  50.2236740
  88.6916810 125.4598060  49.3890200  88.9987840 125.9310740  50.7945360
  92.2210120 124.0725170  50.3152980  91.3928750 124.1418260  49.8403110
  92.8160600 124.6579480  49.8468810  81.3184920 123.6454390  46.1226520
  80.9141920 122.9331640  45.6272420  81.4048040 123.3007630  47.0114560
  81.7866620 127.3321950  48.2865730  81.4894910 126.7267420  47.6073510
  82.7366440 127.3699260  48.1755090  80.0313540 120.4197600  49.9025560
  80.5828130 120.5292940  49.1278810  80.5457050 120.7935200  50.6180790
  89.8752230 130.9053820  51.9488830  89.3982790 131.7126010  51.7561440
  89.1914020 130.2532150  52.1015040  80.8785050 127.0703640  54.9373530
  79.9813580 127.2943610  55.1846930  80.9037920 127.1938580  53.9884930
  79.7056270 123.9416960  53.5130900  79.5664040 124.8139760  53.8818300
  78.8237630 123.5989770  53.3678840  86.0285650 128.8592830  44.8196030
  86.4681560 129.6017160  44.4051420  85.9672540 129.1019400  45.7434990
  91.5007410 115.1739570  39.1655830  91.1880070 115.2666400  40.0654900
  92.2619880 115.7520600  39.1153260  78.0189550 122.5399370  43.6233170
  77.8987150 123.2661460  43.0114440  77.7090440 121.7702280  43.1461080
  93.4551440 130.6665760  57.0180220  93.9311160 131.1448650  57.6969300
  94.0758600 130.5983250  56.2925720  75.6574920 125.7114510  49.4301810
  75.7355340 125.8463280  48.4857530  76.2716600 125.0030400  49.6229930
  76.9022550 127.4114700  45.8407990  76.4950630 127.5529290  44.9861590
  77.7935560 127.1274860  45.6379200  92.8584690 127.8578610  54.1780230
  92.9847750 127.6190490  53.2597410  92.9006070 127.0263150  54.6502310
  88.6955830 131.8461950  42.1759040  88.5356970 131.5564890  43.0740870
  88.5302540 131.0702080  41.6404270  81.1744210 131.6260480  43.9530660
  80.9986690 130.7096020  43.7398460  80.3199950 131.9847770  44.1928460
  88.3981960 129.3549510  40.7357040  87.7047120 129.3526800  40.0759320
  89.1404820 128.9308830  40.3051210  87.9631890 130.9812220  44.8105530
  88.4188840 130.2001600  45.1244150  88.3024410 131.6919040  45.3546710
  92.7108700 119.9111070  55.1429970  92.0952970 120.4190740  54.6145430
  92.3905120 119.0109400  55.0855910  75.7134440 126.7528680  51.9696270
  75.8765480 126.2834040  51.1515640  76.1786890 126.2452240  52.6345110
  80.4853210 115.8834440  47.0056840  80.0421360 116.6643980  46.6741360
  81.0438200 116.2064330  47.7127780  84.7723020 118.7502960  52.6092160
  84.3102390 118.9585980  53.4212100  84.3701130 117.9362310  52.3062830
  89.7727530 119.9711910  53.7388820  88.9221120 119.6717660  54.0597890
  89.6129320 120.2153920  52.8272640  86.8677240 121.4713660  55.8387610
  87.1930650 120.6377410  55.4989840  87.6557570 121.9942180  55.9865940
  83.6012030 115.5045140  41.8862670  82.9766210 115.5005010  42.6115980
  83.5142150 114.6376100  41.4898640  82.5229110 116.4281770  48.8646440
  82.8201440 117.3344600  48.7838460  83.0714670 115.9400550  48.2506010
  80.2767430 121.0068010  44.7338090  80.0508350 120.7905180  45.6384710
  79.4959960 121.4396470  44.3884060  86.1130060 119.6494920  45.3632020
  86.5059630 119.9667120  44.5500710  86.4746910 118.7706800  45.4776540
  84.4222230 118.4002230  56.6228880  83.7320550 118.2074430  57.2574970
  85.1654530 118.6836870  57.1553180  75.1494230 116.2395720  47.5862220
  74.8607280 116.8098580  48.2987200  75.8939990 115.7600170  47.9493450
  86.6985200 122.2400670  49.4582800  85.9666320 122.7487480  49.8072900
  86.3009540 121.4230650  49.1571580  83.1362590 118.9154870  47.8635290
  83.1398650 118.4744820  47.0139830  84.0313710 119.2372200  47.9707110
  78.9864970 118.7981360  46.8229500  78.6465020 119.2756590  47.5796550
  78.2242290 118.3446480  46.4630600  87.1611110 117.6934350  48.8705740
  87.1783850 118.1443000  49.7147590  86.9126690 116.7939990  49.0839180
  90.5881860 115.1066530  54.7092120  90.9127630 114.3756190  55.2350100
  90.6238370 114.7880170  53.8073110  77.2873420 126.1280110  54.1292080
  76.9028210 125.4873780  54.7275040  77.5985610 126.8316230  54.6986810
  83.4370560 122.9756650  49.6100700  83.8040690 122.5015220  50.3562040
  83.2475620 123.8498220  49.9509040  76.3011050 117.7200340  45.7394170
  76.0157970 117.3556010  46.5772790  76.2389910 116.9880800  45.1257310
  81.2269930 122.0165290  51.9284910  80.9227000 122.8957270  52.1535270
  82.1816390 122.0765080  51.9642350  79.7551720 126.2226280  42.5251760
  78.9813980 125.6823900  42.3650480  80.4846350 125.7032890  42.1869520
  90.5139700 125.2191640  48.3178150  91.2338820 125.7146930  47.9274260
  90.3121520 124.5409530  47.6732020  85.9749640 116.6129600  42.4607540
  85.1614250 116.1142770  42.3852850  85.7811590 117.4527850  42.0443890
  85.8958500 125.2900700  54.2047150  85.8295810 124.3696370  53.9504740
  85.2663640 125.3876140  54.9191790  79.7989120 125.8906660  46.1630570
  80.3167790 125.0874920  46.1087460  79.3473140 125.8285800  47.0047400
  77.2833660 122.8568030  53.0756270  76.9248600 123.5221880  53.6629610
  76.9888220 122.0251580  53.4468890  80.4846780 123.3152270  55.9595820
  80.1846920 123.4609450  55.0623640  81.2558020 122.7557560  55.8669210
  90.9612300 122.2961090  40.2249560  90.8776020 122.7275310  39.3746000
  91.6806490 122.7559440  40.6576380  92.0386440 124.7528610  53.3019530
  91.3134630 125.3457390  53.1048920  92.5661900 124.7452150  52.5032900
  91.9899550 129.1503350  42.9531690  91.3475710 128.4958970  43.2275410
  91.6030210 129.5558440  42.1772360  87.5686030 126.4788780  46.8003380
  87.9209850 125.8816910  46.1404750  86.6848360 126.1533010  46.9711630
  83.6549310 127.2386470  44.2073790  84.3420440 127.7855680  44.5881380
  82.8681730 127.7827200  44.2423400  82.9576520 124.2432500  43.8199150
  83.4139300 125.0537750  44.0459340  82.6064730 123.9255640  44.6517640
  78.8588300 114.5870150  44.2921670  78.7302930 114.5788050  45.2406590
  78.0350320 114.9253240  43.9412680  86.5341210 127.7571190  49.7668900
  87.1763440 127.0564350  49.8801070  87.0590560 128.5369630  49.5865790
  90.3796930 128.0419810  39.4908040  90.1534510 127.3250250  40.0832680
  89.9893130 127.7932250  38.6529790  88.3078830 128.5566090  52.9704960
  88.6435070 129.1432780  53.6482880  87.3879170 128.4258800  53.2002750
  76.1612960 132.0686670  40.2652500  76.5210600 132.6676010  39.6109770
  76.0205300 132.6146560  41.0387530  89.9613180 125.9591750  41.1522200
  89.6734880 126.4204440  41.9400080  90.7565350 125.4989520  41.4206420
  76.1454820 130.3341530  54.7394900  76.2545940 129.3936270  54.5990290
  75.4935380 130.5996280  54.0908630  82.1781580 129.4517870  41.0826170
  82.1691680 130.1847560  40.4670680  81.2579940 129.2049450  41.1753130
  77.7788220 124.6732760  41.8272930  77.1716170 125.4131660  41.8368230
  78.2537570 124.7632120  41.0011130  87.3521010 118.8383580  51.5029820
  87.7201830 118.0178790  51.8309390  86.4919210 118.8985470  51.9185470
  85.1641180 129.5146110  39.7451360  85.2653160 129.3110100  38.8153340
  84.2642920 129.2604390  39.9499140  82.6867070 120.0726470  43.7275260
  81.9783220 120.5412810  44.1688870  82.9711550 119.4148480  44.3620450
  84.3123000 121.4923170  51.7267790  84.8108250 121.9668990  52.3919640
  84.4545950 120.5686690  51.9337820  86.7182500 116.7977130  45.1671050
  86.5950280 116.8163260  44.2180560  87.6667060 116.8456070  45.2869450
  83.8059290 132.0332430  44.4399030  84.0600790 131.9953820  43.5178400
  82.8571770 131.9065760  44.4327280  80.8902090 118.3811550  41.1025970
  81.7392620 118.8181700  41.0366160  80.5233360 118.6931810  41.9298030
  79.7893510 124.6343910  39.5761500  80.5556780 124.5225270  40.1386930
  79.8668200 123.9381880  38.9238270  78.4840270 122.0668980  40.2594390
  78.5643860 121.1196490  40.3711790  79.3760020 122.3975860  40.3655050
  91.8137450 130.1233160  47.6911800  91.9384870 130.9464330  48.1635610
  92.6803010 129.9123890  47.3435950  79.2854980 132.2164370  47.3628930
  80.0217460 131.6679830  47.6337500  79.6695900 133.0820380  47.2234920
  76.1700460 128.2837940  43.2370440  75.2440240 128.5259080  43.2275850
  76.6356890 129.1112200  43.1155190  78.2913260 131.4010440  56.5514510
  79.0925990 131.7222490  56.9649910  77.7765080 131.0406020  57.2734420
  82.3957290 131.3894680  39.1854500  83.1885900 131.6783510  38.7336290
  81.8761640 130.9586850  38.5066980  87.1277890 127.5090310  56.4989920
  86.5216050 127.5321910  55.7585670  86.8232000 126.7773350  57.0357170
  91.4487460 130.6164810  40.6091240  91.1628970 130.2029950  39.7945420
  91.2507010 131.5452520  40.4891760  76.0111070 123.8883900  55.4950560
  76.5150090 123.3091180  56.0666790  75.2718490 124.1724130  56.0326930
  83.0649010 125.2954890  55.0286080  82.2994680 125.8639890  54.9440750
  83.2464970 125.0031100  54.1354310  90.2072360 127.0260220  55.5861100
  90.9481830 127.3635980  55.0828560  89.4445040 127.1952280  55.0330870
  78.0434150 122.0313490  56.3900630  78.0839490 121.7327360  57.2985860
  78.8979650 122.4321100  56.2308150  88.8818020 125.0775050  54.1216310
  89.2959040 125.2320130  54.9706730  87.9469020 125.2030270  54.2842090
  89.3540190 122.4171210  56.1255460  89.9360960 121.6623530  56.0375940
  89.5301960 122.9478650  55.3486940  83.2373700 116.1341200  51.4699800
  82.7891000 116.1565460  50.6245350  82.6038900 115.7360220  52.0670100
  83.6433250 125.0295530  52.0912240  84.0621360 125.8728260  51.9188480
  82.7241880 125.1667570  51.8619020  85.9797150 122.7611710  53.4750080
  86.0993360 122.1652850  54.2144920  86.8391150 122.7981400  53.0551380
  88.3185050 123.3148900  52.0512590  87.7920270 123.8391520  51.4477730
  88.6616390 123.9476290  52.6822320  81.4940670 131.3348540  53.2069970
  80.9561760 132.0594600  52.8878670  81.7474630 130.8578880  52.4167310
  82.7465920 119.3033060  54.7325900  83.3365610 118.9948910  55.4203720
  81.9286160 118.8312810  54.8885800  87.5659350 118.9198870  54.9658920
  86.8774870 118.2580410  54.9008910  88.2865370 118.4737140  55.4107380
  88.1959750 115.5150500  41.0249180  88.4762040 114.6718400  41.3808600
  87.4225480 115.7473610  41.5387930  79.5154240 117.8042890  38.4840180
  79.8180140 117.8110320  37.5759330  80.2548830 117.4540750  38.9807840
  82.7339170 116.7477510  39.4696380  82.3861170 116.0701500  38.8898830
  82.9351940 116.2867020  40.2839770  84.8988210 131.7358260  41.0882980
  85.7939000 132.0743230  41.1101740  84.9305840 131.0137670  40.4607260
  78.5384370 127.1085310  39.3169980  78.9759240 127.6514980  39.9727560
  79.0232100 126.2832260  39.3266320  75.7530170 129.8974340  46.7690240
  76.0833180 129.0295400  46.5368880  76.1821170 130.1032860  47.5995200
  80.3492090 128.2283350  44.4292210  80.0487630 128.1048320  45.3296120
  80.2429580 127.3691940  44.0207940  76.2420380 130.7644930  49.5071870
  75.8051370 130.9445730  50.3396020  76.8098060 131.5219550  49.3653590
  91.8782560 130.2661930  53.7949180  91.2784550 130.3254490  53.0513100
  92.0076460 129.3266910  53.9246030  93.1184010 128.0079750  39.1318890
  92.2876970 128.0756400  39.6026120  93.2955840 128.8983870  38.8285750
  92.5740470 124.7527230  41.6353090  93.3359380 125.3223880  41.7412780
  92.5894840 124.1854430  42.4061400  76.0744810 123.2765160  45.8660750
  75.4193650 123.0076800  45.2220450  76.9122760 123.1669640  45.4162730
  90.5634200 126.9913910  51.8925340  89.7494040 127.4211070  52.1551130
  90.9708400 127.6032320  51.2794390  92.6259640 125.0461600  38.7925610
  92.9008480 125.9540480  38.6644830  92.4370380 124.9824130  39.7287600
  89.0235250 118.0706450  40.0879240  89.4420130 117.8837430  39.2475900
  88.7171310 117.2185500  40.3982170  77.1120740 123.6617730  50.4064090
  77.4793780 123.5745130  51.2860110  76.5431560 122.8984280  50.3070950
  91.9124600 122.1302110  53.4194560  91.6810690 121.9014860  52.5192510
  92.1729150 123.0501660  53.3739450  90.3512670 117.3558540  56.1974260
  91.2282850 117.3641940  56.5808260  90.3633510 116.6189380  55.5866610
  75.2882890 120.4864090  41.8086080  74.3846970 120.7494290  41.6337740
  75.7723510 120.7575260  41.0286040  77.4784260 115.5968960  38.7583110
  78.2012390 116.1377900  39.0764330  77.7508780 115.3232380  37.8824650
  77.1676450 114.8475150  48.6605730  77.8152640 114.2972530  48.2200890
  77.5878290 115.1018300  49.4821540  93.6053340 116.9330300  38.7998510
  94.5302650 116.8011480  38.5916800  93.5829130 117.0123120  39.7534960
  93.6791830 117.7040960  41.4255220  92.8843330 117.6386080  41.9548130
  93.8835110 118.6391600  41.4140570  90.6210250 131.7432510  45.4193610
  91.2169320 131.4217080  44.7428030  90.8788400 131.2704330  46.2106880
  78.5272820 128.1750420  55.5684240  78.4842450 127.8043330  56.4498700
  78.6583830 129.1127990  55.7086060  82.2278850 129.7310010  51.1693960
  81.9870210 129.9984570  50.2824480  83.1681490 129.9015740  51.2244820
  87.0707830 115.8512760  54.5642760  87.6848240 116.1692050  53.9023840
  87.6157390 115.3661350  55.1838620  93.4883010 131.7504390  51.9704600
  92.9941290 132.1473260  51.2531730  92.8796300 131.1253600  52.3641880
  78.3660850 131.1212670  52.6882020  77.7721170 130.9897370  53.4272060
  78.3584690 130.2850810  52.2224120  87.8115870 114.4144900  50.8912050
  86.9375710 114.7480010  50.6884980  87.7026620 113.9418080  51.7163920
  88.7187850 116.6215770  52.2753770  88.3901210 115.8067530  51.8955500
  89.6670150 116.5785580  52.1519460  91.1722460 132.3927810  49.2491340
  90.7125430 133.1443620  48.8749360  90.5434920 131.6734280  49.1906140
  77.9973080 128.4871050  51.6390060  77.2707140 127.8676340  51.5716010
  78.0582230 128.8811660  50.7688140  81.6018180 130.7016050  48.4239470
  82.1183200 130.0903410  47.8987730  82.2515560 131.2044830  48.9150480
  84.3413680 131.5924540  49.2508450  84.6291490 131.3378840  48.3741460
  84.8536900 131.0401900  49.8414020  85.5590690 115.3314740  49.8304960
  84.7762480 115.8060240  50.1101720  85.2653620 114.4269570  49.7218140
  76.2803080 131.8045440  44.8486820  76.1125120 131.1716120  45.5468710
  75.4137590 132.0104840  44.4981010  76.9031100 115.6362220  42.3518680
  77.6610460 115.7491100  41.7782710  76.4408270 116.4731420  42.3062110
  83.4444910 117.7501490  45.3420990  82.6319420 117.3758380  45.0016870
  83.9486550 116.9946570  45.6442180  87.9469890 114.4143940  46.5804060
  88.5499260 114.9864150  47.0552580  87.2062880 114.9783380  46.3577960
  91.0904490 114.8165500  41.8544340  91.2855120 115.7148950  42.1211770
  90.3034360 114.5852580  42.3477290  77.8865780 130.4978670  42.2936960
  77.3613400 130.8786700  41.5898920  77.8110360 131.1229440  43.0146670
  79.2756250 116.1626270  40.8920650  79.8049010 115.3756070  40.7628600
  79.9084570 116.8417460  41.1256180  81.4694090 115.9001410  43.9466040
  80.8396830 115.1988720  44.1136170  80.9299230 116.6605540  43.7299200
  92.6431100 132.0566210  43.6150900  92.8183290 131.3703950  42.9711820
  91.9452670 132.5813260  43.2227570  81.5949650 115.1785390  56.3818530
  81.3133920 115.6818990  55.6179350  81.9769350 114.3807140  56.0160660
  80.4858750 132.4461050  41.1686210  81.2177570 132.1620330  40.6210100
  80.7452420 132.2074330  42.0585590  79.6473540 128.5625780  41.1732540
  79.0182420 129.0310880  41.7218370  79.7621370 127.7175000  41.6078730
  87.1023260 122.6131440  27.3233740  87.0217310 121.6986050  27.0525450
  86.6887680 123.1098510  26.6173450  85.2341300 124.3910460  29.2043010
  84.4583400 123.9110900  29.4941580  85.8854230 123.7116110  29.0299170
  79.2507130 124.7030270  30.0818770  78.4192010 124.4478980  30.4815280
  79.8588110 124.7741040  30.8176690  89.2548730 128.7970650  27.9842140
  88.7930260 128.0257890  28.3129310  90.0674280 128.8236720  28.4894590
  79.2308390 128.7370360  30.2776790  79.5336430 127.8468100  30.0987010
  79.9751980 129.2940580  30.0499040  77.6599080 119.6632160  23.8661160
  76.7715780 120.0048130  23.7641040  77.9440270 119.4632480  22.9741990
  75.6232090 122.2637810  29.7500860  76.1948200 121.4960010  29.7504500
  75.6233630 122.5626570  28.8407470  85.4812040 131.0828660  27.6046130
  84.8623480 131.5386160  27.0340570  86.3363820 131.2380120  27.2035830
  84.6750290 127.0667650  29.2113170  84.6058570 126.1257590  29.0502300
  85.4370150 127.1569060  29.7835740  76.8656960 117.6722170  31.5369790
  76.6859800 116.7747920  31.8172550  76.4637040 118.2194040  32.2116740
  85.7055460 119.8738030  29.4382100  86.0820280 119.0009910  29.3255770
  85.6074970 120.2096730  28.5472540  79.8360470 118.2463660  24.8999540
  79.9427220 119.1467390  25.2068300  78.9252830 118.1981630  24.6094190
  89.4879580 117.3688470  26.3710440  90.3089200 116.8785040  26.4135920
  89.5213660 117.9586130  27.1242280  77.4843630 120.1682670  30.1452130
  78.1653740 120.4321040  30.7639530  77.1691680 119.3283540  30.4790140
  81.6768200 121.2150030  29.2324720  82.1846420 121.7131000  29.8729740
  82.2081440 120.4385230  29.0564080  93.7779130 119.3855220  32.9354070
  93.0731300 119.7736930  32.4169180  94.0437050 120.0805510  33.5375000
  79.9604300 115.8548590  33.4988140  79.9622740 116.3720980  32.6934040
  79.1308610 115.3778770  33.4758070  86.3475390 125.9667900  24.9978040
  85.7292660 126.4317350  24.4340760  86.8598640 126.6595380  25.4147550
  81.2107150 125.4943770  31.6761640  80.8776530 126.1212690  32.3182710
  81.3873830 126.0205650  30.8963310  89.7241060 119.3088850  29.1437980
  89.0196630 119.5973740  29.7241090  90.0853220 120.1188960  28.7837540
  79.6419630 117.5658550  31.5058590  79.9836440 118.4100600  31.2112460
  78.7035440 117.7142290  31.6223930  80.4226250 127.4624570  33.4910820
  81.0400250 128.1375650  33.2095270  79.5619370 127.8712550  33.3998320
  75.7158590 126.6524430  22.3717670  75.3386570 127.1411530  21.6402570
  75.9731660 127.3249710  23.0024200  91.3403840 128.9263980  31.4065460
  90.6567360 129.5963090  31.3982130  91.8798130 129.1244630  30.6410320
  92.7927980 118.7543640  29.5347190  91.8452890 118.7882620  29.6662620
  93.1177970 119.5682590  29.9196550  83.3247520 115.0540820  27.8303180
  83.6322500 114.4987710  27.1138680  82.3948220 115.1885280  27.6476170
  88.8762580 130.7708110  30.1210640  88.8889740 130.3670400  29.2532900
  88.3237800 131.5455400  30.0172070  90.1708000 127.4924330  25.2100810
  90.0604330 126.5498660  25.3350230  90.1676250 127.8539970  26.0963570
  88.2748020 125.6737950  31.4493250  88.6916810 125.4598060  30.6146710
  88.9987840 125.9310740  32.0201870  85.7128280 123.1189650  24.5663300
  84.7857560 123.0527030  24.7951770  85.8653100 124.0569780  24.4518540
  85.6997360 119.3906650  21.5630460  84.7601030 119.5520610  21.6482920
  86.0180620 120.1092330  21.0166450  92.2210120 124.0725170  31.5409490
  91.3928750 124.1418260  31.0659620  92.8160600 124.6579480  31.0725320
  89.7425570 124.6809950  25.0698550  89.1237990 124.3429500  24.4224850
  89.7250020 124.0369710  25.7777740  81.3184920 123.6454390  27.3483030
  80.9141920 122.9331640  26.8528930  81.4048040 123.3007630  28.2371070
  81.7866620 127.3321950  29.5122240  81.4894910 126.7267420  28.8330020
  82.7366440 127.3699260  29.4011600  80.0313540 120.4197600  31.1282070
  80.5828130 120.5292940  30.3535320  80.5457050 120.7935200  31.8437300
  89.8752230 130.9053820  33.1745340  89.3982790 131.7126010  32.9817950
  89.1914020 130.2532150  33.3271550  80.8785050 127.0703640  36.1630040
  79.9813580 127.2943610  36.4103440  80.9037920 127.1938580  35.2141440
  87.9190270 123.9196760  22.0771300  88.3583550 123.0819190  21.9309120
  88.6318690 124.5526160  22.1635440  79.7056270 123.9416960  34.7387410
  79.5664040 124.8139760  35.1074810  78.8237630 123.5989770  34.5935350
  86.0285650 128.8592830  26.0452540  86.4681560 129.6017160  25.6307930
  85.9672540 129.1019400  26.9691500  81.5036620 129.8838660  36.9472560
  81.4752050 130.2881610  36.0800990  81.3401590 128.9549020  36.7844160
  91.5007410 115.1739570  20.3912340  91.1880070 115.2666400  21.2911410
  92.2619880 115.7520600  20.3409770  78.0189550 122.5399370  24.8489680
  77.8987150 123.2661460  24.2370950  77.7090440 121.7702280  24.3717590
  93.4551440 130.6665760  38.2436730  93.9311160 131.1448650  38.9225810
  94.0758600 130.5983250  37.5182230  75.6574920 125.7114510  30.6558320
  75.7355340 125.8463280  29.7114040  76.2716600 125.0030400  30.8486440
  76.9022550 127.4114700  27.0664500  76.4950630 127.5529290  26.2118100
  77.7935560 127.1274860  26.8635710  92.8584690 127.8578610  35.4036740
  92.9847750 127.6190490  34.4853920  92.9006070 127.0263150  35.8758820
  86.7201430 131.5606610  33.9731550  87.2346100 131.4714620  34.7753980
  85.8770510 131.9066310  34.2659460  88.6955830 131.8461950  23.4015550
  88.5356970 131.5564890  24.2997380  88.5302540 131.0702080  22.8660780
  81.1744210 131.6260480  25.1787170  80.9986690 130.7096020  24.9654970
  80.3199950 131.9847770  25.4184970  88.3981960 129.3549510  21.9613550
  87.7047120 129.3526800  21.3015830  89.1404820 128.9308830  21.5307720
  87.9631890 130.9812220  26.0362040  88.4188840 130.2001600  26.3500660
  88.3024410 131.6919040  26.5803220  92.7108700 119.9111070  36.3686480
  92.0952970 120.4190740  35.8401940  92.3905120 119.0109400  36.3112420
  75.7134440 126.7528680  33.1952780  75.8765480 126.2834040  32.3772150
  76.1786890 126.2452240  33.8601620  80.4853210 115.8834440  28.2313350
  80.0421360 116.6643980  27.8997870  81.0438200 116.2064330  28.9384290
  83.6012030 115.5045140  23.1119180  82.9766210 115.5005010  23.8372490
  83.5142150 114.6376100  22.7155150  80.2767430 121.0068010  25.9594600
  80.0508350 120.7905180  26.8641220  79.4959960 121.4396470  25.6140570
  87.5065190 121.0131380  24.5585250  86.9074080 121.7367180  24.3748870
  88.0544800 120.9508160  23.7761700  86.1130060 119.6494920  26.5888530
  86.5059630 119.9667120  25.7757220  86.4746910 118.7706800  26.7033050
  77.8477180 118.3167260  34.7788650  77.4540570 119.1642470  34.9861430
  77.1595580 117.6793630  34.9697290  75.3364460 120.1815840  20.0221450
  75.2539130 121.1246600  20.1636440  74.9847520 120.0390750  19.1433800
  83.1362590 118.9154870  29.0891800  83.1398650 118.4744820  28.2396340
  84.0313710 119.2372200  29.1963620  78.9864970 118.7981360  28.0486010
  78.6465020 119.2756590  28.8053060  78.2242290 118.3446480  27.6887110
  83.1982740 119.9166950  22.0798560  83.3195560 119.8753430  23.0284380
  82.8131250 120.7791100  21.9245290  82.2104240 122.2268090  21.4781860
  81.6421140 121.7786340  20.8517770  82.9193240 122.5860870  20.9447010
  90.5881860 115.1066530  35.9348630  90.9127630 114.3756190  36.4606610
  90.6238370 114.7880170  35.0329620  77.2873420 126.1280110  35.3548590
  76.9028210 125.4873780  35.9531550  77.5985610 126.8316230  35.9243320
  83.4370560 122.9756650  30.8357210  83.8040690 122.5015220  31.5818550
  83.2475620 123.8498220  31.1765550  76.3011050 117.7200340  26.9650680
  76.0157970 117.3556010  27.8029300  76.2389910 116.9880800  26.3513820
  79.7551720 126.2226280  23.7508270  78.9813980 125.6823900  23.5906990
  80.4846350 125.7032890  23.4126030  90.5139700 125.2191640  29.5434660
  91.2338820 125.7146930  29.1530770  90.3121520 124.5409530  28.8988530
  85.9749640 116.6129600  23.6864050  85.1614250 116.1142770  23.6109360
  85.7811590 117.4527850  23.2700400  88.6898030 120.9849250  21.9826210
  89.5777650 121.2966480  21.8077550  88.6603120 120.1121500  21.5906790
  79.7989120 125.8906660  27.3887080  80.3167790 125.0874920  27.3343970
  79.3473140 125.8285800  28.2303910  84.6858620 127.1572940  22.6614380
  85.0274320 127.9015170  22.1657700  83.8571330 127.4704060  23.0239210
  85.8275230 128.1121270  35.1807460  85.8419770 127.1802230  34.9626370
  85.1200330 128.1981030  35.8197230  90.9612300 122.2961090  21.4506070
  90.8776020 122.7275310  20.6002510  91.6806490 122.7559440  21.8832890
  92.0386440 124.7528610  34.5276040  91.3134630 125.3457390  34.3305430
  92.5661900 124.7452150  33.7289410  91.9899550 129.1503350  24.1788200
  91.3475710 128.4958970  24.4531920  91.6030210 129.5558440  23.4028870
  87.5686030 126.4788780  28.0259890  87.9209850 125.8816910  27.3661260
  86.6848360 126.1533010  28.1968140  83.6549310 127.2386470  25.4330300
  84.3420440 127.7855680  25.8137890  82.8681730 127.7827200  25.4679910
  75.7941710 122.8559290  20.9247380  76.6636560 123.1384090  21.2083300
  75.3032030 123.6695160  20.8096190  82.9576520 124.2432500  25.0455660
  83.4139300 125.0537750  25.2715850  82.6064730 123.9255640  25.8774150
  85.2609130 129.7538840  32.2747960  85.9051350 129.9598220  32.9521380
  85.6238570 128.9927240  31.8218810  78.8588300 114.5870150  25.5178180
  78.7302930 114.5788050  26.4663100  78.0350320 114.9253240  25.1669190
  86.5341210 127.7571190  30.9925410  87.1763440 127.0564350  31.1057580
  87.0590560 128.5369630  30.8122300  90.3796930 128.0419810  20.7164550
  90.1534510 127.3250250  21.3089190  89.9893130 127.7932250  19.8786300
  88.3078830 128.5566090  34.1961470  88.6435070 129.1432780  34.8739390
  87.3879170 128.4258800  34.4259260  76.1612960 132.0686670  21.4909010
  76.5210600 132.6676010  20.8366280  76.0205300 132.6146560  22.2644040
  75.8582230 116.3461270  34.9784880  75.1440750 116.5458190  35.5837490
  76.2777270 115.5700840  35.3499680  89.9613180 125.9591750  22.3778710
  89.6734880 126.4204440  23.1656590  90.7565350 125.4989520  22.6462930
  76.1454820 130.3341530  35.9651410  76.2545940 129.3936270  35.8246800
  75.4935380 130.5996280  35.3165140  84.1367410 128.6057420  37.3649530
  83.8164280 127.8866660  37.9095220  83.4625770 129.2812490  37.4385590
  82.1781580 129.4517870  22.3082680  82.1691680 130.1847560  21.6927190
  81.2579940 129.2049450  22.4009640  77.7788220 124.6732760  23.0529440
  77.1716170 125.4131660  23.0624740  78.2537570 124.7632120  22.2267640
  90.7183040 117.7940520  23.5373890  90.0896200 117.8986190  22.8232120
  90.2234960 118.0137300  24.3267770  85.1641180 129.5146110  20.9707870
  85.2653160 129.3110100  20.0409850  84.2642920 129.2604390  21.1755650
  82.6867070 120.0726470  24.9531770  81.9783220 120.5412810  25.3945380
  82.9711550 119.4148480  25.5876960  86.7182500 116.7977130  26.3927560
  86.5950280 116.8163260  25.4437070  87.6667060 116.8456070  26.5125960
  83.8059290 132.0332430  25.6655540  84.0600790 131.9953820  24.7434910
  82.8571770 131.9065760  25.6583790  80.8902090 118.3811550  22.3282480
  81.7392620 118.8181700  22.2622670  80.5233360 118.6931810  23.1554540
  91.5189860 117.7091130  33.7952690  91.0163460 118.4496530  34.1346500
  92.3346520 118.0975130  33.4789480  89.8111870 122.9524310  27.2414050
  88.8702010 122.9674540  27.4161740  90.1255940 122.1660270  27.6874350
  79.7893510 124.6343910  20.8018010  80.5556780 124.5225270  21.3643440
  79.8668200 123.9381880  20.1494780  78.4840270 122.0668980  21.4850900
  78.5643860 121.1196490  21.5968300  79.3760020 122.3975860  21.5911560
  91.8137450 130.1233160  28.9168310  91.9384870 130.9464330  29.3892120
  92.6803010 129.9123890  28.5692460  79.2854980 132.2164370  28.5885440
  80.0217460 131.6679830  28.8594010  79.6695900 133.0820380  28.4491430
  76.1700460 128.2837940  24.4626950  75.2440240 128.5259080  24.4532360
  76.6356890 129.1112200  24.3411700  78.2913260 131.4010440  37.7771020
  79.0925990 131.7222490  38.1906420  77.7765080 131.0406020  38.4990930
  82.3957290 131.3894680  20.4111010  83.1885900 131.6783510  19.9592800
  81.8761640 130.9586850  19.7323490  87.1277890 127.5090310  37.7246430
  86.5216050 127.5321910  36.9842180  86.8232000 126.7773350  38.2613680
  88.5578260 131.2370600  36.3355840  89.5100010 131.1528620  36.2856080
  88.4106480 131.9012310  37.0089630  91.4487460 130.6164810  21.8347750
  91.1628970 130.2029950  21.0201930  91.2507010 131.5452520  21.7148270
  82.9134690 126.6098090  20.2753360  82.8085330 125.9950440  21.0014740
  82.7458910 126.0863980  19.4916370  86.1537420 125.6718120  20.8795350
  85.6047520 126.1187420  21.5238090  86.7756680 125.1667370  21.4033020
  90.2072360 127.0260220  36.8117610  90.9481830 127.3635980  36.3085070
  89.4445040 127.1952280  36.2587380  81.8212540 124.6309040  22.7760650
  82.2428960 124.4648910  23.6192040  81.9463380 123.8209270  22.2815790
  84.3340180 123.6546650  20.0237750  84.8545840 122.9395670  19.6578900
  84.9808580 124.2932520  20.3238260  83.6433250 125.0295530  33.3168750
  84.0621360 125.8728260  33.1444990  82.7241880 125.1667570  33.0875530
  80.7171440 120.7042270  19.7218810  80.5160500 119.8409630  20.0832150
  80.5463490 120.6175630  18.7840410  81.4940670 131.3348540  34.4326480
  80.9561760 132.0594600  34.1135180  81.7474630 130.8578880  33.6423820
  88.1959750 115.5150500  22.2505690  88.4762040 114.6718400  22.6065110
  87.4225480 115.7473610  22.7644440  79.5154240 117.8042890  19.7096690
  79.8180140 117.8110320  18.8015840  80.2548830 117.4540750  20.2064350
  84.3502880 132.5699750  34.6913130  84.2761580 133.4734890  34.9985500
  83.4481720 132.2511650  34.6635200  82.7339170 116.7477510  20.6952890
  82.3861170 116.0701500  20.1155340  82.9351940 116.2867020  21.5096280
  84.8988210 131.7358260  22.3139490  85.7939000 132.0743230  22.3358250
  84.9305840 131.0137670  21.6863770  78.5384370 127.1085310  20.5426490
  78.9759240 127.6514980  21.1984070  79.0232100 126.2832260  20.5522830
  75.7530170 129.8974340  27.9946750  76.0833180 129.0295400  27.7625390
  76.1821170 130.1032860  28.8251710  80.3492090 128.2283350  25.6548720
  80.0487630 128.1048320  26.5552630  80.2429580 127.3691940  25.2464450
  76.2420380 130.7644930  30.7328380  75.8051370 130.9445730  31.5652530
  76.8098060 131.5219550  30.5910100  91.8782560 130.2661930  35.0205690
  91.2784550 130.3254490  34.2769610  92.0076460 129.3266910  35.1502540
  93.1184010 128.0079750  20.3575400  92.2876970 128.0756400  20.8282630
  93.2955840 128.8983870  20.0542260  92.5740470 124.7527230  22.8609600
  93.3359380 125.3223880  22.9669290  92.5894840 124.1854430  23.6317910
  76.0744810 123.2765160  27.0917260  75.4193650 123.0076800  26.4476960
  76.9122760 123.1669640  26.6419240  93.5800440 125.6077330  27.7051530
  93.9509270 124.8244650  27.2987500  94.2202370 126.2966430  27.5268830
  90.5634200 126.9913910  33.1181850  89.7494040 127.4211070  33.3807640
  90.9708400 127.6032320  32.5050900  92.6259640 125.0461600  20.0182120
  92.9008480 125.9540480  19.8901340  92.4370380 124.9824130  20.9544110
  89.0235250 118.0706450  21.3135750  89.4420130 117.8837430  20.4732410
  88.7171310 117.2185500  21.6238680  92.5224980 122.9830590  25.0111550
  92.1468580 122.2158520  24.5792840  91.7928100 123.3653290  25.4986480
  77.1120740 123.6617730  31.6320600  77.4793780 123.5745130  32.5116620
  76.5431560 122.8984280  31.5327460  91.9124600 122.1302110  34.6451070
  91.6810690 121.9014860  33.7449020  92.1729150 123.0501660  34.5995960
  90.3512670 117.3558540  37.4230770  91.2282850 117.3641940  37.8064770
  90.3633510 116.6189380  36.8123120  75.2882890 120.4864090  23.0342590
  74.3846970 120.7494290  22.8594250  75.7723510 120.7575260  22.2542550
  91.7975940 121.2088080  28.3118790  92.3213420 120.7150730  27.6808960
  92.3835360 121.3438440  29.0566360  91.9765660 121.2927950  31.8338340
  91.0268370 121.2591490  31.9483330  92.1578670 122.2028060  31.5988110
  77.8310100 119.5429630  20.9436970  78.5401800 119.1212850  20.4584250
  77.1150040 119.6104860  20.3120320  77.4784260 115.5968960  19.9839620
  78.2012390 116.1377900  20.3020840  77.7508780 115.3232380  19.1081160
  91.2875910 120.4661430  24.2511200  91.7835030 120.2332300  25.0360080
  91.0891980 119.6273270  23.8348840  92.7163070 119.1022380  26.7848880
  92.6062350 118.9478420  27.7231150  93.4770660 118.5743320  26.5424290
  91.0628790 115.0416510  33.2431880  91.7001010 115.6550650  33.6091070
  91.2103680 115.0777170  32.2981110  93.6053340 116.9330300  20.0255020
  94.5302650 116.8011480  19.8173310  93.5829130 117.0123120  20.9791470
  93.6791830 117.7040960  22.6511730  92.8843330 117.6386080  23.1804640
  93.8835110 118.6391600  22.6397080  90.6210250 131.7432510  26.6450120
  91.2169320 131.4217080  25.9684540  90.8788400 131.2704330  27.4363390
  76.9208450 115.0030820  32.6287560  76.5723270 115.4594640  33.3945740
  76.5896150 114.1087950  32.7109990  78.5272820 128.1750420  36.7940750
  78.4842450 127.8043330  37.6755210  78.6583830 129.1127990  36.9342570
  82.2278850 129.7310010  32.3950470  81.9870210 129.9984570  31.5080990
  83.1681490 129.9015740  32.4501330  93.4883010 131.7504390  33.1961110
  92.9941290 132.1473260  32.4788240  92.8796300 131.1253600  33.5898390
  77.5929090 114.5307020  35.9038330  78.1412080 114.3495070  35.1404440
  77.6584400 113.7401130  36.4394640  78.3660850 131.1212670  33.9138530
  77.7721170 130.9897370  34.6528570  78.3584690 130.2850810  33.4480630
  91.1722460 132.3927810  30.4747850  90.7125430 133.1443620  30.1005870
  90.5434920 131.6734280  30.4162650  77.9973080 128.4871050  32.8646570
  77.2707140 127.8676340  32.7972520  78.0582230 128.8811660  31.9944650
  81.6018180 130.7016050  29.6495980  82.1183200 130.0903410  29.1244240
  82.2515560 131.2044830  30.1406990  84.3413680 131.5924540  30.4764960
  84.6291490 131.3378840  29.5997970  84.8536900 131.0401900  31.0670530
  90.1111760 116.0337840  29.1010560  90.5519850 115.9782940  28.2532160
  89.8419350 116.9495850  29.1720740  91.9750330 115.6653080  27.1119380
  91.9138730 114.7214300  26.9650400  92.7542360 115.7733170  27.6572840
  76.2803080 131.8045440  26.0743330  76.1125120 131.1716120  26.7725220
  75.4137590 132.0104840  25.7237520  76.9031100 115.6362220  23.5775190
  77.6610460 115.7491100  23.0039220  76.4408270 116.4731420  23.5318620
  83.4444910 117.7501490  26.5677500  82.6319420 117.3758380  26.2273380
  83.9486550 116.9946570  26.8698690  87.9469890 114.4143940  27.8060570
  88.5499260 114.9864150  28.2809090  87.2062880 114.9783380  27.5834470
  91.0904490 114.8165500  23.0800850  91.2855120 115.7148950  23.3468280
  90.3034360 114.5852580  23.5733800  77.8865780 130.4978670  23.5193470
  77.3613400 130.8786700  22.8155430  77.8110360 131.1229440  24.2403180
  79.2756250 116.1626270  22.1177160  79.8049010 115.3756070  21.9885110
  79.9084570 116.8417460  22.3512690  81.4694090 115.9001410  25.1722550
  80.8396830 115.1988720  25.3392680  80.9299230 116.6605540  24.9555710
  84.4086040 132.5140640  37.8433160  85.3353350 132.2784910  37.8869120
  84.3936470 133.3412640  37.3619190  92.6431100 132.0566210  24.8407410
  92.8183290 131.3703950  24.1968330  91.9452670 132.5813260  24.4484080
  81.5949650 115.1785390  37.6075040  81.3133920 115.6818990  36.8435860
  81.9769350 114.3807140  37.2417170  80.4858750 132.4461050  22.3942720
  81.2177570 132.1620330  21.8466610  80.7452420 132.2074330  23.2842100
  79.6473540 128.5625780  22.3989050  79.0182420 129.0310880  22.9474880
  79.7621370 127.7175000  22.8335240  88.1965110 114.5938970  38.1855510
  88.0830560 114.9133580  39.0807030  89.0134850 114.9951480  37.8892790
  90.9763600 131.7410500  37.6674200  91.7688920 131.2459730  37.4600160
  91.2696750 132.4200640  38.2749810  87.1023260 122.6131440   8.5490250
  87.0217310 121.6986050   8.2781960  86.6887680 123.1098510   7.8429960
  85.2341300 124.3910460  10.4299520  84.4583400 123.9110900  10.7198090
  85.8854230 123.7116110  10.2555680  79.2507130 124.7030270  11.3075280
  78.4192010 124.4478980  11.7071790  79.8588110 124.7741040  12.0433200
  89.2548730 128.7970650   9.2098650  88.7930260 128.0257890   9.5385820
  90.0674280 128.8236720   9.7151100  79.2308390 128.7370360  11.5033300
  79.5336430 127.8468100  11.3243520  79.9751980 129.2940580  11.2755550
  77.6599080 119.6632160   5.0917670  76.7715780 120.0048130   4.9897550
  77.9440270 119.4632480   4.1998500  75.6232090 122.2637810  10.9757370
  76.1948200 121.4960010  10.9761010  75.6233630 122.5626570  10.0663980
  85.4812040 131.0828660   8.8302640  84.8623480 131.5386160   8.2597080
  86.3363820 131.2380120   8.4292340  84.6750290 127.0667650  10.4369680
  84.6058570 126.1257590  10.2758810  85.4370150 127.1569060  11.0092250
  76.8656960 117.6722170  12.7626300  76.6859800 116.7747920  13.0429060
  76.4637040 118.2194040  13.4373250  85.7055460 119.8738030  10.6638610
  86.0820280 119.0009910  10.5512280  85.6074970 120.2096730   9.7729050
  79.8360470 118.2463660   6.1256050  79.9427220 119.1467390   6.4324810
  78.9252830 118.1981630   5.8350700  89.4879580 117.3688470   7.5966950
  90.3089200 116.8785040   7.6392430  89.5213660 117.9586130   8.3498790
  77.4843630 120.1682670  11.3708640  78.1653740 120.4321040  11.9896040
  77.1691680 119.3283540  11.7046650  81.6768200 121.2150030  10.4581230
  82.1846420 121.7131000  11.0986250  82.2081440 120.4385230  10.2820590
  93.7779130 119.3855220  14.1610580  93.0731300 119.7736930  13.6425690
  94.0437050 120.0805510  14.7631510  79.9604300 115.8548590  14.7244650
  79.9622740 116.3720980  13.9190550  79.1308610 115.3778770  14.7014580
  86.3475390 125.9667900   6.2234550  85.7292660 126.4317350   5.6597270
  86.8598640 126.6595380   6.6404060  81.2107150 125.4943770  12.9018150
  80.8776530 126.1212690  13.5439220  81.3873830 126.0205650  12.1219820
  89.7241060 119.3088850  10.3694490  89.0196630 119.5973740  10.9497600
  90.0853220 120.1188960  10.0094050  79.6419630 117.5658550  12.7315100
  79.9836440 118.4100600  12.4368970  78.7035440 117.7142290  12.8480440
  80.4226250 127.4624570  14.7167330  81.0400250 128.1375650  14.4351780
  79.5619370 127.8712550  14.6254830  75.7158590 126.6524430   3.5974180
  75.3386570 127.1411530   2.8659080  75.9731660 127.3249710   4.2280710
  91.3403840 128.9263980  12.6321970  90.6567360 129.5963090  12.6238640
  91.8798130 129.1244630  11.8666830  92.7927980 118.7543640  10.7603700
  91.8452890 118.7882620  10.8919130  93.1177970 119.5682590  11.1453060
  83.3247520 115.0540820   9.0559690  83.6322500 114.4987710   8.3395190
  82.3948220 115.1885280   8.8732680  88.8762580 130.7708110  11.3467150
  88.8889740 130.3670400  10.4789410  88.3237800 131.5455400  11.2428580
  90.1708000 127.4924330   6.4357320  90.0604330 126.5498660   6.5606740
  90.1676250 127.8539970   7.3220080  88.2748020 125.6737950  12.6749760
  88.6916810 125.4598060  11.8403220  88.9987840 125.9310740  13.2458380
  85.7128280 123.1189650   5.7919810  84.7857560 123.0527030   6.0208280
  85.8653100 124.0569780   5.6775050  85.6997360 119.3906650   2.7886970
  84.7601030 119.5520610   2.8739430  86.0180620 120.1092330   2.2422960
  92.2210120 124.0725170  12.7666000  91.3928750 124.1418260  12.2916130
  92.8160600 124.6579480  12.2981830  89.7425570 124.6809950   6.2955060
  89.1237990 124.3429500   5.6481360  89.7250020 124.0369710   7.0034250
  89.1852130 120.8594490  13.7120870  88.7723310 121.6848200  13.9660860
  88.4528080 120.2739530  13.5197230  81.3184920 123.6454390   8.5739540
  80.9141920 122.9331640   8.0785440  81.4048040 123.3007630   9.4627580
  81.7866620 127.3321950  10.7378750  81.4894910 126.7267420  10.0586530
  82.7366440 127.3699260  10.6268110  80.0313540 120.4197600  12.3538580
  80.5828130 120.5292940  11.5791830  80.5457050 120.7935200  13.0693810
  89.8752230 130.9053820  14.4001850  89.3982790 131.7126010  14.2074460
  89.1914020 130.2532150  14.5528060  80.8785050 127.0703640  17.3886550
  79.9813580 127.2943610  17.6359950  80.9037920 127.1938580  16.4397950
  87.9190270 123.9196760   3.3027810  88.3583550 123.0819190   3.1565630
  88.6318690 124.5526160   3.3891950  79.7056270 123.9416960  15.9643920
  79.5664040 124.8139760  16.3331320  78.8237630 123.5989770  15.8191860
  86.0285650 128.8592830   7.2709050  86.4681560 129.6017160   6.8564440
  85.9672540 129.1019400   8.1948010  81.5036620 129.8838660  18.1729070
  81.4752050 130.2881610  17.3057500  81.3401590 128.9549020  18.0100670
  78.0189550 122.5399370   6.0746190  77.8987150 123.2661460   5.4627460
  77.7090440 121.7702280   5.5974100  93.4551440 130.6665760  19.4693240
  93.9311160 131.1448650  20.1482320  94.0758600 130.5983250  18.7438740
  75.6574920 125.7114510  11.8814830  75.7355340 125.8463280  10.9370550
  76.2716600 125.0030400  12.0742950  76.9022550 127.4114700   8.2921010
  76.4950630 127.5529290   7.4374610  77.7935560 127.1274860   8.0892220
  92.8584690 127.8578610  16.6293250  92.9847750 127.6190490  15.7110430
  92.9006070 127.0263150  17.1015330  86.7201430 131.5606610  15.1988060
  87.2346100 131.4714620  16.0010490  85.8770510 131.9066310  15.4915970
  88.6955830 131.8461950   4.6272060  88.5356970 131.5564890   5.5253890
  88.5302540 131.0702080   4.0917290  81.1744210 131.6260480   6.4043680
  80.9986690 130.7096020   6.1911480  80.3199950 131.9847770   6.6441480
  88.3981960 129.3549510   3.1870060  87.7047120 129.3526800   2.5272340
  89.1404820 128.9308830   2.7564230  87.9631890 130.9812220   7.2618550
  88.4188840 130.2001600   7.5757170  88.3024410 131.6919040   7.8059730
  92.7108700 119.9111070  17.5942990  92.0952970 120.4190740  17.0658450
  92.3905120 119.0109400  17.5368930  75.7134440 126.7528680  14.4209290
  75.8765480 126.2834040  13.6028660  76.1786890 126.2452240  15.0858130
  80.4853210 115.8834440   9.4569860  80.0421360 116.6643980   9.1254380
  81.0438200 116.2064330  10.1640800  84.7723020 118.7502960  15.0605180
  84.3102390 118.9585980  15.8725120  84.3701130 117.9362310  14.7575850
  89.7727530 119.9711910  16.1901840  88.9221120 119.6717660  16.5110910
  89.6129320 120.2153920  15.2785660  86.8677240 121.4713660  18.2900630
  87.1930650 120.6377410  17.9502860  87.6557570 121.9942180  18.4378960
  83.6012030 115.5045140   4.3375690  82.9766210 115.5005010   5.0629000
  83.5142150 114.6376100   3.9411660  82.5229110 116.4281770  11.3159460
  82.8201440 117.3344600  11.2351480  83.0714670 115.9400550  10.7019030
  80.2767430 121.0068010   7.1851110  80.0508350 120.7905180   8.0897730
  79.4959960 121.4396470   6.8397080  87.5065190 121.0131380   5.7841760
  86.9074080 121.7367180   5.6005380  88.0544800 120.9508160   5.0018210
  82.7166640 121.9053590  17.8511380  82.6210240 120.9648320  17.7011780
  83.5598620 122.1268660  17.4559450  86.1130060 119.6494920   7.8145040
  86.5059630 119.9667120   7.0013730  86.4746910 118.7706800   7.9289560
  77.8477180 118.3167260  16.0045160  77.4540570 119.1642470  16.2117940
  77.1595580 117.6793630  16.1953800  84.4222230 118.4002230  19.0741900
  83.7320550 118.2074430  19.7087990  85.1654530 118.6836870  19.6066200
  75.1494230 116.2395720  10.0375240  74.8607280 116.8098580  10.7500220
  75.8939990 115.7600170  10.4006470  86.6985200 122.2400670  11.9095820
  85.9666320 122.7487480  12.2585920  86.3009540 121.4230650  11.6084600
  83.1362590 118.9154870  10.3148310  83.1398650 118.4744820   9.4652850
  84.0313710 119.2372200  10.4220130  78.9864970 118.7981360   9.2742520
  78.6465020 119.2756590  10.0309570  78.2242290 118.3446480   8.9143620
  83.1982740 119.9166950   3.3055070  83.3195560 119.8753430   4.2540890
  82.8131250 120.7791100   3.1501800  87.1611110 117.6934350  11.3218760
  87.1783850 118.1443000  12.1660610  86.9126690 116.7939990  11.5352200
  82.2104240 122.2268090   2.7038370  81.6421140 121.7786340   2.0774280
  82.9193240 122.5860870   2.1703520  90.5881860 115.1066530  17.1605140
  90.9127630 114.3756190  17.6863120  90.6238370 114.7880170  16.2586130
  77.2873420 126.1280110  16.5805100  76.9028210 125.4873780  17.1788060
  77.5985610 126.8316230  17.1499830  83.4370560 122.9756650  12.0613720
  83.8040690 122.5015220  12.8075060  83.2475620 123.8498220  12.4022060
  76.3011050 117.7200340   8.1907190  76.0157970 117.3556010   9.0285810
  76.2389910 116.9880800   7.5770330  81.2269930 122.0165290  14.3797930
  80.9227000 122.8957270  14.6048290  82.1816390 122.0765080  14.4155370
  79.7551720 126.2226280   4.9764780  78.9813980 125.6823900   4.8163500
  80.4846350 125.7032890   4.6382540  90.5139700 125.2191640  10.7691170
  91.2338820 125.7146930  10.3787280  90.3121520 124.5409530  10.1245040
  85.9749640 116.6129600   4.9120560  85.1614250 116.1142770   4.8365870
  85.7811590 117.4527850   4.4956910  85.8958500 125.2900700  16.6560170
  85.8295810 124.3696370  16.4017760  85.2663640 125.3876140  17.3704810
  88.6898030 120.9849250   3.2082720  89.5777650 121.2966480   3.0334060
  88.6603120 120.1121500   2.8163300  79.7989120 125.8906660   8.6143590
  80.3167790 125.0874920   8.5600480  79.3473140 125.8285800   9.4560420
  84.6858620 127.1572940   3.8870890  85.0274320 127.9015170   3.3914210
  83.8571330 127.4704060   4.2495720  77.2833660 122.8568030  15.5269290
  76.9248600 123.5221880  16.1142630  76.9888220 122.0251580  15.8981910
  80.4846780 123.3152270  18.4108840  80.1846920 123.4609450  17.5136660
  81.2558020 122.7557560  18.3182230  85.8275230 128.1121270  16.4063970
  85.8419770 127.1802230  16.1882880  85.1200330 128.1981030  17.0453740
  90.9612300 122.2961090   2.6762580  90.8776020 122.7275310   1.8259020
  91.6806490 122.7559440   3.1089400  92.0386440 124.7528610  15.7532550
  91.3134630 125.3457390  15.5561940  92.5661900 124.7452150  14.9545920
  91.9899550 129.1503350   5.4044710  91.3475710 128.4958970   5.6788430
  91.6030210 129.5558440   4.6285380  87.5686030 126.4788780   9.2516400
  87.9209850 125.8816910   8.5917770  86.6848360 126.1533010   9.4224650
  83.6549310 127.2386470   6.6586810  84.3420440 127.7855680   7.0394400
  82.8681730 127.7827200   6.6936420  75.7941710 122.8559290   2.1503890
  76.6636560 123.1384090   2.4339810  75.3032030 123.6695160   2.0352700
  82.9576520 124.2432500   6.2712170  83.4139300 125.0537750   6.4972360
  82.6064730 123.9255640   7.1030660  85.2609130 129.7538840  13.5004470
  85.9051350 129.9598220  14.1777890  85.6238570 128.9927240  13.0475320
  78.8588300 114.5870150   6.7434690  78.7302930 114.5788050   7.6919610
  78.0350320 114.9253240   6.3925700  86.5341210 127.7571190  12.2181920
  87.1763440 127.0564350  12.3314090  87.0590560 128.5369630  12.0378810
  88.3078830 128.5566090  15.4217980  88.6435070 129.1432780  16.0995900
  87.3879170 128.4258800  15.6515770  76.1612960 132.0686670   2.7165520
  76.5210600 132.6676010   2.0622790  76.0205300 132.6146560   3.4900550
  75.8582230 116.3461270  16.2041390  75.1440750 116.5458190  16.8094000
  76.2777270 115.5700840  16.5756190  89.9613180 125.9591750   3.6035220
  89.6734880 126.4204440   4.3913100  90.7565350 125.4989520   3.8719440
  76.1454820 130.3341530  17.1907920  76.2545940 129.3936270  17.0503310
  75.4935380 130.5996280  16.5421650  84.1367410 128.6057420  18.5906040
  83.8164280 127.8866660  19.1351730  83.4625770 129.2812490  18.6642100
  82.1781580 129.4517870   3.5339190  82.1691680 130.1847560   2.9183700
  81.2579940 129.2049450   3.6266150  77.7788220 124.6732760   4.2785950
  77.1716170 125.4131660   4.2881250  78.2537570 124.7632120   3.4524150
  87.3521010 118.8383580  13.9542840  87.7201830 118.0178790  14.2822410
  86.4919210 118.8985470  14.3698490  90.7183040 117.7940520   4.7630400
  90.0896200 117.8986190   4.0488630  90.2234960 118.0137300   5.5524280
  82.6867070 120.0726470   6.1788280  81.9783220 120.5412810   6.6201890
  82.9711550 119.4148480   6.8133470  84.3123000 121.4923170  14.1780810
  84.8108250 121.9668990  14.8432660  84.4545950 120.5686690  14.3850840
  86.7182500 116.7977130   7.6184070  86.5950280 116.8163260   6.6693580
  87.6667060 116.8456070   7.7382470  83.8059290 132.0332430   6.8912050
  84.0600790 131.9953820   5.9691420  82.8571770 131.9065760   6.8840300
  80.8902090 118.3811550   3.5538990  81.7392620 118.8181700   3.4879180
  80.5233360 118.6931810   4.3811050  91.5189860 117.7091130  15.0209200
  91.0163460 118.4496530  15.3603010  92.3346520 118.0975130  14.7045990
  89.8111870 122.9524310   8.4670560  88.8702010 122.9674540   8.6418250
  90.1255940 122.1660270   8.9130860  78.4840270 122.0668980   2.7107410
  78.5643860 121.1196490   2.8224810  79.3760020 122.3975860   2.8168070
  91.8137450 130.1233160  10.1424820  91.9384870 130.9464330  10.6148630
  92.6803010 129.9123890   9.7948970  79.2854980 132.2164370   9.8141950
  80.0217460 131.6679830  10.0850520  79.6695900 133.0820380   9.6747940
  76.1700460 128.2837940   5.6883460  75.2440240 128.5259080   5.6788870
  76.6356890 129.1112200   5.5668210  78.2913260 131.4010440  19.0027530
  79.0925990 131.7222490  19.4162930  77.7765080 131.0406020  19.7247440
  87.1277890 127.5090310  18.9502940  86.5216050 127.5321910  18.2098690
  86.8232000 126.7773350  19.4870190  88.5578260 131.2370600  17.5612350
  89.5100010 131.1528620  17.5112590  88.4106480 131.9012310  18.2346140
  91.4487460 130.6164810   3.0604260  91.1628970 130.2029950   2.2458440
  91.2507010 131.5452520   2.9404780  76.0111070 123.8883900  17.9463580
  76.5150090 123.3091180  18.5179810  75.2718490 124.1724130  18.4839950
  83.0649010 125.2954890  17.4799100  82.2994680 125.8639890  17.3953770
  83.2464970 125.0031100  16.5867330  86.1537420 125.6718120   2.1051860
  85.6047520 126.1187420   2.7494600  86.7756680 125.1667370   2.6289530
  90.2072360 127.0260220  18.0374120  90.9481830 127.3635980  17.5341580
  89.4445040 127.1952280  17.4843890  78.0434150 122.0313490  18.8413650
  78.0839490 121.7327360  19.7498880  78.8979650 122.4321100  18.6821170
  81.8212540 124.6309040   4.0017160  82.2428960 124.4648910   4.8448550
  81.9463380 123.8209270   3.5072300  79.9839960 120.6105590  16.8088140
  79.4536420 120.1196540  16.1811480  80.6528030 121.0389790  16.2746070
  88.8818020 125.0775050  16.5729330  89.2959040 125.2320130  17.4219750
  87.9469020 125.2030270  16.7355110  89.3540190 122.4171210  18.5768480
  89.9360960 121.6623530  18.4888960  89.5301960 122.9478650  17.7999960
  80.4712260 117.5767960  16.8885430  80.3769130 116.9588710  16.1636300
  79.8909650 118.3034250  16.6615340  83.2373700 116.1341200  13.9212820
  82.7891000 116.1565460  13.0758370  82.6038900 115.7360220  14.5183120
  83.6433250 125.0295530  14.5425260  84.0621360 125.8728260  14.3701500
  82.7241880 125.1667570  14.3132040  85.9797150 122.7611710  15.9263100
  86.0993360 122.1652850  16.6657940  86.8391150 122.7981400  15.5064400
  88.3185050 123.3148900  14.5025610  87.7920270 123.8391520  13.8990750
  88.6616390 123.9476290  15.1335340  81.4940670 131.3348540  15.6582990
  80.9561760 132.0594600  15.3391690  81.7474630 130.8578880  14.8680330
  82.7465920 119.3033060  17.1838920  83.3365610 118.9948910  17.8716740
  81.9286160 118.8312810  17.3398820  87.5659350 118.9198870  17.4171940
  86.8774870 118.2580410  17.3521930  88.2865370 118.4737140  17.8620400
  88.1959750 115.5150500   3.4762200  88.4762040 114.6718400   3.8321620
  87.4225480 115.7473610   3.9900950  84.3502880 132.5699750  15.9169640
  84.2761580 133.4734890  16.2242010  83.4481720 132.2511650  15.8891710
  84.8988210 131.7358260   3.5396000  85.7939000 132.0743230   3.5614760
  84.9305840 131.0137670   2.9120280  78.5384370 127.1085310   1.7683000
  78.9759240 127.6514980   2.4240580  79.0232100 126.2832260   1.7779340
  75.7530170 129.8974340   9.2203260  76.0833180 129.0295400   8.9881900
  76.1821170 130.1032860  10.0508220  80.3492090 128.2283350   6.8805230
  80.0487630 128.1048320   7.7809140  80.2429580 127.3691940   6.4720960
  76.2420380 130.7644930  11.9584890  75.8051370 130.9445730  12.7909040
  76.8098060 131.5219550  11.8166610  91.8782560 130.2661930  16.2462200
  91.2784550 130.3254490  15.5026120  92.0076460 129.3266910  16.3759050
  92.5740470 124.7527230   4.0866110  93.3359380 125.3223880   4.1925800
  92.5894840 124.1854430   4.8574420  76.0744810 123.2765160   8.3173770
  75.4193650 123.0076800   7.6733470  76.9122760 123.1669640   7.8675750
  93.5800440 125.6077330   8.9308040  93.9509270 124.8244650   8.5244010
  94.2202370 126.2966430   8.7525340  90.5634200 126.9913910  14.3438360
  89.7494040 127.4211070  14.6064150  90.9708400 127.6032320  13.7307410
  89.0235250 118.0706450   2.5392260  89.4420130 117.8837430   1.6988920
  88.7171310 117.2185500   2.8495190  92.5224980 122.9830590   6.2368060
  92.1468580 122.2158520   5.8049350  91.7928100 123.3653290   6.7242990
  77.1120740 123.6617730  12.8577110  77.4793780 123.5745130  13.7373130
  76.5431560 122.8984280  12.7583970  91.9124600 122.1302110  15.8707580
  91.6810690 121.9014860  14.9705530  92.1729150 123.0501660  15.8252470
  76.6636740 120.5726820  16.7635530  75.7692790 120.5393580  17.1029240
  77.2034290 120.7713610  17.5286780  90.3512670 117.3558540  18.6487280
  91.2282850 117.3641940  19.0321280  90.3633510 116.6189380  18.0379630
  75.2882890 120.4864090   4.2599100  74.3846970 120.7494290   4.0850760
  75.7723510 120.7575260   3.4799060  91.7975940 121.2088080   9.5375300
  92.3213420 120.7150730   8.9065470  92.3835360 121.3438440  10.2822870
  91.9765660 121.2927950  13.0594850  91.0268370 121.2591490  13.1739840
  92.1578670 122.2028060  12.8244620  91.2875910 120.4661430   5.4767710
  91.7835030 120.2332300   6.2616590  91.0891980 119.6273270   5.0605350
  77.1676450 114.8475150  11.1118750  77.8152640 114.2972530  10.6713910
  77.5878290 115.1018300  11.9334560  92.7163070 119.1022380   8.0105390
  92.6062350 118.9478420   8.9487660  93.4770660 118.5743320   7.7680800
  91.0628790 115.0416510  14.4688390  91.7001010 115.6550650  14.8347580
  91.2103680 115.0777170  13.5237620  93.6791830 117.7040960   3.8768240
  92.8843330 117.6386080   4.4061150  93.8835110 118.6391600   3.8653590
  90.6210250 131.7432510   7.8706630  91.2169320 131.4217080   7.1941050
  90.8788400 131.2704330   8.6619900  76.9208450 115.0030820  13.8544070
  76.5723270 115.4594640  14.6202250  76.5896150 114.1087950  13.9366500
  78.5272820 128.1750420  18.0197260  78.4842450 127.8043330  18.9011720
  78.6583830 129.1127990  18.1599080  82.2278850 129.7310010  13.6206980
  81.9870210 129.9984570  12.7337500  83.1681490 129.9015740  13.6757840
  84.4333270 116.1942700  17.3763490  84.3722160 116.7864530  18.1258900
  85.3733650 116.0868660  17.2313750  87.0707830 115.8512760  17.0155780
  87.6848240 116.1692050  16.3536860  87.6157390 115.3661350  17.6351640
  93.4883010 131.7504390  14.4217620  92.9941290 132.1473260  13.7044750
  92.8796300 131.1253600  14.8154900  77.5929090 114.5307020  17.1294840
  78.1412080 114.3495070  16.3660950  77.6584400 113.7401130  17.6651150
  78.3660850 131.1212670  15.1395040  77.7721170 130.9897370  15.8785080
  78.3584690 130.2850810  14.6737140  87.8115870 114.4144900  13.3425070
  86.9375710 114.7480010  13.1398000  87.7026620 113.9418080  14.1676940
  88.7187850 116.6215770  14.7266790  88.3901210 115.8067530  14.3468520
  89.6670150 116.5785580  14.6032480  91.1722460 132.3927810  11.7004360
  90.7125430 133.1443620  11.3262380  90.5434920 131.6734280  11.6419160
  77.9973080 128.4871050  14.0903080  77.2707140 127.8676340  14.0229030
  78.0582230 128.8811660  13.2201160  81.6018180 130.7016050  10.8752490
  82.1183200 130.0903410  10.3500750  82.2515560 131.2044830  11.3663500
  84.3413680 131.5924540  11.7021470  84.6291490 131.3378840  10.8254480
  84.8536900 131.0401900  12.2927040  85.5590690 115.3314740  12.2817980
  84.7762480 115.8060240  12.5614740  85.2653620 114.4269570  12.1731160
  90.1111760 116.0337840  10.3267070  90.5519850 115.9782940   9.4788670
  89.8419350 116.9495850  10.3977250  91.9750330 115.6653080   8.3375890
  91.9138730 114.7214300   8.1906910  92.7542360 115.7733170   8.8829350
  76.2803080 131.8045440   7.2999840  76.1125120 131.1716120   7.9981730
  75.4137590 132.0104840   6.9494030  76.9031100 115.6362220   4.8031700
  77.6610460 115.7491100   4.2295730  76.4408270 116.4731420   4.7575130
  83.4444910 117.7501490   7.7934010  82.6319420 117.3758380   7.4529890
  83.9486550 116.9946570   8.0955200  87.9469890 114.4143940   9.0317080
  88.5499260 114.9864150   9.5065600  87.2062880 114.9783380   8.8090980
  91.0904490 114.8165500   4.3057360  91.2855120 115.7148950   4.5724790
  90.3034360 114.5852580   4.7990310  77.8865780 130.4978670   4.7449980
  77.3613400 130.8786700   4.0411940  77.8110360 131.1229440   5.4659690
  79.2756250 116.1626270   3.3433670  79.8049010 115.3756070   3.2141620
  79.9084570 116.8417460   3.5769200  81.4694090 115.9001410   6.3979060
  80.8396830 115.1988720   6.5649190  80.9299230 116.6605540   6.1812220
  84.4086040 132.5140640  19.0689670  85.3353350 132.2784910  19.1125630
  84.3936470 133.3412640  18.5875700  92.6431100 132.0566210   6.0663920
  92.8183290 131.3703950   5.4224840  91.9452670 132.5813260   5.6740590
  81.5949650 115.1785390  18.8331550  81.3133920 115.6818990  18.0692370
  81.9769350 114.3807140  18.4673680  80.4858750 132.4461050   3.6199230
  81.2177570 132.1620330   3.0723120  80.7452420 132.2074330   4.5098610
  79.6473540 128.5625780   3.6245560  79.0182420 129.0310880   4.1731390
  79.7621370 127.7175000   4.0591750  88.1965110 114.5938970  19.4112020
  88.0830560 114.9133580  20.3063540  89.0134850 114.9951480  19.1149300
  90.9763600 131.7410500  18.8930710  91.7688920 131.2459730  18.6856670
  91.2696750 132.4200640  19.5006320  87.1023260 103.8387950 139.9694680
  87.0217310 102.9242560 139.6986390  86.6887680 104.3355020 139.2634390
  85.2341300 105.6166970 141.8503950  84.4583400 105.1367410 142.1402520
  85.8854230 104.9372620 141.6760110  79.2507130 105.9286780 142.7279710
  78.4192010 105.6735490 143.1276220  79.8588110 105.9997550 143.4637630
  89.2548730 110.0227160 140.6303080  88.7930260 109.2514400 140.9590250
  90.0674280 110.0493230 141.1355530  79.2308390 109.9626870 142.9237730
  79.5336430 109.0724610 142.7447950  79.9751980 110.5197090 142.6959980
  77.6599080 100.8888670 136.5122100  76.7715780 101.2304640 136.4101980
  77.9440270 100.6888990 135.6202930  75.6232090 103.4894320 142.3961800
  76.1948200 102.7216520 142.3965440  75.6233630 103.7883080 141.4868410
  85.4812040 112.3085170 140.2507070  84.8623480 112.7642670 139.6801510
  86.3363820 112.4636630 139.8496770  84.6750290 108.2924160 141.8574110
  84.6058570 107.3514100 141.6963240  85.4370150 108.3825570 142.4296680
  76.8656960  98.8978680 144.1830730  76.6859800  98.0004430 144.4633490
  76.4637040  99.4450550 144.8577680  85.7055460 101.0994540 142.0843040
  86.0820280 100.2266420 141.9716710  85.6074970 101.4353240 141.1933480
  79.8360470  99.4720170 137.5460480  79.9427220 100.3723900 137.8529240
  78.9252830  99.4238140 137.2555130  89.4879580  98.5944980 139.0171380
  90.3089200  98.1041550 139.0596860  89.5213660  99.1842640 139.7703220
  77.4843630 101.3939180 142.7913070  78.1653740 101.6577550 143.4100470
  77.1691680 100.5540050 143.1251080  81.6768200 102.4406540 141.8785660
  82.1846420 102.9387510 142.5190680  82.2081440 101.6641740 141.7025020
  93.7779130 100.6111730 145.5815010  93.0731300 100.9993440 145.0630120
  94.0437050 101.3062020 146.1835940  79.9604300  97.0805100 146.1449080
  79.9622740  97.5977490 145.3394980  79.1308610  96.6035280 146.1219010
  86.3475390 107.1924410 137.6438980  85.7292660 107.6573860 137.0801700
  86.8598640 107.8851890 138.0608490  81.2107150 106.7200280 144.3222580
  80.8776530 107.3469200 144.9643650  81.3873830 107.2462160 143.5424250
  89.7241060 100.5345360 141.7898920  89.0196630 100.8230250 142.3702030
  90.0853220 101.3445470 141.4298480  79.6419630  98.7915060 144.1519530
  79.9836440  99.6357110 143.8573400  78.7035440  98.9398800 144.2684870
  80.4226250 108.6881080 146.1371760  81.0400250 109.3632160 145.8556210
  79.5619370 109.0969060 146.0459260  75.7158590 107.8780940 135.0178610
  75.3386570 108.3668040 134.2863510  75.9731660 108.5506220 135.6485140
  91.3403840 110.1520490 144.0526400  90.6567360 110.8219600 144.0443070
  91.8798130 110.3501140 143.2871260  92.7927980  99.9800150 142.1808130
  91.8452890 100.0139130 142.3123560  93.1177970 100.7939100 142.5657490
  83.3247520  96.2797330 140.4764120  83.6322500  95.7244220 139.7599620
  82.3948220  96.4141790 140.2937110  88.8762580 111.9964620 142.7671580
  88.8889740 111.5926910 141.8993840  88.3237800 112.7711910 142.6633010
  90.1708000 108.7180840 137.8561750  90.0604330 107.7755170 137.9811170
  90.1676250 109.0796480 138.7424510  88.2748020 106.8994460 144.0954190
  88.6916810 106.6854570 143.2607650  88.9987840 107.1567250 144.6662810
  85.7128280 104.3446160 137.2124240  84.7857560 104.2783540 137.4412710
  85.8653100 105.2826290 137.0979480  85.6997360 100.6163160 134.2091400
  84.7601030 100.7777120 134.2943860  86.0180620 101.3348840 133.6627390
  92.2210120 105.2981680 144.1870430  91.3928750 105.3674770 143.7120560
  92.8160600 105.8835990 143.7186260  89.7425570 105.9066460 137.7159490
  89.1237990 105.5686010 137.0685790  89.7250020 105.2626220 138.4238680
  89.1852130 102.0851000 145.1325300  88.7723310 102.9104710 145.3865290
  88.4528080 101.4996040 144.9401660  81.3184920 104.8710900 139.9943970
  80.9141920 104.1588150 139.4989870  81.4048040 104.5264140 140.8832010
  81.7866620 108.5578460 142.1583180  81.4894910 107.9523930 141.4790960
  82.7366440 108.5955770 142.0472540  80.0313540 101.6454110 143.7743010
  80.5828130 101.7549450 142.9996260  80.5457050 102.0191710 144.4898240
  89.8752230 112.1310330 145.8206280  89.3982790 112.9382520 145.6278890
  89.1914020 111.4788660 145.9732490  80.8785050 108.2960150 148.8090980
  79.9813580 108.5200120 149.0564380  80.9037920 108.4195090 147.8602380
  87.9190270 105.1453270 134.7232240  88.3583550 104.3075700 134.5770060
  88.6318690 105.7782670 134.8096380  79.7056270 105.1673470 147.3848350
  79.5664040 106.0396270 147.7535750  78.8237630 104.8246280 147.2396290
  86.0285650 110.0849340 138.6913480  86.4681560 110.8273670 138.2768870
  85.9672540 110.3275910 139.6152440  81.5036620 111.1095170 149.5933500
  81.4752050 111.5138120 148.7261930  81.3401590 110.1805530 149.4305100
  91.5007410  96.3996080 133.0373280  91.1880070  96.4922910 133.9372350
  92.2619880  96.9777110 132.9870710  78.0189550 103.7655880 137.4950620
  77.8987150 104.4917970 136.8831890  77.7090440 102.9958790 137.0178530
  75.6574920 106.9371020 143.3019260  75.7355340 107.0719790 142.3574980
  76.2716600 106.2286910 143.4947380  76.9022550 108.6371210 139.7125440
  76.4950630 108.7785800 138.8579040  77.7935560 108.3531370 139.5096650
  92.8584690 109.0835120 148.0497680  92.9847750 108.8447000 147.1314860
  92.9006070 108.2519660 148.5219760  86.7201430 112.7863120 146.6192490
  87.2346100 112.6971130 147.4214920  85.8770510 113.1322820 146.9120400
  88.6955830 113.0718460 136.0476490  88.5356970 112.7821400 136.9458320
  88.5302540 112.2958590 135.5121720  81.1744210 112.8516990 137.8248110
  80.9986690 111.9352530 137.6115910  80.3199950 113.2104280 138.0645910
  88.3981960 110.5806020 134.6074490  87.7047120 110.5783310 133.9476770
  89.1404820 110.1565340 134.1768660  87.9631890 112.2068730 138.6822980
  88.4188840 111.4258110 138.9961600  88.3024410 112.9175550 139.2264160
  92.7108700 101.1367580 149.0147420  92.0952970 101.6447250 148.4862880
  92.3905120 100.2365910 148.9573360  75.7134440 107.9785190 145.8413720
  75.8765480 107.5090550 145.0233090  76.1786890 107.4708750 146.5062560
  80.4853210  97.1090950 140.8774290  80.0421360  97.8900490 140.5458810
  81.0438200  97.4320840 141.5845230  84.7723020  99.9759470 146.4809610
  84.3102390 100.1842490 147.2929550  84.3701130  99.1618820 146.1780280
  89.7727530 101.1968420 147.6106270  88.9221120 100.8974170 147.9315340
  89.6129320 101.4410430 146.6990090  86.8677240 102.6970170 149.7105060
  87.1930650 101.8633920 149.3707290  87.6557570 103.2198690 149.8583390
  83.6012030  96.7301650 135.7580120  82.9766210  96.7261520 136.4833430
  83.5142150  95.8632610 135.3616090  82.5229110  97.6538280 142.7363890
  82.8201440  98.5601110 142.6555910  83.0714670  97.1657060 142.1223460
  80.2767430 102.2324520 138.6055540  80.0508350 102.0161690 139.5102160
  79.4959960 102.6652980 138.2601510  87.5065190 102.2387890 137.2046190
  86.9074080 102.9623690 137.0209810  88.0544800 102.1764670 136.4222640
  82.7166640 103.1310100 149.2715810  82.6210240 102.1904830 149.1216210
  83.5598620 103.3525170 148.8763880  86.1130060 100.8751430 139.2349470
  86.5059630 101.1923630 138.4218160  86.4746910  99.9963310 139.3493990
  77.8477180  99.5423770 147.4249590  77.4540570 100.3898980 147.6322370
  77.1595580  98.9050140 147.6158230  75.1494230  97.4652230 141.4579670
  74.8607280  98.0355090 142.1704650  75.8939990  96.9856680 141.8210900
  75.3364460 101.4072350 132.6682390  75.2539130 102.3503110 132.8097380
  74.9847520 101.2647260 131.7894740  86.6985200 103.4657180 143.3300250
  85.9666320 103.9743990 143.6790350  86.3009540 102.6487160 143.0289030
  83.1362590 100.1411380 141.7352740  83.1398650  99.7001330 140.8857280
  84.0313710 100.4628710 141.8424560  78.9864970 100.0237870 140.6946950
  78.6465020 100.5013100 141.4514000  78.2242290  99.5702990 140.3348050
  83.1982740 101.1423460 134.7259500  83.3195560 101.1009940 135.6745320
  82.8131250 102.0047610 134.5706230  87.1611110  98.9190860 142.7423190
  87.1783850  99.3699510 143.5865040  86.9126690  98.0196500 142.9556630
  82.2104240 103.4524600 134.1242800  81.6421140 103.0042850 133.4978710
  82.9193240 103.8117380 133.5907950  90.5881860  96.3323040 148.5809570
  90.9127630  95.6012700 149.1067550  90.6238370  96.0136680 147.6790560
  77.2873420 107.3536620 148.0009530  76.9028210 106.7130290 148.5992490
  77.5985610 108.0572740 148.5704260  83.4370560 104.2013160 143.4818150
  83.8040690 103.7271730 144.2279490  83.2475620 105.0754730 143.8226490
  76.3011050  98.9456850 139.6111620  76.0157970  98.5812520 140.4490240
  76.2389910  98.2137310 138.9974760  81.2269930 103.2421800 145.8002360
  80.9227000 104.1213780 146.0252720  82.1816390 103.3021590 145.8359800
  79.7551720 107.4482790 136.3969210  78.9813980 106.9080410 136.2367930
  80.4846350 106.9289400 136.0586970  90.5139700 106.4448150 142.1895600
  91.2338820 106.9403440 141.7991710  90.3121520 105.7666040 141.5449470
  85.9749640  97.8386110 136.3324990  85.1614250  97.3399280 136.2570300
  85.7811590  98.6784360 135.9161340  85.8958500 106.5157210 148.0764600
  85.8295810 105.5952880 147.8222190  85.2663640 106.6132650 148.7909240
  88.6898030 102.2105760 134.6287150  89.5777650 102.5222990 134.4538490
  88.6603120 101.3378010 134.2367730  79.7989120 107.1163170 140.0348020
  80.3167790 106.3131430 139.9804910  79.3473140 107.0542310 140.8764850
  84.6858620 108.3829450 135.3075320  85.0274320 109.1271680 134.8118640
  83.8571330 108.6960570 135.6700150  77.2833660 104.0824540 146.9473720
  76.9248600 104.7478390 147.5347060  76.9888220 103.2508090 147.3186340
  80.4846780 104.5408780 149.8313270  80.1846920 104.6865960 148.9341090
  81.2558020 103.9814070 149.7386660  85.8275230 109.3377780 147.8268400
  85.8419770 108.4058740 147.6087310  85.1200330 109.4237540 148.4658170
  90.9612300 103.5217600 134.0967010  90.8776020 103.9531820 133.2463450
  91.6806490 103.9815950 134.5293830  92.0386440 105.9785120 147.1736980
  91.3134630 106.5713900 146.9766370  92.5661900 105.9708660 146.3750350
  91.9899550 110.3759860 136.8249140  91.3475710 109.7215480 137.0992860
  91.6030210 110.7814950 136.0489810  87.5686030 107.7045290 140.6720830
  87.9209850 107.1073420 140.0122200  86.6848360 107.3789520 140.8429080
  83.6549310 108.4642980 138.0791240  84.3420440 109.0112190 138.4598830
  82.8681730 109.0083710 138.1140850  75.7941710 104.0815800 133.5708320
  76.6636560 104.3640600 133.8544240  75.3032030 104.8951670 133.4557130
  82.9576520 105.4689010 137.6916600  83.4139300 106.2794260 137.9176790
  82.6064730 105.1512150 138.5235090  85.2609130 110.9795350 144.9208900
  85.9051350 111.1854730 145.5982320  85.6238570 110.2183750 144.4679750
  78.8588300  95.8126660 138.1639120  78.7302930  95.8044560 139.1124040
  78.0350320  96.1509750 137.8130130  86.5341210 108.9827700 143.6386350
  87.1763440 108.2820860 143.7518520  87.0590560 109.7626140 143.4583240
  90.3796930 109.2676320 133.3625490  90.1534510 108.5506760 133.9550130
  89.9893130 109.0188760 132.5247240  88.3078830 109.7822600 146.8422410
  88.6435070 110.3689290 147.5200330  87.3879170 109.6515310 147.0720200
  76.1612960 113.2943180 134.1369950  76.5210600 113.8932520 133.4827220
  76.0205300 113.8403070 134.9104980  75.8582230  97.5717780 147.6245820
  75.1440750  97.7714700 148.2298430  76.2777270  96.7957350 147.9960620
  89.9613180 107.1848260 135.0239650  89.6734880 107.6460950 135.8117530
  90.7565350 106.7246030 135.2923870  76.1454820 111.5598040 148.6112350
  76.2545940 110.6192780 148.4707740  75.4935380 111.8252790 147.9626080
  82.1781580 110.6774380 134.9543620  82.1691680 111.4104070 134.3388130
  81.2579940 110.4305960 135.0470580  77.7788220 105.8989270 135.6990380
  77.1716170 106.6388170 135.7085680  78.2537570 105.9888630 134.8728580
  87.3521010 100.0640090 145.3747270  87.7201830  99.2435300 145.7026840
  86.4919210 100.1241980 145.7902920  90.7183040  99.0197030 136.1834830
  90.0896200  99.1242700 135.4693060  90.2234960  99.2393810 136.9728710
  85.1641180 110.7402620 133.6168810  85.2653160 110.5366610 132.6870790
  84.2642920 110.4860900 133.8216590  82.6867070 101.2982980 137.5992710
  81.9783220 101.7669320 138.0406320  82.9711550 100.6404990 138.2337900
  84.3123000 102.7179680 145.5985240  84.8108250 103.1925500 146.2637090
  84.4545950 101.7943200 145.8055270  86.7182500  98.0233640 139.0388500
  86.5950280  98.0419770 138.0898010  87.6667060  98.0712580 139.1586900
  83.8059290 113.2588940 138.3116480  84.0600790 113.2210330 137.3895850
  82.8571770 113.1322270 138.3044730  80.8902090  99.6068060 134.9743420
  81.7392620 100.0438210 134.9083610  80.5233360  99.9188320 135.8015480
  91.5189860  98.9347640 146.4413630  91.0163460  99.6753040 146.7807440
  92.3346520  99.3231640 146.1250420  89.8111870 104.1780820 139.8874990
  88.8702010 104.1931050 140.0622680  90.1255940 103.3916780 140.3335290
  79.7893510 105.8600420 133.4478950  80.5556780 105.7481780 134.0104380
  79.8668200 105.1638390 132.7955720  78.4840270 103.2925490 134.1311840
  78.5643860 102.3453000 134.2429240  79.3760020 103.6232370 134.2372500
  91.8137450 111.3489670 141.5629250  91.9384870 112.1720840 142.0353060
  92.6803010 111.1380400 141.2153400  79.2854980 113.4420880 141.2346380
  80.0217460 112.8936340 141.5054950  79.6695900 114.3076890 141.0952370
  76.1700460 109.5094450 137.1087890  75.2440240 109.7515590 137.0993300
  76.6356890 110.3368710 136.9872640  82.3957290 112.6151190 133.0571950
  83.1885900 112.9040020 132.6053740  81.8761640 112.1843360 132.3784430
  88.5578260 112.4627110 148.9816780  89.5100010 112.3785130 148.9317020
  88.4106480 113.1268820 149.6550570  91.4487460 111.8421320 134.4808690
  91.1628970 111.4286460 133.6662870  91.2507010 112.7709030 134.3609210
  76.0111070 105.1140410 149.3668010  76.5150090 104.5347690 149.9384240
  75.2718490 105.3980640 149.9044380  82.9134690 107.8354600 132.9214300
  82.8085330 107.2206950 133.6475680  82.7458910 107.3120490 132.1377310
  83.0649010 106.5211400 148.9003530  82.2994680 107.0896400 148.8158200
  83.2464970 106.2287610 148.0071760  86.1537420 106.8974630 133.5256290
  85.6047520 107.3443930 134.1699030  86.7756680 106.3923880 134.0493960
  90.2072360 108.2516730 149.4578550  90.9481830 108.5892490 148.9546010
  89.4445040 108.4208790 148.9048320  81.8212540 105.8565550 135.4221590
  82.2428960 105.6905420 136.2652980  81.9463380 105.0465780 134.9276730
  79.9839960 101.8362100 148.2292570  79.4536420 101.3453050 147.6015910
  80.6528030 102.2646300 147.6950500  84.3340180 104.8803160 132.6698690
  84.8545840 104.1652180 132.3039840  84.9808580 105.5189030 132.9699200
  88.8818020 106.3031560 147.9933760  89.2959040 106.4576640 148.8424180
  87.9469020 106.4286780 148.1559540  89.3540190 103.6427720 149.9972910
  89.9360960 102.8880040 149.9093390  89.5301960 104.1735160 149.2204390
  80.4712260  98.8024470 148.3089860  80.3769130  98.1845220 147.5840730
  79.8909650  99.5290760 148.0819770  83.2373700  97.3597710 145.3417250
  82.7891000  97.3821970 144.4962800  82.6038900  96.9616730 145.9387550
  83.6433250 106.2552040 145.9629690  84.0621360 107.0984770 145.7905930
  82.7241880 106.3924080 145.7336470  85.9797150 103.9868220 147.3467530
  86.0993360 103.3909360 148.0862370  86.8391150 104.0237910 146.9268830
  88.3185050 104.5405410 145.9230040  87.7920270 105.0648030 145.3195180
  88.6616390 105.1732800 146.5539770  80.7171440 101.9298780 132.3679750
  80.5160500 101.0666140 132.7293090  80.5463490 101.8432140 131.4301350
  81.4940670 112.5605050 147.0787420  80.9561760 113.2851110 146.7596120
  81.7474630 112.0835390 146.2884760  82.7465920 100.5289570 148.6043350
  83.3365610 100.2205420 149.2921170  81.9286160 100.0569320 148.7603250
  87.5659350 100.1455380 148.8376370  86.8774870  99.4836920 148.7726360
  88.2865370  99.6993650 149.2824830  88.1959750  96.7407010 134.8966630
  88.4762040  95.8974910 135.2526050  87.4225480  96.9730120 135.4105380
  79.5154240  99.0299400 132.3557630  79.8180140  99.0366830 131.4476780
  80.2548830  98.6797260 132.8525290  84.3502880 113.7956260 147.3374070
  84.2761580 114.6991400 147.6446440  83.4481720 113.4768160 147.3096140
  82.7339170  97.9734020 133.3413830  82.3861170  97.2958010 132.7616280
  82.9351940  97.5123530 134.1557220  84.8988210 112.9614770 134.9600430
  85.7939000 113.2999740 134.9819190  84.9305840 112.2394180 134.3324710
  78.5384370 108.3341820 133.1887430  78.9759240 108.8771490 133.8445010
  79.0232100 107.5088770 133.1983770  75.7530170 111.1230850 140.6407690
  76.0833180 110.2551910 140.4086330  76.1821170 111.3289370 141.4712650
  80.3492090 109.4539860 138.3009660  80.0487630 109.3304830 139.2013570
  80.2429580 108.5948450 137.8925390  76.2420380 111.9901440 143.3789320
  75.8051370 112.1702240 144.2113470  76.8098060 112.7476060 143.2371040
  91.8782560 111.4918440 147.6666630  91.2784550 111.5511000 146.9230550
  92.0076460 110.5523420 147.7963480  93.1184010 109.2336260 133.0036340
  92.2876970 109.3012910 133.4743570  93.2955840 110.1240380 132.7003200
  92.5740470 105.9783740 135.5070540  93.3359380 106.5480390 135.6130230
  92.5894840 105.4110940 136.2778850  76.0744810 104.5021670 139.7378200
  75.4193650 104.2333310 139.0937900  76.9122760 104.3926150 139.2880180
  93.5800440 106.8333840 140.3512470  93.9509270 106.0501160 139.9448440
  94.2202370 107.5222940 140.1729770  90.5634200 108.2170420 145.7642790
  89.7494040 108.6467580 146.0268580  90.9708400 108.8288830 145.1511840
  92.6259640 106.2718110 132.6643060  92.9008480 107.1796990 132.5362280
  92.4370380 106.2080640 133.6005050  89.0235250  99.2962960 133.9596690
  89.4420130  99.1093940 133.1193350  88.7171310  98.4442010 134.2699620
  92.5224980 104.2087100 137.6572490  92.1468580 103.4415030 137.2253780
  91.7928100 104.5909800 138.1447420  77.1120740 104.8874240 144.2781540
  77.4793780 104.8001640 145.1577560  76.5431560 104.1240790 144.1788400
  91.9124600 103.3558620 147.2912010  91.6810690 103.1271370 146.3909960
  92.1729150 104.2758170 147.2456900  76.6636740 101.7983330 148.1839960
  75.7692790 101.7650090 148.5233670  77.2034290 101.9970120 148.9491210
  75.2882890 101.7120600 135.6803530  74.3846970 101.9750800 135.5055190
  75.7723510 101.9831770 134.9003490  91.7975940 102.4344590 140.9579730
  92.3213420 101.9407240 140.3269900  92.3835360 102.5694950 141.7027300
  91.9765660 102.5184460 144.4799280  91.0268370 102.4848000 144.5944270
  92.1578670 103.4284570 144.2449050  77.8310100 100.7686140 133.5897910
  78.5401800 100.3469360 133.1045190  77.1150040 100.8361370 132.9581260
  91.2875910 101.6917940 136.8972140  91.7835030 101.4588810 137.6821020
  91.0891980 100.8529780 136.4809780  77.1676450  96.0731660 142.5323180
  77.8152640  95.5229040 142.0918340  77.5878290  96.3274810 143.3538990
  92.7163070 100.3278890 139.4309820  92.6062350 100.1734930 140.3692090
  93.4770660  99.7999830 139.1885230  91.0628790  96.2673020 145.8892820
  91.7001010  96.8807160 146.2552010  91.2103680  96.3033680 144.9442050
  93.6053340  98.1586810 132.6715960  94.5302650  98.0267990 132.4634250
  93.5829130  98.2379630 133.6252410  93.6791830  98.9297470 135.2972670
  92.8843330  98.8642590 135.8265580  93.8835110  99.8648110 135.2858020
  90.6210250 112.9689020 139.2911060  91.2169320 112.6473590 138.6145480
  90.8788400 112.4960840 140.0824330  76.9208450  96.2287330 145.2748500
  76.5723270  96.6851150 146.0406680  76.5896150  95.3344460 145.3570930
  82.2278850 110.9566520 145.0411410  81.9870210 111.2241080 144.1541930
  83.1681490 111.1272250 145.0962270  84.4333270  97.4199210 148.7967920
  84.3722160  98.0121040 149.5463330  85.3733650  97.3125170 148.6518180
  87.0707830  97.0769270 148.4360210  87.6848240  97.3948560 147.7741290
  87.6157390  96.5917860 149.0556070  93.4883010 112.9760900 145.8422050
  92.9941290 113.3729770 145.1249180  92.8796300 112.3510110 146.2359330
  77.5929090  95.7563530 148.5499270  78.1412080  95.5751580 147.7865380
  77.6584400  94.9657640 149.0855580  78.3660850 112.3469180 146.5599470
  77.7721170 112.2153880 147.2989510  78.3584690 111.5107320 146.0941570
  87.8115870  95.6401410 144.7629500  86.9375710  95.9736520 144.5602430
  87.7026620  95.1674590 145.5881370  88.7187850  97.8472280 146.1471220
  88.3901210  97.0324040 145.7672950  89.6670150  97.8042090 146.0236910
  91.1722460 113.6184320 143.1208790  90.7125430 114.3700130 142.7466810
  90.5434920 112.8990790 143.0623590  77.9973080 109.7127560 145.5107510
  77.2707140 109.0932850 145.4433460  78.0582230 110.1068170 144.6405590
  81.6018180 111.9272560 142.2956920  82.1183200 111.3159920 141.7705180
  82.2515560 112.4301340 142.7867930  84.3413680 112.8181050 143.1225900
  84.6291490 112.5635350 142.2458910  84.8536900 112.2658410 143.7131470
  85.5590690  96.5571250 143.7022410  84.7762480  97.0316750 143.9819170
  85.2653620  95.6526080 143.5935590  90.1111760  97.2594350 141.7471500
  90.5519850  97.2039450 140.8993100  89.8419350  98.1752360 141.8181680
  91.9750330  96.8909590 139.7580320  91.9138730  95.9470810 139.6111340
  92.7542360  96.9989680 140.3033780  76.2803080 113.0301950 138.7204270
  76.1125120 112.3972630 139.4186160  75.4137590 113.2361350 138.3698460
  76.9031100  96.8618730 136.2236130  77.6610460  96.9747610 135.6500160
  76.4408270  97.6987930 136.1779560  83.4444910  98.9758000 139.2138440
  82.6319420  98.6014890 138.8734320  83.9486550  98.2203080 139.5159630
  87.9469890  95.6400450 140.4521510  88.5499260  96.2120660 140.9270030
  87.2062880  96.2039890 140.2295410  91.0904490  96.0422010 135.7261790
  91.2855120  96.9405460 135.9929220  90.3034360  95.8109090 136.2194740
  77.8865780 111.7235180 136.1654410  77.3613400 112.1043210 135.4616370
  77.8110360 112.3485950 136.8864120  79.2756250  97.3882780 134.7638100
  79.8049010  96.6012580 134.6346050  79.9084570  98.0673970 134.9973630
  81.4694090  97.1257920 137.8183490  80.8396830  96.4245230 137.9853620
  80.9299230  97.8862050 137.6016650  92.6431100 113.2822720 137.4868350
  92.8183290 112.5960460 136.8429270  91.9452670 113.8069770 137.0945020
  80.4858750 113.6717560 135.0403660  81.2177570 113.3876840 134.4927550
  80.7452420 113.4330840 135.9303040  79.6473540 109.7882290 135.0449990
  79.0182420 110.2567390 135.5935820  79.7621370 108.9431510 135.4796180
  87.1023260 103.8387950 121.1951190  87.0217310 102.9242560 120.9242900
  86.6887680 104.3355020 120.4890900  85.2341300 105.6166970 123.0760460
  84.4583400 105.1367410 123.3659030  85.8854230 104.9372620 122.9016620
  89.2548730 110.0227160 121.8559590  88.7930260 109.2514400 122.1846760
  90.0674280 110.0493230 122.3612040  77.6599080 100.8888670 117.7378610
  76.7715780 101.2304640 117.6358490  77.9440270 100.6888990 116.8459440
  85.4812040 112.3085170 121.4763580  84.8623480 112.7642670 120.9058020
  86.3363820 112.4636630 121.0753280  84.6750290 108.2924160 123.0830620
  84.6058570 107.3514100 122.9219750  85.4370150 108.3825570 123.6553190
  85.7055460 101.0994540 123.3099550  86.0820280 100.2266420 123.1973220
  85.6074970 101.4353240 122.4189990  79.8360470  99.4720170 118.7716990
  79.9427220 100.3723900 119.0785750  78.9252830  99.4238140 118.4811640
  93.7779130 100.6111730 126.8071520  93.0731300 100.9993440 126.2886630
  94.0437050 101.3062020 127.4092450  86.3475390 107.1924410 118.8695490
  85.7292660 107.6573860 118.3058210  86.8598640 107.8851890 119.2865000
  89.7241060 100.5345360 123.0155430  89.0196630 100.8230250 123.5958540
  90.0853220 101.3445470 122.6554990  91.3403840 110.1520490 125.2782910
  90.6567360 110.8219600 125.2699580  91.8798130 110.3501140 124.5127770
  83.3247520  96.2797330 121.7020630  83.6322500  95.7244220 120.9856130
  82.3948220  96.4141790 121.5193620  88.8762580 111.9964620 123.9928090
  88.8889740 111.5926910 123.1250350  88.3237800 112.7711910 123.8889520
  90.1708000 108.7180840 119.0818260  90.0604330 107.7755170 119.2067680
  90.1676250 109.0796480 119.9681020  88.2748020 106.8994460 125.3210700
  88.6916810 106.6854570 124.4864160  88.9987840 107.1567250 125.8919320
  85.7128280 104.3446160 118.4380750  84.7857560 104.2783540 118.6669220
  85.8653100 105.2826290 118.3235990  85.6997360 100.6163160 115.4347910
  84.7601030 100.7777120 115.5200370  86.0180620 101.3348840 114.8883900
  92.2210120 105.2981680 125.4126940  91.3928750 105.3674770 124.9377070
  92.8160600 105.8835990 124.9442770  89.7425570 105.9066460 118.9416000
  89.1237990 105.5686010 118.2942300  89.7250020 105.2626220 119.6495190
  89.1852130 102.0851000 126.3581810  88.7723310 102.9104710 126.6121800
  88.4528080 101.4996040 126.1658170  81.7866620 108.5578460 123.3839690
  81.4894910 107.9523930 122.7047470  82.7366440 108.5955770 123.2729050
  89.8752230 112.1310330 127.0462790  89.3982790 112.9382520 126.8535400
  89.1914020 111.4788660 127.1989000  80.8785050 108.2960150 130.0347490
  79.9813580 108.5200120 130.2820890  80.9037920 108.4195090 129.0858890
  87.9190270 105.1453270 115.9488750  88.3583550 104.3075700 115.8026570
  88.6318690 105.7782670 116.0352890  86.0285650 110.0849340 119.9169990
  86.4681560 110.8273670 119.5025380  85.9672540 110.3275910 120.8408950
  81.5036620 111.1095170 130.8190010  81.4752050 111.5138120 129.9518440
  81.3401590 110.1805530 130.6561610  93.4551440 111.8922270 132.1154180
  93.9311160 112.3705160 132.7943260  94.0758600 111.8239760 131.3899680
  92.8584690 109.0835120 129.2754190  92.9847750 108.8447000 128.3571370
  92.9006070 108.2519660 129.7476270  86.7201430 112.7863120 127.8449000
  87.2346100 112.6971130 128.6471430  85.8770510 113.1322820 128.1376910
  88.6955830 113.0718460 117.2733000  88.5356970 112.7821400 118.1714830
  88.5302540 112.2958590 116.7378230  81.1744210 112.8516990 119.0504620
  80.9986690 111.9352530 118.8372420  80.3199950 113.2104280 119.2902420
  88.3981960 110.5806020 115.8331000  87.7047120 110.5783310 115.1733280
  89.1404820 110.1565340 115.4025170  87.9631890 112.2068730 119.9079490
  88.4188840 111.4258110 120.2218110  88.3024410 112.9175550 120.4520670
  92.7108700 101.1367580 130.2403930  92.0952970 101.6447250 129.7119390
  92.3905120 100.2365910 130.1829870  84.7723020  99.9759470 127.7066120
  84.3102390 100.1842490 128.5186060  84.3701130  99.1618820 127.4036790
  89.7727530 101.1968420 128.8362780  88.9221120 100.8974170 129.1571850
  89.6129320 101.4410430 127.9246600  86.8677240 102.6970170 130.9361570
  87.1930650 101.8633920 130.5963800  87.6557570 103.2198690 131.0839900
  83.6012030  96.7301650 116.9836630  82.9766210  96.7261520 117.7089940
  83.5142150  95.8632610 116.5872600  82.7166640 103.1310100 130.4972320
  82.6210240 102.1904830 130.3472720  83.5598620 103.3525170 130.1020390
  86.1130060 100.8751430 120.4605980  86.5059630 101.1923630 119.6474670
  86.4746910  99.9963310 120.5750500  77.8477180  99.5423770 128.6506100
  77.4540570 100.3898980 128.8578880  77.1595580  98.9050140 128.8414740
  84.4222230  99.6258740 131.7202840  83.7320550  99.4330940 132.3548930
  85.1654530  99.9093380 132.2527140  75.3364460 101.4072350 113.8938900
  75.2539130 102.3503110 114.0353890  74.9847520 101.2647260 113.0151250
  86.6985200 103.4657180 124.5556760  85.9666320 103.9743990 124.9046860
  86.3009540 102.6487160 124.2545540  83.1982740 101.1423460 115.9516010
  83.3195560 101.1009940 116.9001830  82.8131250 102.0047610 115.7962740
  87.1611110  98.9190860 123.9679700  87.1783850  99.3699510 124.8121550
  86.9126690  98.0196500 124.1813140  82.2104240 103.4524600 115.3499310
  81.6421140 103.0042850 114.7235220  82.9193240 103.8117380 114.8164460
  90.5881860  96.3323040 129.8066080  90.9127630  95.6012700 130.3324060
  90.6238370  96.0136680 128.9047070  83.4370560 104.2013160 124.7074660
  83.8040690 103.7271730 125.4536000  83.2475620 105.0754730 125.0483000
  81.2269930 103.2421800 127.0258870  80.9227000 104.1213780 127.2509230
  82.1816390 103.3021590 127.0616310  90.5139700 106.4448150 123.4152110
  91.2338820 106.9403440 123.0248220  90.3121520 105.7666040 122.7705980
  85.9749640  97.8386110 117.5581500  85.1614250  97.3399280 117.4826810
  85.7811590  98.6784360 117.1417850  85.8958500 106.5157210 129.3021110
  85.8295810 105.5952880 129.0478700  85.2663640 106.6132650 130.0165750
  84.6858620 108.3829450 116.5331830  85.0274320 109.1271680 116.0375150
  83.8571330 108.6960570 116.8956660  80.4846780 104.5408780 131.0569780
  80.1846920 104.6865960 130.1597600  81.2558020 103.9814070 130.9643170
  85.8275230 109.3377780 129.0524910  85.8419770 108.4058740 128.8343820
  85.1200330 109.4237540 129.6914680  92.0386440 105.9785120 128.3993490
  91.3134630 106.5713900 128.2022880  92.5661900 105.9708660 127.6006860
  91.9899550 110.3759860 118.0505650  91.3475710 109.7215480 118.3249370
  91.6030210 110.7814950 117.2746320  87.5686030 107.7045290 121.8977340
  87.9209850 107.1073420 121.2378710  86.6848360 107.3789520 122.0685590
  83.6549310 108.4642980 119.3047750  84.3420440 109.0112190 119.6855340
  82.8681730 109.0083710 119.3397360  75.7941710 104.0815800 114.7964830
  76.6636560 104.3640600 115.0800750  75.3032030 104.8951670 114.6813640
  82.9576520 105.4689010 118.9173110  83.4139300 106.2794260 119.1433300
  82.6064730 105.1512150 119.7491600  85.2609130 110.9795350 126.1465410
  85.9051350 111.1854730 126.8238830  85.6238570 110.2183750 125.6936260
  78.8588300  95.8126660 119.3895630  78.7302930  95.8044560 120.3380550
  78.0350320  96.1509750 119.0386640  86.5341210 108.9827700 124.8642860
  87.1763440 108.2820860 124.9775030  87.0590560 109.7626140 124.6839750
  90.3796930 109.2676320 114.5882000  90.1534510 108.5506760 115.1806640
  89.9893130 109.0188760 113.7503750  88.3078830 109.7822600 128.0678920
  88.6435070 110.3689290 128.7456840  87.3879170 109.6515310 128.2976710
  76.1612960 113.2943180 115.3626460  76.5210600 113.8932520 114.7083730
  76.0205300 113.8403070 116.1361490  89.9613180 107.1848260 116.2496160
  89.6734880 107.6460950 117.0374040  90.7565350 106.7246030 116.5180380
  76.1454820 111.5598040 129.8368860  76.2545940 110.6192780 129.6964250
  75.4935380 111.8252790 129.1882590  84.1367410 109.8313930 131.2366980
  83.8164280 109.1123170 131.7812670  83.4625770 110.5069000 131.3103040
  87.3521010 100.0640090 126.6003780  87.7201830  99.2435300 126.9283350
  86.4919210 100.1241980 127.0159430  85.1641180 110.7402620 114.8425320
  85.2653160 110.5366610 113.9127300  84.2642920 110.4860900 115.0473100
  82.6867070 101.2982980 118.8249220  81.9783220 101.7669320 119.2662830
  82.9711550 100.6404990 119.4594410  84.3123000 102.7179680 126.8241750
  84.8108250 103.1925500 127.4893600  84.4545950 101.7943200 127.0311780
  86.7182500  98.0233640 120.2645010  86.5950280  98.0419770 119.3154520
  87.6667060  98.0712580 120.3843410  80.8902090  99.6068060 116.1999930
  81.7392620 100.0438210 116.1340120  80.5233360  99.9188320 117.0271990
  89.8111870 104.1780820 121.1131500  88.8702010 104.1931050 121.2879190
  90.1255940 103.3916780 121.5591800  78.4840270 103.2925490 115.3568350
  78.5643860 102.3453000 115.4685750  79.3760020 103.6232370 115.4629010
  78.2913260 112.6266950 131.6488470  79.0925990 112.9479000 132.0623870
  77.7765080 112.2662530 132.3708380  87.1277890 108.7346820 131.5963880
  86.5216050 108.7578420 130.8559630  86.8232000 108.0029860 132.1331130
  88.5578260 112.4627110 130.2073290  89.5100010 112.3785130 130.1573530
  88.4106480 113.1268820 130.8807080  91.4487460 111.8421320 115.7065200
  91.1628970 111.4286460 114.8919380  91.2507010 112.7709030 115.5865720
  76.0111070 105.1140410 130.5924520  76.5150090 104.5347690 131.1640750
  75.2718490 105.3980640 131.1300890  83.0649010 106.5211400 130.1260040
  82.2994680 107.0896400 130.0414710  83.2464970 106.2287610 129.2328270
  86.1537420 106.8974630 114.7512800  85.6047520 107.3443930 115.3955540
  86.7756680 106.3923880 115.2750470  90.2072360 108.2516730 130.6835060
  90.9481830 108.5892490 130.1802520  89.4445040 108.4208790 130.1304830
  78.0434150 103.2570000 131.4874590  78.0839490 102.9583870 132.3959820
  78.8979650 103.6577610 131.3282110  79.9839960 101.8362100 129.4549080
  79.4536420 101.3453050 128.8272420  80.6528030 102.2646300 128.9207010
  84.3340180 104.8803160 113.8955200  84.8545840 104.1652180 113.5296350
  84.9808580 105.5189030 114.1955710  88.8818020 106.3031560 129.2190270
  89.2959040 106.4576640 130.0680690  87.9469020 106.4286780 129.3816050
  89.3540190 103.6427720 131.2229420  89.9360960 102.8880040 131.1349900
  89.5301960 104.1735160 130.4460900  80.4712260  98.8024470 129.5346370
  80.3769130  98.1845220 128.8097240  79.8909650  99.5290760 129.3076280
  83.6433250 106.2552040 127.1886200  84.0621360 107.0984770 127.0162440
  82.7241880 106.3924080 126.9592980  85.9797150 103.9868220 128.5724040
  86.0993360 103.3909360 129.3118880  86.8391150 104.0237910 128.1525340
  88.3185050 104.5405410 127.1486550  87.7920270 105.0648030 126.5451690
  88.6616390 105.1732800 127.7796280  80.7171440 101.9298780 113.5936260
  80.5160500 101.0666140 113.9549600  80.5463490 101.8432140 112.6557860
  81.4940670 112.5605050 128.3043930  80.9561760 113.2851110 127.9852630
  81.7474630 112.0835390 127.5141270  82.7465920 100.5289570 129.8299860
  83.3365610 100.2205420 130.5177680  81.9286160 100.0569320 129.9859760
  87.5659350 100.1455380 130.0632880  86.8774870  99.4836920 129.9982870
  88.2865370  99.6993650 130.5081340  79.5154240  99.0299400 113.5814140
  79.8180140  99.0366830 112.6733290  80.2548830  98.6797260 114.0781800
  84.3502880 113.7956260 128.5630580  84.2761580 114.6991400 128.8702950
  83.4481720 113.4768160 128.5352650  82.7339170  97.9734020 114.5670340
  82.3861170  97.2958010 113.9872790  82.9351940  97.5123530 115.3813730
  84.8988210 112.9614770 116.1856940  85.7939000 113.2999740 116.2075700
  84.9305840 112.2394180 115.5581220  91.8782560 111.4918440 128.8923140
  91.2784550 111.5511000 128.1487060  92.0076460 110.5523420 129.0219990
  93.1184010 109.2336260 114.2292850  92.2876970 109.3012910 114.7000080
  93.2955840 110.1240380 113.9259710  92.5740470 105.9783740 116.7327050
  93.3359380 106.5480390 116.8386740  92.5894840 105.4110940 117.5035360
  90.5634200 108.2170420 126.9899300  89.7494040 108.6467580 127.2525090
  90.9708400 108.8288830 126.3768350  92.6259640 106.2718110 113.8899570
  92.9008480 107.1796990 113.7618790  92.4370380 106.2080640 114.8261560
  92.5224980 104.2087100 118.8829000  92.1468580 103.4415030 118.4510290
  91.7928100 104.5909800 119.3703930  91.9124600 103.3558620 128.5168520
  91.6810690 103.1271370 127.6166470  92.1729150 104.2758170 128.4713410
  76.6636740 101.7983330 129.4096470  75.7692790 101.7650090 129.7490180
  77.2034290 101.9970120 130.1747720  90.3512670  98.5815050 131.2948220
  91.2282850  98.5898450 131.6782220  90.3633510  97.8445890 130.6840570
  91.7975940 102.4344590 122.1836240  92.3213420 101.9407240 121.5526410
  92.3835360 102.5694950 122.9283810  91.9765660 102.5184460 125.7055790
  91.0268370 102.4848000 125.8200780  92.1578670 103.4284570 125.4705560
  77.8310100 100.7686140 114.8154420  78.5401800 100.3469360 114.3301700
  77.1150040 100.8361370 114.1837770  77.4784260  96.8225470 113.8557070
  78.2012390  97.3634410 114.1738290  77.7508780  96.5488890 112.9798610
  92.7163070 100.3278890 120.6566330  92.6062350 100.1734930 121.5948600
  93.4770660  99.7999830 120.4141740  90.6210250 112.9689020 120.5167570
  91.2169320 112.6473590 119.8401990  90.8788400 112.4960840 121.3080840
  78.5272820 109.4006930 130.6658200  78.4842450 109.0299840 131.5472660
  78.6583830 110.3384500 130.8060020  82.2278850 110.9566520 126.2667920
  81.9870210 111.2241080 125.3798440  83.1681490 111.1272250 126.3218780
  84.4333270  97.4199210 130.0224430  84.3722160  98.0121040 130.7719840
  85.3733650  97.3125170 129.8774690  87.0707830  97.0769270 129.6616720
  87.6848240  97.3948560 128.9997800  87.6157390  96.5917860 130.2812580
  93.4883010 112.9760900 127.0678560  92.9941290 113.3729770 126.3505690
  92.8796300 112.3510110 127.4615840  87.8115870  95.6401410 125.9886010
  86.9375710  95.9736520 125.7858940  87.7026620  95.1674590 126.8137880
  91.1722460 113.6184320 124.3465300  90.7125430 114.3700130 123.9723320
  90.5434920 112.8990790 124.2880100  84.3413680 112.8181050 124.3482410
  84.6291490 112.5635350 123.4715420  84.8536900 112.2658410 124.9387980
  85.5590690  96.5571250 124.9278920  84.7762480  97.0316750 125.2075680
  85.2653620  95.6526080 124.8192100  83.4444910  98.9758000 120.4394950
  82.6319420  98.6014890 120.0990830  83.9486550  98.2203080 120.7416140
  79.2756250  97.3882780 115.9894610  79.8049010  96.6012580 115.8602560
  79.9084570  98.0673970 116.2230140  81.4694090  97.1257920 119.0440000
  80.8396830  96.4245230 119.2110130  80.9299230  97.8862050 118.8273160
  84.4086040 113.7397150 131.7150610  85.3353350 113.5041420 131.7586570
  84.3936470 114.5669150 131.2336640  92.6431100 113.2822720 118.7124860
  92.8183290 112.5960460 118.0685780  91.9452670 113.8069770 118.3201530
  81.5949650  96.4041900 131.4792490  81.3133920  96.9075500 130.7153310
  81.9769350  95.6063650 131.1134620  80.4858750 113.6717560 116.2660170
  81.2177570 113.3876840 115.7184060  80.7452420 113.4330840 117.1559550
  88.1965110  95.8195480 132.0572960  88.0830560  96.1390090 132.9524480
  89.0134850  96.2207990 131.7610240  90.9763600 112.9667010 131.5391650
  91.7688920 112.4716240 131.3317610  91.2696750 113.6457150 132.1467260
  79.2308390 109.9626870 105.3750750  79.5336430 109.0724610 105.1960970
  79.9751980 110.5197090 105.1473000  85.4812040 112.3085170 102.7020090
  84.8623480 112.7642670 102.1314530  86.3363820 112.4636630 102.3009790
  76.8656960  98.8978680 106.6343750  76.6859800  98.0004430 106.9146510
  76.4637040  99.4450550 107.3090700  85.7055460 101.0994540 104.5356060
  86.0820280 100.2266420 104.4229730  85.6074970 101.4353240 103.6446500
  93.7779130 100.6111730 108.0328030  93.0731300 100.9993440 107.5143140
  94.0437050 101.3062020 108.6348960  79.9604300  97.0805100 108.5962100
  79.9622740  97.5977490 107.7908000  79.1308610  96.6035280 108.5732030
  89.7241060 100.5345360 104.2411940  89.0196630 100.8230250 104.8215050
  90.0853220 101.3445470 103.8811500  79.6419630  98.7915060 106.6032550
  79.9836440  99.6357110 106.3086420  78.7035440  98.9398800 106.7197890
  80.4226250 108.6881080 108.5884780  81.0400250 109.3632160 108.3069230
  79.5619370 109.0969060 108.4972280  91.3403840 110.1520490 106.5039420
  90.6567360 110.8219600 106.4956090  91.8798130 110.3501140 105.7384280
  92.7927980  99.9800150 104.6321150  91.8452890 100.0139130 104.7636580
  93.1177970 100.7939100 105.0170510  88.8762580 111.9964620 105.2184600
  88.8889740 111.5926910 104.3506860  88.3237800 112.7711910 105.1146030
  92.2210120 105.2981680 106.6383450  91.3928750 105.3674770 106.1633580
  92.8160600 105.8835990 106.1699280  89.1852130 102.0851000 107.5838320
  88.7723310 102.9104710 107.8378310  88.4528080 101.4996040 107.3914680
  80.0313540 101.6454110 106.2256030  80.5828130 101.7549450 105.4509280
  80.5457050 102.0191710 106.9411260  89.8752230 112.1310330 108.2719300
  89.3982790 112.9382520 108.0791910  89.1914020 111.4788660 108.4245510
  79.7056270 105.1673470 109.8361370  79.5664040 106.0396270 110.2048770
  78.8237630 104.8246280 109.6909310  86.0285650 110.0849340 101.1426500
  86.4681560 110.8273670 100.7281890  85.9672540 110.3275910 102.0665460
  93.4551440 111.8922270 113.3410690  93.9311160 112.3705160 114.0199770
  94.0758600 111.8239760 112.6156190  75.6574920 106.9371020 105.7532280
  75.7355340 107.0719790 104.8088000  76.2716600 106.2286910 105.9460400
  76.9022550 108.6371210 102.1638460  76.4950630 108.7785800 101.3092060
  77.7935560 108.3531370 101.9609670  92.8584690 109.0835120 110.5010700
  92.9847750 108.8447000 109.5827880  92.9006070 108.2519660 110.9732780
  88.6955830 113.0718460  98.4989510  88.5356970 112.7821400  99.3971340
  88.5302540 112.2958590  97.9634740  81.1744210 112.8516990 100.2761130
  80.9986690 111.9352530 100.0628930  80.3199950 113.2104280 100.5158930
  88.3981960 110.5806020  97.0587510  87.7047120 110.5783310  96.3989790
  89.1404820 110.1565340  96.6281680  87.9631890 112.2068730 101.1336000
  88.4188840 111.4258110 101.4474620  88.3024410 112.9175550 101.6777180
  92.7108700 101.1367580 111.4660440  92.0952970 101.6447250 110.9375900
  92.3905120 100.2365910 111.4086380  75.7134440 107.9785190 108.2926740
  75.8765480 107.5090550 107.4746110  76.1786890 107.4708750 108.9575580
  84.7723020  99.9759470 108.9322630  84.3102390 100.1842490 109.7442570
  84.3701130  99.1618820 108.6293300  89.7727530 101.1968420 110.0619290
  88.9221120 100.8974170 110.3828360  89.6129320 101.4410430 109.1503110
  86.8677240 102.6970170 112.1618080  87.1930650 101.8633920 111.8220310
  87.6557570 103.2198690 112.3096410  82.7166640 103.1310100 111.7228830
  82.6210240 102.1904830 111.5729230  83.5598620 103.3525170 111.3276900
  77.8477180  99.5423770 109.8762610  77.4540570 100.3898980 110.0835390
  77.1595580  98.9050140 110.0671250  84.4222230  99.6258740 112.9459350
  83.7320550  99.4330940 113.5805440  85.1654530  99.9093380 113.4783650
  87.1611110  98.9190860 105.1936210  87.1783850  99.3699510 106.0378060
  86.9126690  98.0196500 105.4069650  77.2873420 107.3536620 110.4522550
  76.9028210 106.7130290 111.0505510  77.5985610 108.0572740 111.0217280
  85.8958500 106.5157210 110.5277620  85.8295810 105.5952880 110.2735210
  85.2663640 106.6132650 111.2422260  77.2833660 104.0824540 109.3986740
  76.9248600 104.7478390 109.9860080  76.9888220 103.2508090 109.7699360
  80.4846780 104.5408780 112.2826290  80.1846920 104.6865960 111.3854110
  81.2558020 103.9814070 112.1899680  85.8275230 109.3377780 110.2781420
  85.8419770 108.4058740 110.0600330  85.1200330 109.4237540 110.9171190
  92.0386440 105.9785120 109.6250000  91.3134630 106.5713900 109.4279390
  92.5661900 105.9708660 108.8263370  91.9899550 110.3759860  99.2762160
  91.3475710 109.7215480  99.5505880  91.6030210 110.7814950  98.5002830
  85.2609130 110.9795350 107.3721920  85.9051350 111.1854730 108.0495340
  85.6238570 110.2183750 106.9192770  88.3078830 109.7822600 109.2935430
  88.6435070 110.3689290 109.9713350  87.3879170 109.6515310 109.5233220
  75.8582230  97.5717780 110.0758840  75.1440750  97.7714700 110.6811450
  76.2777270  96.7957350 110.4473640  87.3521010 100.0640090 107.8260290
  87.7201830  99.2435300 108.1539860  86.4919210 100.1241980 108.2415940
  84.3123000 102.7179680 108.0498260  84.8108250 103.1925500 108.7150110
  84.4545950 101.7943200 108.2568290  83.8059290 113.2588940 100.7629500
  84.0600790 113.2210330  99.8408870  82.8571770 113.1322270 100.7557750
  91.5189860  98.9347640 108.8926650  91.0163460  99.6753040 109.2320460
  92.3346520  99.3231640 108.5763440  91.8137450 111.3489670 104.0142270
  91.9384870 112.1720840 104.4866080  92.6803010 111.1380400 103.6666420
  79.2854980 113.4420880 103.6859400  80.0217460 112.8936340 103.9567970
  79.6695900 114.3076890 103.5465390  78.2913260 112.6266950 112.8744980
  79.0925990 112.9479000 113.2880380  77.7765080 112.2662530 113.5964890
  87.1277890 108.7346820 112.8220390  86.5216050 108.7578420 112.0816140
  86.8232000 108.0029860 113.3587640  88.5578260 112.4627110 111.4329800
  89.5100010 112.3785130 111.3830040  88.4106480 113.1268820 112.1063590
  91.4487460 111.8421320  96.9321710  91.1628970 111.4286460  96.1175890
  91.2507010 112.7709030  96.8122230  76.0111070 105.1140410 111.8181030
  76.5150090 104.5347690 112.3897260  75.2718490 105.3980640 112.3557400
  90.2072360 108.2516730 111.9091570  90.9481830 108.5892490 111.4059030
  89.4445040 108.4208790 111.3561340  78.0434150 103.2570000 112.7131100
  78.0839490 102.9583870 113.6216330  78.8979650 103.6577610 112.5538620
  79.9839960 101.8362100 110.6805590  79.4536420 101.3453050 110.0528930
  80.6528030 102.2646300 110.1463520  88.8818020 106.3031560 110.4446780
  89.2959040 106.4576640 111.2937200  87.9469020 106.4286780 110.6072560
  89.3540190 103.6427720 112.4485930  89.9360960 102.8880040 112.3606410
  89.5301960 104.1735160 111.6717410  80.4712260  98.8024470 110.7602880
  80.3769130  98.1845220 110.0353750  79.8909650  99.5290760 110.5332790
  85.9797150 103.9868220 109.7980550  86.0993360 103.3909360 110.5375390
  86.8391150 104.0237910 109.3781850  88.3185050 104.5405410 108.3743060
  87.7920270 105.0648030 107.7708200  88.6616390 105.1732800 109.0052790
  81.4940670 112.5605050 109.5300440  80.9561760 113.2851110 109.2109140
  81.7474630 112.0835390 108.7397780  82.7465920 100.5289570 111.0556370
  83.3365610 100.2205420 111.7434190  81.9286160 100.0569320 111.2116270
  87.5659350 100.1455380 111.2889390  86.8774870  99.4836920 111.2239380
  88.2865370  99.6993650 111.7337850  84.8988210 112.9614770  97.4113450
  85.7939000 113.2999740  97.4332210  84.9305840 112.2394180  96.7837730
  75.7530170 111.1230850 103.0920710  76.0833180 110.2551910 102.8599350
  76.1821170 111.3289370 103.9225670  80.3492090 109.4539860 100.7522680
  80.0487630 109.3304830 101.6526590  80.2429580 108.5948450 100.3438410
  76.2420380 111.9901440 105.8302340  75.8051370 112.1702240 106.6626490
  76.8098060 112.7476060 105.6884060  91.8782560 111.4918440 110.1179650
  91.2784550 111.5511000 109.3743570  92.0076460 110.5523420 110.2476500
  90.5634200 108.2170420 108.2155810  89.7494040 108.6467580 108.4781600
  90.9708400 108.8288830 107.6024860  77.1120740 104.8874240 106.7294560
  77.4793780 104.8001640 107.6090580  76.5431560 104.1240790 106.6301420
  91.9124600 103.3558620 109.7425030  91.6810690 103.1271370 108.8422980
  92.1729150 104.2758170 109.6969920  76.6636740 101.7983330 110.6352980
  75.7692790 101.7650090 110.9746690  77.2034290 101.9970120 111.4004230
  91.7975940 102.4344590 103.4092750  92.3213420 101.9407240 102.7782920
  92.3835360 102.5694950 104.1540320  91.9765660 102.5184460 106.9312300
  91.0268370 102.4848000 107.0457290  92.1578670 103.4284570 106.6962070
  92.7163070 100.3278890 101.8822840  92.6062350 100.1734930 102.8205110
  93.4770660  99.7999830 101.6398250  76.9208450  96.2287330 107.7261520
  76.5723270  96.6851150 108.4919700  76.5896150  95.3344460 107.8083950
  82.2278850 110.9566520 107.4924430  81.9870210 111.2241080 106.6054950
  83.1681490 111.1272250 107.5475290  84.4333270  97.4199210 111.2480940
  84.3722160  98.0121040 111.9976350  85.3733650  97.3125170 111.1031200
  87.0707830  97.0769270 110.8873230  87.6848240  97.3948560 110.2254310
  87.6157390  96.5917860 111.5069090  93.4883010 112.9760900 108.2935070
  92.9941290 113.3729770 107.5762200  92.8796300 112.3510110 108.6872350
  77.5929090  95.7563530 111.0012290  78.1412080  95.5751580 110.2378400
  77.6584400  94.9657640 111.5368600  78.3660850 112.3469180 109.0112490
  77.7721170 112.2153880 109.7502530  78.3584690 111.5107320 108.5454590
  87.8115870  95.6401410 107.2142520  86.9375710  95.9736520 107.0115450
  87.7026620  95.1674590 108.0394390  88.7187850  97.8472280 108.5984240
  88.3901210  97.0324040 108.2185970  89.6670150  97.8042090 108.4749930
  77.9973080 109.7127560 107.9620530  77.2707140 109.0932850 107.8946480
  78.0582230 110.1068170 107.0918610  81.6018180 111.9272560 104.7469940
  82.1183200 111.3159920 104.2218200  82.2515560 112.4301340 105.2380950
  84.3413680 112.8181050 105.5738920  84.6291490 112.5635350 104.6971930
  84.8536900 112.2658410 106.1644490  90.1111760  97.2594350 104.1984520
  90.5519850  97.2039450 103.3506120  89.8419350  98.1752360 104.2694700
  91.9750330  96.8909590 102.2093340  91.9138730  95.9470810 102.0624360
  92.7542360  96.9989680 102.7546800  76.2803080 113.0301950 101.1717290
  76.1125120 112.3972630 101.8699180  75.4137590 113.2361350 100.8211480
  87.9469890  95.6400450 102.9034530  88.5499260  96.2120660 103.3783050
  87.2062880  96.2039890 102.6808430  84.4086040 113.7397150 112.9407120
  85.3353350 113.5041420 112.9843080  84.3936470 114.5669150 112.4593150
  81.5949650  96.4041900 112.7049000  81.3133920  96.9075500 111.9409820
  81.9769350  95.6063650 112.3391130  90.9763600 112.9667010 112.7648160
  91.7688920 112.4716240 112.5574120  91.2696750 113.6457150 113.3723770
  93.4551440 111.8922270  94.5667200  93.9311160 112.3705160  95.2456280
  94.0758600 111.8239760  93.8412700  88.6955830 113.0718460  79.7246020
  88.5356970 112.7821400  80.6227850  88.5302540 112.2958590  79.1891250
  88.3981960 110.5806020  78.2844020  87.7047120 110.5783310  77.6246300
  89.1404820 110.1565340  77.8538190  91.9899550 110.3759860  80.5018670
  91.3475710 109.7215480  80.7762390  91.6030210 110.7814950  79.7259340
  90.3796930 109.2676320  77.0395020  90.1534510 108.5506760  77.6319660
  89.9893130 109.0188760  76.2016770  91.4487460 111.8421320  78.1578220
  91.1628970 111.4286460  77.3432400  91.2507010 112.7709030  78.0378740
  91.8782560 111.4918440  91.3436160  91.2784550 111.5511000  90.6000080
  92.0076460 110.5523420  91.4733010  92.5740470 105.9783740  79.1840070
  93.3359380 106.5480390  79.2899760  92.5894840 105.4110940  79.9548380
  93.4883010 112.9760900  89.5191580  92.9941290 113.3729770  88.8018710
  92.8796300 112.3510110  89.9128860  91.1722460 113.6184320  86.7978320
  90.7125430 114.3700130  86.4236340  90.5434920 112.8990790  86.7393120
  92.6431100 113.2822720  81.1637880  92.8183290 112.5960460  80.5198800
  91.9452670 113.8069770  80.7714550  90.9763600 112.9667010  93.9904670
  91.7688920 112.4716240  93.7830630  91.2696750 113.6457150  94.5980280
  87.1023260 103.8387950  64.8720720  87.0217310 102.9242560  64.6012430
  86.6887680 104.3355020  64.1660430  89.2548730 110.0227160  65.5329120
  88.7930260 109.2514400  65.8616290  90.0674280 110.0493230  66.0381570
  77.6599080 100.8888670  61.4148140  76.7715780 101.2304640  61.3128020
  77.9440270 100.6888990  60.5228970  85.4812040 112.3085170  65.1533110
  84.8623480 112.7642670  64.5827550  86.3363820 112.4636630  64.7522810
  79.8360470  99.4720170  62.4486520  79.9427220 100.3723900  62.7555280
  78.9252830  99.4238140  62.1581170  89.4879580  98.5944980  63.9197420
  90.3089200  98.1041550  63.9622900  89.5213660  99.1842640  64.6729260
  93.7779130 100.6111730  70.4841050  93.0731300 100.9993440  69.9656160
  94.0437050 101.3062020  71.0861980  86.3475390 107.1924410  62.5465020
  85.7292660 107.6573860  61.9827740  86.8598640 107.8851890  62.9634530
  89.7241060 100.5345360  66.6924960  89.0196630 100.8230250  67.2728070
  90.0853220 101.3445470  66.3324520  91.3403840 110.1520490  68.9552440
  90.6567360 110.8219600  68.9469110  91.8798130 110.3501140  68.1897300
  92.7927980  99.9800150  67.0834170  91.8452890 100.0139130  67.2149600
  93.1177970 100.7939100  67.4683530  88.2748020 106.8994460  68.9980230
  88.6916810 106.6854570  68.1633690  88.9987840 107.1567250  69.5688850
  85.7128280 104.3446160  62.1150280  84.7857560 104.2783540  62.3438750
  85.8653100 105.2826290  62.0005520  85.6997360 100.6163160  59.1117440
  84.7601030 100.7777120  59.1969900  86.0180620 101.3348840  58.5653430
  92.2210120 105.2981680  69.0896470  91.3928750 105.3674770  68.6146600
  92.8160600 105.8835990  68.6212300  89.7425570 105.9066460  62.6185530
  89.1237990 105.5686010  61.9711830  89.7250020 105.2626220  63.3264720
  89.1852130 102.0851000  70.0351340  88.7723310 102.9104710  70.2891330
  88.4528080 101.4996040  69.8427700  81.3184920 104.8710900  64.8970010
  80.9141920 104.1588150  64.4015910  81.4048040 104.5264140  65.7858050
  87.9190270 105.1453270  59.6258280  88.3583550 104.3075700  59.4796100
  88.6318690 105.7782670  59.7122420  86.0285650 110.0849340  63.5939520
  86.4681560 110.8273670  63.1794910  85.9672540 110.3275910  64.5178480
  78.0189550 103.7655880  62.3976660  77.8987150 104.4917970  61.7857930
  77.7090440 102.9958790  61.9204570  76.9022550 108.6371210  64.6151480
  76.4950630 108.7785800  63.7605080  77.7935560 108.3531370  64.4122690
  86.7201430 112.7863120  71.5218530  87.2346100 112.6971130  72.3240960
  85.8770510 113.1322820  71.8146440  81.1744210 112.8516990  62.7274150
  80.9986690 111.9352530  62.5141950  80.3199950 113.2104280  62.9671950
  92.7108700 101.1367580  73.9173460  92.0952970 101.6447250  73.3888920
  92.3905120 100.2365910  73.8599400  89.7727530 101.1968420  72.5132310
  88.9221120 100.8974170  72.8341380  89.6129320 101.4410430  71.6016130
  83.6012030  96.7301650  60.6606160  82.9766210  96.7261520  61.3859470
  83.5142150  95.8632610  60.2642130  80.2767430 102.2324520  63.5081580
  80.0508350 102.0161690  64.4128200  79.4959960 102.6652980  63.1627550
  87.5065190 102.2387890  62.1072230  86.9074080 102.9623690  61.9235850
  88.0544800 102.1764670  61.3248680  86.1130060 100.8751430  64.1375510
  86.5059630 101.1923630  63.3244200  86.4746910  99.9963310  64.2520030
  75.3364460 101.4072350  57.5708430  75.2539130 102.3503110  57.7123420
  74.9847520 101.2647260  56.6920780  86.6985200 103.4657180  68.2326290
  85.9666320 103.9743990  68.5816390  86.3009540 102.6487160  67.9315070
  83.1982740 101.1423460  59.6285540  83.3195560 101.1009940  60.5771360
  82.8131250 102.0047610  59.4732270  87.1611110  98.9190860  67.6449230
  87.1783850  99.3699510  68.4891080  86.9126690  98.0196500  67.8582670
  82.2104240 103.4524600  59.0268840  81.6421140 103.0042850  58.4004750
  82.9193240 103.8117380  58.4933990  79.7551720 107.4482790  61.2995250
  78.9813980 106.9080410  61.1393970  80.4846350 106.9289400  60.9613010
  90.5139700 106.4448150  67.0921640  91.2338820 106.9403440  66.7017750
  90.3121520 105.7666040  66.4475510  85.9749640  97.8386110  61.2351030
  85.1614250  97.3399280  61.1596340  85.7811590  98.6784360  60.8187380
  88.6898030 102.2105760  59.5313190  89.5777650 102.5222990  59.3564530
  88.6603120 101.3378010  59.1393770  79.7989120 107.1163170  64.9374060
  80.3167790 106.3131430  64.8830950  79.3473140 107.0542310  65.7790890
  84.6858620 108.3829450  60.2101360  85.0274320 109.1271680  59.7144680
  83.8571330 108.6960570  60.5726190  87.5686030 107.7045290  65.5746870
  87.9209850 107.1073420  64.9148240  86.6848360 107.3789520  65.7455120
  83.6549310 108.4642980  62.9817280  84.3420440 109.0112190  63.3624870
  82.8681730 109.0083710  63.0166890  75.7941710 104.0815800  58.4734360
  76.6636560 104.3640600  58.7570280  75.3032030 104.8951670  58.3583170
  82.9576520 105.4689010  62.5942640  83.4139300 106.2794260  62.8202830
  82.6064730 105.1512150  63.4261130  85.2609130 110.9795350  69.8234940
  85.9051350 111.1854730  70.5008360  85.6238570 110.2183750  69.3705790
  86.5341210 108.9827700  68.5412390  87.1763440 108.2820860  68.6544560
  87.0590560 109.7626140  68.3609280  88.3078830 109.7822600  71.7448450
  88.6435070 110.3689290  72.4226370  87.3879170 109.6515310  71.9746240
  77.7788220 105.8989270  60.6016420  77.1716170 106.6388170  60.6111720
  78.2537570 105.9888630  59.7754620  90.7183040  99.0197030  61.0860870
  90.0896200  99.1242700  60.3719100  90.2234960  99.2393810  61.8754750
  86.7182500  98.0233640  63.9414540  86.5950280  98.0419770  62.9924050
  87.6667060  98.0712580  64.0612940  80.8902090  99.6068060  59.8769460
  81.7392620 100.0438210  59.8109650  80.5233360  99.9188320  60.7041520
  91.5189860  98.9347640  71.3439670  91.0163460  99.6753040  71.6833480
  92.3346520  99.3231640  71.0276460  89.8111870 104.1780820  64.7901030
  88.8702010 104.1931050  64.9648720  90.1255940 103.3916780  65.2361330
  79.7893510 105.8600420  58.3504990  80.5556780 105.7481780  58.9130420
  79.8668200 105.1638390  57.6981760  78.4840270 103.2925490  59.0337880
  78.5643860 102.3453000  59.1455280  79.3760020 103.6232370  59.1398540
  91.8137450 111.3489670  66.4655290  91.9384870 112.1720840  66.9379100
  92.6803010 111.1380400  66.1179440  79.2854980 113.4420880  66.1372420
  80.0217460 112.8936340  66.4080990  79.6695900 114.3076890  65.9978410
  87.1277890 108.7346820  75.2733410  86.5216050 108.7578420  74.5329160
  86.8232000 108.0029860  75.8100660  88.5578260 112.4627110  73.8842820
  89.5100010 112.3785130  73.8343060  88.4106480 113.1268820  74.5576610
  81.8212540 105.8565550  60.3247630  82.2428960 105.6905420  61.1679020
  81.9463380 105.0465780  59.8302770  84.3340180 104.8803160  57.5724730
  84.8545840 104.1652180  57.2065880  84.9808580 105.5189030  57.8725240
  88.8818020 106.3031560  72.8959800  89.2959040 106.4576640  73.7450220
  87.9469020 106.4286780  73.0585580  89.3540190 103.6427720  74.8998950
  89.9360960 102.8880040  74.8119430  89.5301960 104.1735160  74.1230430
  88.3185050 104.5405410  70.8256080  87.7920270 105.0648030  70.2221220
  88.6616390 105.1732800  71.4565810  80.7171440 101.9298780  57.2705790
  80.5160500 101.0666140  57.6319130  80.5463490 101.8432140  56.3327390
  88.1959750  96.7407010  59.7992670  88.4762040  95.8974910  60.1552090
  87.4225480  96.9730120  60.3131420  79.5154240  99.0299400  57.2583670
  79.8180140  99.0366830  56.3502820  80.2548830  98.6797260  57.7551330
  82.7339170  97.9734020  58.2439870  82.3861170  97.2958010  57.6642320
  82.9351940  97.5123530  59.0583260  75.7530170 111.1230850  65.5433730
  76.0833180 110.2551910  65.3112370  76.1821170 111.3289370  66.3738690
  80.3492090 109.4539860  63.2035700  80.0487630 109.3304830  64.1039610
  80.2429580 108.5948450  62.7951430  76.0744810 104.5021670  64.6404240
  75.4193650 104.2333310  63.9963940  76.9122760 104.3926150  64.1906220
  93.5800440 106.8333840  65.2538510  93.9509270 106.0501160  64.8474480
  94.2202370 107.5222940  65.0755810  89.0235250  99.2962960  58.8622730
  89.4420130  99.1093940  58.0219390  88.7171310  98.4442010  59.1725660
  92.5224980 104.2087100  62.5598530  92.1468580 103.4415030  62.1279820
  91.7928100 104.5909800  63.0473460  91.9124600 103.3558620  72.1938050
  91.6810690 103.1271370  71.2936000  92.1729150 104.2758170  72.1482940
  75.2882890 101.7120600  60.5829570  74.3846970 101.9750800  60.4081230
  75.7723510 101.9831770  59.8029530  91.7975940 102.4344590  65.8605770
  92.3213420 101.9407240  65.2295940  92.3835360 102.5694950  66.6053340
  91.9765660 102.5184460  69.3825320  91.0268370 102.4848000  69.4970310
  92.1578670 103.4284570  69.1475090  77.8310100 100.7686140  58.4923950
  78.5401800 100.3469360  58.0071230  77.1150040 100.8361370  57.8607300
  77.4784260  96.8225470  57.5326600  78.2012390  97.3634410  57.8507820
  77.7508780  96.5488890  56.6568140  91.2875910 101.6917940  61.7998180
  91.7835030 101.4588810  62.5847060  91.0891980 100.8529780  61.3835820
  92.7163070 100.3278890  64.3335860  92.6062350 100.1734930  65.2718130
  93.4770660  99.7999830  64.0911270  93.6791830  98.9297470  60.1998710
  92.8843330  98.8642590  60.7291620  93.8835110  99.8648110  60.1884060
  84.3413680 112.8181050  68.0251940  84.6291490 112.5635350  67.1484950
  84.8536900 112.2658410  68.6157510  90.1111760  97.2594350  66.6497540
  90.5519850  97.2039450  65.8019140  89.8419350  98.1752360  66.7207720
  91.9750330  96.8909590  64.6606360  91.9138730  95.9470810  64.5137380
  92.7542360  96.9989680  65.2059820  76.2803080 113.0301950  63.6230310
  76.1125120 112.3972630  64.3212200  75.4137590 113.2361350  63.2724500
  91.0904490  96.0422010  60.6287830  91.2855120  96.9405460  60.8955260
  90.3034360  95.8109090  61.1220780  79.2756250  97.3882780  59.6664140
  79.8049010  96.6012580  59.5372090  79.9084570  98.0673970  59.8999670
  80.4858750 113.6717560  59.9429700  81.2177570 113.3876840  59.3953590
  80.7452420 113.4330840  60.8329080  87.1023260 103.8387950  46.0977230
  87.0217310 102.9242560  45.8268940  86.6887680 104.3355020  45.3916940
  79.2507130 105.9286780  48.8562260  78.4192010 105.6735490  49.2558770
  79.8588110 105.9997550  49.5920180  89.2548730 110.0227160  46.7585630
  88.7930260 109.2514400  47.0872800  90.0674280 110.0493230  47.2638080
  77.6599080 100.8888670  42.6404650  76.7715780 101.2304640  42.5384530
  77.9440270 100.6888990  41.7485480  85.4812040 112.3085170  46.3789620
  84.8623480 112.7642670  45.8084060  86.3363820 112.4636630  45.9779320
  76.8656960  98.8978680  50.3113280  76.6859800  98.0004430  50.5916040
  76.4637040  99.4450550  50.9860230  79.8360470  99.4720170  43.6743030
  79.9427220 100.3723900  43.9811790  78.9252830  99.4238140  43.3837680
  77.4843630 101.3939180  48.9195620  78.1653740 101.6577550  49.5383020
  77.1691680 100.5540050  49.2533630  81.6768200 102.4406540  48.0068210
  82.1846420 102.9387510  48.6473230  82.2081440 101.6641740  47.8307570
  79.9604300  97.0805100  52.2731630  79.9622740  97.5977490  51.4677530
  79.1308610  96.6035280  52.2501560  86.3475390 107.1924410  43.7721530
  85.7292660 107.6573860  43.2084250  86.8598640 107.8851890  44.1891040
  89.7241060 100.5345360  47.9181470  89.0196630 100.8230250  48.4984580
  90.0853220 101.3445470  47.5581030  79.6419630  98.7915060  50.2802080
  79.9836440  99.6357110  49.9855950  78.7035440  98.9398800  50.3967420
  75.7158590 107.8780940  41.1461160  75.3386570 108.3668040  40.4146060
  75.9731660 108.5506220  41.7767690  92.7927980  99.9800150  48.3090680
  91.8452890 100.0139130  48.4406110  93.1177970 100.7939100  48.6940040
  88.8762580 111.9964620  48.8954130  88.8889740 111.5926910  48.0276390
  88.3237800 112.7711910  48.7915560  90.1708000 108.7180840  43.9844300
  90.0604330 107.7755170  44.1093720  90.1676250 109.0796480  44.8707060
  85.7128280 104.3446160  43.3406790  84.7857560 104.2783540  43.5695260
  85.8653100 105.2826290  43.2262030  92.2210120 105.2981680  50.3152980
  91.3928750 105.3674770  49.8403110  92.8160600 105.8835990  49.8468810
  81.3184920 104.8710900  46.1226520  80.9141920 104.1588150  45.6272420
  81.4048040 104.5264140  47.0114560  81.7866620 108.5578460  48.2865730
  81.4894910 107.9523930  47.6073510  82.7366440 108.5955770  48.1755090
  80.0313540 101.6454110  49.9025560  80.5828130 101.7549450  49.1278810
  80.5457050 102.0191710  50.6180790  87.9190270 105.1453270  40.8514790
  88.3583550 104.3075700  40.7052610  88.6318690 105.7782670  40.9378930
  79.7056270 105.1673470  53.5130900  79.5664040 106.0396270  53.8818300
  78.8237630 104.8246280  53.3678840  86.0285650 110.0849340  44.8196030
  86.4681560 110.8273670  44.4051420  85.9672540 110.3275910  45.7434990
  78.0189550 103.7655880  43.6233170  77.8987150 104.4917970  43.0114440
  77.7090440 102.9958790  43.1461080  76.9022550 108.6371210  45.8407990
  76.4950630 108.7785800  44.9861590  77.7935560 108.3531370  45.6379200
  92.8584690 109.0835120  54.1780230  92.9847750 108.8447000  53.2597410
  92.9006070 108.2519660  54.6502310  88.6955830 113.0718460  42.1759040
  88.5356970 112.7821400  43.0740870  88.5302540 112.2958590  41.6404270
  81.1744210 112.8516990  43.9530660  80.9986690 111.9352530  43.7398460
  80.3199950 113.2104280  44.1928460  88.3981960 110.5806020  40.7357040
  87.7047120 110.5783310  40.0759320  89.1404820 110.1565340  40.3051210
  87.9631890 112.2068730  44.8105530  88.4188840 111.4258110  45.1244150
  88.3024410 112.9175550  45.3546710  80.4853210  97.1090950  47.0056840
  80.0421360  97.8900490  46.6741360  81.0438200  97.4320840  47.7127780
  84.7723020  99.9759470  52.6092160  84.3102390 100.1842490  53.4212100
  84.3701130  99.1618820  52.3062830  86.8677240 102.6970170  55.8387610
  87.1930650 101.8633920  55.4989840  87.6557570 103.2198690  55.9865940
  80.2767430 102.2324520  44.7338090  80.0508350 102.0161690  45.6384710
  79.4959960 102.6652980  44.3884060  87.5065190 102.2387890  43.3328740
  86.9074080 102.9623690  43.1492360  88.0544800 102.1764670  42.5505190
  82.7166640 103.1310100  55.3998360  82.6210240 102.1904830  55.2498760
  83.5598620 103.3525170  55.0046430  86.1130060 100.8751430  45.3632020
  86.5059630 101.1923630  44.5500710  86.4746910  99.9963310  45.4776540
  77.8477180  99.5423770  53.5532140  77.4540570 100.3898980  53.7604920
  77.1595580  98.9050140  53.7440780  84.4222230  99.6258740  56.6228880
  83.7320550  99.4330940  57.2574970  85.1654530  99.9093380  57.1553180
  75.1494230  97.4652230  47.5862220  74.8607280  98.0355090  48.2987200
  75.8939990  96.9856680  47.9493450  78.9864970 100.0237870  46.8229500
  78.6465020 100.5013100  47.5796550  78.2242290  99.5702990  46.4630600
  83.1982740 101.1423460  40.8542050  83.3195560 101.1009940  41.8027870
  82.8131250 102.0047610  40.6988780  82.2104240 103.4524600  40.2525350
  81.6421140 103.0042850  39.6261260  82.9193240 103.8117380  39.7190500
  77.2873420 107.3536620  54.1292080  76.9028210 106.7130290  54.7275040
  77.5985610 108.0572740  54.6986810  76.3011050  98.9456850  45.7394170
  76.0157970  98.5812520  46.5772790  76.2389910  98.2137310  45.1257310
  81.2269930 103.2421800  51.9284910  80.9227000 104.1213780  52.1535270
  82.1816390 103.3021590  51.9642350  79.7551720 107.4482790  42.5251760
  78.9813980 106.9080410  42.3650480  80.4846350 106.9289400  42.1869520
  85.8958500 106.5157210  54.2047150  85.8295810 105.5952880  53.9504740
  85.2663640 106.6132650  54.9191790  79.7989120 107.1163170  46.1630570
  80.3167790 106.3131430  46.1087460  79.3473140 107.0542310  47.0047400
  84.6858620 108.3829450  41.4357870  85.0274320 109.1271680  40.9401190
  83.8571330 108.6960570  41.7982700  80.4846780 104.5408780  55.9595820
  80.1846920 104.6865960  55.0623640  81.2558020 103.9814070  55.8669210
  90.9612300 103.5217600  40.2249560  90.8776020 103.9531820  39.3746000
  91.6806490 103.9815950  40.6576380  92.0386440 105.9785120  53.3019530
  91.3134630 106.5713900  53.1048920  92.5661900 105.9708660  52.5032900
  91.9899550 110.3759860  42.9531690  91.3475710 109.7215480  43.2275410
  91.6030210 110.7814950  42.1772360  83.6549310 108.4642980  44.2073790
  84.3420440 109.0112190  44.5881380  82.8681730 109.0083710  44.2423400
  75.7941710 104.0815800  39.6990870  76.6636560 104.3640600  39.9826790
  75.3032030 104.8951670  39.5839680  82.9576520 105.4689010  43.8199150
  83.4139300 106.2794260  44.0459340  82.6064730 105.1512150  44.6517640
  78.8588300  95.8126660  44.2921670  78.7302930  95.8044560  45.2406590
  78.0350320  96.1509750  43.9412680  90.3796930 109.2676320  39.4908040
  90.1534510 108.5506760  40.0832680  89.9893130 109.0188760  38.6529790
  88.3078830 109.7822600  52.9704960  88.6435070 110.3689290  53.6482880
  87.3879170 109.6515310  53.2002750  75.8582230  97.5717780  53.7528370
  75.1440750  97.7714700  54.3580980  76.2777270  96.7957350  54.1243170
  89.9613180 107.1848260  41.1522200  89.6734880 107.6460950  41.9400080
  90.7565350 106.7246030  41.4206420  82.1781580 110.6774380  41.0826170
  82.1691680 111.4104070  40.4670680  81.2579940 110.4305960  41.1753130
  77.7788220 105.8989270  41.8272930  77.1716170 106.6388170  41.8368230
  78.2537570 105.9888630  41.0011130  87.3521010 100.0640090  51.5029820
  87.7201830  99.2435300  51.8309390  86.4919210 100.1241980  51.9185470
  85.1641180 110.7402620  39.7451360  85.2653160 110.5366610  38.8153340
  84.2642920 110.4860900  39.9499140  82.6867070 101.2982980  43.7275260
  81.9783220 101.7669320  44.1688870  82.9711550 100.6404990  44.3620450
  84.3123000 102.7179680  51.7267790  84.8108250 103.1925500  52.3919640
  84.4545950 101.7943200  51.9337820  83.8059290 113.2588940  44.4399030
  84.0600790 113.2210330  43.5178400  82.8571770 113.1322270  44.4327280
  80.8902090  99.6068060  41.1025970  81.7392620 100.0438210  41.0366160
  80.5233360  99.9188320  41.9298030  79.7893510 105.8600420  39.5761500
  80.5556780 105.7481780  40.1386930  79.8668200 105.1638390  38.9238270
  78.4840270 103.2925490  40.2594390  78.5643860 102.3453000  40.3711790
  79.3760020 103.6232370  40.3655050  91.8137450 111.3489670  47.6911800
  91.9384870 112.1720840  48.1635610  92.6803010 111.1380400  47.3435950
  76.1700460 109.5094450  43.2370440  75.2440240 109.7515590  43.2275850
  76.6356890 110.3368710  43.1155190  82.3957290 112.6151190  39.1854500
  83.1885900 112.9040020  38.7336290  81.8761640 112.1843360  38.5066980
  91.4487460 111.8421320  40.6091240  91.1628970 111.4286460  39.7945420
  91.2507010 112.7709030  40.4891760  82.9134690 107.8354600  39.0496850
  82.8085330 107.2206950  39.7758230  82.7458910 107.3120490  38.2659860
  83.0649010 106.5211400  55.0286080  82.2994680 107.0896400  54.9440750
  83.2464970 106.2287610  54.1354310  86.1537420 106.8974630  39.6538840
  85.6047520 107.3443930  40.2981580  86.7756680 106.3923880  40.1776510
  78.0434150 103.2570000  56.3900630  78.0839490 102.9583870  57.2985860
  78.8979650 103.6577610  56.2308150  81.8212540 105.8565550  41.5504140
  82.2428960 105.6905420  42.3935530  81.9463380 105.0465780  41.0559280
  79.9839960 101.8362100  54.3575120  79.4536420 101.3453050  53.7298460
  80.6528030 102.2646300  53.8233050  84.3340180 104.8803160  38.7981240
  84.8545840 104.1652180  38.4322390  84.9808580 105.5189030  39.0981750
  80.4712260  98.8024470  54.4372410  80.3769130  98.1845220  53.7123280
  79.8909650  99.5290760  54.2102320  85.9797150 103.9868220  53.4750080
  86.0993360 103.3909360  54.2144920  86.8391150 104.0237910  53.0551380
  80.7171440 101.9298780  38.4962300  80.5160500 101.0666140  38.8575640
  80.5463490 101.8432140  37.5583900  82.7465920 100.5289570  54.7325900
  83.3365610 100.2205420  55.4203720  81.9286160 100.0569320  54.8885800
  87.5659350 100.1455380  54.9658920  86.8774870  99.4836920  54.9008910
  88.2865370  99.6993650  55.4107380  82.7339170  97.9734020  39.4696380
  82.3861170  97.2958010  38.8898830  82.9351940  97.5123530  40.2839770
  84.8988210 112.9614770  41.0882980  85.7939000 113.2999740  41.1101740
  84.9305840 112.2394180  40.4607260  78.5384370 108.3341820  39.3169980
  78.9759240 108.8771490  39.9727560  79.0232100 107.5088770  39.3266320
  75.7530170 111.1230850  46.7690240  76.0833180 110.2551910  46.5368880
  76.1821170 111.3289370  47.5995200  80.3492090 109.4539860  44.4292210
  80.0487630 109.3304830  45.3296120  80.2429580 108.5948450  44.0207940
  76.2420380 111.9901440  49.5071870  75.8051370 112.1702240  50.3396020
  76.8098060 112.7476060  49.3653590  93.1184010 109.2336260  39.1318890
  92.2876970 109.3012910  39.6026120  93.2955840 110.1240380  38.8285750
  76.0744810 104.5021670  45.8660750  75.4193650 104.2333310  45.2220450
  76.9122760 104.3926150  45.4162730  90.5634200 108.2170420  51.8925340
  89.7494040 108.6467580  52.1551130  90.9708400 108.8288830  51.2794390
  92.6259640 106.2718110  38.7925610  92.9008480 107.1796990  38.6644830
  92.4370380 106.2080640  39.7287600  76.6636740 101.7983330  54.3122510
  75.7692790 101.7650090  54.6516220  77.2034290 101.9970120  55.0773760
  75.2882890 101.7120600  41.8086080  74.3846970 101.9750800  41.6337740
  75.7723510 101.9831770  41.0286040  91.9765660 102.5184460  50.6081830
  91.0268370 102.4848000  50.7226820  92.1578670 103.4284570  50.3731600
  77.1676450  96.0731660  48.6605730  77.8152640  95.5229040  48.2200890
  77.5878290  96.3274810  49.4821540  90.6210250 112.9689020  45.4193610
  91.2169320 112.6473590  44.7428030  90.8788400 112.4960840  46.2106880
  76.9208450  96.2287330  51.4031050  76.5723270  96.6851150  52.1689230
  76.5896150  95.3344460  51.4853480  84.4333270  97.4199210  54.9250470
  84.3722160  98.0121040  55.6745880  85.3733650  97.3125170  54.7800730
  77.5929090  95.7563530  54.6781820  78.1412080  95.5751580  53.9147930
  77.6584400  94.9657640  55.2138130  77.9973080 109.7127560  51.6390060
  77.2707140 109.0932850  51.5716010  78.0582230 110.1068170  50.7688140
  84.3413680 112.8181050  49.2508450  84.6291490 112.5635350  48.3741460
  84.8536900 112.2658410  49.8414020  90.1111760  97.2594350  47.8754050
  90.5519850  97.2039450  47.0275650  89.8419350  98.1752360  47.9464230
  91.9750330  96.8909590  45.8862870  91.9138730  95.9470810  45.7393890
  92.7542360  96.9989680  46.4316330  76.2803080 113.0301950  44.8486820
  76.1125120 112.3972630  45.5468710  75.4137590 113.2361350  44.4981010
  76.9031100  96.8618730  42.3518680  77.6610460  96.9747610  41.7782710
  76.4408270  97.6987930  42.3062110  77.8865780 111.7235180  42.2936960
  77.3613400 112.1043210  41.5898920  77.8110360 112.3485950  43.0146670
  79.2756250  97.3882780  40.8920650  79.8049010  96.6012580  40.7628600
  79.9084570  98.0673970  41.1256180  81.4694090  97.1257920  43.9466040
  80.8396830  96.4245230  44.1136170  80.9299230  97.8862050  43.7299200
  92.6431100 113.2822720  43.6150900  92.8183290 112.5960460  42.9711820
  91.9452670 113.8069770  43.2227570  81.5949650  96.4041900  56.3818530
  81.3133920  96.9075500  55.6179350  81.9769350  95.6063650  56.0160660
  80.4858750 113.6717560  41.1686210  81.2177570 113.3876840  40.6210100
  80.7452420 113.4330840  42.0585590  79.6473540 109.7882290  41.1732540
  79.0182420 110.2567390  41.7218370  79.7621370 108.9431510  41.6078730
  88.1965110  95.8195480  56.9599000  88.0830560  96.1390090  57.8550520
  89.0134850  96.2207990  56.6636280  87.1023260 103.8387950  27.3233740
  87.0217310 102.9242560  27.0525450  86.6887680 104.3355020  26.6173450
  85.2341300 105.6166970  29.2043010  84.4583400 105.1367410  29.4941580
  85.8854230 104.9372620  29.0299170  79.2507130 105.9286780  30.0818770
  78.4192010 105.6735490  30.4815280  79.8588110 105.9997550  30.8176690
  79.2308390 109.9626870  30.2776790  79.5336430 109.0724610  30.0987010
  79.9751980 110.5197090  30.0499040  75.6232090 103.4894320  29.7500860
  76.1948200 102.7216520  29.7504500  75.6233630 103.7883080  28.8407470
  85.4812040 112.3085170  27.6046130  84.8623480 112.7642670  27.0340570
  86.3363820 112.4636630  27.2035830  84.6750290 108.2924160  29.2113170
  84.6058570 107.3514100  29.0502300  85.4370150 108.3825570  29.7835740
  76.8656960  98.8978680  31.5369790  76.6859800  98.0004430  31.8172550
  76.4637040  99.4450550  32.2116740  85.7055460 101.0994540  29.4382100
  86.0820280 100.2266420  29.3255770  85.6074970 101.4353240  28.5472540
  89.4879580  98.5944980  26.3710440  90.3089200  98.1041550  26.4135920
  89.5213660  99.1842640  27.1242280  77.4843630 101.3939180  30.1452130
  78.1653740 101.6577550  30.7639530  77.1691680 100.5540050  30.4790140
  81.6768200 102.4406540  29.2324720  82.1846420 102.9387510  29.8729740
  82.2081440 101.6641740  29.0564080  93.7779130 100.6111730  32.9354070
  93.0731300 100.9993440  32.4169180  94.0437050 101.3062020  33.5375000
  79.9604300  97.0805100  33.4988140  79.9622740  97.5977490  32.6934040
  79.1308610  96.6035280  33.4758070  86.3475390 107.1924410  24.9978040
  85.7292660 107.6573860  24.4340760  86.8598640 107.8851890  25.4147550
  81.2107150 106.7200280  31.6761640  80.8776530 107.3469200  32.3182710
  81.3873830 107.2462160  30.8963310  89.7241060 100.5345360  29.1437980
  89.0196630 100.8230250  29.7241090  90.0853220 101.3445470  28.7837540
  79.6419630  98.7915060  31.5058590  79.9836440  99.6357110  31.2112460
  78.7035440  98.9398800  31.6223930  80.4226250 108.6881080  33.4910820
  81.0400250 109.3632160  33.2095270  79.5619370 109.0969060  33.3998320
  75.7158590 107.8780940  22.3717670  75.3386570 108.3668040  21.6402570
  75.9731660 108.5506220  23.0024200  91.3403840 110.1520490  31.4065460
  90.6567360 110.8219600  31.3982130  91.8798130 110.3501140  30.6410320
  92.7927980  99.9800150  29.5347190  91.8452890 100.0139130  29.6662620
  93.1177970 100.7939100  29.9196550  83.3247520  96.2797330  27.8303180
  83.6322500  95.7244220  27.1138680  82.3948220  96.4141790  27.6476170
  88.8762580 111.9964620  30.1210640  88.8889740 111.5926910  29.2532900
  88.3237800 112.7711910  30.0172070  85.7128280 104.3446160  24.5663300
  84.7857560 104.2783540  24.7951770  85.8653100 105.2826290  24.4518540
  85.6997360 100.6163160  21.5630460  84.7601030 100.7777120  21.6482920
  86.0180620 101.3348840  21.0166450  89.1852130 102.0851000  32.4864360
  88.7723310 102.9104710  32.7404350  88.4528080 101.4996040  32.2940720
  81.3184920 104.8710900  27.3483030  80.9141920 104.1588150  26.8528930
  81.4048040 104.5264140  28.2371070  81.7866620 108.5578460  29.5122240
  81.4894910 107.9523930  28.8330020  82.7366440 108.5955770  29.4011600
  80.0313540 101.6454110  31.1282070  80.5828130 101.7549450  30.3535320
  80.5457050 102.0191710  31.8437300  89.8752230 112.1310330  33.1745340
  89.3982790 112.9382520  32.9817950  89.1914020 111.4788660  33.3271550
  80.8785050 108.2960150  36.1630040  79.9813580 108.5200120  36.4103440
  80.9037920 108.4195090  35.2141440  79.7056270 105.1673470  34.7387410
  79.5664040 106.0396270  35.1074810  78.8237630 104.8246280  34.5935350
  86.0285650 110.0849340  26.0452540  86.4681560 110.8273670  25.6307930
  85.9672540 110.3275910  26.9691500  81.5036620 111.1095170  36.9472560
  81.4752050 111.5138120  36.0800990  81.3401590 110.1805530  36.7844160
  91.5007410  96.3996080  20.3912340  91.1880070  96.4922910  21.2911410
  92.2619880  96.9777110  20.3409770  93.4551440 111.8922270  38.2436730
  93.9311160 112.3705160  38.9225810  94.0758600 111.8239760  37.5182230
  75.6574920 106.9371020  30.6558320  75.7355340 107.0719790  29.7114040
  76.2716600 106.2286910  30.8486440  76.9022550 108.6371210  27.0664500
  76.4950630 108.7785800  26.2118100  77.7935560 108.3531370  26.8635710
  92.8584690 109.0835120  35.4036740  92.9847750 108.8447000  34.4853920
  92.9006070 108.2519660  35.8758820  88.6955830 113.0718460  23.4015550
  88.5356970 112.7821400  24.2997380  88.5302540 112.2958590  22.8660780
  81.1744210 112.8516990  25.1787170  80.9986690 111.9352530  24.9654970
  80.3199950 113.2104280  25.4184970  88.3981960 110.5806020  21.9613550
  87.7047120 110.5783310  21.3015830  89.1404820 110.1565340  21.5307720
  87.9631890 112.2068730  26.0362040  88.4188840 111.4258110  26.3500660
  88.3024410 112.9175550  26.5803220  92.7108700 101.1367580  36.3686480
  92.0952970 101.6447250  35.8401940  92.3905120 100.2365910  36.3112420
  75.7134440 107.9785190  33.1952780  75.8765480 107.5090550  32.3772150
  76.1786890 107.4708750  33.8601620  83.6012030  96.7301650  23.1119180
  82.9766210  96.7261520  23.8372490  83.5142150  95.8632610  22.7155150
  82.5229110  97.6538280  30.0902950  82.8201440  98.5601110  30.0094970
  83.0714670  97.1657060  29.4762520  87.5065190 102.2387890  24.5585250
  86.9074080 102.9623690  24.3748870  88.0544800 102.1764670  23.7761700
  82.7166640 103.1310100  36.6254870  82.6210240 102.1904830  36.4755270
  83.5598620 103.3525170  36.2302940  86.1130060 100.8751430  26.5888530
  86.5059630 101.1923630  25.7757220  86.4746910  99.9963310  26.7033050
  75.1494230  97.4652230  28.8118730  74.8607280  98.0355090  29.5243710
  75.8939990  96.9856680  29.1749960  86.6985200 103.4657180  30.6839310
  85.9666320 103.9743990  31.0329410  86.3009540 102.6487160  30.3828090
  83.1362590 100.1411380  29.0891800  83.1398650  99.7001330  28.2396340
  84.0313710 100.4628710  29.1963620  83.1982740 101.1423460  22.0798560
  83.3195560 101.1009940  23.0284380  82.8131250 102.0047610  21.9245290
  87.1611110  98.9190860  30.0962250  87.1783850  99.3699510  30.9404100
  86.9126690  98.0196500  30.3095690  82.2104240 103.4524600  21.4781860
  81.6421140 103.0042850  20.8517770  82.9193240 103.8117380  20.9447010
  90.5881860  96.3323040  35.9348630  90.9127630  95.6012700  36.4606610
  90.6238370  96.0136680  35.0329620  77.2873420 107.3536620  35.3548590
  76.9028210 106.7130290  35.9531550  77.5985610 108.0572740  35.9243320
  83.4370560 104.2013160  30.8357210  83.8040690 103.7271730  31.5818550
  83.2475620 105.0754730  31.1765550  81.2269930 103.2421800  33.1541420
  80.9227000 104.1213780  33.3791780  82.1816390 103.3021590  33.1898860
  79.7551720 107.4482790  23.7508270  78.9813980 106.9080410  23.5906990
  80.4846350 106.9289400  23.4126030  85.9749640  97.8386110  23.6864050
  85.1614250  97.3399280  23.6109360  85.7811590  98.6784360  23.2700400
  79.7989120 107.1163170  27.3887080  80.3167790 106.3131430  27.3343970
  79.3473140 107.0542310  28.2303910  84.6858620 108.3829450  22.6614380
  85.0274320 109.1271680  22.1657700  83.8571330 108.6960570  23.0239210
  80.4846780 104.5408780  37.1852330  80.1846920 104.6865960  36.2880150
  81.2558020 103.9814070  37.0925720  91.9899550 110.3759860  24.1788200
  91.3475710 109.7215480  24.4531920  91.6030210 110.7814950  23.4028870
  83.6549310 108.4642980  25.4330300  84.3420440 109.0112190  25.8137890
  82.8681730 109.0083710  25.4679910  82.9576520 105.4689010  25.0455660
  83.4139300 106.2794260  25.2715850  82.6064730 105.1512150  25.8774150
  86.5341210 108.9827700  30.9925410  87.1763440 108.2820860  31.1057580
  87.0590560 109.7626140  30.8122300  90.3796930 109.2676320  20.7164550
  90.1534510 108.5506760  21.3089190  89.9893130 109.0188760  19.8786300
  88.3078830 109.7822600  34.1961470  88.6435070 110.3689290  34.8739390
  87.3879170 109.6515310  34.4259260  76.1612960 113.2943180  21.4909010
  76.5210600 113.8932520  20.8366280  76.0205300 113.8403070  22.2644040
  76.1454820 111.5598040  35.9651410  76.2545940 110.6192780  35.8246800
  75.4935380 111.8252790  35.3165140  84.1367410 109.8313930  37.3649530
  83.8164280 109.1123170  37.9095220  83.4625770 110.5069000  37.4385590
  82.1781580 110.6774380  22.3082680  82.1691680 111.4104070  21.6927190
  81.2579940 110.4305960  22.4009640  90.7183040  99.0197030  23.5373890
  90.0896200  99.1242700  22.8232120  90.2234960  99.2393810  24.3267770
  85.1641180 110.7402620  20.9707870  85.2653160 110.5366610  20.0409850
  84.2642920 110.4860900  21.1755650  82.6867070 101.2982980  24.9531770
  81.9783220 101.7669320  25.3945380  82.9711550 100.6404990  25.5876960
  84.3123000 102.7179680  32.9524300  84.8108250 103.1925500  33.6176150
  84.4545950 101.7943200  33.1594330  86.7182500  98.0233640  26.3927560
  86.5950280  98.0419770  25.4437070  87.6667060  98.0712580  26.5125960
  83.8059290 113.2588940  25.6655540  84.0600790 113.2210330  24.7434910
  82.8571770 113.1322270  25.6583790  91.5189860  98.9347640  33.7952690
  91.0163460  99.6753040  34.1346500  92.3346520  99.3231640  33.4789480
  79.7893510 105.8600420  20.8018010  80.5556780 105.7481780  21.3643440
  79.8668200 105.1638390  20.1494780  91.8137450 111.3489670  28.9168310
  91.9384870 112.1720840  29.3892120  92.6803010 111.1380400  28.5692460
  79.2854980 113.4420880  28.5885440  80.0217460 112.8936340  28.8594010
  79.6695900 114.3076890  28.4491430  76.1700460 109.5094450  24.4626950
  75.2440240 109.7515590  24.4532360  76.6356890 110.3368710  24.3411700
  78.2913260 112.6266950  37.7771020  79.0925990 112.9479000  38.1906420
  77.7765080 112.2662530  38.4990930  82.3957290 112.6151190  20.4111010
  83.1885900 112.9040020  19.9592800  81.8761640 112.1843360  19.7323490
  88.5578260 112.4627110  36.3355840  89.5100010 112.3785130  36.2856080
  88.4106480 113.1268820  37.0089630  91.4487460 111.8421320  21.8347750
  91.1628970 111.4286460  21.0201930  91.2507010 112.7709030  21.7148270
  82.9134690 107.8354600  20.2753360  82.8085330 107.2206950  21.0014740
  82.7458910 107.3120490  19.4916370  83.0649010 106.5211400  36.2542590
  82.2994680 107.0896400  36.1697260  83.2464970 106.2287610  35.3610820
  86.1537420 106.8974630  20.8795350  85.6047520 107.3443930  21.5238090
  86.7756680 106.3923880  21.4033020  81.8212540 105.8565550  22.7760650
  82.2428960 105.6905420  23.6192040  81.9463380 105.0465780  22.2815790
  84.3340180 104.8803160  20.0237750  84.8545840 104.1652180  19.6578900
  84.9808580 105.5189030  20.3238260  83.2373700  97.3597710  32.6956310
  82.7891000  97.3821970  31.8501860  82.6038900  96.9616730  33.2926610
  83.6433250 106.2552040  33.3168750  84.0621360 107.0984770  33.1444990
  82.7241880 106.3924080  33.0875530  80.7171440 101.9298780  19.7218810
  80.5160500 101.0666140  20.0832150  80.5463490 101.8432140  18.7840410
  81.4940670 112.5605050  34.4326480  80.9561760 113.2851110  34.1135180
  81.7474630 112.0835390  33.6423820  82.7465920 100.5289570  35.9582410
  83.3365610 100.2205420  36.6460230  81.9286160 100.0569320  36.1142310
  88.1959750  96.7407010  22.2505690  88.4762040  95.8974910  22.6065110
  87.4225480  96.9730120  22.7644440  79.5154240  99.0299400  19.7096690
  79.8180140  99.0366830  18.8015840  80.2548830  98.6797260  20.2064350
  82.7339170  97.9734020  20.6952890  82.3861170  97.2958010  20.1155340
  82.9351940  97.5123530  21.5096280  84.8988210 112.9614770  22.3139490
  85.7939000 113.2999740  22.3358250  84.9305840 112.2394180  21.6863770
  78.5384370 108.3341820  20.5426490  78.9759240 108.8771490  21.1984070
  79.0232100 107.5088770  20.5522830  80.3492090 109.4539860  25.6548720
  80.0487630 109.3304830  26.5552630  80.2429580 108.5948450  25.2464450
  91.8782560 111.4918440  35.0205690  91.2784550 111.5511000  34.2769610
  92.0076460 110.5523420  35.1502540  93.1184010 109.2336260  20.3575400
  92.2876970 109.3012910  20.8282630  93.2955840 110.1240380  20.0542260
  90.5634200 108.2170420  33.1181850  89.7494040 108.6467580  33.3807640
  90.9708400 108.8288830  32.5050900  89.0235250  99.2962960  21.3135750
  89.4420130  99.1093940  20.4732410  88.7171310  98.4442010  21.6238680
  77.1120740 104.8874240  31.6320600  77.4793780 104.8001640  32.5116620
  76.5431560 104.1240790  31.5327460  91.7975940 102.4344590  28.3118790
  92.3213420 101.9407240  27.6808960  92.3835360 102.5694950  29.0566360
  91.9765660 102.5184460  31.8338340  91.0268370 102.4848000  31.9483330
  92.1578670 103.4284570  31.5988110  91.0628790  96.2673020  33.2431880
  91.7001010  96.8807160  33.6091070  91.2103680  96.3033680  32.2981110
  90.6210250 112.9689020  26.6450120  91.2169320 112.6473590  25.9684540
  90.8788400 112.4960840  27.4363390  76.9208450  96.2287330  32.6287560
  76.5723270  96.6851150  33.3945740  76.5896150  95.3344460  32.7109990
  78.5272820 109.4006930  36.7940750  78.4842450 109.0299840  37.6755210
  78.6583830 110.3384500  36.9342570  82.2278850 110.9566520  32.3950470
  81.9870210 111.2241080  31.5080990  83.1681490 111.1272250  32.4501330
  93.4883010 112.9760900  33.1961110  92.9941290 113.3729770  32.4788240
  92.8796300 112.3510110  33.5898390  78.3660850 112.3469180  33.9138530
  77.7721170 112.2153880  34.6528570  78.3584690 111.5107320  33.4480630
  87.8115870  95.6401410  32.1168560  86.9375710  95.9736520  31.9141490
  87.7026620  95.1674590  32.9420430  91.1722460 113.6184320  30.4747850
  90.7125430 114.3700130  30.1005870  90.5434920 112.8990790  30.4162650
  77.9973080 109.7127560  32.8646570  77.2707140 109.0932850  32.7972520
  78.0582230 110.1068170  31.9944650  81.6018180 111.9272560  29.6495980
  82.1183200 111.3159920  29.1244240  82.2515560 112.4301340  30.1406990
  85.5590690  96.5571250  31.0561470  84.7762480  97.0316750  31.3358230
  85.2653620  95.6526080  30.9474650  90.1111760  97.2594350  29.1010560
  90.5519850  97.2039450  28.2532160  89.8419350  98.1752360  29.1720740
  91.9750330  96.8909590  27.1119380  91.9138730  95.9470810  26.9650400
  92.7542360  96.9989680  27.6572840  76.9031100  96.8618730  23.5775190
  77.6610460  96.9747610  23.0039220  76.4408270  97.6987930  23.5318620
  83.4444910  98.9758000  26.5677500  82.6319420  98.6014890  26.2273380
  83.9486550  98.2203080  26.8698690  87.9469890  95.6400450  27.8060570
  88.5499260  96.2120660  28.2809090  87.2062880  96.2039890  27.5834470
  91.0904490  96.0422010  23.0800850  91.2855120  96.9405460  23.3468280
  90.3034360  95.8109090  23.5733800  77.8865780 111.7235180  23.5193470
  77.3613400 112.1043210  22.8155430  77.8110360 112.3485950  24.2403180
  79.2756250  97.3882780  22.1177160  79.8049010  96.6012580  21.9885110
  79.9084570  98.0673970  22.3512690  81.4694090  97.1257920  25.1722550
  80.8396830  96.4245230  25.3392680  80.9299230  97.8862050  24.9555710
  84.4086040 113.7397150  37.8433160  85.3353350 113.5041420  37.8869120
  84.3936470 114.5669150  37.3619190  92.6431100 113.2822720  24.8407410
  92.8183290 112.5960460  24.1968330  91.9452670 113.8069770  24.4484080
  81.5949650  96.4041900  37.6075040  81.3133920  96.9075500  36.8435860
  81.9769350  95.6063650  37.2417170  80.4858750 113.6717560  22.3942720
  81.2177570 113.3876840  21.8466610  80.7452420 113.4330840  23.2842100
  79.6473540 109.7882290  22.3989050  79.0182420 110.2567390  22.9474880
  79.7621370 108.9431510  22.8335240  90.9763600 112.9667010  37.6674200
  91.7688920 112.4716240  37.4600160  91.2696750 113.6457150  38.2749810
  87.1023260 103.8387950   8.5490250  87.0217310 102.9242560   8.2781960
  86.6887680 104.3355020   7.8429960  85.2341300 105.6166970  10.4299520
  84.4583400 105.1367410  10.7198090  85.8854230 104.9372620  10.2555680
  79.2507130 105.9286780  11.3075280  78.4192010 105.6735490  11.7071790
  79.8588110 105.9997550  12.0433200  89.2548730 110.0227160   9.2098650
  88.7930260 109.2514400   9.5385820  90.0674280 110.0493230   9.7151100
  79.2308390 109.9626870  11.5033300  79.5336430 109.0724610  11.3243520
  79.9751980 110.5197090  11.2755550  77.6599080 100.8888670   5.0917670
  76.7715780 101.2304640   4.9897550  77.9440270 100.6888990   4.1998500
  75.6232090 103.4894320  10.9757370  76.1948200 102.7216520  10.9761010
  75.6233630 103.7883080  10.0663980  85.4812040 112.3085170   8.8302640
  84.8623480 112.7642670   8.2597080  86.3363820 112.4636630   8.4292340
  84.6750290 108.2924160  10.4369680  84.6058570 107.3514100  10.2758810
  85.4370150 108.3825570  11.0092250  76.8656960  98.8978680  12.7626300
  76.6859800  98.0004430  13.0429060  76.4637040  99.4450550  13.4373250
  85.7055460 101.0994540  10.6638610  86.0820280 100.2266420  10.5512280
  85.6074970 101.4353240   9.7729050  79.8360470  99.4720170   6.1256050
  79.9427220 100.3723900   6.4324810  78.9252830  99.4238140   5.8350700
  89.4879580  98.5944980   7.5966950  90.3089200  98.1041550   7.6392430
  89.5213660  99.1842640   8.3498790  77.4843630 101.3939180  11.3708640
  78.1653740 101.6577550  11.9896040  77.1691680 100.5540050  11.7046650
  81.6768200 102.4406540  10.4581230  82.1846420 102.9387510  11.0986250
  82.2081440 101.6641740  10.2820590  93.7779130 100.6111730  14.1610580
  93.0731300 100.9993440  13.6425690  94.0437050 101.3062020  14.7631510
  79.9604300  97.0805100  14.7244650  79.9622740  97.5977490  13.9190550
  79.1308610  96.6035280  14.7014580  86.3475390 107.1924410   6.2234550
  85.7292660 107.6573860   5.6597270  86.8598640 107.8851890   6.6404060
  81.2107150 106.7200280  12.9018150  80.8776530 107.3469200  13.5439220
  81.3873830 107.2462160  12.1219820  89.7241060 100.5345360  10.3694490
  89.0196630 100.8230250  10.9497600  90.0853220 101.3445470  10.0094050
  79.6419630  98.7915060  12.7315100  79.9836440  99.6357110  12.4368970
  78.7035440  98.9398800  12.8480440  80.4226250 108.6881080  14.7167330
  81.0400250 109.3632160  14.4351780  79.5619370 109.0969060  14.6254830
  75.7158590 107.8780940   3.5974180  75.3386570 108.3668040   2.8659080
  75.9731660 108.5506220   4.2280710  91.3403840 110.1520490  12.6321970
  90.6567360 110.8219600  12.6238640  91.8798130 110.3501140  11.8666830
  92.7927980  99.9800150  10.7603700  91.8452890 100.0139130  10.8919130
  93.1177970 100.7939100  11.1453060  83.3247520  96.2797330   9.0559690
  83.6322500  95.7244220   8.3395190  82.3948220  96.4141790   8.8732680
  88.8762580 111.9964620  11.3467150  88.8889740 111.5926910  10.4789410
  88.3237800 112.7711910  11.2428580  90.1708000 108.7180840   6.4357320
  90.0604330 107.7755170   6.5606740  90.1676250 109.0796480   7.3220080
  88.2748020 106.8994460  12.6749760  88.6916810 106.6854570  11.8403220
  88.9987840 107.1567250  13.2458380  85.7128280 104.3446160   5.7919810
  84.7857560 104.2783540   6.0208280  85.8653100 105.2826290   5.6775050
  85.6997360 100.6163160   2.7886970  84.7601030 100.7777120   2.8739430
  86.0180620 101.3348840   2.2422960  92.2210120 105.2981680  12.7666000
  91.3928750 105.3674770  12.2916130  92.8160600 105.8835990  12.2981830
  89.7425570 105.9066460   6.2955060  89.1237990 105.5686010   5.6481360
  89.7250020 105.2626220   7.0034250  89.1852130 102.0851000  13.7120870
  88.7723310 102.9104710  13.9660860  88.4528080 101.4996040  13.5197230
  81.3184920 104.8710900   8.5739540  80.9141920 104.1588150   8.0785440
  81.4048040 104.5264140   9.4627580  81.7866620 108.5578460  10.7378750
  81.4894910 107.9523930  10.0586530  82.7366440 108.5955770  10.6268110
  80.0313540 101.6454110  12.3538580  80.5828130 101.7549450  11.5791830
  80.5457050 102.0191710  13.0693810  89.8752230 112.1310330  14.4001850
  89.3982790 112.9382520  14.2074460  89.1914020 111.4788660  14.5528060
  80.8785050 108.2960150  17.3886550  79.9813580 108.5200120  17.6359950
  80.9037920 108.4195090  16.4397950  87.9190270 105.1453270   3.3027810
  88.3583550 104.3075700   3.1565630  88.6318690 105.7782670   3.3891950
  79.7056270 105.1673470  15.9643920  79.5664040 106.0396270  16.3331320
  78.8237630 104.8246280  15.8191860  86.0285650 110.0849340   7.2709050
  86.4681560 110.8273670   6.8564440  85.9672540 110.3275910   8.1948010
  81.5036620 111.1095170  18.1729070  81.4752050 111.5138120  17.3057500
  81.3401590 110.1805530  18.0100670  78.0189550 103.7655880   6.0746190
  77.8987150 104.4917970   5.4627460  77.7090440 102.9958790   5.5974100
  93.4551440 111.8922270  19.4693240  93.9311160 112.3705160  20.1482320
  94.0758600 111.8239760  18.7438740  75.6574920 106.9371020  11.8814830
  75.7355340 107.0719790  10.9370550  76.2716600 106.2286910  12.0742950
  76.9022550 108.6371210   8.2921010  76.4950630 108.7785800   7.4374610
  77.7935560 108.3531370   8.0892220  92.8584690 109.0835120  16.6293250
  92.9847750 108.8447000  15.7110430  92.9006070 108.2519660  17.1015330
  86.7201430 112.7863120  15.1988060  87.2346100 112.6971130  16.0010490
  85.8770510 113.1322820  15.4915970  88.6955830 113.0718460   4.6272060
  88.5356970 112.7821400   5.5253890  88.5302540 112.2958590   4.0917290
  81.1744210 112.8516990   6.4043680  80.9986690 111.9352530   6.1911480
  80.3199950 113.2104280   6.6441480  88.3981960 110.5806020   3.1870060
  87.7047120 110.5783310   2.5272340  89.1404820 110.1565340   2.7564230
  87.9631890 112.2068730   7.2618550  88.4188840 111.4258110   7.5757170
  88.3024410 112.9175550   7.8059730  92.7108700 101.1367580  17.5942990
  92.0952970 101.6447250  17.0658450  92.3905120 100.2365910  17.5368930
  75.7134440 107.9785190  14.4209290  75.8765480 107.5090550  13.6028660
  76.1786890 107.4708750  15.0858130  80.4853210  97.1090950   9.4569860
  80.0421360  97.8900490   9.1254380  81.0438200  97.4320840  10.1640800
  84.7723020  99.9759470  15.0605180  84.3102390 100.1842490  15.8725120
  84.3701130  99.1618820  14.7575850  89.7727530 101.1968420  16.1901840
  88.9221120 100.8974170  16.5110910  89.6129320 101.4410430  15.2785660
  86.8677240 102.6970170  18.2900630  87.1930650 101.8633920  17.9502860
  87.6557570 103.2198690  18.4378960  83.6012030  96.7301650   4.3375690
  82.9766210  96.7261520   5.0629000  83.5142150  95.8632610   3.9411660
  82.5229110  97.6538280  11.3159460  82.8201440  98.5601110  11.2351480
  83.0714670  97.1657060  10.7019030  80.2767430 102.2324520   7.1851110
  80.0508350 102.0161690   8.0897730  79.4959960 102.6652980   6.8397080
  87.5065190 102.2387890   5.7841760  86.9074080 102.9623690   5.6005380
  88.0544800 102.1764670   5.0018210  82.7166640 103.1310100  17.8511380
  82.6210240 102.1904830  17.7011780  83.5598620 103.3525170  17.4559450
  86.1130060 100.8751430   7.8145040  86.5059630 101.1923630   7.0013730
  86.4746910  99.9963310   7.9289560  77.8477180  99.5423770  16.0045160
  77.4540570 100.3898980  16.2117940  77.1595580  98.9050140  16.1953800
  84.4222230  99.6258740  19.0741900  83.7320550  99.4330940  19.7087990
  85.1654530  99.9093380  19.6066200  75.1494230  97.4652230  10.0375240
  74.8607280  98.0355090  10.7500220  75.8939990  96.9856680  10.4006470
  86.6985200 103.4657180  11.9095820  85.9666320 103.9743990  12.2585920
  86.3009540 102.6487160  11.6084600  83.1362590 100.1411380  10.3148310
  83.1398650  99.7001330   9.4652850  84.0313710 100.4628710  10.4220130
  78.9864970 100.0237870   9.2742520  78.6465020 100.5013100  10.0309570
  78.2242290  99.5702990   8.9143620  83.1982740 101.1423460   3.3055070
  83.3195560 101.1009940   4.2540890  82.8131250 102.0047610   3.1501800
  87.1611110  98.9190860  11.3218760  87.1783850  99.3699510  12.1660610
  86.9126690  98.0196500  11.5352200  82.2104240 103.4524600   2.7038370
  81.6421140 103.0042850   2.0774280  82.9193240 103.8117380   2.1703520
  90.5881860  96.3323040  17.1605140  90.9127630  95.6012700  17.6863120
  90.6238370  96.0136680  16.2586130  77.2873420 107.3536620  16.5805100
  76.9028210 106.7130290  17.1788060  77.5985610 108.0572740  17.1499830
  83.4370560 104.2013160  12.0613720  83.8040690 103.7271730  12.8075060
  83.2475620 105.0754730  12.4022060  76.3011050  98.9456850   8.1907190
  76.0157970  98.5812520   9.0285810  76.2389910  98.2137310   7.5770330
  81.2269930 103.2421800  14.3797930  80.9227000 104.1213780  14.6048290
  82.1816390 103.3021590  14.4155370  79.7551720 107.4482790   4.9764780
  78.9813980 106.9080410   4.8163500  80.4846350 106.9289400   4.6382540
  90.5139700 106.4448150  10.7691170  91.2338820 106.9403440  10.3787280
  90.3121520 105.7666040  10.1245040  85.9749640  97.8386110   4.9120560
  85.1614250  97.3399280   4.8365870  85.7811590  98.6784360   4.4956910
  85.8958500 106.5157210  16.6560170  85.8295810 105.5952880  16.4017760
  85.2663640 106.6132650  17.3704810  88.6898030 102.2105760   3.2082720
  89.5777650 102.5222990   3.0334060  88.6603120 101.3378010   2.8163300
  79.7989120 107.1163170   8.6143590  80.3167790 106.3131430   8.5600480
  79.3473140 107.0542310   9.4560420  84.6858620 108.3829450   3.8870890
  85.0274320 109.1271680   3.3914210  83.8571330 108.6960570   4.2495720
  77.2833660 104.0824540  15.5269290  76.9248600 104.7478390  16.1142630
  76.9888220 103.2508090  15.8981910  80.4846780 104.5408780  18.4108840
  80.1846920 104.6865960  17.5136660  81.2558020 103.9814070  18.3182230
  85.8275230 109.3377780  16.4063970  85.8419770 108.4058740  16.1882880
  85.1200330 109.4237540  17.0453740  90.9612300 103.5217600   2.6762580
  90.8776020 103.9531820   1.8259020  91.6806490 103.9815950   3.1089400
  92.0386440 105.9785120  15.7532550  91.3134630 106.5713900  15.5561940
  92.5661900 105.9708660  14.9545920  91.9899550 110.3759860   5.4044710
  91.3475710 109.7215480   5.6788430  91.6030210 110.7814950   4.6285380
  87.5686030 107.7045290   9.2516400  87.9209850 107.1073420   8.5917770
  86.6848360 107.3789520   9.4224650  83.6549310 108.4642980   6.6586810
  84.3420440 109.0112190   7.0394400  82.8681730 109.0083710   6.6936420
  75.7941710 104.0815800   2.1503890  76.6636560 104.3640600   2.4339810
  75.3032030 104.8951670   2.0352700  82.9576520 105.4689010   6.2712170
  83.4139300 106.2794260   6.4972360  82.6064730 105.1512150   7.1030660
  85.2609130 110.9795350  13.5004470  85.9051350 111.1854730  14.1777890
  85.6238570 110.2183750  13.0475320  78.8588300  95.8126660   6.7434690
  78.7302930  95.8044560   7.6919610  78.0350320  96.1509750   6.3925700
  86.5341210 108.9827700  12.2181920  87.1763440 108.2820860  12.3314090
  87.0590560 109.7626140  12.0378810  88.3078830 109.7822600  15.4217980
  88.6435070 110.3689290  16.0995900  87.3879170 109.6515310  15.6515770
  76.1612960 113.2943180   2.7165520  76.5210600 113.8932520   2.0622790
  76.0205300 113.8403070   3.4900550  89.9613180 107.1848260   3.6035220
  89.6734880 107.6460950   4.3913100  90.7565350 106.7246030   3.8719440
  76.1454820 111.5598040  17.1907920  76.2545940 110.6192780  17.0503310
  75.4935380 111.8252790  16.5421650  84.1367410 109.8313930  18.5906040
  83.8164280 109.1123170  19.1351730  83.4625770 110.5069000  18.6642100
  82.1781580 110.6774380   3.5339190  82.1691680 111.4104070   2.9183700
  81.2579940 110.4305960   3.6266150  77.7788220 105.8989270   4.2785950
  77.1716170 106.6388170   4.2881250  78.2537570 105.9888630   3.4524150
  87.3521010 100.0640090  13.9542840  87.7201830  99.2435300  14.2822410
  86.4919210 100.1241980  14.3698490  90.7183040  99.0197030   4.7630400
  90.0896200  99.1242700   4.0488630  90.2234960  99.2393810   5.5524280
  82.6867070 101.2982980   6.1788280  81.9783220 101.7669320   6.6201890
  82.9711550 100.6404990   6.8133470  84.3123000 102.7179680  14.1780810
  84.8108250 103.1925500  14.8432660  84.4545950 101.7943200  14.3850840
  86.7182500  98.0233640   7.6184070  86.5950280  98.0419770   6.6693580
  87.6667060  98.0712580   7.7382470  83.8059290 113.2588940   6.8912050
  84.0600790 113.2210330   5.9691420  82.8571770 113.1322270   6.8840300
  80.8902090  99.6068060   3.5538990  81.7392620 100.0438210   3.4879180
  80.5233360  99.9188320   4.3811050  91.5189860  98.9347640  15.0209200
  91.0163460  99.6753040  15.3603010  92.3346520  99.3231640  14.7045990
  89.8111870 104.1780820   8.4670560  88.8702010 104.1931050   8.6418250
  90.1255940 103.3916780   8.9130860  78.4840270 103.2925490   2.7107410
  78.5643860 102.3453000   2.8224810  79.3760020 103.6232370   2.8168070
  91.8137450 111.3489670  10.1424820  91.9384870 112.1720840  10.6148630
  92.6803010 111.1380400   9.7948970  79.2854980 113.4420880   9.8141950
  80.0217460 112.8936340  10.0850520  79.6695900 114.3076890   9.6747940
  76.1700460 109.5094450   5.6883460  75.2440240 109.7515590   5.6788870
  76.6356890 110.3368710   5.5668210  78.2913260 112.6266950  19.0027530
  79.0925990 112.9479000  19.4162930  77.7765080 112.2662530  19.7247440
  87.1277890 108.7346820  18.9502940  86.5216050 108.7578420  18.2098690
  86.8232000 108.0029860  19.4870190  88.5578260 112.4627110  17.5612350
  89.5100010 112.3785130  17.5112590  88.4106480 113.1268820  18.2346140
  91.4487460 111.8421320   3.0604260  91.1628970 111.4286460   2.2458440
  91.2507010 112.7709030   2.9404780  76.0111070 105.1140410  17.9463580
  76.5150090 104.5347690  18.5179810  75.2718490 105.3980640  18.4839950
  83.0649010 106.5211400  17.4799100  82.2994680 107.0896400  17.3953770
  83.2464970 106.2287610  16.5867330  86.1537420 106.8974630   2.1051860
  85.6047520 107.3443930   2.7494600  86.7756680 106.3923880   2.6289530
  90.2072360 108.2516730  18.0374120  90.9481830 108.5892490  17.5341580
  89.4445040 108.4208790  17.4843890  78.0434150 103.2570000  18.8413650
  78.0839490 102.9583870  19.7498880  78.8979650 103.6577610  18.6821170
  81.8212540 105.8565550   4.0017160  82.2428960 105.6905420   4.8448550
  81.9463380 105.0465780   3.5072300  79.9839960 101.8362100  16.8088140
  79.4536420 101.3453050  16.1811480  80.6528030 102.2646300  16.2746070
  88.8818020 106.3031560  16.5729330  89.2959040 106.4576640  17.4219750
  87.9469020 106.4286780  16.7355110  80.4712260  98.8024470  16.8885430
  80.3769130  98.1845220  16.1636300  79.8909650  99.5290760  16.6615340
  83.2373700  97.3597710  13.9212820  82.7891000  97.3821970  13.0758370
  82.6038900  96.9616730  14.5183120  83.6433250 106.2552040  14.5425260
  84.0621360 107.0984770  14.3701500  82.7241880 106.3924080  14.3132040
  85.9797150 103.9868220  15.9263100  86.0993360 103.3909360  16.6657940
  86.8391150 104.0237910  15.5064400  88.3185050 104.5405410  14.5025610
  87.7920270 105.0648030  13.8990750  88.6616390 105.1732800  15.1335340
  81.4940670 112.5605050  15.6582990  80.9561760 113.2851110  15.3391690
  81.7474630 112.0835390  14.8680330  82.7465920 100.5289570  17.1838920
  83.3365610 100.2205420  17.8716740  81.9286160 100.0569320  17.3398820
  87.5659350 100.1455380  17.4171940  86.8774870  99.4836920  17.3521930
  88.2865370  99.6993650  17.8620400  88.1959750  96.7407010   3.4762200
  88.4762040  95.8974910   3.8321620  87.4225480  96.9730120   3.9900950
  84.3502880 113.7956260  15.9169640  84.2761580 114.6991400  16.2242010
  83.4481720 113.4768160  15.8891710  84.8988210 112.9614770   3.5396000
  85.7939000 113.2999740   3.5614760  84.9305840 112.2394180   2.9120280
  78.5384370 108.3341820   1.7683000  78.9759240 108.8771490   2.4240580
  79.0232100 107.5088770   1.7779340  75.7530170 111.1230850   9.2203260
  76.0833180 110.2551910   8.9881900  76.1821170 111.3289370  10.0508220
  80.3492090 109.4539860   6.8805230  80.0487630 109.3304830   7.7809140
  80.2429580 108.5948450   6.4720960  76.2420380 111.9901440  11.9584890
  75.8051370 112.1702240  12.7909040  76.8098060 112.7476060  11.8166610
  91.8782560 111.4918440  16.2462200  91.2784550 111.5511000  15.5026120
  92.0076460 110.5523420  16.3759050  92.5740470 105.9783740   4.0866110
  93.3359380 106.5480390   4.1925800  92.5894840 105.4110940   4.8574420
  76.0744810 104.5021670   8.3173770  75.4193650 104.2333310   7.6733470
  76.9122760 104.3926150   7.8675750  93.5800440 106.8333840   8.9308040
  93.9509270 106.0501160   8.5244010  94.2202370 107.5222940   8.7525340
  90.5634200 108.2170420  14.3438360  89.7494040 108.6467580  14.6064150
  90.9708400 108.8288830  13.7307410  89.0235250  99.2962960   2.5392260
  89.4420130  99.1093940   1.6988920  88.7171310  98.4442010   2.8495190
  92.5224980 104.2087100   6.2368060  92.1468580 103.4415030   5.8049350
  91.7928100 104.5909800   6.7242990  77.1120740 104.8874240  12.8577110
  77.4793780 104.8001640  13.7373130  76.5431560 104.1240790  12.7583970
  91.9124600 103.3558620  15.8707580  91.6810690 103.1271370  14.9705530
  92.1729150 104.2758170  15.8252470  76.6636740 101.7983330  16.7635530
  75.7692790 101.7650090  17.1029240  77.2034290 101.9970120  17.5286780
  90.3512670  98.5815050  18.6487280  91.2282850  98.5898450  19.0321280
  90.3633510  97.8445890  18.0379630  75.2882890 101.7120600   4.2599100
  74.3846970 101.9750800   4.0850760  75.7723510 101.9831770   3.4799060
  91.7975940 102.4344590   9.5375300  92.3213420 101.9407240   8.9065470
  92.3835360 102.5694950  10.2822870  91.9765660 102.5184460  13.0594850
  91.0268370 102.4848000  13.1739840  92.1578670 103.4284570  12.8244620
  91.2875910 101.6917940   5.4767710  91.7835030 101.4588810   6.2616590
  91.0891980 100.8529780   5.0605350  77.1676450  96.0731660  11.1118750
  77.8152640  95.5229040  10.6713910  77.5878290  96.3274810  11.9334560
  92.7163070 100.3278890   8.0105390  92.6062350 100.1734930   8.9487660
  93.4770660  99.7999830   7.7680800  91.0628790  96.2673020  14.4688390
  91.7001010  96.8807160  14.8347580  91.2103680  96.3033680  13.5237620
  93.6791830  98.9297470   3.8768240  92.8843330  98.8642590   4.4061150
  93.8835110  99.8648110   3.8653590  90.6210250 112.9689020   7.8706630
  91.2169320 112.6473590   7.1941050  90.8788400 112.4960840   8.6619900
  78.5272820 109.4006930  18.0197260  78.4842450 109.0299840  18.9011720
  78.6583830 110.3384500  18.1599080  82.2278850 110.9566520  13.6206980
  81.9870210 111.2241080  12.7337500  83.1681490 111.1272250  13.6757840
  84.4333270  97.4199210  17.3763490  84.3722160  98.0121040  18.1258900
  85.3733650  97.3125170  17.2313750  87.0707830  97.0769270  17.0155780
  87.6848240  97.3948560  16.3536860  87.6157390  96.5917860  17.6351640
  93.4883010 112.9760900  14.4217620  92.9941290 113.3729770  13.7044750
  92.8796300 112.3510110  14.8154900  78.3660850 112.3469180  15.1395040
  77.7721170 112.2153880  15.8785080  78.3584690 111.5107320  14.6737140
  87.8115870  95.6401410  13.3425070  86.9375710  95.9736520  13.1398000
  87.7026620  95.1674590  14.1676940  88.7187850  97.8472280  14.7266790
  88.3901210  97.0324040  14.3468520  89.6670150  97.8042090  14.6032480
  91.1722460 113.6184320  11.7004360  90.7125430 114.3700130  11.3262380
  90.5434920 112.8990790  11.6419160  77.9973080 109.7127560  14.0903080
  77.2707140 109.0932850  14.0229030  78.0582230 110.1068170  13.2201160
  81.6018180 111.9272560  10.8752490  82.1183200 111.3159920  10.3500750
  82.2515560 112.4301340  11.3663500  84.3413680 112.8181050  11.7021470
  84.6291490 112.5635350  10.8254480  84.8536900 112.2658410  12.2927040
  85.5590690  96.5571250  12.2817980  84.7762480  97.0316750  12.5614740
  85.2653620  95.6526080  12.1731160  90.1111760  97.2594350  10.3267070
  90.5519850  97.2039450   9.4788670  89.8419350  98.1752360  10.3977250
  91.9750330  96.8909590   8.3375890  91.9138730  95.9470810   8.1906910
  92.7542360  96.9989680   8.8829350  76.2803080 113.0301950   7.2999840
  76.1125120 112.3972630   7.9981730  75.4137590 113.2361350   6.9494030
  76.9031100  96.8618730   4.8031700  77.6610460  96.9747610   4.2295730
  76.4408270  97.6987930   4.7575130  83.4444910  98.9758000   7.7934010
  82.6319420  98.6014890   7.4529890  83.9486550  98.2203080   8.0955200
  87.9469890  95.6400450   9.0317080  88.5499260  96.2120660   9.5065600
  87.2062880  96.2039890   8.8090980  91.0904490  96.0422010   4.3057360
  91.2855120  96.9405460   4.5724790  90.3034360  95.8109090   4.7990310
  77.8865780 111.7235180   4.7449980  77.3613400 112.1043210   4.0411940
  77.8110360 112.3485950   5.4659690  79.2756250  97.3882780   3.3433670
  79.8049010  96.6012580   3.2141620  79.9084570  98.0673970   3.5769200
  81.4694090  97.1257920   6.3979060  80.8396830  96.4245230   6.5649190
  80.9299230  97.8862050   6.1812220  84.4086040 113.7397150  19.0689670
  85.3353350 113.5041420  19.1125630  84.3936470 114.5669150  18.5875700
  92.6431100 113.2822720   6.0663920  92.8183290 112.5960460   5.4224840
  91.9452670 113.8069770   5.6740590  81.5949650  96.4041900  18.8331550
  81.3133920  96.9075500  18.0692370  81.9769350  95.6063650  18.4673680
  80.4858750 113.6717560   3.6199230  81.2177570 113.3876840   3.0723120
  80.7452420 113.4330840   4.5098610  79.6473540 109.7882290   3.6245560
  79.0182420 110.2567390   4.1731390  79.7621370 108.9431510   4.0591750
  88.1965110  95.8195480  19.4112020  88.0830560  96.1390090  20.3063540
  89.0134850  96.2207990  19.1149300  90.9763600 112.9667010  18.8930710
  91.7688920 112.4716240  18.6856670  91.2696750 113.6457150  19.5006320
  87.1023260  85.0644460 139.9694680  87.0217310  84.1499070 139.6986390
  86.6887680  85.5611530 139.2634390  85.2341300  86.8423480 141.8503950
  84.4583400  86.3623920 142.1402520  85.8854230  86.1629130 141.6760110
  79.2507130  87.1543290 142.7279710  78.4192010  86.8992000 143.1276220
  79.8588110  87.2254060 143.4637630  89.2548730  91.2483670 140.6303080
  88.7930260  90.4770910 140.9590250  90.0674280  91.2749740 141.1355530
  79.2308390  91.1883380 142.9237730  79.5336430  90.2981120 142.7447950
  79.9751980  91.7453600 142.6959980  77.6599080  82.1145180 136.5122100
  76.7715780  82.4561150 136.4101980  77.9440270  81.9145500 135.6202930
  75.6232090  84.7150830 142.3961800  76.1948200  83.9473030 142.3965440
  75.6233630  85.0139590 141.4868410  85.4812040  93.5341680 140.2507070
  84.8623480  93.9899180 139.6801510  86.3363820  93.6893140 139.8496770
  84.6750290  89.5180670 141.8574110  84.6058570  88.5770610 141.6963240
  85.4370150  89.6082080 142.4296680  76.8656960  80.1235190 144.1830730
  76.6859800  79.2260940 144.4633490  76.4637040  80.6707060 144.8577680
  85.7055460  82.3251050 142.0843040  86.0820280  81.4522930 141.9716710
  85.6074970  82.6609750 141.1933480  79.8360470  80.6976680 137.5460480
  79.9427220  81.5980410 137.8529240  78.9252830  80.6494650 137.2555130
  89.4879580  79.8201490 139.0171380  90.3089200  79.3298060 139.0596860
  89.5213660  80.4099150 139.7703220  77.4843630  82.6195690 142.7913070
  78.1653740  82.8834060 143.4100470  77.1691680  81.7796560 143.1251080
  81.6768200  83.6663050 141.8785660  82.1846420  84.1644020 142.5190680
  82.2081440  82.8898250 141.7025020  93.7779130  81.8368240 145.5815010
  93.0731300  82.2249950 145.0630120  94.0437050  82.5318530 146.1835940
  79.9604300  78.3061610 146.1449080  79.9622740  78.8234000 145.3394980
  79.1308610  77.8291790 146.1219010  86.3475390  88.4180920 137.6438980
  85.7292660  88.8830370 137.0801700  86.8598640  89.1108400 138.0608490
  81.2107150  87.9456790 144.3222580  80.8776530  88.5725710 144.9643650
  81.3873830  88.4718670 143.5424250  89.7241060  81.7601870 141.7898920
  89.0196630  82.0486760 142.3702030  90.0853220  82.5701980 141.4298480
  79.6419630  80.0171570 144.1519530  79.9836440  80.8613620 143.8573400
  78.7035440  80.1655310 144.2684870  80.4226250  89.9137590 146.1371760
  81.0400250  90.5888670 145.8556210  79.5619370  90.3225570 146.0459260
  75.7158590  89.1037450 135.0178610  75.3386570  89.5924550 134.2863510
  75.9731660  89.7762730 135.6485140  91.3403840  91.3777000 144.0526400
  90.6567360  92.0476110 144.0443070  91.8798130  91.5757650 143.2871260
  92.7927980  81.2056660 142.1808130  91.8452890  81.2395640 142.3123560
  93.1177970  82.0195610 142.5657490  83.3247520  77.5053840 140.4764120
  83.6322500  76.9500730 139.7599620  82.3948220  77.6398300 140.2937110
  88.8762580  93.2221130 142.7671580  88.8889740  92.8183420 141.8993840
  88.3237800  93.9968420 142.6633010  90.1708000  89.9437350 137.8561750
  90.0604330  89.0011680 137.9811170  90.1676250  90.3052990 138.7424510
  88.2748020  88.1250970 144.0954190  88.6916810  87.9111080 143.2607650
  88.9987840  88.3823760 144.6662810  85.7128280  85.5702670 137.2124240
  84.7857560  85.5040050 137.4412710  85.8653100  86.5082800 137.0979480
  85.6997360  81.8419670 134.2091400  84.7601030  82.0033630 134.2943860
  86.0180620  82.5605350 133.6627390  92.2210120  86.5238190 144.1870430
  91.3928750  86.5931280 143.7120560  92.8160600  87.1092500 143.7186260
  89.7425570  87.1322970 137.7159490  89.1237990  86.7942520 137.0685790
  89.7250020  86.4882730 138.4238680  89.1852130  83.3107510 145.1325300
  88.7723310  84.1361220 145.3865290  88.4528080  82.7252550 144.9401660
  81.3184920  86.0967410 139.9943970  80.9141920  85.3844660 139.4989870
  81.4048040  85.7520650 140.8832010  81.7866620  89.7834970 142.1583180
  81.4894910  89.1780440 141.4790960  82.7366440  89.8212280 142.0472540
  80.0313540  82.8710620 143.7743010  80.5828130  82.9805960 142.9996260
  80.5457050  83.2448220 144.4898240  89.8752230  93.3566840 145.8206280
  89.3982790  94.1639030 145.6278890  89.1914020  92.7045170 145.9732490
  80.8785050  89.5216660 148.8090980  79.9813580  89.7456630 149.0564380
  80.9037920  89.6451600 147.8602380  87.9190270  86.3709780 134.7232240
  88.3583550  85.5332210 134.5770060  88.6318690  87.0039180 134.8096380
  79.7056270  86.3929980 147.3848350  79.5664040  87.2652780 147.7535750
  78.8237630  86.0502790 147.2396290  86.0285650  91.3105850 138.6913480
  86.4681560  92.0530180 138.2768870  85.9672540  91.5532420 139.6152440
  81.5036620  92.3351680 149.5933500  81.4752050  92.7394630 148.7261930
  81.3401590  91.4062040 149.4305100  91.5007410  77.6252590 133.0373280
  91.1880070  77.7179420 133.9372350  92.2619880  78.2033620 132.9870710
  78.0189550  84.9912390 137.4950620  77.8987150  85.7174480 136.8831890
  77.7090440  84.2215300 137.0178530  75.6574920  88.1627530 143.3019260
  75.7355340  88.2976300 142.3574980  76.2716600  87.4543420 143.4947380
  76.9022550  89.8627720 139.7125440  76.4950630  90.0042310 138.8579040
  77.7935560  89.5787880 139.5096650  92.8584690  90.3091630 148.0497680
  92.9847750  90.0703510 147.1314860  92.9006070  89.4776170 148.5219760
  86.7201430  94.0119630 146.6192490  87.2346100  93.9227640 147.4214920
  85.8770510  94.3579330 146.9120400  88.6955830  94.2974970 136.0476490
  88.5356970  94.0077910 136.9458320  88.5302540  93.5215100 135.5121720
  81.1744210  94.0773500 137.8248110  80.9986690  93.1609040 137.6115910
  80.3199950  94.4360790 138.0645910  88.3981960  91.8062530 134.6074490
  87.7047120  91.8039820 133.9476770  89.1404820  91.3821850 134.1768660
  87.9631890  93.4325240 138.6822980  88.4188840  92.6514620 138.9961600
  88.3024410  94.1432060 139.2264160  92.7108700  82.3624090 149.0147420
  92.0952970  82.8703760 148.4862880  92.3905120  81.4622420 148.9573360
  75.7134440  89.2041700 145.8413720  75.8765480  88.7347060 145.0233090
  76.1786890  88.6965260 146.5062560  80.4853210  78.3347460 140.8774290
  80.0421360  79.1157000 140.5458810  81.0438200  78.6577350 141.5845230
  84.7723020  81.2015980 146.4809610  84.3102390  81.4099000 147.2929550
  84.3701130  80.3875330 146.1780280  89.7727530  82.4224930 147.6106270
  88.9221120  82.1230680 147.9315340  89.6129320  82.6666940 146.6990090
  86.8677240  83.9226680 149.7105060  87.1930650  83.0890430 149.3707290
  87.6557570  84.4455200 149.8583390  82.5229110  78.8794790 142.7363890
  82.8201440  79.7857620 142.6555910  83.0714670  78.3913570 142.1223460
  80.2767430  83.4581030 138.6055540  80.0508350  83.2418200 139.5102160
  79.4959960  83.8909490 138.2601510  87.5065190  83.4644400 137.2046190
  86.9074080  84.1880200 137.0209810  88.0544800  83.4021180 136.4222640
  82.7166640  84.3566610 149.2715810  82.6210240  83.4161340 149.1216210
  83.5598620  84.5781680 148.8763880  86.1130060  82.1007940 139.2349470
  86.5059630  82.4180140 138.4218160  86.4746910  81.2219820 139.3493990
  77.8477180  80.7680280 147.4249590  77.4540570  81.6155490 147.6322370
  77.1595580  80.1306650 147.6158230  75.1494230  78.6908740 141.4579670
  74.8607280  79.2611600 142.1704650  75.8939990  78.2113190 141.8210900
  75.3364460  82.6328860 132.6682390  75.2539130  83.5759620 132.8097380
  74.9847520  82.4903770 131.7894740  86.6985200  84.6913690 143.3300250
  85.9666320  85.2000500 143.6790350  86.3009540  83.8743670 143.0289030
  83.1362590  81.3667890 141.7352740  83.1398650  80.9257840 140.8857280
  84.0313710  81.6885220 141.8424560  78.9864970  81.2494380 140.6946950
  78.6465020  81.7269610 141.4514000  78.2242290  80.7959500 140.3348050
  83.1982740  82.3679970 134.7259500  83.3195560  82.3266450 135.6745320
  82.8131250  83.2304120 134.5706230  87.1611110  80.1447370 142.7423190
  87.1783850  80.5956020 143.5865040  86.9126690  79.2453010 142.9556630
  82.2104240  84.6781110 134.1242800  81.6421140  84.2299360 133.4978710
  82.9193240  85.0373890 133.5907950  90.5881860  77.5579550 148.5809570
  90.9127630  76.8269210 149.1067550  90.6238370  77.2393190 147.6790560
  77.2873420  88.5793130 148.0009530  76.9028210  87.9386800 148.5992490
  77.5985610  89.2829250 148.5704260  83.4370560  85.4269670 143.4818150
  83.8040690  84.9528240 144.2279490  83.2475620  86.3011240 143.8226490
  76.3011050  80.1713360 139.6111620  76.0157970  79.8069030 140.4490240
  76.2389910  79.4393820 138.9974760  81.2269930  84.4678310 145.8002360
  80.9227000  85.3470290 146.0252720  82.1816390  84.5278100 145.8359800
  79.7551720  88.6739300 136.3969210  78.9813980  88.1336920 136.2367930
  80.4846350  88.1545910 136.0586970  90.5139700  87.6704660 142.1895600
  91.2338820  88.1659950 141.7991710  90.3121520  86.9922550 141.5449470
  85.9749640  79.0642620 136.3324990  85.1614250  78.5655790 136.2570300
  85.7811590  79.9040870 135.9161340  85.8958500  87.7413720 148.0764600
  85.8295810  86.8209390 147.8222190  85.2663640  87.8389160 148.7909240
  88.6898030  83.4362270 134.6287150  89.5777650  83.7479500 134.4538490
  88.6603120  82.5634520 134.2367730  79.7989120  88.3419680 140.0348020
  80.3167790  87.5387940 139.9804910  79.3473140  88.2798820 140.8764850
  84.6858620  89.6085960 135.3075320  85.0274320  90.3528190 134.8118640
  83.8571330  89.9217080 135.6700150  77.2833660  85.3081050 146.9473720
  76.9248600  85.9734900 147.5347060  76.9888220  84.4764600 147.3186340
  80.4846780  85.7665290 149.8313270  80.1846920  85.9122470 148.9341090
  81.2558020  85.2070580 149.7386660  85.8275230  90.5634290 147.8268400
  85.8419770  89.6315250 147.6087310  85.1200330  90.6494050 148.4658170
  90.9612300  84.7474110 134.0967010  90.8776020  85.1788330 133.2463450
  91.6806490  85.2072460 134.5293830  92.0386440  87.2041630 147.1736980
  91.3134630  87.7970410 146.9766370  92.5661900  87.1965170 146.3750350
  91.9899550  91.6016370 136.8249140  91.3475710  90.9471990 137.0992860
  91.6030210  92.0071460 136.0489810  87.5686030  88.9301800 140.6720830
  87.9209850  88.3329930 140.0122200  86.6848360  88.6046030 140.8429080
  83.6549310  89.6899490 138.0791240  84.3420440  90.2368700 138.4598830
  82.8681730  90.2340220 138.1140850  75.7941710  85.3072310 133.5708320
  76.6636560  85.5897110 133.8544240  75.3032030  86.1208180 133.4557130
  82.9576520  86.6945520 137.6916600  83.4139300  87.5050770 137.9176790
  82.6064730  86.3768660 138.5235090  85.2609130  92.2051860 144.9208900
  85.9051350  92.4111240 145.5982320  85.6238570  91.4440260 144.4679750
  86.5341210  90.2084210 143.6386350  87.1763440  89.5077370 143.7518520
  87.0590560  90.9882650 143.4583240  90.3796930  90.4932830 133.3625490
  90.1534510  89.7763270 133.9550130  89.9893130  90.2445270 132.5247240
  88.3078830  91.0079110 146.8422410  88.6435070  91.5945800 147.5200330
  87.3879170  90.8771820 147.0720200  75.8582230  78.7974290 147.6245820
  75.1440750  78.9971210 148.2298430  76.2777270  78.0213860 147.9960620
  89.9613180  88.4104770 135.0239650  89.6734880  88.8717460 135.8117530
  90.7565350  87.9502540 135.2923870  76.1454820  92.7854550 148.6112350
  76.2545940  91.8449290 148.4707740  75.4935380  93.0509300 147.9626080
  82.1781580  91.9030890 134.9543620  82.1691680  92.6360580 134.3388130
  81.2579940  91.6562470 135.0470580  77.7788220  87.1245780 135.6990380
  77.1716170  87.8644680 135.7085680  78.2537570  87.2145140 134.8728580
  87.3521010  81.2896600 145.3747270  87.7201830  80.4691810 145.7026840
  86.4919210  81.3498490 145.7902920  85.1641180  91.9659130 133.6168810
  85.2653160  91.7623120 132.6870790  84.2642920  91.7117410 133.8216590
  82.6867070  82.5239490 137.5992710  81.9783220  82.9925830 138.0406320
  82.9711550  81.8661500 138.2337900  84.3123000  83.9436190 145.5985240
  84.8108250  84.4182010 146.2637090  84.4545950  83.0199710 145.8055270
  86.7182500  79.2490150 139.0388500  86.5950280  79.2676280 138.0898010
  87.6667060  79.2969090 139.1586900  83.8059290  94.4845450 138.3116480
  84.0600790  94.4466840 137.3895850  82.8571770  94.3578780 138.3044730
  80.8902090  80.8324570 134.9743420  81.7392620  81.2694720 134.9083610
  80.5233360  81.1444830 135.8015480  91.5189860  80.1604150 146.4413630
  91.0163460  80.9009550 146.7807440  92.3346520  80.5488150 146.1250420
  89.8111870  85.4037330 139.8874990  88.8702010  85.4187560 140.0622680
  90.1255940  84.6173290 140.3335290  79.7893510  87.0856930 133.4478950
  80.5556780  86.9738290 134.0104380  79.8668200  86.3894900 132.7955720
  78.4840270  84.5182000 134.1311840  78.5643860  83.5709510 134.2429240
  79.3760020  84.8488880 134.2372500  91.8137450  92.5746180 141.5629250
  91.9384870  93.3977350 142.0353060  92.6803010  92.3636910 141.2153400
  79.2854980  94.6677390 141.2346380  80.0217460  94.1192850 141.5054950
  79.6695900  95.5333400 141.0952370  76.1700460  90.7350960 137.1087890
  75.2440240  90.9772100 137.0993300  76.6356890  91.5625220 136.9872640
  82.3957290  93.8407700 133.0571950  83.1885900  94.1296530 132.6053740
  81.8761640  93.4099870 132.3784430  88.5578260  93.6883620 148.9816780
  89.5100010  93.6041640 148.9317020  88.4106480  94.3525330 149.6550570
  91.4487460  93.0677830 134.4808690  91.1628970  92.6542970 133.6662870
  91.2507010  93.9965540 134.3609210  76.0111070  86.3396920 149.3668010
  76.5150090  85.7604200 149.9384240  75.2718490  86.6237150 149.9044380
  82.9134690  89.0611110 132.9214300  82.8085330  88.4463460 133.6475680
  82.7458910  88.5377000 132.1377310  83.0649010  87.7467910 148.9003530
  82.2994680  88.3152910 148.8158200  83.2464970  87.4544120 148.0071760
  86.1537420  88.1231140 133.5256290  85.6047520  88.5700440 134.1699030
  86.7756680  87.6180390 134.0493960  90.2072360  89.4773240 149.4578550
  90.9481830  89.8149000 148.9546010  89.4445040  89.6465300 148.9048320
  81.8212540  87.0822060 135.4221590  82.2428960  86.9161930 136.2652980
  81.9463380  86.2722290 134.9276730  79.9839960  83.0618610 148.2292570
  79.4536420  82.5709560 147.6015910  80.6528030  83.4902810 147.6950500
  88.8818020  87.5288070 147.9933760  89.2959040  87.6833150 148.8424180
  87.9469020  87.6543290 148.1559540  89.3540190  84.8684230 149.9972910
  89.9360960  84.1136550 149.9093390  89.5301960  85.3991670 149.2204390
  80.4712260  80.0280980 148.3089860  80.3769130  79.4101730 147.5840730
  79.8909650  80.7547270 148.0819770  83.2373700  78.5854220 145.3417250
  82.7891000  78.6078480 144.4962800  82.6038900  78.1873240 145.9387550
  83.6433250  87.4808550 145.9629690  84.0621360  88.3241280 145.7905930
  82.7241880  87.6180590 145.7336470  85.9797150  85.2124730 147.3467530
  86.0993360  84.6165870 148.0862370  86.8391150  85.2494420 146.9268830
  88.3185050  85.7661920 145.9230040  87.7920270  86.2904540 145.3195180
  88.6616390  86.3989310 146.5539770  80.7171440  83.1555290 132.3679750
  80.5160500  82.2922650 132.7293090  80.5463490  83.0688650 131.4301350
  81.4940670  93.7861560 147.0787420  80.9561760  94.5107620 146.7596120
  81.7474630  93.3091900 146.2884760  82.7465920  81.7546080 148.6043350
  83.3365610  81.4461930 149.2921170  81.9286160  81.2825830 148.7603250
  87.5659350  81.3711890 148.8376370  86.8774870  80.7093430 148.7726360
  88.2865370  80.9250160 149.2824830  88.1959750  77.9663520 134.8966630
  88.4762040  77.1231420 135.2526050  87.4225480  78.1986630 135.4105380
  79.5154240  80.2555910 132.3557630  79.8180140  80.2623340 131.4476780
  80.2548830  79.9053770 132.8525290  84.3502880  95.0212770 147.3374070
  84.2761580  95.9247910 147.6446440  83.4481720  94.7024670 147.3096140
  82.7339170  79.1990530 133.3413830  82.3861170  78.5214520 132.7616280
  82.9351940  78.7380040 134.1557220  84.8988210  94.1871280 134.9600430
  85.7939000  94.5256250 134.9819190  84.9305840  93.4650690 134.3324710
  78.5384370  89.5598330 133.1887430  78.9759240  90.1028000 133.8445010
  79.0232100  88.7345280 133.1983770  75.7530170  92.3487360 140.6407690
  76.0833180  91.4808420 140.4086330  76.1821170  92.5545880 141.4712650
  80.3492090  90.6796370 138.3009660  80.0487630  90.5561340 139.2013570
  80.2429580  89.8204960 137.8925390  76.2420380  93.2157950 143.3789320
  75.8051370  93.3958750 144.2113470  76.8098060  93.9732570 143.2371040
  91.8782560  92.7174950 147.6666630  91.2784550  92.7767510 146.9230550
  92.0076460  91.7779930 147.7963480  93.1184010  90.4592770 133.0036340
  92.2876970  90.5269420 133.4743570  93.2955840  91.3496890 132.7003200
  92.5740470  87.2040250 135.5070540  93.3359380  87.7736900 135.6130230
  92.5894840  86.6367450 136.2778850  76.0744810  85.7278180 139.7378200
  75.4193650  85.4589820 139.0937900  76.9122760  85.6182660 139.2880180
  93.5800440  88.0590350 140.3512470  93.9509270  87.2757670 139.9448440
  94.2202370  88.7479450 140.1729770  90.5634200  89.4426930 145.7642790
  89.7494040  89.8724090 146.0268580  90.9708400  90.0545340 145.1511840
  92.6259640  87.4974620 132.6643060  92.9008480  88.4053500 132.5362280
  92.4370380  87.4337150 133.6005050  89.0235250  80.5219470 133.9596690
  89.4420130  80.3350450 133.1193350  88.7171310  79.6698520 134.2699620
  92.5224980  85.4343610 137.6572490  92.1468580  84.6671540 137.2253780
  91.7928100  85.8166310 138.1447420  77.1120740  86.1130750 144.2781540
  77.4793780  86.0258150 145.1577560  76.5431560  85.3497300 144.1788400
  91.9124600  84.5815130 147.2912010  91.6810690  84.3527880 146.3909960
  92.1729150  85.5014680 147.2456900  76.6636740  83.0239840 148.1839960
  75.7692790  82.9906600 148.5233670  77.2034290  83.2226630 148.9491210
  75.2882890  82.9377110 135.6803530  74.3846970  83.2007310 135.5055190
  75.7723510  83.2088280 134.9003490  91.7975940  83.6601100 140.9579730
  92.3213420  83.1663750 140.3269900  92.3835360  83.7951460 141.7027300
  91.9765660  83.7440970 144.4799280  91.0268370  83.7104510 144.5944270
  92.1578670  84.6541080 144.2449050  77.8310100  81.9942650 133.5897910
  78.5401800  81.5725870 133.1045190  77.1150040  82.0617880 132.9581260
  77.4784260  78.0481980 132.6300560  78.2012390  78.5890920 132.9481780
  77.7508780  77.7745400 131.7542100  77.1676450  77.2988170 142.5323180
  77.8152640  76.7485550 142.0918340  77.5878290  77.5531320 143.3538990
  92.7163070  81.5535400 139.4309820  92.6062350  81.3991440 140.3692090
  93.4770660  81.0256340 139.1885230  91.0628790  77.4929530 145.8892820
  91.7001010  78.1063670 146.2552010  91.2103680  77.5290190 144.9442050
  90.6210250  94.1945530 139.2911060  91.2169320  93.8730100 138.6145480
  90.8788400  93.7217350 140.0824330  76.9208450  77.4543840 145.2748500
  76.5723270  77.9107660 146.0406680  76.5896150  76.5600970 145.3570930
  82.2278850  92.1823030 145.0411410  81.9870210  92.4497590 144.1541930
  83.1681490  92.3528760 145.0962270  84.4333270  78.6455720 148.7967920
  84.3722160  79.2377550 149.5463330  85.3733650  78.5381680 148.6518180
  87.0707830  78.3025780 148.4360210  87.6848240  78.6205070 147.7741290
  87.6157390  77.8174370 149.0556070  93.4883010  94.2017410 145.8422050
  92.9941290  94.5986280 145.1249180  92.8796300  93.5766620 146.2359330
  77.5929090  76.9820040 148.5499270  78.1412080  76.8008090 147.7865380
  77.6584400  76.1914150 149.0855580  78.3660850  93.5725690 146.5599470
  77.7721170  93.4410390 147.2989510  78.3584690  92.7363830 146.0941570
  87.8115870  76.8657920 144.7629500  86.9375710  77.1993030 144.5602430
  87.7026620  76.3931100 145.5881370  88.7187850  79.0728790 146.1471220
  88.3901210  78.2580550 145.7672950  89.6670150  79.0298600 146.0236910
  91.1722460  94.8440830 143.1208790  90.7125430  95.5956640 142.7466810
  90.5434920  94.1247300 143.0623590  77.9973080  90.9384070 145.5107510
  77.2707140  90.3189360 145.4433460  78.0582230  91.3324680 144.6405590
  81.6018180  93.1529070 142.2956920  82.1183200  92.5416430 141.7705180
  82.2515560  93.6557850 142.7867930  84.3413680  94.0437560 143.1225900
  84.6291490  93.7891860 142.2458910  84.8536900  93.4914920 143.7131470
  85.5590690  77.7827760 143.7022410  84.7762480  78.2573260 143.9819170
  85.2653620  76.8782590 143.5935590  90.1111760  78.4850860 141.7471500
  90.5519850  78.4295960 140.8993100  89.8419350  79.4008870 141.8181680
  91.9750330  78.1166100 139.7580320  91.9138730  77.1727320 139.6111340
  92.7542360  78.2246190 140.3033780  76.2803080  94.2558460 138.7204270
  76.1125120  93.6229140 139.4186160  75.4137590  94.4617860 138.3698460
  83.4444910  80.2014510 139.2138440  82.6319420  79.8271400 138.8734320
  83.9486550  79.4459590 139.5159630  87.9469890  76.8656960 140.4521510
  88.5499260  77.4377170 140.9270030  87.2062880  77.4296400 140.2295410
  91.0904490  77.2678520 135.7261790  91.2855120  78.1661970 135.9929220
  90.3034360  77.0365600 136.2194740  77.8865780  92.9491690 136.1654410
  77.3613400  93.3299720 135.4616370  77.8110360  93.5742460 136.8864120
  92.6431100  94.5079230 137.4868350  92.8183290  93.8216970 136.8429270
  91.9452670  95.0326280 137.0945020  80.4858750  94.8974070 135.0403660
  81.2177570  94.6133350 134.4927550  80.7452420  94.6587350 135.9303040
  79.6473540  91.0138800 135.0449990  79.0182420  91.4823900 135.5935820
  79.7621370  90.1688020 135.4796180  85.2341300  86.8423480 123.0760460
  84.4583400  86.3623920 123.3659030  85.8854230  86.1629130 122.9016620
  89.2548730  91.2483670 121.8559590  88.7930260  90.4770910 122.1846760
  90.0674280  91.2749740 122.3612040  77.6599080  82.1145180 117.7378610
  76.7715780  82.4561150 117.6358490  77.9440270  81.9145500 116.8459440
  75.6232090  84.7150830 123.6218310  76.1948200  83.9473030 123.6221950
  75.6233630  85.0139590 122.7124920  85.4812040  93.5341680 121.4763580
  84.8623480  93.9899180 120.9058020  86.3363820  93.6893140 121.0753280
  84.6750290  89.5180670 123.0830620  84.6058570  88.5770610 122.9219750
  85.4370150  89.6082080 123.6553190  85.7055460  82.3251050 123.3099550
  86.0820280  81.4522930 123.1973220  85.6074970  82.6609750 122.4189990
  93.7779130  81.8368240 126.8071520  93.0731300  82.2249950 126.2886630
  94.0437050  82.5318530 127.4092450  79.9604300  78.3061610 127.3705590
  79.9622740  78.8234000 126.5651490  79.1308610  77.8291790 127.3475520
  86.3475390  88.4180920 118.8695490  85.7292660  88.8830370 118.3058210
  86.8598640  89.1108400 119.2865000  81.2107150  87.9456790 125.5479090
  80.8776530  88.5725710 126.1900160  81.3873830  88.4718670 124.7680760
  80.4226250  89.9137590 127.3628270  81.0400250  90.5888670 127.0812720
  79.5619370  90.3225570 127.2715770  91.3403840  91.3777000 125.2782910
  90.6567360  92.0476110 125.2699580  91.8798130  91.5757650 124.5127770
  83.3247520  77.5053840 121.7020630  83.6322500  76.9500730 120.9856130
  82.3948220  77.6398300 121.5193620  88.8762580  93.2221130 123.9928090
  88.8889740  92.8183420 123.1250350  88.3237800  93.9968420 123.8889520
  90.1708000  89.9437350 119.0818260  90.0604330  89.0011680 119.2067680
  90.1676250  90.3052990 119.9681020  88.2748020  88.1250970 125.3210700
  88.6916810  87.9111080 124.4864160  88.9987840  88.3823760 125.8919320
  92.2210120  86.5238190 125.4126940  91.3928750  86.5931280 124.9377070
  92.8160600  87.1092500 124.9442770  89.7425570  87.1322970 118.9416000
  89.1237990  86.7942520 118.2942300  89.7250020  86.4882730 119.6495190
  89.1852130  83.3107510 126.3581810  88.7723310  84.1361220 126.6121800
  88.4528080  82.7252550 126.1658170  89.8752230  93.3566840 127.0462790
  89.3982790  94.1639030 126.8535400  89.1914020  92.7045170 127.1989000
  80.8785050  89.5216660 130.0347490  79.9813580  89.7456630 130.2820890
  80.9037920  89.6451600 129.0858890  79.7056270  86.3929980 128.6104860
  79.5664040  87.2652780 128.9792260  78.8237630  86.0502790 128.4652800
  86.0285650  91.3105850 119.9169990  86.4681560  92.0530180 119.5025380
  85.9672540  91.5532420 120.8408950  81.5036620  92.3351680 130.8190010
  81.4752050  92.7394630 129.9518440  81.3401590  91.4062040 130.6561610
  93.4551440  93.1178780 132.1154180  93.9311160  93.5961670 132.7943260
  94.0758600  93.0496270 131.3899680  92.8584690  90.3091630 129.2754190
  92.9847750  90.0703510 128.3571370  92.9006070  89.4776170 129.7476270
  86.7201430  94.0119630 127.8449000  87.2346100  93.9227640 128.6471430
  85.8770510  94.3579330 128.1376910  88.6955830  94.2974970 117.2733000
  88.5356970  94.0077910 118.1714830  88.5302540  93.5215100 116.7378230
  81.1744210  94.0773500 119.0504620  80.9986690  93.1609040 118.8372420
  80.3199950  94.4360790 119.2902420  88.3981960  91.8062530 115.8331000
  87.7047120  91.8039820 115.1733280  89.1404820  91.3821850 115.4025170
  87.9631890  93.4325240 119.9079490  88.4188840  92.6514620 120.2218110
  88.3024410  94.1432060 120.4520670  92.7108700  82.3624090 130.2403930
  92.0952970  82.8703760 129.7119390  92.3905120  81.4622420 130.1829870
  80.4853210  78.3347460 122.1030800  80.0421360  79.1157000 121.7715320
  81.0438200  78.6577350 122.8101740  84.7723020  81.2015980 127.7066120
  84.3102390  81.4099000 128.5186060  84.3701130  80.3875330 127.4036790
  89.7727530  82.4224930 128.8362780  88.9221120  82.1230680 129.1571850
  89.6129320  82.6666940 127.9246600  86.8677240  83.9226680 130.9361570
  87.1930650  83.0890430 130.5963800  87.6557570  84.4455200 131.0839900
  83.6012030  77.9558160 116.9836630  82.9766210  77.9518030 117.7089940
  83.5142150  77.0889120 116.5872600  82.5229110  78.8794790 123.9620400
  82.8201440  79.7857620 123.8812420  83.0714670  78.3913570 123.3479970
  84.4222230  80.8515250 131.7202840  83.7320550  80.6587450 132.3548930
  85.1654530  81.1349890 132.2527140  75.3364460  82.6328860 113.8938900
  75.2539130  83.5759620 114.0353890  74.9847520  82.4903770 113.0151250
  86.6985200  84.6913690 124.5556760  85.9666320  85.2000500 124.9046860
  86.3009540  83.8743670 124.2545540  87.1611110  80.1447370 123.9679700
  87.1783850  80.5956020 124.8121550  86.9126690  79.2453010 124.1813140
  77.2873420  88.5793130 129.2266040  76.9028210  87.9386800 129.8249000
  77.5985610  89.2829250 129.7960770  76.3011050  80.1713360 120.8368130
  76.0157970  79.8069030 121.6746750  76.2389910  79.4393820 120.2231270
  90.5139700  87.6704660 123.4152110  91.2338820  88.1659950 123.0248220
  90.3121520  86.9922550 122.7705980  84.6858620  89.6085960 116.5331830
  85.0274320  90.3528190 116.0375150  83.8571330  89.9217080 116.8956660
  77.2833660  85.3081050 128.1730230  76.9248600  85.9734900 128.7603570
  76.9888220  84.4764600 128.5442850  85.8275230  90.5634290 129.0524910
  85.8419770  89.6315250 128.8343820  85.1200330  90.6494050 129.6914680
  92.0386440  87.2041630 128.3993490  91.3134630  87.7970410 128.2022880
  92.5661900  87.1965170 127.6006860  91.9899550  91.6016370 118.0505650
  91.3475710  90.9471990 118.3249370  91.6030210  92.0071460 117.2746320
  87.5686030  88.9301800 121.8977340  87.9209850  88.3329930 121.2378710
  86.6848360  88.6046030 122.0685590  83.6549310  89.6899490 119.3047750
  84.3420440  90.2368700 119.6855340  82.8681730  90.2340220 119.3397360
  85.2609130  92.2051860 126.1465410  85.9051350  92.4111240 126.8238830
  85.6238570  91.4440260 125.6936260  86.5341210  90.2084210 124.8642860
  87.1763440  89.5077370 124.9775030  87.0590560  90.9882650 124.6839750
  90.3796930  90.4932830 114.5882000  90.1534510  89.7763270 115.1806640
  89.9893130  90.2445270 113.7503750  88.3078830  91.0079110 128.0678920
  88.6435070  91.5945800 128.7456840  87.3879170  90.8771820 128.2976710
  89.9613180  88.4104770 116.2496160  89.6734880  88.8717460 117.0374040
  90.7565350  87.9502540 116.5180380  84.1367410  91.0570440 131.2366980
  83.8164280  90.3379680 131.7812670  83.4625770  91.7325510 131.3103040
  82.1781580  91.9030890 116.1800130  82.1691680  92.6360580 115.5644640
  81.2579940  91.6562470 116.2727090  87.3521010  81.2896600 126.6003780
  87.7201830  80.4691810 126.9283350  86.4919210  81.3498490 127.0159430
  85.1641180  91.9659130 114.8425320  85.2653160  91.7623120 113.9127300
  84.2642920  91.7117410 115.0473100  86.7182500  79.2490150 120.2645010
  86.5950280  79.2676280 119.3154520  87.6667060  79.2969090 120.3843410
  83.8059290  94.4845450 119.5372990  84.0600790  94.4466840 118.6152360
  82.8571770  94.3578780 119.5301240  80.8902090  80.8324570 116.1999930
  81.7392620  81.2694720 116.1340120  80.5233360  81.1444830 117.0271990
  91.5189860  80.1604150 127.6670140  91.0163460  80.9009550 128.0063950
  92.3346520  80.5488150 127.3506930  79.7893510  87.0856930 114.6735460
  80.5556780  86.9738290 115.2360890  79.8668200  86.3894900 114.0212230
  78.4840270  84.5182000 115.3568350  78.5643860  83.5709510 115.4685750
  79.3760020  84.8488880 115.4629010  79.2854980  94.6677390 122.4602890
  80.0217460  94.1192850 122.7311460  79.6695900  95.5333400 122.3208880
  82.3957290  93.8407700 114.2828460  83.1885900  94.1296530 113.8310250
  81.8761640  93.4099870 113.6040940  87.1277890  89.9603330 131.5963880
  86.5216050  89.9834930 130.8559630  86.8232000  89.2286370 132.1331130
  88.5578260  93.6883620 130.2073290  89.5100010  93.6041640 130.1573530
  88.4106480  94.3525330 130.8807080  76.0111070  86.3396920 130.5924520
  76.5150090  85.7604200 131.1640750  75.2718490  86.6237150 131.1300890
  82.9134690  89.0611110 114.1470810  82.8085330  88.4463460 114.8732190
  82.7458910  88.5377000 113.3633820  86.1537420  88.1231140 114.7512800
  85.6047520  88.5700440 115.3955540  86.7756680  87.6180390 115.2750470
  90.2072360  89.4773240 130.6835060  90.9481830  89.8149000 130.1802520
  89.4445040  89.6465300 130.1304830  78.0434150  84.4826510 131.4874590
  78.0839490  84.1840380 132.3959820  78.8979650  84.8834120 131.3282110
  79.9839960  83.0618610 129.4549080  79.4536420  82.5709560 128.8272420
  80.6528030  83.4902810 128.9207010  84.3340180  86.1059670 113.8955200
  84.8545840  85.3908690 113.5296350  84.9808580  86.7445540 114.1955710
  88.8818020  87.5288070 129.2190270  89.2959040  87.6833150 130.0680690
  87.9469020  87.6543290 129.3816050  89.3540190  84.8684230 131.2229420
  89.9360960  84.1136550 131.1349900  89.5301960  85.3991670 130.4460900
  80.4712260  80.0280980 129.5346370  80.3769130  79.4101730 128.8097240
  79.8909650  80.7547270 129.3076280  83.2373700  78.5854220 126.5673760
  82.7891000  78.6078480 125.7219310  82.6038900  78.1873240 127.1644060
  88.3185050  85.7661920 127.1486550  87.7920270  86.2904540 126.5451690
  88.6616390  86.3989310 127.7796280  80.7171440  83.1555290 113.5936260
  80.5160500  82.2922650 113.9549600  80.5463490  83.0688650 112.6557860
  81.4940670  93.7861560 128.3043930  80.9561760  94.5107620 127.9852630
  81.7474630  93.3091900 127.5141270  87.5659350  81.3711890 130.0632880
  86.8774870  80.7093430 129.9982870  88.2865370  80.9250160 130.5081340
  88.1959750  77.9663520 116.1223140  88.4762040  77.1231420 116.4782560
  87.4225480  78.1986630 116.6361890  79.5154240  80.2555910 113.5814140
  79.8180140  80.2623340 112.6733290  80.2548830  79.9053770 114.0781800
  84.3502880  95.0212770 128.5630580  84.2761580  95.9247910 128.8702950
  83.4481720  94.7024670 128.5352650  82.7339170  79.1990530 114.5670340
  82.3861170  78.5214520 113.9872790  82.9351940  78.7380040 115.3813730
  84.8988210  94.1871280 116.1856940  85.7939000  94.5256250 116.2075700
  84.9305840  93.4650690 115.5581220  78.5384370  89.5598330 114.4143940
  78.9759240  90.1028000 115.0701520  79.0232100  88.7345280 114.4240280
  80.3492090  90.6796370 119.5266170  80.0487630  90.5561340 120.4270080
  80.2429580  89.8204960 119.1181900  91.8782560  92.7174950 128.8923140
  91.2784550  92.7767510 128.1487060  92.0076460  91.7779930 129.0219990
  93.1184010  90.4592770 114.2292850  92.2876970  90.5269420 114.7000080
  93.2955840  91.3496890 113.9259710  92.5740470  87.2040250 116.7327050
  93.3359380  87.7736900 116.8386740  92.5894840  86.6367450 117.5035360
  90.5634200  89.4426930 126.9899300  89.7494040  89.8724090 127.2525090
  90.9708400  90.0545340 126.3768350  92.6259640  87.4974620 113.8899570
  92.9008480  88.4053500 113.7618790  92.4370380  87.4337150 114.8261560
  92.5224980  85.4343610 118.8829000  92.1468580  84.6671540 118.4510290
  91.7928100  85.8166310 119.3703930  77.1120740  86.1130750 125.5038050
  77.4793780  86.0258150 126.3834070  76.5431560  85.3497300 125.4044910
  91.9124600  84.5815130 128.5168520  91.6810690  84.3527880 127.6166470
  92.1729150  85.5014680 128.4713410  76.6636740  83.0239840 129.4096470
  75.7692790  82.9906600 129.7490180  77.2034290  83.2226630 130.1747720
  90.3512670  79.8071560 131.2948220  91.2282850  79.8154960 131.6782220
  90.3633510  79.0702400 130.6840570  75.2882890  82.9377110 116.9060040
  74.3846970  83.2007310 116.7311700  75.7723510  83.2088280 116.1260000
  91.9765660  83.7440970 125.7055790  91.0268370  83.7104510 125.8200780
  92.1578670  84.6541080 125.4705560  77.8310100  81.9942650 114.8154420
  78.5401800  81.5725870 114.3301700  77.1150040  82.0617880 114.1837770
  77.4784260  78.0481980 113.8557070  78.2012390  78.5890920 114.1738290
  77.7508780  77.7745400 112.9798610  93.6053340  79.3843320 113.8972470
  94.5302650  79.2524500 113.6890760  93.5829130  79.4636140 114.8508920
  78.5272820  90.6263440 130.6658200  78.4842450  90.2556350 131.5472660
  78.6583830  91.5641010 130.8060020  82.2278850  92.1823030 126.2667920
  81.9870210  92.4497590 125.3798440  83.1681490  92.3528760 126.3218780
  84.4333270  78.6455720 130.0224430  84.3722160  79.2377550 130.7719840
  85.3733650  78.5381680 129.8774690  78.3660850  93.5725690 127.7855980
  77.7721170  93.4410390 128.5246020  78.3584690  92.7363830 127.3198080
  88.7187850  79.0728790 127.3727730  88.3901210  78.2580550 126.9929460
  89.6670150  79.0298600 127.2493420  81.6018180  93.1529070 123.5213430
  82.1183200  92.5416430 122.9961690  82.2515560  93.6557850 124.0124440
  84.3413680  94.0437560 124.3482410  84.6291490  93.7891860 123.4715420
  84.8536900  93.4914920 124.9387980  85.5590690  77.7827760 124.9278920
  84.7762480  78.2573260 125.2075680  85.2653620  76.8782590 124.8192100
  90.1111760  78.4850860 122.9728010  90.5519850  78.4295960 122.1249610
  89.8419350  79.4008870 123.0438190  76.9031100  78.0875240 117.4492640
  77.6610460  78.2004120 116.8756670  76.4408270  78.9244440 117.4036070
  83.4444910  80.2014510 120.4394950  82.6319420  79.8271400 120.0990830
  83.9486550  79.4459590 120.7416140  87.9469890  76.8656960 121.6778020
  88.5499260  77.4377170 122.1526540  87.2062880  77.4296400 121.4551920
  79.2756250  78.6139290 115.9894610  79.8049010  77.8269090 115.8602560
  79.9084570  79.2930480 116.2230140  81.4694090  78.3514430 119.0440000
  80.8396830  77.6501740 119.2110130  80.9299230  79.1118560 118.8273160
  84.4086040  94.9653660 131.7150610  85.3353350  94.7297930 131.7586570
  84.3936470  95.7925660 131.2336640  92.6431100  94.5079230 118.7124860
  92.8183290  93.8216970 118.0685780  91.9452670  95.0326280 118.3201530
  81.5949650  77.6298410 131.4792490  81.3133920  78.1332010 130.7153310
  81.9769350  76.8320160 131.1134620  80.4858750  94.8974070 116.2660170
  81.2177570  94.6133350 115.7184060  80.7452420  94.6587350 117.1559550
  90.9763600  94.1923520 131.5391650  91.7688920  93.6972750 131.3317610
  91.2696750  94.8713660 132.1467260  93.7779130  81.8368240 108.0328030
  93.0731300  82.2249950 107.5143140  94.0437050  82.5318530 108.6348960
  81.2107150  87.9456790 106.7735600  80.8776530  88.5725710 107.4156670
  81.3873830  88.4718670 105.9937270  80.4226250  89.9137590 108.5884780
  81.0400250  90.5888670 108.3069230  79.5619370  90.3225570 108.4972280
  92.7927980  81.2056660 104.6321150  91.8452890  81.2395640 104.7636580
  93.1177970  82.0195610 105.0170510  89.8752230  93.3566840 108.2719300
  89.3982790  94.1639030 108.0791910  89.1914020  92.7045170 108.4245510
  80.8785050  89.5216660 111.2604000  79.9813580  89.7456630 111.5077400
  80.9037920  89.6451600 110.3115400  79.7056270  86.3929980 109.8361370
  79.5664040  87.2652780 110.2048770  78.8237630  86.0502790 109.6909310
  81.5036620  92.3351680 112.0446520  81.4752050  92.7394630 111.1774950
  81.3401590  91.4062040 111.8818120  92.8584690  90.3091630 110.5010700
  92.9847750  90.0703510 109.5827880  92.9006070  89.4776170 110.9732780
  86.7201430  94.0119630 109.0705510  87.2346100  93.9227640 109.8727940
  85.8770510  94.3579330 109.3633420  92.7108700  82.3624090 111.4660440
  92.0952970  82.8703760 110.9375900  92.3905120  81.4622420 111.4086380
  84.7723020  81.2015980 108.9322630  84.3102390  81.4099000 109.7442570
  84.3701130  80.3875330 108.6293300  89.7727530  82.4224930 110.0619290
  88.9221120  82.1230680 110.3828360  89.6129320  82.6666940 109.1503110
  86.8677240  83.9226680 112.1618080  87.1930650  83.0890430 111.8220310
  87.6557570  84.4455200 112.3096410  82.7166640  84.3566610 111.7228830
  82.6210240  83.4161340 111.5729230  83.5598620  84.5781680 111.3276900
  77.8477180  80.7680280 109.8762610  77.4540570  81.6155490 110.0835390
  77.1595580  80.1306650 110.0671250  84.4222230  80.8515250 112.9459350
  83.7320550  80.6587450 113.5805440  85.1654530  81.1349890 113.4783650
  90.5881860  77.5579550 111.0322590  90.9127630  76.8269210 111.5580570
  90.6238370  77.2393190 110.1303580  77.2873420  88.5793130 110.4522550
  76.9028210  87.9386800 111.0505510  77.5985610  89.2829250 111.0217280
  81.2269930  84.4678310 108.2515380  80.9227000  85.3470290 108.4765740
  82.1816390  84.5278100 108.2872820  85.8958500  87.7413720 110.5277620
  85.8295810  86.8209390 110.2735210  85.2663640  87.8389160 111.2422260
  77.2833660  85.3081050 109.3986740  76.9248600  85.9734900 109.9860080
  76.9888220  84.4764600 109.7699360  80.4846780  85.7665290 112.2826290
  80.1846920  85.9122470 111.3854110  81.2558020  85.2070580 112.1899680
  85.8275230  90.5634290 110.2781420  85.8419770  89.6315250 110.0600330
  85.1200330  90.6494050 110.9171190  92.0386440  87.2041630 109.6250000
  91.3134630  87.7970410 109.4279390  92.5661900  87.1965170 108.8263370
  76.1454820  92.7854550 111.0625370  76.2545940  91.8449290 110.9220760
  75.4935380  93.0509300 110.4139100  84.1367410  91.0570440 112.4623490
  83.8164280  90.3379680 113.0069180  83.4625770  91.7325510 112.5359550
  87.3521010  81.2896600 107.8260290  87.7201830  80.4691810 108.1539860
  86.4919210  81.3498490 108.2415940  90.7183040  80.2453540  98.6347850
  90.0896200  80.3499210  97.9206080  90.2234960  80.4650320  99.4241730
  91.5189860  80.1604150 108.8926650  91.0163460  80.9009550 109.2320460
  92.3346520  80.5488150 108.5763440  91.8137450  92.5746180 104.0142270
  91.9384870  93.3977350 104.4866080  92.6803010  92.3636910 103.6666420
  78.2913260  93.8523460 112.8744980  79.0925990  94.1735510 113.2880380
  77.7765080  93.4919040 113.5964890  87.1277890  89.9603330 112.8220390
  86.5216050  89.9834930 112.0816140  86.8232000  89.2286370 113.3587640
  76.0111070  86.3396920 111.8181030  76.5150090  85.7604200 112.3897260
  75.2718490  86.6237150 112.3557400  83.0649010  87.7467910 111.3516550
  82.2994680  88.3152910 111.2671220  83.2464970  87.4544120 110.4584780
  90.2072360  89.4773240 111.9091570  90.9481830  89.8149000 111.4059030
  89.4445040  89.6465300 111.3561340  78.0434150  84.4826510 112.7131100
  78.0839490  84.1840380 113.6216330  78.8979650  84.8834120 112.5538620
  79.9839960  83.0618610 110.6805590  79.4536420  82.5709560 110.0528930
  80.6528030  83.4902810 110.1463520  88.8818020  87.5288070 110.4446780
  89.2959040  87.6833150 111.2937200  87.9469020  87.6543290 110.6072560
  89.3540190  84.8684230 112.4485930  89.9360960  84.1136550 112.3606410
  89.5301960  85.3991670 111.6717410  80.4712260  80.0280980 110.7602880
  80.3769130  79.4101730 110.0353750  79.8909650  80.7547270 110.5332790
  83.2373700  78.5854220 107.7930270  82.7891000  78.6078480 106.9475820
  82.6038900  78.1873240 108.3900570  83.6433250  87.4808550 108.4142710
  84.0621360  88.3241280 108.2418950  82.7241880  87.6180590 108.1849490
  85.9797150  85.2124730 109.7980550  86.0993360  84.6165870 110.5375390
  86.8391150  85.2494420 109.3781850  88.3185050  85.7661920 108.3743060
  87.7920270  86.2904540 107.7708200  88.6616390  86.3989310 109.0052790
  82.7465920  81.7546080 111.0556370  83.3365610  81.4461930 111.7434190
  81.9286160  81.2825830 111.2116270  87.5659350  81.3711890 111.2889390
  86.8774870  80.7093430 111.2239380  88.2865370  80.9250160 111.7337850
  84.3502880  95.0212770 109.7887090  84.2761580  95.9247910 110.0959460
  83.4481720  94.7024670 109.7609160  93.5800440  88.0590350 102.8025490
  93.9509270  87.2757670 102.3961460  94.2202370  88.7479450 102.6242790
  92.6259640  87.4974620  95.1156080  92.9008480  88.4053500  94.9875300
  92.4370380  87.4337150  96.0518070  91.9124600  84.5815130 109.7425030
  91.6810690  84.3527880 108.8422980  92.1729150  85.5014680 109.6969920
  76.6636740  83.0239840 110.6352980  75.7692790  82.9906600 110.9746690
  77.2034290  83.2226630 111.4004230  90.3512670  79.8071560 112.5204730
  91.2282850  79.8154960 112.9038730  90.3633510  79.0702400 111.9097080
  91.0628790  77.4929530 108.3405840  91.7001010  78.1063670 108.7065030
  91.2103680  77.5290190 107.3955070  93.6053340  79.3843320  95.1228980
  94.5302650  79.2524500  94.9147270  93.5829130  79.4636140  96.0765430
  93.6791830  80.1553980  97.7485690  92.8843330  80.0899100  98.2778600
  93.8835110  81.0904620  97.7371040  78.5272820  90.6263440 111.8914710
  78.4842450  90.2556350 112.7729170  78.6583830  91.5641010 112.0316530
  84.4333270  78.6455720 111.2480940  84.3722160  79.2377550 111.9976350
  85.3733650  78.5381680 111.1031200  87.0707830  78.3025780 110.8873230
  87.6848240  78.6205070 110.2254310  87.6157390  77.8174370 111.5069090
  93.4883010  94.2017410 108.2935070  92.9941290  94.5986280 107.5762200
  92.8796300  93.5766620 108.6872350  87.8115870  76.8657920 107.2142520
  86.9375710  77.1993030 107.0115450  87.7026620  76.3931100 108.0394390
  88.7187850  79.0728790 108.5984240  88.3901210  78.2580550 108.2185970
  89.6670150  79.0298600 108.4749930  91.1722460  94.8440830 105.5721810
  90.7125430  95.5956640 105.1979830  90.5434920  94.1247300 105.5136610
  85.5590690  77.7827760 106.1535430  84.7762480  78.2573260 106.4332190
  85.2653620  76.8782590 106.0448610  91.0904490  77.2678520  98.1774810
  91.2855120  78.1661970  98.4442240  90.3034360  77.0365600  98.6707760
  84.4086040  94.9653660 112.9407120  85.3353350  94.7297930 112.9843080
  84.3936470  95.7925660 112.4593150  81.5949650  77.6298410 112.7049000
  81.3133920  78.1332010 111.9409820  81.9769350  76.8320160 112.3391130
  88.1965110  77.0451990 113.2829470  88.0830560  77.3646600 114.1780990
  89.0134850  77.4464500 112.9866750  77.6599080  82.1145180  80.1891630
  76.7715780  82.4561150  80.0871510  77.9440270  81.9145500  79.2972460
  79.8360470  80.6976680  81.2230010  79.9427220  81.5980410  81.5298770
  78.9252830  80.6494650  80.9324660  92.7927980  81.2056660  85.8577660
  91.8452890  81.2395640  85.9893090  93.1177970  82.0195610  86.2427020
  85.7128280  85.5702670  80.8893770  84.7857560  85.5040050  81.1182240
  85.8653100  86.5082800  80.7749010  89.1852130  83.3107510  88.8094830
  88.7723310  84.1361220  89.0634820  88.4528080  82.7252550  88.6171190
  93.1184010  90.4592770  76.6805870  92.2876970  90.5269420  77.1513100
  93.2955840  91.3496890  76.3772730  92.6259640  87.4974620  76.3412590
  92.9008480  88.4053500  76.2131810  92.4370380  87.4337150  77.2774580
  91.9124600  84.5815130  90.9681540  91.6810690  84.3527880  90.0679490
  92.1729150  85.5014680  90.9226430  91.9765660  83.7440970  88.1568810
  91.0268370  83.7104510  88.2713800  92.1578670  84.6541080  87.9218580
  77.4784260  78.0481980  76.3070090  78.2012390  78.5890920  76.6251310
  77.7508780  77.7745400  75.4311630  93.6053340  79.3843320  76.3485490
  94.5302650  79.2524500  76.1403780  93.5829130  79.4636140  77.3021940
  93.6791830  80.1553980  78.9742200  92.8843330  80.0899100  79.5035110
  93.8835110  81.0904620  78.9627550  76.9031100  78.0875240  79.9005660
  77.6610460  78.2004120  79.3269690  76.4408270  78.9244440  79.8549090
  79.2756250  78.6139290  78.4407630  79.8049010  77.8269090  78.3115580
  79.9084570  79.2930480  78.6743160  81.4694090  78.3514430  81.4953020
  80.8396830  77.6501740  81.6623150  80.9299230  79.1118560  81.2786180
  93.7779130  81.8368240  70.4841050  93.0731300  82.2249950  69.9656160
  94.0437050  82.5318530  71.0861980  87.9190270  86.3709780  59.6258280
  88.3583550  85.5332210  59.4796100  88.6318690  87.0039180  59.7122420
  93.4551440  93.1178780  75.7923710  93.9311160  93.5961670  76.4712790
  94.0758600  93.0496270  75.0669210  92.8584690  90.3091630  72.9523720
  92.9847750  90.0703510  72.0340900  92.9006070  89.4776170  73.4245800
  88.6955830  94.2974970  60.9502530  88.5356970  94.0077910  61.8484360
  88.5302540  93.5215100  60.4147760  75.1494230  78.6908740  66.3605710
  74.8607280  79.2611600  67.0730690  75.8939990  78.2113190  66.7236940
  90.3796930  90.4932830  58.2651530  90.1534510  89.7763270  58.8576170
  89.9893130  90.2445270  57.4273280  75.8582230  78.7974290  72.5271860
  75.1440750  78.9971210  73.1324470  76.2777270  78.0213860  72.8986660
  82.1781580  91.9030890  59.8569660  82.1691680  92.6360580  59.2414170
  81.2579940  91.6562470  59.9496620  85.1641180  91.9659130  58.5194850
  85.2653160  91.7623120  57.5896830  84.2642920  91.7117410  58.7242630
  82.3957290  93.8407700  57.9597990  83.1885900  94.1296530  57.5079780
  81.8761640  93.4099870  57.2810470  91.4487460  93.0677830  59.3834730
  91.1628970  92.6542970  58.5688910  91.2507010  93.9965540  59.2635250
  86.1537420  88.1231140  58.4282330  85.6047520  88.5700440  59.0725070
  86.7756680  87.6180390  58.9520000  76.9208450  77.4543840  70.1774540
  76.5723270  77.9107660  70.9432720  76.5896150  76.5600970  70.2596970
  93.4883010  94.2017410  70.7448090  92.9941290  94.5986280  70.0275220
  92.8796300  93.5766620  71.1385370  77.5929090  76.9820040  73.4525310
  78.1412080  76.8008090  72.6891420  77.6584400  76.1914150  73.9881620
  92.6431100  94.5079230  62.3894390  92.8183290  93.8216970  61.7455310
  91.9452670  95.0326280  61.9971060  80.4858750  94.8974070  59.9429700
  81.2177570  94.6133350  59.3953590  80.7452420  94.6587350  60.8329080
  87.1023260  85.0644460  46.0977230  87.0217310  84.1499070  45.8268940
  86.6887680  85.5611530  45.3916940  85.2341300  86.8423480  47.9786500
  84.4583400  86.3623920  48.2685070  85.8854230  86.1629130  47.8042660
  89.2548730  91.2483670  46.7585630  88.7930260  90.4770910  47.0872800
  90.0674280  91.2749740  47.2638080  79.2308390  91.1883380  49.0520280
  79.5336430  90.2981120  48.8730500  79.9751980  91.7453600  48.8242530
  84.6750290  89.5180670  47.9856660  84.6058570  88.5770610  47.8245790
  85.4370150  89.6082080  48.5579230  89.4879580  79.8201490  45.1453930
  90.3089200  79.3298060  45.1879410  89.5213660  80.4099150  45.8985770
  93.7779130  81.8368240  51.7097560  93.0731300  82.2249950  51.1912670
  94.0437050  82.5318530  52.3118490  86.3475390  88.4180920  43.7721530
  85.7292660  88.8830370  43.2084250  86.8598640  89.1108400  44.1891040
  89.7241060  81.7601870  47.9181470  89.0196630  82.0486760  48.4984580
  90.0853220  82.5701980  47.5581030  75.7158590  89.1037450  41.1461160
  75.3386570  89.5924550  40.4146060  75.9731660  89.7762730  41.7767690
  92.7927980  81.2056660  48.3090680  91.8452890  81.2395640  48.4406110
  93.1177970  82.0195610  48.6940040  90.1708000  89.9437350  43.9844300
  90.0604330  89.0011680  44.1093720  90.1676250  90.3052990  44.8707060
  88.2748020  88.1250970  50.2236740  88.6916810  87.9111080  49.3890200
  88.9987840  88.3823760  50.7945360  85.7128280  85.5702670  43.3406790
  84.7857560  85.5040050  43.5695260  85.8653100  86.5082800  43.2262030
  85.6997360  81.8419670  40.3373950  84.7601030  82.0033630  40.4226410
  86.0180620  82.5605350  39.7909940  92.2210120  86.5238190  50.3152980
  91.3928750  86.5931280  49.8403110  92.8160600  87.1092500  49.8468810
  89.7425570  87.1322970  43.8442040  89.1237990  86.7942520  43.1968340
  89.7250020  86.4882730  44.5521230  89.1852130  83.3107510  51.2607850
  88.7723310  84.1361220  51.5147840  88.4528080  82.7252550  51.0684210
  81.3184920  86.0967410  46.1226520  80.9141920  85.3844660  45.6272420
  81.4048040  85.7520650  47.0114560  81.7866620  89.7834970  48.2865730
  81.4894910  89.1780440  47.6073510  82.7366440  89.8212280  48.1755090
  87.9190270  86.3709780  40.8514790  88.3583550  85.5332210  40.7052610
  88.6318690  87.0039180  40.9378930  86.0285650  91.3105850  44.8196030
  86.4681560  92.0530180  44.4051420  85.9672540  91.5532420  45.7434990
  81.5036620  92.3351680  55.7216050  81.4752050  92.7394630  54.8544480
  81.3401590  91.4062040  55.5587650  91.5007410  77.6252590  39.1655830
  91.1880070  77.7179420  40.0654900  92.2619880  78.2033620  39.1153260
  78.0189550  84.9912390  43.6233170  77.8987150  85.7174480  43.0114440
  77.7090440  84.2215300  43.1461080  81.1744210  94.0773500  43.9530660
  80.9986690  93.1609040  43.7398460  80.3199950  94.4360790  44.1928460
  83.6012030  77.9558160  41.8862670  82.9766210  77.9518030  42.6115980
  83.5142150  77.0889120  41.4898640  80.2767430  83.4581030  44.7338090
  80.0508350  83.2418200  45.6384710  79.4959960  83.8909490  44.3884060
  87.5065190  83.4644400  43.3328740  86.9074080  84.1880200  43.1492360
  88.0544800  83.4021180  42.5505190  86.1130060  82.1007940  45.3632020
  86.5059630  82.4180140  44.5500710  86.4746910  81.2219820  45.4776540
  86.6985200  84.6913690  49.4582800  85.9666320  85.2000500  49.8072900
  86.3009540  83.8743670  49.1571580  83.1982740  82.3679970  40.8542050
  83.3195560  82.3266450  41.8027870  82.8131250  83.2304120  40.6988780
  82.2104240  84.6781110  40.2525350  81.6421140  84.2299360  39.6261260
  82.9193240  85.0373890  39.7190500  83.4370560  85.4269670  49.6100700
  83.8040690  84.9528240  50.3562040  83.2475620  86.3011240  49.9509040
  79.7551720  88.6739300  42.5251760  78.9813980  88.1336920  42.3650480
  80.4846350  88.1545910  42.1869520  90.5139700  87.6704660  48.3178150
  91.2338820  88.1659950  47.9274260  90.3121520  86.9922550  47.6732020
  85.9749640  79.0642620  42.4607540  85.1614250  78.5655790  42.3852850
  85.7811590  79.9040870  42.0443890  85.8958500  87.7413720  54.2047150
  85.8295810  86.8209390  53.9504740  85.2663640  87.8389160  54.9191790
  88.6898030  83.4362270  40.7569700  89.5777650  83.7479500  40.5821040
  88.6603120  82.5634520  40.3650280  84.6858620  89.6085960  41.4357870
  85.0274320  90.3528190  40.9401190  83.8571330  89.9217080  41.7982700
  85.8275230  90.5634290  53.9550950  85.8419770  89.6315250  53.7369860
  85.1200330  90.6494050  54.5940720  90.9612300  84.7474110  40.2249560
  90.8776020  85.1788330  39.3746000  91.6806490  85.2072460  40.6576380
  92.0386440  87.2041630  53.3019530  91.3134630  87.7970410  53.1048920
  92.5661900  87.1965170  52.5032900  87.5686030  88.9301800  46.8003380
  87.9209850  88.3329930  46.1404750  86.6848360  88.6046030  46.9711630
  83.6549310  89.6899490  44.2073790  84.3420440  90.2368700  44.5881380
  82.8681730  90.2340220  44.2423400  75.7941710  85.3072310  39.6990870
  76.6636560  85.5897110  39.9826790  75.3032030  86.1208180  39.5839680
  82.9576520  86.6945520  43.8199150  83.4139300  87.5050770  44.0459340
  82.6064730  86.3768660  44.6517640  86.5341210  90.2084210  49.7668900
  87.1763440  89.5077370  49.8801070  87.0590560  90.9882650  49.5865790
  76.1612960  94.5199690  40.2652500  76.5210600  95.1189030  39.6109770
  76.0205300  95.0659580  41.0387530  89.9613180  88.4104770  41.1522200
  89.6734880  88.8717460  41.9400080  90.7565350  87.9502540  41.4206420
  84.1367410  91.0570440  56.1393020  83.8164280  90.3379680  56.6838710
  83.4625770  91.7325510  56.2129080  82.1781580  91.9030890  41.0826170
  82.1691680  92.6360580  40.4670680  81.2579940  91.6562470  41.1753130
  77.7788220  87.1245780  41.8272930  77.1716170  87.8644680  41.8368230
  78.2537570  87.2145140  41.0011130  90.7183040  80.2453540  42.3117380
  90.0896200  80.3499210  41.5975610  90.2234960  80.4650320  43.1011260
  82.6867070  82.5239490  43.7275260  81.9783220  82.9925830  44.1688870
  82.9711550  81.8661500  44.3620450  86.7182500  79.2490150  45.1671050
  86.5950280  79.2676280  44.2180560  87.6667060  79.2969090  45.2869450
  83.8059290  94.4845450  44.4399030  84.0600790  94.4466840  43.5178400
  82.8571770  94.3578780  44.4327280  80.8902090  80.8324570  41.1025970
  81.7392620  81.2694720  41.0366160  80.5233360  81.1444830  41.9298030
  89.8111870  85.4037330  46.0157540  88.8702010  85.4187560  46.1905230
  90.1255940  84.6173290  46.4617840  79.7893510  87.0856930  39.5761500
  80.5556780  86.9738290  40.1386930  79.8668200  86.3894900  38.9238270
  78.4840270  84.5182000  40.2594390  78.5643860  83.5709510  40.3711790
  79.3760020  84.8488880  40.3655050  79.2854980  94.6677390  47.3628930
  80.0217460  94.1192850  47.6337500  79.6695900  95.5333400  47.2234920
  82.3957290  93.8407700  39.1854500  83.1885900  94.1296530  38.7336290
  81.8761640  93.4099870  38.5066980  87.1277890  89.9603330  56.4989920
  86.5216050  89.9834930  55.7585670  86.8232000  89.2286370  57.0357170
  82.9134690  89.0611110  39.0496850  82.8085330  88.4463460  39.7758230
  82.7458910  88.5377000  38.2659860  83.0649010  87.7467910  55.0286080
  82.2994680  88.3152910  54.9440750  83.2464970  87.4544120  54.1354310
  86.1537420  88.1231140  39.6538840  85.6047520  88.5700440  40.2981580
  86.7756680  87.6180390  40.1776510  90.2072360  89.4773240  55.5861100
  90.9481830  89.8149000  55.0828560  89.4445040  89.6465300  55.0330870
  81.8212540  87.0822060  41.5504140  82.2428960  86.9161930  42.3935530
  81.9463380  86.2722290  41.0559280  84.3340180  86.1059670  38.7981240
  84.8545840  85.3908690  38.4322390  84.9808580  86.7445540  39.0981750
  88.8818020  87.5288070  54.1216310  89.2959040  87.6833150  54.9706730
  87.9469020  87.6543290  54.2842090  85.9797150  85.2124730  53.4750080
  86.0993360  84.6165870  54.2144920  86.8391150  85.2494420  53.0551380
  88.3185050  85.7661920  52.0512590  87.7920270  86.2904540  51.4477730
  88.6616390  86.3989310  52.6822320  80.7171440  83.1555290  38.4962300
  80.5160500  82.2922650  38.8575640  80.5463490  83.0688650  37.5583900
  81.4940670  93.7861560  53.2069970  80.9561760  94.5107620  52.8878670
  81.7474630  93.3091900  52.4167310  88.1959750  77.9663520  41.0249180
  88.4762040  77.1231420  41.3808600  87.4225480  78.1986630  41.5387930
  79.5154240  80.2555910  38.4840180  79.8180140  80.2623340  37.5759330
  80.2548830  79.9053770  38.9807840  82.7339170  79.1990530  39.4696380
  82.3861170  78.5214520  38.8898830  82.9351940  78.7380040  40.2839770
  78.5384370  89.5598330  39.3169980  78.9759240  90.1028000  39.9727560
  79.0232100  88.7345280  39.3266320  80.3492090  90.6796370  44.4292210
  80.0487630  90.5561340  45.3296120  80.2429580  89.8204960  44.0207940
  90.5634200  89.4426930  51.8925340  89.7494040  89.8724090  52.1551130
  90.9708400  90.0545340  51.2794390  89.0235250  80.5219470  40.0879240
  89.4420130  80.3350450  39.2475900  88.7171310  79.6698520  40.3982170
  92.5224980  85.4343610  43.7855040  92.1468580  84.6671540  43.3536330
  91.7928100  85.8166310  44.2729970  91.9124600  84.5815130  53.4194560
  91.6810690  84.3527880  52.5192510  92.1729150  85.5014680  53.3739450
  91.7975940  83.6601100  47.0862280  92.3213420  83.1663750  46.4552450
  92.3835360  83.7951460  47.8309850  91.9765660  83.7440970  50.6081830
  91.0268370  83.7104510  50.7226820  92.1578670  84.6541080  50.3731600
  77.8310100  81.9942650  39.7180460  78.5401800  81.5725870  39.2327740
  77.1150040  82.0617880  39.0863810  77.4784260  78.0481980  38.7583110
  78.2012390  78.5890920  39.0764330  77.7508780  77.7745400  37.8824650
  91.2875910  82.9174450  43.0254690  91.7835030  82.6845320  43.8103570
  91.0891980  82.0786290  42.6092330  92.7163070  81.5535400  45.5592370
  92.6062350  81.3991440  46.4974640  93.4770660  81.0256340  45.3167780
  91.0628790  77.4929530  52.0175370  91.7001010  78.1063670  52.3834560
  91.2103680  77.5290190  51.0724600  90.6210250  94.1945530  45.4193610
  91.2169320  93.8730100  44.7428030  90.8788400  93.7217350  46.2106880
  82.2278850  92.1823030  51.1693960  81.9870210  92.4497590  50.2824480
  83.1681490  92.3528760  51.2244820  78.3660850  93.5725690  52.6882020
  77.7721170  93.4410390  53.4272060  78.3584690  92.7363830  52.2224120
  88.7187850  79.0728790  52.2753770  88.3901210  78.2580550  51.8955500
  89.6670150  79.0298600  52.1519460  81.6018180  93.1529070  48.4239470
  82.1183200  92.5416430  47.8987730  82.2515560  93.6557850  48.9150480
  90.1111760  78.4850860  47.8754050  90.5519850  78.4295960  47.0275650
  89.8419350  79.4008870  47.9464230  91.9750330  78.1166100  45.8862870
  91.9138730  77.1727320  45.7393890  92.7542360  78.2246190  46.4316330
  76.2803080  94.2558460  44.8486820  76.1125120  93.6229140  45.5468710
  75.4137590  94.4617860  44.4981010  83.4444910  80.2014510  45.3420990
  82.6319420  79.8271400  45.0016870  83.9486550  79.4459590  45.6442180
  91.0904490  77.2678520  41.8544340  91.2855120  78.1661970  42.1211770
  90.3034360  77.0365600  42.3477290  77.8865780  92.9491690  42.2936960
  77.3613400  93.3299720  41.5898920  77.8110360  93.5742460  43.0146670
  84.4086040  94.9653660  56.6176650  85.3353350  94.7297930  56.6612610
  84.3936470  95.7925660  56.1362680  92.6431100  94.5079230  43.6150900
  92.8183290  93.8216970  42.9711820  91.9452670  95.0326280  43.2227570
  80.4858750  94.8974070  41.1686210  81.2177570  94.6133350  40.6210100
  80.7452420  94.6587350  42.0585590  79.6473540  91.0138800  41.1732540
  79.0182420  91.4823900  41.7218370  79.7621370  90.1688020  41.6078730
  87.1023260  85.0644460  27.3233740  87.0217310  84.1499070  27.0525450
  86.6887680  85.5611530  26.6173450  85.2341300  86.8423480  29.2043010
  84.4583400  86.3623920  29.4941580  85.8854230  86.1629130  29.0299170
  89.2548730  91.2483670  27.9842140  88.7930260  90.4770910  28.3129310
  90.0674280  91.2749740  28.4894590  77.6599080  82.1145180  23.8661160
  76.7715780  82.4561150  23.7641040  77.9440270  81.9145500  22.9741990
  85.4812040  93.5341680  27.6046130  84.8623480  93.9899180  27.0340570
  86.3363820  93.6893140  27.2035830  84.6750290  89.5180670  29.2113170
  84.6058570  88.5770610  29.0502300  85.4370150  89.6082080  29.7835740
  76.8656960  80.1235190  31.5369790  76.6859800  79.2260940  31.8172550
  76.4637040  80.6707060  32.2116740  85.7055460  82.3251050  29.4382100
  86.0820280  81.4522930  29.3255770  85.6074970  82.6609750  28.5472540
  79.8360470  80.6976680  24.8999540  79.9427220  81.5980410  25.2068300
  78.9252830  80.6494650  24.6094190  77.4843630  82.6195690  30.1452130
  78.1653740  82.8834060  30.7639530  77.1691680  81.7796560  30.4790140
  79.9604300  78.3061610  33.4988140  79.9622740  78.8234000  32.6934040
  79.1308610  77.8291790  33.4758070  79.6419630  80.0171570  31.5058590
  79.9836440  80.8613620  31.2112460  78.7035440  80.1655310  31.6223930
  80.4226250  89.9137590  33.4910820  81.0400250  90.5888670  33.2095270
  79.5619370  90.3225570  33.3998320  83.3247520  77.5053840  27.8303180
  83.6322500  76.9500730  27.1138680  82.3948220  77.6398300  27.6476170
  88.8762580  93.2221130  30.1210640  88.8889740  92.8183420  29.2532900
  88.3237800  93.9968420  30.0172070  90.1708000  89.9437350  25.2100810
  90.0604330  89.0011680  25.3350230  90.1676250  90.3052990  26.0963570
  88.2748020  88.1250970  31.4493250  88.6916810  87.9111080  30.6146710
  88.9987840  88.3823760  32.0201870  89.7425570  87.1322970  25.0698550
  89.1237990  86.7942520  24.4224850  89.7250020  86.4882730  25.7777740
  80.0313540  82.8710620  31.1282070  80.5828130  82.9805960  30.3535320
  80.5457050  83.2448220  31.8437300  89.8752230  93.3566840  33.1745340
  89.3982790  94.1639030  32.9817950  89.1914020  92.7045170  33.3271550
  80.8785050  89.5216660  36.1630040  79.9813580  89.7456630  36.4103440
  80.9037920  89.6451600  35.2141440  79.7056270  86.3929980  34.7387410
  79.5664040  87.2652780  35.1074810  78.8237630  86.0502790  34.5935350
  81.5036620  92.3351680  36.9472560  81.4752050  92.7394630  36.0800990
  81.3401590  91.4062040  36.7844160  78.0189550  84.9912390  24.8489680
  77.8987150  85.7174480  24.2370950  77.7090440  84.2215300  24.3717590
  93.4551440  93.1178780  38.2436730  93.9311160  93.5961670  38.9225810
  94.0758600  93.0496270  37.5182230  92.8584690  90.3091630  35.4036740
  92.9847750  90.0703510  34.4853920  92.9006070  89.4776170  35.8758820
  86.7201430  94.0119630  33.9731550  87.2346100  93.9227640  34.7753980
  85.8770510  94.3579330  34.2659460  88.6955830  94.2974970  23.4015550
  88.5356970  94.0077910  24.2997380  88.5302540  93.5215100  22.8660780
  87.9631890  93.4325240  26.0362040  88.4188840  92.6514620  26.3500660
  88.3024410  94.1432060  26.5803220  80.4853210  78.3347460  28.2313350
  80.0421360  79.1157000  27.8997870  81.0438200  78.6577350  28.9384290
  84.7723020  81.2015980  33.8348670  84.3102390  81.4099000  34.6468610
  84.3701130  80.3875330  33.5319340  89.7727530  82.4224930  34.9645330
  88.9221120  82.1230680  35.2854400  89.6129320  82.6666940  34.0529150
  86.8677240  83.9226680  37.0644120  87.1930650  83.0890430  36.7246350
  87.6557570  84.4455200  37.2122450  82.5229110  78.8794790  30.0902950
  82.8201440  79.7857620  30.0094970  83.0714670  78.3913570  29.4762520
  80.2767430  83.4581030  25.9594600  80.0508350  83.2418200  26.8641220
  79.4959960  83.8909490  25.6140570  87.5065190  83.4644400  24.5585250
  86.9074080  84.1880200  24.3748870  88.0544800  83.4021180  23.7761700
  82.7166640  84.3566610  36.6254870  82.6210240  83.4161340  36.4755270
  83.5598620  84.5781680  36.2302940  86.1130060  82.1007940  26.5888530
  86.5059630  82.4180140  25.7757220  86.4746910  81.2219820  26.7033050
  77.8477180  80.7680280  34.7788650  77.4540570  81.6155490  34.9861430
  77.1595580  80.1306650  34.9697290  84.4222230  80.8515250  37.8485390
  83.7320550  80.6587450  38.4831480  85.1654530  81.1349890  38.3809690
  75.1494230  78.6908740  28.8118730  74.8607280  79.2611600  29.5243710
  75.8939990  78.2113190  29.1749960  75.3364460  82.6328860  20.0221450
  75.2539130  83.5759620  20.1636440  74.9847520  82.4903770  19.1433800
  86.6985200  84.6913690  30.6839310  85.9666320  85.2000500  31.0329410
  86.3009540  83.8743670  30.3828090  83.1362590  81.3667890  29.0891800
  83.1398650  80.9257840  28.2396340  84.0313710  81.6885220  29.1963620
  78.9864970  81.2494380  28.0486010  78.6465020  81.7269610  28.8053060
  78.2242290  80.7959500  27.6887110  83.1982740  82.3679970  22.0798560
  83.3195560  82.3266450  23.0284380  82.8131250  83.2304120  21.9245290
  87.1611110  80.1447370  30.0962250  87.1783850  80.5956020  30.9404100
  86.9126690  79.2453010  30.3095690  82.2104240  84.6781110  21.4781860
  81.6421140  84.2299360  20.8517770  82.9193240  85.0373890  20.9447010
  90.5881860  77.5579550  35.9348630  90.9127630  76.8269210  36.4606610
  90.6238370  77.2393190  35.0329620  77.2873420  88.5793130  35.3548590
  76.9028210  87.9386800  35.9531550  77.5985610  89.2829250  35.9243320
  83.4370560  85.4269670  30.8357210  83.8040690  84.9528240  31.5818550
  83.2475620  86.3011240  31.1765550  76.3011050  80.1713360  26.9650680
  76.0157970  79.8069030  27.8029300  76.2389910  79.4393820  26.3513820
  81.2269930  84.4678310  33.1541420  80.9227000  85.3470290  33.3791780
  82.1816390  84.5278100  33.1898860  79.7551720  88.6739300  23.7508270
  78.9813980  88.1336920  23.5906990  80.4846350  88.1545910  23.4126030
  85.8958500  87.7413720  35.4303660  85.8295810  86.8209390  35.1761250
  85.2663640  87.8389160  36.1448300  77.2833660  85.3081050  34.3012780
  76.9248600  85.9734900  34.8886120  76.9888220  84.4764600  34.6725400
  80.4846780  85.7665290  37.1852330  80.1846920  85.9122470  36.2880150
  81.2558020  85.2070580  37.0925720  85.8275230  90.5634290  35.1807460
  85.8419770  89.6315250  34.9626370  85.1200330  90.6494050  35.8197230
  92.0386440  87.2041630  34.5276040  91.3134630  87.7970410  34.3305430
  92.5661900  87.1965170  33.7289410  91.9899550  91.6016370  24.1788200
  91.3475710  90.9471990  24.4531920  91.6030210  92.0071460  23.4028870
  87.5686030  88.9301800  28.0259890  87.9209850  88.3329930  27.3661260
  86.6848360  88.6046030  28.1968140  75.7941710  85.3072310  20.9247380
  76.6636560  85.5897110  21.2083300  75.3032030  86.1208180  20.8096190
  82.9576520  86.6945520  25.0455660  83.4139300  87.5050770  25.2715850
  82.6064730  86.3768660  25.8774150  85.2609130  92.2051860  32.2747960
  85.9051350  92.4111240  32.9521380  85.6238570  91.4440260  31.8218810
  78.8588300  77.0383170  25.5178180  78.7302930  77.0301070  26.4663100
  78.0350320  77.3766260  25.1669190  86.5341210  90.2084210  30.9925410
  87.1763440  89.5077370  31.1057580  87.0590560  90.9882650  30.8122300
  88.3078830  91.0079110  34.1961470  88.6435070  91.5945800  34.8739390
  87.3879170  90.8771820  34.4259260  75.8582230  78.7974290  34.9784880
  75.1440750  78.9971210  35.5837490  76.2777270  78.0213860  35.3499680
  76.1454820  92.7854550  35.9651410  76.2545940  91.8449290  35.8246800
  75.4935380  93.0509300  35.3165140  84.1367410  91.0570440  37.3649530
  83.8164280  90.3379680  37.9095220  83.4625770  91.7325510  37.4385590
  82.1781580  91.9030890  22.3082680  82.1691680  92.6360580  21.6927190
  81.2579940  91.6562470  22.4009640  77.7788220  87.1245780  23.0529440
  77.1716170  87.8644680  23.0624740  78.2537570  87.2145140  22.2267640
  87.3521010  81.2896600  32.7286330  87.7201830  80.4691810  33.0565900
  86.4919210  81.3498490  33.1441980  82.6867070  82.5239490  24.9531770
  81.9783220  82.9925830  25.3945380  82.9711550  81.8661500  25.5876960
  84.3123000  83.9436190  32.9524300  84.8108250  84.4182010  33.6176150
  84.4545950  83.0199710  33.1594330  83.8059290  94.4845450  25.6655540
  84.0600790  94.4466840  24.7434910  82.8571770  94.3578780  25.6583790
  80.8902090  80.8324570  22.3282480  81.7392620  81.2694720  22.2622670
  80.5233360  81.1444830  23.1554540  91.5189860  80.1604150  33.7952690
  91.0163460  80.9009550  34.1346500  92.3346520  80.5488150  33.4789480
  79.7893510  87.0856930  20.8018010  80.5556780  86.9738290  21.3643440
  79.8668200  86.3894900  20.1494780  78.4840270  84.5182000  21.4850900
  78.5643860  83.5709510  21.5968300  79.3760020  84.8488880  21.5911560
  78.2913260  93.8523460  37.7771020  79.0925990  94.1735510  38.1906420
  77.7765080  93.4919040  38.4990930  82.3957290  93.8407700  20.4111010
  83.1885900  94.1296530  19.9592800  81.8761640  93.4099870  19.7323490
  87.1277890  89.9603330  37.7246430  86.5216050  89.9834930  36.9842180
  86.8232000  89.2286370  38.2613680  88.5578260  93.6883620  36.3355840
  89.5100010  93.6041640  36.2856080  88.4106480  94.3525330  37.0089630
  91.4487460  93.0677830  21.8347750  91.1628970  92.6542970  21.0201930
  91.2507010  93.9965540  21.7148270  76.0111070  86.3396920  36.7207070
  76.5150090  85.7604200  37.2923300  75.2718490  86.6237150  37.2583440
  82.9134690  89.0611110  20.2753360  82.8085330  88.4463460  21.0014740
  82.7458910  88.5377000  19.4916370  83.0649010  87.7467910  36.2542590
  82.2994680  88.3152910  36.1697260  83.2464970  87.4544120  35.3610820
  90.2072360  89.4773240  36.8117610  90.9481830  89.8149000  36.3085070
  89.4445040  89.6465300  36.2587380  78.0434150  84.4826510  37.6157140
  78.0839490  84.1840380  38.5242370  78.8979650  84.8834120  37.4564660
  81.8212540  87.0822060  22.7760650  82.2428960  86.9161930  23.6192040
  81.9463380  86.2722290  22.2815790  79.9839960  83.0618610  35.5831630
  79.4536420  82.5709560  34.9554970  80.6528030  83.4902810  35.0489560
  84.3340180  86.1059670  20.0237750  84.8545840  85.3908690  19.6578900
  84.9808580  86.7445540  20.3238260  88.8818020  87.5288070  35.3472820
  89.2959040  87.6833150  36.1963240  87.9469020  87.6543290  35.5098600
  89.3540190  84.8684230  37.3511970  89.9360960  84.1136550  37.2632450
  89.5301960  85.3991670  36.5743450  80.4712260  80.0280980  35.6628920
  80.3769130  79.4101730  34.9379790  79.8909650  80.7547270  35.4358830
  83.2373700  78.5854220  32.6956310  82.7891000  78.6078480  31.8501860
  82.6038900  78.1873240  33.2926610  83.6433250  87.4808550  33.3168750
  84.0621360  88.3241280  33.1444990  82.7241880  87.6180590  33.0875530
  85.9797150  85.2124730  34.7006590  86.0993360  84.6165870  35.4401430
  86.8391150  85.2494420  34.2807890  88.3185050  85.7661920  33.2769100
  87.7920270  86.2904540  32.6734240  88.6616390  86.3989310  33.9078830
  80.7171440  83.1555290  19.7218810  80.5160500  82.2922650  20.0832150
  80.5463490  83.0688650  18.7840410  81.4940670  93.7861560  34.4326480
  80.9561760  94.5107620  34.1135180  81.7474630  93.3091900  33.6423820
  82.7465920  81.7546080  35.9582410  83.3365610  81.4461930  36.6460230
  81.9286160  81.2825830  36.1142310  87.5659350  81.3711890  36.1915430
  86.8774870  80.7093430  36.1265420  88.2865370  80.9250160  36.6363890
  79.5154240  80.2555910  19.7096690  79.8180140  80.2623340  18.8015840
  80.2548830  79.9053770  20.2064350  84.3502880  95.0212770  34.6913130
  84.2761580  95.9247910  34.9985500  83.4481720  94.7024670  34.6635200
  84.8988210  94.1871280  22.3139490  85.7939000  94.5256250  22.3358250
  84.9305840  93.4650690  21.6863770  78.5384370  89.5598330  20.5426490
  78.9759240  90.1028000  21.1984070  79.0232100  88.7345280  20.5522830
  76.2420380  93.2157950  30.7328380  75.8051370  93.3958750  31.5652530
  76.8098060  93.9732570  30.5910100  91.8782560  92.7174950  35.0205690
  91.2784550  92.7767510  34.2769610  92.0076460  91.7779930  35.1502540
  93.1184010  90.4592770  20.3575400  92.2876970  90.5269420  20.8282630
  93.2955840  91.3496890  20.0542260  92.5740470  87.2040250  22.8609600
  93.3359380  87.7736900  22.9669290  92.5894840  86.6367450  23.6317910
  76.0744810  85.7278180  27.0917260  75.4193650  85.4589820  26.4476960
  76.9122760  85.6182660  26.6419240  90.5634200  89.4426930  33.1181850
  89.7494040  89.8724090  33.3807640  90.9708400  90.0545340  32.5050900
  92.6259640  87.4974620  20.0182120  92.9008480  88.4053500  19.8901340
  92.4370380  87.4337150  20.9544110  92.5224980  85.4343610  25.0111550
  92.1468580  84.6671540  24.5792840  91.7928100  85.8166310  25.4986480
  76.6636740  83.0239840  35.5379020  75.7692790  82.9906600  35.8772730
  77.2034290  83.2226630  36.3030270  90.3512670  79.8071560  37.4230770
  91.2282850  79.8154960  37.8064770  90.3633510  79.0702400  36.8123120
  75.2882890  82.9377110  23.0342590  74.3846970  83.2007310  22.8594250
  75.7723510  83.2088280  22.2542550  77.8310100  81.9942650  20.9436970
  78.5401800  81.5725870  20.4584250  77.1150040  82.0617880  20.3120320
  91.2875910  82.9174450  24.2511200  91.7835030  82.6845320  25.0360080
  91.0891980  82.0786290  23.8348840  77.1676450  77.2988170  29.8862240
  77.8152640  76.7485550  29.4457400  77.5878290  77.5531320  30.7078050
  91.0628790  77.4929530  33.2431880  91.7001010  78.1063670  33.6091070
  91.2103680  77.5290190  32.2981110  93.6053340  79.3843320  20.0255020
  94.5302650  79.2524500  19.8173310  93.5829130  79.4636140  20.9791470
  93.6791830  80.1553980  22.6511730  92.8843330  80.0899100  23.1804640
  93.8835110  81.0904620  22.6397080  90.6210250  94.1945530  26.6450120
  91.2169320  93.8730100  25.9684540  90.8788400  93.7217350  27.4363390
  76.9208450  77.4543840  32.6287560  76.5723270  77.9107660  33.3945740
  76.5896150  76.5600970  32.7109990  78.5272820  90.6263440  36.7940750
  78.4842450  90.2556350  37.6755210  78.6583830  91.5641010  36.9342570
  82.2278850  92.1823030  32.3950470  81.9870210  92.4497590  31.5080990
  83.1681490  92.3528760  32.4501330  84.4333270  78.6455720  36.1506980
  84.3722160  79.2377550  36.9002390  85.3733650  78.5381680  36.0057240
  87.0707830  78.3025780  35.7899270  87.6848240  78.6205070  35.1280350
  87.6157390  77.8174370  36.4095130  93.4883010  94.2017410  33.1961110
  92.9941290  94.5986280  32.4788240  92.8796300  93.5766620  33.5898390
  77.5929090  76.9820040  35.9038330  78.1412080  76.8008090  35.1404440
  77.6584400  76.1914150  36.4394640  78.3660850  93.5725690  33.9138530
  77.7721170  93.4410390  34.6528570  78.3584690  92.7363830  33.4480630
  87.8115870  76.8657920  32.1168560  86.9375710  77.1993030  31.9141490
  87.7026620  76.3931100  32.9420430  88.7187850  79.0728790  33.5010280
  88.3901210  78.2580550  33.1212010  89.6670150  79.0298600  33.3775970
  91.1722460  94.8440830  30.4747850  90.7125430  95.5956640  30.1005870
  90.5434920  94.1247300  30.4162650  84.3413680  94.0437560  30.4764960
  84.6291490  93.7891860  29.5997970  84.8536900  93.4914920  31.0670530
  85.5590690  77.7827760  31.0561470  84.7762480  78.2573260  31.3358230
  85.2653620  76.8782590  30.9474650  91.9750330  78.1166100  27.1119380
  91.9138730  77.1727320  26.9650400  92.7542360  78.2246190  27.6572840
  83.4444910  80.2014510  26.5677500  82.6319420  79.8271400  26.2273380
  83.9486550  79.4459590  26.8698690  77.8865780  92.9491690  23.5193470
  77.3613400  93.3299720  22.8155430  77.8110360  93.5742460  24.2403180
  81.4694090  78.3514430  25.1722550  80.8396830  77.6501740  25.3392680
  80.9299230  79.1118560  24.9555710  84.4086040  94.9653660  37.8433160
  85.3353350  94.7297930  37.8869120  84.3936470  95.7925660  37.3619190
  81.5949650  77.6298410  37.6075040  81.3133920  78.1332010  36.8435860
  81.9769350  76.8320160  37.2417170  80.4858750  94.8974070  22.3942720
  81.2177570  94.6133350  21.8466610  80.7452420  94.6587350  23.2842100
  79.6473540  91.0138800  22.3989050  79.0182420  91.4823900  22.9474880
  79.7621370  90.1688020  22.8335240  88.1965110  77.0451990  38.1855510
  88.0830560  77.3646600  39.0807030  89.0134850  77.4464500  37.8892790
  90.9763600  94.1923520  37.6674200  91.7688920  93.6972750  37.4600160
  91.2696750  94.8713660  38.2749810  87.1023260  85.0644460   8.5490250
  87.0217310  84.1499070   8.2781960  86.6887680  85.5611530   7.8429960
  85.2341300  86.8423480  10.4299520  84.4583400  86.3623920  10.7198090
  85.8854230  86.1629130  10.2555680  79.2507130  87.1543290  11.3075280
  78.4192010  86.8992000  11.7071790  79.8588110  87.2254060  12.0433200
  89.2548730  91.2483670   9.2098650  88.7930260  90.4770910   9.5385820
  90.0674280  91.2749740   9.7151100  79.2308390  91.1883380  11.5033300
  79.5336430  90.2981120  11.3243520  79.9751980  91.7453600  11.2755550
  77.6599080  82.1145180   5.0917670  76.7715780  82.4561150   4.9897550
  77.9440270  81.9145500   4.1998500  75.6232090  84.7150830  10.9757370
  76.1948200  83.9473030  10.9761010  75.6233630  85.0139590  10.0663980
  85.4812040  93.5341680   8.8302640  84.8623480  93.9899180   8.2597080
  86.3363820  93.6893140   8.4292340  84.6750290  89.5180670  10.4369680
  84.6058570  88.5770610  10.2758810  85.4370150  89.6082080  11.0092250
  85.7055460  82.3251050  10.6638610  86.0820280  81.4522930  10.5512280
  85.6074970  82.6609750   9.7729050  79.8360470  80.6976680   6.1256050
  79.9427220  81.5980410   6.4324810  78.9252830  80.6494650   5.8350700
  89.4879580  79.8201490   7.5966950  90.3089200  79.3298060   7.6392430
  89.5213660  80.4099150   8.3498790  77.4843630  82.6195690  11.3708640
  78.1653740  82.8834060  11.9896040  77.1691680  81.7796560  11.7046650
  81.6768200  83.6663050  10.4581230  82.1846420  84.1644020  11.0986250
  82.2081440  82.8898250  10.2820590  93.7779130  81.8368240  14.1610580
  93.0731300  82.2249950  13.6425690  94.0437050  82.5318530  14.7631510
  79.9604300  78.3061610  14.7244650  79.9622740  78.8234000  13.9190550
  79.1308610  77.8291790  14.7014580  86.3475390  88.4180920   6.2234550
  85.7292660  88.8830370   5.6597270  86.8598640  89.1108400   6.6404060
  89.7241060  81.7601870  10.3694490  89.0196630  82.0486760  10.9497600
  90.0853220  82.5701980  10.0094050  79.6419630  80.0171570  12.7315100
  79.9836440  80.8613620  12.4368970  78.7035440  80.1655310  12.8480440
  75.7158590  89.1037450   3.5974180  75.3386570  89.5924550   2.8659080
  75.9731660  89.7762730   4.2280710  91.3403840  91.3777000  12.6321970
  90.6567360  92.0476110  12.6238640  91.8798130  91.5757650  11.8666830
  92.7927980  81.2056660  10.7603700  91.8452890  81.2395640  10.8919130
  93.1177970  82.0195610  11.1453060  83.3247520  77.5053840   9.0559690
  83.6322500  76.9500730   8.3395190  82.3948220  77.6398300   8.8732680
  88.8762580  93.2221130  11.3467150  88.8889740  92.8183420  10.4789410
  88.3237800  93.9968420  11.2428580  90.1708000  89.9437350   6.4357320
  90.0604330  89.0011680   6.5606740  90.1676250  90.3052990   7.3220080
  88.2748020  88.1250970  12.6749760  88.6916810  87.9111080  11.8403220
  88.9987840  88.3823760  13.2458380  85.7128280  85.5702670   5.7919810
  84.7857560  85.5040050   6.0208280  85.8653100  86.5082800   5.6775050
  85.6997360  81.8419670   2.7886970  84.7601030  82.0033630   2.8739430
  86.0180620  82.5605350   2.2422960  92.2210120  86.5238190  12.7666000
  91.3928750  86.5931280  12.2916130  92.8160600  87.1092500  12.2981830
  89.7425570  87.1322970   6.2955060  89.1237990  86.7942520   5.6481360
  89.7250020  86.4882730   7.0034250  89.1852130  83.3107510  13.7120870
  88.7723310  84.1361220  13.9660860  88.4528080  82.7252550  13.5197230
  81.3184920  86.0967410   8.5739540  80.9141920  85.3844660   8.0785440
  81.4048040  85.7520650   9.4627580  81.7866620  89.7834970  10.7378750
  81.4894910  89.1780440  10.0586530  82.7366440  89.8212280  10.6268110
  80.0313540  82.8710620  12.3538580  80.5828130  82.9805960  11.5791830
  80.5457050  83.2448220  13.0693810  89.8752230  93.3566840  14.4001850
  89.3982790  94.1639030  14.2074460  89.1914020  92.7045170  14.5528060
  87.9190270  86.3709780   3.3027810  88.3583550  85.5332210   3.1565630
  88.6318690  87.0039180   3.3891950  86.0285650  91.3105850   7.2709050
  86.4681560  92.0530180   6.8564440  85.9672540  91.5532420   8.1948010
  81.5036620  92.3351680  18.1729070  81.4752050  92.7394630  17.3057500
  81.3401590  91.4062040  18.0100670  78.0189550  84.9912390   6.0746190
  77.8987150  85.7174480   5.4627460  77.7090440  84.2215300   5.5974100
  93.4551440  93.1178780  19.4693240  93.9311160  93.5961670  20.1482320
  94.0758600  93.0496270  18.7438740  76.9022550  89.8627720   8.2921010
  76.4950630  90.0042310   7.4374610  77.7935560  89.5787880   8.0892220
  92.8584690  90.3091630  16.6293250  92.9847750  90.0703510  15.7110430
  92.9006070  89.4776170  17.1015330  86.7201430  94.0119630  15.1988060
  87.2346100  93.9227640  16.0010490  85.8770510  94.3579330  15.4915970
  88.6955830  94.2974970   4.6272060  88.5356970  94.0077910   5.5253890
  88.5302540  93.5215100   4.0917290  81.1744210  94.0773500   6.4043680
  80.9986690  93.1609040   6.1911480  80.3199950  94.4360790   6.6441480
  88.3981960  91.8062530   3.1870060  87.7047120  91.8039820   2.5272340
  89.1404820  91.3821850   2.7564230  87.9631890  93.4325240   7.2618550
  88.4188840  92.6514620   7.5757170  88.3024410  94.1432060   7.8059730
  92.7108700  82.3624090  17.5942990  92.0952970  82.8703760  17.0658450
  92.3905120  81.4622420  17.5368930  80.4853210  78.3347460   9.4569860
  80.0421360  79.1157000   9.1254380  81.0438200  78.6577350  10.1640800
  84.7723020  81.2015980  15.0605180  84.3102390  81.4099000  15.8725120
  84.3701130  80.3875330  14.7575850  89.7727530  82.4224930  16.1901840
  88.9221120  82.1230680  16.5110910  89.6129320  82.6666940  15.2785660
  83.6012030  77.9558160   4.3375690  82.9766210  77.9518030   5.0629000
  83.5142150  77.0889120   3.9411660  82.5229110  78.8794790  11.3159460
  82.8201440  79.7857620  11.2351480  83.0714670  78.3913570  10.7019030
  80.2767430  83.4581030   7.1851110  80.0508350  83.2418200   8.0897730
  79.4959960  83.8909490   6.8397080  87.5065190  83.4644400   5.7841760
  86.9074080  84.1880200   5.6005380  88.0544800  83.4021180   5.0018210
  82.7166640  84.3566610  17.8511380  82.6210240  83.4161340  17.7011780
  83.5598620  84.5781680  17.4559450  86.1130060  82.1007940   7.8145040
  86.5059630  82.4180140   7.0013730  86.4746910  81.2219820   7.9289560
  84.4222230  80.8515250  19.0741900  83.7320550  80.6587450  19.7087990
  85.1654530  81.1349890  19.6066200  75.1494230  78.6908740  10.0375240
  74.8607280  79.2611600  10.7500220  75.8939990  78.2113190  10.4006470
  86.6985200  84.6913690  11.9095820  85.9666320  85.2000500  12.2585920
  86.3009540  83.8743670  11.6084600  83.1362590  81.3667890  10.3148310
  83.1398650  80.9257840   9.4652850  84.0313710  81.6885220  10.4220130
  78.9864970  81.2494380   9.2742520  78.6465020  81.7269610  10.0309570
  78.2242290  80.7959500   8.9143620  83.1982740  82.3679970   3.3055070
  83.3195560  82.3266450   4.2540890  82.8131250  83.2304120   3.1501800
  87.1611110  80.1447370  11.3218760  87.1783850  80.5956020  12.1660610
  86.9126690  79.2453010  11.5352200  82.2104240  84.6781110   2.7038370
  81.6421140  84.2299360   2.0774280  82.9193240  85.0373890   2.1703520
  90.5881860  77.5579550  17.1605140  90.9127630  76.8269210  17.6863120
  90.6238370  77.2393190  16.2586130  83.4370560  85.4269670  12.0613720
  83.8040690  84.9528240  12.8075060  83.2475620  86.3011240  12.4022060
  76.3011050  80.1713360   8.1907190  76.0157970  79.8069030   9.0285810
  76.2389910  79.4393820   7.5770330  79.7551720  88.6739300   4.9764780
  78.9813980  88.1336920   4.8163500  80.4846350  88.1545910   4.6382540
  90.5139700  87.6704660  10.7691170  91.2338820  88.1659950  10.3787280
  90.3121520  86.9922550  10.1245040  85.9749640  79.0642620   4.9120560
  85.1614250  78.5655790   4.8365870  85.7811590  79.9040870   4.4956910
  85.8958500  87.7413720  16.6560170  85.8295810  86.8209390  16.4017760
  85.2663640  87.8389160  17.3704810  88.6898030  83.4362270   3.2082720
  89.5777650  83.7479500   3.0334060  88.6603120  82.5634520   2.8163300
  79.7989120  88.3419680   8.6143590  80.3167790  87.5387940   8.5600480
  79.3473140  88.2798820   9.4560420  84.6858620  89.6085960   3.8870890
  85.0274320  90.3528190   3.3914210  83.8571330  89.9217080   4.2495720
  85.8275230  90.5634290  16.4063970  85.8419770  89.6315250  16.1882880
  85.1200330  90.6494050  17.0453740  90.9612300  84.7474110   2.6762580
  90.8776020  85.1788330   1.8259020  91.6806490  85.2072460   3.1089400
  92.0386440  87.2041630  15.7532550  91.3134630  87.7970410  15.5561940
  92.5661900  87.1965170  14.9545920  91.9899550  91.6016370   5.4044710
  91.3475710  90.9471990   5.6788430  91.6030210  92.0071460   4.6285380
  87.5686030  88.9301800   9.2516400  87.9209850  88.3329930   8.5917770
  86.6848360  88.6046030   9.4224650  83.6549310  89.6899490   6.6586810
  84.3420440  90.2368700   7.0394400  82.8681730  90.2340220   6.6936420
  75.7941710  85.3072310   2.1503890  76.6636560  85.5897110   2.4339810
  75.3032030  86.1208180   2.0352700  82.9576520  86.6945520   6.2712170
  83.4139300  87.5050770   6.4972360  82.6064730  86.3768660   7.1030660
  85.2609130  92.2051860  13.5004470  85.9051350  92.4111240  14.1777890
  85.6238570  91.4440260  13.0475320  78.8588300  77.0383170   6.7434690
  78.7302930  77.0301070   7.6919610  78.0350320  77.3766260   6.3925700
  86.5341210  90.2084210  12.2181920  87.1763440  89.5077370  12.3314090
  87.0590560  90.9882650  12.0378810  88.3078830  91.0079110  15.4217980
  88.6435070  91.5945800  16.0995900  87.3879170  90.8771820  15.6515770
  76.1612960  94.5199690   2.7165520  76.5210600  95.1189030   2.0622790
  76.0205300  95.0659580   3.4900550  89.9613180  88.4104770   3.6035220
  89.6734880  88.8717460   4.3913100  90.7565350  87.9502540   3.8719440
  84.1367410  91.0570440  18.5906040  83.8164280  90.3379680  19.1351730
  83.4625770  91.7325510  18.6642100  82.1781580  91.9030890   3.5339190
  82.1691680  92.6360580   2.9183700  81.2579940  91.6562470   3.6266150
  77.7788220  87.1245780   4.2785950  77.1716170  87.8644680   4.2881250
  78.2537570  87.2145140   3.4524150  87.3521010  81.2896600  13.9542840
  87.7201830  80.4691810  14.2822410  86.4919210  81.3498490  14.3698490
  90.7183040  80.2453540   4.7630400  90.0896200  80.3499210   4.0488630
  90.2234960  80.4650320   5.5524280  82.6867070  82.5239490   6.1788280
  81.9783220  82.9925830   6.6201890  82.9711550  81.8661500   6.8133470
  84.3123000  83.9436190  14.1780810  84.8108250  84.4182010  14.8432660
  84.4545950  83.0199710  14.3850840  86.7182500  79.2490150   7.6184070
  86.5950280  79.2676280   6.6693580  87.6667060  79.2969090   7.7382470
  83.8059290  94.4845450   6.8912050  84.0600790  94.4466840   5.9691420
  82.8571770  94.3578780   6.8840300  80.8902090  80.8324570   3.5538990
  81.7392620  81.2694720   3.4879180  80.5233360  81.1444830   4.3811050
  91.5189860  80.1604150  15.0209200  91.0163460  80.9009550  15.3603010
  92.3346520  80.5488150  14.7045990  89.8111870  85.4037330   8.4670560
  88.8702010  85.4187560   8.6418250  90.1255940  84.6173290   8.9130860
  78.4840270  84.5182000   2.7107410  78.5643860  83.5709510   2.8224810
  79.3760020  84.8488880   2.8168070  91.8137450  92.5746180  10.1424820
  91.9384870  93.3977350  10.6148630  92.6803010  92.3636910   9.7948970
  79.2854980  94.6677390   9.8141950  80.0217460  94.1192850  10.0850520
  79.6695900  95.5333400   9.6747940  76.1700460  90.7350960   5.6883460
  75.2440240  90.9772100   5.6788870  76.6356890  91.5625220   5.5668210
  88.5578260  93.6883620  17.5612350  89.5100010  93.6041640  17.5112590
  88.4106480  94.3525330  18.2346140  91.4487460  93.0677830   3.0604260
  91.1628970  92.6542970   2.2458440  91.2507010  93.9965540   2.9404780
  83.0649010  87.7467910  17.4799100  82.2994680  88.3152910  17.3953770
  83.2464970  87.4544120  16.5867330  86.1537420  88.1231140   2.1051860
  85.6047520  88.5700440   2.7494600  86.7756680  87.6180390   2.6289530
  90.2072360  89.4773240  18.0374120  90.9481830  89.8149000  17.5341580
  89.4445040  89.6465300  17.4843890  81.8212540  87.0822060   4.0017160
  82.2428960  86.9161930   4.8448550  81.9463380  86.2722290   3.5072300
  79.9839960  83.0618610  16.8088140  79.4536420  82.5709560  16.1811480
  80.6528030  83.4902810  16.2746070  88.8818020  87.5288070  16.5729330
  89.2959040  87.6833150  17.4219750  87.9469020  87.6543290  16.7355110
  80.4712260  80.0280980  16.8885430  80.3769130  79.4101730  16.1636300
  79.8909650  80.7547270  16.6615340  83.2373700  78.5854220  13.9212820
  82.7891000  78.6078480  13.0758370  82.6038900  78.1873240  14.5183120
  83.6433250  87.4808550  14.5425260  84.0621360  88.3241280  14.3701500
  82.7241880  87.6180590  14.3132040  85.9797150  85.2124730  15.9263100
  86.0993360  84.6165870  16.6657940  86.8391150  85.2494420  15.5064400
  88.3185050  85.7661920  14.5025610  87.7920270  86.2904540  13.8990750
  88.6616390  86.3989310  15.1335340  81.4940670  93.7861560  15.6582990
  80.9561760  94.5107620  15.3391690  81.7474630  93.3091900  14.8680330
  82.7465920  81.7546080  17.1838920  83.3365610  81.4461930  17.8716740
  81.9286160  81.2825830  17.3398820  88.1959750  77.9663520   3.4762200
  88.4762040  77.1231420   3.8321620  87.4225480  78.1986630   3.9900950
  84.3502880  95.0212770  15.9169640  84.2761580  95.9247910  16.2242010
  83.4481720  94.7024670  15.8891710  84.8988210  94.1871280   3.5396000
  85.7939000  94.5256250   3.5614760  84.9305840  93.4650690   2.9120280
  78.5384370  89.5598330   1.7683000  78.9759240  90.1028000   2.4240580
  79.0232100  88.7345280   1.7779340  75.7530170  92.3487360   9.2203260
  76.0833180  91.4808420   8.9881900  76.1821170  92.5545880  10.0508220
  80.3492090  90.6796370   6.8805230  80.0487630  90.5561340   7.7809140
  80.2429580  89.8204960   6.4720960  76.2420380  93.2157950  11.9584890
  75.8051370  93.3958750  12.7909040  76.8098060  93.9732570  11.8166610
  91.8782560  92.7174950  16.2462200  91.2784550  92.7767510  15.5026120
  92.0076460  91.7779930  16.3759050  92.5740470  87.2040250   4.0866110
  93.3359380  87.7736900   4.1925800  92.5894840  86.6367450   4.8574420
  76.0744810  85.7278180   8.3173770  75.4193650  85.4589820   7.6733470
  76.9122760  85.6182660   7.8675750  93.5800440  88.0590350   8.9308040
  93.9509270  87.2757670   8.5244010  94.2202370  88.7479450   8.7525340
  90.5634200  89.4426930  14.3438360  89.7494040  89.8724090  14.6064150
  90.9708400  90.0545340  13.7307410  89.0235250  80.5219470   2.5392260
  89.4420130  80.3350450   1.6988920  88.7171310  79.6698520   2.8495190
  92.5224980  85.4343610   6.2368060  92.1468580  84.6671540   5.8049350
  91.7928100  85.8166310   6.7242990  91.9124600  84.5815130  15.8707580
  91.6810690  84.3527880  14.9705530  92.1729150  85.5014680  15.8252470
  75.2882890  82.9377110   4.2599100  74.3846970  83.2007310   4.0850760
  75.7723510  83.2088280   3.4799060  91.7975940  83.6601100   9.5375300
  92.3213420  83.1663750   8.9065470  92.3835360  83.7951460  10.2822870
  91.9765660  83.7440970  13.0594850  91.0268370  83.7104510  13.1739840
  92.1578670  84.6541080  12.8244620  91.2875910  82.9174450   5.4767710
  91.7835030  82.6845320   6.2616590  91.0891980  82.0786290   5.0605350
  77.1676450  77.2988170  11.1118750  77.8152640  76.7485550  10.6713910
  77.5878290  77.5531320  11.9334560  92.7163070  81.5535400   8.0105390
  92.6062350  81.3991440   8.9487660  93.4770660  81.0256340   7.7680800
  91.0628790  77.4929530  14.4688390  91.7001010  78.1063670  14.8347580
  91.2103680  77.5290190  13.5237620  93.6791830  80.1553980   3.8768240
  92.8843330  80.0899100   4.4061150  93.8835110  81.0904620   3.8653590
  90.6210250  94.1945530   7.8706630  91.2169320  93.8730100   7.1941050
  90.8788400  93.7217350   8.6619900  76.9208450  77.4543840  13.8544070
  76.5723270  77.9107660  14.6202250  76.5896150  76.5600970  13.9366500
  82.2278850  92.1823030  13.6206980  81.9870210  92.4497590  12.7337500
  83.1681490  92.3528760  13.6757840  87.0707830  78.3025780  17.0155780
  87.6848240  78.6205070  16.3536860  87.6157390  77.8174370  17.6351640
  93.4883010  94.2017410  14.4217620  92.9941290  94.5986280  13.7044750
  92.8796300  93.5766620  14.8154900  77.5929090  76.9820040  17.1294840
  78.1412080  76.8008090  16.3660950  77.6584400  76.1914150  17.6651150
  87.8115870  76.8657920  13.3425070  86.9375710  77.1993030  13.1398000
  87.7026620  76.3931100  14.1676940  88.7187850  79.0728790  14.7266790
  88.3901210  78.2580550  14.3468520  89.6670150  79.0298600  14.6032480
  91.1722460  94.8440830  11.7004360  90.7125430  95.5956640  11.3262380
  90.5434920  94.1247300  11.6419160  81.6018180  93.1529070  10.8752490
  82.1183200  92.5416430  10.3500750  82.2515560  93.6557850  11.3663500
  84.3413680  94.0437560  11.7021470  84.6291490  93.7891860  10.8254480
  84.8536900  93.4914920  12.2927040  85.5590690  77.7827760  12.2817980
  84.7762480  78.2573260  12.5614740  85.2653620  76.8782590  12.1731160
  90.1111760  78.4850860  10.3267070  90.5519850  78.4295960   9.4788670
  89.8419350  79.4008870  10.3977250  91.9750330  78.1166100   8.3375890
  91.9138730  77.1727320   8.1906910  92.7542360  78.2246190   8.8829350
  76.2803080  94.2558460   7.2999840  76.1125120  93.6229140   7.9981730
  75.4137590  94.4617860   6.9494030  76.9031100  78.0875240   4.8031700
  77.6610460  78.2004120   4.2295730  76.4408270  78.9244440   4.7575130
  83.4444910  80.2014510   7.7934010  82.6319420  79.8271400   7.4529890
  83.9486550  79.4459590   8.0955200  87.9469890  76.8656960   9.0317080
  88.5499260  77.4377170   9.5065600  87.2062880  77.4296400   8.8090980
  91.0904490  77.2678520   4.3057360  91.2855120  78.1661970   4.5724790
  90.3034360  77.0365600   4.7990310  77.8865780  92.9491690   4.7449980
  77.3613400  93.3299720   4.0411940  77.8110360  93.5742460   5.4659690
  79.2756250  78.6139290   3.3433670  79.8049010  77.8269090   3.2141620
  79.9084570  79.2930480   3.5769200  81.4694090  78.3514430   6.3979060
  80.8396830  77.6501740   6.5649190  80.9299230  79.1118560   6.1812220
  84.4086040  94.9653660  19.0689670  85.3353350  94.7297930  19.1125630
  84.3936470  95.7925660  18.5875700  92.6431100  94.5079230   6.0663920
  92.8183290  93.8216970   5.4224840  91.9452670  95.0326280   5.6740590
  80.4858750  94.8974070   3.6199230  81.2177570  94.6133350   3.0723120
  80.7452420  94.6587350   4.5098610  79.6473540  91.0138800   3.6245560
  79.0182420  91.4823900   4.1731390  79.7621370  90.1688020   4.0591750
  90.9763600  94.1923520  18.8930710  91.7688920  93.6972750  18.6856670
  91.2696750  94.8713660  19.5006320  87.1023260  66.2900970 139.9694680
  87.0217310  65.3755580 139.6986390  86.6887680  66.7868040 139.2634390
  85.2341300  68.0679990 141.8503950  84.4583400  67.5880430 142.1402520
  85.8854230  67.3885640 141.6760110  79.2507130  68.3799800 142.7279710
  78.4192010  68.1248510 143.1276220  79.8588110  68.4510570 143.4637630
  89.2548730  72.4740180 140.6303080  88.7930260  71.7027420 140.9590250
  90.0674280  72.5006250 141.1355530  79.2308390  72.4139890 142.9237730
  79.5336430  71.5237630 142.7447950  79.9751980  72.9710110 142.6959980
  77.6599080  63.3401690 136.5122100  76.7715780  63.6817660 136.4101980
  77.9440270  63.1402010 135.6202930  75.6232090  65.9407340 142.3961800
  76.1948200  65.1729540 142.3965440  75.6233630  66.2396100 141.4868410
  85.4812040  74.7598190 140.2507070  84.8623480  75.2155690 139.6801510
  86.3363820  74.9149650 139.8496770  84.6750290  70.7437180 141.8574110
  84.6058570  69.8027120 141.6963240  85.4370150  70.8338590 142.4296680
  76.8656960  61.3491700 144.1830730  76.6859800  60.4517450 144.4633490
  76.4637040  61.8963570 144.8577680  85.7055460  63.5507560 142.0843040
  86.0820280  62.6779440 141.9716710  85.6074970  63.8866260 141.1933480
  79.8360470  61.9233190 137.5460480  79.9427220  62.8236920 137.8529240
  78.9252830  61.8751160 137.2555130  89.4879580  61.0458000 139.0171380
  90.3089200  60.5554570 139.0596860  89.5213660  61.6355660 139.7703220
  77.4843630  63.8452200 142.7913070  78.1653740  64.1090570 143.4100470
  77.1691680  63.0053070 143.1251080  81.6768200  64.8919560 141.8785660
  82.1846420  65.3900530 142.5190680  82.2081440  64.1154760 141.7025020
  93.7779130  63.0624750 145.5815010  93.0731300  63.4506460 145.0630120
  94.0437050  63.7575040 146.1835940  79.9604300  59.5318120 146.1449080
  79.9622740  60.0490510 145.3394980  79.1308610  59.0548300 146.1219010
  86.3475390  69.6437430 137.6438980  85.7292660  70.1086880 137.0801700
  86.8598640  70.3364910 138.0608490  81.2107150  69.1713300 144.3222580
  80.8776530  69.7982220 144.9643650  81.3873830  69.6975180 143.5424250
  89.7241060  62.9858380 141.7898920  89.0196630  63.2743270 142.3702030
  90.0853220  63.7958490 141.4298480  79.6419630  61.2428080 144.1519530
  79.9836440  62.0870130 143.8573400  78.7035440  61.3911820 144.2684870
  80.4226250  71.1394100 146.1371760  81.0400250  71.8145180 145.8556210
  79.5619370  71.5482080 146.0459260  75.7158590  70.3293960 135.0178610
  75.3386570  70.8181060 134.2863510  75.9731660  71.0019240 135.6485140
  91.3403840  72.6033510 144.0526400  90.6567360  73.2732620 144.0443070
  91.8798130  72.8014160 143.2871260  92.7927980  62.4313170 142.1808130
  91.8452890  62.4652150 142.3123560  93.1177970  63.2452120 142.5657490
  83.3247520  58.7310350 140.4764120  83.6322500  58.1757240 139.7599620
  82.3948220  58.8654810 140.2937110  88.8762580  74.4477640 142.7671580
  88.8889740  74.0439930 141.8993840  88.3237800  75.2224930 142.6633010
  88.2748020  69.3507480 144.0954190  88.6916810  69.1367590 143.2607650
  88.9987840  69.6080270 144.6662810  92.2210120  67.7494700 144.1870430
  91.3928750  67.8187790 143.7120560  92.8160600  68.3349010 143.7186260
  89.7425570  68.3579480 137.7159490  89.1237990  68.0199030 137.0685790
  89.7250020  67.7139240 138.4238680  89.1852130  64.5364020 145.1325300
  88.7723310  65.3617730 145.3865290  88.4528080  63.9509060 144.9401660
  81.3184920  67.3223920 139.9943970  80.9141920  66.6101170 139.4989870
  81.4048040  66.9777160 140.8832010  81.7866620  71.0091480 142.1583180
  81.4894910  70.4036950 141.4790960  82.7366440  71.0468790 142.0472540
  80.0313540  64.0967130 143.7743010  80.5828130  64.2062470 142.9996260
  80.5457050  64.4704730 144.4898240  89.8752230  74.5823350 145.8206280
  89.3982790  75.3895540 145.6278890  89.1914020  73.9301680 145.9732490
  80.8785050  70.7473170 148.8090980  79.9813580  70.9713140 149.0564380
  80.9037920  70.8708110 147.8602380  87.9190270  67.5966290 134.7232240
  88.3583550  66.7588720 134.5770060  88.6318690  68.2295690 134.8096380
  79.7056270  67.6186490 147.3848350  79.5664040  68.4909290 147.7535750
  78.8237630  67.2759300 147.2396290  86.0285650  72.5362360 138.6913480
  86.4681560  73.2786690 138.2768870  85.9672540  72.7788930 139.6152440
  81.5036620  73.5608190 149.5933500  81.4752050  73.9651140 148.7261930
  81.3401590  72.6318550 149.4305100  91.5007410  58.8509100 133.0373280
  91.1880070  58.9435930 133.9372350  92.2619880  59.4290130 132.9870710
  78.0189550  66.2168900 137.4950620  77.8987150  66.9430990 136.8831890
  77.7090440  65.4471810 137.0178530  75.6574920  69.3884040 143.3019260
  75.7355340  69.5232810 142.3574980  76.2716600  68.6799930 143.4947380
  76.9022550  71.0884230 139.7125440  76.4950630  71.2298820 138.8579040
  77.7935560  70.8044390 139.5096650  92.8584690  71.5348140 148.0497680
  92.9847750  71.2960020 147.1314860  92.9006070  70.7032680 148.5219760
  86.7201430  75.2376140 146.6192490  87.2346100  75.1484150 147.4214920
  85.8770510  75.5835840 146.9120400  92.7108700  63.5880600 149.0147420
  92.0952970  64.0960270 148.4862880  92.3905120  62.6878930 148.9573360
  75.7134440  70.4298210 145.8413720  75.8765480  69.9603570 145.0233090
  76.1786890  69.9221770 146.5062560  80.4853210  59.5603970 140.8774290
  80.0421360  60.3413510 140.5458810  81.0438200  59.8833860 141.5845230
  84.7723020  62.4272490 146.4809610  84.3102390  62.6355510 147.2929550
  84.3701130  61.6131840 146.1780280  89.7727530  63.6481440 147.6106270
  88.9221120  63.3487190 147.9315340  89.6129320  63.8923450 146.6990090
  86.8677240  65.1483190 149.7105060  87.1930650  64.3146940 149.3707290
  87.6557570  65.6711710 149.8583390  83.6012030  59.1814670 135.7580120
  82.9766210  59.1774540 136.4833430  83.5142150  58.3145630 135.3616090
  82.5229110  60.1051300 142.7363890  82.8201440  61.0114130 142.6555910
  83.0714670  59.6170080 142.1223460  80.2767430  64.6837540 138.6055540
  80.0508350  64.4674710 139.5102160  79.4959960  65.1166000 138.2601510
  82.7166640  65.5823120 149.2715810  82.6210240  64.6417850 149.1216210
  83.5598620  65.8038190 148.8763880  86.1130060  63.3264450 139.2349470
  86.5059630  63.6436650 138.4218160  86.4746910  62.4476330 139.3493990
  77.8477180  61.9936790 147.4249590  77.4540570  62.8412000 147.6322370
  77.1595580  61.3563160 147.6158230  75.1494230  59.9165250 141.4579670
  74.8607280  60.4868110 142.1704650  75.8939990  59.4369700 141.8210900
  75.3364460  63.8585370 132.6682390  75.2539130  64.8016130 132.8097380
  74.9847520  63.7160280 131.7894740  86.6985200  65.9170200 143.3300250
  85.9666320  66.4257010 143.6790350  86.3009540  65.1000180 143.0289030
  83.1362590  62.5924400 141.7352740  83.1398650  62.1514350 140.8857280
  84.0313710  62.9141730 141.8424560  78.9864970  62.4750890 140.6946950
  78.6465020  62.9526120 141.4514000  78.2242290  62.0216010 140.3348050
  87.1611110  61.3703880 142.7423190  87.1783850  61.8212530 143.5865040
  86.9126690  60.4709520 142.9556630  90.5881860  58.7836060 148.5809570
  90.9127630  58.0525720 149.1067550  90.6238370  58.4649700 147.6790560
  77.2873420  69.8049640 148.0009530  76.9028210  69.1643310 148.5992490
  77.5985610  70.5085760 148.5704260  83.4370560  66.6526180 143.4818150
  83.8040690  66.1784750 144.2279490  83.2475620  67.5267750 143.8226490
  76.3011050  61.3969870 139.6111620  76.0157970  61.0325540 140.4490240
  76.2389910  60.6650330 138.9974760  81.2269930  65.6934820 145.8002360
  80.9227000  66.5726800 146.0252720  82.1816390  65.7534610 145.8359800
  79.7551720  69.8995810 136.3969210  78.9813980  69.3593430 136.2367930
  80.4846350  69.3802420 136.0586970  90.5139700  68.8961170 142.1895600
  91.2338820  69.3916460 141.7991710  90.3121520  68.2179060 141.5449470
  85.8958500  68.9670230 148.0764600  85.8295810  68.0465900 147.8222190
  85.2663640  69.0645670 148.7909240  79.7989120  69.5676190 140.0348020
  80.3167790  68.7644450 139.9804910  79.3473140  69.5055330 140.8764850
  77.2833660  66.5337560 146.9473720  76.9248600  67.1991410 147.5347060
  76.9888220  65.7021110 147.3186340  80.4846780  66.9921800 149.8313270
  80.1846920  67.1378980 148.9341090  81.2558020  66.4327090 149.7386660
  85.8275230  71.7890800 147.8268400  85.8419770  70.8571760 147.6087310
  85.1200330  71.8750560 148.4658170  90.9612300  65.9730620 134.0967010
  90.8776020  66.4044840 133.2463450  91.6806490  66.4328970 134.5293830
  92.0386440  68.4298140 147.1736980  91.3134630  69.0226920 146.9766370
  92.5661900  68.4221680 146.3750350  87.5686030  70.1558310 140.6720830
  87.9209850  69.5586440 140.0122200  86.6848360  69.8302540 140.8429080
  83.6549310  70.9156000 138.0791240  84.3420440  71.4625210 138.4598830
  82.8681730  71.4596730 138.1140850  75.7941710  66.5328820 133.5708320
  76.6636560  66.8153620 133.8544240  75.3032030  67.3464690 133.4557130
  82.9576520  67.9202030 137.6916600  83.4139300  68.7307280 137.9176790
  82.6064730  67.6025170 138.5235090  85.2609130  73.4308370 144.9208900
  85.9051350  73.6367750 145.5982320  85.6238570  72.6696770 144.4679750
  78.8588300  58.2639680 138.1639120  78.7302930  58.2557580 139.1124040
  78.0350320  58.6022770 137.8130130  86.5341210  71.4340720 143.6386350
  87.1763440  70.7333880 143.7518520  87.0590560  72.2139160 143.4583240
  88.3078830  72.2335620 146.8422410  88.6435070  72.8202310 147.5200330
  87.3879170  72.1028330 147.0720200  75.8582230  60.0230800 147.6245820
  75.1440750  60.2227720 148.2298430  76.2777270  59.2470370 147.9960620
  76.1454820  74.0111060 148.6112350  76.2545940  73.0705800 148.4707740
  75.4935380  74.2765810 147.9626080  77.7788220  68.3502290 135.6990380
  77.1716170  69.0901190 135.7085680  78.2537570  68.4401650 134.8728580
  87.3521010  62.5153110 145.3747270  87.7201830  61.6948320 145.7026840
  86.4919210  62.5755000 145.7902920  90.7183040  61.4710050 136.1834830
  90.0896200  61.5755720 135.4693060  90.2234960  61.6906830 136.9728710
  82.6867070  63.7496000 137.5992710  81.9783220  64.2182340 138.0406320
  82.9711550  63.0918010 138.2337900  84.3123000  65.1692700 145.5985240
  84.8108250  65.6438520 146.2637090  84.4545950  64.2456220 145.8055270
  86.7182500  60.4746660 139.0388500  86.5950280  60.4932790 138.0898010
  87.6667060  60.5225600 139.1586900  91.5189860  61.3860660 146.4413630
  91.0163460  62.1266060 146.7807440  92.3346520  61.7744660 146.1250420
  89.8111870  66.6293840 139.8874990  88.8702010  66.6444070 140.0622680
  90.1255940  65.8429800 140.3335290  79.7893510  68.3113440 133.4478950
  80.5556780  68.1994800 134.0104380  79.8668200  67.6151410 132.7955720
  78.4840270  65.7438510 134.1311840  78.5643860  64.7966020 134.2429240
  79.3760020  66.0745390 134.2372500  91.8137450  73.8002690 141.5629250
  91.9384870  74.6233860 142.0353060  92.6803010  73.5893420 141.2153400
  79.2854980  75.8933900 141.2346380  80.0217460  75.3449360 141.5054950
  79.6695900  76.7589910 141.0952370  76.1700460  71.9607470 137.1087890
  75.2440240  72.2028610 137.0993300  76.6356890  72.7881730 136.9872640
  82.3957290  75.0664210 133.0571950  83.1885900  75.3553040 132.6053740
  81.8761640  74.6356380 132.3784430  88.5578260  74.9140130 148.9816780
  89.5100010  74.8298150 148.9317020  88.4106480  75.5781840 149.6550570
  76.0111070  67.5653430 149.3668010  76.5150090  66.9860710 149.9384240
  75.2718490  67.8493660 149.9044380  82.9134690  70.2867620 132.9214300
  82.8085330  69.6719970 133.6475680  82.7458910  69.7633510 132.1377310
  83.0649010  68.9724420 148.9003530  82.2994680  69.5409420 148.8158200
  83.2464970  68.6800630 148.0071760  90.2072360  70.7029750 149.4578550
  90.9481830  71.0405510 148.9546010  89.4445040  70.8721810 148.9048320
  81.8212540  68.3078570 135.4221590  82.2428960  68.1418440 136.2652980
  81.9463380  67.4978800 134.9276730  79.9839960  64.2875120 148.2292570
  79.4536420  63.7966070 147.6015910  80.6528030  64.7159320 147.6950500
  88.8818020  68.7544580 147.9933760  89.2959040  68.9089660 148.8424180
  87.9469020  68.8799800 148.1559540  89.3540190  66.0940740 149.9972910
  89.9360960  65.3393060 149.9093390  89.5301960  66.6248180 149.2204390
  80.4712260  61.2537490 148.3089860  80.3769130  60.6358240 147.5840730
  79.8909650  61.9803780 148.0819770  83.2373700  59.8110730 145.3417250
  82.7891000  59.8334990 144.4962800  82.6038900  59.4129750 145.9387550
  83.6433250  68.7065060 145.9629690  84.0621360  69.5497790 145.7905930
  82.7241880  68.8437100 145.7336470  85.9797150  66.4381240 147.3467530
  86.0993360  65.8422380 148.0862370  86.8391150  66.4750930 146.9268830
  88.3185050  66.9918430 145.9230040  87.7920270  67.5161050 145.3195180
  88.6616390  67.6245820 146.5539770  81.4940670  75.0118070 147.0787420
  80.9561760  75.7364130 146.7596120  81.7474630  74.5348410 146.2884760
  82.7465920  62.9802590 148.6043350  83.3365610  62.6718440 149.2921170
  81.9286160  62.5082340 148.7603250  87.5659350  62.5968400 148.8376370
  86.8774870  61.9349940 148.7726360  88.2865370  62.1506670 149.2824830
  88.1959750  59.1920030 134.8966630  88.4762040  58.3487930 135.2526050
  87.4225480  59.4243140 135.4105380  79.5154240  61.4812420 132.3557630
  79.8180140  61.4879850 131.4476780  80.2548830  61.1310280 132.8525290
  84.3502880  76.2469280 147.3374070  84.2761580  77.1504420 147.6446440
  83.4481720  75.9281180 147.3096140  78.5384370  70.7854840 133.1887430
  78.9759240  71.3284510 133.8445010  79.0232100  69.9601790 133.1983770
  75.7530170  73.5743870 140.6407690  76.0833180  72.7064930 140.4086330
  76.1821170  73.7802390 141.4712650  76.2420380  74.4414460 143.3789320
  75.8051370  74.6215260 144.2113470  76.8098060  75.1989080 143.2371040
  91.8782560  73.9431460 147.6666630  91.2784550  74.0024020 146.9230550
  92.0076460  73.0036440 147.7963480  93.1184010  71.6849280 133.0036340
  92.2876970  71.7525930 133.4743570  93.2955840  72.5753400 132.7003200
  92.5740470  68.4296760 135.5070540  93.3359380  68.9993410 135.6130230
  92.5894840  67.8623960 136.2778850  76.0744810  66.9534690 139.7378200
  75.4193650  66.6846330 139.0937900  76.9122760  66.8439170 139.2880180
  93.5800440  69.2846860 140.3512470  93.9509270  68.5014180 139.9448440
  94.2202370  69.9735960 140.1729770  90.5634200  70.6683440 145.7642790
  89.7494040  71.0980600 146.0268580  90.9708400  71.2801850 145.1511840
  92.6259640  68.7231130 132.6643060  92.9008480  69.6310010 132.5362280
  92.4370380  68.6593660 133.6005050  89.0235250  61.7475980 133.9596690
  89.4420130  61.5606960 133.1193350  88.7171310  60.8955030 134.2699620
  92.5224980  66.6600120 137.6572490  92.1468580  65.8928050 137.2253780
  91.7928100  67.0422820 138.1447420  77.1120740  67.3387260 144.2781540
  77.4793780  67.2514660 145.1577560  76.5431560  66.5753810 144.1788400
  91.9124600  65.8071640 147.2912010  91.6810690  65.5784390 146.3909960
  92.1729150  66.7271190 147.2456900  76.6636740  64.2496350 148.1839960
  75.7692790  64.2163110 148.5233670  77.2034290  64.4483140 148.9491210
  75.2882890  64.1633620 135.6803530  74.3846970  64.4263820 135.5055190
  75.7723510  64.4344790 134.9003490  91.7975940  64.8857610 140.9579730
  92.3213420  64.3920260 140.3269900  92.3835360  65.0207970 141.7027300
  91.9765660  64.9697480 144.4799280  91.0268370  64.9361020 144.5944270
  92.1578670  65.8797590 144.2449050  77.8310100  63.2199160 133.5897910
  78.5401800  62.7982380 133.1045190  77.1150040  63.2874390 132.9581260
  77.4784260  59.2738490 132.6300560  78.2012390  59.8147430 132.9481780
  77.7508780  59.0001910 131.7542100  91.2875910  64.1430960 136.8972140
  91.7835030  63.9101830 137.6821020  91.0891980  63.3042800 136.4809780
  77.1676450  58.5244680 142.5323180  77.8152640  57.9742060 142.0918340
  77.5878290  58.7787830 143.3538990  92.7163070  62.7791910 139.4309820
  92.6062350  62.6247950 140.3692090  93.4770660  62.2512850 139.1885230
  91.0628790  58.7186040 145.8892820  91.7001010  59.3320180 146.2552010
  91.2103680  58.7546700 144.9442050  93.6053340  60.6099830 132.6715960
  94.5302650  60.4781010 132.4634250  93.5829130  60.6892650 133.6252410
  93.6791830  61.3810490 135.2972670  92.8843330  61.3155610 135.8265580
  93.8835110  62.3161130 135.2858020  76.9208450  58.6800350 145.2748500
  76.5723270  59.1364170 146.0406680  76.5896150  57.7857480 145.3570930
  82.2278850  73.4079540 145.0411410  81.9870210  73.6754100 144.1541930
  83.1681490  73.5785270 145.0962270  84.4333270  59.8712230 148.7967920
  84.3722160  60.4634060 149.5463330  85.3733650  59.7638190 148.6518180
  87.0707830  59.5282290 148.4360210  87.6848240  59.8461580 147.7741290
  87.6157390  59.0430880 149.0556070  93.4883010  75.4273920 145.8422050
  92.9941290  75.8242790 145.1249180  92.8796300  74.8023130 146.2359330
  77.5929090  58.2076550 148.5499270  78.1412080  58.0264600 147.7865380
  77.6584400  57.4170660 149.0855580  78.3660850  74.7982200 146.5599470
  77.7721170  74.6666900 147.2989510  78.3584690  73.9620340 146.0941570
  87.8115870  58.0914430 144.7629500  86.9375710  58.4249540 144.5602430
  87.7026620  57.6187610 145.5881370  88.7187850  60.2985300 146.1471220
  88.3901210  59.4837060 145.7672950  89.6670150  60.2555110 146.0236910
  91.1722460  76.0697340 143.1208790  90.7125430  76.8213150 142.7466810
  90.5434920  75.3503810 143.0623590  77.9973080  72.1640580 145.5107510
  77.2707140  71.5445870 145.4433460  78.0582230  72.5581190 144.6405590
  81.6018180  74.3785580 142.2956920  82.1183200  73.7672940 141.7705180
  82.2515560  74.8814360 142.7867930  84.3413680  75.2694070 143.1225900
  84.6291490  75.0148370 142.2458910  84.8536900  74.7171430 143.7131470
  85.5590690  59.0084270 143.7022410  84.7762480  59.4829770 143.9819170
  85.2653620  58.1039100 143.5935590  90.1111760  59.7107370 141.7471500
  90.5519850  59.6552470 140.8993100  89.8419350  60.6265380 141.8181680
  91.9750330  59.3422610 139.7580320  91.9138730  58.3983830 139.6111340
  92.7542360  59.4502700 140.3033780  76.2803080  75.4814970 138.7204270
  76.1125120  74.8485650 139.4186160  75.4137590  75.6874370 138.3698460
  76.9031100  59.3131750 136.2236130  77.6610460  59.4260630 135.6500160
  76.4408270  60.1500950 136.1779560  83.4444910  61.4271020 139.2138440
  82.6319420  61.0527910 138.8734320  83.9486550  60.6716100 139.5159630
  87.9469890  58.0913470 140.4521510  88.5499260  58.6633680 140.9270030
  87.2062880  58.6552910 140.2295410  91.0904490  58.4935030 135.7261790
  91.2855120  59.3918480 135.9929220  90.3034360  58.2622110 136.2194740
  79.2756250  59.8395800 134.7638100  79.8049010  59.0525600 134.6346050
  79.9084570  60.5186990 134.9973630  81.4694090  59.5770940 137.8183490
  80.8396830  58.8758250 137.9853620  80.9299230  60.3375070 137.6016650
  92.6431100  75.7335740 137.4868350  92.8183290  75.0473480 136.8429270
  91.9452670  76.2582790 137.0945020  87.1023260  66.2900970 121.1951190
  87.0217310  65.3755580 120.9242900  86.6887680  66.7868040 120.4890900
  85.2341300  68.0679990 123.0760460  84.4583400  67.5880430 123.3659030
  85.8854230  67.3885640 122.9016620  79.2507130  68.3799800 123.9536220
  78.4192010  68.1248510 124.3532730  79.8588110  68.4510570 124.6894140
  89.2548730  72.4740180 121.8559590  88.7930260  71.7027420 122.1846760
  90.0674280  72.5006250 122.3612040  75.6232090  65.9407340 123.6218310
  76.1948200  65.1729540 123.6221950  75.6233630  66.2396100 122.7124920
  85.4812040  74.7598190 121.4763580  84.8623480  75.2155690 120.9058020
  86.3363820  74.9149650 121.0753280  84.6750290  70.7437180 123.0830620
  84.6058570  69.8027120 122.9219750  85.4370150  70.8338590 123.6553190
  76.8656960  61.3491700 125.4087240  76.6859800  60.4517450 125.6890000
  76.4637040  61.8963570 126.0834190  89.4879580  61.0458000 120.2427890
  90.3089200  60.5554570 120.2853370  89.5213660  61.6355660 120.9959730
  79.9604300  59.5318120 127.3705590  79.9622740  60.0490510 126.5651490
  79.1308610  59.0548300 127.3475520  79.6419630  61.2428080 125.3776040
  79.9836440  62.0870130 125.0829910  78.7035440  61.3911820 125.4941380
  80.4226250  71.1394100 127.3628270  81.0400250  71.8145180 127.0812720
  79.5619370  71.5482080 127.2715770  75.7158590  70.3293960 116.2435120
  75.3386570  70.8181060 115.5120020  75.9731660  71.0019240 116.8741650
  91.3403840  72.6033510 125.2782910  90.6567360  73.2732620 125.2699580
  91.8798130  72.8014160 124.5127770  88.8762580  74.4477640 123.9928090
  88.8889740  74.0439930 123.1250350  88.3237800  75.2224930 123.8889520
  90.1708000  71.1693860 119.0818260  90.0604330  70.2268190 119.2067680
  90.1676250  71.5309500 119.9681020  88.2748020  69.3507480 125.3210700
  88.6916810  69.1367590 124.4864160  88.9987840  69.6080270 125.8919320
  85.7128280  66.7959180 118.4380750  84.7857560  66.7296560 118.6669220
  85.8653100  67.7339310 118.3235990  89.7425570  68.3579480 118.9416000
  89.1237990  68.0199030 118.2942300  89.7250020  67.7139240 119.6495190
  81.3184920  67.3223920 121.2200480  80.9141920  66.6101170 120.7246380
  81.4048040  66.9777160 122.1088520  81.7866620  71.0091480 123.3839690
  81.4894910  70.4036950 122.7047470  82.7366440  71.0468790 123.2729050
  80.8785050  70.7473170 130.0347490  79.9813580  70.9713140 130.2820890
  80.9037920  70.8708110 129.0858890  87.9190270  67.5966290 115.9488750
  88.3583550  66.7588720 115.8026570  88.6318690  68.2295690 116.0352890
  81.5036620  73.5608190 130.8190010  81.4752050  73.9651140 129.9518440
  81.3401590  72.6318550 130.6561610  78.0189550  66.2168900 118.7207130
  77.8987150  66.9430990 118.1088400  77.7090440  65.4471810 118.2435040
  93.4551440  74.3435290 132.1154180  93.9311160  74.8218180 132.7943260
  94.0758600  74.2752780 131.3899680  75.6574920  69.3884040 124.5275770
  75.7355340  69.5232810 123.5831490  76.2716600  68.6799930 124.7203890
  92.8584690  71.5348140 129.2754190  92.9847750  71.2960020 128.3571370
  92.9006070  70.7032680 129.7476270  81.1744210  75.3030010 119.0504620
  80.9986690  74.3865550 118.8372420  80.3199950  75.6617300 119.2902420
  92.7108700  63.5880600 130.2403930  92.0952970  64.0960270 129.7119390
  92.3905120  62.6878930 130.1829870  75.7134440  70.4298210 127.0670230
  75.8765480  69.9603570 126.2489600  76.1786890  69.9221770 127.7319070
  80.4853210  59.5603970 122.1030800  80.0421360  60.3413510 121.7715320
  81.0438200  59.8833860 122.8101740  82.5229110  60.1051300 123.9620400
  82.8201440  61.0114130 123.8812420  83.0714670  59.6170080 123.3479970
  77.8477180  61.9936790 128.6506100  77.4540570  62.8412000 128.8578880
  77.1595580  61.3563160 128.8414740  75.3364460  63.8585370 113.8938900
  75.2539130  64.8016130 114.0353890  74.9847520  63.7160280 113.0151250
  86.6985200  65.9170200 124.5556760  85.9666320  66.4257010 124.9046860
  86.3009540  65.1000180 124.2545540  83.1362590  62.5924400 122.9609250
  83.1398650  62.1514350 122.1113790  84.0313710  62.9141730 123.0681070
  78.9864970  62.4750890 121.9203460  78.6465020  62.9526120 122.6770510
  78.2242290  62.0216010 121.5604560  82.2104240  65.9037620 115.3499310
  81.6421140  65.4555870 114.7235220  82.9193240  66.2630400 114.8164460
  90.5881860  58.7836060 129.8066080  90.9127630  58.0525720 130.3324060
  90.6238370  58.4649700 128.9047070  77.2873420  69.8049640 129.2266040
  76.9028210  69.1643310 129.8249000  77.5985610  70.5085760 129.7960770
  79.7551720  69.8995810 117.6225720  78.9813980  69.3593430 117.4624440
  80.4846350  69.3802420 117.2843480  90.5139700  68.8961170 123.4152110
  91.2338820  69.3916460 123.0248220  90.3121520  68.2179060 122.7705980
  88.6898030  64.6618780 115.8543660  89.5777650  64.9736010 115.6795000
  88.6603120  63.7891030 115.4624240  79.7989120  69.5676190 121.2604530
  80.3167790  68.7644450 121.2061420  79.3473140  69.5055330 122.1021360
  85.8275230  71.7890800 129.0524910  85.8419770  70.8571760 128.8343820
  85.1200330  71.8750560 129.6914680  90.9612300  65.9730620 115.3223520
  90.8776020  66.4044840 114.4719960  91.6806490  66.4328970 115.7550340
  92.0386440  68.4298140 128.3993490  91.3134630  69.0226920 128.2022880
  92.5661900  68.4221680 127.6006860  91.9899550  72.8272880 118.0505650
  91.3475710  72.1728500 118.3249370  91.6030210  73.2327970 117.2746320
  87.5686030  70.1558310 121.8977340  87.9209850  69.5586440 121.2378710
  86.6848360  69.8302540 122.0685590  75.7941710  66.5328820 114.7964830
  76.6636560  66.8153620 115.0800750  75.3032030  67.3464690 114.6813640
  82.9576520  67.9202030 118.9173110  83.4139300  68.7307280 119.1433300
  82.6064730  67.6025170 119.7491600  85.2609130  73.4308370 126.1465410
  85.9051350  73.6367750 126.8238830  85.6238570  72.6696770 125.6936260
  78.8588300  58.2639680 119.3895630  78.7302930  58.2557580 120.3380550
  78.0350320  58.6022770 119.0386640  86.5341210  71.4340720 124.8642860
  87.1763440  70.7333880 124.9775030  87.0590560  72.2139160 124.6839750
  76.1612960  75.7456200 115.3626460  76.5210600  76.3445540 114.7083730
  76.0205300  76.2916090 116.1361490  75.8582230  60.0230800 128.8502330
  75.1440750  60.2227720 129.4554940  76.2777270  59.2470370 129.2217130
  89.9613180  69.6361280 116.2496160  89.6734880  70.0973970 117.0374040
  90.7565350  69.1759050 116.5180380  76.1454820  74.0111060 129.8368860
  76.2545940  73.0705800 129.6964250  75.4935380  74.2765810 129.1882590
  84.1367410  72.2826950 131.2366980  83.8164280  71.5636190 131.7812670
  83.4625770  72.9582020 131.3103040  82.1781580  73.1287400 116.1800130
  82.1691680  73.8617090 115.5644640  81.2579940  72.8818980 116.2727090
  77.7788220  68.3502290 116.9246890  77.1716170  69.0901190 116.9342190
  78.2537570  68.4401650 116.0985090  90.7183040  61.4710050 117.4091340
  90.0896200  61.5755720 116.6949570  90.2234960  61.6906830 118.1985220
  83.8059290  75.7101960 119.5372990  84.0600790  75.6723350 118.6152360
  82.8571770  75.5835290 119.5301240  89.8111870  66.6293840 121.1131500
  88.8702010  66.6444070 121.2879190  90.1255940  65.8429800 121.5591800
  79.7893510  68.3113440 114.6735460  80.5556780  68.1994800 115.2360890
  79.8668200  67.6151410 114.0212230  91.8137450  73.8002690 122.7885760
  91.9384870  74.6233860 123.2609570  92.6803010  73.5893420 122.4409910
  78.2913260  75.0779970 131.6488470  79.0925990  75.3992020 132.0623870
  77.7765080  74.7175550 132.3708380  82.3957290  75.0664210 114.2828460
  83.1885900  75.3553040 113.8310250  81.8761640  74.6356380 113.6040940
  82.9134690  70.2867620 114.1470810  82.8085330  69.6719970 114.8732190
  82.7458910  69.7633510 113.3633820  78.0434150  65.7083020 131.4874590
  78.0839490  65.4096890 132.3959820  78.8979650  66.1090630 131.3282110
  81.8212540  68.3078570 116.6478100  82.2428960  68.1418440 117.4909490
  81.9463380  67.4978800 116.1533240  84.3340180  67.3316180 113.8955200
  84.8545840  66.6165200 113.5296350  84.9808580  67.9702050 114.1955710
  80.4712260  61.2537490 129.5346370  80.3769130  60.6358240 128.8097240
  79.8909650  61.9803780 129.3076280  83.2373700  59.8110730 126.5673760
  82.7891000  59.8334990 125.7219310  82.6038900  59.4129750 127.1644060
  81.4940670  75.0118070 128.3043930  80.9561760  75.7364130 127.9852630
  81.7474630  74.5348410 127.5141270  82.7465920  62.9802590 129.8299860
  83.3365610  62.6718440 130.5177680  81.9286160  62.5082340 129.9859760
  84.3502880  76.2469280 128.5630580  84.2761580  77.1504420 128.8702950
  83.4481720  75.9281180 128.5352650  78.5384370  70.7854840 114.4143940
  78.9759240  71.3284510 115.0701520  79.0232100  69.9601790 114.4240280
  93.1184010  71.6849280 114.2292850  92.2876970  71.7525930 114.7000080
  93.2955840  72.5753400 113.9259710  92.5740470  68.4296760 116.7327050
  93.3359380  68.9993410 116.8386740  92.5894840  67.8623960 117.5035360
  76.0744810  66.9534690 120.9634710  75.4193650  66.6846330 120.3194410
  76.9122760  66.8439170 120.5136690  93.5800440  69.2846860 121.5768980
  93.9509270  68.5014180 121.1704950  94.2202370  69.9735960 121.3986280
  90.5634200  70.6683440 126.9899300  89.7494040  71.0980600 127.2525090
  90.9708400  71.2801850 126.3768350  92.5224980  66.6600120 118.8829000
  92.1468580  65.8928050 118.4510290  91.7928100  67.0422820 119.3703930
  77.1120740  67.3387260 125.5038050  77.4793780  67.2514660 126.3834070
  76.5431560  66.5753810 125.4044910  91.9124600  65.8071640 128.5168520
  91.6810690  65.5784390 127.6166470  92.1729150  66.7271190 128.4713410
  90.3512670  61.0328070 131.2948220  91.2282850  61.0411470 131.6782220
  90.3633510  60.2958910 130.6840570  75.2882890  64.1633620 116.9060040
  74.3846970  64.4263820 116.7311700  75.7723510  64.4344790 116.1260000
  77.4784260  59.2738490 113.8557070  78.2012390  59.8147430 114.1738290
  77.7508780  59.0001910 112.9798610  91.2875910  64.1430960 118.1228650
  91.7835030  63.9101830 118.9077530  91.0891980  63.3042800 117.7066290
  92.7163070  62.7791910 120.6566330  92.6062350  62.6247950 121.5948600
  93.4770660  62.2512850 120.4141740  91.0628790  58.7186040 127.1149330
  91.7001010  59.3320180 127.4808520  91.2103680  58.7546700 126.1698560
  93.6791830  61.3810490 116.5229180  92.8843330  61.3155610 117.0522090
  93.8835110  62.3161130 116.5114530  76.9208450  58.6800350 126.5005010
  76.5723270  59.1364170 127.2663190  76.5896150  57.7857480 126.5827440
  78.5272820  71.8519950 130.6658200  78.4842450  71.4812860 131.5472660
  78.6583830  72.7897520 130.8060020  82.2278850  73.4079540 126.2667920
  81.9870210  73.6754100 125.3798440  83.1681490  73.5785270 126.3218780
  84.4333270  59.8712230 130.0224430  84.3722160  60.4634060 130.7719840
  85.3733650  59.7638190 129.8774690  77.5929090  58.2076550 129.7755780
  78.1412080  58.0264600 129.0121890  77.6584400  57.4170660 130.3112090
  87.8115870  58.0914430 125.9886010  86.9375710  58.4249540 125.7858940
  87.7026620  57.6187610 126.8137880  91.1722460  76.0697340 124.3465300
  90.7125430  76.8213150 123.9723320  90.5434920  75.3503810 124.2880100
  77.9973080  72.1640580 126.7364020  77.2707140  71.5445870 126.6689970
  78.0582230  72.5581190 125.8662100  81.6018180  74.3785580 123.5213430
  82.1183200  73.7672940 122.9961690  82.2515560  74.8814360 124.0124440
  84.3413680  75.2694070 124.3482410  84.6291490  75.0148370 123.4715420
  84.8536900  74.7171430 124.9387980  90.1111760  59.7107370 122.9728010
  90.5519850  59.6552470 122.1249610  89.8419350  60.6265380 123.0438190
  76.9031100  59.3131750 117.4492640  77.6610460  59.4260630 116.8756670
  76.4408270  60.1500950 117.4036070  87.9469890  58.0913470 121.6778020
  88.5499260  58.6633680 122.1526540  87.2062880  58.6552910 121.4551920
  84.4086040  76.1910170 131.7150610  85.3353350  75.9554440 131.7586570
  84.3936470  77.0182170 131.2336640  81.5949650  58.8554920 131.4792490
  81.3133920  59.3588520 130.7153310  81.9769350  58.0576670 131.1134620
  80.4858750  76.1230580 116.2660170  81.2177570  75.8389860 115.7184060
  80.7452420  75.8843860 117.1559550  79.6473540  72.2395310 116.2706500
  79.0182420  72.7080410 116.8192330  79.7621370  71.3944530 116.7052690
  88.1965110  58.2708500 132.0572960  88.0830560  58.5903110 132.9524480
  89.0134850  58.6721010 131.7610240  87.1023260  66.2900970 102.4207700
  87.0217310  65.3755580 102.1499410  86.6887680  66.7868040 101.7147410
  85.2341300  68.0679990 104.3016970  84.4583400  67.5880430 104.5915540
  85.8854230  67.3885640 104.1273130  84.6750290  70.7437180 104.3087130
  84.6058570  69.8027120 104.1476260  85.4370150  70.8338590 104.8809700
  76.8656960  61.3491700 106.6343750  76.6859800  60.4517450 106.9146510
  76.4637040  61.8963570 107.3090700  85.7055460  63.5507560 104.5356060
  86.0820280  62.6779440 104.4229730  85.6074970  63.8866260 103.6446500
  89.4879580  61.0458000 101.4684400  90.3089200  60.5554570 101.5109880
  89.5213660  61.6355660 102.2216240  81.6768200  64.8919560 104.3298680
  82.1846420  65.3900530 104.9703700  82.2081440  64.1154760 104.1538040
  79.9604300  59.5318120 108.5962100  79.9622740  60.0490510 107.7908000
  79.1308610  59.0548300 108.5732030  89.7241060  62.9858380 104.2411940
  89.0196630  63.2743270 104.8215050  90.0853220  63.7958490 103.8811500
  79.6419630  61.2428080 106.6032550  79.9836440  62.0870130 106.3086420
  78.7035440  61.3911820 106.7197890  92.7927980  62.4313170 104.6321150
  91.8452890  62.4652150 104.7636580  93.1177970  63.2452120 105.0170510
  83.3247520  58.7310350 102.9277140  83.6322500  58.1757240 102.2112640
  82.3948220  58.8654810 102.7450130  88.8762580  74.4477640 105.2184600
  88.8889740  74.0439930 104.3506860  88.3237800  75.2224930 105.1146030
  90.1708000  71.1693860 100.3074770  90.0604330  70.2268190 100.4324190
  90.1676250  71.5309500 101.1937530  88.2748020  69.3507480 106.5467210
  88.6916810  69.1367590 105.7120670  88.9987840  69.6080270 107.1175830
  85.7128280  66.7959180  99.6637260  84.7857560  66.7296560  99.8925730
  85.8653100  67.7339310  99.5492500  92.2210120  67.7494700 106.6383450
  91.3928750  67.8187790 106.1633580  92.8160600  68.3349010 106.1699280
  89.7425570  68.3579480 100.1672510  89.1237990  68.0199030  99.5198810
  89.7250020  67.7139240 100.8751700  89.1852130  64.5364020 107.5838320
  88.7723310  65.3617730 107.8378310  88.4528080  63.9509060 107.3914680
  89.8752230  74.5823350 108.2719300  89.3982790  75.3895540 108.0791910
  89.1914020  73.9301680 108.4245510  80.8785050  70.7473170 111.2604000
  79.9813580  70.9713140 111.5077400  80.9037920  70.8708110 110.3115400
  87.9190270  67.5966290  97.1745260  88.3583550  66.7588720  97.0283080
  88.6318690  68.2295690  97.2609400  79.7056270  67.6186490 109.8361370
  79.5664040  68.4909290 110.2048770  78.8237630  67.2759300 109.6909310
  81.5036620  73.5608190 112.0446520  81.4752050  73.9651140 111.1774950
  81.3401590  72.6318550 111.8818120  91.5007410  58.8509100  95.4886300
  91.1880070  58.9435930  96.3885370  92.2619880  59.4290130  95.4383730
  93.4551440  74.3435290 113.3410690  93.9311160  74.8218180 114.0199770
  94.0758600  74.2752780 112.6156190  92.8584690  71.5348140 110.5010700
  92.9847750  71.2960020 109.5827880  92.9006070  70.7032680 110.9732780
  86.7201430  75.2376140 109.0705510  87.2346100  75.1484150 109.8727940
  85.8770510  75.5835840 109.3633420  83.6012030  59.1814670  98.2093140
  82.9766210  59.1774540  98.9346450  83.5142150  58.3145630  97.8129110
  82.5229110  60.1051300 105.1876910  82.8201440  61.0114130 105.1068930
  83.0714670  59.6170080 104.5736480  87.5065190  64.6900910  99.6559210
  86.9074080  65.4136710  99.4722830  88.0544800  64.6277690  98.8735660
  86.1130060  63.3264450 101.6862490  86.5059630  63.6436650 100.8731180
  86.4746910  62.4476330 101.8007010  77.8477180  61.9936790 109.8762610
  77.4540570  62.8412000 110.0835390  77.1595580  61.3563160 110.0671250
  86.6985200  65.9170200 105.7813270  85.9666320  66.4257010 106.1303370
  86.3009540  65.1000180 105.4802050  83.1362590  62.5924400 104.1865760
  83.1398650  62.1514350 103.3370300  84.0313710  62.9141730 104.2937580
  87.1611110  61.3703880 105.1936210  87.1783850  61.8212530 106.0378060
  86.9126690  60.4709520 105.4069650  83.4370560  66.6526180 105.9331170
  83.8040690  66.1784750 106.6792510  83.2475620  67.5267750 106.2739510
  81.2269930  65.6934820 108.2515380  80.9227000  66.5726800 108.4765740
  82.1816390  65.7534610 108.2872820  90.5139700  68.8961170 104.6408620
  91.2338820  69.3916460 104.2504730  90.3121520  68.2179060 103.9962490
  85.9749640  60.2899130  98.7838010  85.1614250  59.7912300  98.7083320
  85.7811590  61.1297380  98.3674360  88.6898030  64.6618780  97.0800170
  89.5777650  64.9736010  96.9051510  88.6603120  63.7891030  96.6880750
  77.2833660  66.5337560 109.3986740  76.9248600  67.1991410 109.9860080
  76.9888220  65.7021110 109.7699360  80.4846780  66.9921800 112.2826290
  80.1846920  67.1378980 111.3854110  81.2558020  66.4327090 112.1899680
  85.8275230  71.7890800 110.2781420  85.8419770  70.8571760 110.0600330
  85.1200330  71.8750560 110.9171190  90.9612300  65.9730620  96.5480030
  90.8776020  66.4044840  95.6976470  91.6806490  66.4328970  96.9806850
  92.0386440  68.4298140 109.6250000  91.3134630  69.0226920 109.4279390
  92.5661900  68.4221680 108.8263370  91.9899550  72.8272880  99.2762160
  91.3475710  72.1728500  99.5505880  91.6030210  73.2327970  98.5002830
  87.5686030  70.1558310 103.1233850  87.9209850  69.5586440 102.4635220
  86.6848360  69.8302540 103.2942100  85.2609130  73.4308370 107.3721920
  85.9051350  73.6367750 108.0495340  85.6238570  72.6696770 106.9192770
  86.5341210  71.4340720 106.0899370  87.1763440  70.7333880 106.2031540
  87.0590560  72.2139160 105.9096260  88.3078830  72.2335620 109.2935430
  88.6435070  72.8202310 109.9713350  87.3879170  72.1028330 109.5233220
  75.8582230  60.0230800 110.0758840  75.1440750  60.2227720 110.6811450
  76.2777270  59.2470370 110.4473640  89.9613180  69.6361280  97.4752670
  89.6734880  70.0973970  98.2630550  90.7565350  69.1759050  97.7436890
  84.1367410  72.2826950 112.4623490  83.8164280  71.5636190 113.0069180
  83.4625770  72.9582020 112.5359550  90.7183040  61.4710050  98.6347850
  90.0896200  61.5755720  97.9206080  90.2234960  61.6906830  99.4241730
  86.7182500  60.4746660 101.4901520  86.5950280  60.4932790 100.5411030
  87.6667060  60.5225600 101.6099920  89.8111870  66.6293840 102.3388010
  88.8702010  66.6444070 102.5135700  90.1255940  65.8429800 102.7848310
  78.2913260  75.0779970 112.8744980  79.0925990  75.3992020 113.2880380
  77.7765080  74.7175550 113.5964890  88.5578260  74.9140130 111.4329800
  89.5100010  74.8298150 111.3830040  88.4106480  75.5781840 112.1063590
  91.4487460  74.2934340  96.9321710  91.1628970  73.8799480  96.1175890
  91.2507010  75.2222050  96.8122230  76.0111070  67.5653430 111.8181030
  76.5150090  66.9860710 112.3897260  75.2718490  67.8493660 112.3557400
  83.0649010  68.9724420 111.3516550  82.2994680  69.5409420 111.2671220
  83.2464970  68.6800630 110.4584780  90.2072360  70.7029750 111.9091570
  90.9481830  71.0405510 111.4059030  89.4445040  70.8721810 111.3561340
  78.0434150  65.7083020 112.7131100  78.0839490  65.4096890 113.6216330
  78.8979650  66.1090630 112.5538620  79.9839960  64.2875120 110.6805590
  79.4536420  63.7966070 110.0528930  80.6528030  64.7159320 110.1463520
  80.4712260  61.2537490 110.7602880  80.3769130  60.6358240 110.0353750
  79.8909650  61.9803780 110.5332790  83.6433250  68.7065060 108.4142710
  84.0621360  69.5497790 108.2418950  82.7241880  68.8437100 108.1849490
  81.4940670  75.0118070 109.5300440  80.9561760  75.7364130 109.2109140
  81.7474630  74.5348410 108.7397780  88.1959750  59.1920030  97.3479650
  88.4762040  58.3487930  97.7039070  87.4225480  59.4243140  97.8618400
  84.3502880  76.2469280 109.7887090  84.2761580  77.1504420 110.0959460
  83.4481720  75.9281180 109.7609160  82.7339170  60.4247040  95.7926850
  82.3861170  59.7471030  95.2129300  82.9351940  59.9636550  96.6070240
  91.8782560  73.9431460 110.1179650  91.2784550  74.0024020 109.3743570
  92.0076460  73.0036440 110.2476500  92.5740470  68.4296760  97.9583560
  93.3359380  68.9993410  98.0643250  92.5894840  67.8623960  98.7291870
  90.5634200  70.6683440 108.2155810  89.7494040  71.0980600 108.4781600
  90.9708400  71.2801850 107.6024860  92.6259640  68.7231130  95.1156080
  92.9008480  69.6310010  94.9875300  92.4370380  68.6593660  96.0518070
  89.0235250  61.7475980  96.4109710  89.4420130  61.5606960  95.5706370
  88.7171310  60.8955030  96.7212640  92.5224980  66.6600120 100.1085510
  92.1468580  65.8928050  99.6766800  91.7928100  67.0422820 100.5960440
  91.9124600  65.8071640 109.7425030  91.6810690  65.5784390 108.8422980
  92.1729150  66.7271190 109.6969920  91.7975940  64.8857610 103.4092750
  92.3213420  64.3920260 102.7782920  92.3835360  65.0207970 104.1540320
  91.9765660  64.9697480 106.9312300  91.0268370  64.9361020 107.0457290
  92.1578670  65.8797590 106.6962070  91.2875910  64.1430960  99.3485160
  91.7835030  63.9101830 100.1334040  91.0891980  63.3042800  98.9322800
  77.1676450  58.5244680 104.9836200  77.8152640  57.9742060 104.5431360
  77.5878290  58.7787830 105.8052010  92.7163070  62.7791910 101.8822840
  92.6062350  62.6247950 102.8205110  93.4770660  62.2512850 101.6398250
  93.6053340  60.6099830  95.1228980  94.5302650  60.4781010  94.9147270
  93.5829130  60.6892650  96.0765430  93.6791830  61.3810490  97.7485690
  92.8843330  61.3155610  98.2778600  93.8835110  62.3161130  97.7371040
  76.9208450  58.6800350 107.7261520  76.5723270  59.1364170 108.4919700
  76.5896150  57.7857480 107.8083950  78.5272820  71.8519950 111.8914710
  78.4842450  71.4812860 112.7729170  78.6583830  72.7897520 112.0316530
  93.4883010  75.4273920 108.2935070  92.9941290  75.8242790 107.5762200
  92.8796300  74.8023130 108.6872350  77.5929090  58.2076550 111.0012290
  78.1412080  58.0264600 110.2378400  77.6584400  57.4170660 111.5368600
  85.5590690  59.0084270 106.1535430  84.7762480  59.4829770 106.4332190
  85.2653620  58.1039100 106.0448610  90.1111760  59.7107370 104.1984520
  90.5519850  59.6552470 103.3506120  89.8419350  60.6265380 104.2694700
  91.9750330  59.3422610 102.2093340  91.9138730  58.3983830 102.0624360
  92.7542360  59.4502700 102.7546800  83.4444910  61.4271020 101.6651460
  82.6319420  61.0527910 101.3247340  83.9486550  60.6716100 101.9672650
  87.9469890  58.0913470 102.9034530  88.5499260  58.6633680 103.3783050
  87.2062880  58.6552910 102.6808430  91.0904490  58.4935030  98.1774810
  91.2855120  59.3918480  98.4442240  90.3034360  58.2622110  98.6707760
  81.4694090  59.5770940 100.2696510  80.8396830  58.8758250 100.4366640
  80.9299230  60.3375070 100.0529670  84.4086040  76.1910170 112.9407120
  85.3353350  75.9554440 112.9843080  84.3936470  77.0182170 112.4593150
  92.6431100  75.7335740  99.9381370  92.8183290  75.0473480  99.2942290
  91.9452670  76.2582790  99.5458040  81.5949650  58.8554920 112.7049000
  81.3133920  59.3588520 111.9409820  81.9769350  58.0576670 112.3391130
  90.9763600  75.4180030 112.7648160  91.7688920  74.9229260 112.5574120
  91.2696750  76.0970170 113.3723770  93.7779130  63.0624750  89.2584540
  93.0731300  63.4506460  88.7399650  94.0437050  63.7575040  89.8605470
  92.7108700  63.5880600  92.6916950  92.0952970  64.0960270  92.1632410
  92.3905120  62.6878930  92.6342890  89.7727530  63.6481440  91.2875800
  88.9221120  63.3487190  91.6084870  89.6129320  63.8923450  90.3759620
  86.8677240  65.1483190  93.3874590  87.1930650  64.3146940  93.0476820
  87.6557570  65.6711710  93.5352920  84.4222230  62.0771760  94.1715860
  83.7320550  61.8843960  94.8061950  85.1654530  62.3606400  94.7040160
  90.5881860  58.7836060  92.2579100  90.9127630  58.0525720  92.7837080
  90.6238370  58.4649700  91.3560090  76.1612960  75.7456200  77.8139480
  76.5210600  76.3445540  77.1596750  76.0205300  76.2916090  78.5874510
  91.5189860  61.3860660  90.1183160  91.0163460  62.1266060  90.4576970
  92.3346520  61.7744660  89.8019950  76.1700460  71.9607470  80.7857420
  75.2440240  72.2028610  80.7762830  76.6356890  72.7881730  80.6642170
  89.3540190  66.0940740  93.6742440  89.9360960  65.3393060  93.5862920
  89.5301960  66.6248180  92.8973920  83.2373700  59.8110730  89.0186780
  82.7891000  59.8334990  88.1732330  82.6038900  59.4129750  89.6157080
  82.7465920  62.9802590  92.2812880  83.3365610  62.6718440  92.9690700
  81.9286160  62.5082340  92.4372780  87.5659350  62.5968400  92.5145900
  86.8774870  61.9349940  92.4495890  88.2865370  62.1506670  92.9594360
  75.7530170  73.5743870  84.3177220  76.0833180  72.7064930  84.0855860
  76.1821170  73.7802390  85.1482180  91.9124600  65.8071640  90.9681540
  91.6810690  65.5784390  90.0679490  92.1729150  66.7271190  90.9226430
  90.3512670  61.0328070  93.7461240  91.2282850  61.0411470  94.1295240
  90.3633510  60.2958910  93.1353590  91.0628790  58.7186040  89.5662350
  91.7001010  59.3320180  89.9321540  91.2103680  58.7546700  88.6211580
  93.6053340  60.6099830  76.3485490  94.5302650  60.4781010  76.1403780
  93.5829130  60.6892650  77.3021940  84.4333270  59.8712230  92.4737450
  84.3722160  60.4634060  93.2232860  85.3733650  59.7638190  92.3287710
  87.0707830  59.5282290  92.1129740  87.6848240  59.8461580  91.4510820
  87.6157390  59.0430880  92.7325600  88.7187850  60.2985300  89.8240750
  88.3901210  59.4837060  89.4442480  89.6670150  60.2555110  89.7006440
  76.2803080  75.4814970  82.3973800  76.1125120  74.8485650  83.0955690
  75.4137590  75.6874370  82.0467990  77.8865780  74.1748200  79.8423940
  77.3613400  74.5556230  79.1385900  77.8110360  74.7998970  80.5633650
  81.5949650  58.8554920  93.9305510  81.3133920  59.3588520  93.1666330
  81.9769350  58.0576670  93.5647640  88.1965110  58.2708500  94.5085980
  88.0830560  58.5903110  95.4037500  89.0134850  58.6721010  94.2123260
  89.2548730  72.4740180  65.5329120  88.7930260  71.7027420  65.8616290
  90.0674280  72.5006250  66.0381570  79.2308390  72.4139890  67.8263770
  79.5336430  71.5237630  67.6473990  79.9751980  72.9710110  67.5986020
  93.7779130  63.0624750  70.4841050  93.0731300  63.4506460  69.9656160
  94.0437050  63.7575040  71.0861980  91.3403840  72.6033510  68.9552440
  90.6567360  73.2732620  68.9469110  91.8798130  72.8014160  68.1897300
  90.1708000  71.1693860  62.7587790  90.0604330  70.2268190  62.8837210
  90.1676250  71.5309500  63.6450550  88.2748020  69.3507480  68.9980230
  88.6916810  69.1367590  68.1633690  88.9987840  69.6080270  69.5688850
  92.2210120  67.7494700  69.0896470  91.3928750  67.8187790  68.6146600
  92.8160600  68.3349010  68.6212300  87.9190270  67.5966290  59.6258280
  88.3583550  66.7588720  59.4796100  88.6318690  68.2295690  59.7122420
  75.6574920  69.3884040  68.2045300  75.7355340  69.5232810  67.2601020
  76.2716600  68.6799930  68.3973420  92.7108700  63.5880600  73.9173460
  92.0952970  64.0960270  73.3888920  92.3905120  62.6878930  73.8599400
  90.5139700  68.8961170  67.0921640  91.2338820  69.3916460  66.7017750
  90.3121520  68.2179060  66.4475510  92.0386440  68.4298140  72.0763020
  91.3134630  69.0226920  71.8792410  92.5661900  68.4221680  71.2776390
  91.9899550  72.8272880  61.7275180  91.3475710  72.1728500  62.0018900
  91.6030210  73.2327970  60.9515850  86.5341210  71.4340720  68.5412390
  87.1763440  70.7333880  68.6544560  87.0590560  72.2139160  68.3609280
  89.9613180  69.6361280  59.9265690  89.6734880  70.0973970  60.7143570
  90.7565350  69.1759050  60.1949910  76.1454820  74.0111060  73.5138390
  76.2545940  73.0705800  73.3733780  75.4935380  74.2765810  72.8652120
  78.2913260  75.0779970  75.3258000  79.0925990  75.3992020  75.7393400
  77.7765080  74.7175550  76.0477910  92.5740470  68.4296760  60.4096580
  93.3359380  68.9993410  60.5156270  92.5894840  67.8623960  61.1804890
  92.6259640  68.7231130  57.5669100  92.9008480  69.6310010  57.4388320
  92.4370380  68.6593660  58.5031090  91.9124600  65.8071640  72.1938050
  91.6810690  65.5784390  71.2936000  92.1729150  66.7271190  72.1482940
  91.9765660  64.9697480  69.3825320  91.0268370  64.9361020  69.4970310
  92.1578670  65.8797590  69.1475090  90.6210250  75.4202040  64.1937100
  91.2169320  75.0986610  63.5171520  90.8788400  74.9473860  64.9850370
  78.3660850  74.7982200  71.4625510  77.7721170  74.6666900  72.2015550
  78.3584690  73.9620340  70.9967610  77.9973080  72.1640580  70.4133550
  77.2707140  71.5445870  70.3459500  78.0582230  72.5581190  69.5431630
  81.6018180  74.3785580  67.1982960  82.1183200  73.7672940  66.6731220
  82.2515560  74.8814360  67.6893970  93.7779130  63.0624750  51.7097560
  93.0731300  63.4506460  51.1912670  94.0437050  63.7575040  52.3118490
  75.7158590  70.3293960  41.1461160  75.3386570  70.8181060  40.4146060
  75.9731660  71.0019240  41.7767690  91.3403840  72.6033510  50.1808950
  90.6567360  73.2732620  50.1725620  91.8798130  72.8014160  49.4153810
  92.7927980  62.4313170  48.3090680  91.8452890  62.4652150  48.4406110
  93.1177970  63.2452120  48.6940040  88.8762580  74.4477640  48.8954130
  88.8889740  74.0439930  48.0276390  88.3237800  75.2224930  48.7915560
  92.2210120  67.7494700  50.3152980  91.3928750  67.8187790  49.8403110
  92.8160600  68.3349010  49.8468810  89.8752230  74.5823350  51.9488830
  89.3982790  75.3895540  51.7561440  89.1914020  73.9301680  52.1015040
  91.5007410  58.8509100  39.1655830  91.1880070  58.9435930  40.0654900
  92.2619880  59.4290130  39.1153260  78.0189550  66.2168900  43.6233170
  77.8987150  66.9430990  43.0114440  77.7090440  65.4471810  43.1461080
  92.8584690  71.5348140  54.1780230  92.9847750  71.2960020  53.2597410
  92.9006070  70.7032680  54.6502310  88.6955830  75.5231480  42.1759040
  88.5356970  75.2334420  43.0740870  88.5302540  74.7471610  41.6404270
  88.3981960  73.0319040  40.7357040  87.7047120  73.0296330  40.0759320
  89.1404820  72.6078360  40.3051210  87.9631890  74.6581750  44.8105530
  88.4188840  73.8771130  45.1244150  88.3024410  75.3688570  45.3546710
  75.3364460  63.8585370  38.7964940  75.2539130  64.8016130  38.9379930
  74.9847520  63.7160280  37.9177290  82.2104240  65.9037620  40.2525350
  81.6421140  65.4555870  39.6261260  82.9193240  66.2630400  39.7190500
  85.9749640  60.2899130  42.4607540  85.1614250  59.7912300  42.3852850
  85.7811590  61.1297380  42.0443890  92.0386440  68.4298140  53.3019530
  91.3134630  69.0226920  53.1048920  92.5661900  68.4221680  52.5032900
  91.9899550  72.8272880  42.9531690  91.3475710  72.1728500  43.2275410
  91.6030210  73.2327970  42.1772360  75.7941710  66.5328820  39.6990870
  76.6636560  66.8153620  39.9826790  75.3032030  67.3464690  39.5839680
  90.3796930  71.7189340  39.4908040  90.1534510  71.0019780  40.0832680
  89.9893130  71.4701780  38.6529790  77.7788220  68.3502290  41.8272930
  77.1716170  69.0901190  41.8368230  78.2537570  68.4401650  41.0011130
  90.7183040  61.4710050  42.3117380  90.0896200  61.5755720  41.5975610
  90.2234960  61.6906830  43.1011260  85.1641180  73.1915640  39.7451360
  85.2653160  72.9879630  38.8153340  84.2642920  72.9373920  39.9499140
  79.7893510  68.3113440  39.5761500  80.5556780  68.1994800  40.1386930
  79.8668200  67.6151410  38.9238270  78.4840270  65.7438510  40.2594390
  78.5643860  64.7966020  40.3711790  79.3760020  66.0745390  40.3655050
  91.8137450  73.8002690  47.6911800  91.9384870  74.6233860  48.1635610
  92.6803010  73.5893420  47.3435950  82.3957290  75.0664210  39.1854500
  83.1885900  75.3553040  38.7336290  81.8761640  74.6356380  38.5066980
  91.4487460  74.2934340  40.6091240  91.1628970  73.8799480  39.7945420
  91.2507010  75.2222050  40.4891760  82.9134690  70.2867620  39.0496850
  82.8085330  69.6719970  39.7758230  82.7458910  69.7633510  38.2659860
  90.2072360  70.7029750  55.5861100  90.9481830  71.0405510  55.0828560
  89.4445040  70.8721810  55.0330870  84.3340180  67.3316180  38.7981240
  84.8545840  66.6165200  38.4322390  84.9808580  67.9702050  39.0981750
  80.7171440  64.3811800  38.4962300  80.5160500  63.5179160  38.8575640
  80.5463490  64.2945160  37.5583900  88.1959750  59.1920030  41.0249180
  88.4762040  58.3487930  41.3808600  87.4225480  59.4243140  41.5387930
  79.5154240  61.4812420  38.4840180  79.8180140  61.4879850  37.5759330
  80.2548830  61.1310280  38.9807840  82.7339170  60.4247040  39.4696380
  82.3861170  59.7471030  38.8898830  82.9351940  59.9636550  40.2839770
  84.8988210  75.4127790  41.0882980  85.7939000  75.7512760  41.1101740
  84.9305840  74.6907200  40.4607260  78.5384370  70.7854840  39.3169980
  78.9759240  71.3284510  39.9727560  79.0232100  69.9601790  39.3266320
  91.8782560  73.9431460  53.7949180  91.2784550  74.0024020  53.0513100
  92.0076460  73.0036440  53.9246030  93.1184010  71.6849280  39.1318890
  92.2876970  71.7525930  39.6026120  93.2955840  72.5753400  38.8285750
  93.5800440  69.2846860  46.4795020  93.9509270  68.5014180  46.0730990
  94.2202370  69.9735960  46.3012320  89.0235250  61.7475980  40.0879240
  89.4420130  61.5606960  39.2475900  88.7171310  60.8955030  40.3982170
  92.5224980  66.6600120  43.7855040  92.1468580  65.8928050  43.3536330
  91.7928100  67.0422820  44.2729970  91.9124600  65.8071640  53.4194560
  91.6810690  65.5784390  52.5192510  92.1729150  66.7271190  53.3739450
  75.2882890  64.1633620  41.8086080  74.3846970  64.4263820  41.6337740
  75.7723510  64.4344790  41.0286040  91.7975940  64.8857610  47.0862280
  92.3213420  64.3920260  46.4552450  92.3835360  65.0207970  47.8309850
  91.9765660  64.9697480  50.6081830  91.0268370  64.9361020  50.7226820
  92.1578670  65.8797590  50.3731600  77.8310100  63.2199160  39.7180460
  78.5401800  62.7982380  39.2327740  77.1150040  63.2874390  39.0863810
  91.2875910  64.1430960  43.0254690  91.7835030  63.9101830  43.8103570
  91.0891980  63.3042800  42.6092330  92.7163070  62.7791910  45.5592370
  92.6062350  62.6247950  46.4974640  93.4770660  62.2512850  45.3167780
  93.6053340  60.6099830  38.7998510  94.5302650  60.4781010  38.5916800
  93.5829130  60.6892650  39.7534960  90.6210250  75.4202040  45.4193610
  91.2169320  75.0986610  44.7428030  90.8788400  74.9473860  46.2106880
  93.4883010  75.4273920  51.9704600  92.9941290  75.8242790  51.2531730
  92.8796300  74.8023130  52.3641880  91.1722460  76.0697340  49.2491340
  90.7125430  76.8213150  48.8749360  90.5434920  75.3503810  49.1906140
  91.9750330  59.3422610  45.8862870  91.9138730  58.3983830  45.7393890
  92.7542360  59.4502700  46.4316330  91.0904490  58.4935030  41.8544340
  91.2855120  59.3918480  42.1211770  90.3034360  58.2622110  42.3477290
  92.6431100  75.7335740  43.6150900  92.8183290  75.0473480  42.9711820
  91.9452670  76.2582790  43.2227570  80.4858750  76.1230580  41.1686210
  81.2177570  75.8389860  40.6210100  80.7452420  75.8843860  42.0585590
  79.6473540  72.2395310  41.1732540  79.0182420  72.7080410  41.7218370
  79.7621370  71.3944530  41.6078730  87.1023260  66.2900970  27.3233740
  87.0217310  65.3755580  27.0525450  86.6887680  66.7868040  26.6173450
  85.2341300  68.0679990  29.2043010  84.4583400  67.5880430  29.4941580
  85.8854230  67.3885640  29.0299170  77.6599080  63.3401690  23.8661160
  76.7715780  63.6817660  23.7641040  77.9440270  63.1402010  22.9741990
  75.6232090  65.9407340  29.7500860  76.1948200  65.1729540  29.7504500
  75.6233630  66.2396100  28.8407470  85.4812040  74.7598190  27.6046130
  84.8623480  75.2155690  27.0340570  86.3363820  74.9149650  27.2035830
  84.6750290  70.7437180  29.2113170  84.6058570  69.8027120  29.0502300
  85.4370150  70.8338590  29.7835740  76.8656960  61.3491700  31.5369790
  76.6859800  60.4517450  31.8172550  76.4637040  61.8963570  32.2116740
  79.8360470  61.9233190  24.8999540  79.9427220  62.8236920  25.2068300
  78.9252830  61.8751160  24.6094190  93.7779130  63.0624750  32.9354070
  93.0731300  63.4506460  32.4169180  94.0437050  63.7575040  33.5375000
  89.7241060  62.9858380  29.1437980  89.0196630  63.2743270  29.7241090
  90.0853220  63.7958490  28.7837540  79.6419630  61.2428080  31.5058590
  79.9836440  62.0870130  31.2112460  78.7035440  61.3911820  31.6223930
  92.7927980  62.4313170  29.5347190  91.8452890  62.4652150  29.6662620
  93.1177970  63.2452120  29.9196550  88.8762580  74.4477640  30.1210640
  88.8889740  74.0439930  29.2532900  88.3237800  75.2224930  30.0172070
  88.2748020  69.3507480  31.4493250  88.6916810  69.1367590  30.6146710
  88.9987840  69.6080270  32.0201870  85.7128280  66.7959180  24.5663300
  84.7857560  66.7296560  24.7951770  85.8653100  67.7339310  24.4518540
  85.6997360  63.0676180  21.5630460  84.7601030  63.2290140  21.6482920
  86.0180620  63.7861860  21.0166450  92.2210120  67.7494700  31.5409490
  91.3928750  67.8187790  31.0659620  92.8160600  68.3349010  31.0725320
  89.1852130  64.5364020  32.4864360  88.7723310  65.3617730  32.7404350
  88.4528080  63.9509060  32.2940720  89.8752230  74.5823350  33.1745340
  89.3982790  75.3895540  32.9817950  89.1914020  73.9301680  33.3271550
  86.0285650  72.5362360  26.0452540  86.4681560  73.2786690  25.6307930
  85.9672540  72.7788930  26.9691500  78.0189550  66.2168900  24.8489680
  77.8987150  66.9430990  24.2370950  77.7090440  65.4471810  24.3717590
  93.4551440  74.3435290  38.2436730  93.9311160  74.8218180  38.9225810
  94.0758600  74.2752780  37.5182230  86.7201430  75.2376140  33.9731550
  87.2346100  75.1484150  34.7753980  85.8770510  75.5835840  34.2659460
  81.1744210  75.3030010  25.1787170  80.9986690  74.3865550  24.9654970
  80.3199950  75.6617300  25.4184970  84.7723020  62.4272490  33.8348670
  84.3102390  62.6355510  34.6468610  84.3701130  61.6131840  33.5319340
  89.7727530  63.6481440  34.9645330  88.9221120  63.3487190  35.2854400
  89.6129320  63.8923450  34.0529150  86.8677240  65.1483190  37.0644120
  87.1930650  64.3146940  36.7246350  87.6557570  65.6711710  37.2122450
  80.2767430  64.6837540  25.9594600  80.0508350  64.4674710  26.8641220
  79.4959960  65.1166000  25.6140570  82.7166640  65.5823120  36.6254870
  82.6210240  64.6417850  36.4755270  83.5598620  65.8038190  36.2302940
  77.8477180  61.9936790  34.7788650  77.4540570  62.8412000  34.9861430
  77.1595580  61.3563160  34.9697290  84.4222230  62.0771760  37.8485390
  83.7320550  61.8843960  38.4831480  85.1654530  62.3606400  38.3809690
  75.3364460  63.8585370  20.0221450  75.2539130  64.8016130  20.1636440
  74.9847520  63.7160280  19.1433800  86.6985200  65.9170200  30.6839310
  85.9666320  66.4257010  31.0329410  86.3009540  65.1000180  30.3828090
  78.9864970  62.4750890  28.0486010  78.6465020  62.9526120  28.8053060
  78.2242290  62.0216010  27.6887110  82.2104240  65.9037620  21.4781860
  81.6421140  65.4555870  20.8517770  82.9193240  66.2630400  20.9447010
  90.5881860  58.7836060  35.9348630  90.9127630  58.0525720  36.4606610
  90.6238370  58.4649700  35.0329620  77.2873420  69.8049640  35.3548590
  76.9028210  69.1643310  35.9531550  77.5985610  70.5085760  35.9243320
  79.7551720  69.8995810  23.7508270  78.9813980  69.3593430  23.5906990
  80.4846350  69.3802420  23.4126030  84.6858620  70.8342470  22.6614380
  85.0274320  71.5784700  22.1657700  83.8571330  71.1473590  23.0239210
  77.2833660  66.5337560  34.3012780  76.9248600  67.1991410  34.8886120
  76.9888220  65.7021110  34.6725400  80.4846780  66.9921800  37.1852330
  80.1846920  67.1378980  36.2880150  81.2558020  66.4327090  37.0925720
  91.9899550  72.8272880  24.1788200  91.3475710  72.1728500  24.4531920
  91.6030210  73.2327970  23.4028870  83.6549310  70.9156000  25.4330300
  84.3420440  71.4625210  25.8137890  82.8681730  71.4596730  25.4679910
  82.9576520  67.9202030  25.0455660  83.4139300  68.7307280  25.2715850
  82.6064730  67.6025170  25.8774150  90.3796930  71.7189340  20.7164550
  90.1534510  71.0019780  21.3089190  89.9893130  71.4701780  19.8786300
  88.3078830  72.2335620  34.1961470  88.6435070  72.8202310  34.8739390
  87.3879170  72.1028330  34.4259260  76.1454820  74.0111060  35.9651410
  76.2545940  73.0705800  35.8246800  75.4935380  74.2765810  35.3165140
  82.1781580  73.1287400  22.3082680  82.1691680  73.8617090  21.6927190
  81.2579940  72.8818980  22.4009640  77.7788220  68.3502290  23.0529440
  77.1716170  69.0901190  23.0624740  78.2537570  68.4401650  22.2267640
  87.3521010  62.5153110  32.7286330  87.7201830  61.6948320  33.0565900
  86.4919210  62.5755000  33.1441980  91.5189860  61.3860660  33.7952690
  91.0163460  62.1266060  34.1346500  92.3346520  61.7744660  33.4789480
  79.7893510  68.3113440  20.8018010  80.5556780  68.1994800  21.3643440
  79.8668200  67.6151410  20.1494780  78.4840270  65.7438510  21.4850900
  78.5643860  64.7966020  21.5968300  79.3760020  66.0745390  21.5911560
  76.1700460  71.9607470  24.4626950  75.2440240  72.2028610  24.4532360
  76.6356890  72.7881730  24.3411700  78.2913260  75.0779970  37.7771020
  79.0925990  75.3992020  38.1906420  77.7765080  74.7175550  38.4990930
  87.1277890  71.1859840  37.7246430  86.5216050  71.2091440  36.9842180
  86.8232000  70.4542880  38.2613680  88.5578260  74.9140130  36.3355840
  89.5100010  74.8298150  36.2856080  88.4106480  75.5781840  37.0089630
  91.4487460  74.2934340  21.8347750  91.1628970  73.8799480  21.0201930
  91.2507010  75.2222050  21.7148270  76.0111070  67.5653430  36.7207070
  76.5150090  66.9860710  37.2923300  75.2718490  67.8493660  37.2583440
  82.9134690  70.2867620  20.2753360  82.8085330  69.6719970  21.0014740
  82.7458910  69.7633510  19.4916370  86.1537420  69.3487650  20.8795350
  85.6047520  69.7956950  21.5238090  86.7756680  68.8436900  21.4033020
  90.2072360  70.7029750  36.8117610  90.9481830  71.0405510  36.3085070
  89.4445040  70.8721810  36.2587380  78.0434150  65.7083020  37.6157140
  78.0839490  65.4096890  38.5242370  78.8979650  66.1090630  37.4564660
  81.8212540  68.3078570  22.7760650  82.2428960  68.1418440  23.6192040
  81.9463380  67.4978800  22.2815790  79.9839960  64.2875120  35.5831630
  79.4536420  63.7966070  34.9554970  80.6528030  64.7159320  35.0489560
  84.3340180  67.3316180  20.0237750  84.8545840  66.6165200  19.6578900
  84.9808580  67.9702050  20.3238260  88.8818020  68.7544580  35.3472820
  89.2959040  68.9089660  36.1963240  87.9469020  68.8799800  35.5098600
  83.2373700  59.8110730  32.6956310  82.7891000  59.8334990  31.8501860
  82.6038900  59.4129750  33.2926610  85.9797150  66.4381240  34.7006590
  86.0993360  65.8422380  35.4401430  86.8391150  66.4750930  34.2807890
  88.3185050  66.9918430  33.2769100  87.7920270  67.5161050  32.6734240
  88.6616390  67.6245820  33.9078830  82.7465920  62.9802590  35.9582410
  83.3365610  62.6718440  36.6460230  81.9286160  62.5082340  36.1142310
  87.5659350  62.5968400  36.1915430  86.8774870  61.9349940  36.1265420
  88.2865370  62.1506670  36.6363890  84.3502880  76.2469280  34.6913130
  84.2761580  77.1504420  34.9985500  83.4481720  75.9281180  34.6635200
  78.5384370  70.7854840  20.5426490  78.9759240  71.3284510  21.1984070
  79.0232100  69.9601790  20.5522830  80.3492090  71.9052880  25.6548720
  80.0487630  71.7817850  26.5552630  80.2429580  71.0461470  25.2464450
  91.8782560  73.9431460  35.0205690  91.2784550  74.0024020  34.2769610
  92.0076460  73.0036440  35.1502540  93.1184010  71.6849280  20.3575400
  92.2876970  71.7525930  20.8282630  93.2955840  72.5753400  20.0542260
  76.0744810  66.9534690  27.0917260  75.4193650  66.6846330  26.4476960
  76.9122760  66.8439170  26.6419240  90.5634200  70.6683440  33.1181850
  89.7494040  71.0980600  33.3807640  90.9708400  71.2801850  32.5050900
  76.6636740  64.2496350  35.5379020  75.7692790  64.2163110  35.8772730
  77.2034290  64.4483140  36.3030270  90.3512670  61.0328070  37.4230770
  91.2282850  61.0411470  37.8064770  90.3633510  60.2958910  36.8123120
  91.9765660  64.9697480  31.8338340  91.0268370  64.9361020  31.9483330
  92.1578670  65.8797590  31.5988110  77.8310100  63.2199160  20.9436970
  78.5401800  62.7982380  20.4584250  77.1150040  63.2874390  20.3120320
  77.1676450  58.5244680  29.8862240  77.8152640  57.9742060  29.4457400
  77.5878290  58.7787830  30.7078050  91.0628790  58.7186040  33.2431880
  91.7001010  59.3320180  33.6091070  91.2103680  58.7546700  32.2981110
  78.5272820  71.8519950  36.7940750  78.4842450  71.4812860  37.6755210
  78.6583830  72.7897520  36.9342570  84.4333270  59.8712230  36.1506980
  84.3722160  60.4634060  36.9002390  85.3733650  59.7638190  36.0057240
  87.0707830  59.5282290  35.7899270  87.6848240  59.8461580  35.1280350
  87.6157390  59.0430880  36.4095130  78.3660850  74.7982200  33.9138530
  77.7721170  74.6666900  34.6528570  78.3584690  73.9620340  33.4480630
  88.7187850  60.2985300  33.5010280  88.3901210  59.4837060  33.1212010
  89.6670150  60.2555110  33.3775970  91.1722460  76.0697340  30.4747850
  90.7125430  76.8213150  30.1005870  90.5434920  75.3503810  30.4162650
  84.3413680  75.2694070  30.4764960  84.6291490  75.0148370  29.5997970
  84.8536900  74.7171430  31.0670530  90.1111760  59.7107370  29.1010560
  90.5519850  59.6552470  28.2532160  89.8419350  60.6265380  29.1720740
  91.9750330  59.3422610  27.1119380  91.9138730  58.3983830  26.9650400
  92.7542360  59.4502700  27.6572840  76.2803080  75.4814970  26.0743330
  76.1125120  74.8485650  26.7725220  75.4137590  75.6874370  25.7237520
  77.8865780  74.1748200  23.5193470  77.3613400  74.5556230  22.8155430
  77.8110360  74.7998970  24.2403180  84.4086040  76.1910170  37.8433160
  85.3353350  75.9554440  37.8869120  84.3936470  77.0182170  37.3619190
  92.6431100  75.7335740  24.8407410  92.8183290  75.0473480  24.1968330
  91.9452670  76.2582790  24.4484080  79.6473540  72.2395310  22.3989050
  79.0182420  72.7080410  22.9474880  79.7621370  71.3944530  22.8335240
  88.1965110  58.2708500  38.1855510  88.0830560  58.5903110  39.0807030
  89.0134850  58.6721010  37.8892790  90.9763600  75.4180030  37.6674200
  91.7688920  74.9229260  37.4600160  91.2696750  76.0970170  38.2749810
  87.1023260  66.2900970   8.5490250  87.0217310  65.3755580   8.2781960
  86.6887680  66.7868040   7.8429960  85.2341300  68.0679990  10.4299520
  84.4583400  67.5880430  10.7198090  85.8854230  67.3885640  10.2555680
  79.2507130  68.3799800  11.3075280  78.4192010  68.1248510  11.7071790
  79.8588110  68.4510570  12.0433200  89.2548730  72.4740180   9.2098650
  88.7930260  71.7027420   9.5385820  90.0674280  72.5006250   9.7151100
  79.2308390  72.4139890  11.5033300  79.5336430  71.5237630  11.3243520
  79.9751980  72.9710110  11.2755550  77.6599080  63.3401690   5.0917670
  76.7715780  63.6817660   4.9897550  77.9440270  63.1402010   4.1998500
  75.6232090  65.9407340  10.9757370  76.1948200  65.1729540  10.9761010
  75.6233630  66.2396100  10.0663980  85.4812040  74.7598190   8.8302640
  84.8623480  75.2155690   8.2597080  86.3363820  74.9149650   8.4292340
  84.6750290  70.7437180  10.4369680  84.6058570  69.8027120  10.2758810
  85.4370150  70.8338590  11.0092250  85.7055460  63.5507560  10.6638610
  86.0820280  62.6779440  10.5512280  85.6074970  63.8866260   9.7729050
  79.8360470  61.9233190   6.1256050  79.9427220  62.8236920   6.4324810
  78.9252830  61.8751160   5.8350700  89.4879580  61.0458000   7.5966950
  90.3089200  60.5554570   7.6392430  89.5213660  61.6355660   8.3498790
  77.4843630  63.8452200  11.3708640  78.1653740  64.1090570  11.9896040
  77.1691680  63.0053070  11.7046650  81.6768200  64.8919560  10.4581230
  82.1846420  65.3900530  11.0986250  82.2081440  64.1154760  10.2820590
  93.7779130  63.0624750  14.1610580  93.0731300  63.4506460  13.6425690
  94.0437050  63.7575040  14.7631510  86.3475390  69.6437430   6.2234550
  85.7292660  70.1086880   5.6597270  86.8598640  70.3364910   6.6404060
  81.2107150  69.1713300  12.9018150  80.8776530  69.7982220  13.5439220
  81.3873830  69.6975180  12.1219820  89.7241060  62.9858380  10.3694490
  89.0196630  63.2743270  10.9497600  90.0853220  63.7958490  10.0094050
  80.4226250  71.1394100  14.7167330  81.0400250  71.8145180  14.4351780
  79.5619370  71.5482080  14.6254830  75.7158590  70.3293960   3.5974180
  75.3386570  70.8181060   2.8659080  75.9731660  71.0019240   4.2280710
  92.7927980  62.4313170  10.7603700  91.8452890  62.4652150  10.8919130
  93.1177970  63.2452120  11.1453060  83.3247520  58.7310350   9.0559690
  83.6322500  58.1757240   8.3395190  82.3948220  58.8654810   8.8732680
  88.8762580  74.4477640  11.3467150  88.8889740  74.0439930  10.4789410
  88.3237800  75.2224930  11.2428580  90.1708000  71.1693860   6.4357320
  90.0604330  70.2268190   6.5606740  90.1676250  71.5309500   7.3220080
  88.2748020  69.3507480  12.6749760  88.6916810  69.1367590  11.8403220
  88.9987840  69.6080270  13.2458380  85.7128280  66.7959180   5.7919810
  84.7857560  66.7296560   6.0208280  85.8653100  67.7339310   5.6775050
  85.6997360  63.0676180   2.7886970  84.7601030  63.2290140   2.8739430
  86.0180620  63.7861860   2.2422960  89.7425570  68.3579480   6.2955060
  89.1237990  68.0199030   5.6481360  89.7250020  67.7139240   7.0034250
  89.1852130  64.5364020  13.7120870  88.7723310  65.3617730  13.9660860
  88.4528080  63.9509060  13.5197230  81.3184920  67.3223920   8.5739540
  80.9141920  66.6101170   8.0785440  81.4048040  66.9777160   9.4627580
  81.7866620  71.0091480  10.7378750  81.4894910  70.4036950  10.0586530
  82.7366440  71.0468790  10.6268110  89.8752230  74.5823350  14.4001850
  89.3982790  75.3895540  14.2074460  89.1914020  73.9301680  14.5528060
  80.8785050  70.7473170  17.3886550  79.9813580  70.9713140  17.6359950
  80.9037920  70.8708110  16.4397950  87.9190270  67.5966290   3.3027810
  88.3583550  66.7588720   3.1565630  88.6318690  68.2295690   3.3891950
  79.7056270  67.6186490  15.9643920  79.5664040  68.4909290  16.3331320
  78.8237630  67.2759300  15.8191860  86.0285650  72.5362360   7.2709050
  86.4681560  73.2786690   6.8564440  85.9672540  72.7788930   8.1948010
  81.5036620  73.5608190  18.1729070  81.4752050  73.9651140  17.3057500
  81.3401590  72.6318550  18.0100670  78.0189550  66.2168900   6.0746190
  77.8987150  66.9430990   5.4627460  77.7090440  65.4471810   5.5974100
  93.4551440  74.3435290  19.4693240  93.9311160  74.8218180  20.1482320
  94.0758600  74.2752780  18.7438740  75.6574920  69.3884040  11.8814830
  75.7355340  69.5232810  10.9370550  76.2716600  68.6799930  12.0742950
  76.9022550  71.0884230   8.2921010  76.4950630  71.2298820   7.4374610
  77.7935560  70.8044390   8.0892220  86.7201430  75.2376140  15.1988060
  87.2346100  75.1484150  16.0010490  85.8770510  75.5835840  15.4915970
  88.6955830  75.5231480   4.6272060  88.5356970  75.2334420   5.5253890
  88.5302540  74.7471610   4.0917290  81.1744210  75.3030010   6.4043680
  80.9986690  74.3865550   6.1911480  80.3199950  75.6617300   6.6441480
  88.3981960  73.0319040   3.1870060  87.7047120  73.0296330   2.5272340
  89.1404820  72.6078360   2.7564230  87.9631890  74.6581750   7.2618550
  88.4188840  73.8771130   7.5757170  88.3024410  75.3688570   7.8059730
  92.7108700  63.5880600  17.5942990  92.0952970  64.0960270  17.0658450
  92.3905120  62.6878930  17.5368930  80.4853210  59.5603970   9.4569860
  80.0421360  60.3413510   9.1254380  81.0438200  59.8833860  10.1640800
  84.7723020  62.4272490  15.0605180  84.3102390  62.6355510  15.8725120
  84.3701130  61.6131840  14.7575850  89.7727530  63.6481440  16.1901840
  88.9221120  63.3487190  16.5110910  89.6129320  63.8923450  15.2785660
  86.8677240  65.1483190  18.2900630  87.1930650  64.3146940  17.9502860
  87.6557570  65.6711710  18.4378960  83.6012030  59.1814670   4.3375690
  82.9766210  59.1774540   5.0629000  83.5142150  58.3145630   3.9411660
  82.5229110  60.1051300  11.3159460  82.8201440  61.0114130  11.2351480
  83.0714670  59.6170080  10.7019030  80.2767430  64.6837540   7.1851110
  80.0508350  64.4674710   8.0897730  79.4959960  65.1166000   6.8397080
  87.5065190  64.6900910   5.7841760  86.9074080  65.4136710   5.6005380
  88.0544800  64.6277690   5.0018210  82.7166640  65.5823120  17.8511380
  82.6210240  64.6417850  17.7011780  83.5598620  65.8038190  17.4559450
  86.1130060  63.3264450   7.8145040  86.5059630  63.6436650   7.0013730
  86.4746910  62.4476330   7.9289560  75.1494230  59.9165250  10.0375240
  74.8607280  60.4868110  10.7500220  75.8939990  59.4369700  10.4006470
  86.6985200  65.9170200  11.9095820  85.9666320  66.4257010  12.2585920
  86.3009540  65.1000180  11.6084600  83.1362590  62.5924400  10.3148310
  83.1398650  62.1514350   9.4652850  84.0313710  62.9141730  10.4220130
  78.9864970  62.4750890   9.2742520  78.6465020  62.9526120  10.0309570
  78.2242290  62.0216010   8.9143620  83.1982740  63.5936480   3.3055070
  83.3195560  63.5522960   4.2540890  82.8131250  64.4560630   3.1501800
  87.1611110  61.3703880  11.3218760  87.1783850  61.8212530  12.1660610
  86.9126690  60.4709520  11.5352200  82.2104240  65.9037620   2.7038370
  81.6421140  65.4555870   2.0774280  82.9193240  66.2630400   2.1703520
  90.5881860  58.7836060  17.1605140  90.9127630  58.0525720  17.6863120
  90.6238370  58.4649700  16.2586130  83.4370560  66.6526180  12.0613720
  83.8040690  66.1784750  12.8075060  83.2475620  67.5267750  12.4022060
  76.3011050  61.3969870   8.1907190  76.0157970  61.0325540   9.0285810
  76.2389910  60.6650330   7.5770330  81.2269930  65.6934820  14.3797930
  80.9227000  66.5726800  14.6048290  82.1816390  65.7534610  14.4155370
  79.7551720  69.8995810   4.9764780  78.9813980  69.3593430   4.8163500
  80.4846350  69.3802420   4.6382540  85.9749640  60.2899130   4.9120560
  85.1614250  59.7912300   4.8365870  85.7811590  61.1297380   4.4956910
  85.8958500  68.9670230  16.6560170  85.8295810  68.0465900  16.4017760
  85.2663640  69.0645670  17.3704810  88.6898030  64.6618780   3.2082720
  89.5777650  64.9736010   3.0334060  88.6603120  63.7891030   2.8163300
  79.7989120  69.5676190   8.6143590  80.3167790  68.7644450   8.5600480
  79.3473140  69.5055330   9.4560420  84.6858620  70.8342470   3.8870890
  85.0274320  71.5784700   3.3914210  83.8571330  71.1473590   4.2495720
  77.2833660  66.5337560  15.5269290  76.9248600  67.1991410  16.1142630
  76.9888220  65.7021110  15.8981910  80.4846780  66.9921800  18.4108840
  80.1846920  67.1378980  17.5136660  81.2558020  66.4327090  18.3182230
  85.8275230  71.7890800  16.4063970  85.8419770  70.8571760  16.1882880
  85.1200330  71.8750560  17.0453740  90.9612300  65.9730620   2.6762580
  90.8776020  66.4044840   1.8259020  91.6806490  66.4328970   3.1089400
  91.9899550  72.8272880   5.4044710  91.3475710  72.1728500   5.6788430
  91.6030210  73.2327970   4.6285380  87.5686030  70.1558310   9.2516400
  87.9209850  69.5586440   8.5917770  86.6848360  69.8302540   9.4224650
  83.6549310  70.9156000   6.6586810  84.3420440  71.4625210   7.0394400
  82.8681730  71.4596730   6.6936420  75.7941710  66.5328820   2.1503890
  76.6636560  66.8153620   2.4339810  75.3032030  67.3464690   2.0352700
  82.9576520  67.9202030   6.2712170  83.4139300  68.7307280   6.4972360
  82.6064730  67.6025170   7.1030660  85.2609130  73.4308370  13.5004470
  85.9051350  73.6367750  14.1777890  85.6238570  72.6696770  13.0475320
  78.8588300  58.2639680   6.7434690  78.7302930  58.2557580   7.6919610
  78.0350320  58.6022770   6.3925700  86.5341210  71.4340720  12.2181920
  87.1763440  70.7333880  12.3314090  87.0590560  72.2139160  12.0378810
  88.3078830  72.2335620  15.4217980  88.6435070  72.8202310  16.0995900
  87.3879170  72.1028330  15.6515770  76.1612960  75.7456200   2.7165520
  76.5210600  76.3445540   2.0622790  76.0205300  76.2916090   3.4900550
  89.9613180  69.6361280   3.6035220  89.6734880  70.0973970   4.3913100
  90.7565350  69.1759050   3.8719440  76.1454820  74.0111060  17.1907920
  76.2545940  73.0705800  17.0503310  75.4935380  74.2765810  16.5421650
  84.1367410  72.2826950  18.5906040  83.8164280  71.5636190  19.1351730
  83.4625770  72.9582020  18.6642100  82.1781580  73.1287400   3.5339190
  82.1691680  73.8617090   2.9183700  81.2579940  72.8818980   3.6266150
  77.7788220  68.3502290   4.2785950  77.1716170  69.0901190   4.2881250
  78.2537570  68.4401650   3.4524150  87.3521010  62.5153110  13.9542840
  87.7201830  61.6948320  14.2822410  86.4919210  62.5755000  14.3698490
  90.7183040  61.4710050   4.7630400  90.0896200  61.5755720   4.0488630
  90.2234960  61.6906830   5.5524280  82.6867070  63.7496000   6.1788280
  81.9783220  64.2182340   6.6201890  82.9711550  63.0918010   6.8133470
  84.3123000  65.1692700  14.1780810  84.8108250  65.6438520  14.8432660
  84.4545950  64.2456220  14.3850840  86.7182500  60.4746660   7.6184070
  86.5950280  60.4932790   6.6693580  87.6667060  60.5225600   7.7382470
  83.8059290  75.7101960   6.8912050  84.0600790  75.6723350   5.9691420
  82.8571770  75.5835290   6.8840300  80.8902090  62.0581080   3.5538990
  81.7392620  62.4951230   3.4879180  80.5233360  62.3701340   4.3811050
  91.5189860  61.3860660  15.0209200  91.0163460  62.1266060  15.3603010
  92.3346520  61.7744660  14.7045990  89.8111870  66.6293840   8.4670560
  88.8702010  66.6444070   8.6418250  90.1255940  65.8429800   8.9130860
  78.4840270  65.7438510   2.7107410  78.5643860  64.7966020   2.8224810
  79.3760020  66.0745390   2.8168070  91.8137450  73.8002690  10.1424820
  91.9384870  74.6233860  10.6148630  92.6803010  73.5893420   9.7948970
  79.2854980  75.8933900   9.8141950  80.0217460  75.3449360  10.0850520
  79.6695900  76.7589910   9.6747940  76.1700460  71.9607470   5.6883460
  75.2440240  72.2028610   5.6788870  76.6356890  72.7881730   5.5668210
  87.1277890  71.1859840  18.9502940  86.5216050  71.2091440  18.2098690
  86.8232000  70.4542880  19.4870190  88.5578260  74.9140130  17.5612350
  89.5100010  74.8298150  17.5112590  88.4106480  75.5781840  18.2346140
  91.4487460  74.2934340   3.0604260  91.1628970  73.8799480   2.2458440
  91.2507010  75.2222050   2.9404780  83.0649010  68.9724420  17.4799100
  82.2994680  69.5409420  17.3953770  83.2464970  68.6800630  16.5867330
  86.1537420  69.3487650   2.1051860  85.6047520  69.7956950   2.7494600
  86.7756680  68.8436900   2.6289530  78.0434150  65.7083020  18.8413650
  78.0839490  65.4096890  19.7498880  78.8979650  66.1090630  18.6821170
  81.8212540  68.3078570   4.0017160  82.2428960  68.1418440   4.8448550
  81.9463380  67.4978800   3.5072300  89.3540190  66.0940740  18.5768480
  89.9360960  65.3393060  18.4888960  89.5301960  66.6248180  17.7999960
  83.2373700  59.8110730  13.9212820  82.7891000  59.8334990  13.0758370
  82.6038900  59.4129750  14.5183120  83.6433250  68.7065060  14.5425260
  84.0621360  69.5497790  14.3701500  82.7241880  68.8437100  14.3132040
  85.9797150  66.4381240  15.9263100  86.0993360  65.8422380  16.6657940
  86.8391150  66.4750930  15.5064400  88.3185050  66.9918430  14.5025610
  87.7920270  67.5161050  13.8990750  88.6616390  67.6245820  15.1335340
  81.4940670  75.0118070  15.6582990  80.9561760  75.7364130  15.3391690
  81.7474630  74.5348410  14.8680330  87.5659350  62.5968400  17.4171940
  86.8774870  61.9349940  17.3521930  88.2865370  62.1506670  17.8620400
  88.1959750  59.1920030   3.4762200  88.4762040  58.3487930   3.8321620
  87.4225480  59.4243140   3.9900950  84.3502880  76.2469280  15.9169640
  84.2761580  77.1504420  16.2242010  83.4481720  75.9281180  15.8891710
  84.8988210  75.4127790   3.5396000  85.7939000  75.7512760   3.5614760
  84.9305840  74.6907200   2.9120280  78.5384370  70.7854840   1.7683000
  78.9759240  71.3284510   2.4240580  79.0232100  69.9601790   1.7779340
  75.7530170  73.5743870   9.2203260  76.0833180  72.7064930   8.9881900
  76.1821170  73.7802390  10.0508220  80.3492090  71.9052880   6.8805230
  80.0487630  71.7817850   7.7809140  80.2429580  71.0461470   6.4720960
  76.2420380  74.4414460  11.9584890  75.8051370  74.6215260  12.7909040
  76.8098060  75.1989080  11.8166610  91.8782560  73.9431460  16.2462200
  91.2784550  74.0024020  15.5026120  92.0076460  73.0036440  16.3759050
  92.5740470  68.4296760   4.0866110  93.3359380  68.9993410   4.1925800
  92.5894840  67.8623960   4.8574420  76.0744810  66.9534690   8.3173770
  75.4193650  66.6846330   7.6733470  76.9122760  66.8439170   7.8675750
  93.5800440  69.2846860   8.9308040  93.9509270  68.5014180   8.5244010
  94.2202370  69.9735960   8.7525340  89.0235250  61.7475980   2.5392260
  89.4420130  61.5606960   1.6988920  88.7171310  60.8955030   2.8495190
  92.5224980  66.6600120   6.2368060  92.1468580  65.8928050   5.8049350
  91.7928100  67.0422820   6.7242990  77.1120740  67.3387260  12.8577110
  77.4793780  67.2514660  13.7373130  76.5431560  66.5753810  12.7583970
  75.2882890  64.1633620   4.2599100  74.3846970  64.4263820   4.0850760
  75.7723510  64.4344790   3.4799060  91.7975940  64.8857610   9.5375300
  92.3213420  64.3920260   8.9065470  92.3835360  65.0207970  10.2822870
  91.2875910  64.1430960   5.4767710  91.7835030  63.9101830   6.2616590
  91.0891980  63.3042800   5.0605350  77.1676450  58.5244680  11.1118750
  77.8152640  57.9742060  10.6713910  77.5878290  58.7787830  11.9334560
  92.7163070  62.7791910   8.0105390  92.6062350  62.6247950   8.9487660
  93.4770660  62.2512850   7.7680800  91.0628790  58.7186040  14.4688390
  91.7001010  59.3320180  14.8347580  91.2103680  58.7546700  13.5237620
  93.6791830  61.3810490   3.8768240  92.8843330  61.3155610   4.4061150
  93.8835110  62.3161130   3.8653590  90.6210250  75.4202040   7.8706630
  91.2169320  75.0986610   7.1941050  90.8788400  74.9473860   8.6619900
  78.5272820  71.8519950  18.0197260  78.4842450  71.4812860  18.9011720
  78.6583830  72.7897520  18.1599080  82.2278850  73.4079540  13.6206980
  81.9870210  73.6754100  12.7337500  83.1681490  73.5785270  13.6757840
  87.0707830  59.5282290  17.0155780  87.6848240  59.8461580  16.3536860
  87.6157390  59.0430880  17.6351640  93.4883010  75.4273920  14.4217620
  92.9941290  75.8242790  13.7044750  92.8796300  74.8023130  14.8154900
  77.5929090  58.2076550  17.1294840  78.1412080  58.0264600  16.3660950
  77.6584400  57.4170660  17.6651150  78.3660850  74.7982200  15.1395040
  77.7721170  74.6666900  15.8785080  78.3584690  73.9620340  14.6737140
  87.8115870  58.0914430  13.3425070  86.9375710  58.4249540  13.1398000
  87.7026620  57.6187610  14.1676940  88.7187850  60.2985300  14.7266790
  88.3901210  59.4837060  14.3468520  89.6670150  60.2555110  14.6032480
  91.1722460  76.0697340  11.7004360  90.7125430  76.8213150  11.3262380
  90.5434920  75.3503810  11.6419160  77.9973080  72.1640580  14.0903080
  77.2707140  71.5445870  14.0229030  78.0582230  72.5581190  13.2201160
  81.6018180  74.3785580  10.8752490  82.1183200  73.7672940  10.3500750
  82.2515560  74.8814360  11.3663500  84.3413680  75.2694070  11.7021470
  84.6291490  75.0148370  10.8254480  84.8536900  74.7171430  12.2927040
  85.5590690  59.0084270  12.2817980  84.7762480  59.4829770  12.5614740
  85.2653620  58.1039100  12.1731160  90.1111760  59.7107370  10.3267070
  90.5519850  59.6552470   9.4788670  89.8419350  60.6265380  10.3977250
  91.9750330  59.3422610   8.3375890  91.9138730  58.3983830   8.1906910
  92.7542360  59.4502700   8.8829350  76.2803080  75.4814970   7.2999840
  76.1125120  74.8485650   7.9981730  75.4137590  75.6874370   6.9494030
  76.9031100  59.3131750   4.8031700  77.6610460  59.4260630   4.2295730
  76.4408270  60.1500950   4.7575130  83.4444910  61.4271020   7.7934010
  82.6319420  61.0527910   7.4529890  83.9486550  60.6716100   8.0955200
  87.9469890  58.0913470   9.0317080  88.5499260  58.6633680   9.5065600
  87.2062880  58.6552910   8.8090980  91.0904490  58.4935030   4.3057360
  91.2855120  59.3918480   4.5724790  90.3034360  58.2622110   4.7990310
  77.8865780  74.1748200   4.7449980  77.3613400  74.5556230   4.0411940
  77.8110360  74.7998970   5.4659690  79.2756250  59.8395800   3.3433670
  79.8049010  59.0525600   3.2141620  79.9084570  60.5186990   3.5769200
  81.4694090  59.5770940   6.3979060  80.8396830  58.8758250   6.5649190
  80.9299230  60.3375070   6.1812220  92.6431100  75.7335740   6.0663920
  92.8183290  75.0473480   5.4224840  91.9452670  76.2582790   5.6740590
  80.4858750  76.1230580   3.6199230  81.2177570  75.8389860   3.0723120
  80.7452420  75.8843860   4.5098610  79.6473540  72.2395310   3.6245560
  79.0182420  72.7080410   4.1731390  79.7621370  71.3944530   4.0591750
  88.1965110  58.2708500  19.4112020  88.0830560  58.5903110  20.3063540
  89.0134850  58.6721010  19.1149300  90.9763600  75.4180030  18.8930710
  91.7688920  74.9229260  18.6856670  91.2696750  76.0970170  19.5006320
  87.1023260  47.5157480 139.9694680  87.0217310  46.6012090 139.6986390
  86.6887680  48.0124550 139.2634390  85.2341300  49.2936500 141.8503950
  84.4583400  48.8136940 142.1402520  85.8854230  48.6142150 141.6760110
  79.2507130  49.6056310 142.7279710  78.4192010  49.3505020 143.1276220
  79.8588110  49.6767080 143.4637630  89.2548730  53.6996690 140.6303080
  88.7930260  52.9283930 140.9590250  90.0674280  53.7262760 141.1355530
  79.2308390  53.6396400 142.9237730  79.5336430  52.7494140 142.7447950
  79.9751980  54.1966620 142.6959980  77.6599080  44.5658200 136.5122100
  76.7715780  44.9074170 136.4101980  77.9440270  44.3658520 135.6202930
  75.6232090  47.1663850 142.3961800  76.1948200  46.3986050 142.3965440
  75.6233630  47.4652610 141.4868410  85.4812040  55.9854700 140.2507070
  84.8623480  56.4412200 139.6801510  86.3363820  56.1406160 139.8496770
  84.6750290  51.9693690 141.8574110  84.6058570  51.0283630 141.6963240
  85.4370150  52.0595100 142.4296680  76.8656960  42.5748210 144.1830730
  76.6859800  41.6773960 144.4633490  76.4637040  43.1220080 144.8577680
  85.7055460  44.7764070 142.0843040  86.0820280  43.9035950 141.9716710
  85.6074970  45.1122770 141.1933480  79.8360470  43.1489700 137.5460480
  79.9427220  44.0493430 137.8529240  78.9252830  43.1007670 137.2555130
  89.4879580  42.2714510 139.0171380  90.3089200  41.7811080 139.0596860
  89.5213660  42.8612170 139.7703220  77.4843630  45.0708710 142.7913070
  78.1653740  45.3347080 143.4100470  77.1691680  44.2309580 143.1251080
  81.6768200  46.1176070 141.8785660  82.1846420  46.6157040 142.5190680
  82.2081440  45.3411270 141.7025020  93.7779130  44.2881260 145.5815010
  93.0731300  44.6762970 145.0630120  94.0437050  44.9831550 146.1835940
  79.9604300  40.7574630 146.1449080  79.9622740  41.2747020 145.3394980
  79.1308610  40.2804810 146.1219010  86.3475390  50.8693940 137.6438980
  85.7292660  51.3343390 137.0801700  86.8598640  51.5621420 138.0608490
  81.2107150  50.3969810 144.3222580  80.8776530  51.0238730 144.9643650
  81.3873830  50.9231690 143.5424250  89.7241060  44.2114890 141.7898920
  89.0196630  44.4999780 142.3702030  90.0853220  45.0215000 141.4298480
  79.6419630  42.4684590 144.1519530  79.9836440  43.3126640 143.8573400
  78.7035440  42.6168330 144.2684870  80.4226250  52.3650610 146.1371760
  81.0400250  53.0401690 145.8556210  79.5619370  52.7738590 146.0459260
  75.7158590  51.5550470 135.0178610  75.3386570  52.0437570 134.2863510
  75.9731660  52.2275750 135.6485140  91.3403840  53.8290020 144.0526400
  90.6567360  54.4989130 144.0443070  91.8798130  54.0270670 143.2871260
  92.7927980  43.6569680 142.1808130  91.8452890  43.6908660 142.3123560
  93.1177970  44.4708630 142.5657490  83.3247520  39.9566860 140.4764120
  83.6322500  39.4013750 139.7599620  82.3948220  40.0911320 140.2937110
  88.8762580  55.6734150 142.7671580  88.8889740  55.2696440 141.8993840
  88.3237800  56.4481440 142.6633010  90.1708000  52.3950370 137.8561750
  90.0604330  51.4524700 137.9811170  90.1676250  52.7566010 138.7424510
  88.2748020  50.5763990 144.0954190  88.6916810  50.3624100 143.2607650
  88.9987840  50.8336780 144.6662810  85.7128280  48.0215690 137.2124240
  84.7857560  47.9553070 137.4412710  85.8653100  48.9595820 137.0979480
  85.6997360  44.2932690 134.2091400  84.7601030  44.4546650 134.2943860
  86.0180620  45.0118370 133.6627390  92.2210120  48.9751210 144.1870430
  91.3928750  49.0444300 143.7120560  92.8160600  49.5605520 143.7186260
  89.7425570  49.5835990 137.7159490  89.1237990  49.2455540 137.0685790
  89.7250020  48.9395750 138.4238680  89.1852130  45.7620530 145.1325300
  88.7723310  46.5874240 145.3865290  88.4528080  45.1765570 144.9401660
  81.3184920  48.5480430 139.9943970  80.9141920  47.8357680 139.4989870
  81.4048040  48.2033670 140.8832010  81.7866620  52.2347990 142.1583180
  81.4894910  51.6293460 141.4790960  82.7366440  52.2725300 142.0472540
  80.0313540  45.3223640 143.7743010  80.5828130  45.4318980 142.9996260
  80.5457050  45.6961240 144.4898240  89.8752230  55.8079860 145.8206280
  89.3982790  56.6152050 145.6278890  89.1914020  55.1558190 145.9732490
  80.8785050  51.9729680 148.8090980  79.9813580  52.1969650 149.0564380
  80.9037920  52.0964620 147.8602380  87.9190270  48.8222800 134.7232240
  88.3583550  47.9845230 134.5770060  88.6318690  49.4552200 134.8096380
  79.7056270  48.8443000 147.3848350  79.5664040  49.7165800 147.7535750
  78.8237630  48.5015810 147.2396290  86.0285650  53.7618870 138.6913480
  86.4681560  54.5043200 138.2768870  85.9672540  54.0045440 139.6152440
  81.5036620  54.7864700 149.5933500  81.4752050  55.1907650 148.7261930
  81.3401590  53.8575060 149.4305100  91.5007410  40.0765610 133.0373280
  91.1880070  40.1692440 133.9372350  92.2619880  40.6546640 132.9870710
  78.0189550  47.4425410 137.4950620  77.8987150  48.1687500 136.8831890
  77.7090440  46.6728320 137.0178530  75.6574920  50.6140550 143.3019260
  75.7355340  50.7489320 142.3574980  76.2716600  49.9056440 143.4947380
  76.9022550  52.3140740 139.7125440  76.4950630  52.4555330 138.8579040
  77.7935560  52.0300900 139.5096650  92.8584690  52.7604650 148.0497680
  92.9847750  52.5216530 147.1314860  92.9006070  51.9289190 148.5219760
  86.7201430  56.4632650 146.6192490  87.2346100  56.3740660 147.4214920
  85.8770510  56.8092350 146.9120400  88.6955830  56.7487990 136.0476490
  88.5356970  56.4590930 136.9458320  88.5302540  55.9728120 135.5121720
  81.1744210  56.5286520 137.8248110  80.9986690  55.6122060 137.6115910
  80.3199950  56.8873810 138.0645910  88.3981960  54.2575550 134.6074490
  87.7047120  54.2552840 133.9476770  89.1404820  53.8334870 134.1768660
  87.9631890  55.8838260 138.6822980  88.4188840  55.1027640 138.9961600
  88.3024410  56.5945080 139.2264160  92.7108700  44.8137110 149.0147420
  92.0952970  45.3216780 148.4862880  92.3905120  43.9135440 148.9573360
  75.7134440  51.6554720 145.8413720  75.8765480  51.1860080 145.0233090
  76.1786890  51.1478280 146.5062560  80.4853210  40.7860480 140.8774290
  80.0421360  41.5670020 140.5458810  81.0438200  41.1090370 141.5845230
  84.7723020  43.6529000 146.4809610  84.3102390  43.8612020 147.2929550
  84.3701130  42.8388350 146.1780280  89.7727530  44.8737950 147.6106270
  88.9221120  44.5743700 147.9315340  89.6129320  45.1179960 146.6990090
  86.8677240  46.3739700 149.7105060  87.1930650  45.5403450 149.3707290
  87.6557570  46.8968220 149.8583390  83.6012030  40.4071180 135.7580120
  82.9766210  40.4031050 136.4833430  83.5142150  39.5402140 135.3616090
  82.5229110  41.3307810 142.7363890  82.8201440  42.2370640 142.6555910
  83.0714670  40.8426590 142.1223460  80.2767430  45.9094050 138.6055540
  80.0508350  45.6931220 139.5102160  79.4959960  46.3422510 138.2601510
  87.5065190  45.9157420 137.2046190  86.9074080  46.6393220 137.0209810
  88.0544800  45.8534200 136.4222640  82.7166640  46.8079630 149.2715810
  82.6210240  45.8674360 149.1216210  83.5598620  47.0294700 148.8763880
  86.1130060  44.5520960 139.2349470  86.5059630  44.8693160 138.4218160
  86.4746910  43.6732840 139.3493990  77.8477180  43.2193300 147.4249590
  77.4540570  44.0668510 147.6322370  77.1595580  42.5819670 147.6158230
  75.1494230  41.1421760 141.4579670  74.8607280  41.7124620 142.1704650
  75.8939990  40.6626210 141.8210900  75.3364460  45.0841880 132.6682390
  75.2539130  46.0272640 132.8097380  74.9847520  44.9416790 131.7894740
  86.6985200  47.1426710 143.3300250  85.9666320  47.6513520 143.6790350
  86.3009540  46.3256690 143.0289030  83.1362590  43.8180910 141.7352740
  83.1398650  43.3770860 140.8857280  84.0313710  44.1398240 141.8424560
  78.9864970  43.7007400 140.6946950  78.6465020  44.1782630 141.4514000
  78.2242290  43.2472520 140.3348050  83.1982740  44.8192990 134.7259500
  83.3195560  44.7779470 135.6745320  82.8131250  45.6817140 134.5706230
  87.1611110  42.5960390 142.7423190  87.1783850  43.0469040 143.5865040
  86.9126690  41.6966030 142.9556630  82.2104240  47.1294130 134.1242800
  81.6421140  46.6812380 133.4978710  82.9193240  47.4886910 133.5907950
  90.5881860  40.0092570 148.5809570  90.9127630  39.2782230 149.1067550
  90.6238370  39.6906210 147.6790560  77.2873420  51.0306150 148.0009530
  76.9028210  50.3899820 148.5992490  77.5985610  51.7342270 148.5704260
  83.4370560  47.8782690 143.4818150  83.8040690  47.4041260 144.2279490
  83.2475620  48.7524260 143.8226490  76.3011050  42.6226380 139.6111620
  76.0157970  42.2582050 140.4490240  76.2389910  41.8906840 138.9974760
  81.2269930  46.9191330 145.8002360  80.9227000  47.7983310 146.0252720
  82.1816390  46.9791120 145.8359800  79.7551720  51.1252320 136.3969210
  78.9813980  50.5849940 136.2367930  80.4846350  50.6058930 136.0586970
  90.5139700  50.1217680 142.1895600  91.2338820  50.6172970 141.7991710
  90.3121520  49.4435570 141.5449470  85.9749640  41.5155640 136.3324990
  85.1614250  41.0168810 136.2570300  85.7811590  42.3553890 135.9161340
  85.8958500  50.1926740 148.0764600  85.8295810  49.2722410 147.8222190
  85.2663640  50.2902180 148.7909240  88.6898030  45.8875290 134.6287150
  89.5777650  46.1992520 134.4538490  88.6603120  45.0147540 134.2367730
  79.7989120  50.7932700 140.0348020  80.3167790  49.9900960 139.9804910
  79.3473140  50.7311840 140.8764850  84.6858620  52.0598980 135.3075320
  85.0274320  52.8041210 134.8118640  83.8571330  52.3730100 135.6700150
  77.2833660  47.7594070 146.9473720  76.9248600  48.4247920 147.5347060
  76.9888220  46.9277620 147.3186340  80.4846780  48.2178310 149.8313270
  80.1846920  48.3635490 148.9341090  81.2558020  47.6583600 149.7386660
  85.8275230  53.0147310 147.8268400  85.8419770  52.0828270 147.6087310
  85.1200330  53.1007070 148.4658170  90.9612300  47.1987130 134.0967010
  90.8776020  47.6301350 133.2463450  91.6806490  47.6585480 134.5293830
  92.0386440  49.6554650 147.1736980  91.3134630  50.2483430 146.9766370
  92.5661900  49.6478190 146.3750350  91.9899550  54.0529390 136.8249140
  91.3475710  53.3985010 137.0992860  91.6030210  54.4584480 136.0489810
  87.5686030  51.3814820 140.6720830  87.9209850  50.7842950 140.0122200
  86.6848360  51.0559050 140.8429080  83.6549310  52.1412510 138.0791240
  84.3420440  52.6881720 138.4598830  82.8681730  52.6853240 138.1140850
  75.7941710  47.7585330 133.5708320  76.6636560  48.0410130 133.8544240
  75.3032030  48.5721200 133.4557130  82.9576520  49.1458540 137.6916600
  83.4139300  49.9563790 137.9176790  82.6064730  48.8281680 138.5235090
  85.2609130  54.6564880 144.9208900  85.9051350  54.8624260 145.5982320
  85.6238570  53.8953280 144.4679750  78.8588300  39.4896190 138.1639120
  78.7302930  39.4814090 139.1124040  78.0350320  39.8279280 137.8130130
  86.5341210  52.6597230 143.6386350  87.1763440  51.9590390 143.7518520
  87.0590560  53.4395670 143.4583240  90.3796930  52.9445850 133.3625490
  90.1534510  52.2276290 133.9550130  89.9893130  52.6958290 132.5247240
  88.3078830  53.4592130 146.8422410  88.6435070  54.0458820 147.5200330
  87.3879170  53.3284840 147.0720200  76.1612960  56.9712710 134.1369950
  76.5210600  57.5702050 133.4827220  76.0205300  57.5172600 134.9104980
  75.8582230  41.2487310 147.6245820  75.1440750  41.4484230 148.2298430
  76.2777270  40.4726880 147.9960620  89.9613180  50.8617790 135.0239650
  89.6734880  51.3230480 135.8117530  90.7565350  50.4015560 135.2923870
  76.1454820  55.2367570 148.6112350  76.2545940  54.2962310 148.4707740
  75.4935380  55.5022320 147.9626080  82.1781580  54.3543910 134.9543620
  82.1691680  55.0873600 134.3388130  81.2579940  54.1075490 135.0470580
  77.7788220  49.5758800 135.6990380  77.1716170  50.3157700 135.7085680
  78.2537570  49.6658160 134.8728580  87.3521010  43.7409620 145.3747270
  87.7201830  42.9204830 145.7026840  86.4919210  43.8011510 145.7902920
  90.7183040  42.6966560 136.1834830  90.0896200  42.8012230 135.4693060
  90.2234960  42.9163340 136.9728710  85.1641180  54.4172150 133.6168810
  85.2653160  54.2136140 132.6870790  84.2642920  54.1630430 133.8216590
  82.6867070  44.9752510 137.5992710  81.9783220  45.4438850 138.0406320
  82.9711550  44.3174520 138.2337900  84.3123000  46.3949210 145.5985240
  84.8108250  46.8695030 146.2637090  84.4545950  45.4712730 145.8055270
  86.7182500  41.7003170 139.0388500  86.5950280  41.7189300 138.0898010
  87.6667060  41.7482110 139.1586900  83.8059290  56.9358470 138.3116480
  84.0600790  56.8979860 137.3895850  82.8571770  56.8091800 138.3044730
  80.8902090  43.2837590 134.9743420  81.7392620  43.7207740 134.9083610
  80.5233360  43.5957850 135.8015480  91.5189860  42.6117170 146.4413630
  91.0163460  43.3522570 146.7807440  92.3346520  43.0001170 146.1250420
  89.8111870  47.8550350 139.8874990  88.8702010  47.8700580 140.0622680
  90.1255940  47.0686310 140.3335290  79.7893510  49.5369950 133.4478950
  80.5556780  49.4251310 134.0104380  79.8668200  48.8407920 132.7955720
  78.4840270  46.9695020 134.1311840  78.5643860  46.0222530 134.2429240
  79.3760020  47.3001900 134.2372500  91.8137450  55.0259200 141.5629250
  91.9384870  55.8490370 142.0353060  92.6803010  54.8149930 141.2153400
  79.2854980  57.1190410 141.2346380  80.0217460  56.5705870 141.5054950
  79.6695900  57.9846420 141.0952370  76.1700460  53.1863980 137.1087890
  75.2440240  53.4285120 137.0993300  76.6356890  54.0138240 136.9872640
  82.3957290  56.2920720 133.0571950  83.1885900  56.5809550 132.6053740
  81.8761640  55.8612890 132.3784430  88.5578260  56.1396640 148.9816780
  89.5100010  56.0554660 148.9317020  88.4106480  56.8038350 149.6550570
  91.4487460  55.5190850 134.4808690  91.1628970  55.1055990 133.6662870
  91.2507010  56.4478560 134.3609210  76.0111070  48.7909940 149.3668010
  76.5150090  48.2117220 149.9384240  75.2718490  49.0750170 149.9044380
  82.9134690  51.5124130 132.9214300  82.8085330  50.8976480 133.6475680
  82.7458910  50.9890020 132.1377310  83.0649010  50.1980930 148.9003530
  82.2994680  50.7665930 148.8158200  83.2464970  49.9057140 148.0071760
  86.1537420  50.5744160 133.5256290  85.6047520  51.0213460 134.1699030
  86.7756680  50.0693410 134.0493960  90.2072360  51.9286260 149.4578550
  90.9481830  52.2662020 148.9546010  89.4445040  52.0978320 148.9048320
  81.8212540  49.5335080 135.4221590  82.2428960  49.3674950 136.2652980
  81.9463380  48.7235310 134.9276730  79.9839960  45.5131630 148.2292570
  79.4536420  45.0222580 147.6015910  80.6528030  45.9415830 147.6950500
  84.3340180  48.5572690 132.6698690  84.8545840  47.8421710 132.3039840
  84.9808580  49.1958560 132.9699200  88.8818020  49.9801090 147.9933760
  89.2959040  50.1346170 148.8424180  87.9469020  50.1056310 148.1559540
  89.3540190  47.3197250 149.9972910  89.9360960  46.5649570 149.9093390
  89.5301960  47.8504690 149.2204390  80.4712260  42.4794000 148.3089860
  80.3769130  41.8614750 147.5840730  79.8909650  43.2060290 148.0819770
  83.2373700  41.0367240 145.3417250  82.7891000  41.0591500 144.4962800
  82.6038900  40.6386260 145.9387550  83.6433250  49.9321570 145.9629690
  84.0621360  50.7754300 145.7905930  82.7241880  50.0693610 145.7336470
  85.9797150  47.6637750 147.3467530  86.0993360  47.0678890 148.0862370
  86.8391150  47.7007440 146.9268830  88.3185050  48.2174940 145.9230040
  87.7920270  48.7417560 145.3195180  88.6616390  48.8502330 146.5539770
  80.7171440  45.6068310 132.3679750  80.5160500  44.7435670 132.7293090
  80.5463490  45.5201670 131.4301350  81.4940670  56.2374580 147.0787420
  80.9561760  56.9620640 146.7596120  81.7474630  55.7604920 146.2884760
  82.7465920  44.2059100 148.6043350  83.3365610  43.8974950 149.2921170
  81.9286160  43.7338850 148.7603250  87.5659350  43.8224910 148.8376370
  86.8774870  43.1606450 148.7726360  88.2865370  43.3763180 149.2824830
  88.1959750  40.4176540 134.8966630  88.4762040  39.5744440 135.2526050
  87.4225480  40.6499650 135.4105380  79.5154240  42.7068930 132.3557630
  79.8180140  42.7136360 131.4476780  80.2548830  42.3566790 132.8525290
  84.3502880  57.4725790 147.3374070  84.2761580  58.3760930 147.6446440
  83.4481720  57.1537690 147.3096140  82.7339170  41.6503550 133.3413830
  82.3861170  40.9727540 132.7616280  82.9351940  41.1893060 134.1557220
  84.8988210  56.6384300 134.9600430  85.7939000  56.9769270 134.9819190
  84.9305840  55.9163710 134.3324710  78.5384370  52.0111350 133.1887430
  78.9759240  52.5541020 133.8445010  79.0232100  51.1858300 133.1983770
  75.7530170  54.8000380 140.6407690  76.0833180  53.9321440 140.4086330
  76.1821170  55.0058900 141.4712650  80.3492090  53.1309390 138.3009660
  80.0487630  53.0074360 139.2013570  80.2429580  52.2717980 137.8925390
  76.2420380  55.6670970 143.3789320  75.8051370  55.8471770 144.2113470
  76.8098060  56.4245590 143.2371040  91.8782560  55.1687970 147.6666630
  91.2784550  55.2280530 146.9230550  92.0076460  54.2292950 147.7963480
  93.1184010  52.9105790 133.0036340  92.2876970  52.9782440 133.4743570
  93.2955840  53.8009910 132.7003200  92.5740470  49.6553270 135.5070540
  93.3359380  50.2249920 135.6130230  92.5894840  49.0880470 136.2778850
  76.0744810  48.1791200 139.7378200  75.4193650  47.9102840 139.0937900
  76.9122760  48.0695680 139.2880180  93.5800440  50.5103370 140.3512470
  93.9509270  49.7270690 139.9448440  94.2202370  51.1992470 140.1729770
  90.5634200  51.8939950 145.7642790  89.7494040  52.3237110 146.0268580
  90.9708400  52.5058360 145.1511840  92.6259640  49.9487640 132.6643060
  92.9008480  50.8566520 132.5362280  92.4370380  49.8850170 133.6005050
  89.0235250  42.9732490 133.9596690  89.4420130  42.7863470 133.1193350
  88.7171310  42.1211540 134.2699620  92.5224980  47.8856630 137.6572490
  92.1468580  47.1184560 137.2253780  91.7928100  48.2679330 138.1447420
  77.1120740  48.5643770 144.2781540  77.4793780  48.4771170 145.1577560
  76.5431560  47.8010320 144.1788400  91.9124600  47.0328150 147.2912010
  91.6810690  46.8040900 146.3909960  92.1729150  47.9527700 147.2456900
  76.6636740  45.4752860 148.1839960  75.7692790  45.4419620 148.5233670
  77.2034290  45.6739650 148.9491210  75.2882890  45.3890130 135.6803530
  74.3846970  45.6520330 135.5055190  75.7723510  45.6601300 134.9003490
  91.7975940  46.1114120 140.9579730  92.3213420  45.6176770 140.3269900
  92.3835360  46.2464480 141.7027300  91.9765660  46.1953990 144.4799280
  91.0268370  46.1617530 144.5944270  92.1578670  47.1054100 144.2449050
  77.8310100  44.4455670 133.5897910  78.5401800  44.0238890 133.1045190
  77.1150040  44.5130900 132.9581260  77.4784260  40.4995000 132.6300560
  78.2012390  41.0403940 132.9481780  77.7508780  40.2258420 131.7542100
  91.2875910  45.3687470 136.8972140  91.7835030  45.1358340 137.6821020
  91.0891980  44.5299310 136.4809780  77.1676450  39.7501190 142.5323180
  77.8152640  39.1998570 142.0918340  77.5878290  40.0044340 143.3538990
  92.7163070  44.0048420 139.4309820  92.6062350  43.8504460 140.3692090
  93.4770660  43.4769360 139.1885230  91.0628790  39.9442550 145.8892820
  91.7001010  40.5576690 146.2552010  91.2103680  39.9803210 144.9442050
  93.6053340  41.8356340 132.6715960  94.5302650  41.7037520 132.4634250
  93.5829130  41.9149160 133.6252410  93.6791830  42.6067000 135.2972670
  92.8843330  42.5412120 135.8265580  93.8835110  43.5417640 135.2858020
  90.6210250  56.6458550 139.2911060  91.2169320  56.3243120 138.6145480
  90.8788400  56.1730370 140.0824330  76.9208450  39.9056860 145.2748500
  76.5723270  40.3620680 146.0406680  76.5896150  39.0113990 145.3570930
  82.2278850  54.6336050 145.0411410  81.9870210  54.9010610 144.1541930
  83.1681490  54.8041780 145.0962270  84.4333270  41.0968740 148.7967920
  84.3722160  41.6890570 149.5463330  85.3733650  40.9894700 148.6518180
  87.0707830  40.7538800 148.4360210  87.6848240  41.0718090 147.7741290
  87.6157390  40.2687390 149.0556070  93.4883010  56.6530430 145.8422050
  92.9941290  57.0499300 145.1249180  92.8796300  56.0279640 146.2359330
  77.5929090  39.4333060 148.5499270  78.1412080  39.2521110 147.7865380
  77.6584400  38.6427170 149.0855580  78.3660850  56.0238710 146.5599470
  77.7721170  55.8923410 147.2989510  78.3584690  55.1876850 146.0941570
  87.8115870  39.3170940 144.7629500  86.9375710  39.6506050 144.5602430
  87.7026620  38.8444120 145.5881370  88.7187850  41.5241810 146.1471220
  88.3901210  40.7093570 145.7672950  89.6670150  41.4811620 146.0236910
  91.1722460  57.2953850 143.1208790  90.7125430  58.0469660 142.7466810
  90.5434920  56.5760320 143.0623590  77.9973080  53.3897090 145.5107510
  77.2707140  52.7702380 145.4433460  78.0582230  53.7837700 144.6405590
  81.6018180  55.6042090 142.2956920  82.1183200  54.9929450 141.7705180
  82.2515560  56.1070870 142.7867930  84.3413680  56.4950580 143.1225900
  84.6291490  56.2404880 142.2458910  84.8536900  55.9427940 143.7131470
  85.5590690  40.2340780 143.7022410  84.7762480  40.7086280 143.9819170
  85.2653620  39.3295610 143.5935590  90.1111760  40.9363880 141.7471500
  90.5519850  40.8808980 140.8993100  89.8419350  41.8521890 141.8181680
  91.9750330  40.5679120 139.7580320  91.9138730  39.6240340 139.6111340
  92.7542360  40.6759210 140.3033780  76.2803080  56.7071480 138.7204270
  76.1125120  56.0742160 139.4186160  75.4137590  56.9130880 138.3698460
  76.9031100  40.5388260 136.2236130  77.6610460  40.6517140 135.6500160
  76.4408270  41.3757460 136.1779560  83.4444910  42.6527530 139.2138440
  82.6319420  42.2784420 138.8734320  83.9486550  41.8972610 139.5159630
  87.9469890  39.3169980 140.4521510  88.5499260  39.8890190 140.9270030
  87.2062880  39.8809420 140.2295410  91.0904490  39.7191540 135.7261790
  91.2855120  40.6174990 135.9929220  90.3034360  39.4878620 136.2194740
  77.8865780  55.4004710 136.1654410  77.3613400  55.7812740 135.4616370
  77.8110360  56.0255480 136.8864120  79.2756250  41.0652310 134.7638100
  79.8049010  40.2782110 134.6346050  79.9084570  41.7443500 134.9973630
  81.4694090  40.8027450 137.8183490  80.8396830  40.1014760 137.9853620
  80.9299230  41.5631580 137.6016650  92.6431100  56.9592250 137.4868350
  92.8183290  56.2729990 136.8429270  91.9452670  57.4839300 137.0945020
  80.4858750  57.3487090 135.0403660  81.2177570  57.0646370 134.4927550
  80.7452420  57.1100370 135.9303040  79.6473540  53.4651820 135.0449990
  79.0182420  53.9336920 135.5935820  79.7621370  52.6201040 135.4796180
  87.1023260  47.5157480 121.1951190  87.0217310  46.6012090 120.9242900
  86.6887680  48.0124550 120.4890900  85.2341300  49.2936500 123.0760460
  84.4583400  48.8136940 123.3659030  85.8854230  48.6142150 122.9016620
  79.2507130  49.6056310 123.9536220  78.4192010  49.3505020 124.3532730
  79.8588110  49.6767080 124.6894140  89.2548730  53.6996690 121.8559590
  88.7930260  52.9283930 122.1846760  90.0674280  53.7262760 122.3612040
  79.2308390  53.6396400 124.1494240  79.5336430  52.7494140 123.9704460
  79.9751980  54.1966620 123.9216490  77.6599080  44.5658200 117.7378610
  76.7715780  44.9074170 117.6358490  77.9440270  44.3658520 116.8459440
  84.6750290  51.9693690 123.0830620  84.6058570  51.0283630 122.9219750
  85.4370150  52.0595100 123.6553190  76.8656960  42.5748210 125.4087240
  76.6859800  41.6773960 125.6890000  76.4637040  43.1220080 126.0834190
  85.7055460  44.7764070 123.3099550  86.0820280  43.9035950 123.1973220
  85.6074970  45.1122770 122.4189990  79.8360470  43.1489700 118.7716990
  79.9427220  44.0493430 119.0785750  78.9252830  43.1007670 118.4811640
  89.4879580  42.2714510 120.2427890  90.3089200  41.7811080 120.2853370
  89.5213660  42.8612170 120.9959730  77.4843630  45.0708710 124.0169580
  78.1653740  45.3347080 124.6356980  77.1691680  44.2309580 124.3507590
  81.6768200  46.1176070 123.1042170  82.1846420  46.6157040 123.7447190
  82.2081440  45.3411270 122.9281530  93.7779130  44.2881260 126.8071520
  93.0731300  44.6762970 126.2886630  94.0437050  44.9831550 127.4092450
  79.9604300  40.7574630 127.3705590  79.9622740  41.2747020 126.5651490
  79.1308610  40.2804810 127.3475520  81.2107150  50.3969810 125.5479090
  80.8776530  51.0238730 126.1900160  81.3873830  50.9231690 124.7680760
  89.7241060  44.2114890 123.0155430  89.0196630  44.4999780 123.5958540
  90.0853220  45.0215000 122.6554990  79.6419630  42.4684590 125.3776040
  79.9836440  43.3126640 125.0829910  78.7035440  42.6168330 125.4941380
  80.4226250  52.3650610 127.3628270  81.0400250  53.0401690 127.0812720
  79.5619370  52.7738590 127.2715770  91.3403840  53.8290020 125.2782910
  90.6567360  54.4989130 125.2699580  91.8798130  54.0270670 124.5127770
  92.7927980  43.6569680 123.4064640  91.8452890  43.6908660 123.5380070
  93.1177970  44.4708630 123.7914000  88.8762580  55.6734150 123.9928090
  88.8889740  55.2696440 123.1250350  88.3237800  56.4481440 123.8889520
  90.1708000  52.3950370 119.0818260  90.0604330  51.4524700 119.2067680
  90.1676250  52.7566010 119.9681020  88.2748020  50.5763990 125.3210700
  88.6916810  50.3624100 124.4864160  88.9987840  50.8336780 125.8919320
  85.7128280  48.0215690 118.4380750  84.7857560  47.9553070 118.6669220
  85.8653100  48.9595820 118.3235990  85.6997360  44.2932690 115.4347910
  84.7601030  44.4546650 115.5200370  86.0180620  45.0118370 114.8883900
  89.7425570  49.5835990 118.9416000  89.1237990  49.2455540 118.2942300
  89.7250020  48.9395750 119.6495190  89.1852130  45.7620530 126.3581810
  88.7723310  46.5874240 126.6121800  88.4528080  45.1765570 126.1658170
  81.7866620  52.2347990 123.3839690  81.4894910  51.6293460 122.7047470
  82.7366440  52.2725300 123.2729050  80.0313540  45.3223640 124.9999520
  80.5828130  45.4318980 124.2252770  80.5457050  45.6961240 125.7154750
  89.8752230  55.8079860 127.0462790  89.3982790  56.6152050 126.8535400
  89.1914020  55.1558190 127.1989000  80.8785050  51.9729680 130.0347490
  79.9813580  52.1969650 130.2820890  80.9037920  52.0964620 129.0858890
  79.7056270  48.8443000 128.6104860  79.5664040  49.7165800 128.9792260
  78.8237630  48.5015810 128.4652800  81.5036620  54.7864700 130.8190010
  81.4752050  55.1907650 129.9518440  81.3401590  53.8575060 130.6561610
  78.0189550  47.4425410 118.7207130  77.8987150  48.1687500 118.1088400
  77.7090440  46.6728320 118.2435040  93.4551440  55.5691800 132.1154180
  93.9311160  56.0474690 132.7943260  94.0758600  55.5009290 131.3899680
  76.9022550  52.3140740 120.9381950  76.4950630  52.4555330 120.0835550
  77.7935560  52.0300900 120.7353160  92.8584690  52.7604650 129.2754190
  92.9847750  52.5216530 128.3571370  92.9006070  51.9289190 129.7476270
  86.7201430  56.4632650 127.8449000  87.2346100  56.3740660 128.6471430
  85.8770510  56.8092350 128.1376910  88.6955830  56.7487990 117.2733000
  88.5356970  56.4590930 118.1714830  88.5302540  55.9728120 116.7378230
  92.7108700  44.8137110 130.2403930  92.0952970  45.3216780 129.7119390
  92.3905120  43.9135440 130.1829870  84.7723020  43.6529000 127.7066120
  84.3102390  43.8612020 128.5186060  84.3701130  42.8388350 127.4036790
  89.7727530  44.8737950 128.8362780  88.9221120  44.5743700 129.1571850
  89.6129320  45.1179960 127.9246600  86.8677240  46.3739700 130.9361570
  87.1930650  45.5403450 130.5963800  87.6557570  46.8968220 131.0839900
  83.6012030  40.4071180 116.9836630  82.9766210  40.4031050 117.7089940
  83.5142150  39.5402140 116.5872600  82.5229110  41.3307810 123.9620400
  82.8201440  42.2370640 123.8812420  83.0714670  40.8426590 123.3479970
  80.2767430  45.9094050 119.8312050  80.0508350  45.6931220 120.7358670
  79.4959960  46.3422510 119.4858020  87.5065190  45.9157420 118.4302700
  86.9074080  46.6393220 118.2466320  88.0544800  45.8534200 117.6479150
  82.7166640  46.8079630 130.4972320  82.6210240  45.8674360 130.3472720
  83.5598620  47.0294700 130.1020390  86.1130060  44.5520960 120.4605980
  86.5059630  44.8693160 119.6474670  86.4746910  43.6732840 120.5750500
  77.8477180  43.2193300 128.6506100  77.4540570  44.0668510 128.8578880
  77.1595580  42.5819670 128.8414740  84.4222230  43.3028270 131.7202840
  83.7320550  43.1100470 132.3548930  85.1654530  43.5862910 132.2527140
  75.1494230  41.1421760 122.6836180  74.8607280  41.7124620 123.3961160
  75.8939990  40.6626210 123.0467410  75.3364460  45.0841880 113.8938900
  75.2539130  46.0272640 114.0353890  74.9847520  44.9416790 113.0151250
  86.6985200  47.1426710 124.5556760  85.9666320  47.6513520 124.9046860
  86.3009540  46.3256690 124.2545540  83.1362590  43.8180910 122.9609250
  83.1398650  43.3770860 122.1113790  84.0313710  44.1398240 123.0681070
  78.9864970  43.7007400 121.9203460  78.6465020  44.1782630 122.6770510
  78.2242290  43.2472520 121.5604560  83.1982740  44.8192990 115.9516010
  83.3195560  44.7779470 116.9001830  82.8131250  45.6817140 115.7962740
  87.1611110  42.5960390 123.9679700  87.1783850  43.0469040 124.8121550
  86.9126690  41.6966030 124.1813140  82.2104240  47.1294130 115.3499310
  81.6421140  46.6812380 114.7235220  82.9193240  47.4886910 114.8164460
  90.5881860  40.0092570 129.8066080  90.9127630  39.2782230 130.3324060
  90.6238370  39.6906210 128.9047070  77.2873420  51.0306150 129.2266040
  76.9028210  50.3899820 129.8249000  77.5985610  51.7342270 129.7960770
  83.4370560  47.8782690 124.7074660  83.8040690  47.4041260 125.4536000
  83.2475620  48.7524260 125.0483000  76.3011050  42.6226380 120.8368130
  76.0157970  42.2582050 121.6746750  76.2389910  41.8906840 120.2231270
  81.2269930  46.9191330 127.0258870  80.9227000  47.7983310 127.2509230
  82.1816390  46.9791120 127.0616310  90.5139700  50.1217680 123.4152110
  91.2338820  50.6172970 123.0248220  90.3121520  49.4435570 122.7705980
  85.9749640  41.5155640 117.5581500  85.1614250  41.0168810 117.4826810
  85.7811590  42.3553890 117.1417850  85.8958500  50.1926740 129.3021110
  85.8295810  49.2722410 129.0478700  85.2663640  50.2902180 130.0165750
  88.6898030  45.8875290 115.8543660  89.5777650  46.1992520 115.6795000
  88.6603120  45.0147540 115.4624240  80.4846780  48.2178310 131.0569780
  80.1846920  48.3635490 130.1597600  81.2558020  47.6583600 130.9643170
  85.8275230  53.0147310 129.0524910  85.8419770  52.0828270 128.8343820
  85.1200330  53.1007070 129.6914680  87.5686030  51.3814820 121.8977340
  87.9209850  50.7842950 121.2378710  86.6848360  51.0559050 122.0685590
  75.7941710  47.7585330 114.7964830  76.6636560  48.0410130 115.0800750
  75.3032030  48.5721200 114.6813640  85.2609130  54.6564880 126.1465410
  85.9051350  54.8624260 126.8238830  85.6238570  53.8953280 125.6936260
  78.8588300  39.4896190 119.3895630  78.7302930  39.4814090 120.3380550
  78.0350320  39.8279280 119.0386640  86.5341210  52.6597230 124.8642860
  87.1763440  51.9590390 124.9775030  87.0590560  53.4395670 124.6839750
  88.3078830  53.4592130 128.0678920  88.6435070  54.0458820 128.7456840
  87.3879170  53.3284840 128.2976710  75.8582230  41.2487310 128.8502330
  75.1440750  41.4484230 129.4554940  76.2777270  40.4726880 129.2217130
  76.1454820  55.2367570 129.8368860  76.2545940  54.2962310 129.6964250
  75.4935380  55.5022320 129.1882590  84.1367410  53.5083460 131.2366980
  83.8164280  52.7892700 131.7812670  83.4625770  54.1838530 131.3103040
  87.3521010  43.7409620 126.6003780  87.7201830  42.9204830 126.9283350
  86.4919210  43.8011510 127.0159430  90.7183040  42.6966560 117.4091340
  90.0896200  42.8012230 116.6949570  90.2234960  42.9163340 118.1985220
  82.6867070  44.9752510 118.8249220  81.9783220  45.4438850 119.2662830
  82.9711550  44.3174520 119.4594410  84.3123000  46.3949210 126.8241750
  84.8108250  46.8695030 127.4893600  84.4545950  45.4712730 127.0311780
  86.7182500  41.7003170 120.2645010  86.5950280  41.7189300 119.3154520
  87.6667060  41.7482110 120.3843410  80.8902090  43.2837590 116.1999930
  81.7392620  43.7207740 116.1340120  80.5233360  43.5957850 117.0271990
  91.5189860  42.6117170 127.6670140  91.0163460  43.3522570 128.0063950
  92.3346520  43.0001170 127.3506930  89.8111870  47.8550350 121.1131500
  88.8702010  47.8700580 121.2879190  90.1255940  47.0686310 121.5591800
  79.7893510  49.5369950 114.6735460  80.5556780  49.4251310 115.2360890
  79.8668200  48.8407920 114.0212230  78.4840270  46.9695020 115.3568350
  78.5643860  46.0222530 115.4685750  79.3760020  47.3001900 115.4629010
  91.8137450  55.0259200 122.7885760  91.9384870  55.8490370 123.2609570
  92.6803010  54.8149930 122.4409910  79.2854980  57.1190410 122.4602890
  80.0217460  56.5705870 122.7311460  79.6695900  57.9846420 122.3208880
  78.2913260  56.3036480 131.6488470  79.0925990  56.6248530 132.0623870
  77.7765080  55.9432060 132.3708380  82.3957290  56.2920720 114.2828460
  83.1885900  56.5809550 113.8310250  81.8761640  55.8612890 113.6040940
  87.1277890  52.4116350 131.5963880  86.5216050  52.4347950 130.8559630
  86.8232000  51.6799390 132.1331130  88.5578260  56.1396640 130.2073290
  89.5100010  56.0554660 130.1573530  88.4106480  56.8038350 130.8807080
  82.9134690  51.5124130 114.1470810  82.8085330  50.8976480 114.8732190
  82.7458910  50.9890020 113.3633820  83.0649010  50.1980930 130.1260040
  82.2994680  50.7665930 130.0414710  83.2464970  49.9057140 129.2328270
  90.2072360  51.9286260 130.6835060  90.9481830  52.2662020 130.1802520
  89.4445040  52.0978320 130.1304830  78.0434150  46.9339530 131.4874590
  78.0839490  46.6353400 132.3959820  78.8979650  47.3347140 131.3282110
  79.9839960  45.5131630 129.4549080  79.4536420  45.0222580 128.8272420
  80.6528030  45.9415830 128.9207010  84.3340180  48.5572690 113.8955200
  84.8545840  47.8421710 113.5296350  84.9808580  49.1958560 114.1955710
  88.8818020  49.9801090 129.2190270  89.2959040  50.1346170 130.0680690
  87.9469020  50.1056310 129.3816050  89.3540190  47.3197250 131.2229420
  89.9360960  46.5649570 131.1349900  89.5301960  47.8504690 130.4460900
  80.4712260  42.4794000 129.5346370  80.3769130  41.8614750 128.8097240
  79.8909650  43.2060290 129.3076280  83.2373700  41.0367240 126.5673760
  82.7891000  41.0591500 125.7219310  82.6038900  40.6386260 127.1644060
  83.6433250  49.9321570 127.1886200  84.0621360  50.7754300 127.0162440
  82.7241880  50.0693610 126.9592980  85.9797150  47.6637750 128.5724040
  86.0993360  47.0678890 129.3118880  86.8391150  47.7007440 128.1525340
  88.3185050  48.2174940 127.1486550  87.7920270  48.7417560 126.5451690
  88.6616390  48.8502330 127.7796280  80.7171440  45.6068310 113.5936260
  80.5160500  44.7435670 113.9549600  80.5463490  45.5201670 112.6557860
  81.4940670  56.2374580 128.3043930  80.9561760  56.9620640 127.9852630
  81.7474630  55.7604920 127.5141270  82.7465920  44.2059100 129.8299860
  83.3365610  43.8974950 130.5177680  81.9286160  43.7338850 129.9859760
  87.5659350  43.8224910 130.0632880  86.8774870  43.1606450 129.9982870
  88.2865370  43.3763180 130.5081340  88.1959750  40.4176540 116.1223140
  88.4762040  39.5744440 116.4782560  87.4225480  40.6499650 116.6361890
  79.5154240  42.7068930 113.5814140  79.8180140  42.7136360 112.6733290
  80.2548830  42.3566790 114.0781800  84.3502880  57.4725790 128.5630580
  84.2761580  58.3760930 128.8702950  83.4481720  57.1537690 128.5352650
  82.7339170  41.6503550 114.5670340  82.3861170  40.9727540 113.9872790
  82.9351940  41.1893060 115.3813730  75.7530170  54.8000380 121.8664200
  76.0833180  53.9321440 121.6342840  76.1821170  55.0058900 122.6969160
  76.2420380  55.6670970 124.6045830  75.8051370  55.8471770 125.4369980
  76.8098060  56.4245590 124.4627550  91.8782560  55.1687970 128.8923140
  91.2784550  55.2280530 128.1487060  92.0076460  54.2292950 129.0219990
  76.0744810  48.1791200 120.9634710  75.4193650  47.9102840 120.3194410
  76.9122760  48.0695680 120.5136690  89.0235250  42.9732490 115.1853200
  89.4420130  42.7863470 114.3449860  88.7171310  42.1211540 115.4956130
  92.5224980  47.8856630 118.8829000  92.1468580  47.1184560 118.4510290
  91.7928100  48.2679330 119.3703930  91.9124600  47.0328150 128.5168520
  91.6810690  46.8040900 127.6166470  92.1729150  47.9527700 128.4713410
  76.6636740  45.4752860 129.4096470  75.7692790  45.4419620 129.7490180
  77.2034290  45.6739650 130.1747720  90.3512670  42.2584580 131.2948220
  91.2282850  42.2667980 131.6782220  90.3633510  41.5215420 130.6840570
  75.2882890  45.3890130 116.9060040  74.3846970  45.6520330 116.7311700
  75.7723510  45.6601300 116.1260000  91.7975940  46.1114120 122.1836240
  92.3213420  45.6176770 121.5526410  92.3835360  46.2464480 122.9283810
  91.9765660  46.1953990 125.7055790  91.0268370  46.1617530 125.8200780
  92.1578670  47.1054100 125.4705560  77.8310100  44.4455670 114.8154420
  78.5401800  44.0238890 114.3301700  77.1150040  44.5130900 114.1837770
  77.4784260  40.4995000 113.8557070  78.2012390  41.0403940 114.1738290
  77.7508780  40.2258420 112.9798610  77.1676450  39.7501190 123.7579690
  77.8152640  39.1998570 123.3174850  77.5878290  40.0044340 124.5795500
  92.7163070  44.0048420 120.6566330  92.6062350  43.8504460 121.5948600
  93.4770660  43.4769360 120.4141740  91.0628790  39.9442550 127.1149330
  91.7001010  40.5576690 127.4808520  91.2103680  39.9803210 126.1698560
  93.6791830  42.6067000 116.5229180  92.8843330  42.5412120 117.0522090
  93.8835110  43.5417640 116.5114530  90.6210250  56.6458550 120.5167570
  91.2169320  56.3243120 119.8401990  90.8788400  56.1730370 121.3080840
  76.9208450  39.9056860 126.5005010  76.5723270  40.3620680 127.2663190
  76.5896150  39.0113990 126.5827440  78.5272820  53.0776460 130.6658200
  78.4842450  52.7069370 131.5472660  78.6583830  54.0154030 130.8060020
  82.2278850  54.6336050 126.2667920  81.9870210  54.9010610 125.3798440
  83.1681490  54.8041780 126.3218780  84.4333270  41.0968740 130.0224430
  84.3722160  41.6890570 130.7719840  85.3733650  40.9894700 129.8774690
  87.0707830  40.7538800 129.6616720  87.6848240  41.0718090 128.9997800
  87.6157390  40.2687390 130.2812580  77.5929090  39.4333060 129.7755780
  78.1412080  39.2521110 129.0121890  77.6584400  38.6427170 130.3112090
  78.3660850  56.0238710 127.7855980  77.7721170  55.8923410 128.5246020
  78.3584690  55.1876850 127.3198080  87.8115870  39.3170940 125.9886010
  86.9375710  39.6506050 125.7858940  87.7026620  38.8444120 126.8137880
  88.7187850  41.5241810 127.3727730  88.3901210  40.7093570 126.9929460
  89.6670150  41.4811620 127.2493420  91.1722460  57.2953850 124.3465300
  90.7125430  58.0469660 123.9723320  90.5434920  56.5760320 124.2880100
  77.9973080  53.3897090 126.7364020  77.2707140  52.7702380 126.6689970
  78.0582230  53.7837700 125.8662100  81.6018180  55.6042090 123.5213430
  82.1183200  54.9929450 122.9961690  82.2515560  56.1070870 124.0124440
  84.3413680  56.4950580 124.3482410  84.6291490  56.2404880 123.4715420
  84.8536900  55.9427940 124.9387980  85.5590690  40.2340780 124.9278920
  84.7762480  40.7086280 125.2075680  85.2653620  39.3295610 124.8192100
  90.1111760  40.9363880 122.9728010  90.5519850  40.8808980 122.1249610
  89.8419350  41.8521890 123.0438190  91.9750330  40.5679120 120.9836830
  91.9138730  39.6240340 120.8367850  92.7542360  40.6759210 121.5290290
  76.2803080  56.7071480 119.9460780  76.1125120  56.0742160 120.6442670
  75.4137590  56.9130880 119.5954970  76.9031100  40.5388260 117.4492640
  77.6610460  40.6517140 116.8756670  76.4408270  41.3757460 117.4036070
  83.4444910  42.6527530 120.4394950  82.6319420  42.2784420 120.0990830
  83.9486550  41.8972610 120.7416140  91.0904490  39.7191540 116.9518300
  91.2855120  40.6174990 117.2185730  90.3034360  39.4878620 117.4451250
  79.2756250  41.0652310 115.9894610  79.8049010  40.2782110 115.8602560
  79.9084570  41.7443500 116.2230140  81.4694090  40.8027450 119.0440000
  80.8396830  40.1014760 119.2110130  80.9299230  41.5631580 118.8273160
  84.4086040  57.4166680 131.7150610  85.3353350  57.1810950 131.7586570
  84.3936470  58.2438680 131.2336640  92.6431100  56.9592250 118.7124860
  92.8183290  56.2729990 118.0685780  91.9452670  57.4839300 118.3201530
  81.5949650  40.0811430 131.4792490  81.3133920  40.5845030 130.7153310
  81.9769350  39.2833180 131.1134620  88.1965110  39.4965010 132.0572960
  88.0830560  39.8159620 132.9524480  89.0134850  39.8977520 131.7610240
  90.9763600  56.6436540 131.5391650  91.7688920  56.1485770 131.3317610
  91.2696750  57.3226680 132.1467260  87.1023260  47.5157480 102.4207700
  87.0217310  46.6012090 102.1499410  86.6887680  48.0124550 101.7147410
  85.2341300  49.2936500 104.3016970  84.4583400  48.8136940 104.5915540
  85.8854230  48.6142150 104.1273130  79.2507130  49.6056310 105.1792730
  78.4192010  49.3505020 105.5789240  79.8588110  49.6767080 105.9150650
  79.2308390  53.6396400 105.3750750  79.5336430  52.7494140 105.1960970
  79.9751980  54.1966620 105.1473000  75.6232090  47.1663850 104.8474820
  76.1948200  46.3986050 104.8478460  75.6233630  47.4652610 103.9381430
  85.4812040  55.9854700 102.7020090  84.8623480  56.4412200 102.1314530
  86.3363820  56.1406160 102.3009790  84.6750290  51.9693690 104.3087130
  84.6058570  51.0283630 104.1476260  85.4370150  52.0595100 104.8809700
  76.8656960  42.5748210 106.6343750  76.6859800  41.6773960 106.9146510
  76.4637040  43.1220080 107.3090700  77.4843630  45.0708710 105.2426090
  78.1653740  45.3347080 105.8613490  77.1691680  44.2309580 105.5764100
  93.7779130  44.2881260 108.0328030  93.0731300  44.6762970 107.5143140
  94.0437050  44.9831550 108.6348960  79.9604300  40.7574630 108.5962100
  79.9622740  41.2747020 107.7908000  79.1308610  40.2804810 108.5732030
  86.3475390  50.8693940 100.0952000  85.7292660  51.3343390  99.5314720
  86.8598640  51.5621420 100.5121510  81.2107150  50.3969810 106.7735600
  80.8776530  51.0238730 107.4156670  81.3873830  50.9231690 105.9937270
  89.7241060  44.2114890 104.2411940  89.0196630  44.4999780 104.8215050
  90.0853220  45.0215000 103.8811500  79.6419630  42.4684590 106.6032550
  79.9836440  43.3126640 106.3086420  78.7035440  42.6168330 106.7197890
  80.4226250  52.3650610 108.5884780  81.0400250  53.0401690 108.3069230
  79.5619370  52.7738590 108.4972280  75.7158590  51.5550470  97.4691630
  75.3386570  52.0437570  96.7376530  75.9731660  52.2275750  98.0998160
  92.7927980  43.6569680 104.6321150  91.8452890  43.6908660 104.7636580
  93.1177970  44.4708630 105.0170510  88.8762580  55.6734150 105.2184600
  88.8889740  55.2696440 104.3506860  88.3237800  56.4481440 105.1146030
  90.1708000  52.3950370 100.3074770  90.0604330  51.4524700 100.4324190
  90.1676250  52.7566010 101.1937530  88.2748020  50.5763990 106.5467210
  88.6916810  50.3624100 105.7120670  88.9987840  50.8336780 107.1175830
  89.7425570  49.5835990 100.1672510  89.1237990  49.2455540  99.5198810
  89.7250020  48.9395750 100.8751700  81.3184920  48.5480430 102.4456990
  80.9141920  47.8357680 101.9502890  81.4048040  48.2033670 103.3345030
  81.7866620  52.2347990 104.6096200  81.4894910  51.6293460 103.9303980
  82.7366440  52.2725300 104.4985560  89.8752230  55.8079860 108.2719300
  89.3982790  56.6152050 108.0791910  89.1914020  55.1558190 108.4245510
  80.8785050  51.9729680 111.2604000  79.9813580  52.1969650 111.5077400
  80.9037920  52.0964620 110.3115400  87.9190270  48.8222800  97.1745260
  88.3583550  47.9845230  97.0283080  88.6318690  49.4552200  97.2609400
  79.7056270  48.8443000 109.8361370  79.5664040  49.7165800 110.2048770
  78.8237630  48.5015810 109.6909310  86.0285650  53.7618870 101.1426500
  86.4681560  54.5043200 100.7281890  85.9672540  54.0045440 102.0665460
  91.5007410  40.0765610  95.4886300  91.1880070  40.1692440  96.3885370
  92.2619880  40.6546640  95.4383730  78.0189550  47.4425410  99.9463640
  77.8987150  48.1687500  99.3344910  77.7090440  46.6728320  99.4691550
  75.6574920  50.6140550 105.7532280  75.7355340  50.7489320 104.8088000
  76.2716600  49.9056440 105.9460400  76.9022550  52.3140740 102.1638460
  76.4950630  52.4555330 101.3092060  77.7935560  52.0300900 101.9609670
  92.8584690  52.7604650 110.5010700  92.9847750  52.5216530 109.5827880
  92.9006070  51.9289190 110.9732780  88.6955830  56.7487990  98.4989510
  88.5356970  56.4590930  99.3971340  88.5302540  55.9728120  97.9634740
  81.1744210  56.5286520 100.2761130  80.9986690  55.6122060 100.0628930
  80.3199950  56.8873810 100.5158930  88.3981960  54.2575550  97.0587510
  87.7047120  54.2552840  96.3989790  89.1404820  53.8334870  96.6281680
  87.9631890  55.8838260 101.1336000  88.4188840  55.1027640 101.4474620
  88.3024410  56.5945080 101.6777180  75.7134440  51.6554720 108.2926740
  75.8765480  51.1860080 107.4746110  76.1786890  51.1478280 108.9575580
  84.7723020  43.6529000 108.9322630  84.3102390  43.8612020 109.7442570
  84.3701130  42.8388350 108.6293300  86.8677240  46.3739700 112.1618080
  87.1930650  45.5403450 111.8220310  87.6557570  46.8968220 112.3096410
  82.7166640  46.8079630 111.7228830  82.6210240  45.8674360 111.5729230
  83.5598620  47.0294700 111.3276900  77.8477180  43.2193300 109.8762610
  77.4540570  44.0668510 110.0835390  77.1595580  42.5819670 110.0671250
  84.4222230  43.3028270 112.9459350  83.7320550  43.1100470 113.5805440
  85.1654530  43.5862910 113.4783650  75.3364460  45.0841880  95.1195410
  75.2539130  46.0272640  95.2610400  74.9847520  44.9416790  94.2407760
  77.2873420  51.0306150 110.4522550  76.9028210  50.3899820 111.0505510
  77.5985610  51.7342270 111.0217280  79.7551720  51.1252320  98.8482230
  78.9813980  50.5849940  98.6880950  80.4846350  50.6058930  98.5099990
  85.8958500  50.1926740 110.5277620  85.8295810  49.2722410 110.2735210
  85.2663640  50.2902180 111.2422260  79.7989120  50.7932700 102.4861040
  80.3167790  49.9900960 102.4317930  79.3473140  50.7311840 103.3277870
  84.6858620  52.0598980  97.7588340  85.0274320  52.8041210  97.2631660
  83.8571330  52.3730100  98.1213170  77.2833660  47.7594070 109.3986740
  76.9248600  48.4247920 109.9860080  76.9888220  46.9277620 109.7699360
  80.4846780  48.2178310 112.2826290  80.1846920  48.3635490 111.3854110
  81.2558020  47.6583600 112.1899680  91.9899550  54.0529390  99.2762160
  91.3475710  53.3985010  99.5505880  91.6030210  54.4584480  98.5002830
  87.5686030  51.3814820 103.1233850  87.9209850  50.7842950 102.4635220
  86.6848360  51.0559050 103.2942100  83.6549310  52.1412510 100.5304260
  84.3420440  52.6881720 100.9111850  82.8681730  52.6853240 100.5653870
  75.7941710  47.7585330  96.0221340  76.6636560  48.0410130  96.3057260
  75.3032030  48.5721200  95.9070150  86.5341210  52.6597230 106.0899370
  87.1763440  51.9590390 106.2031540  87.0590560  53.4395670 105.9096260
  90.3796930  52.9445850  95.8138510  90.1534510  52.2276290  96.4063150
  89.9893130  52.6958290  94.9760260  88.3078830  53.4592130 109.2935430
  88.6435070  54.0458820 109.9713350  87.3879170  53.3284840 109.5233220
  76.1612960  56.9712710  96.5882970  76.5210600  57.5702050  95.9340240
  76.0205300  57.5172600  97.3618000  75.8582230  41.2487310 110.0758840
  75.1440750  41.4484230 110.6811450  76.2777270  40.4726880 110.4473640
  89.9613180  50.8617790  97.4752670  89.6734880  51.3230480  98.2630550
  90.7565350  50.4015560  97.7436890  76.1454820  55.2367570 111.0625370
  76.2545940  54.2962310 110.9220760  75.4935380  55.5022320 110.4139100
  82.1781580  54.3543910  97.4056640  82.1691680  55.0873600  96.7901150
  81.2579940  54.1075490  97.4983600  77.7788220  49.5758800  98.1503400
  77.1716170  50.3157700  98.1598700  78.2537570  49.6658160  97.3241600
  87.3521010  43.7409620 107.8260290  87.7201830  42.9204830 108.1539860
  86.4919210  43.8011510 108.2415940  85.1641180  54.4172150  96.0681830
  85.2653160  54.2136140  95.1383810  84.2642920  54.1630430  96.2729610
  83.8059290  56.9358470 100.7629500  84.0600790  56.8979860  99.8408870
  82.8571770  56.8091800 100.7557750  89.8111870  47.8550350 102.3388010
  88.8702010  47.8700580 102.5135700  90.1255940  47.0686310 102.7848310
  79.7893510  49.5369950  95.8991970  80.5556780  49.4251310  96.4617400
  79.8668200  48.8407920  95.2468740  78.4840270  46.9695020  96.5824860
  78.5643860  46.0222530  96.6942260  79.3760020  47.3001900  96.6885520
  79.2854980  57.1190410 103.6859400  80.0217460  56.5705870 103.9567970
  79.6695900  57.9846420 103.5465390  76.1700460  53.1863980  99.5600910
  75.2440240  53.4285120  99.5506320  76.6356890  54.0138240  99.4385660
  78.2913260  56.3036480 112.8744980  79.0925990  56.6248530 113.2880380
  77.7765080  55.9432060 113.5964890  82.3957290  56.2920720  95.5084970
  83.1885900  56.5809550  95.0566760  81.8761640  55.8612890  94.8297450
  91.4487460  55.5190850  96.9321710  91.1628970  55.1055990  96.1175890
  91.2507010  56.4478560  96.8122230  76.0111070  48.7909940 111.8181030
  76.5150090  48.2117220 112.3897260  75.2718490  49.0750170 112.3557400
  82.9134690  51.5124130  95.3727320  82.8085330  50.8976480  96.0988700
  82.7458910  50.9890020  94.5890330  83.0649010  50.1980930 111.3516550
  82.2994680  50.7665930 111.2671220  83.2464970  49.9057140 110.4584780
  86.1537420  50.5744160  95.9769310  85.6047520  51.0213460  96.6212050
  86.7756680  50.0693410  96.5006980  78.0434150  46.9339530 112.7131100
  78.0839490  46.6353400 113.6216330  78.8979650  47.3347140 112.5538620
  81.8212540  49.5335080  97.8734610  82.2428960  49.3674950  98.7166000
  81.9463380  48.7235310  97.3789750  79.9839960  45.5131630 110.6805590
  79.4536420  45.0222580 110.0528930  80.6528030  45.9415830 110.1463520
  84.3340180  48.5572690  95.1211710  84.8545840  47.8421710  94.7552860
  84.9808580  49.1958560  95.4212220  80.4712260  42.4794000 110.7602880
  80.3769130  41.8614750 110.0353750  79.8909650  43.2060290 110.5332790
  83.6433250  49.9321570 108.4142710  84.0621360  50.7754300 108.2418950
  82.7241880  50.0693610 108.1849490  80.7171440  45.6068310  94.8192770
  80.5160500  44.7435670  95.1806110  80.5463490  45.5201670  93.8814370
  82.7465920  44.2059100 111.0556370  83.3365610  43.8974950 111.7434190
  81.9286160  43.7338850 111.2116270  87.5659350  43.8224910 111.2889390
  86.8774870  43.1606450 111.2239380  88.2865370  43.3763180 111.7337850
  79.5154240  42.7068930  94.8070650  79.8180140  42.7136360  93.8989800
  80.2548830  42.3566790  95.3038310  82.7339170  41.6503550  95.7926850
  82.3861170  40.9727540  95.2129300  82.9351940  41.1893060  96.6070240
  84.8988210  56.6384300  97.4113450  85.7939000  56.9769270  97.4332210
  84.9305840  55.9163710  96.7837730  78.5384370  52.0111350  95.6400450
  78.9759240  52.5541020  96.2958030  79.0232100  51.1858300  95.6496790
  75.7530170  54.8000380 103.0920710  76.0833180  53.9321440 102.8599350
  76.1821170  55.0058900 103.9225670  80.3492090  53.1309390 100.7522680
  80.0487630  53.0074360 101.6526590  80.2429580  52.2717980 100.3438410
  76.2420380  55.6670970 105.8302340  75.8051370  55.8471770 106.6626490
  76.8098060  56.4245590 105.6884060  91.8782560  55.1687970 110.1179650
  91.2784550  55.2280530 109.3743570  92.0076460  54.2292950 110.2476500
  92.5740470  49.6553270  97.9583560  93.3359380  50.2249920  98.0643250
  92.5894840  49.0880470  98.7291870  76.0744810  48.1791200 102.1891220
  75.4193650  47.9102840 101.5450920  76.9122760  48.0695680 101.7393200
  92.6259640  49.9487640  95.1156080  92.9008480  50.8566520  94.9875300
  92.4370380  49.8850170  96.0518070  77.1120740  48.5643770 106.7294560
  77.4793780  48.4771170 107.6090580  76.5431560  47.8010320 106.6301420
  76.6636740  45.4752860 110.6352980  75.7692790  45.4419620 110.9746690
  77.2034290  45.6739650 111.4004230  75.2882890  45.3890130  98.1316550
  74.3846970  45.6520330  97.9568210  75.7723510  45.6601300  97.3516510
  77.8310100  44.4455670  96.0410930  78.5401800  44.0238890  95.5558210
  77.1150040  44.5130900  95.4094280  77.4784260  40.4995000  95.0813580
  78.2012390  41.0403940  95.3994800  77.7508780  40.2258420  94.2055120
  93.6053340  41.8356340  95.1228980  94.5302650  41.7037520  94.9147270
  93.5829130  41.9149160  96.0765430  90.6210250  56.6458550 101.7424080
  91.2169320  56.3243120 101.0658500  90.8788400  56.1730370 102.5337350
  76.9208450  39.9056860 107.7261520  76.5723270  40.3620680 108.4919700
  76.5896150  39.0113990 107.8083950  78.5272820  53.0776460 111.8914710
  78.4842450  52.7069370 112.7729170  78.6583830  54.0154030 112.0316530
  82.2278850  54.6336050 107.4924430  81.9870210  54.9010610 106.6054950
  83.1681490  54.8041780 107.5475290  84.4333270  41.0968740 111.2480940
  84.3722160  41.6890570 111.9976350  85.3733650  40.9894700 111.1031200
  77.5929090  39.4333060 111.0012290  78.1412080  39.2521110 110.2378400
  77.6584400  38.6427170 111.5368600  78.3660850  56.0238710 109.0112490
  77.7721170  55.8923410 109.7502530  78.3584690  55.1876850 108.5454590
  91.1722460  57.2953850 105.5721810  90.7125430  58.0469660 105.1979830
  90.5434920  56.5760320 105.5136610  77.9973080  53.3897090 107.9620530
  77.2707140  52.7702380 107.8946480  78.0582230  53.7837700 107.0918610
  81.6018180  55.6042090 104.7469940  82.1183200  54.9929450 104.2218200
  82.2515560  56.1070870 105.2380950  84.3413680  56.4950580 105.5738920
  84.6291490  56.2404880 104.6971930  84.8536900  55.9427940 106.1644490
  90.1111760  40.9363880 104.1984520  90.5519850  40.8808980 103.3506120
  89.8419350  41.8521890 104.2694700  91.9750330  40.5679120 102.2093340
  91.9138730  39.6240340 102.0624360  92.7542360  40.6759210 102.7546800
  76.2803080  56.7071480 101.1717290  76.1125120  56.0742160 101.8699180
  75.4137590  56.9130880 100.8211480  77.8865780  55.4004710  98.6167430
  77.3613400  55.7812740  97.9129390  77.8110360  56.0255480  99.3377140
  79.2756250  41.0652310  97.2151120  79.8049010  40.2782110  97.0859070
  79.9084570  41.7443500  97.4486650  92.6431100  56.9592250  99.9381370
  92.8183290  56.2729990  99.2942290  91.9452670  57.4839300  99.5458040
  81.5949650  40.0811430 112.7049000  81.3133920  40.5845030 111.9409820
  81.9769350  39.2833180 112.3391130  80.4858750  57.3487090  97.4916680
  81.2177570  57.0646370  96.9440570  80.7452420  57.1100370  98.3816060
  79.6473540  53.4651820  97.4963010  79.0182420  53.9336920  98.0448840
  79.7621370  52.6201040  97.9309200  87.1023260  47.5157480  83.6464210
  87.0217310  46.6012090  83.3755920  86.6887680  48.0124550  82.9403920
  85.2341300  49.2936500  85.5273480  84.4583400  48.8136940  85.8172050
  85.8854230  48.6142150  85.3529640  79.2507130  49.6056310  86.4049240
  78.4192010  49.3505020  86.8045750  79.8588110  49.6767080  87.1407160
  89.2548730  53.6996690  84.3072610  88.7930260  52.9283930  84.6359780
  90.0674280  53.7262760  84.8125060  75.6232090  47.1663850  86.0731330
  76.1948200  46.3986050  86.0734970  75.6233630  47.4652610  85.1637940
  85.7055460  44.7764070  85.7612570  86.0820280  43.9035950  85.6486240
  85.6074970  45.1122770  84.8703010  89.4879580  42.2714510  82.6940910
  90.3089200  41.7811080  82.7366390  89.5213660  42.8612170  83.4472750
  77.4843630  45.0708710  86.4682600  78.1653740  45.3347080  87.0870000
  77.1691680  44.2309580  86.8020610  81.6768200  46.1176070  85.5555190
  82.1846420  46.6157040  86.1960210  82.2081440  45.3411270  85.3794550
  93.7779130  44.2881260  89.2584540  93.0731300  44.6762970  88.7399650
  94.0437050  44.9831550  89.8605470  79.9604300  40.7574630  89.8218610
  79.9622740  41.2747020  89.0164510  79.1308610  40.2804810  89.7988540
  81.2107150  50.3969810  87.9992110  80.8776530  51.0238730  88.6413180
  81.3873830  50.9231690  87.2193780  89.7241060  44.2114890  85.4668450
  89.0196630  44.4999780  86.0471560  90.0853220  45.0215000  85.1068010
  79.6419630  42.4684590  87.8289060  79.9836440  43.3126640  87.5342930
  78.7035440  42.6168330  87.9454400  80.4226250  52.3650610  89.8141290
  81.0400250  53.0401690  89.5325740  79.5619370  52.7738590  89.7228790
  91.3403840  53.8290020  87.7295930  90.6567360  54.4989130  87.7212600
  91.8798130  54.0270670  86.9640790  92.7927980  43.6569680  85.8577660
  91.8452890  43.6908660  85.9893090  93.1177970  44.4708630  86.2427020
  83.3247520  39.9566860  84.1533650  83.6322500  39.4013750  83.4369150
  82.3948220  40.0911320  83.9706640  88.8762580  55.6734150  86.4441110
  88.8889740  55.2696440  85.5763370  88.3237800  56.4481440  86.3402540
  90.1708000  52.3950370  81.5331280  90.0604330  51.4524700  81.6580700
  90.1676250  52.7566010  82.4194040  89.7425570  49.5835990  81.3929020
  89.1237990  49.2455540  80.7455320  89.7250020  48.9395750  82.1008210
  89.1852130  45.7620530  88.8094830  88.7723310  46.5874240  89.0634820
  88.4528080  45.1765570  88.6171190  81.3184920  48.5480430  83.6713500
  80.9141920  47.8357680  83.1759400  81.4048040  48.2033670  84.5601540
  80.0313540  45.3223640  87.4512540  80.5828130  45.4318980  86.6765790
  80.5457050  45.6961240  88.1667770  89.8752230  55.8079860  89.4975810
  89.3982790  56.6152050  89.3048420  89.1914020  55.1558190  89.6502020
  80.8785050  51.9729680  92.4860510  79.9813580  52.1969650  92.7333910
  80.9037920  52.0964620  91.5371910  79.7056270  48.8443000  91.0617880
  79.5664040  49.7165800  91.4305280  78.8237630  48.5015810  90.9165820
  81.5036620  54.7864700  93.2703030  81.4752050  55.1907650  92.4031460
  81.3401590  53.8575060  93.1074630  91.5007410  40.0765610  76.7142810
  91.1880070  40.1692440  77.6141880  92.2619880  40.6546640  76.6640240
  86.7201430  56.4632650  90.2962020  87.2346100  56.3740660  91.0984450
  85.8770510  56.8092350  90.5889930  92.7108700  44.8137110  92.6916950
  92.0952970  45.3216780  92.1632410  92.3905120  43.9135440  92.6342890
  80.4853210  40.7860480  84.5543820  80.0421360  41.5670020  84.2228340
  81.0438200  41.1090370  85.2614760  84.7723020  43.6529000  90.1579140
  84.3102390  43.8612020  90.9699080  84.3701130  42.8388350  89.8549810
  89.7727530  44.8737950  91.2875800  88.9221120  44.5743700  91.6084870
  89.6129320  45.1179960  90.3759620  82.5229110  41.3307810  86.4133420
  82.8201440  42.2370640  86.3325440  83.0714670  40.8426590  85.7992990
  82.7166640  46.8079630  92.9485340  82.6210240  45.8674360  92.7985740
  83.5598620  47.0294700  92.5533410  75.1494230  41.1421760  85.1349200
  74.8607280  41.7124620  85.8474180  75.8939990  40.6626210  85.4980430
  86.6985200  47.1426710  87.0069780  85.9666320  47.6513520  87.3559880
  86.3009540  46.3256690  86.7058560  78.9864970  43.7007400  84.3716480
  78.6465020  44.1782630  85.1283530  78.2242290  43.2472520  84.0117580
  87.1611110  42.5960390  86.4192720  87.1783850  43.0469040  87.2634570
  86.9126690  41.6966030  86.6326160  90.5881860  40.0092570  92.2579100
  90.9127630  39.2782230  92.7837080  90.6238370  39.6906210  91.3560090
  83.4370560  47.8782690  87.1587680  83.8040690  47.4041260  87.9049020
  83.2475620  48.7524260  87.4996020  81.2269930  46.9191330  89.4771890
  80.9227000  47.7983310  89.7022250  82.1816390  46.9791120  89.5129330
  85.8958500  50.1926740  91.7534130  85.8295810  49.2722410  91.4991720
  85.2663640  50.2902180  92.4678770  88.6898030  45.8875290  78.3056680
  89.5777650  46.1992520  78.1308020  88.6603120  45.0147540  77.9137260
  77.2833660  47.7594070  90.6243250  76.9248600  48.4247920  91.2116590
  76.9888220  46.9277620  90.9955870  80.4846780  48.2178310  93.5082800
  80.1846920  48.3635490  92.6110620  81.2558020  47.6583600  93.4156190
  85.8275230  53.0147310  91.5037930  85.8419770  52.0828270  91.2856840
  85.1200330  53.1007070  92.1427700  90.9612300  47.1987130  77.7736540
  90.8776020  47.6301350  76.9232980  91.6806490  47.6585480  78.2063360
  91.9899550  54.0529390  80.5018670  91.3475710  53.3985010  80.7762390
  91.6030210  54.4584480  79.7259340  85.2609130  54.6564880  88.5978430
  85.9051350  54.8624260  89.2751850  85.6238570  53.8953280  88.1449280
  90.3796930  52.9445850  77.0395020  90.1534510  52.2276290  77.6319660
  89.9893130  52.6958290  76.2016770  89.9613180  50.8617790  78.7009180
  89.6734880  51.3230480  79.4887060  90.7565350  50.4015560  78.9693400
  84.1367410  53.5083460  93.6880000  83.8164280  52.7892700  94.2325690
  83.4625770  54.1838530  93.7616060  87.3521010  43.7409620  89.0516800
  87.7201830  42.9204830  89.3796370  86.4919210  43.8011510  89.4672450
  90.7183040  42.6966560  79.8604360  90.0896200  42.8012230  79.1462590
  90.2234960  42.9163340  80.6498240  84.3123000  46.3949210  89.2754770
  84.8108250  46.8695030  89.9406620  84.4545950  45.4712730  89.4824800
  91.5189860  42.6117170  90.1183160  91.0163460  43.3522570  90.4576970
  92.3346520  43.0001170  89.8019950  89.8111870  47.8550350  83.5644520
  88.8702010  47.8700580  83.7392210  90.1255940  47.0686310  84.0104820
  91.8137450  55.0259200  85.2398780  91.9384870  55.8490370  85.7122590
  92.6803010  54.8149930  84.8922930  78.2913260  56.3036480  94.1001490
  79.0925990  56.6248530  94.5136890  77.7765080  55.9432060  94.8221400
  87.1277890  52.4116350  94.0476900  86.5216050  52.4347950  93.3072650
  86.8232000  51.6799390  94.5844150  88.5578260  56.1396640  92.6586310
  89.5100010  56.0554660  92.6086550  88.4106480  56.8038350  93.3320100
  91.4487460  55.5190850  78.1578220  91.1628970  55.1055990  77.3432400
  91.2507010  56.4478560  78.0378740  76.0111070  48.7909940  93.0437540
  76.5150090  48.2117220  93.6153770  75.2718490  49.0750170  93.5813910
  83.0649010  50.1980930  92.5773060  82.2994680  50.7665930  92.4927730
  83.2464970  49.9057140  91.6841290  90.2072360  51.9286260  93.1348080
  90.9481830  52.2662020  92.6315540  89.4445040  52.0978320  92.5817850
  78.0434150  46.9339530  93.9387610  78.0839490  46.6353400  94.8472840
  78.8979650  47.3347140  93.7795130  79.9839960  45.5131630  91.9062100
  79.4536420  45.0222580  91.2785440  80.6528030  45.9415830  91.3720030
  80.4712260  42.4794000  91.9859390  80.3769130  41.8614750  91.2610260
  79.8909650  43.2060290  91.7589300  83.2373700  41.0367240  89.0186780
  82.7891000  41.0591500  88.1732330  82.6038900  40.6386260  89.6157080
  83.6433250  49.9321570  89.6399220  84.0621360  50.7754300  89.4675460
  82.7241880  50.0693610  89.4106000  85.9797150  47.6637750  91.0237060
  86.0993360  47.0678890  91.7631900  86.8391150  47.7007440  90.6038360
  81.4940670  56.2374580  90.7556950  80.9561760  56.9620640  90.4365650
  81.7474630  55.7604920  89.9654290  82.7465920  44.2059100  92.2812880
  83.3365610  43.8974950  92.9690700  81.9286160  43.7338850  92.4372780
  87.5659350  43.8224910  92.5145900  86.8774870  43.1606450  92.4495890
  88.2865370  43.3763180  92.9594360  88.1959750  40.4176540  78.5736160
  88.4762040  39.5744440  78.9295580  87.4225480  40.6499650  79.0874910
  84.3502880  57.4725790  91.0143600  84.2761580  58.3760930  91.3215970
  83.4481720  57.1537690  90.9865670  91.8782560  55.1687970  91.3436160
  91.2784550  55.2280530  90.6000080  92.0076460  54.2292950  91.4733010
  93.1184010  52.9105790  76.6805870  92.2876970  52.9782440  77.1513100
  93.2955840  53.8009910  76.3772730  92.5740470  49.6553270  79.1840070
  93.3359380  50.2249920  79.2899760  92.5894840  49.0880470  79.9548380
  93.5800440  50.5103370  84.0282000  93.9509270  49.7270690  83.6217970
  94.2202370  51.1992470  83.8499300  92.6259640  49.9487640  76.3412590
  92.9008480  50.8566520  76.2131810  92.4370380  49.8850170  77.2774580
  89.0235250  42.9732490  77.6366220  89.4420130  42.7863470  76.7962880
  88.7171310  42.1211540  77.9469150  92.5224980  47.8856630  81.3342020
  92.1468580  47.1184560  80.9023310  91.7928100  48.2679330  81.8216950
  77.1120740  48.5643770  87.9551070  77.4793780  48.4771170  88.8347090
  76.5431560  47.8010320  87.8557930  76.6636740  45.4752860  91.8609490
  75.7692790  45.4419620  92.2003200  77.2034290  45.6739650  92.6260740
  90.3512670  42.2584580  93.7461240  91.2282850  42.2667980  94.1295240
  90.3633510  41.5215420  93.1353590  91.7975940  46.1114120  84.6349260
  92.3213420  45.6176770  84.0039430  92.3835360  46.2464480  85.3796830
  91.2875910  45.3687470  80.5741670  91.7835030  45.1358340  81.3590550
  91.0891980  44.5299310  80.1579310  77.1676450  39.7501190  86.2092710
  77.8152640  39.1998570  85.7687870  77.5878290  40.0044340  87.0308520
  92.7163070  44.0048420  83.1079350  92.6062350  43.8504460  84.0461620
  93.4770660  43.4769360  82.8654760  91.0628790  39.9442550  89.5662350
  91.7001010  40.5576690  89.9321540  91.2103680  39.9803210  88.6211580
  93.6053340  41.8356340  76.3485490  94.5302650  41.7037520  76.1403780
  93.5829130  41.9149160  77.3021940  93.6791830  42.6067000  78.9742200
  92.8843330  42.5412120  79.5035110  93.8835110  43.5417640  78.9627550
  78.5272820  53.0776460  93.1171220  78.4842450  52.7069370  93.9985680
  78.6583830  54.0154030  93.2573040  82.2278850  54.6336050  88.7180940
  81.9870210  54.9010610  87.8311460  83.1681490  54.8041780  88.7731800
  84.4333270  41.0968740  92.4737450  84.3722160  41.6890570  93.2232860
  85.3733650  40.9894700  92.3287710  87.0707830  40.7538800  92.1129740
  87.6848240  41.0718090  91.4510820  87.6157390  40.2687390  92.7325600
  93.4883010  56.6530430  89.5191580  92.9941290  57.0499300  88.8018710
  92.8796300  56.0279640  89.9128860  87.8115870  39.3170940  88.4399030
  86.9375710  39.6506050  88.2371960  87.7026620  38.8444120  89.2650900
  88.7187850  41.5241810  89.8240750  88.3901210  40.7093570  89.4442480
  89.6670150  41.4811620  89.7006440  91.1722460  57.2953850  86.7978320
  90.7125430  58.0469660  86.4236340  90.5434920  56.5760320  86.7393120
  85.5590690  40.2340780  87.3791940  84.7762480  40.7086280  87.6588700
  85.2653620  39.3295610  87.2705120  90.1111760  40.9363880  85.4241030
  90.5519850  40.8808980  84.5762630  89.8419350  41.8521890  85.4951210
  91.9750330  40.5679120  83.4349850  91.9138730  39.6240340  83.2880870
  92.7542360  40.6759210  83.9803310  87.9469890  39.3169980  84.1291040
  88.5499260  39.8890190  84.6039560  87.2062880  39.8809420  83.9064940
  91.0904490  39.7191540  79.4031320  91.2855120  40.6174990  79.6698750
  90.3034360  39.4878620  79.8964270  81.4694090  40.8027450  81.4953020
  80.8396830  40.1014760  81.6623150  80.9299230  41.5631580  81.2786180
  84.4086040  57.4166680  94.1663630  85.3353350  57.1810950  94.2099590
  84.3936470  58.2438680  93.6849660  81.5949650  40.0811430  93.9305510
  81.3133920  40.5845030  93.1666330  81.9769350  39.2833180  93.5647640
  88.1965110  39.4965010  94.5085980  88.0830560  39.8159620  95.4037500
  89.0134850  39.8977520  94.2123260  90.9763600  56.6436540  93.9904670
  91.7688920  56.1485770  93.7830630  91.2696750  57.3226680  94.5980280
  93.7779130  44.2881260  70.4841050  93.0731300  44.6762970  69.9656160
  94.0437050  44.9831550  71.0861980  91.5007410  40.0765610  57.9399320
  91.1880070  40.1692440  58.8398390  92.2619880  40.6546640  57.8896750
  93.4551440  55.5691800  75.7923710  93.9311160  56.0474690  76.4712790
  94.0758600  55.5009290  75.0669210  92.8584690  52.7604650  72.9523720
  92.9847750  52.5216530  72.0340900  92.9006070  51.9289190  73.4245800
  92.7108700  44.8137110  73.9173460  92.0952970  45.3216780  73.3888920
  92.3905120  43.9135440  73.8599400  86.8677240  46.3739700  74.6131100
  87.1930650  45.5403450  74.2733330  87.6557570  46.8968220  74.7609430
  90.5881860  40.0092570  73.4835610  90.9127630  39.2782230  74.0093590
  90.6238370  39.6906210  72.5816600  92.0386440  49.6554650  72.0763020
  91.3134630  50.2483430  71.8792410  92.5661900  49.6478190  71.2776390
  91.5189860  42.6117170  71.3439670  91.0163460  43.3522570  71.6833480
  92.3346520  43.0001170  71.0276460  90.2072360  51.9286260  74.3604590
  90.9481830  52.2662020  73.8572050  89.4445040  52.0978320  73.8074360
  89.3540190  47.3197250  74.8998950  89.9360960  46.5649570  74.8119430
  89.5301960  47.8504690  74.1230430  87.5659350  43.8224910  73.7402410
  86.8774870  43.1606450  73.6752400  88.2865370  43.3763180  74.1850870
  91.9124600  47.0328150  72.1938050  91.6810690  46.8040900  71.2936000
  92.1729150  47.9527700  72.1482940  90.3512670  42.2584580  74.9717750
  91.2282850  42.2667980  75.3551750  90.3633510  41.5215420  74.3610100
  91.9765660  46.1953990  69.3825320  91.0268370  46.1617530  69.4970310
  92.1578670  47.1054100  69.1475090  91.0628790  39.9442550  70.7918860
  91.7001010  40.5576690  71.1578050  91.2103680  39.9803210  69.8468090
  93.6053340  41.8356340  57.5742000  94.5302650  41.7037520  57.3660290
  93.5829130  41.9149160  58.5278450  87.0707830  40.7538800  73.3386250
  87.6848240  41.0718090  72.6767330  87.6157390  40.2687390  73.9582110
  87.8115870  39.3170940  69.6655540  86.9375710  39.6506050  69.4628470
  87.7026620  38.8444120  70.4907410  88.7187850  41.5241810  71.0497260
  88.3901210  40.7093570  70.6698990  89.6670150  41.4811620  70.9262950
  91.9750330  40.5679120  64.6606360  91.9138730  39.6240340  64.5137380
  92.7542360  40.6759210  65.2059820  88.1965110  39.4965010  75.7342490
  88.0830560  39.8159620  76.6294010  89.0134850  39.8977520  75.4379770
  89.2548730  53.6996690  46.7585630  88.7930260  52.9283930  47.0872800
  90.0674280  53.7262760  47.2638080  77.6599080  44.5658200  42.6404650
  76.7715780  44.9074170  42.5384530  77.9440270  44.3658520  41.7485480
  85.4812040  55.9854700  46.3789620  84.8623480  56.4412200  45.8084060
  86.3363820  56.1406160  45.9779320  76.8656960  42.5748210  50.3113280
  76.6859800  41.6773960  50.5916040  76.4637040  43.1220080  50.9860230
  89.7241060  44.2114890  47.9181470  89.0196630  44.4999780  48.4984580
  90.0853220  45.0215000  47.5581030  92.7927980  43.6569680  48.3090680
  91.8452890  43.6908660  48.4406110  93.1177970  44.4708630  48.6940040
  83.3247520  39.9566860  46.6046670  83.6322500  39.4013750  45.8882170
  82.3948220  40.0911320  46.4219660  90.1708000  52.3950370  43.9844300
  90.0604330  51.4524700  44.1093720  90.1676250  52.7566010  44.8707060
  85.6997360  44.2932690  40.3373950  84.7601030  44.4546650  40.4226410
  86.0180620  45.0118370  39.7909940  89.7425570  49.5835990  43.8442040
  89.1237990  49.2455540  43.1968340  89.7250020  48.9395750  44.5521230
  87.9190270  48.8222800  40.8514790  88.3583550  47.9845230  40.7052610
  88.6318690  49.4552200  40.9378930  86.0285650  53.7618870  44.8196030
  86.4681560  54.5043200  44.4051420  85.9672540  54.0045440  45.7434990
  91.5007410  40.0765610  39.1655830  91.1880070  40.1692440  40.0654900
  92.2619880  40.6546640  39.1153260  88.6955830  56.7487990  42.1759040
  88.5356970  56.4590930  43.0740870  88.5302540  55.9728120  41.6404270
  88.3981960  54.2575550  40.7357040  87.7047120  54.2552840  40.0759320
  89.1404820  53.8334870  40.3051210  87.9631890  55.8838260  44.8105530
  88.4188840  55.1027640  45.1244150  88.3024410  56.5945080  45.3546710
  80.4853210  40.7860480  47.0056840  80.0421360  41.5670020  46.6741360
  81.0438200  41.1090370  47.7127780  83.6012030  40.4071180  41.8862670
  82.9766210  40.4031050  42.6115980  83.5142150  39.5402140  41.4898640
  82.5229110  41.3307810  48.8646440  82.8201440  42.2370640  48.7838460
  83.0714670  40.8426590  48.2506010  75.1494230  41.1421760  47.5862220
  74.8607280  41.7124620  48.2987200  75.8939990  40.6626210  47.9493450
  87.1611110  42.5960390  48.8705740  87.1783850  43.0469040  49.7147590
  86.9126690  41.6966030  49.0839180  90.5881860  40.0092570  54.7092120
  90.9127630  39.2782230  55.2350100  90.6238370  39.6906210  53.8073110
  76.3011050  42.6226380  45.7394170  76.0157970  42.2582050  46.5772790
  76.2389910  41.8906840  45.1257310  79.7551720  51.1252320  42.5251760
  78.9813980  50.5849940  42.3650480  80.4846350  50.6058930  42.1869520
  85.9749640  41.5155640  42.4607540  85.1614250  41.0168810  42.3852850
  85.7811590  42.3553890  42.0443890  88.6898030  45.8875290  40.7569700
  89.5777650  46.1992520  40.5821040  88.6603120  45.0147540  40.3650280
  84.6858620  52.0598980  41.4357870  85.0274320  52.8041210  40.9401190
  83.8571330  52.3730100  41.7982700  90.9612300  47.1987130  40.2249560
  90.8776020  47.6301350  39.3746000  91.6806490  47.6585480  40.6576380
  91.9899550  54.0529390  42.9531690  91.3475710  53.3985010  43.2275410
  91.6030210  54.4584480  42.1772360  87.5686030  51.3814820  46.8003380
  87.9209850  50.7842950  46.1404750  86.6848360  51.0559050  46.9711630
  83.6549310  52.1412510  44.2073790  84.3420440  52.6881720  44.5881380
  82.8681730  52.6853240  44.2423400  78.8588300  39.4896190  44.2921670
  78.7302930  39.4814090  45.2406590  78.0350320  39.8279280  43.9412680
  90.3796930  52.9445850  39.4908040  90.1534510  52.2276290  40.0832680
  89.9893130  52.6958290  38.6529790  76.1612960  56.9712710  40.2652500
  76.5210600  57.5702050  39.6109770  76.0205300  57.5172600  41.0387530
  89.9613180  50.8617790  41.1522200  89.6734880  51.3230480  41.9400080
  90.7565350  50.4015560  41.4206420  82.1781580  54.3543910  41.0826170
  82.1691680  55.0873600  40.4670680  81.2579940  54.1075490  41.1753130
  85.1641180  54.4172150  39.7451360  85.2653160  54.2136140  38.8153340
  84.2642920  54.1630430  39.9499140  80.8902090  43.2837590  41.1025970
  81.7392620  43.7207740  41.0366160  80.5233360  43.5957850  41.9298030
  91.5189860  42.6117170  52.5696180  91.0163460  43.3522570  52.9089990
  92.3346520  43.0001170  52.2532970  82.3957290  56.2920720  39.1854500
  83.1885900  56.5809550  38.7336290  81.8761640  55.8612890  38.5066980
  91.4487460  55.5190850  40.6091240  91.1628970  55.1055990  39.7945420
  91.2507010  56.4478560  40.4891760  82.9134690  51.5124130  39.0496850
  82.8085330  50.8976480  39.7758230  82.7458910  50.9890020  38.2659860
  86.1537420  50.5744160  39.6538840  85.6047520  51.0213460  40.2981580
  86.7756680  50.0693410  40.1776510  84.3340180  48.5572690  38.7981240
  84.8545840  47.8421710  38.4322390  84.9808580  49.1958560  39.0981750
  80.7171440  45.6068310  38.4962300  80.5160500  44.7435670  38.8575640
  80.5463490  45.5201670  37.5583900  82.7339170  41.6503550  39.4696380
  82.3861170  40.9727540  38.8898830  82.9351940  41.1893060  40.2839770
  84.8988210  56.6384300  41.0882980  85.7939000  56.9769270  41.1101740
  84.9305840  55.9163710  40.4607260  93.1184010  52.9105790  39.1318890
  92.2876970  52.9782440  39.6026120  93.2955840  53.8009910  38.8285750
  92.5740470  49.6553270  41.6353090  93.3359380  50.2249920  41.7412780
  92.5894840  49.0880470  42.4061400  76.0744810  48.1791200  45.8660750
  75.4193650  47.9102840  45.2220450  76.9122760  48.0695680  45.4162730
  93.5800440  50.5103370  46.4795020  93.9509270  49.7270690  46.0730990
  94.2202370  51.1992470  46.3012320  92.6259640  49.9487640  38.7925610
  92.9008480  50.8566520  38.6644830  92.4370380  49.8850170  39.7287600
  89.0235250  42.9732490  40.0879240  89.4420130  42.7863470  39.2475900
  88.7171310  42.1211540  40.3982170  92.5224980  47.8856630  43.7855040
  92.1468580  47.1184560  43.3536330  91.7928100  48.2679330  44.2729970
  91.7975940  46.1114120  47.0862280  92.3213420  45.6176770  46.4552450
  92.3835360  46.2464480  47.8309850  77.8310100  44.4455670  39.7180460
  78.5401800  44.0238890  39.2327740  77.1150040  44.5130900  39.0863810
  91.2875910  45.3687470  43.0254690  91.7835030  45.1358340  43.8103570
  91.0891980  44.5299310  42.6092330  77.1676450  39.7501190  48.6605730
  77.8152640  39.1998570  48.2200890  77.5878290  40.0044340  49.4821540
  92.7163070  44.0048420  45.5592370  92.6062350  43.8504460  46.4974640
  93.4770660  43.4769360  45.3167780  93.6053340  41.8356340  38.7998510
  94.5302650  41.7037520  38.5916800  93.5829130  41.9149160  39.7534960
  93.6791830  42.6067000  41.4255220  92.8843330  42.5412120  41.9548130
  93.8835110  43.5417640  41.4140570  90.6210250  56.6458550  45.4193610
  91.2169320  56.3243120  44.7428030  90.8788400  56.1730370  46.2106880
  87.0707830  40.7538800  54.5642760  87.6848240  41.0718090  53.9023840
  87.6157390  40.2687390  55.1838620  88.7187850  41.5241810  52.2753770
  88.3901210  40.7093570  51.8955500  89.6670150  41.4811620  52.1519460
  85.5590690  40.2340780  49.8304960  84.7762480  40.7086280  50.1101720
  85.2653620  39.3295610  49.7218140  90.1111760  40.9363880  47.8754050
  90.5519850  40.8808980  47.0275650  89.8419350  41.8521890  47.9464230
  76.9031100  40.5388260  42.3518680  77.6610460  40.6517140  41.7782710
  76.4408270  41.3757460  42.3062110  83.4444910  42.6527530  45.3420990
  82.6319420  42.2784420  45.0016870  83.9486550  41.8972610  45.6442180
  77.8865780  55.4004710  42.2936960  77.3613400  55.7812740  41.5898920
  77.8110360  56.0255480  43.0146670  79.2756250  41.0652310  40.8920650
  79.8049010  40.2782110  40.7628600  79.9084570  41.7443500  41.1256180
  81.4694090  40.8027450  43.9466040  80.8396830  40.1014760  44.1136170
  80.9299230  41.5631580  43.7299200  92.6431100  56.9592250  43.6150900
  92.8183290  56.2729990  42.9711820  91.9452670  57.4839300  43.2227570
  79.6473540  53.4651820  41.1732540  79.0182420  53.9336920  41.7218370
  79.7621370  52.6201040  41.6078730  85.2341300  49.2936500  29.2043010
  84.4583400  48.8136940  29.4941580  85.8854230  48.6142150  29.0299170
  79.2507130  49.6056310  30.0818770  78.4192010  49.3505020  30.4815280
  79.8588110  49.6767080  30.8176690  89.2548730  53.6996690  27.9842140
  88.7930260  52.9283930  28.3129310  90.0674280  53.7262760  28.4894590
  79.2308390  53.6396400  30.2776790  79.5336430  52.7494140  30.0987010
  79.9751980  54.1966620  30.0499040  79.8360470  43.1489700  24.8999540
  79.9427220  44.0493430  25.2068300  78.9252830  43.1007670  24.6094190
  77.4843630  45.0708710  30.1452130  78.1653740  45.3347080  30.7639530
  77.1691680  44.2309580  30.4790140  81.6768200  46.1176070  29.2324720
  82.1846420  46.6157040  29.8729740  82.2081440  45.3411270  29.0564080
  93.7779130  44.2881260  32.9354070  93.0731300  44.6762970  32.4169180
  94.0437050  44.9831550  33.5375000  86.3475390  50.8693940  24.9978040
  85.7292660  51.3343390  24.4340760  86.8598640  51.5621420  25.4147550
  81.2107150  50.3969810  31.6761640  80.8776530  51.0238730  32.3182710
  81.3873830  50.9231690  30.8963310  79.6419630  42.4684590  31.5058590
  79.9836440  43.3126640  31.2112460  78.7035440  42.6168330  31.6223930
  80.4226250  52.3650610  33.4910820  81.0400250  53.0401690  33.2095270
  79.5619370  52.7738590  33.3998320  75.7158590  51.5550470  22.3717670
  75.3386570  52.0437570  21.6402570  75.9731660  52.2275750  23.0024200
  91.3403840  53.8290020  31.4065460  90.6567360  54.4989130  31.3982130
  91.8798130  54.0270670  30.6410320  90.1708000  52.3950370  25.2100810
  90.0604330  51.4524700  25.3350230  90.1676250  52.7566010  26.0963570
  88.2748020  50.5763990  31.4493250  88.6916810  50.3624100  30.6146710
  88.9987840  50.8336780  32.0201870  85.7128280  48.0215690  24.5663300
  84.7857560  47.9553070  24.7951770  85.8653100  48.9595820  24.4518540
  85.6997360  44.2932690  21.5630460  84.7601030  44.4546650  21.6482920
  86.0180620  45.0118370  21.0166450  92.2210120  48.9751210  31.5409490
  91.3928750  49.0444300  31.0659620  92.8160600  49.5605520  31.0725320
  89.1852130  45.7620530  32.4864360  88.7723310  46.5874240  32.7404350
  88.4528080  45.1765570  32.2940720  81.3184920  48.5480430  27.3483030
  80.9141920  47.8357680  26.8528930  81.4048040  48.2033670  28.2371070
  81.7866620  52.2347990  29.5122240  81.4894910  51.6293460  28.8330020
  82.7366440  52.2725300  29.4011600  80.0313540  45.3223640  31.1282070
  80.5828130  45.4318980  30.3535320  80.5457050  45.6961240  31.8437300
  89.8752230  55.8079860  33.1745340  89.3982790  56.6152050  32.9817950
  89.1914020  55.1558190  33.3271550  80.8785050  51.9729680  36.1630040
  79.9813580  52.1969650  36.4103440  80.9037920  52.0964620  35.2141440
  87.9190270  48.8222800  22.0771300  88.3583550  47.9845230  21.9309120
  88.6318690  49.4552200  22.1635440  79.7056270  48.8443000  34.7387410
  79.5664040  49.7165800  35.1074810  78.8237630  48.5015810  34.5935350
  91.5007410  40.0765610  20.3912340  91.1880070  40.1692440  21.2911410
  92.2619880  40.6546640  20.3409770  93.4551440  55.5691800  38.2436730
  93.9311160  56.0474690  38.9225810  94.0758600  55.5009290  37.5182230
  75.6574920  50.6140550  30.6558320  75.7355340  50.7489320  29.7114040
  76.2716600  49.9056440  30.8486440  76.9022550  52.3140740  27.0664500
  76.4950630  52.4555330  26.2118100  77.7935560  52.0300900  26.8635710
  92.8584690  52.7604650  35.4036740  92.9847750  52.5216530  34.4853920
  92.9006070  51.9289190  35.8758820  86.7201430  56.4632650  33.9731550
  87.2346100  56.3740660  34.7753980  85.8770510  56.8092350  34.2659460
  88.3981960  54.2575550  21.9613550  87.7047120  54.2552840  21.3015830
  89.1404820  53.8334870  21.5307720  92.7108700  44.8137110  36.3686480
  92.0952970  45.3216780  35.8401940  92.3905120  43.9135440  36.3112420
  75.7134440  51.6554720  33.1952780  75.8765480  51.1860080  32.3772150
  76.1786890  51.1478280  33.8601620  80.4853210  40.7860480  28.2313350
  80.0421360  41.5670020  27.8997870  81.0438200  41.1090370  28.9384290
  84.7723020  43.6529000  33.8348670  84.3102390  43.8612020  34.6468610
  84.3701130  42.8388350  33.5319340  89.7727530  44.8737950  34.9645330
  88.9221120  44.5743700  35.2854400  89.6129320  45.1179960  34.0529150
  86.8677240  46.3739700  37.0644120  87.1930650  45.5403450  36.7246350
  87.6557570  46.8968220  37.2122450  83.6012030  40.4071180  23.1119180
  82.9766210  40.4031050  23.8372490  83.5142150  39.5402140  22.7155150
  82.5229110  41.3307810  30.0902950  82.8201440  42.2370640  30.0094970
  83.0714670  40.8426590  29.4762520  80.2767430  45.9094050  25.9594600
  80.0508350  45.6931220  26.8641220  79.4959960  46.3422510  25.6140570
  82.7166640  46.8079630  36.6254870  82.6210240  45.8674360  36.4755270
  83.5598620  47.0294700  36.2302940  84.4222230  43.3028270  37.8485390
  83.7320550  43.1100470  38.4831480  85.1654530  43.5862910  38.3809690
  75.3364460  45.0841880  20.0221450  75.2539130  46.0272640  20.1636440
  74.9847520  44.9416790  19.1433800  86.6985200  47.1426710  30.6839310
  85.9666320  47.6513520  31.0329410  86.3009540  46.3256690  30.3828090
  83.1362590  43.8180910  29.0891800  83.1398650  43.3770860  28.2396340
  84.0313710  44.1398240  29.1963620  78.9864970  43.7007400  28.0486010
  78.6465020  44.1782630  28.8053060  78.2242290  43.2472520  27.6887110
  83.1982740  44.8192990  22.0798560  83.3195560  44.7779470  23.0284380
  82.8131250  45.6817140  21.9245290  82.2104240  47.1294130  21.4781860
  81.6421140  46.6812380  20.8517770  82.9193240  47.4886910  20.9447010
  90.5881860  40.0092570  35.9348630  90.9127630  39.2782230  36.4606610
  90.6238370  39.6906210  35.0329620  77.2873420  51.0306150  35.3548590
  76.9028210  50.3899820  35.9531550  77.5985610  51.7342270  35.9243320
  83.4370560  47.8782690  30.8357210  83.8040690  47.4041260  31.5818550
  83.2475620  48.7524260  31.1765550  81.2269930  46.9191330  33.1541420
  80.9227000  47.7983310  33.3791780  82.1816390  46.9791120  33.1898860
  79.7551720  51.1252320  23.7508270  78.9813980  50.5849940  23.5906990
  80.4846350  50.6058930  23.4126030  90.5139700  50.1217680  29.5434660
  91.2338820  50.6172970  29.1530770  90.3121520  49.4435570  28.8988530
  85.9749640  41.5155640  23.6864050  85.1614250  41.0168810  23.6109360
  85.7811590  42.3553890  23.2700400  85.8958500  50.1926740  35.4303660
  85.8295810  49.2722410  35.1761250  85.2663640  50.2902180  36.1448300
  79.7989120  50.7932700  27.3887080  80.3167790  49.9900960  27.3343970
  79.3473140  50.7311840  28.2303910  84.6858620  52.0598980  22.6614380
  85.0274320  52.8041210  22.1657700  83.8571330  52.3730100  23.0239210
  77.2833660  47.7594070  34.3012780  76.9248600  48.4247920  34.8886120
  76.9888220  46.9277620  34.6725400  80.4846780  48.2178310  37.1852330
  80.1846920  48.3635490  36.2880150  81.2558020  47.6583600  37.0925720
  85.8275230  53.0147310  35.1807460  85.8419770  52.0828270  34.9626370
  85.1200330  53.1007070  35.8197230  90.9612300  47.1987130  21.4506070
  90.8776020  47.6301350  20.6002510  91.6806490  47.6585480  21.8832890
  92.0386440  49.6554650  34.5276040  91.3134630  50.2483430  34.3305430
  92.5661900  49.6478190  33.7289410  91.9899550  54.0529390  24.1788200
  91.3475710  53.3985010  24.4531920  91.6030210  54.4584480  23.4028870
  87.5686030  51.3814820  28.0259890  87.9209850  50.7842950  27.3661260
  86.6848360  51.0559050  28.1968140  83.6549310  52.1412510  25.4330300
  84.3420440  52.6881720  25.8137890  82.8681730  52.6853240  25.4679910
  75.7941710  47.7585330  20.9247380  76.6636560  48.0410130  21.2083300
  75.3032030  48.5721200  20.8096190  82.9576520  49.1458540  25.0455660
  83.4139300  49.9563790  25.2715850  82.6064730  48.8281680  25.8774150
  78.8588300  39.4896190  25.5178180  78.7302930  39.4814090  26.4663100
  78.0350320  39.8279280  25.1669190  86.5341210  52.6597230  30.9925410
  87.1763440  51.9590390  31.1057580  87.0590560  53.4395670  30.8122300
  90.3796930  52.9445850  20.7164550  90.1534510  52.2276290  21.3089190
  89.9893130  52.6958290  19.8786300  88.3078830  53.4592130  34.1961470
  88.6435070  54.0458820  34.8739390  87.3879170  53.3284840  34.4259260
  89.9613180  50.8617790  22.3778710  89.6734880  51.3230480  23.1656590
  90.7565350  50.4015560  22.6462930  84.1367410  53.5083460  37.3649530
  83.8164280  52.7892700  37.9095220  83.4625770  54.1838530  37.4385590
  77.7788220  49.5758800  23.0529440  77.1716170  50.3157700  23.0624740
  78.2537570  49.6658160  22.2267640  87.3521010  43.7409620  32.7286330
  87.7201830  42.9204830  33.0565900  86.4919210  43.8011510  33.1441980
  90.7183040  42.6966560  23.5373890  90.0896200  42.8012230  22.8232120
  90.2234960  42.9163340  24.3267770  85.1641180  54.4172150  20.9707870
  85.2653160  54.2136140  20.0409850  84.2642920  54.1630430  21.1755650
  82.6867070  44.9752510  24.9531770  81.9783220  45.4438850  25.3945380
  82.9711550  44.3174520  25.5876960  84.3123000  46.3949210  32.9524300
  84.8108250  46.8695030  33.6176150  84.4545950  45.4712730  33.1594330
  80.8902090  43.2837590  22.3282480  81.7392620  43.7207740  22.2622670
  80.5233360  43.5957850  23.1554540  91.5189860  42.6117170  33.7952690
  91.0163460  43.3522570  34.1346500  92.3346520  43.0001170  33.4789480
  79.7893510  49.5369950  20.8018010  80.5556780  49.4251310  21.3643440
  79.8668200  48.8407920  20.1494780  78.4840270  46.9695020  21.4850900
  78.5643860  46.0222530  21.5968300  79.3760020  47.3001900  21.5911560
  91.8137450  55.0259200  28.9168310  91.9384870  55.8490370  29.3892120
  92.6803010  54.8149930  28.5692460  79.2854980  57.1190410  28.5885440
  80.0217460  56.5705870  28.8594010  79.6695900  57.9846420  28.4491430
  87.1277890  52.4116350  37.7246430  86.5216050  52.4347950  36.9842180
  86.8232000  51.6799390  38.2613680  88.5578260  56.1396640  36.3355840
  89.5100010  56.0554660  36.2856080  88.4106480  56.8038350  37.0089630
  91.4487460  55.5190850  21.8347750  91.1628970  55.1055990  21.0201930
  91.2507010  56.4478560  21.7148270  82.9134690  51.5124130  20.2753360
  82.8085330  50.8976480  21.0014740  82.7458910  50.9890020  19.4916370
  83.0649010  50.1980930  36.2542590  82.2994680  50.7665930  36.1697260
  83.2464970  49.9057140  35.3610820  86.1537420  50.5744160  20.8795350
  85.6047520  51.0213460  21.5238090  86.7756680  50.0693410  21.4033020
  90.2072360  51.9286260  36.8117610  90.9481830  52.2662020  36.3085070
  89.4445040  52.0978320  36.2587380  81.8212540  49.5335080  22.7760650
  82.2428960  49.3674950  23.6192040  81.9463380  48.7235310  22.2815790
  84.3340180  48.5572690  20.0237750  84.8545840  47.8421710  19.6578900
  84.9808580  49.1958560  20.3238260  88.8818020  49.9801090  35.3472820
  89.2959040  50.1346170  36.1963240  87.9469020  50.1056310  35.5098600
  89.3540190  47.3197250  37.3511970  89.9360960  46.5649570  37.2632450
  89.5301960  47.8504690  36.5743450  83.2373700  41.0367240  32.6956310
  82.7891000  41.0591500  31.8501860  82.6038900  40.6386260  33.2926610
  83.6433250  49.9321570  33.3168750  84.0621360  50.7754300  33.1444990
  82.7241880  50.0693610  33.0875530  85.9797150  47.6637750  34.7006590
  86.0993360  47.0678890  35.4401430  86.8391150  47.7007440  34.2807890
  88.3185050  48.2174940  33.2769100  87.7920270  48.7417560  32.6734240
  88.6616390  48.8502330  33.9078830  80.7171440  45.6068310  19.7218810
  80.5160500  44.7435670  20.0832150  80.5463490  45.5201670  18.7840410
  82.7465920  44.2059100  35.9582410  83.3365610  43.8974950  36.6460230
  81.9286160  43.7338850  36.1142310  87.5659350  43.8224910  36.1915430
  86.8774870  43.1606450  36.1265420  88.2865370  43.3763180  36.6363890
  88.1959750  40.4176540  22.2505690  88.4762040  39.5744440  22.6065110
  87.4225480  40.6499650  22.7644440  79.5154240  42.7068930  19.7096690
  79.8180140  42.7136360  18.8015840  80.2548830  42.3566790  20.2064350
  84.3502880  57.4725790  34.6913130  84.2761580  58.3760930  34.9985500
  83.4481720  57.1537690  34.6635200  82.7339170  41.6503550  20.6952890
  82.3861170  40.9727540  20.1155340  82.9351940  41.1893060  21.5096280
  78.5384370  52.0111350  20.5426490  78.9759240  52.5541020  21.1984070
  79.0232100  51.1858300  20.5522830  75.7530170  54.8000380  27.9946750
  76.0833180  53.9321440  27.7625390  76.1821170  55.0058900  28.8251710
  80.3492090  53.1309390  25.6548720  80.0487630  53.0074360  26.5552630
  80.2429580  52.2717980  25.2464450  91.8782560  55.1687970  35.0205690
  91.2784550  55.2280530  34.2769610  92.0076460  54.2292950  35.1502540
  93.1184010  52.9105790  20.3575400  92.2876970  52.9782440  20.8282630
  93.2955840  53.8009910  20.0542260  92.5740470  49.6553270  22.8609600
  93.3359380  50.2249920  22.9669290  92.5894840  49.0880470  23.6317910
  93.5800440  50.5103370  27.7051530  93.9509270  49.7270690  27.2987500
  94.2202370  51.1992470  27.5268830  90.5634200  51.8939950  33.1181850
  89.7494040  52.3237110  33.3807640  90.9708400  52.5058360  32.5050900
  92.6259640  49.9487640  20.0182120  92.9008480  50.8566520  19.8901340
  92.4370380  49.8850170  20.9544110  89.0235250  42.9732490  21.3135750
  89.4420130  42.7863470  20.4732410  88.7171310  42.1211540  21.6238680
  77.1120740  48.5643770  31.6320600  77.4793780  48.4771170  32.5116620
  76.5431560  47.8010320  31.5327460  91.9124600  47.0328150  34.6451070
  91.6810690  46.8040900  33.7449020  92.1729150  47.9527700  34.5995960
  90.3512670  42.2584580  37.4230770  91.2282850  42.2667980  37.8064770
  90.3633510  41.5215420  36.8123120  91.9765660  46.1953990  31.8338340
  91.0268370  46.1617530  31.9483330  92.1578670  47.1054100  31.5988110
  77.8310100  44.4455670  20.9436970  78.5401800  44.0238890  20.4584250
  77.1150040  44.5130900  20.3120320  77.4784260  40.4995000  19.9839620
  78.2012390  41.0403940  20.3020840  77.7508780  40.2258420  19.1081160
  77.1676450  39.7501190  29.8862240  77.8152640  39.1998570  29.4457400
  77.5878290  40.0044340  30.7078050  91.0628790  39.9442550  33.2431880
  91.7001010  40.5576690  33.6091070  91.2103680  39.9803210  32.2981110
  93.6053340  41.8356340  20.0255020  94.5302650  41.7037520  19.8173310
  93.5829130  41.9149160  20.9791470  93.6791830  42.6067000  22.6511730
  92.8843330  42.5412120  23.1804640  93.8835110  43.5417640  22.6397080
  90.6210250  56.6458550  26.6450120  91.2169320  56.3243120  25.9684540
  90.8788400  56.1730370  27.4363390  84.4333270  41.0968740  36.1506980
  84.3722160  41.6890570  36.9002390  85.3733650  40.9894700  36.0057240
  87.0707830  40.7538800  35.7899270  87.6848240  41.0718090  35.1280350
  87.6157390  40.2687390  36.4095130  93.4883010  56.6530430  33.1961110
  92.9941290  57.0499300  32.4788240  92.8796300  56.0279640  33.5898390
  91.1722460  57.2953850  30.4747850  90.7125430  58.0469660  30.1005870
  90.5434920  56.5760320  30.4162650  77.9973080  53.3897090  32.8646570
  77.2707140  52.7702380  32.7972520  78.0582230  53.7837700  31.9944650
  76.2803080  56.7071480  26.0743330  76.1125120  56.0742160  26.7725220
  75.4137590  56.9130880  25.7237520  76.9031100  40.5388260  23.5775190
  77.6610460  40.6517140  23.0039220  76.4408270  41.3757460  23.5318620
  83.4444910  42.6527530  26.5677500  82.6319420  42.2784420  26.2273380
  83.9486550  41.8972610  26.8698690  79.2756250  41.0652310  22.1177160
  79.8049010  40.2782110  21.9885110  79.9084570  41.7443500  22.3512690
  81.4694090  40.8027450  25.1722550  80.8396830  40.1014760  25.3392680
  80.9299230  41.5631580  24.9555710  84.4086040  57.4166680  37.8433160
  85.3353350  57.1810950  37.8869120  84.3936470  58.2438680  37.3619190
  92.6431100  56.9592250  24.8407410  92.8183290  56.2729990  24.1968330
  91.9452670  57.4839300  24.4484080  81.5949650  40.0811430  37.6075040
  81.3133920  40.5845030  36.8435860  81.9769350  39.2833180  37.2417170
  88.1965110  39.4965010  38.1855510  88.0830560  39.8159620  39.0807030
  89.0134850  39.8977520  37.8892790  90.9763600  56.6436540  37.6674200
  91.7688920  56.1485770  37.4600160  91.2696750  57.3226680  38.2749810
  87.1023260  47.5157480   8.5490250  87.0217310  46.6012090   8.2781960
  86.6887680  48.0124550   7.8429960  85.2341300  49.2936500  10.4299520
  84.4583400  48.8136940  10.7198090  85.8854230  48.6142150  10.2555680
  79.2507130  49.6056310  11.3075280  78.4192010  49.3505020  11.7071790
  79.8588110  49.6767080  12.0433200  89.2548730  53.6996690   9.2098650
  88.7930260  52.9283930   9.5385820  90.0674280  53.7262760   9.7151100
  79.2308390  53.6396400  11.5033300  79.5336430  52.7494140  11.3243520
  79.9751980  54.1966620  11.2755550  77.6599080  44.5658200   5.0917670
  76.7715780  44.9074170   4.9897550  77.9440270  44.3658520   4.1998500
  75.6232090  47.1663850  10.9757370  76.1948200  46.3986050  10.9761010
  75.6233630  47.4652610  10.0663980  85.4812040  55.9854700   8.8302640
  84.8623480  56.4412200   8.2597080  86.3363820  56.1406160   8.4292340
  84.6750290  51.9693690  10.4369680  84.6058570  51.0283630  10.2758810
  85.4370150  52.0595100  11.0092250  76.8656960  42.5748210  12.7626300
  76.6859800  41.6773960  13.0429060  76.4637040  43.1220080  13.4373250
  85.7055460  44.7764070  10.6638610  86.0820280  43.9035950  10.5512280
  85.6074970  45.1122770   9.7729050  79.8360470  43.1489700   6.1256050
  79.9427220  44.0493430   6.4324810  78.9252830  43.1007670   5.8350700
  89.4879580  42.2714510   7.5966950  90.3089200  41.7811080   7.6392430
  89.5213660  42.8612170   8.3498790  77.4843630  45.0708710  11.3708640
  78.1653740  45.3347080  11.9896040  77.1691680  44.2309580  11.7046650
  81.6768200  46.1176070  10.4581230  82.1846420  46.6157040  11.0986250
  82.2081440  45.3411270  10.2820590  93.7779130  44.2881260  14.1610580
  93.0731300  44.6762970  13.6425690  94.0437050  44.9831550  14.7631510
  79.9604300  40.7574630  14.7244650  79.9622740  41.2747020  13.9190550
  79.1308610  40.2804810  14.7014580  86.3475390  50.8693940   6.2234550
  85.7292660  51.3343390   5.6597270  86.8598640  51.5621420   6.6404060
  81.2107150  50.3969810  12.9018150  80.8776530  51.0238730  13.5439220
  81.3873830  50.9231690  12.1219820  89.7241060  44.2114890  10.3694490
  89.0196630  44.4999780  10.9497600  90.0853220  45.0215000  10.0094050
  79.6419630  42.4684590  12.7315100  79.9836440  43.3126640  12.4368970
  78.7035440  42.6168330  12.8480440  80.4226250  52.3650610  14.7167330
  81.0400250  53.0401690  14.4351780  79.5619370  52.7738590  14.6254830
  75.7158590  51.5550470   3.5974180  75.3386570  52.0437570   2.8659080
  75.9731660  52.2275750   4.2280710  91.3403840  53.8290020  12.6321970
  90.6567360  54.4989130  12.6238640  91.8798130  54.0270670  11.8666830
  92.7927980  43.6569680  10.7603700  91.8452890  43.6908660  10.8919130
  93.1177970  44.4708630  11.1453060  83.3247520  39.9566860   9.0559690
  83.6322500  39.4013750   8.3395190  82.3948220  40.0911320   8.8732680
  88.8762580  55.6734150  11.3467150  88.8889740  55.2696440  10.4789410
  88.3237800  56.4481440  11.2428580  90.1708000  52.3950370   6.4357320
  90.0604330  51.4524700   6.5606740  90.1676250  52.7566010   7.3220080
  88.2748020  50.5763990  12.6749760  88.6916810  50.3624100  11.8403220
  88.9987840  50.8336780  13.2458380  85.7128280  48.0215690   5.7919810
  84.7857560  47.9553070   6.0208280  85.8653100  48.9595820   5.6775050
  85.6997360  44.2932690   2.7886970  84.7601030  44.4546650   2.8739430
  86.0180620  45.0118370   2.2422960  92.2210120  48.9751210  12.7666000
  91.3928750  49.0444300  12.2916130  92.8160600  49.5605520  12.2981830
  89.7425570  49.5835990   6.2955060  89.1237990  49.2455540   5.6481360
  89.7250020  48.9395750   7.0034250  89.1852130  45.7620530  13.7120870
  88.7723310  46.5874240  13.9660860  88.4528080  45.1765570  13.5197230
  81.3184920  48.5480430   8.5739540  80.9141920  47.8357680   8.0785440
  81.4048040  48.2033670   9.4627580  81.7866620  52.2347990  10.7378750
  81.4894910  51.6293460  10.0586530  82.7366440  52.2725300  10.6268110
  80.0313540  45.3223640  12.3538580  80.5828130  45.4318980  11.5791830
  80.5457050  45.6961240  13.0693810  89.8752230  55.8079860  14.4001850
  89.3982790  56.6152050  14.2074460  89.1914020  55.1558190  14.5528060
  80.8785050  51.9729680  17.3886550  79.9813580  52.1969650  17.6359950
  80.9037920  52.0964620  16.4397950  87.9190270  48.8222800   3.3027810
  88.3583550  47.9845230   3.1565630  88.6318690  49.4552200   3.3891950
  79.7056270  48.8443000  15.9643920  79.5664040  49.7165800  16.3331320
  78.8237630  48.5015810  15.8191860  86.0285650  53.7618870   7.2709050
  86.4681560  54.5043200   6.8564440  85.9672540  54.0045440   8.1948010
  81.5036620  54.7864700  18.1729070  81.4752050  55.1907650  17.3057500
  81.3401590  53.8575060  18.0100670  78.0189550  47.4425410   6.0746190
  77.8987150  48.1687500   5.4627460  77.7090440  46.6728320   5.5974100
  93.4551440  55.5691800  19.4693240  93.9311160  56.0474690  20.1482320
  94.0758600  55.5009290  18.7438740  75.6574920  50.6140550  11.8814830
  75.7355340  50.7489320  10.9370550  76.2716600  49.9056440  12.0742950
  76.9022550  52.3140740   8.2921010  76.4950630  52.4555330   7.4374610
  77.7935560  52.0300900   8.0892220  92.8584690  52.7604650  16.6293250
  92.9847750  52.5216530  15.7110430  92.9006070  51.9289190  17.1015330
  86.7201430  56.4632650  15.1988060  87.2346100  56.3740660  16.0010490
  85.8770510  56.8092350  15.4915970  88.6955830  56.7487990   4.6272060
  88.5356970  56.4590930   5.5253890  88.5302540  55.9728120   4.0917290
  81.1744210  56.5286520   6.4043680  80.9986690  55.6122060   6.1911480
  80.3199950  56.8873810   6.6441480  88.3981960  54.2575550   3.1870060
  87.7047120  54.2552840   2.5272340  89.1404820  53.8334870   2.7564230
  87.9631890  55.8838260   7.2618550  88.4188840  55.1027640   7.5757170
  88.3024410  56.5945080   7.8059730  92.7108700  44.8137110  17.5942990
  92.0952970  45.3216780  17.0658450  92.3905120  43.9135440  17.5368930
  75.7134440  51.6554720  14.4209290  75.8765480  51.1860080  13.6028660
  76.1786890  51.1478280  15.0858130  80.4853210  40.7860480   9.4569860
  80.0421360  41.5670020   9.1254380  81.0438200  41.1090370  10.1640800
  84.7723020  43.6529000  15.0605180  84.3102390  43.8612020  15.8725120
  84.3701130  42.8388350  14.7575850  89.7727530  44.8737950  16.1901840
  88.9221120  44.5743700  16.5110910  89.6129320  45.1179960  15.2785660
  86.8677240  46.3739700  18.2900630  87.1930650  45.5403450  17.9502860
  87.6557570  46.8968220  18.4378960  83.6012030  40.4071180   4.3375690
  82.9766210  40.4031050   5.0629000  83.5142150  39.5402140   3.9411660
  82.5229110  41.3307810  11.3159460  82.8201440  42.2370640  11.2351480
  83.0714670  40.8426590  10.7019030  80.2767430  45.9094050   7.1851110
  80.0508350  45.6931220   8.0897730  79.4959960  46.3422510   6.8397080
  87.5065190  45.9157420   5.7841760  86.9074080  46.6393220   5.6005380
  88.0544800  45.8534200   5.0018210  82.7166640  46.8079630  17.8511380
  82.6210240  45.8674360  17.7011780  83.5598620  47.0294700  17.4559450
  86.1130060  44.5520960   7.8145040  86.5059630  44.8693160   7.0013730
  86.4746910  43.6732840   7.9289560  77.8477180  43.2193300  16.0045160
  77.4540570  44.0668510  16.2117940  77.1595580  42.5819670  16.1953800
  84.4222230  43.3028270  19.0741900  83.7320550  43.1100470  19.7087990
  85.1654530  43.5862910  19.6066200  75.1494230  41.1421760  10.0375240
  74.8607280  41.7124620  10.7500220  75.8939990  40.6626210  10.4006470
  86.6985200  47.1426710  11.9095820  85.9666320  47.6513520  12.2585920
  86.3009540  46.3256690  11.6084600  83.1362590  43.8180910  10.3148310
  83.1398650  43.3770860   9.4652850  84.0313710  44.1398240  10.4220130
  78.9864970  43.7007400   9.2742520  78.6465020  44.1782630  10.0309570
  78.2242290  43.2472520   8.9143620  83.1982740  44.8192990   3.3055070
  83.3195560  44.7779470   4.2540890  82.8131250  45.6817140   3.1501800
  87.1611110  42.5960390  11.3218760  87.1783850  43.0469040  12.1660610
  86.9126690  41.6966030  11.5352200  82.2104240  47.1294130   2.7038370
  81.6421140  46.6812380   2.0774280  82.9193240  47.4886910   2.1703520
  90.5881860  40.0092570  17.1605140  90.9127630  39.2782230  17.6863120
  90.6238370  39.6906210  16.2586130  77.2873420  51.0306150  16.5805100
  76.9028210  50.3899820  17.1788060  77.5985610  51.7342270  17.1499830
  83.4370560  47.8782690  12.0613720  83.8040690  47.4041260  12.8075060
  83.2475620  48.7524260  12.4022060  76.3011050  42.6226380   8.1907190
  76.0157970  42.2582050   9.0285810  76.2389910  41.8906840   7.5770330
  81.2269930  46.9191330  14.3797930  80.9227000  47.7983310  14.6048290
  82.1816390  46.9791120  14.4155370  79.7551720  51.1252320   4.9764780
  78.9813980  50.5849940   4.8163500  80.4846350  50.6058930   4.6382540
  90.5139700  50.1217680  10.7691170  91.2338820  50.6172970  10.3787280
  90.3121520  49.4435570  10.1245040  85.9749640  41.5155640   4.9120560
  85.1614250  41.0168810   4.8365870  85.7811590  42.3553890   4.4956910
  85.8958500  50.1926740  16.6560170  85.8295810  49.2722410  16.4017760
  85.2663640  50.2902180  17.3704810  88.6898030  45.8875290   3.2082720
  89.5777650  46.1992520   3.0334060  88.6603120  45.0147540   2.8163300
  79.7989120  50.7932700   8.6143590  80.3167790  49.9900960   8.5600480
  79.3473140  50.7311840   9.4560420  84.6858620  52.0598980   3.8870890
  85.0274320  52.8041210   3.3914210  83.8571330  52.3730100   4.2495720
  77.2833660  47.7594070  15.5269290  76.9248600  48.4247920  16.1142630
  76.9888220  46.9277620  15.8981910  80.4846780  48.2178310  18.4108840
  80.1846920  48.3635490  17.5136660  81.2558020  47.6583600  18.3182230
  85.8275230  53.0147310  16.4063970  85.8419770  52.0828270  16.1882880
  85.1200330  53.1007070  17.0453740  90.9612300  47.1987130   2.6762580
  90.8776020  47.6301350   1.8259020  91.6806490  47.6585480   3.1089400
  92.0386440  49.6554650  15.7532550  91.3134630  50.2483430  15.5561940
  92.5661900  49.6478190  14.9545920  91.9899550  54.0529390   5.4044710
  91.3475710  53.3985010   5.6788430  91.6030210  54.4584480   4.6285380
  87.5686030  51.3814820   9.2516400  87.9209850  50.7842950   8.5917770
  86.6848360  51.0559050   9.4224650  83.6549310  52.1412510   6.6586810
  84.3420440  52.6881720   7.0394400  82.8681730  52.6853240   6.6936420
  75.7941710  47.7585330   2.1503890  76.6636560  48.0410130   2.4339810
  75.3032030  48.5721200   2.0352700  82.9576520  49.1458540   6.2712170
  83.4139300  49.9563790   6.4972360  82.6064730  48.8281680   7.1030660
  85.2609130  54.6564880  13.5004470  85.9051350  54.8624260  14.1777890
  85.6238570  53.8953280  13.0475320  78.8588300  39.4896190   6.7434690
  78.7302930  39.4814090   7.6919610  78.0350320  39.8279280   6.3925700
  86.5341210  52.6597230  12.2181920  87.1763440  51.9590390  12.3314090
  87.0590560  53.4395670  12.0378810  88.3078830  53.4592130  15.4217980
  88.6435070  54.0458820  16.0995900  87.3879170  53.3284840  15.6515770
  76.1612960  56.9712710   2.7165520  76.5210600  57.5702050   2.0622790
  76.0205300  57.5172600   3.4900550  75.8582230  41.2487310  16.2041390
  75.1440750  41.4484230  16.8094000  76.2777270  40.4726880  16.5756190
  89.9613180  50.8617790   3.6035220  89.6734880  51.3230480   4.3913100
  90.7565350  50.4015560   3.8719440  76.1454820  55.2367570  17.1907920
  76.2545940  54.2962310  17.0503310  75.4935380  55.5022320  16.5421650
  84.1367410  53.5083460  18.5906040  83.8164280  52.7892700  19.1351730
  83.4625770  54.1838530  18.6642100  82.1781580  54.3543910   3.5339190
  82.1691680  55.0873600   2.9183700  81.2579940  54.1075490   3.6266150
  77.7788220  49.5758800   4.2785950  77.1716170  50.3157700   4.2881250
  78.2537570  49.6658160   3.4524150  87.3521010  43.7409620  13.9542840
  87.7201830  42.9204830  14.2822410  86.4919210  43.8011510  14.3698490
  90.7183040  42.6966560   4.7630400  90.0896200  42.8012230   4.0488630
  90.2234960  42.9163340   5.5524280  82.6867070  44.9752510   6.1788280
  81.9783220  45.4438850   6.6201890  82.9711550  44.3174520   6.8133470
  84.3123000  46.3949210  14.1780810  84.8108250  46.8695030  14.8432660
  84.4545950  45.4712730  14.3850840  86.7182500  41.7003170   7.6184070
  86.5950280  41.7189300   6.6693580  87.6667060  41.7482110   7.7382470
  83.8059290  56.9358470   6.8912050  84.0600790  56.8979860   5.9691420
  82.8571770  56.8091800   6.8840300  80.8902090  43.2837590   3.5538990
  81.7392620  43.7207740   3.4879180  80.5233360  43.5957850   4.3811050
  91.5189860  42.6117170  15.0209200  91.0163460  43.3522570  15.3603010
  92.3346520  43.0001170  14.7045990  89.8111870  47.8550350   8.4670560
  88.8702010  47.8700580   8.6418250  90.1255940  47.0686310   8.9130860
  78.4840270  46.9695020   2.7107410  78.5643860  46.0222530   2.8224810
  79.3760020  47.3001900   2.8168070  91.8137450  55.0259200  10.1424820
  91.9384870  55.8490370  10.6148630  92.6803010  54.8149930   9.7948970
  79.2854980  57.1190410   9.8141950  80.0217460  56.5705870  10.0850520
  79.6695900  57.9846420   9.6747940  76.1700460  53.1863980   5.6883460
  75.2440240  53.4285120   5.6788870  76.6356890  54.0138240   5.5668210
  87.1277890  52.4116350  18.9502940  86.5216050  52.4347950  18.2098690
  86.8232000  51.6799390  19.4870190  88.5578260  56.1396640  17.5612350
  89.5100010  56.0554660  17.5112590  88.4106480  56.8038350  18.2346140
  91.4487460  55.5190850   3.0604260  91.1628970  55.1055990   2.2458440
  91.2507010  56.4478560   2.9404780  76.0111070  48.7909940  17.9463580
  76.5150090  48.2117220  18.5179810  75.2718490  49.0750170  18.4839950
  83.0649010  50.1980930  17.4799100  82.2994680  50.7665930  17.3953770
  83.2464970  49.9057140  16.5867330  86.1537420  50.5744160   2.1051860
  85.6047520  51.0213460   2.7494600  86.7756680  50.0693410   2.6289530
  90.2072360  51.9286260  18.0374120  90.9481830  52.2662020  17.5341580
  89.4445040  52.0978320  17.4843890  78.0434150  46.9339530  18.8413650
  78.0839490  46.6353400  19.7498880  78.8979650  47.3347140  18.6821170
  81.8212540  49.5335080   4.0017160  82.2428960  49.3674950   4.8448550
  81.9463380  48.7235310   3.5072300  79.9839960  45.5131630  16.8088140
  79.4536420  45.0222580  16.1811480  80.6528030  45.9415830  16.2746070
  88.8818020  49.9801090  16.5729330  89.2959040  50.1346170  17.4219750
  87.9469020  50.1056310  16.7355110  89.3540190  47.3197250  18.5768480
  89.9360960  46.5649570  18.4888960  89.5301960  47.8504690  17.7999960
  80.4712260  42.4794000  16.8885430  80.3769130  41.8614750  16.1636300
  79.8909650  43.2060290  16.6615340  83.2373700  41.0367240  13.9212820
  82.7891000  41.0591500  13.0758370  82.6038900  40.6386260  14.5183120
  83.6433250  49.9321570  14.5425260  84.0621360  50.7754300  14.3701500
  82.7241880  50.0693610  14.3132040  85.9797150  47.6637750  15.9263100
  86.0993360  47.0678890  16.6657940  86.8391150  47.7007440  15.5064400
  88.3185050  48.2174940  14.5025610  87.7920270  48.7417560  13.8990750
  88.6616390  48.8502330  15.1335340  81.4940670  56.2374580  15.6582990
  80.9561760  56.9620640  15.3391690  81.7474630  55.7604920  14.8680330
  82.7465920  44.2059100  17.1838920  83.3365610  43.8974950  17.8716740
  81.9286160  43.7338850  17.3398820  87.5659350  43.8224910  17.4171940
  86.8774870  43.1606450  17.3521930  88.2865370  43.3763180  17.8620400
  88.1959750  40.4176540   3.4762200  88.4762040  39.5744440   3.8321620
  87.4225480  40.6499650   3.9900950  84.3502880  57.4725790  15.9169640
  84.2761580  58.3760930  16.2242010  83.4481720  57.1537690  15.8891710
  84.8988210  56.6384300   3.5396000  85.7939000  56.9769270   3.5614760
  84.9305840  55.9163710   2.9120280  78.5384370  52.0111350   1.7683000
  78.9759240  52.5541020   2.4240580  79.0232100  51.1858300   1.7779340
  75.7530170  54.8000380   9.2203260  76.0833180  53.9321440   8.9881900
  76.1821170  55.0058900  10.0508220  80.3492090  53.1309390   6.8805230
  80.0487630  53.0074360   7.7809140  80.2429580  52.2717980   6.4720960
  76.2420380  55.6670970  11.9584890  75.8051370  55.8471770  12.7909040
  76.8098060  56.4245590  11.8166610  91.8782560  55.1687970  16.2462200
  91.2784550  55.2280530  15.5026120  92.0076460  54.2292950  16.3759050
  92.5740470  49.6553270   4.0866110  93.3359380  50.2249920   4.1925800
  92.5894840  49.0880470   4.8574420  76.0744810  48.1791200   8.3173770
  75.4193650  47.9102840   7.6733470  76.9122760  48.0695680   7.8675750
  93.5800440  50.5103370   8.9308040  93.9509270  49.7270690   8.5244010
  94.2202370  51.1992470   8.7525340  90.5634200  51.8939950  14.3438360
  89.7494040  52.3237110  14.6064150  90.9708400  52.5058360  13.7307410
  89.0235250  42.9732490   2.5392260  89.4420130  42.7863470   1.6988920
  88.7171310  42.1211540   2.8495190  92.5224980  47.8856630   6.2368060
  92.1468580  47.1184560   5.8049350  91.7928100  48.2679330   6.7242990
  77.1120740  48.5643770  12.8577110  77.4793780  48.4771170  13.7373130
  76.5431560  47.8010320  12.7583970  91.9124600  47.0328150  15.8707580
  91.6810690  46.8040900  14.9705530  92.1729150  47.9527700  15.8252470
  76.6636740  45.4752860  16.7635530  75.7692790  45.4419620  17.1029240
  77.2034290  45.6739650  17.5286780  90.3512670  42.2584580  18.6487280
  91.2282850  42.2667980  19.0321280  90.3633510  41.5215420  18.0379630
  75.2882890  45.3890130   4.2599100  74.3846970  45.6520330   4.0850760
  75.7723510  45.6601300   3.4799060  91.7975940  46.1114120   9.5375300
  92.3213420  45.6176770   8.9065470  92.3835360  46.2464480  10.2822870
  91.9765660  46.1953990  13.0594850  91.0268370  46.1617530  13.1739840
  92.1578670  47.1054100  12.8244620  91.2875910  45.3687470   5.4767710
  91.7835030  45.1358340   6.2616590  91.0891980  44.5299310   5.0605350
  77.1676450  39.7501190  11.1118750  77.8152640  39.1998570  10.6713910
  77.5878290  40.0044340  11.9334560  92.7163070  44.0048420   8.0105390
  92.6062350  43.8504460   8.9487660  93.4770660  43.4769360   7.7680800
  91.0628790  39.9442550  14.4688390  91.7001010  40.5576690  14.8347580
  91.2103680  39.9803210  13.5237620  93.6791830  42.6067000   3.8768240
  92.8843330  42.5412120   4.4061150  93.8835110  43.5417640   3.8653590
  90.6210250  56.6458550   7.8706630  91.2169320  56.3243120   7.1941050
  90.8788400  56.1730370   8.6619900  76.9208450  39.9056860  13.8544070
  76.5723270  40.3620680  14.6202250  76.5896150  39.0113990  13.9366500
  78.5272820  53.0776460  18.0197260  78.4842450  52.7069370  18.9011720
  78.6583830  54.0154030  18.1599080  82.2278850  54.6336050  13.6206980
  81.9870210  54.9010610  12.7337500  83.1681490  54.8041780  13.6757840
  84.4333270  41.0968740  17.3763490  84.3722160  41.6890570  18.1258900
  85.3733650  40.9894700  17.2313750  87.0707830  40.7538800  17.0155780
  87.6848240  41.0718090  16.3536860  87.6157390  40.2687390  17.6351640
  93.4883010  56.6530430  14.4217620  92.9941290  57.0499300  13.7044750
  92.8796300  56.0279640  14.8154900  77.5929090  39.4333060  17.1294840
  78.1412080  39.2521110  16.3660950  77.6584400  38.6427170  17.6651150
  78.3660850  56.0238710  15.1395040  77.7721170  55.8923410  15.8785080
  78.3584690  55.1876850  14.6737140  87.8115870  39.3170940  13.3425070
  86.9375710  39.6506050  13.1398000  87.7026620  38.8444120  14.1676940
  88.7187850  41.5241810  14.7266790  88.3901210  40.7093570  14.3468520
  89.6670150  41.4811620  14.6032480  91.1722460  57.2953850  11.7004360
  90.7125430  58.0469660  11.3262380  90.5434920  56.5760320  11.6419160
  77.9973080  53.3897090  14.0903080  77.2707140  52.7702380  14.0229030
  78.0582230  53.7837700  13.2201160  81.6018180  55.6042090  10.8752490
  82.1183200  54.9929450  10.3500750  82.2515560  56.1070870  11.3663500
  84.3413680  56.4950580  11.7021470  84.6291490  56.2404880  10.8254480
  84.8536900  55.9427940  12.2927040  85.5590690  40.2340780  12.2817980
  84.7762480  40.7086280  12.5614740  85.2653620  39.3295610  12.1731160
  90.1111760  40.9363880  10.3267070  90.5519850  40.8808980   9.4788670
  89.8419350  41.8521890  10.3977250  91.9750330  40.5679120   8.3375890
  91.9138730  39.6240340   8.1906910  92.7542360  40.6759210   8.8829350
  76.2803080  56.7071480   7.2999840  76.1125120  56.0742160   7.9981730
  75.4137590  56.9130880   6.9494030  76.9031100  40.5388260   4.8031700
  77.6610460  40.6517140   4.2295730  76.4408270  41.3757460   4.7575130
  83.4444910  42.6527530   7.7934010  82.6319420  42.2784420   7.4529890
  83.9486550  41.8972610   8.0955200  87.9469890  39.3169980   9.0317080
  88.5499260  39.8890190   9.5065600  87.2062880  39.8809420   8.8090980
  91.0904490  39.7191540   4.3057360  91.2855120  40.6174990   4.5724790
  90.3034360  39.4878620   4.7990310  77.8865780  55.4004710   4.7449980
  77.3613400  55.7812740   4.0411940  77.8110360  56.0255480   5.4659690
  79.2756250  41.0652310   3.3433670  79.8049010  40.2782110   3.2141620
  79.9084570  41.7443500   3.5769200  81.4694090  40.8027450   6.3979060
  80.8396830  40.1014760   6.5649190  80.9299230  41.5631580   6.1812220
  92.6431100  56.9592250   6.0663920  92.8183290  56.2729990   5.4224840
  91.9452670  57.4839300   5.6740590  81.5949650  40.0811430  18.8331550
  81.3133920  40.5845030  18.0692370  81.9769350  39.2833180  18.4673680
  80.4858750  57.3487090   3.6199230  81.2177570  57.0646370   3.0723120
  80.7452420  57.1100370   4.5098610  79.6473540  53.4651820   3.6245560
  79.0182420  53.9336920   4.1731390  79.7621370  52.6201040   4.0591750
  88.1965110  39.4965010  19.4112020  88.0830560  39.8159620  20.3063540
  89.0134850  39.8977520  19.1149300  90.9763600  56.6436540  18.8930710
  91.7688920  56.1485770  18.6856670  91.2696750  57.3226680  19.5006320
  87.1023260  28.7413990 139.9694680  87.0217310  27.8268600 139.6986390
  86.6887680  29.2381060 139.2634390  85.2341300  30.5193010 141.8503950
  84.4583400  30.0393450 142.1402520  85.8854230  29.8398660 141.6760110
  79.2507130  30.8312820 142.7279710  78.4192010  30.5761530 143.1276220
  79.8588110  30.9023590 143.4637630  89.2548730  34.9253200 140.6303080
  88.7930260  34.1540440 140.9590250  90.0674280  34.9519270 141.1355530
  79.2308390  34.8652910 142.9237730  79.5336430  33.9750650 142.7447950
  79.9751980  35.4223130 142.6959980  77.6599080  25.7914710 136.5122100
  76.7715780  26.1330680 136.4101980  77.9440270  25.5915030 135.6202930
  75.6232090  28.3920360 142.3961800  76.1948200  27.6242560 142.3965440
  75.6233630  28.6909120 141.4868410  85.4812040  37.2111210 140.2507070
  84.8623480  37.6668710 139.6801510  86.3363820  37.3662670 139.8496770
  84.6750290  33.1950200 141.8574110  84.6058570  32.2540140 141.6963240
  85.4370150  33.2851610 142.4296680  76.8656960  23.8004720 144.1830730
  76.6859800  22.9030470 144.4633490  76.4637040  24.3476590 144.8577680
  85.7055460  26.0020580 142.0843040  86.0820280  25.1292460 141.9716710
  85.6074970  26.3379280 141.1933480  79.8360470  24.3746210 137.5460480
  79.9427220  25.2749940 137.8529240  78.9252830  24.3264180 137.2555130
  89.4879580  23.4971020 139.0171380  90.3089200  23.0067590 139.0596860
  89.5213660  24.0868680 139.7703220  77.4843630  26.2965220 142.7913070
  78.1653740  26.5603590 143.4100470  77.1691680  25.4566090 143.1251080
  81.6768200  27.3432580 141.8785660  82.1846420  27.8413550 142.5190680
  82.2081440  26.5667780 141.7025020  93.7779130  25.5137770 145.5815010
  93.0731300  25.9019480 145.0630120  94.0437050  26.2088060 146.1835940
  79.9604300  21.9831140 146.1449080  79.9622740  22.5003530 145.3394980
  79.1308610  21.5061320 146.1219010  86.3475390  32.0950450 137.6438980
  85.7292660  32.5599900 137.0801700  86.8598640  32.7877930 138.0608490
  81.2107150  31.6226320 144.3222580  80.8776530  32.2495240 144.9643650
  81.3873830  32.1488200 143.5424250  89.7241060  25.4371400 141.7898920
  89.0196630  25.7256290 142.3702030  90.0853220  26.2471510 141.4298480
  79.6419630  23.6941100 144.1519530  79.9836440  24.5383150 143.8573400
  78.7035440  23.8424840 144.2684870  80.4226250  33.5907120 146.1371760
  81.0400250  34.2658200 145.8556210  79.5619370  33.9995100 146.0459260
  75.7158590  32.7806980 135.0178610  75.3386570  33.2694080 134.2863510
  75.9731660  33.4532260 135.6485140  91.3403840  35.0546530 144.0526400
  90.6567360  35.7245640 144.0443070  91.8798130  35.2527180 143.2871260
  92.7927980  24.8826190 142.1808130  91.8452890  24.9165170 142.3123560
  93.1177970  25.6965140 142.5657490  83.3247520  21.1823370 140.4764120
  83.6322500  20.6270260 139.7599620  82.3948220  21.3167830 140.2937110
  88.8762580  36.8990660 142.7671580  88.8889740  36.4952950 141.8993840
  88.3237800  37.6737950 142.6633010  90.1708000  33.6206880 137.8561750
  90.0604330  32.6781210 137.9811170  90.1676250  33.9822520 138.7424510
  88.2748020  31.8020500 144.0954190  88.6916810  31.5880610 143.2607650
  88.9987840  32.0593290 144.6662810  85.7128280  29.2472200 137.2124240
  84.7857560  29.1809580 137.4412710  85.8653100  30.1852330 137.0979480
  85.6997360  25.5189200 134.2091400  84.7601030  25.6803160 134.2943860
  86.0180620  26.2374880 133.6627390  92.2210120  30.2007720 144.1870430
  91.3928750  30.2700810 143.7120560  92.8160600  30.7862030 143.7186260
  89.7425570  30.8092500 137.7159490  89.1237990  30.4712050 137.0685790
  89.7250020  30.1652260 138.4238680  89.1852130  26.9877040 145.1325300
  88.7723310  27.8130750 145.3865290  88.4528080  26.4022080 144.9401660
  81.3184920  29.7736940 139.9943970  80.9141920  29.0614190 139.4989870
  81.4048040  29.4290180 140.8832010  81.7866620  33.4604500 142.1583180
  81.4894910  32.8549970 141.4790960  82.7366440  33.4981810 142.0472540
  80.0313540  26.5480150 143.7743010  80.5828130  26.6575490 142.9996260
  80.5457050  26.9217750 144.4898240  89.8752230  37.0336370 145.8206280
  89.3982790  37.8408560 145.6278890  89.1914020  36.3814700 145.9732490
  80.8785050  33.1986190 148.8090980  79.9813580  33.4226160 149.0564380
  80.9037920  33.3221130 147.8602380  87.9190270  30.0479310 134.7232240
  88.3583550  29.2101740 134.5770060  88.6318690  30.6808710 134.8096380
  79.7056270  30.0699510 147.3848350  79.5664040  30.9422310 147.7535750
  78.8237630  29.7272320 147.2396290  86.0285650  34.9875380 138.6913480
  86.4681560  35.7299710 138.2768870  85.9672540  35.2301950 139.6152440
  81.5036620  36.0121210 149.5933500  81.4752050  36.4164160 148.7261930
  81.3401590  35.0831570 149.4305100  91.5007410  21.3022120 133.0373280
  91.1880070  21.3948950 133.9372350  92.2619880  21.8803150 132.9870710
  78.0189550  28.6681920 137.4950620  77.8987150  29.3944010 136.8831890
  77.7090440  27.8984830 137.0178530  75.6574920  31.8397060 143.3019260
  75.7355340  31.9745830 142.3574980  76.2716600  31.1312950 143.4947380
  76.9022550  33.5397250 139.7125440  76.4950630  33.6811840 138.8579040
  77.7935560  33.2557410 139.5096650  92.8584690  33.9861160 148.0497680
  92.9847750  33.7473040 147.1314860  92.9006070  33.1545700 148.5219760
  86.7201430  37.6889160 146.6192490  87.2346100  37.5997170 147.4214920
  85.8770510  38.0348860 146.9120400  88.6955830  37.9744500 136.0476490
  88.5356970  37.6847440 136.9458320  88.5302540  37.1984630 135.5121720
  81.1744210  37.7543030 137.8248110  80.9986690  36.8378570 137.6115910
  80.3199950  38.1130320 138.0645910  88.3981960  35.4832060 134.6074490
  87.7047120  35.4809350 133.9476770  89.1404820  35.0591380 134.1768660
  87.9631890  37.1094770 138.6822980  88.4188840  36.3284150 138.9961600
  88.3024410  37.8201590 139.2264160  92.7108700  26.0393620 149.0147420
  92.0952970  26.5473290 148.4862880  92.3905120  25.1391950 148.9573360
  75.7134440  32.8811230 145.8413720  75.8765480  32.4116590 145.0233090
  76.1786890  32.3734790 146.5062560  80.4853210  22.0116990 140.8774290
  80.0421360  22.7926530 140.5458810  81.0438200  22.3346880 141.5845230
  84.7723020  24.8785510 146.4809610  84.3102390  25.0868530 147.2929550
  84.3701130  24.0644860 146.1780280  89.7727530  26.0994460 147.6106270
  88.9221120  25.8000210 147.9315340  89.6129320  26.3436470 146.6990090
  86.8677240  27.5996210 149.7105060  87.1930650  26.7659960 149.3707290
  87.6557570  28.1224730 149.8583390  83.6012030  21.6327690 135.7580120
  82.9766210  21.6287560 136.4833430  83.5142150  20.7658650 135.3616090
  82.5229110  22.5564320 142.7363890  82.8201440  23.4627150 142.6555910
  83.0714670  22.0683100 142.1223460  80.2767430  27.1350560 138.6055540
  80.0508350  26.9187730 139.5102160  79.4959960  27.5679020 138.2601510
  87.5065190  27.1413930 137.2046190  86.9074080  27.8649730 137.0209810
  88.0544800  27.0790710 136.4222640  82.7166640  28.0336140 149.2715810
  82.6210240  27.0930870 149.1216210  83.5598620  28.2551210 148.8763880
  86.1130060  25.7777470 139.2349470  86.5059630  26.0949670 138.4218160
  86.4746910  24.8989350 139.3493990  77.8477180  24.4449810 147.4249590
  77.4540570  25.2925020 147.6322370  77.1595580  23.8076180 147.6158230
  75.1494230  22.3678270 141.4579670  74.8607280  22.9381130 142.1704650
  75.8939990  21.8882720 141.8210900  75.3364460  26.3098390 132.6682390
  75.2539130  27.2529150 132.8097380  74.9847520  26.1673300 131.7894740
  86.6985200  28.3683220 143.3300250  85.9666320  28.8770030 143.6790350
  86.3009540  27.5513200 143.0289030  83.1362590  25.0437420 141.7352740
  83.1398650  24.6027370 140.8857280  84.0313710  25.3654750 141.8424560
  78.9864970  24.9263910 140.6946950  78.6465020  25.4039140 141.4514000
  78.2242290  24.4729030 140.3348050  83.1982740  26.0449500 134.7259500
  83.3195560  26.0035980 135.6745320  82.8131250  26.9073650 134.5706230
  87.1611110  23.8216900 142.7423190  87.1783850  24.2725550 143.5865040
  86.9126690  22.9222540 142.9556630  82.2104240  28.3550640 134.1242800
  81.6421140  27.9068890 133.4978710  82.9193240  28.7143420 133.5907950
  90.5881860  21.2349080 148.5809570  90.9127630  20.5038740 149.1067550
  90.6238370  20.9162720 147.6790560  77.2873420  32.2562660 148.0009530
  76.9028210  31.6156330 148.5992490  77.5985610  32.9598780 148.5704260
  83.4370560  29.1039200 143.4818150  83.8040690  28.6297770 144.2279490
  83.2475620  29.9780770 143.8226490  76.3011050  23.8482890 139.6111620
  76.0157970  23.4838560 140.4490240  76.2389910  23.1163350 138.9974760
  81.2269930  28.1447840 145.8002360  80.9227000  29.0239820 146.0252720
  82.1816390  28.2047630 145.8359800  79.7551720  32.3508830 136.3969210
  78.9813980  31.8106450 136.2367930  80.4846350  31.8315440 136.0586970
  90.5139700  31.3474190 142.1895600  91.2338820  31.8429480 141.7991710
  90.3121520  30.6692080 141.5449470  85.9749640  22.7412150 136.3324990
  85.1614250  22.2425320 136.2570300  85.7811590  23.5810400 135.9161340
  85.8958500  31.4183250 148.0764600  85.8295810  30.4978920 147.8222190
  85.2663640  31.5158690 148.7909240  88.6898030  27.1131800 134.6287150
  89.5777650  27.4249030 134.4538490  88.6603120  26.2404050 134.2367730
  79.7989120  32.0189210 140.0348020  80.3167790  31.2157470 139.9804910
  79.3473140  31.9568350 140.8764850  84.6858620  33.2855490 135.3075320
  85.0274320  34.0297720 134.8118640  83.8571330  33.5986610 135.6700150
  77.2833660  28.9850580 146.9473720  76.9248600  29.6504430 147.5347060
  76.9888220  28.1534130 147.3186340  80.4846780  29.4434820 149.8313270
  80.1846920  29.5892000 148.9341090  81.2558020  28.8840110 149.7386660
  85.8275230  34.2403820 147.8268400  85.8419770  33.3084780 147.6087310
  85.1200330  34.3263580 148.4658170  90.9612300  28.4243640 134.0967010
  90.8776020  28.8557860 133.2463450  91.6806490  28.8841990 134.5293830
  92.0386440  30.8811160 147.1736980  91.3134630  31.4739940 146.9766370
  92.5661900  30.8734700 146.3750350  91.9899550  35.2785900 136.8249140
  91.3475710  34.6241520 137.0992860  91.6030210  35.6840990 136.0489810
  87.5686030  32.6071330 140.6720830  87.9209850  32.0099460 140.0122200
  86.6848360  32.2815560 140.8429080  83.6549310  33.3669020 138.0791240
  84.3420440  33.9138230 138.4598830  82.8681730  33.9109750 138.1140850
  75.7941710  28.9841840 133.5708320  76.6636560  29.2666640 133.8544240
  75.3032030  29.7977710 133.4557130  82.9576520  30.3715050 137.6916600
  83.4139300  31.1820300 137.9176790  82.6064730  30.0538190 138.5235090
  85.2609130  35.8821390 144.9208900  85.9051350  36.0880770 145.5982320
  85.6238570  35.1209790 144.4679750  78.8588300  20.7152700 138.1639120
  78.7302930  20.7070600 139.1124040  78.0350320  21.0535790 137.8130130
  86.5341210  33.8853740 143.6386350  87.1763440  33.1846900 143.7518520
  87.0590560  34.6652180 143.4583240  90.3796930  34.1702360 133.3625490
  90.1534510  33.4532800 133.9550130  89.9893130  33.9214800 132.5247240
  88.3078830  34.6848640 146.8422410  88.6435070  35.2715330 147.5200330
  87.3879170  34.5541350 147.0720200  76.1612960  38.1969220 134.1369950
  76.5210600  38.7958560 133.4827220  76.0205300  38.7429110 134.9104980
  75.8582230  22.4743820 147.6245820  75.1440750  22.6740740 148.2298430
  76.2777270  21.6983390 147.9960620  89.9613180  32.0874300 135.0239650
  89.6734880  32.5486990 135.8117530  90.7565350  31.6272070 135.2923870
  76.1454820  36.4624080 148.6112350  76.2545940  35.5218820 148.4707740
  75.4935380  36.7278830 147.9626080  82.1781580  35.5800420 134.9543620
  82.1691680  36.3130110 134.3388130  81.2579940  35.3332000 135.0470580
  77.7788220  30.8015310 135.6990380  77.1716170  31.5414210 135.7085680
  78.2537570  30.8914670 134.8728580  87.3521010  24.9666130 145.3747270
  87.7201830  24.1461340 145.7026840  86.4919210  25.0268020 145.7902920
  90.7183040  23.9223070 136.1834830  90.0896200  24.0268740 135.4693060
  90.2234960  24.1419850 136.9728710  85.1641180  35.6428660 133.6168810
  85.2653160  35.4392650 132.6870790  84.2642920  35.3886940 133.8216590
  82.6867070  26.2009020 137.5992710  81.9783220  26.6695360 138.0406320
  82.9711550  25.5431030 138.2337900  84.3123000  27.6205720 145.5985240
  84.8108250  28.0951540 146.2637090  84.4545950  26.6969240 145.8055270
  86.7182500  22.9259680 139.0388500  86.5950280  22.9445810 138.0898010
  87.6667060  22.9738620 139.1586900  83.8059290  38.1614980 138.3116480
  84.0600790  38.1236370 137.3895850  82.8571770  38.0348310 138.3044730
  80.8902090  24.5094100 134.9743420  81.7392620  24.9464250 134.9083610
  80.5233360  24.8214360 135.8015480  91.5189860  23.8373680 146.4413630
  91.0163460  24.5779080 146.7807440  92.3346520  24.2257680 146.1250420
  89.8111870  29.0806860 139.8874990  88.8702010  29.0957090 140.0622680
  90.1255940  28.2942820 140.3335290  79.7893510  30.7626460 133.4478950
  80.5556780  30.6507820 134.0104380  79.8668200  30.0664430 132.7955720
  78.4840270  28.1951530 134.1311840  78.5643860  27.2479040 134.2429240
  79.3760020  28.5258410 134.2372500  91.8137450  36.2515710 141.5629250
  91.9384870  37.0746880 142.0353060  92.6803010  36.0406440 141.2153400
  79.2854980  38.3446920 141.2346380  80.0217460  37.7962380 141.5054950
  79.6695900  39.2102930 141.0952370  76.1700460  34.4120490 137.1087890
  75.2440240  34.6541630 137.0993300  76.6356890  35.2394750 136.9872640
  82.3957290  37.5177230 133.0571950  83.1885900  37.8066060 132.6053740
  81.8761640  37.0869400 132.3784430  88.5578260  37.3653150 148.9816780
  89.5100010  37.2811170 148.9317020  88.4106480  38.0294860 149.6550570
  91.4487460  36.7447360 134.4808690  91.1628970  36.3312500 133.6662870
  91.2507010  37.6735070 134.3609210  76.0111070  30.0166450 149.3668010
  76.5150090  29.4373730 149.9384240  75.2718490  30.3006680 149.9044380
  82.9134690  32.7380640 132.9214300  82.8085330  32.1232990 133.6475680
  82.7458910  32.2146530 132.1377310  83.0649010  31.4237440 148.9003530
  82.2994680  31.9922440 148.8158200  83.2464970  31.1313650 148.0071760
  86.1537420  31.8000670 133.5256290  85.6047520  32.2469970 134.1699030
  86.7756680  31.2949920 134.0493960  90.2072360  33.1542770 149.4578550
  90.9481830  33.4918530 148.9546010  89.4445040  33.3234830 148.9048320
  81.8212540  30.7591590 135.4221590  82.2428960  30.5931460 136.2652980
  81.9463380  29.9491820 134.9276730  79.9839960  26.7388140 148.2292570
  79.4536420  26.2479090 147.6015910  80.6528030  27.1672340 147.6950500
  84.3340180  29.7829200 132.6698690  84.8545840  29.0678220 132.3039840
  84.9808580  30.4215070 132.9699200  88.8818020  31.2057600 147.9933760
  89.2959040  31.3602680 148.8424180  87.9469020  31.3312820 148.1559540
  89.3540190  28.5453760 149.9972910  89.9360960  27.7906080 149.9093390
  89.5301960  29.0761200 149.2204390  80.4712260  23.7050510 148.3089860
  80.3769130  23.0871260 147.5840730  79.8909650  24.4316800 148.0819770
  83.2373700  22.2623750 145.3417250  82.7891000  22.2848010 144.4962800
  82.6038900  21.8642770 145.9387550  83.6433250  31.1578080 145.9629690
  84.0621360  32.0010810 145.7905930  82.7241880  31.2950120 145.7336470
  85.9797150  28.8894260 147.3467530  86.0993360  28.2935400 148.0862370
  86.8391150  28.9263950 146.9268830  88.3185050  29.4431450 145.9230040
  87.7920270  29.9674070 145.3195180  88.6616390  30.0758840 146.5539770
  80.7171440  26.8324820 132.3679750  80.5160500  25.9692180 132.7293090
  80.5463490  26.7458180 131.4301350  81.4940670  37.4631090 147.0787420
  80.9561760  38.1877150 146.7596120  81.7474630  36.9861430 146.2884760
  82.7465920  25.4315610 148.6043350  83.3365610  25.1231460 149.2921170
  81.9286160  24.9595360 148.7603250  87.5659350  25.0481420 148.8376370
  86.8774870  24.3862960 148.7726360  88.2865370  24.6019690 149.2824830
  88.1959750  21.6433050 134.8966630  88.4762040  20.8000950 135.2526050
  87.4225480  21.8756160 135.4105380  79.5154240  23.9325440 132.3557630
  79.8180140  23.9392870 131.4476780  80.2548830  23.5823300 132.8525290
  84.3502880  38.6982300 147.3374070  84.2761580  39.6017440 147.6446440
  83.4481720  38.3794200 147.3096140  82.7339170  22.8760060 133.3413830
  82.3861170  22.1984050 132.7616280  82.9351940  22.4149570 134.1557220
  84.8988210  37.8640810 134.9600430  85.7939000  38.2025780 134.9819190
  84.9305840  37.1420220 134.3324710  78.5384370  33.2367860 133.1887430
  78.9759240  33.7797530 133.8445010  79.0232100  32.4114810 133.1983770
  75.7530170  36.0256890 140.6407690  76.0833180  35.1577950 140.4086330
  76.1821170  36.2315410 141.4712650  80.3492090  34.3565900 138.3009660
  80.0487630  34.2330870 139.2013570  80.2429580  33.4974490 137.8925390
  76.2420380  36.8927480 143.3789320  75.8051370  37.0728280 144.2113470
  76.8098060  37.6502100 143.2371040  91.8782560  36.3944480 147.6666630
  91.2784550  36.4537040 146.9230550  92.0076460  35.4549460 147.7963480
  93.1184010  34.1362300 133.0036340  92.2876970  34.2038950 133.4743570
  93.2955840  35.0266420 132.7003200  92.5740470  30.8809780 135.5070540
  93.3359380  31.4506430 135.6130230  92.5894840  30.3136980 136.2778850
  76.0744810  29.4047710 139.7378200  75.4193650  29.1359350 139.0937900
  76.9122760  29.2952190 139.2880180  93.5800440  31.7359880 140.3512470
  93.9509270  30.9527200 139.9448440  94.2202370  32.4248980 140.1729770
  90.5634200  33.1196460 145.7642790  89.7494040  33.5493620 146.0268580
  90.9708400  33.7314870 145.1511840  92.6259640  31.1744150 132.6643060
  92.9008480  32.0823030 132.5362280  92.4370380  31.1106680 133.6005050
  89.0235250  24.1989000 133.9596690  89.4420130  24.0119980 133.1193350
  88.7171310  23.3468050 134.2699620  92.5224980  29.1113140 137.6572490
  92.1468580  28.3441070 137.2253780  91.7928100  29.4935840 138.1447420
  77.1120740  29.7900280 144.2781540  77.4793780  29.7027680 145.1577560
  76.5431560  29.0266830 144.1788400  91.9124600  28.2584660 147.2912010
  91.6810690  28.0297410 146.3909960  92.1729150  29.1784210 147.2456900
  76.6636740  26.7009370 148.1839960  75.7692790  26.6676130 148.5233670
  77.2034290  26.8996160 148.9491210  75.2882890  26.6146640 135.6803530
  74.3846970  26.8776840 135.5055190  75.7723510  26.8857810 134.9003490
  91.7975940  27.3370630 140.9579730  92.3213420  26.8433280 140.3269900
  92.3835360  27.4720990 141.7027300  91.9765660  27.4210500 144.4799280
  91.0268370  27.3874040 144.5944270  92.1578670  28.3310610 144.2449050
  77.8310100  25.6712180 133.5897910  78.5401800  25.2495400 133.1045190
  77.1150040  25.7387410 132.9581260  77.4784260  21.7251510 132.6300560
  78.2012390  22.2660450 132.9481780  77.7508780  21.4514930 131.7542100
  91.2875910  26.5943980 136.8972140  91.7835030  26.3614850 137.6821020
  91.0891980  25.7555820 136.4809780  77.1676450  20.9757700 142.5323180
  77.8152640  20.4255080 142.0918340  77.5878290  21.2300850 143.3538990
  92.7163070  25.2304930 139.4309820  92.6062350  25.0760970 140.3692090
  93.4770660  24.7025870 139.1885230  91.0628790  21.1699060 145.8892820
  91.7001010  21.7833200 146.2552010  91.2103680  21.2059720 144.9442050
  93.6053340  23.0612850 132.6715960  94.5302650  22.9294030 132.4634250
  93.5829130  23.1405670 133.6252410  93.6791830  23.8323510 135.2972670
  92.8843330  23.7668630 135.8265580  93.8835110  24.7674150 135.2858020
  90.6210250  37.8715060 139.2911060  91.2169320  37.5499630 138.6145480
  90.8788400  37.3986880 140.0824330  76.9208450  21.1313370 145.2748500
  76.5723270  21.5877190 146.0406680  76.5896150  20.2370500 145.3570930
  82.2278850  35.8592560 145.0411410  81.9870210  36.1267120 144.1541930
  83.1681490  36.0298290 145.0962270  84.4333270  22.3225250 148.7967920
  84.3722160  22.9147080 149.5463330  85.3733650  22.2151210 148.6518180
  87.0707830  21.9795310 148.4360210  87.6848240  22.2974600 147.7741290
  87.6157390  21.4943900 149.0556070  93.4883010  37.8786940 145.8422050
  92.9941290  38.2755810 145.1249180  92.8796300  37.2536150 146.2359330
  77.5929090  20.6589570 148.5499270  78.1412080  20.4777620 147.7865380
  77.6584400  19.8683680 149.0855580  78.3660850  37.2495220 146.5599470
  77.7721170  37.1179920 147.2989510  78.3584690  36.4133360 146.0941570
  87.8115870  20.5427450 144.7629500  86.9375710  20.8762560 144.5602430
  87.7026620  20.0700630 145.5881370  88.7187850  22.7498320 146.1471220
  88.3901210  21.9350080 145.7672950  89.6670150  22.7068130 146.0236910
  91.1722460  38.5210360 143.1208790  90.7125430  39.2726170 142.7466810
  90.5434920  37.8016830 143.0623590  77.9973080  34.6153600 145.5107510
  77.2707140  33.9958890 145.4433460  78.0582230  35.0094210 144.6405590
  81.6018180  36.8298600 142.2956920  82.1183200  36.2185960 141.7705180
  82.2515560  37.3327380 142.7867930  84.3413680  37.7207090 143.1225900
  84.6291490  37.4661390 142.2458910  84.8536900  37.1684450 143.7131470
  85.5590690  21.4597290 143.7022410  84.7762480  21.9342790 143.9819170
  85.2653620  20.5552120 143.5935590  90.1111760  22.1620390 141.7471500
  90.5519850  22.1065490 140.8993100  89.8419350  23.0778400 141.8181680
  91.9750330  21.7935630 139.7580320  91.9138730  20.8496850 139.6111340
  92.7542360  21.9015720 140.3033780  76.2803080  37.9327990 138.7204270
  76.1125120  37.2998670 139.4186160  75.4137590  38.1387390 138.3698460
  76.9031100  21.7644770 136.2236130  77.6610460  21.8773650 135.6500160
  76.4408270  22.6013970 136.1779560  83.4444910  23.8784040 139.2138440
  82.6319420  23.5040930 138.8734320  83.9486550  23.1229120 139.5159630
  87.9469890  20.5426490 140.4521510  88.5499260  21.1146700 140.9270030
  87.2062880  21.1065930 140.2295410  91.0904490  20.9448050 135.7261790
  91.2855120  21.8431500 135.9929220  90.3034360  20.7135130 136.2194740
  77.8865780  36.6261220 136.1654410  77.3613400  37.0069250 135.4616370
  77.8110360  37.2511990 136.8864120  79.2756250  22.2908820 134.7638100
  79.8049010  21.5038620 134.6346050  79.9084570  22.9700010 134.9973630
  81.4694090  22.0283960 137.8183490  80.8396830  21.3271270 137.9853620
  80.9299230  22.7888090 137.6016650  92.6431100  38.1848760 137.4868350
  92.8183290  37.4986500 136.8429270  91.9452670  38.7095810 137.0945020
  80.4858750  38.5743600 135.0403660  81.2177570  38.2902880 134.4927550
  80.7452420  38.3356880 135.9303040  79.6473540  34.6908330 135.0449990
  79.0182420  35.1593430 135.5935820  79.7621370  33.8457550 135.4796180
  87.1023260  28.7413990 121.1951190  87.0217310  27.8268600 120.9242900
  86.6887680  29.2381060 120.4890900  85.2341300  30.5193010 123.0760460
  84.4583400  30.0393450 123.3659030  85.8854230  29.8398660 122.9016620
  79.2507130  30.8312820 123.9536220  78.4192010  30.5761530 124.3532730
  79.8588110  30.9023590 124.6894140  89.2548730  34.9253200 121.8559590
  88.7930260  34.1540440 122.1846760  90.0674280  34.9519270 122.3612040
  77.6599080  25.7914710 117.7378610  76.7715780  26.1330680 117.6358490
  77.9440270  25.5915030 116.8459440  75.6232090  28.3920360 123.6218310
  76.1948200  27.6242560 123.6221950  75.6233630  28.6909120 122.7124920
  84.6750290  33.1950200 123.0830620  84.6058570  32.2540140 122.9219750
  85.4370150  33.2851610 123.6553190  76.8656960  23.8004720 125.4087240
  76.6859800  22.9030470 125.6890000  76.4637040  24.3476590 126.0834190
  85.7055460  26.0020580 123.3099550  86.0820280  25.1292460 123.1973220
  85.6074970  26.3379280 122.4189990  79.8360470  24.3746210 118.7716990
  79.9427220  25.2749940 119.0785750  78.9252830  24.3264180 118.4811640
  89.4879580  23.4971020 120.2427890  90.3089200  23.0067590 120.2853370
  89.5213660  24.0868680 120.9959730  77.4843630  26.2965220 124.0169580
  78.1653740  26.5603590 124.6356980  77.1691680  25.4566090 124.3507590
  81.6768200  27.3432580 123.1042170  82.1846420  27.8413550 123.7447190
  82.2081440  26.5667780 122.9281530  93.7779130  25.5137770 126.8071520
  93.0731300  25.9019480 126.2886630  94.0437050  26.2088060 127.4092450
  79.9604300  21.9831140 127.3705590  79.9622740  22.5003530 126.5651490
  79.1308610  21.5061320 127.3475520  81.2107150  31.6226320 125.5479090
  80.8776530  32.2495240 126.1900160  81.3873830  32.1488200 124.7680760
  89.7241060  25.4371400 123.0155430  89.0196630  25.7256290 123.5958540
  90.0853220  26.2471510 122.6554990  79.6419630  23.6941100 125.3776040
  79.9836440  24.5383150 125.0829910  78.7035440  23.8424840 125.4941380
  80.4226250  33.5907120 127.3628270  81.0400250  34.2658200 127.0812720
  79.5619370  33.9995100 127.2715770  75.7158590  32.7806980 116.2435120
  75.3386570  33.2694080 115.5120020  75.9731660  33.4532260 116.8741650
  91.3403840  35.0546530 125.2782910  90.6567360  35.7245640 125.2699580
  91.8798130  35.2527180 124.5127770  92.7927980  24.8826190 123.4064640
  91.8452890  24.9165170 123.5380070  93.1177970  25.6965140 123.7914000
  83.3247520  21.1823370 121.7020630  83.6322500  20.6270260 120.9856130
  82.3948220  21.3167830 121.5193620  88.8762580  36.8990660 123.9928090
  88.8889740  36.4952950 123.1250350  88.3237800  37.6737950 123.8889520
  90.1708000  33.6206880 119.0818260  90.0604330  32.6781210 119.2067680
  90.1676250  33.9822520 119.9681020  88.2748020  31.8020500 125.3210700
  88.6916810  31.5880610 124.4864160  88.9987840  32.0593290 125.8919320
  85.7128280  29.2472200 118.4380750  84.7857560  29.1809580 118.6669220
  85.8653100  30.1852330 118.3235990  85.6997360  25.5189200 115.4347910
  84.7601030  25.6803160 115.5200370  86.0180620  26.2374880 114.8883900
  92.2210120  30.2007720 125.4126940  91.3928750  30.2700810 124.9377070
  92.8160600  30.7862030 124.9442770  89.7425570  30.8092500 118.9416000
  89.1237990  30.4712050 118.2942300  89.7250020  30.1652260 119.6495190
  89.1852130  26.9877040 126.3581810  88.7723310  27.8130750 126.6121800
  88.4528080  26.4022080 126.1658170  81.3184920  29.7736940 121.2200480
  80.9141920  29.0614190 120.7246380  81.4048040  29.4290180 122.1088520
  80.0313540  26.5480150 124.9999520  80.5828130  26.6575490 124.2252770
  80.5457050  26.9217750 125.7154750  89.8752230  37.0336370 127.0462790
  89.3982790  37.8408560 126.8535400  89.1914020  36.3814700 127.1989000
  80.8785050  33.1986190 130.0347490  79.9813580  33.4226160 130.2820890
  80.9037920  33.3221130 129.0858890  87.9190270  30.0479310 115.9488750
  88.3583550  29.2101740 115.8026570  88.6318690  30.6808710 116.0352890
  79.7056270  30.0699510 128.6104860  79.5664040  30.9422310 128.9792260
  78.8237630  29.7272320 128.4652800  81.5036620  36.0121210 130.8190010
  81.4752050  36.4164160 129.9518440  81.3401590  35.0831570 130.6561610
  91.5007410  21.3022120 114.2629790  91.1880070  21.3948950 115.1628860
  92.2619880  21.8803150 114.2127220  78.0189550  28.6681920 118.7207130
  77.8987150  29.3944010 118.1088400  77.7090440  27.8984830 118.2435040
  93.4551440  36.7948310 132.1154180  93.9311160  37.2731200 132.7943260
  94.0758600  36.7265800 131.3899680  75.6574920  31.8397060 124.5275770
  75.7355340  31.9745830 123.5831490  76.2716600  31.1312950 124.7203890
  76.9022550  33.5397250 120.9381950  76.4950630  33.6811840 120.0835550
  77.7935560  33.2557410 120.7353160  92.8584690  33.9861160 129.2754190
  92.9847750  33.7473040 128.3571370  92.9006070  33.1545700 129.7476270
  86.7201430  37.6889160 127.8449000  87.2346100  37.5997170 128.6471430
  85.8770510  38.0348860 128.1376910  81.1744210  37.7543030 119.0504620
  80.9986690  36.8378570 118.8372420  80.3199950  38.1130320 119.2902420
  92.7108700  26.0393620 130.2403930  92.0952970  26.5473290 129.7119390
  92.3905120  25.1391950 130.1829870  75.7134440  32.8811230 127.0670230
  75.8765480  32.4116590 126.2489600  76.1786890  32.3734790 127.7319070
  80.4853210  22.0116990 122.1030800  80.0421360  22.7926530 121.7715320
  81.0438200  22.3346880 122.8101740  84.7723020  24.8785510 127.7066120
  84.3102390  25.0868530 128.5186060  84.3701130  24.0644860 127.4036790
  89.7727530  26.0994460 128.8362780  88.9221120  25.8000210 129.1571850
  89.6129320  26.3436470 127.9246600  86.8677240  27.5996210 130.9361570
  87.1930650  26.7659960 130.5963800  87.6557570  28.1224730 131.0839900
  83.6012030  21.6327690 116.9836630  82.9766210  21.6287560 117.7089940
  83.5142150  20.7658650 116.5872600  82.5229110  22.5564320 123.9620400
  82.8201440  23.4627150 123.8812420  83.0714670  22.0683100 123.3479970
  80.2767430  27.1350560 119.8312050  80.0508350  26.9187730 120.7358670
  79.4959960  27.5679020 119.4858020  87.5065190  27.1413930 118.4302700
  86.9074080  27.8649730 118.2466320  88.0544800  27.0790710 117.6479150
  82.7166640  28.0336140 130.4972320  82.6210240  27.0930870 130.3472720
  83.5598620  28.2551210 130.1020390  86.1130060  25.7777470 120.4605980
  86.5059630  26.0949670 119.6474670  86.4746910  24.8989350 120.5750500
  77.8477180  24.4449810 128.6506100  77.4540570  25.2925020 128.8578880
  77.1595580  23.8076180 128.8414740  84.4222230  24.5284780 131.7202840
  83.7320550  24.3356980 132.3548930  85.1654530  24.8119420 132.2527140
  75.1494230  22.3678270 122.6836180  74.8607280  22.9381130 123.3961160
  75.8939990  21.8882720 123.0467410  75.3364460  26.3098390 113.8938900
  75.2539130  27.2529150 114.0353890  74.9847520  26.1673300 113.0151250
  86.6985200  28.3683220 124.5556760  85.9666320  28.8770030 124.9046860
  86.3009540  27.5513200 124.2545540  83.1362590  25.0437420 122.9609250
  83.1398650  24.6027370 122.1113790  84.0313710  25.3654750 123.0681070
  78.9864970  24.9263910 121.9203460  78.6465020  25.4039140 122.6770510
  78.2242290  24.4729030 121.5604560  83.1982740  26.0449500 115.9516010
  83.3195560  26.0035980 116.9001830  82.8131250  26.9073650 115.7962740
  87.1611110  23.8216900 123.9679700  87.1783850  24.2725550 124.8121550
  86.9126690  22.9222540 124.1813140  82.2104240  28.3550640 115.3499310
  81.6421140  27.9068890 114.7235220  82.9193240  28.7143420 114.8164460
  90.5881860  21.2349080 129.8066080  90.9127630  20.5038740 130.3324060
  90.6238370  20.9162720 128.9047070  77.2873420  32.2562660 129.2266040
  76.9028210  31.6156330 129.8249000  77.5985610  32.9598780 129.7960770
  83.4370560  29.1039200 124.7074660  83.8040690  28.6297770 125.4536000
  83.2475620  29.9780770 125.0483000  76.3011050  23.8482890 120.8368130
  76.0157970  23.4838560 121.6746750  76.2389910  23.1163350 120.2231270
  81.2269930  28.1447840 127.0258870  80.9227000  29.0239820 127.2509230
  82.1816390  28.2047630 127.0616310  79.7551720  32.3508830 117.6225720
  78.9813980  31.8106450 117.4624440  80.4846350  31.8315440 117.2843480
  90.5139700  31.3474190 123.4152110  91.2338820  31.8429480 123.0248220
  90.3121520  30.6692080 122.7705980  85.9749640  22.7412150 117.5581500
  85.1614250  22.2425320 117.4826810  85.7811590  23.5810400 117.1417850
  85.8958500  31.4183250 129.3021110  85.8295810  30.4978920 129.0478700
  85.2663640  31.5158690 130.0165750  88.6898030  27.1131800 115.8543660
  89.5777650  27.4249030 115.6795000  88.6603120  26.2404050 115.4624240
  79.7989120  32.0189210 121.2604530  80.3167790  31.2157470 121.2061420
  79.3473140  31.9568350 122.1021360  77.2833660  28.9850580 128.1730230
  76.9248600  29.6504430 128.7603570  76.9888220  28.1534130 128.5442850
  80.4846780  29.4434820 131.0569780  80.1846920  29.5892000 130.1597600
  81.2558020  28.8840110 130.9643170  85.8275230  34.2403820 129.0524910
  85.8419770  33.3084780 128.8343820  85.1200330  34.3263580 129.6914680
  90.9612300  28.4243640 115.3223520  90.8776020  28.8557860 114.4719960
  91.6806490  28.8841990 115.7550340  92.0386440  30.8811160 128.3993490
  91.3134630  31.4739940 128.2022880  92.5661900  30.8734700 127.6006860
  91.9899550  35.2785900 118.0505650  91.3475710  34.6241520 118.3249370
  91.6030210  35.6840990 117.2746320  87.5686030  32.6071330 121.8977340
  87.9209850  32.0099460 121.2378710  86.6848360  32.2815560 122.0685590
  75.7941710  28.9841840 114.7964830  76.6636560  29.2666640 115.0800750
  75.3032030  29.7977710 114.6813640  82.9576520  30.3715050 118.9173110
  83.4139300  31.1820300 119.1433300  82.6064730  30.0538190 119.7491600
  85.2609130  35.8821390 126.1465410  85.9051350  36.0880770 126.8238830
  85.6238570  35.1209790 125.6936260  78.8588300  20.7152700 119.3895630
  78.7302930  20.7070600 120.3380550  78.0350320  21.0535790 119.0386640
  86.5341210  33.8853740 124.8642860  87.1763440  33.1846900 124.9775030
  87.0590560  34.6652180 124.6839750  90.3796930  34.1702360 114.5882000
  90.1534510  33.4532800 115.1806640  89.9893130  33.9214800 113.7503750
  88.3078830  34.6848640 128.0678920  88.6435070  35.2715330 128.7456840
  87.3879170  34.5541350 128.2976710  76.1612960  38.1969220 115.3626460
  76.5210600  38.7958560 114.7083730  76.0205300  38.7429110 116.1361490
  75.8582230  22.4743820 128.8502330  75.1440750  22.6740740 129.4554940
  76.2777270  21.6983390 129.2217130  89.9613180  32.0874300 116.2496160
  89.6734880  32.5486990 117.0374040  90.7565350  31.6272070 116.5180380
  76.1454820  36.4624080 129.8368860  76.2545940  35.5218820 129.6964250
  75.4935380  36.7278830 129.1882590  84.1367410  34.7339970 131.2366980
  83.8164280  34.0149210 131.7812670  83.4625770  35.4095040 131.3103040
  82.1781580  35.5800420 116.1800130  82.1691680  36.3130110 115.5644640
  81.2579940  35.3332000 116.2727090  77.7788220  30.8015310 116.9246890
  77.1716170  31.5414210 116.9342190  78.2537570  30.8914670 116.0985090
  87.3521010  24.9666130 126.6003780  87.7201830  24.1461340 126.9283350
  86.4919210  25.0268020 127.0159430  90.7183040  23.9223070 117.4091340
  90.0896200  24.0268740 116.6949570  90.2234960  24.1419850 118.1985220
  85.1641180  35.6428660 114.8425320  85.2653160  35.4392650 113.9127300
  84.2642920  35.3886940 115.0473100  82.6867070  26.2009020 118.8249220
  81.9783220  26.6695360 119.2662830  82.9711550  25.5431030 119.4594410
  84.3123000  27.6205720 126.8241750  84.8108250  28.0951540 127.4893600
  84.4545950  26.6969240 127.0311780  86.7182500  22.9259680 120.2645010
  86.5950280  22.9445810 119.3154520  87.6667060  22.9738620 120.3843410
  80.8902090  24.5094100 116.1999930  81.7392620  24.9464250 116.1340120
  80.5233360  24.8214360 117.0271990  91.5189860  23.8373680 127.6670140
  91.0163460  24.5779080 128.0063950  92.3346520  24.2257680 127.3506930
  89.8111870  29.0806860 121.1131500  88.8702010  29.0957090 121.2879190
  90.1255940  28.2942820 121.5591800  79.7893510  30.7626460 114.6735460
  80.5556780  30.6507820 115.2360890  79.8668200  30.0664430 114.0212230
  78.4840270  28.1951530 115.3568350  78.5643860  27.2479040 115.4685750
  79.3760020  28.5258410 115.4629010  91.8137450  36.2515710 122.7885760
  91.9384870  37.0746880 123.2609570  92.6803010  36.0406440 122.4409910
  76.1700460  34.4120490 118.3344400  75.2440240  34.6541630 118.3249810
  76.6356890  35.2394750 118.2129150  78.2913260  37.5292990 131.6488470
  79.0925990  37.8505040 132.0623870  77.7765080  37.1688570 132.3708380
  82.3957290  37.5177230 114.2828460  83.1885900  37.8066060 113.8310250
  81.8761640  37.0869400 113.6040940  87.1277890  33.6372860 131.5963880
  86.5216050  33.6604460 130.8559630  86.8232000  32.9055900 132.1331130
  88.5578260  37.3653150 130.2073290  89.5100010  37.2811170 130.1573530
  88.4106480  38.0294860 130.8807080  91.4487460  36.7447360 115.7065200
  91.1628970  36.3312500 114.8919380  91.2507010  37.6735070 115.5865720
  76.0111070  30.0166450 130.5924520  76.5150090  29.4373730 131.1640750
  75.2718490  30.3006680 131.1300890  82.9134690  32.7380640 114.1470810
  82.8085330  32.1232990 114.8732190  82.7458910  32.2146530 113.3633820
  83.0649010  31.4237440 130.1260040  82.2994680  31.9922440 130.0414710
  83.2464970  31.1313650 129.2328270  86.1537420  31.8000670 114.7512800
  85.6047520  32.2469970 115.3955540  86.7756680  31.2949920 115.2750470
  90.2072360  33.1542770 130.6835060  90.9481830  33.4918530 130.1802520
  89.4445040  33.3234830 130.1304830  78.0434150  28.1596040 131.4874590
  78.0839490  27.8609910 132.3959820  78.8979650  28.5603650 131.3282110
  81.8212540  30.7591590 116.6478100  82.2428960  30.5931460 117.4909490
  81.9463380  29.9491820 116.1533240  79.9839960  26.7388140 129.4549080
  79.4536420  26.2479090 128.8272420  80.6528030  27.1672340 128.9207010
  84.3340180  29.7829200 113.8955200  84.8545840  29.0678220 113.5296350
  84.9808580  30.4215070 114.1955710  88.8818020  31.2057600 129.2190270
  89.2959040  31.3602680 130.0680690  87.9469020  31.3312820 129.3816050
  89.3540190  28.5453760 131.2229420  89.9360960  27.7906080 131.1349900
  89.5301960  29.0761200 130.4460900  80.4712260  23.7050510 129.5346370
  80.3769130  23.0871260 128.8097240  79.8909650  24.4316800 129.3076280
  83.2373700  22.2623750 126.5673760  82.7891000  22.2848010 125.7219310
  82.6038900  21.8642770 127.1644060  83.6433250  31.1578080 127.1886200
  84.0621360  32.0010810 127.0162440  82.7241880  31.2950120 126.9592980
  85.9797150  28.8894260 128.5724040  86.0993360  28.2935400 129.3118880
  86.8391150  28.9263950 128.1525340  88.3185050  29.4431450 127.1486550
  87.7920270  29.9674070 126.5451690  88.6616390  30.0758840 127.7796280
  80.7171440  26.8324820 113.5936260  80.5160500  25.9692180 113.9549600
  80.5463490  26.7458180 112.6557860  81.4940670  37.4631090 128.3043930
  80.9561760  38.1877150 127.9852630  81.7474630  36.9861430 127.5141270
  82.7465920  25.4315610 129.8299860  83.3365610  25.1231460 130.5177680
  81.9286160  24.9595360 129.9859760  87.5659350  25.0481420 130.0632880
  86.8774870  24.3862960 129.9982870  88.2865370  24.6019690 130.5081340
  88.1959750  21.6433050 116.1223140  88.4762040  20.8000950 116.4782560
  87.4225480  21.8756160 116.6361890  79.5154240  23.9325440 113.5814140
  79.8180140  23.9392870 112.6733290  80.2548830  23.5823300 114.0781800
  84.3502880  38.6982300 128.5630580  84.2761580  39.6017440 128.8702950
  83.4481720  38.3794200 128.5352650  82.7339170  22.8760060 114.5670340
  82.3861170  22.1984050 113.9872790  82.9351940  22.4149570 115.3813730
  78.5384370  33.2367860 114.4143940  78.9759240  33.7797530 115.0701520
  79.0232100  32.4114810 114.4240280  75.7530170  36.0256890 121.8664200
  76.0833180  35.1577950 121.6342840  76.1821170  36.2315410 122.6969160
  80.3492090  34.3565900 119.5266170  80.0487630  34.2330870 120.4270080
  80.2429580  33.4974490 119.1181900  76.2420380  36.8927480 124.6045830
  75.8051370  37.0728280 125.4369980  76.8098060  37.6502100 124.4627550
  91.8782560  36.3944480 128.8923140  91.2784550  36.4537040 128.1487060
  92.0076460  35.4549460 129.0219990  93.1184010  34.1362300 114.2292850
  92.2876970  34.2038950 114.7000080  93.2955840  35.0266420 113.9259710
  92.5740470  30.8809780 116.7327050  93.3359380  31.4506430 116.8386740
  92.5894840  30.3136980 117.5035360  76.0744810  29.4047710 120.9634710
  75.4193650  29.1359350 120.3194410  76.9122760  29.2952190 120.5136690
  93.5800440  31.7359880 121.5768980  93.9509270  30.9527200 121.1704950
  94.2202370  32.4248980 121.3986280  90.5634200  33.1196460 126.9899300
  89.7494040  33.5493620 127.2525090  90.9708400  33.7314870 126.3768350
  92.6259640  31.1744150 113.8899570  92.9008480  32.0823030 113.7618790
  92.4370380  31.1106680 114.8261560  89.0235250  24.1989000 115.1853200
  89.4420130  24.0119980 114.3449860  88.7171310  23.3468050 115.4956130
  92.5224980  29.1113140 118.8829000  92.1468580  28.3441070 118.4510290
  91.7928100  29.4935840 119.3703930  77.1120740  29.7900280 125.5038050
  77.4793780  29.7027680 126.3834070  76.5431560  29.0266830 125.4044910
  91.9124600  28.2584660 128.5168520  91.6810690  28.0297410 127.6166470
  92.1729150  29.1784210 128.4713410  76.6636740  26.7009370 129.4096470
  75.7692790  26.6676130 129.7490180  77.2034290  26.8996160 130.1747720
  90.3512670  23.4841090 131.2948220  91.2282850  23.4924490 131.6782220
  90.3633510  22.7471930 130.6840570  75.2882890  26.6146640 116.9060040
  74.3846970  26.8776840 116.7311700  75.7723510  26.8857810 116.1260000
  91.7975940  27.3370630 122.1836240  92.3213420  26.8433280 121.5526410
  92.3835360  27.4720990 122.9283810  91.9765660  27.4210500 125.7055790
  91.0268370  27.3874040 125.8200780  92.1578670  28.3310610 125.4705560
  77.8310100  25.6712180 114.8154420  78.5401800  25.2495400 114.3301700
  77.1150040  25.7387410 114.1837770  77.4784260  21.7251510 113.8557070
  78.2012390  22.2660450 114.1738290  77.7508780  21.4514930 112.9798610
  91.2875910  26.5943980 118.1228650  91.7835030  26.3614850 118.9077530
  91.0891980  25.7555820 117.7066290  77.1676450  20.9757700 123.7579690
  77.8152640  20.4255080 123.3174850  77.5878290  21.2300850 124.5795500
  92.7163070  25.2304930 120.6566330  92.6062350  25.0760970 121.5948600
  93.4770660  24.7025870 120.4141740  91.0628790  21.1699060 127.1149330
  91.7001010  21.7833200 127.4808520  91.2103680  21.2059720 126.1698560
  93.6053340  23.0612850 113.8972470  94.5302650  22.9294030 113.6890760
  93.5829130  23.1405670 114.8508920  93.6791830  23.8323510 116.5229180
  92.8843330  23.7668630 117.0522090  93.8835110  24.7674150 116.5114530
  90.6210250  37.8715060 120.5167570  91.2169320  37.5499630 119.8401990
  90.8788400  37.3986880 121.3080840  76.9208450  21.1313370 126.5005010
  76.5723270  21.5877190 127.2663190  76.5896150  20.2370500 126.5827440
  78.5272820  34.3032970 130.6658200  78.4842450  33.9325880 131.5472660
  78.6583830  35.2410540 130.8060020  84.4333270  22.3225250 130.0224430
  84.3722160  22.9147080 130.7719840  85.3733650  22.2151210 129.8774690
  87.0707830  21.9795310 129.6616720  87.6848240  22.2974600 128.9997800
  87.6157390  21.4943900 130.2812580  93.4883010  37.8786940 127.0678560
  92.9941290  38.2755810 126.3505690  92.8796300  37.2536150 127.4615840
  77.5929090  20.6589570 129.7755780  78.1412080  20.4777620 129.0121890
  77.6584400  19.8683680 130.3112090  78.3660850  37.2495220 127.7855980
  77.7721170  37.1179920 128.5246020  78.3584690  36.4133360 127.3198080
  87.8115870  20.5427450 125.9886010  86.9375710  20.8762560 125.7858940
  87.7026620  20.0700630 126.8137880  88.7187850  22.7498320 127.3727730
  88.3901210  21.9350080 126.9929460  89.6670150  22.7068130 127.2493420
  91.1722460  38.5210360 124.3465300  90.7125430  39.2726170 123.9723320
  90.5434920  37.8016830 124.2880100  85.5590690  21.4597290 124.9278920
  84.7762480  21.9342790 125.2075680  85.2653620  20.5552120 124.8192100
  90.1111760  22.1620390 122.9728010  90.5519850  22.1065490 122.1249610
  89.8419350  23.0778400 123.0438190  91.9750330  21.7935630 120.9836830
  91.9138730  20.8496850 120.8367850  92.7542360  21.9015720 121.5290290
  76.2803080  37.9327990 119.9460780  76.1125120  37.2998670 120.6442670
  75.4137590  38.1387390 119.5954970  76.9031100  21.7644770 117.4492640
  77.6610460  21.8773650 116.8756670  76.4408270  22.6013970 117.4036070
  83.4444910  23.8784040 120.4394950  82.6319420  23.5040930 120.0990830
  83.9486550  23.1229120 120.7416140  87.9469890  20.5426490 121.6778020
  88.5499260  21.1146700 122.1526540  87.2062880  21.1065930 121.4551920
  91.0904490  20.9448050 116.9518300  91.2855120  21.8431500 117.2185730
  90.3034360  20.7135130 117.4451250  77.8865780  36.6261220 117.3910920
  77.3613400  37.0069250 116.6872880  77.8110360  37.2511990 118.1120630
  79.2756250  22.2908820 115.9894610  79.8049010  21.5038620 115.8602560
  79.9084570  22.9700010 116.2230140  81.4694090  22.0283960 119.0440000
  80.8396830  21.3271270 119.2110130  80.9299230  22.7888090 118.8273160
  84.4086040  38.6423190 131.7150610  85.3353350  38.4067460 131.7586570
  84.3936470  39.4695190 131.2336640  92.6431100  38.1848760 118.7124860
  92.8183290  37.4986500 118.0685780  91.9452670  38.7095810 118.3201530
  81.5949650  21.3067940 131.4792490  81.3133920  21.8101540 130.7153310
  81.9769350  20.5089690 131.1134620  80.4858750  38.5743600 116.2660170
  81.2177570  38.2902880 115.7184060  80.7452420  38.3356880 117.1559550
  79.6473540  34.6908330 116.2706500  79.0182420  35.1593430 116.8192330
  79.7621370  33.8457550 116.7052690  88.1965110  20.7221520 132.0572960
  88.0830560  21.0416130 132.9524480  89.0134850  21.1234030 131.7610240
  90.9763600  37.8693050 131.5391650  91.7688920  37.3742280 131.3317610
  91.2696750  38.5483190 132.1467260  87.1023260  28.7413990 102.4207700
  87.0217310  27.8268600 102.1499410  86.6887680  29.2381060 101.7147410
  85.2341300  30.5193010 104.3016970  84.4583400  30.0393450 104.5915540
  85.8854230  29.8398660 104.1273130  79.2507130  30.8312820 105.1792730
  78.4192010  30.5761530 105.5789240  79.8588110  30.9023590 105.9150650
  89.2548730  34.9253200 103.0816100  88.7930260  34.1540440 103.4103270
  90.0674280  34.9519270 103.5868550  79.2308390  34.8652910 105.3750750
  79.5336430  33.9750650 105.1960970  79.9751980  35.4223130 105.1473000
  75.6232090  28.3920360 104.8474820  76.1948200  27.6242560 104.8478460
  75.6233630  28.6909120 103.9381430  84.6750290  33.1950200 104.3087130
  84.6058570  32.2540140 104.1476260  85.4370150  33.2851610 104.8809700
  76.8656960  23.8004720 106.6343750  76.6859800  22.9030470 106.9146510
  76.4637040  24.3476590 107.3090700  77.4843630  26.2965220 105.2426090
  78.1653740  26.5603590 105.8613490  77.1691680  25.4566090 105.5764100
  81.6768200  27.3432580 104.3298680  82.1846420  27.8413550 104.9703700
  82.2081440  26.5667780 104.1538040  79.9604300  21.9831140 108.5962100
  79.9622740  22.5003530 107.7908000  79.1308610  21.5061320 108.5732030
  86.3475390  32.0950450 100.0952000  85.7292660  32.5599900  99.5314720
  86.8598640  32.7877930 100.5121510  81.2107150  31.6226320 106.7735600
  80.8776530  32.2495240 107.4156670  81.3873830  32.1488200 105.9937270
  79.6419630  23.6941100 106.6032550  79.9836440  24.5383150 106.3086420
  78.7035440  23.8424840 106.7197890  80.4226250  33.5907120 108.5884780
  81.0400250  34.2658200 108.3069230  79.5619370  33.9995100 108.4972280
  75.7158590  32.7806980  97.4691630  75.3386570  33.2694080  96.7376530
  75.9731660  33.4532260  98.0998160  91.3403840  35.0546530 106.5039420
  90.6567360  35.7245640 106.4956090  91.8798130  35.2527180 105.7384280
  83.3247520  21.1823370 102.9277140  83.6322500  20.6270260 102.2112640
  82.3948220  21.3167830 102.7450130  88.8762580  36.8990660 105.2184600
  88.8889740  36.4952950 104.3506860  88.3237800  37.6737950 105.1146030
  90.1708000  33.6206880 100.3074770  90.0604330  32.6781210 100.4324190
  90.1676250  33.9822520 101.1937530  85.7128280  29.2472200  99.6637260
  84.7857560  29.1809580  99.8925730  85.8653100  30.1852330  99.5492500
  89.7425570  30.8092500 100.1672510  89.1237990  30.4712050  99.5198810
  89.7250020  30.1652260 100.8751700  81.3184920  29.7736940 102.4456990
  80.9141920  29.0614190 101.9502890  81.4048040  29.4290180 103.3345030
  81.7866620  33.4604500 104.6096200  81.4894910  32.8549970 103.9303980
  82.7366440  33.4981810 104.4985560  80.0313540  26.5480150 106.2256030
  80.5828130  26.6575490 105.4509280  80.5457050  26.9217750 106.9411260
  80.8785050  33.1986190 111.2604000  79.9813580  33.4226160 111.5077400
  80.9037920  33.3221130 110.3115400  79.7056270  30.0699510 109.8361370
  79.5664040  30.9422310 110.2048770  78.8237630  29.7272320 109.6909310
  86.0285650  34.9875380 101.1426500  86.4681560  35.7299710 100.7281890
  85.9672540  35.2301950 102.0665460  81.5036620  36.0121210 112.0446520
  81.4752050  36.4164160 111.1774950  81.3401590  35.0831570 111.8818120
  75.6574920  31.8397060 105.7532280  75.7355340  31.9745830 104.8088000
  76.2716600  31.1312950 105.9460400  76.9022550  33.5397250 102.1638460
  76.4950630  33.6811840 101.3092060  77.7935560  33.2557410 101.9609670
  92.8584690  33.9861160 110.5010700  92.9847750  33.7473040 109.5827880
  92.9006070  33.1545700 110.9732780  81.1744210  37.7543030 100.2761130
  80.9986690  36.8378570 100.0628930  80.3199950  38.1130320 100.5158930
  88.3981960  35.4832060  97.0587510  87.7047120  35.4809350  96.3989790
  89.1404820  35.0591380  96.6281680  92.7108700  26.0393620 111.4660440
  92.0952970  26.5473290 110.9375900  92.3905120  25.1391950 111.4086380
  75.7134440  32.8811230 108.2926740  75.8765480  32.4116590 107.4746110
  76.1786890  32.3734790 108.9575580  84.7723020  24.8785510 108.9322630
  84.3102390  25.0868530 109.7442570  84.3701130  24.0644860 108.6293300
  86.8677240  27.5996210 112.1618080  87.1930650  26.7659960 111.8220310
  87.6557570  28.1224730 112.3096410  83.6012030  21.6327690  98.2093140
  82.9766210  21.6287560  98.9346450  83.5142150  20.7658650  97.8129110
  82.5229110  22.5564320 105.1876910  82.8201440  23.4627150 105.1068930
  83.0714670  22.0683100 104.5736480  87.5065190  27.1413930  99.6559210
  86.9074080  27.8649730  99.4722830  88.0544800  27.0790710  98.8735660
  82.7166640  28.0336140 111.7228830  82.6210240  27.0930870 111.5729230
  83.5598620  28.2551210 111.3276900  86.1130060  25.7777470 101.6862490
  86.5059630  26.0949670 100.8731180  86.4746910  24.8989350 101.8007010
  77.8477180  24.4449810 109.8762610  77.4540570  25.2925020 110.0835390
  77.1595580  23.8076180 110.0671250  84.4222230  24.5284780 112.9459350
  83.7320550  24.3356980 113.5805440  85.1654530  24.8119420 113.4783650
  75.1494230  22.3678270 103.9092690  74.8607280  22.9381130 104.6217670
  75.8939990  21.8882720 104.2723920  86.6985200  28.3683220 105.7813270
  85.9666320  28.8770030 106.1303370  86.3009540  27.5513200 105.4802050
  83.1362590  25.0437420 104.1865760  83.1398650  24.6027370 103.3370300
  84.0313710  25.3654750 104.2937580  83.1982740  26.0449500  97.1772520
  83.3195560  26.0035980  98.1258340  82.8131250  26.9073650  97.0219250
  82.2104240  28.3550640  96.5755820  81.6421140  27.9068890  95.9491730
  82.9193240  28.7143420  96.0420970  90.5881860  21.2349080 111.0322590
  90.9127630  20.5038740 111.5580570  90.6238370  20.9162720 110.1303580
  77.2873420  32.2562660 110.4522550  76.9028210  31.6156330 111.0505510
  77.5985610  32.9598780 111.0217280  83.4370560  29.1039200 105.9331170
  83.8040690  28.6297770 106.6792510  83.2475620  29.9780770 106.2739510
  81.2269930  28.1447840 108.2515380  80.9227000  29.0239820 108.4765740
  82.1816390  28.2047630 108.2872820  79.7551720  32.3508830  98.8482230
  78.9813980  31.8106450  98.6880950  80.4846350  31.8315440  98.5099990
  85.8958500  31.4183250 110.5277620  85.8295810  30.4978920 110.2735210
  85.2663640  31.5158690 111.2422260  79.7989120  32.0189210 102.4861040
  80.3167790  31.2157470 102.4317930  79.3473140  31.9568350 103.3277870
  84.6858620  33.2855490  97.7588340  85.0274320  34.0297720  97.2631660
  83.8571330  33.5986610  98.1213170  77.2833660  28.9850580 109.3986740
  76.9248600  29.6504430 109.9860080  76.9888220  28.1534130 109.7699360
  80.4846780  29.4434820 112.2826290  80.1846920  29.5892000 111.3854110
  81.2558020  28.8840110 112.1899680  85.8275230  34.2403820 110.2781420
  85.8419770  33.3084780 110.0600330  85.1200330  34.3263580 110.9171190
  90.9612300  28.4243640  96.5480030  90.8776020  28.8557860  95.6976470
  91.6806490  28.8841990  96.9806850  91.9899550  35.2785900  99.2762160
  91.3475710  34.6241520  99.5505880  91.6030210  35.6840990  98.5002830
  87.5686030  32.6071330 103.1233850  87.9209850  32.0099460 102.4635220
  86.6848360  32.2815560 103.2942100  83.6549310  33.3669020 100.5304260
  84.3420440  33.9138230 100.9111850  82.8681730  33.9109750 100.5653870
  82.9576520  30.3715050 100.1429620  83.4139300  31.1820300 100.3689810
  82.6064730  30.0538190 100.9748110  86.5341210  33.8853740 106.0899370
  87.1763440  33.1846900 106.2031540  87.0590560  34.6652180 105.9096260
  90.3796930  34.1702360  95.8138510  90.1534510  33.4532800  96.4063150
  89.9893130  33.9214800  94.9760260  88.3078830  34.6848640 109.2935430
  88.6435070  35.2715330 109.9713350  87.3879170  34.5541350 109.5233220
  76.1612960  38.1969220  96.5882970  76.5210600  38.7958560  95.9340240
  76.0205300  38.7429110  97.3618000  75.8582230  22.4743820 110.0758840
  75.1440750  22.6740740 110.6811450  76.2777270  21.6983390 110.4473640
  89.9613180  32.0874300  97.4752670  89.6734880  32.5486990  98.2630550
  90.7565350  31.6272070  97.7436890  76.1454820  36.4624080 111.0625370
  76.2545940  35.5218820 110.9220760  75.4935380  36.7278830 110.4139100
  84.1367410  34.7339970 112.4623490  83.8164280  34.0149210 113.0069180
  83.4625770  35.4095040 112.5359550  82.1781580  35.5800420  97.4056640
  82.1691680  36.3130110  96.7901150  81.2579940  35.3332000  97.4983600
  85.1641180  35.6428660  96.0681830  85.2653160  35.4392650  95.1383810
  84.2642920  35.3886940  96.2729610  82.6867070  26.2009020 100.0505730
  81.9783220  26.6695360 100.4919340  82.9711550  25.5431030 100.6850920
  84.3123000  27.6205720 108.0498260  84.8108250  28.0951540 108.7150110
  84.4545950  26.6969240 108.2568290  91.5189860  23.8373680 108.8926650
  91.0163460  24.5779080 109.2320460  92.3346520  24.2257680 108.5763440
  89.8111870  29.0806860 102.3388010  88.8702010  29.0957090 102.5135700
  90.1255940  28.2942820 102.7848310  79.7893510  30.7626460  95.8991970
  80.5556780  30.6507820  96.4617400  79.8668200  30.0664430  95.2468740
  91.8137450  36.2515710 104.0142270  91.9384870  37.0746880 104.4866080
  92.6803010  36.0406440 103.6666420  76.1700460  34.4120490  99.5600910
  75.2440240  34.6541630  99.5506320  76.6356890  35.2394750  99.4385660
  78.2913260  37.5292990 112.8744980  79.0925990  37.8505040 113.2880380
  77.7765080  37.1688570 113.5964890  82.3957290  37.5177230  95.5084970
  83.1885900  37.8066060  95.0566760  81.8761640  37.0869400  94.8297450
  87.1277890  33.6372860 112.8220390  86.5216050  33.6604460 112.0816140
  86.8232000  32.9055900 113.3587640  91.4487460  36.7447360  96.9321710
  91.1628970  36.3312500  96.1175890  91.2507010  37.6735070  96.8122230
  76.0111070  30.0166450 111.8181030  76.5150090  29.4373730 112.3897260
  75.2718490  30.3006680 112.3557400  82.9134690  32.7380640  95.3727320
  82.8085330  32.1232990  96.0988700  82.7458910  32.2146530  94.5890330
  83.0649010  31.4237440 111.3516550  82.2994680  31.9922440 111.2671220
  83.2464970  31.1313650 110.4584780  90.2072360  33.1542770 111.9091570
  90.9481830  33.4918530 111.4059030  89.4445040  33.3234830 111.3561340
  78.0434150  28.1596040 112.7131100  78.0839490  27.8609910 113.6216330
  78.8979650  28.5603650 112.5538620  81.8212540  30.7591590  97.8734610
  82.2428960  30.5931460  98.7166000  81.9463380  29.9491820  97.3789750
  79.9839960  26.7388140 110.6805590  79.4536420  26.2479090 110.0528930
  80.6528030  27.1672340 110.1463520  89.3540190  28.5453760 112.4485930
  89.9360960  27.7906080 112.3606410  89.5301960  29.0761200 111.6717410
  80.4712260  23.7050510 110.7602880  80.3769130  23.0871260 110.0353750
  79.8909650  24.4316800 110.5332790  83.2373700  22.2623750 107.7930270
  82.7891000  22.2848010 106.9475820  82.6038900  21.8642770 108.3900570
  83.6433250  31.1578080 108.4142710  84.0621360  32.0010810 108.2418950
  82.7241880  31.2950120 108.1849490  85.9797150  28.8894260 109.7980550
  86.0993360  28.2935400 110.5375390  86.8391150  28.9263950 109.3781850
  80.7171440  26.8324820  94.8192770  80.5160500  25.9692180  95.1806110
  80.5463490  26.7458180  93.8814370  81.4940670  37.4631090 109.5300440
  80.9561760  38.1877150 109.2109140  81.7474630  36.9861430 108.7397780
  82.7465920  25.4315610 111.0556370  83.3365610  25.1231460 111.7434190
  81.9286160  24.9595360 111.2116270  87.5659350  25.0481420 111.2889390
  86.8774870  24.3862960 111.2239380  88.2865370  24.6019690 111.7337850
  79.5154240  23.9325440  94.8070650  79.8180140  23.9392870  93.8989800
  80.2548830  23.5823300  95.3038310  82.7339170  22.8760060  95.7926850
  82.3861170  22.1984050  95.2129300  82.9351940  22.4149570  96.6070240
  78.5384370  33.2367860  95.6400450  78.9759240  33.7797530  96.2958030
  79.0232100  32.4114810  95.6496790  75.7530170  36.0256890 103.0920710
  76.0833180  35.1577950 102.8599350  76.1821170  36.2315410 103.9225670
  80.3492090  34.3565900 100.7522680  80.0487630  34.2330870 101.6526590
  80.2429580  33.4974490 100.3438410  76.2420380  36.8927480 105.8302340
  75.8051370  37.0728280 106.6626490  76.8098060  37.6502100 105.6884060
  93.1184010  34.1362300  95.4549360  92.2876970  34.2038950  95.9256590
  93.2955840  35.0266420  95.1516220  92.5740470  30.8809780  97.9583560
  93.3359380  31.4506430  98.0643250  92.5894840  30.3136980  98.7291870
  92.6259640  31.1744150  95.1156080  92.9008480  32.0823030  94.9875300
  92.4370380  31.1106680  96.0518070  77.1120740  29.7900280 106.7294560
  77.4793780  29.7027680 107.6090580  76.5431560  29.0266830 106.6301420
  76.6636740  26.7009370 110.6352980  75.7692790  26.6676130 110.9746690
  77.2034290  26.8996160 111.4004230  90.3512670  23.4841090 112.5204730
  91.2282850  23.4924490 112.9038730  90.3633510  22.7471930 111.9097080
  77.1676450  20.9757700 104.9836200  77.8152640  20.4255080 104.5431360
  77.5878290  21.2300850 105.8052010  91.0628790  21.1699060 108.3405840
  91.7001010  21.7833200 108.7065030  91.2103680  21.2059720 107.3955070
  93.6053340  23.0612850  95.1228980  94.5302650  22.9294030  94.9147270
  93.5829130  23.1405670  96.0765430  93.6791830  23.8323510  97.7485690
  92.8843330  23.7668630  98.2778600  93.8835110  24.7674150  97.7371040
  76.9208450  21.1313370 107.7261520  76.5723270  21.5877190 108.4919700
  76.5896150  20.2370500 107.8083950  78.5272820  34.3032970 111.8914710
  78.4842450  33.9325880 112.7729170  78.6583830  35.2410540 112.0316530
  84.4333270  22.3225250 111.2480940  84.3722160  22.9147080 111.9976350
  85.3733650  22.2151210 111.1031200  87.0707830  21.9795310 110.8873230
  87.6848240  22.2974600 110.2254310  87.6157390  21.4943900 111.5069090
  93.4883010  37.8786940 108.2935070  92.9941290  38.2755810 107.5762200
  92.8796300  37.2536150 108.6872350  77.5929090  20.6589570 111.0012290
  78.1412080  20.4777620 110.2378400  77.6584400  19.8683680 111.5368600
  78.3660850  37.2495220 109.0112490  77.7721170  37.1179920 109.7502530
  78.3584690  36.4133360 108.5454590  88.7187850  22.7498320 108.5984240
  88.3901210  21.9350080 108.2185970  89.6670150  22.7068130 108.4749930
  91.1722460  38.5210360 105.5721810  90.7125430  39.2726170 105.1979830
  90.5434920  37.8016830 105.5136610  77.9973080  34.6153600 107.9620530
  77.2707140  33.9958890 107.8946480  78.0582230  35.0094210 107.0918610
  83.4444910  23.8784040 101.6651460  82.6319420  23.5040930 101.3247340
  83.9486550  23.1229120 101.9672650  77.8865780  36.6261220  98.6167430
  77.3613400  37.0069250  97.9129390  77.8110360  37.2511990  99.3377140
  84.4086040  38.6423190 112.9407120  85.3353350  38.4067460 112.9843080
  84.3936470  39.4695190 112.4593150  92.6431100  38.1848760  99.9381370
  92.8183290  37.4986500  99.2942290  91.9452670  38.7095810  99.5458040
  81.5949650  21.3067940 112.7049000  81.3133920  21.8101540 111.9409820
  81.9769350  20.5089690 112.3391130  80.4858750  38.5743600  97.4916680
  81.2177570  38.2902880  96.9440570  80.7452420  38.3356880  98.3816060
  79.6473540  34.6908330  97.4963010  79.0182420  35.1593430  98.0448840
  79.7621370  33.8457550  97.9309200  88.1965110  20.7221520 113.2829470
  88.0830560  21.0416130 114.1780990  89.0134850  21.1234030 112.9866750
  87.1023260  28.7413990  83.6464210  87.0217310  27.8268600  83.3755920
  86.6887680  29.2381060  82.9403920  79.2507130  30.8312820  86.4049240
  78.4192010  30.5761530  86.8045750  79.8588110  30.9023590  87.1407160
  89.2548730  34.9253200  84.3072610  88.7930260  34.1540440  84.6359780
  90.0674280  34.9519270  84.8125060  79.2308390  34.8652910  86.6007260
  79.5336430  33.9750650  86.4217480  79.9751980  35.4223130  86.3729510
  75.6232090  28.3920360  86.0731330  76.1948200  27.6242560  86.0734970
  75.6233630  28.6909120  85.1637940  85.4812040  37.2111210  83.9276600
  84.8623480  37.6668710  83.3571040  86.3363820  37.3662670  83.5266300
  76.8656960  23.8004720  87.8600260  76.6859800  22.9030470  88.1403020
  76.4637040  24.3476590  88.5347210  85.7055460  26.0020580  85.7612570
  86.0820280  25.1292460  85.6486240  85.6074970  26.3379280  84.8703010
  77.4843630  26.2965220  86.4682600  78.1653740  26.5603590  87.0870000
  77.1691680  25.4566090  86.8020610  93.7779130  25.5137770  89.2584540
  93.0731300  25.9019480  88.7399650  94.0437050  26.2088060  89.8605470
  86.3475390  32.0950450  81.3208510  85.7292660  32.5599900  80.7571230
  86.8598640  32.7877930  81.7378020  81.2107150  31.6226320  87.9992110
  80.8776530  32.2495240  88.6413180  81.3873830  32.1488200  87.2193780
  89.7241060  25.4371400  85.4668450  89.0196630  25.7256290  86.0471560
  90.0853220  26.2471510  85.1068010  80.4226250  33.5907120  89.8141290
  81.0400250  34.2658200  89.5325740  79.5619370  33.9995100  89.7228790
  75.7158590  32.7806980  78.6948140  75.3386570  33.2694080  77.9633040
  75.9731660  33.4532260  79.3254670  91.3403840  35.0546530  87.7295930
  90.6567360  35.7245640  87.7212600  91.8798130  35.2527180  86.9640790
  92.7927980  24.8826190  85.8577660  91.8452890  24.9165170  85.9893090
  93.1177970  25.6965140  86.2427020  83.3247520  21.1823370  84.1533650
  83.6322500  20.6270260  83.4369150  82.3948220  21.3167830  83.9706640
  88.8762580  36.8990660  86.4441110  88.8889740  36.4952950  85.5763370
  88.3237800  37.6737950  86.3402540  90.1708000  33.6206880  81.5331280
  90.0604330  32.6781210  81.6580700  90.1676250  33.9822520  82.4194040
  92.2210120  30.2007720  87.8639960  91.3928750  30.2700810  87.3890090
  92.8160600  30.7862030  87.3955790  89.7425570  30.8092500  81.3929020
  89.1237990  30.4712050  80.7455320  89.7250020  30.1652260  82.1008210
  89.1852130  26.9877040  88.8094830  88.7723310  27.8130750  89.0634820
  88.4528080  26.4022080  88.6171190  80.0313540  26.5480150  87.4512540
  80.5828130  26.6575490  86.6765790  80.5457050  26.9217750  88.1667770
  89.8752230  37.0336370  89.4975810  89.3982790  37.8408560  89.3048420
  89.1914020  36.3814700  89.6502020  80.8785050  33.1986190  92.4860510
  79.9813580  33.4226160  92.7333910  80.9037920  33.3221130  91.5371910
  79.7056270  30.0699510  91.0617880  79.5664040  30.9422310  91.4305280
  78.8237630  29.7272320  90.9165820  86.0285650  34.9875380  82.3683010
  86.4681560  35.7299710  81.9538400  85.9672540  35.2301950  83.2921970
  81.5036620  36.0121210  93.2703030  81.4752050  36.4164160  92.4031460
  81.3401590  35.0831570  93.1074630  93.4551440  36.7948310  94.5667200
  93.9311160  37.2731200  95.2456280  94.0758600  36.7265800  93.8412700
  75.6574920  31.8397060  86.9788790  75.7355340  31.9745830  86.0344510
  76.2716600  31.1312950  87.1716910  76.9022550  33.5397250  83.3894970
  76.4950630  33.6811840  82.5348570  77.7935560  33.2557410  83.1866180
  92.8584690  33.9861160  91.7267210  92.9847750  33.7473040  90.8084390
  92.9006070  33.1545700  92.1989290  86.7201430  37.6889160  90.2962020
  87.2346100  37.5997170  91.0984450  85.8770510  38.0348860  90.5889930
  88.6955830  37.9744500  79.7246020  88.5356970  37.6847440  80.6227850
  88.5302540  37.1984630  79.1891250  81.1744210  37.7543030  81.5017640
  80.9986690  36.8378570  81.2885440  80.3199950  38.1130320  81.7415440
  88.3981960  35.4832060  78.2844020  87.7047120  35.4809350  77.6246300
  89.1404820  35.0591380  77.8538190  87.9631890  37.1094770  82.3592510
  88.4188840  36.3284150  82.6731130  88.3024410  37.8201590  82.9033690
  92.7108700  26.0393620  92.6916950  92.0952970  26.5473290  92.1632410
  92.3905120  25.1391950  92.6342890  75.7134440  32.8811230  89.5183250
  75.8765480  32.4116590  88.7002620  76.1786890  32.3734790  90.1832090
  80.4853210  22.0116990  84.5543820  80.0421360  22.7926530  84.2228340
  81.0438200  22.3346880  85.2614760  84.7723020  24.8785510  90.1579140
  84.3102390  25.0868530  90.9699080  84.3701130  24.0644860  89.8549810
  89.7727530  26.0994460  91.2875800  88.9221120  25.8000210  91.6084870
  89.6129320  26.3436470  90.3759620  82.5229110  22.5564320  86.4133420
  82.8201440  23.4627150  86.3325440  83.0714670  22.0683100  85.7992990
  77.8477180  24.4449810  91.1019120  77.4540570  25.2925020  91.3091900
  77.1595580  23.8076180  91.2927760  75.1494230  22.3678270  85.1349200
  74.8607280  22.9381130  85.8474180  75.8939990  21.8882720  85.4980430
  75.3364460  26.3098390  76.3451920  75.2539130  27.2529150  76.4866910
  74.9847520  26.1673300  75.4664270  86.6985200  28.3683220  87.0069780
  85.9666320  28.8770030  87.3559880  86.3009540  27.5513200  86.7058560
  87.1611110  23.8216900  86.4192720  87.1783850  24.2725550  87.2634570
  86.9126690  22.9222540  86.6326160  82.2104240  28.3550640  77.8012330
  81.6421140  27.9068890  77.1748240  82.9193240  28.7143420  77.2677480
  90.5881860  21.2349080  92.2579100  90.9127630  20.5038740  92.7837080
  90.6238370  20.9162720  91.3560090  77.2873420  32.2562660  91.6779060
  76.9028210  31.6156330  92.2762020  77.5985610  32.9598780  92.2473790
  83.4370560  29.1039200  87.1587680  83.8040690  28.6297770  87.9049020
  83.2475620  29.9780770  87.4996020  81.2269930  28.1447840  89.4771890
  80.9227000  29.0239820  89.7022250  82.1816390  28.2047630  89.5129330
  79.7551720  32.3508830  80.0738740  78.9813980  31.8106450  79.9137460
  80.4846350  31.8315440  79.7356500  90.5139700  31.3474190  85.8665130
  91.2338820  31.8429480  85.4761240  90.3121520  30.6692080  85.2219000
  79.7989120  32.0189210  83.7117550  80.3167790  31.2157470  83.6574440
  79.3473140  31.9568350  84.5534380  77.2833660  28.9850580  90.6243250
  76.9248600  29.6504430  91.2116590  76.9888220  28.1534130  90.9955870
  80.4846780  29.4434820  93.5082800  80.1846920  29.5892000  92.6110620
  81.2558020  28.8840110  93.4156190  90.9612300  28.4243640  77.7736540
  90.8776020  28.8557860  76.9232980  91.6806490  28.8841990  78.2063360
  92.0386440  30.8811160  90.8506510  91.3134630  31.4739940  90.6535900
  92.5661900  30.8734700  90.0519880  91.9899550  35.2785900  80.5018670
  91.3475710  34.6241520  80.7762390  91.6030210  35.6840990  79.7259340
  83.6549310  33.3669020  81.7560770  84.3420440  33.9138230  82.1368360
  82.8681730  33.9109750  81.7910380  75.7941710  28.9841840  77.2477850
  76.6636560  29.2666640  77.5313770  75.3032030  29.7977710  77.1326660
  82.9576520  30.3715050  81.3686130  83.4139300  31.1820300  81.5946320
  82.6064730  30.0538190  82.2004620  90.3796930  34.1702360  77.0395020
  90.1534510  33.4532800  77.6319660  89.9893130  33.9214800  76.2016770
  89.9613180  32.0874300  78.7009180  89.6734880  32.5486990  79.4887060
  90.7565350  31.6272070  78.9693400  76.1454820  36.4624080  92.2881880
  76.2545940  35.5218820  92.1477270  75.4935380  36.7278830  91.6395610
  84.1367410  34.7339970  93.6880000  83.8164280  34.0149210  94.2325690
  83.4625770  35.4095040  93.7616060  82.1781580  35.5800420  78.6313150
  82.1691680  36.3130110  78.0157660  81.2579940  35.3332000  78.7240110
  77.7788220  30.8015310  79.3759910  77.1716170  31.5414210  79.3855210
  78.2537570  30.8914670  78.5498110  87.3521010  24.9666130  89.0516800
  87.7201830  24.1461340  89.3796370  86.4919210  25.0268020  89.4672450
  90.7183040  23.9223070  79.8604360  90.0896200  24.0268740  79.1462590
  90.2234960  24.1419850  80.6498240  85.1641180  35.6428660  77.2938340
  85.2653160  35.4392650  76.3640320  84.2642920  35.3886940  77.4986120
  84.3123000  27.6205720  89.2754770  84.8108250  28.0951540  89.9406620
  84.4545950  26.6969240  89.4824800  83.8059290  38.1614980  81.9886010
  84.0600790  38.1236370  81.0665380  82.8571770  38.0348310  81.9814260
  91.5189860  23.8373680  90.1183160  91.0163460  24.5779080  90.4576970
  92.3346520  24.2257680  89.8019950  89.8111870  29.0806860  83.5644520
  88.8702010  29.0957090  83.7392210  90.1255940  28.2942820  84.0104820
  79.7893510  30.7626460  77.1248480  80.5556780  30.6507820  77.6873910
  79.8668200  30.0664430  76.4725250  78.4840270  28.1951530  77.8081370
  78.5643860  27.2479040  77.9198770  79.3760020  28.5258410  77.9142030
  91.8137450  36.2515710  85.2398780  91.9384870  37.0746880  85.7122590
  92.6803010  36.0406440  84.8922930  79.2854980  38.3446920  84.9115910
  80.0217460  37.7962380  85.1824480  79.6695900  39.2102930  84.7721900
  76.1700460  34.4120490  80.7857420  75.2440240  34.6541630  80.7762830
  76.6356890  35.2394750  80.6642170  78.2913260  37.5292990  94.1001490
  79.0925990  37.8505040  94.5136890  77.7765080  37.1688570  94.8221400
  82.3957290  37.5177230  76.7341480  83.1885900  37.8066060  76.2823270
  81.8761640  37.0869400  76.0553960  87.1277890  33.6372860  94.0476900
  86.5216050  33.6604460  93.3072650  86.8232000  32.9055900  94.5844150
  88.5578260  37.3653150  92.6586310  89.5100010  37.2811170  92.6086550
  88.4106480  38.0294860  93.3320100  91.4487460  36.7447360  78.1578220
  91.1628970  36.3312500  77.3432400  91.2507010  37.6735070  78.0378740
  76.0111070  30.0166450  93.0437540  76.5150090  29.4373730  93.6153770
  75.2718490  30.3006680  93.5813910  83.0649010  31.4237440  92.5773060
  82.2994680  31.9922440  92.4927730  83.2464970  31.1313650  91.6841290
  90.2072360  33.1542770  93.1348080  90.9481830  33.4918530  92.6315540
  89.4445040  33.3234830  92.5817850  78.0434150  28.1596040  93.9387610
  78.0839490  27.8609910  94.8472840  78.8979650  28.5603650  93.7795130
  79.9839960  26.7388140  91.9062100  79.4536420  26.2479090  91.2785440
  80.6528030  27.1672340  91.3720030  88.8818020  31.2057600  91.6703290
  89.2959040  31.3602680  92.5193710  87.9469020  31.3312820  91.8329070
  88.3185050  29.4431450  89.5999570  87.7920270  29.9674070  88.9964710
  88.6616390  30.0758840  90.2309300  80.7171440  26.8324820  76.0449280
  80.5160500  25.9692180  76.4062620  80.5463490  26.7458180  75.1070880
  81.4940670  37.4631090  90.7556950  80.9561760  38.1877150  90.4365650
  81.7474630  36.9861430  89.9654290  87.5659350  25.0481420  92.5145900
  86.8774870  24.3862960  92.4495890  88.2865370  24.6019690  92.9594360
  84.3502880  38.6982300  91.0143600  84.2761580  39.6017440  91.3215970
  83.4481720  38.3794200  90.9865670  84.8988210  37.8640810  78.6369960
  85.7939000  38.2025780  78.6588720  84.9305840  37.1420220  78.0094240
  78.5384370  33.2367860  76.8656960  78.9759240  33.7797530  77.5214540
  79.0232100  32.4114810  76.8753300  75.7530170  36.0256890  84.3177220
  76.0833180  35.1577950  84.0855860  76.1821170  36.2315410  85.1482180
  80.3492090  34.3565900  81.9779190  80.0487630  34.2330870  82.8783100
  80.2429580  33.4974490  81.5694920  76.2420380  36.8927480  87.0558850
  75.8051370  37.0728280  87.8883000  76.8098060  37.6502100  86.9140570
  91.8782560  36.3944480  91.3436160  91.2784550  36.4537040  90.6000080
  92.0076460  35.4549460  91.4733010  93.1184010  34.1362300  76.6805870
  92.2876970  34.2038950  77.1513100  93.2955840  35.0266420  76.3772730
  92.5740470  30.8809780  79.1840070  93.3359380  31.4506430  79.2899760
  92.5894840  30.3136980  79.9548380  76.0744810  29.4047710  83.4147730
  75.4193650  29.1359350  82.7707430  76.9122760  29.2952190  82.9649710
  93.5800440  31.7359880  84.0282000  93.9509270  30.9527200  83.6217970
  94.2202370  32.4248980  83.8499300  90.5634200  33.1196460  89.4412320
  89.7494040  33.5493620  89.7038110  90.9708400  33.7314870  88.8281370
  92.6259640  31.1744150  76.3412590  92.9008480  32.0823030  76.2131810
  92.4370380  31.1106680  77.2774580  89.0235250  24.1989000  77.6366220
  89.4420130  24.0119980  76.7962880  88.7171310  23.3468050  77.9469150
  92.5224980  29.1113140  81.3342020  92.1468580  28.3441070  80.9023310
  91.7928100  29.4935840  81.8216950  77.1120740  29.7900280  87.9551070
  77.4793780  29.7027680  88.8347090  76.5431560  29.0266830  87.8557930
  91.9124600  28.2584660  90.9681540  91.6810690  28.0297410  90.0679490
  92.1729150  29.1784210  90.9226430  76.6636740  26.7009370  91.8609490
  75.7692790  26.6676130  92.2003200  77.2034290  26.8996160  92.6260740
  75.2882890  26.6146640  79.3573060  74.3846970  26.8776840  79.1824720
  75.7723510  26.8857810  78.5773020  91.7975940  27.3370630  84.6349260
  92.3213420  26.8433280  84.0039430  92.3835360  27.4720990  85.3796830
  91.9765660  27.4210500  88.1568810  91.0268370  27.3874040  88.2713800
  92.1578670  28.3310610  87.9218580  91.2875910  26.5943980  80.5741670
  91.7835030  26.3614850  81.3590550  91.0891980  25.7555820  80.1579310
  77.1676450  20.9757700  86.2092710  77.8152640  20.4255080  85.7687870
  77.5878290  21.2300850  87.0308520  92.7163070  25.2304930  83.1079350
  92.6062350  25.0760970  84.0461620  93.4770660  24.7025870  82.8654760
  91.0628790  21.1699060  89.5662350  91.7001010  21.7833200  89.9321540
  91.2103680  21.2059720  88.6211580  93.6791830  23.8323510  78.9742200
  92.8843330  23.7668630  79.5035110  93.8835110  24.7674150  78.9627550
  90.6210250  37.8715060  82.9680590  91.2169320  37.5499630  82.2915010
  90.8788400  37.3986880  83.7593860  78.5272820  34.3032970  93.1171220
  78.4842450  33.9325880  93.9985680  78.6583830  35.2410540  93.2573040
  84.4333270  22.3225250  92.4737450  84.3722160  22.9147080  93.2232860
  85.3733650  22.2151210  92.3287710  87.0707830  21.9795310  92.1129740
  87.6848240  22.2974600  91.4510820  87.6157390  21.4943900  92.7325600
  93.4883010  37.8786940  89.5191580  92.9941290  38.2755810  88.8018710
  92.8796300  37.2536150  89.9128860  78.3660850  37.2495220  90.2369000
  77.7721170  37.1179920  90.9759040  78.3584690  36.4133360  89.7711100
  87.8115870  20.5427450  88.4399030  86.9375710  20.8762560  88.2371960
  87.7026620  20.0700630  89.2650900  88.7187850  22.7498320  89.8240750
  88.3901210  21.9350080  89.4442480  89.6670150  22.7068130  89.7006440
  91.1722460  38.5210360  86.7978320  90.7125430  39.2726170  86.4236340
  90.5434920  37.8016830  86.7393120  77.9973080  34.6153600  89.1877040
  77.2707140  33.9958890  89.1202990  78.0582230  35.0094210  88.3175120
  81.6018180  36.8298600  85.9726450  82.1183200  36.2185960  85.4474710
  82.2515560  37.3327380  86.4637460  84.3413680  37.7207090  86.7995430
  84.6291490  37.4661390  85.9228440  84.8536900  37.1684450  87.3901000
  85.5590690  21.4597290  87.3791940  84.7762480  21.9342790  87.6588700
  85.2653620  20.5552120  87.2705120  90.1111760  22.1620390  85.4241030
  90.5519850  22.1065490  84.5762630  89.8419350  23.0778400  85.4951210
  91.9750330  21.7935630  83.4349850  91.9138730  20.8496850  83.2880870
  92.7542360  21.9015720  83.9803310  87.9469890  20.5426490  84.1291040
  88.5499260  21.1146700  84.6039560  87.2062880  21.1065930  83.9064940
  84.4086040  38.6423190  94.1663630  85.3353350  38.4067460  94.2099590
  84.3936470  39.4695190  93.6849660  92.6431100  38.1848760  81.1637880
  92.8183290  37.4986500  80.5198800  91.9452670  38.7095810  80.7714550
  81.5949650  21.3067940  93.9305510  81.3133920  21.8101540  93.1666330
  81.9769350  20.5089690  93.5647640  79.6473540  34.6908330  78.7219520
  79.0182420  35.1593430  79.2705350  79.7621370  33.8457550  79.1565710
  90.9763600  37.8693050  93.9904670  91.7688920  37.3742280  93.7830630
  91.2696750  38.5483190  94.5980280  79.2507130  30.8312820  67.6305750
  78.4192010  30.5761530  68.0302260  79.8588110  30.9023590  68.3663670
  89.2548730  34.9253200  65.5329120  88.7930260  34.1540440  65.8616290
  90.0674280  34.9519270  66.0381570  79.2308390  34.8652910  67.8263770
  79.5336430  33.9750650  67.6473990  79.9751980  35.4223130  67.5986020
  77.6599080  25.7914710  61.4148140  76.7715780  26.1330680  61.3128020
  77.9440270  25.5915030  60.5228970  75.6232090  28.3920360  67.2987840
  76.1948200  27.6242560  67.2991480  75.6233630  28.6909120  66.3894450
  85.4812040  37.2111210  65.1533110  84.8623480  37.6668710  64.5827550
  86.3363820  37.3662670  64.7522810  76.8656960  23.8004720  69.0856770
  76.6859800  22.9030470  69.3659530  76.4637040  24.3476590  69.7603720
  79.8360470  24.3746210  62.4486520  79.9427220  25.2749940  62.7555280
  78.9252830  24.3264180  62.1581170  77.4843630  26.2965220  67.6939110
  78.1653740  26.5603590  68.3126510  77.1691680  25.4566090  68.0277120
  81.6768200  27.3432580  66.7811700  82.1846420  27.8413550  67.4216720
  82.2081440  26.5667780  66.6051060  79.9604300  21.9831140  71.0475120
  79.9622740  22.5003530  70.2421020  79.1308610  21.5061320  71.0245050
  81.2107150  31.6226320  69.2248620  80.8776530  32.2495240  69.8669690
  81.3873830  32.1488200  68.4450290  79.6419630  23.6941100  69.0545570
  79.9836440  24.5383150  68.7599440  78.7035440  23.8424840  69.1710910
  80.4226250  33.5907120  71.0397800  81.0400250  34.2658200  70.7582250
  79.5619370  33.9995100  70.9485300  75.7158590  32.7806980  59.9204650
  75.3386570  33.2694080  59.1889550  75.9731660  33.4532260  60.5511180
  91.3403840  35.0546530  68.9552440  90.6567360  35.7245640  68.9469110
  91.8798130  35.2527180  68.1897300  83.3247520  21.1823370  65.3790160
  83.6322500  20.6270260  64.6625660  82.3948220  21.3167830  65.1963150
  88.8762580  36.8990660  67.6697620  88.8889740  36.4952950  66.8019880
  88.3237800  37.6737950  67.5659050  90.1708000  33.6206880  62.7587790
  90.0604330  32.6781210  62.8837210  90.1676250  33.9822520  63.6450550
  88.2748020  31.8020500  68.9980230  88.6916810  31.5880610  68.1633690
  88.9987840  32.0593290  69.5688850  85.6997360  25.5189200  59.1117440
  84.7601030  25.6803160  59.1969900  86.0180620  26.2374880  58.5653430
  92.2210120  30.2007720  69.0896470  91.3928750  30.2700810  68.6146600
  92.8160600  30.7862030  68.6212300  89.7425570  30.8092500  62.6185530
  89.1237990  30.4712050  61.9711830  89.7250020  30.1652260  63.3264720
  81.7866620  33.4604500  67.0609220  81.4894910  32.8549970  66.3817000
  82.7366440  33.4981810  66.9498580  80.0313540  26.5480150  68.6769050
  80.5828130  26.6575490  67.9022300  80.5457050  26.9217750  69.3924280
  89.8752230  37.0336370  70.7232320  89.3982790  37.8408560  70.5304930
  89.1914020  36.3814700  70.8758530  80.8785050  33.1986190  73.7117020
  79.9813580  33.4226160  73.9590420  80.9037920  33.3221130  72.7628420
  87.9190270  30.0479310  59.6258280  88.3583550  29.2101740  59.4796100
  88.6318690  30.6808710  59.7122420  79.7056270  30.0699510  72.2874390
  79.5664040  30.9422310  72.6561790  78.8237630  29.7272320  72.1422330
  81.5036620  36.0121210  74.4959540  81.4752050  36.4164160  73.6287970
  81.3401590  35.0831570  74.3331140  78.0189550  28.6681920  62.3976660
  77.8987150  29.3944010  61.7857930  77.7090440  27.8984830  61.9204570
  93.4551440  36.7948310  75.7923710  93.9311160  37.2731200  76.4712790
  94.0758600  36.7265800  75.0669210  76.9022550  33.5397250  64.6151480
  76.4950630  33.6811840  63.7605080  77.7935560  33.2557410  64.4122690
  92.8584690  33.9861160  72.9523720  92.9847750  33.7473040  72.0340900
  92.9006070  33.1545700  73.4245800  86.7201430  37.6889160  71.5218530
  87.2346100  37.5997170  72.3240960  85.8770510  38.0348860  71.8146440
  88.3981960  35.4832060  59.5100530  87.7047120  35.4809350  58.8502810
  89.1404820  35.0591380  59.0794700  87.9631890  37.1094770  63.5849020
  88.4188840  36.3284150  63.8987640  88.3024410  37.8201590  64.1290200
  80.4853210  22.0116990  65.7800330  80.0421360  22.7926530  65.4484850
  81.0438200  22.3346880  66.4871270  84.7723020  24.8785510  71.3835650
  84.3102390  25.0868530  72.1955590  84.3701130  24.0644860  71.0806320
  82.5229110  22.5564320  67.6389930  82.8201440  23.4627150  67.5581950
  83.0714670  22.0683100  67.0249500  80.2767430  27.1350560  63.5081580
  80.0508350  26.9187730  64.4128200  79.4959960  27.5679020  63.1627550
  87.5065190  27.1413930  62.1072230  86.9074080  27.8649730  61.9235850
  88.0544800  27.0790710  61.3248680  82.7166640  28.0336140  74.1741850
  82.6210240  27.0930870  74.0242250  83.5598620  28.2551210  73.7789920
  86.1130060  25.7777470  64.1375510  86.5059630  26.0949670  63.3244200
  86.4746910  24.8989350  64.2520030  77.8477180  24.4449810  72.3275630
  77.4540570  25.2925020  72.5348410  77.1595580  23.8076180  72.5184270
  84.4222230  24.5284780  75.3972370  83.7320550  24.3356980  76.0318460
  85.1654530  24.8119420  75.9296670  75.1494230  22.3678270  66.3605710
  74.8607280  22.9381130  67.0730690  75.8939990  21.8882720  66.7236940
  75.3364460  26.3098390  57.5708430  75.2539130  27.2529150  57.7123420
  74.9847520  26.1673300  56.6920780  86.6985200  28.3683220  68.2326290
  85.9666320  28.8770030  68.5816390  86.3009540  27.5513200  67.9315070
  83.1362590  25.0437420  66.6378780  83.1398650  24.6027370  65.7883320
  84.0313710  25.3654750  66.7450600  78.9864970  24.9263910  65.5972990
  78.6465020  25.4039140  66.3540040  78.2242290  24.4729030  65.2374090
  83.1982740  26.0449500  59.6285540  83.3195560  26.0035980  60.5771360
  82.8131250  26.9073650  59.4732270  82.2104240  28.3550640  59.0268840
  81.6421140  27.9068890  58.4004750  82.9193240  28.7143420  58.4933990
  77.2873420  32.2562660  72.9035570  76.9028210  31.6156330  73.5018530
  77.5985610  32.9598780  73.4730300  83.4370560  29.1039200  68.3844190
  83.8040690  28.6297770  69.1305530  83.2475620  29.9780770  68.7252530
  76.3011050  23.8482890  64.5137660  76.0157970  23.4838560  65.3516280
  76.2389910  23.1163350  63.9000800  81.2269930  28.1447840  70.7028400
  80.9227000  29.0239820  70.9278760  82.1816390  28.2047630  70.7385840
  79.7551720  32.3508830  61.2995250  78.9813980  31.8106450  61.1393970
  80.4846350  31.8315440  60.9613010  90.5139700  31.3474190  67.0921640
  91.2338820  31.8429480  66.7017750  90.3121520  30.6692080  66.4475510
  88.6898030  27.1131800  59.5313190  89.5777650  27.4249030  59.3564530
  88.6603120  26.2404050  59.1393770  79.7989120  32.0189210  64.9374060
  80.3167790  31.2157470  64.8830950  79.3473140  31.9568350  65.7790890
  77.2833660  28.9850580  71.8499760  76.9248600  29.6504430  72.4373100
  76.9888220  28.1534130  72.2212380  80.4846780  29.4434820  74.7339310
  80.1846920  29.5892000  73.8367130  81.2558020  28.8840110  74.6412700
  90.9612300  28.4243640  58.9993050  90.8776020  28.8557860  58.1489490
  91.6806490  28.8841990  59.4319870  92.0386440  30.8811160  72.0763020
  91.3134630  31.4739940  71.8792410  92.5661900  30.8734700  71.2776390
  91.9899550  35.2785900  61.7275180  91.3475710  34.6241520  62.0018900
  91.6030210  35.6840990  60.9515850  75.7941710  28.9841840  58.4734360
  76.6636560  29.2666640  58.7570280  75.3032030  29.7977710  58.3583170
  85.2609130  35.8821390  69.8234940  85.9051350  36.0880770  70.5008360
  85.6238570  35.1209790  69.3705790  78.8588300  20.7152700  63.0665160
  78.7302930  20.7070600  64.0150080  78.0350320  21.0535790  62.7156170
  86.5341210  33.8853740  68.5412390  87.1763440  33.1846900  68.6544560
  87.0590560  34.6652180  68.3609280  90.3796930  34.1702360  58.2651530
  90.1534510  33.4532800  58.8576170  89.9893130  33.9214800  57.4273280
  88.3078830  34.6848640  71.7448450  88.6435070  35.2715330  72.4226370
  87.3879170  34.5541350  71.9746240  75.8582230  22.4743820  72.5271860
  75.1440750  22.6740740  73.1324470  76.2777270  21.6983390  72.8986660
  89.9613180  32.0874300  59.9265690  89.6734880  32.5486990  60.7143570
  90.7565350  31.6272070  60.1949910  76.1454820  36.4624080  73.5138390
  76.2545940  35.5218820  73.3733780  75.4935380  36.7278830  72.8652120
  77.7788220  30.8015310  60.6016420  77.1716170  31.5414210  60.6111720
  78.2537570  30.8914670  59.7754620  82.6867070  26.2009020  62.5018750
  81.9783220  26.6695360  62.9432360  82.9711550  25.5431030  63.1363940
  84.3123000  27.6205720  70.5011280  84.8108250  28.0951540  71.1663130
  84.4545950  26.6969240  70.7081310  86.7182500  22.9259680  63.9414540
  86.5950280  22.9445810  62.9924050  87.6667060  22.9738620  64.0612940
  80.8902090  24.5094100  59.8769460  81.7392620  24.9464250  59.8109650
  80.5233360  24.8214360  60.7041520  89.8111870  29.0806860  64.7901030
  88.8702010  29.0957090  64.9648720  90.1255940  28.2942820  65.2361330
  79.7893510  30.7626460  58.3504990  80.5556780  30.6507820  58.9130420
  79.8668200  30.0664430  57.6981760  78.4840270  28.1951530  59.0337880
  78.5643860  27.2479040  59.1455280  79.3760020  28.5258410  59.1398540
  91.8137450  36.2515710  66.4655290  91.9384870  37.0746880  66.9379100
  92.6803010  36.0406440  66.1179440  76.1700460  34.4120490  62.0113930
  75.2440240  34.6541630  62.0019340  76.6356890  35.2394750  61.8898680
  88.5578260  37.3653150  73.8842820  89.5100010  37.2811170  73.8343060
  88.4106480  38.0294860  74.5576610  91.4487460  36.7447360  59.3834730
  91.1628970  36.3312500  58.5688910  91.2507010  37.6735070  59.2635250
  76.0111070  30.0166450  74.2694050  76.5150090  29.4373730  74.8410280
  75.2718490  30.3006680  74.8070420  82.9134690  32.7380640  57.8240340
  82.8085330  32.1232990  58.5501720  82.7458910  32.2146530  57.0403350
  86.1537420  31.8000670  58.4282330  85.6047520  32.2469970  59.0725070
  86.7756680  31.2949920  58.9520000  90.2072360  33.1542770  74.3604590
  90.9481830  33.4918530  73.8572050  89.4445040  33.3234830  73.8074360
  78.0434150  28.1596040  75.1644120  78.0839490  27.8609910  76.0729350
  78.8979650  28.5603650  75.0051640  81.8212540  30.7591590  60.3247630
  82.2428960  30.5931460  61.1679020  81.9463380  29.9491820  59.8302770
  79.9839960  26.7388140  73.1318610  79.4536420  26.2479090  72.5041950
  80.6528030  27.1672340  72.5976540  84.3340180  29.7829200  57.5724730
  84.8545840  29.0678220  57.2065880  84.9808580  30.4215070  57.8725240
  83.2373700  22.2623750  70.2443290  82.7891000  22.2848010  69.3988840
  82.6038900  21.8642770  70.8413590  83.6433250  31.1578080  70.8655730
  84.0621360  32.0010810  70.6931970  82.7241880  31.2950120  70.6362510
  85.9797150  28.8894260  72.2493570  86.0993360  28.2935400  72.9888410
  86.8391150  28.9263950  71.8294870  88.3185050  29.4431450  70.8256080
  87.7920270  29.9674070  70.2221220  88.6616390  30.0758840  71.4565810
  80.7171440  26.8324820  57.2705790  80.5160500  25.9692180  57.6319130
  80.5463490  26.7458180  56.3327390  82.7465920  25.4315610  73.5069390
  83.3365610  25.1231460  74.1947210  81.9286160  24.9595360  73.6629290
  79.5154240  23.9325440  57.2583670  79.8180140  23.9392870  56.3502820
  80.2548830  23.5823300  57.7551330  75.7530170  36.0256890  65.5433730
  76.0833180  35.1577950  65.3112370  76.1821170  36.2315410  66.3738690
  80.3492090  34.3565900  63.2035700  80.0487630  34.2330870  64.1039610
  80.2429580  33.4974490  62.7951430  76.2420380  36.8927480  68.2815360
  75.8051370  37.0728280  69.1139510  76.8098060  37.6502100  68.1397080
  91.8782560  36.3944480  72.5692670  91.2784550  36.4537040  71.8256590
  92.0076460  35.4549460  72.6989520  93.1184010  34.1362300  57.9062380
  92.2876970  34.2038950  58.3769610  93.2955840  35.0266420  57.6029240
  92.5740470  30.8809780  60.4096580  93.3359380  31.4506430  60.5156270
  92.5894840  30.3136980  61.1804890  76.0744810  29.4047710  64.6404240
  75.4193650  29.1359350  63.9963940  76.9122760  29.2952190  64.1906220
  93.5800440  31.7359880  65.2538510  93.9509270  30.9527200  64.8474480
  94.2202370  32.4248980  65.0755810  90.5634200  33.1196460  70.6668830
  89.7494040  33.5493620  70.9294620  90.9708400  33.7314870  70.0537880
  92.6259640  31.1744150  57.5669100  92.9008480  32.0823030  57.4388320
  92.4370380  31.1106680  58.5031090  89.0235250  24.1989000  58.8622730
  89.4420130  24.0119980  58.0219390  88.7171310  23.3468050  59.1725660
  92.5224980  29.1113140  62.5598530  92.1468580  28.3441070  62.1279820
  91.7928100  29.4935840  63.0473460  77.1120740  29.7900280  69.1807580
  77.4793780  29.7027680  70.0603600  76.5431560  29.0266830  69.0814440
  91.9124600  28.2584660  72.1938050  91.6810690  28.0297410  71.2936000
  92.1729150  29.1784210  72.1482940  76.6636740  26.7009370  73.0866000
  75.7692790  26.6676130  73.4259710  77.2034290  26.8996160  73.8517250
  75.2882890  26.6146640  60.5829570  74.3846970  26.8776840  60.4081230
  75.7723510  26.8857810  59.8029530  91.9765660  27.4210500  69.3825320
  91.0268370  27.3874040  69.4970310  92.1578670  28.3310610  69.1475090
  77.8310100  25.6712180  58.4923950  78.5401800  25.2495400  58.0071230
  77.1150040  25.7387410  57.8607300  77.4784260  21.7251510  57.5326600
  78.2012390  22.2660450  57.8507820  77.7508780  21.4514930  56.6568140
  91.2875910  26.5943980  61.7998180  91.7835030  26.3614850  62.5847060
  91.0891980  25.7555820  61.3835820  77.1676450  20.9757700  67.4349220
  77.8152640  20.4255080  66.9944380  77.5878290  21.2300850  68.2565030
  93.6053340  23.0612850  57.5742000  94.5302650  22.9294030  57.3660290
  93.5829130  23.1405670  58.5278450  93.6791830  23.8323510  60.1998710
  92.8843330  23.7668630  60.7291620  93.8835110  24.7674150  60.1884060
  90.6210250  37.8715060  64.1937100  91.2169320  37.5499630  63.5171520
  90.8788400  37.3986880  64.9850370  76.9208450  21.1313370  70.1774540
  76.5723270  21.5877190  70.9432720  76.5896150  20.2370500  70.2596970
  78.5272820  34.3032970  74.3427730  78.4842450  33.9325880  75.2242190
  78.6583830  35.2410540  74.4829550  84.4333270  22.3225250  73.6993960
  84.3722160  22.9147080  74.4489370  85.3733650  22.2151210  73.5544220
  93.4883010  37.8786940  70.7448090  92.9941290  38.2755810  70.0275220
  92.8796300  37.2536150  71.1385370  77.5929090  20.6589570  73.4525310
  78.1412080  20.4777620  72.6891420  77.6584400  19.8683680  73.9881620
  91.1722460  38.5210360  68.0234830  90.7125430  39.2726170  67.6492850
  90.5434920  37.8016830  67.9649630  77.9973080  34.6153600  70.4133550
  77.2707140  33.9958890  70.3459500  78.0582230  35.0094210  69.5431630
  85.5590690  21.4597290  68.6048450  84.7762480  21.9342790  68.8845210
  85.2653620  20.5552120  68.4961630  76.9031100  21.7644770  61.1262170
  77.6610460  21.8773650  60.5526200  76.4408270  22.6013970  61.0805600
  83.4444910  23.8784040  64.1164480  82.6319420  23.5040930  63.7760360
  83.9486550  23.1229120  64.4185670  79.2756250  22.2908820  59.6664140
  79.8049010  21.5038620  59.5372090  79.9084570  22.9700010  59.8999670
  81.4694090  22.0283960  62.7209530  80.8396830  21.3271270  62.8879660
  80.9299230  22.7888090  62.5042690  92.6431100  38.1848760  62.3894390
  92.8183290  37.4986500  61.7455310  91.9452670  38.7095810  61.9971060
  88.1965110  20.7221520  75.7342490  88.0830560  21.0416130  76.6294010
  89.0134850  21.1234030  75.4379770  90.9763600  37.8693050  75.2161180
  91.7688920  37.3742280  75.0087140  91.2696750  38.5483190  75.8236790
  87.1023260  28.7413990  46.0977230  87.0217310  27.8268600  45.8268940
  86.6887680  29.2381060  45.3916940  85.2341300  30.5193010  47.9786500
  84.4583400  30.0393450  48.2685070  85.8854230  29.8398660  47.8042660
  79.2507130  30.8312820  48.8562260  78.4192010  30.5761530  49.2558770
  79.8588110  30.9023590  49.5920180  79.2308390  34.8652910  49.0520280
  79.5336430  33.9750650  48.8730500  79.9751980  35.4223130  48.8242530
  75.6232090  28.3920360  48.5244350  76.1948200  27.6242560  48.5247990
  75.6233630  28.6909120  47.6150960  85.4812040  37.2111210  46.3789620
  84.8623480  37.6668710  45.8084060  86.3363820  37.3662670  45.9779320
  84.6750290  33.1950200  47.9856660  84.6058570  32.2540140  47.8245790
  85.4370150  33.2851610  48.5579230  76.8656960  23.8004720  50.3113280
  76.6859800  22.9030470  50.5916040  76.4637040  24.3476590  50.9860230
  85.7055460  26.0020580  48.2125590  86.0820280  25.1292460  48.0999260
  85.6074970  26.3379280  47.3216030  79.8360470  24.3746210  43.6743030
  79.9427220  25.2749940  43.9811790  78.9252830  24.3264180  43.3837680
  89.4879580  23.4971020  45.1453930  90.3089200  23.0067590  45.1879410
  89.5213660  24.0868680  45.8985770  77.4843630  26.2965220  48.9195620
  78.1653740  26.5603590  49.5383020  77.1691680  25.4566090  49.2533630
  93.7779130  25.5137770  51.7097560  93.0731300  25.9019480  51.1912670
  94.0437050  26.2088060  52.3118490  79.9604300  21.9831140  52.2731630
  79.9622740  22.5003530  51.4677530  79.1308610  21.5061320  52.2501560
  86.3475390  32.0950450  43.7721530  85.7292660  32.5599900  43.2084250
  86.8598640  32.7877930  44.1891040  81.2107150  31.6226320  50.4505130
  80.8776530  32.2495240  51.0926200  81.3873830  32.1488200  49.6706800
  89.7241060  25.4371400  47.9181470  89.0196630  25.7256290  48.4984580
  90.0853220  26.2471510  47.5581030  80.4226250  33.5907120  52.2654310
  81.0400250  34.2658200  51.9838760  79.5619370  33.9995100  52.1741810
  92.7927980  24.8826190  48.3090680  91.8452890  24.9165170  48.4406110
  93.1177970  25.6965140  48.6940040  88.2748020  31.8020500  50.2236740
  88.6916810  31.5880610  49.3890200  88.9987840  32.0593290  50.7945360
  92.2210120  30.2007720  50.3152980  91.3928750  30.2700810  49.8403110
  92.8160600  30.7862030  49.8468810  89.7425570  30.8092500  43.8442040
  89.1237990  30.4712050  43.1968340  89.7250020  30.1652260  44.5521230
  89.1852130  26.9877040  51.2607850  88.7723310  27.8130750  51.5147840
  88.4528080  26.4022080  51.0684210  81.3184920  29.7736940  46.1226520
  80.9141920  29.0614190  45.6272420  81.4048040  29.4290180  47.0114560
  81.7866620  33.4604500  48.2865730  81.4894910  32.8549970  47.6073510
  82.7366440  33.4981810  48.1755090  80.8785050  33.1986190  54.9373530
  79.9813580  33.4226160  55.1846930  80.9037920  33.3221130  53.9884930
  87.9190270  30.0479310  40.8514790  88.3583550  29.2101740  40.7052610
  88.6318690  30.6808710  40.9378930  79.7056270  30.0699510  53.5130900
  79.5664040  30.9422310  53.8818300  78.8237630  29.7272320  53.3678840
  91.5007410  21.3022120  39.1655830  91.1880070  21.3948950  40.0654900
  92.2619880  21.8803150  39.1153260  93.4551440  36.7948310  57.0180220
  93.9311160  37.2731200  57.6969300  94.0758600  36.7265800  56.2925720
  75.6574920  31.8397060  49.4301810  75.7355340  31.9745830  48.4857530
  76.2716600  31.1312950  49.6229930  76.9022550  33.5397250  45.8407990
  76.4950630  33.6811840  44.9861590  77.7935560  33.2557410  45.6379200
  92.8584690  33.9861160  54.1780230  92.9847750  33.7473040  53.2597410
  92.9006070  33.1545700  54.6502310  75.7134440  32.8811230  51.9696270
  75.8765480  32.4116590  51.1515640  76.1786890  32.3734790  52.6345110
  84.7723020  24.8785510  52.6092160  84.3102390  25.0868530  53.4212100
  84.3701130  24.0644860  52.3062830  89.7727530  26.0994460  53.7388820
  88.9221120  25.8000210  54.0597890  89.6129320  26.3436470  52.8272640
  86.8677240  27.5996210  55.8387610  87.1930650  26.7659960  55.4989840
  87.6557570  28.1224730  55.9865940  82.7166640  28.0336140  55.3998360
  82.6210240  27.0930870  55.2498760  83.5598620  28.2551210  55.0046430
  77.8477180  24.4449810  53.5532140  77.4540570  25.2925020  53.7604920
  77.1595580  23.8076180  53.7440780  84.4222230  24.5284780  56.6228880
  83.7320550  24.3356980  57.2574970  85.1654530  24.8119420  57.1553180
  75.1494230  22.3678270  47.5862220  74.8607280  22.9381130  48.2987200
  75.8939990  21.8882720  47.9493450  75.3364460  26.3098390  38.7964940
  75.2539130  27.2529150  38.9379930  74.9847520  26.1673300  37.9177290
  86.6985200  28.3683220  49.4582800  85.9666320  28.8770030  49.8072900
  86.3009540  27.5513200  49.1571580  78.9864970  24.9263910  46.8229500
  78.6465020  25.4039140  47.5796550  78.2242290  24.4729030  46.4630600
  87.1611110  23.8216900  48.8705740  87.1783850  24.2725550  49.7147590
  86.9126690  22.9222540  49.0839180  90.5881860  21.2349080  54.7092120
  90.9127630  20.5038740  55.2350100  90.6238370  20.9162720  53.8073110
  77.2873420  32.2562660  54.1292080  76.9028210  31.6156330  54.7275040
  77.5985610  32.9598780  54.6986810  83.4370560  29.1039200  49.6100700
  83.8040690  28.6297770  50.3562040  83.2475620  29.9780770  49.9509040
  76.3011050  23.8482890  45.7394170  76.0157970  23.4838560  46.5772790
  76.2389910  23.1163350  45.1257310  81.2269930  28.1447840  51.9284910
  80.9227000  29.0239820  52.1535270  82.1816390  28.2047630  51.9642350
  85.8958500  31.4183250  54.2047150  85.8295810  30.4978920  53.9504740
  85.2663640  31.5158690  54.9191790  88.6898030  27.1131800  40.7569700
  89.5777650  27.4249030  40.5821040  88.6603120  26.2404050  40.3650280
  79.7989120  32.0189210  46.1630570  80.3167790  31.2157470  46.1087460
  79.3473140  31.9568350  47.0047400  77.2833660  28.9850580  53.0756270
  76.9248600  29.6504430  53.6629610  76.9888220  28.1534130  53.4468890
  80.4846780  29.4434820  55.9595820  80.1846920  29.5892000  55.0623640
  81.2558020  28.8840110  55.8669210  85.8275230  34.2403820  53.9550950
  85.8419770  33.3084780  53.7369860  85.1200330  34.3263580  54.5940720
  90.9612300  28.4243640  40.2249560  90.8776020  28.8557860  39.3746000
  91.6806490  28.8841990  40.6576380  92.0386440  30.8811160  53.3019530
  91.3134630  31.4739940  53.1048920  92.5661900  30.8734700  52.5032900
  75.7941710  28.9841840  39.6990870  76.6636560  29.2666640  39.9826790
  75.3032030  29.7977710  39.5839680  85.2609130  35.8821390  51.0491450
  85.9051350  36.0880770  51.7264870  85.6238570  35.1209790  50.5962300
  78.8588300  20.7152700  44.2921670  78.7302930  20.7070600  45.2406590
  78.0350320  21.0535790  43.9412680  75.8582230  22.4743820  53.7528370
  75.1440750  22.6740740  54.3580980  76.2777270  21.6983390  54.1243170
  84.1367410  34.7339970  56.1393020  83.8164280  34.0149210  56.6838710
  83.4625770  35.4095040  56.2129080  87.3521010  24.9666130  51.5029820
  87.7201830  24.1461340  51.8309390  86.4919210  25.0268020  51.9185470
  90.7183040  23.9223070  42.3117380  90.0896200  24.0268740  41.5975610
  90.2234960  24.1419850  43.1011260  84.3123000  27.6205720  51.7267790
  84.8108250  28.0951540  52.3919640  84.4545950  26.6969240  51.9337820
  86.7182500  22.9259680  45.1671050  86.5950280  22.9445810  44.2180560
  87.6667060  22.9738620  45.2869450  83.8059290  38.1614980  44.4399030
  84.0600790  38.1236370  43.5178400  82.8571770  38.0348310  44.4327280
  91.5189860  23.8373680  52.5696180  91.0163460  24.5779080  52.9089990
  92.3346520  24.2257680  52.2532970  89.8111870  29.0806860  46.0157540
  88.8702010  29.0957090  46.1905230  90.1255940  28.2942820  46.4617840
  79.2854980  38.3446920  47.3628930  80.0217460  37.7962380  47.6337500
  79.6695900  39.2102930  47.2234920  87.1277890  33.6372860  56.4989920
  86.5216050  33.6604460  55.7585670  86.8232000  32.9055900  57.0357170
  88.5578260  37.3653150  55.1099330  89.5100010  37.2811170  55.0599570
  88.4106480  38.0294860  55.7833120  76.0111070  30.0166450  55.4950560
  76.5150090  29.4373730  56.0666790  75.2718490  30.3006680  56.0326930
  83.0649010  31.4237440  55.0286080  82.2994680  31.9922440  54.9440750
  83.2464970  31.1313650  54.1354310  86.1537420  31.8000670  39.6538840
  85.6047520  32.2469970  40.2981580  86.7756680  31.2949920  40.1776510
  90.2072360  33.1542770  55.5861100  90.9481830  33.4918530  55.0828560
  89.4445040  33.3234830  55.0330870  78.0434150  28.1596040  56.3900630
  78.0839490  27.8609910  57.2985860  78.8979650  28.5603650  56.2308150
  79.9839960  26.7388140  54.3575120  79.4536420  26.2479090  53.7298460
  80.6528030  27.1672340  53.8233050  88.8818020  31.2057600  54.1216310
  89.2959040  31.3602680  54.9706730  87.9469020  31.3312820  54.2842090
  89.3540190  28.5453760  56.1255460  89.9360960  27.7906080  56.0375940
  89.5301960  29.0761200  55.3486940  80.4712260  23.7050510  54.4372410
  80.3769130  23.0871260  53.7123280  79.8909650  24.4316800  54.2102320
  83.6433250  31.1578080  52.0912240  84.0621360  32.0010810  51.9188480
  82.7241880  31.2950120  51.8619020  85.9797150  28.8894260  53.4750080
  86.0993360  28.2935400  54.2144920  86.8391150  28.9263950  53.0551380
  88.3185050  29.4431450  52.0512590  87.7920270  29.9674070  51.4477730
  88.6616390  30.0758840  52.6822320  81.4940670  37.4631090  53.2069970
  80.9561760  38.1877150  52.8878670  81.7474630  36.9861430  52.4167310
  82.7465920  25.4315610  54.7325900  83.3365610  25.1231460  55.4203720
  81.9286160  24.9595360  54.8885800  87.5659350  25.0481420  54.9658920
  86.8774870  24.3862960  54.9008910  88.2865370  24.6019690  55.4107380
  88.1959750  21.6433050  41.0249180  88.4762040  20.8000950  41.3808600
  87.4225480  21.8756160  41.5387930  79.5154240  23.9325440  38.4840180
  79.8180140  23.9392870  37.5759330  80.2548830  23.5823300  38.9807840
  84.3502880  38.6982300  53.4656620  84.2761580  39.6017440  53.7728990
  83.4481720  38.3794200  53.4378690  82.7339170  22.8760060  39.4696380
  82.3861170  22.1984050  38.8898830  82.9351940  22.4149570  40.2839770
  75.7530170  36.0256890  46.7690240  76.0833180  35.1577950  46.5368880
  76.1821170  36.2315410  47.5995200  76.2420380  36.8927480  49.5071870
  75.8051370  37.0728280  50.3396020  76.8098060  37.6502100  49.3653590
  76.0744810  29.4047710  45.8660750  75.4193650  29.1359350  45.2220450
  76.9122760  29.2952190  45.4162730  92.6259640  31.1744150  38.7925610
  92.9008480  32.0823030  38.6644830  92.4370380  31.1106680  39.7287600
  89.0235250  24.1989000  40.0879240  89.4420130  24.0119980  39.2475900
  88.7171310  23.3468050  40.3982170  92.5224980  29.1113140  43.7855040
  92.1468580  28.3441070  43.3536330  91.7928100  29.4935840  44.2729970
  77.1120740  29.7900280  50.4064090  77.4793780  29.7027680  51.2860110
  76.5431560  29.0266830  50.3070950  91.9124600  28.2584660  53.4194560
  91.6810690  28.0297410  52.5192510  92.1729150  29.1784210  53.3739450
  76.6636740  26.7009370  54.3122510  75.7692790  26.6676130  54.6516220
  77.2034290  26.8996160  55.0773760  90.3512670  23.4841090  56.1974260
  91.2282850  23.4924490  56.5808260  90.3633510  22.7471930  55.5866610
  75.2882890  26.6146640  41.8086080  74.3846970  26.8776840  41.6337740
  75.7723510  26.8857810  41.0286040  91.7975940  27.3370630  47.0862280
  92.3213420  26.8433280  46.4552450  92.3835360  27.4720990  47.8309850
  91.9765660  27.4210500  50.6081830  91.0268370  27.3874040  50.7226820
  92.1578670  28.3310610  50.3731600  77.8310100  25.6712180  39.7180460
  78.5401800  25.2495400  39.2327740  77.1150040  25.7387410  39.0863810
  77.4784260  21.7251510  38.7583110  78.2012390  22.2660450  39.0764330
  77.7508780  21.4514930  37.8824650  91.2875910  26.5943980  43.0254690
  91.7835030  26.3614850  43.8103570  91.0891980  25.7555820  42.6092330
  77.1676450  20.9757700  48.6605730  77.8152640  20.4255080  48.2200890
  77.5878290  21.2300850  49.4821540  92.7163070  25.2304930  45.5592370
  92.6062350  25.0760970  46.4974640  93.4770660  24.7025870  45.3167780
  91.0628790  21.1699060  52.0175370  91.7001010  21.7833200  52.3834560
  91.2103680  21.2059720  51.0724600  93.6053340  23.0612850  38.7998510
  94.5302650  22.9294030  38.5916800  93.5829130  23.1405670  39.7534960
  93.6791830  23.8323510  41.4255220  92.8843330  23.7668630  41.9548130
  93.8835110  24.7674150  41.4140570  76.9208450  21.1313370  51.4031050
  76.5723270  21.5877190  52.1689230  76.5896150  20.2370500  51.4853480
  82.2278850  35.8592560  51.1693960  81.9870210  36.1267120  50.2824480
  83.1681490  36.0298290  51.2244820  84.4333270  22.3225250  54.9250470
  84.3722160  22.9147080  55.6745880  85.3733650  22.2151210  54.7800730
  87.0707830  21.9795310  54.5642760  87.6848240  22.2974600  53.9023840
  87.6157390  21.4943900  55.1838620  77.5929090  20.6589570  54.6781820
  78.1412080  20.4777620  53.9147930  77.6584400  19.8683680  55.2138130
  87.8115870  20.5427450  50.8912050  86.9375710  20.8762560  50.6884980
  87.7026620  20.0700630  51.7163920  88.7187850  22.7498320  52.2753770
  88.3901210  21.9350080  51.8955500  89.6670150  22.7068130  52.1519460
  77.9973080  34.6153600  51.6390060  77.2707140  33.9958890  51.5716010
  78.0582230  35.0094210  50.7688140  81.6018180  36.8298600  48.4239470
  82.1183200  36.2185960  47.8987730  82.2515560  37.3327380  48.9150480
  84.3413680  37.7207090  49.2508450  84.6291490  37.4661390  48.3741460
  84.8536900  37.1684450  49.8414020  90.1111760  22.1620390  47.8754050
  90.5519850  22.1065490  47.0275650  89.8419350  23.0778400  47.9464230
  91.9750330  21.7935630  45.8862870  91.9138730  20.8496850  45.7393890
  92.7542360  21.9015720  46.4316330  76.2803080  37.9327990  44.8486820
  76.1125120  37.2998670  45.5468710  75.4137590  38.1387390  44.4981010
  76.9031100  21.7644770  42.3518680  77.6610460  21.8773650  41.7782710
  76.4408270  22.6013970  42.3062110  87.9469890  20.5426490  46.5804060
  88.5499260  21.1146700  47.0552580  87.2062880  21.1065930  46.3577960
  91.0904490  20.9448050  41.8544340  91.2855120  21.8431500  42.1211770
  90.3034360  20.7135130  42.3477290  79.2756250  22.2908820  40.8920650
  79.8049010  21.5038620  40.7628600  79.9084570  22.9700010  41.1256180
  81.5949650  21.3067940  56.3818530  81.3133920  21.8101540  55.6179350
  81.9769350  20.5089690  56.0160660  88.1965110  20.7221520  56.9599000
  88.0830560  21.0416130  57.8550520  89.0134850  21.1234030  56.6636280
  90.9763600  37.8693050  56.4417690  91.7688920  37.3742280  56.2343650
  91.2696750  38.5483190  57.0493300  87.1023260  28.7413990  27.3233740
  87.0217310  27.8268600  27.0525450  86.6887680  29.2381060  26.6173450
  85.2341300  30.5193010  29.2043010  84.4583400  30.0393450  29.4941580
  85.8854230  29.8398660  29.0299170  79.2507130  30.8312820  30.0818770
  78.4192010  30.5761530  30.4815280  79.8588110  30.9023590  30.8176690
  89.2548730  34.9253200  27.9842140  88.7930260  34.1540440  28.3129310
  90.0674280  34.9519270  28.4894590  79.2308390  34.8652910  30.2776790
  79.5336430  33.9750650  30.0987010  79.9751980  35.4223130  30.0499040
  77.6599080  25.7914710  23.8661160  76.7715780  26.1330680  23.7641040
  77.9440270  25.5915030  22.9741990  75.6232090  28.3920360  29.7500860
  76.1948200  27.6242560  29.7504500  75.6233630  28.6909120  28.8407470
  84.6750290  33.1950200  29.2113170  84.6058570  32.2540140  29.0502300
  85.4370150  33.2851610  29.7835740  76.8656960  23.8004720  31.5369790
  76.6859800  22.9030470  31.8172550  76.4637040  24.3476590  32.2116740
  85.7055460  26.0020580  29.4382100  86.0820280  25.1292460  29.3255770
  85.6074970  26.3379280  28.5472540  79.8360470  24.3746210  24.8999540
  79.9427220  25.2749940  25.2068300  78.9252830  24.3264180  24.6094190
  89.4879580  23.4971020  26.3710440  90.3089200  23.0067590  26.4135920
  89.5213660  24.0868680  27.1242280  77.4843630  26.2965220  30.1452130
  78.1653740  26.5603590  30.7639530  77.1691680  25.4566090  30.4790140
  81.6768200  27.3432580  29.2324720  82.1846420  27.8413550  29.8729740
  82.2081440  26.5667780  29.0564080  93.7779130  25.5137770  32.9354070
  93.0731300  25.9019480  32.4169180  94.0437050  26.2088060  33.5375000
  79.9604300  21.9831140  33.4988140  79.9622740  22.5003530  32.6934040
  79.1308610  21.5061320  33.4758070  86.3475390  32.0950450  24.9978040
  85.7292660  32.5599900  24.4340760  86.8598640  32.7877930  25.4147550
  81.2107150  31.6226320  31.6761640  80.8776530  32.2495240  32.3182710
  81.3873830  32.1488200  30.8963310  89.7241060  25.4371400  29.1437980
  89.0196630  25.7256290  29.7241090  90.0853220  26.2471510  28.7837540
  79.6419630  23.6941100  31.5058590  79.9836440  24.5383150  31.2112460
  78.7035440  23.8424840  31.6223930  80.4226250  33.5907120  33.4910820
  81.0400250  34.2658200  33.2095270  79.5619370  33.9995100  33.3998320
  75.7158590  32.7806980  22.3717670  75.3386570  33.2694080  21.6402570
  75.9731660  33.4532260  23.0024200  91.3403840  35.0546530  31.4065460
  90.6567360  35.7245640  31.3982130  91.8798130  35.2527180  30.6410320
  92.7927980  24.8826190  29.5347190  91.8452890  24.9165170  29.6662620
  93.1177970  25.6965140  29.9196550  83.3247520  21.1823370  27.8303180
  83.6322500  20.6270260  27.1138680  82.3948220  21.3167830  27.6476170
  90.1708000  33.6206880  25.2100810  90.0604330  32.6781210  25.3350230
  90.1676250  33.9822520  26.0963570  88.2748020  31.8020500  31.4493250
  88.6916810  31.5880610  30.6146710  88.9987840  32.0593290  32.0201870
  85.7128280  29.2472200  24.5663300  84.7857560  29.1809580  24.7951770
  85.8653100  30.1852330  24.4518540  85.6997360  25.5189200  21.5630460
  84.7601030  25.6803160  21.6482920  86.0180620  26.2374880  21.0166450
  92.2210120  30.2007720  31.5409490  91.3928750  30.2700810  31.0659620
  92.8160600  30.7862030  31.0725320  89.7425570  30.8092500  25.0698550
  89.1237990  30.4712050  24.4224850  89.7250020  30.1652260  25.7777740
  89.1852130  26.9877040  32.4864360  88.7723310  27.8130750  32.7404350
  88.4528080  26.4022080  32.2940720  81.3184920  29.7736940  27.3483030
  80.9141920  29.0614190  26.8528930  81.4048040  29.4290180  28.2371070
  81.7866620  33.4604500  29.5122240  81.4894910  32.8549970  28.8330020
  82.7366440  33.4981810  29.4011600  80.0313540  26.5480150  31.1282070
  80.5828130  26.6575490  30.3535320  80.5457050  26.9217750  31.8437300
  89.8752230  37.0336370  33.1745340  89.3982790  37.8408560  32.9817950
  89.1914020  36.3814700  33.3271550  80.8785050  33.1986190  36.1630040
  79.9813580  33.4226160  36.4103440  80.9037920  33.3221130  35.2141440
  87.9190270  30.0479310  22.0771300  88.3583550  29.2101740  21.9309120
  88.6318690  30.6808710  22.1635440  79.7056270  30.0699510  34.7387410
  79.5664040  30.9422310  35.1074810  78.8237630  29.7272320  34.5935350
  86.0285650  34.9875380  26.0452540  86.4681560  35.7299710  25.6307930
  85.9672540  35.2301950  26.9691500  91.5007410  21.3022120  20.3912340
  91.1880070  21.3948950  21.2911410  92.2619880  21.8803150  20.3409770
  78.0189550  28.6681920  24.8489680  77.8987150  29.3944010  24.2370950
  77.7090440  27.8984830  24.3717590  75.6574920  31.8397060  30.6558320
  75.7355340  31.9745830  29.7114040  76.2716600  31.1312950  30.8486440
  76.9022550  33.5397250  27.0664500  76.4950630  33.6811840  26.2118100
  77.7935560  33.2557410  26.8635710  92.8584690  33.9861160  35.4036740
  92.9847750  33.7473040  34.4853920  92.9006070  33.1545700  35.8758820
  86.7201430  37.6889160  33.9731550  87.2346100  37.5997170  34.7753980
  85.8770510  38.0348860  34.2659460  81.1744210  37.7543030  25.1787170
  80.9986690  36.8378570  24.9654970  80.3199950  38.1130320  25.4184970
  88.3981960  35.4832060  21.9613550  87.7047120  35.4809350  21.3015830
  89.1404820  35.0591380  21.5307720  92.7108700  26.0393620  36.3686480
  92.0952970  26.5473290  35.8401940  92.3905120  25.1391950  36.3112420
  75.7134440  32.8811230  33.1952780  75.8765480  32.4116590  32.3772150
  76.1786890  32.3734790  33.8601620  80.4853210  22.0116990  28.2313350
  80.0421360  22.7926530  27.8997870  81.0438200  22.3346880  28.9384290
  84.7723020  24.8785510  33.8348670  84.3102390  25.0868530  34.6468610
  84.3701130  24.0644860  33.5319340  89.7727530  26.0994460  34.9645330
  88.9221120  25.8000210  35.2854400  89.6129320  26.3436470  34.0529150
  83.6012030  21.6327690  23.1119180  82.9766210  21.6287560  23.8372490
  83.5142150  20.7658650  22.7155150  82.5229110  22.5564320  30.0902950
  82.8201440  23.4627150  30.0094970  83.0714670  22.0683100  29.4762520
  80.2767430  27.1350560  25.9594600  80.0508350  26.9187730  26.8641220
  79.4959960  27.5679020  25.6140570  87.5065190  27.1413930  24.5585250
  86.9074080  27.8649730  24.3748870  88.0544800  27.0790710  23.7761700
  86.1130060  25.7777470  26.5888530  86.5059630  26.0949670  25.7757220
  86.4746910  24.8989350  26.7033050  77.8477180  24.4449810  34.7788650
  77.4540570  25.2925020  34.9861430  77.1595580  23.8076180  34.9697290
  75.1494230  22.3678270  28.8118730  74.8607280  22.9381130  29.5243710
  75.8939990  21.8882720  29.1749960  75.3364460  26.3098390  20.0221450
  75.2539130  27.2529150  20.1636440  74.9847520  26.1673300  19.1433800
  86.6985200  28.3683220  30.6839310  85.9666320  28.8770030  31.0329410
  86.3009540  27.5513200  30.3828090  83.1362590  25.0437420  29.0891800
  83.1398650  24.6027370  28.2396340  84.0313710  25.3654750  29.1963620
  78.9864970  24.9263910  28.0486010  78.6465020  25.4039140  28.8053060
  78.2242290  24.4729030  27.6887110  83.1982740  26.0449500  22.0798560
  83.3195560  26.0035980  23.0284380  82.8131250  26.9073650  21.9245290
  87.1611110  23.8216900  30.0962250  87.1783850  24.2725550  30.9404100
  86.9126690  22.9222540  30.3095690  82.2104240  28.3550640  21.4781860
  81.6421140  27.9068890  20.8517770  82.9193240  28.7143420  20.9447010
  90.5881860  21.2349080  35.9348630  90.9127630  20.5038740  36.4606610
  90.6238370  20.9162720  35.0329620  77.2873420  32.2562660  35.3548590
  76.9028210  31.6156330  35.9531550  77.5985610  32.9598780  35.9243320
  83.4370560  29.1039200  30.8357210  83.8040690  28.6297770  31.5818550
  83.2475620  29.9780770  31.1765550  76.3011050  23.8482890  26.9650680
  76.0157970  23.4838560  27.8029300  76.2389910  23.1163350  26.3513820
  81.2269930  28.1447840  33.1541420  80.9227000  29.0239820  33.3791780
  82.1816390  28.2047630  33.1898860  79.7551720  32.3508830  23.7508270
  78.9813980  31.8106450  23.5906990  80.4846350  31.8315440  23.4126030
  90.5139700  31.3474190  29.5434660  91.2338820  31.8429480  29.1530770
  90.3121520  30.6692080  28.8988530  85.9749640  22.7412150  23.6864050
  85.1614250  22.2425320  23.6109360  85.7811590  23.5810400  23.2700400
  88.6898030  27.1131800  21.9826210  89.5777650  27.4249030  21.8077550
  88.6603120  26.2404050  21.5906790  79.7989120  32.0189210  27.3887080
  80.3167790  31.2157470  27.3343970  79.3473140  31.9568350  28.2303910
  84.6858620  33.2855490  22.6614380  85.0274320  34.0297720  22.1657700
  83.8571330  33.5986610  23.0239210  77.2833660  28.9850580  34.3012780
  76.9248600  29.6504430  34.8886120  76.9888220  28.1534130  34.6725400
  85.8275230  34.2403820  35.1807460  85.8419770  33.3084780  34.9626370
  85.1200330  34.3263580  35.8197230  90.9612300  28.4243640  21.4506070
  90.8776020  28.8557860  20.6002510  91.6806490  28.8841990  21.8832890
  92.0386440  30.8811160  34.5276040  91.3134630  31.4739940  34.3305430
  92.5661900  30.8734700  33.7289410  91.9899550  35.2785900  24.1788200
  91.3475710  34.6241520  24.4531920  91.6030210  35.6840990  23.4028870
  87.5686030  32.6071330  28.0259890  87.9209850  32.0099460  27.3661260
  86.6848360  32.2815560  28.1968140  83.6549310  33.3669020  25.4330300
  84.3420440  33.9138230  25.8137890  82.8681730  33.9109750  25.4679910
  75.7941710  28.9841840  20.9247380  76.6636560  29.2666640  21.2083300
  75.3032030  29.7977710  20.8096190  82.9576520  30.3715050  25.0455660
  83.4139300  31.1820300  25.2715850  82.6064730  30.0538190  25.8774150
  85.2609130  35.8821390  32.2747960  85.9051350  36.0880770  32.9521380
  85.6238570  35.1209790  31.8218810  78.8588300  20.7152700  25.5178180
  78.7302930  20.7070600  26.4663100  78.0350320  21.0535790  25.1669190
  86.5341210  33.8853740  30.9925410  87.1763440  33.1846900  31.1057580
  87.0590560  34.6652180  30.8122300  90.3796930  34.1702360  20.7164550
  90.1534510  33.4532800  21.3089190  89.9893130  33.9214800  19.8786300
  88.3078830  34.6848640  34.1961470  88.6435070  35.2715330  34.8739390
  87.3879170  34.5541350  34.4259260  76.1612960  38.1969220  21.4909010
  76.5210600  38.7958560  20.8366280  76.0205300  38.7429110  22.2644040
  75.8582230  22.4743820  34.9784880  75.1440750  22.6740740  35.5837490
  76.2777270  21.6983390  35.3499680  89.9613180  32.0874300  22.3778710
  89.6734880  32.5486990  23.1656590  90.7565350  31.6272070  22.6462930
  76.1454820  36.4624080  35.9651410  76.2545940  35.5218820  35.8246800
  75.4935380  36.7278830  35.3165140  84.1367410  34.7339970  37.3649530
  83.8164280  34.0149210  37.9095220  83.4625770  35.4095040  37.4385590
  82.1781580  35.5800420  22.3082680  82.1691680  36.3130110  21.6927190
  81.2579940  35.3332000  22.4009640  77.7788220  30.8015310  23.0529440
  77.1716170  31.5414210  23.0624740  78.2537570  30.8914670  22.2267640
  87.3521010  24.9666130  32.7286330  87.7201830  24.1461340  33.0565900
  86.4919210  25.0268020  33.1441980  90.7183040  23.9223070  23.5373890
  90.0896200  24.0268740  22.8232120  90.2234960  24.1419850  24.3267770
  85.1641180  35.6428660  20.9707870  85.2653160  35.4392650  20.0409850
  84.2642920  35.3886940  21.1755650  82.6867070  26.2009020  24.9531770
  81.9783220  26.6695360  25.3945380  82.9711550  25.5431030  25.5876960
  84.3123000  27.6205720  32.9524300  84.8108250  28.0951540  33.6176150
  84.4545950  26.6969240  33.1594330  86.7182500  22.9259680  26.3927560
  86.5950280  22.9445810  25.4437070  87.6667060  22.9738620  26.5125960
  83.8059290  38.1614980  25.6655540  84.0600790  38.1236370  24.7434910
  82.8571770  38.0348310  25.6583790  80.8902090  24.5094100  22.3282480
  81.7392620  24.9464250  22.2622670  80.5233360  24.8214360  23.1554540
  91.5189860  23.8373680  33.7952690  91.0163460  24.5779080  34.1346500
  92.3346520  24.2257680  33.4789480  89.8111870  29.0806860  27.2414050
  88.8702010  29.0957090  27.4161740  90.1255940  28.2942820  27.6874350
  79.7893510  30.7626460  20.8018010  80.5556780  30.6507820  21.3643440
  79.8668200  30.0664430  20.1494780  78.4840270  28.1951530  21.4850900
  78.5643860  27.2479040  21.5968300  79.3760020  28.5258410  21.5911560
  79.2854980  38.3446920  28.5885440  80.0217460  37.7962380  28.8594010
  79.6695900  39.2102930  28.4491430  76.1700460  34.4120490  24.4626950
  75.2440240  34.6541630  24.4532360  76.6356890  35.2394750  24.3411700
  78.2913260  37.5292990  37.7771020  79.0925990  37.8505040  38.1906420
  77.7765080  37.1688570  38.4990930  82.3957290  37.5177230  20.4111010
  83.1885900  37.8066060  19.9592800  81.8761640  37.0869400  19.7323490
  87.1277890  33.6372860  37.7246430  86.5216050  33.6604460  36.9842180
  86.8232000  32.9055900  38.2613680  88.5578260  37.3653150  36.3355840
  89.5100010  37.2811170  36.2856080  88.4106480  38.0294860  37.0089630
  91.4487460  36.7447360  21.8347750  91.1628970  36.3312500  21.0201930
  91.2507010  37.6735070  21.7148270  76.0111070  30.0166450  36.7207070
  76.5150090  29.4373730  37.2923300  75.2718490  30.3006680  37.2583440
  82.9134690  32.7380640  20.2753360  82.8085330  32.1232990  21.0014740
  82.7458910  32.2146530  19.4916370  86.1537420  31.8000670  20.8795350
  85.6047520  32.2469970  21.5238090  86.7756680  31.2949920  21.4033020
  90.2072360  33.1542770  36.8117610  90.9481830  33.4918530  36.3085070
  89.4445040  33.3234830  36.2587380  78.0434150  28.1596040  37.6157140
  78.0839490  27.8609910  38.5242370  78.8979650  28.5603650  37.4564660
  81.8212540  30.7591590  22.7760650  82.2428960  30.5931460  23.6192040
  81.9463380  29.9491820  22.2815790  79.9839960  26.7388140  35.5831630
  79.4536420  26.2479090  34.9554970  80.6528030  27.1672340  35.0489560
  84.3340180  29.7829200  20.0237750  84.8545840  29.0678220  19.6578900
  84.9808580  30.4215070  20.3238260  88.8818020  31.2057600  35.3472820
  89.2959040  31.3602680  36.1963240  87.9469020  31.3312820  35.5098600
  80.4712260  23.7050510  35.6628920  80.3769130  23.0871260  34.9379790
  79.8909650  24.4316800  35.4358830  83.2373700  22.2623750  32.6956310
  82.7891000  22.2848010  31.8501860  82.6038900  21.8642770  33.2926610
  83.6433250  31.1578080  33.3168750  84.0621360  32.0010810  33.1444990
  82.7241880  31.2950120  33.0875530  88.3185050  29.4431450  33.2769100
  87.7920270  29.9674070  32.6734240  88.6616390  30.0758840  33.9078830
  80.7171440  26.8324820  19.7218810  80.5160500  25.9692180  20.0832150
  80.5463490  26.7458180  18.7840410  81.4940670  37.4631090  34.4326480
  80.9561760  38.1877150  34.1135180  81.7474630  36.9861430  33.6423820
  88.1959750  21.6433050  22.2505690  88.4762040  20.8000950  22.6065110
  87.4225480  21.8756160  22.7644440  79.5154240  23.9325440  19.7096690
  79.8180140  23.9392870  18.8015840  80.2548830  23.5823300  20.2064350
  84.3502880  38.6982300  34.6913130  84.2761580  39.6017440  34.9985500
  83.4481720  38.3794200  34.6635200  82.7339170  22.8760060  20.6952890
  82.3861170  22.1984050  20.1155340  82.9351940  22.4149570  21.5096280
  84.8988210  37.8640810  22.3139490  85.7939000  38.2025780  22.3358250
  84.9305840  37.1420220  21.6863770  78.5384370  33.2367860  20.5426490
  78.9759240  33.7797530  21.1984070  79.0232100  32.4114810  20.5522830
  80.3492090  34.3565900  25.6548720  80.0487630  34.2330870  26.5552630
  80.2429580  33.4974490  25.2464450  76.2420380  36.8927480  30.7328380
  75.8051370  37.0728280  31.5652530  76.8098060  37.6502100  30.5910100
  91.8782560  36.3944480  35.0205690  91.2784550  36.4537040  34.2769610
  92.0076460  35.4549460  35.1502540  93.1184010  34.1362300  20.3575400
  92.2876970  34.2038950  20.8282630  93.2955840  35.0266420  20.0542260
  92.5740470  30.8809780  22.8609600  93.3359380  31.4506430  22.9669290
  92.5894840  30.3136980  23.6317910  76.0744810  29.4047710  27.0917260
  75.4193650  29.1359350  26.4476960  76.9122760  29.2952190  26.6419240
  93.5800440  31.7359880  27.7051530  93.9509270  30.9527200  27.2987500
  94.2202370  32.4248980  27.5268830  90.5634200  33.1196460  33.1181850
  89.7494040  33.5493620  33.3807640  90.9708400  33.7314870  32.5050900
  92.6259640  31.1744150  20.0182120  92.9008480  32.0823030  19.8901340
  92.4370380  31.1106680  20.9544110  89.0235250  24.1989000  21.3135750
  89.4420130  24.0119980  20.4732410  88.7171310  23.3468050  21.6238680
  92.5224980  29.1113140  25.0111550  92.1468580  28.3441070  24.5792840
  91.7928100  29.4935840  25.4986480  77.1120740  29.7900280  31.6320600
  77.4793780  29.7027680  32.5116620  76.5431560  29.0266830  31.5327460
  91.9124600  28.2584660  34.6451070  91.6810690  28.0297410  33.7449020
  92.1729150  29.1784210  34.5995960  76.6636740  26.7009370  35.5379020
  75.7692790  26.6676130  35.8772730  77.2034290  26.8996160  36.3030270
  90.3512670  23.4841090  37.4230770  91.2282850  23.4924490  37.8064770
  90.3633510  22.7471930  36.8123120  75.2882890  26.6146640  23.0342590
  74.3846970  26.8776840  22.8594250  75.7723510  26.8857810  22.2542550
  91.7975940  27.3370630  28.3118790  92.3213420  26.8433280  27.6808960
  92.3835360  27.4720990  29.0566360  91.9765660  27.4210500  31.8338340
  91.0268370  27.3874040  31.9483330  92.1578670  28.3310610  31.5988110
  77.8310100  25.6712180  20.9436970  78.5401800  25.2495400  20.4584250
  77.1150040  25.7387410  20.3120320  77.4784260  21.7251510  19.9839620
  78.2012390  22.2660450  20.3020840  77.7508780  21.4514930  19.1081160
  91.2875910  26.5943980  24.2511200  91.7835030  26.3614850  25.0360080
  91.0891980  25.7555820  23.8348840  77.1676450  20.9757700  29.8862240
  77.8152640  20.4255080  29.4457400  77.5878290  21.2300850  30.7078050
  92.7163070  25.2304930  26.7848880  92.6062350  25.0760970  27.7231150
  93.4770660  24.7025870  26.5424290  91.0628790  21.1699060  33.2431880
  91.7001010  21.7833200  33.6091070  91.2103680  21.2059720  32.2981110
  93.6053340  23.0612850  20.0255020  94.5302650  22.9294030  19.8173310
  93.5829130  23.1405670  20.9791470  93.6791830  23.8323510  22.6511730
  92.8843330  23.7668630  23.1804640  93.8835110  24.7674150  22.6397080
  76.9208450  21.1313370  32.6287560  76.5723270  21.5877190  33.3945740
  76.5896150  20.2370500  32.7109990  78.5272820  34.3032970  36.7940750
  78.4842450  33.9325880  37.6755210  78.6583830  35.2410540  36.9342570
  82.2278850  35.8592560  32.3950470  81.9870210  36.1267120  31.5080990
  83.1681490  36.0298290  32.4501330  84.4333270  22.3225250  36.1506980
  84.3722160  22.9147080  36.9002390  85.3733650  22.2151210  36.0057240
  87.0707830  21.9795310  35.7899270  87.6848240  22.2974600  35.1280350
  87.6157390  21.4943900  36.4095130  93.4883010  37.8786940  33.1961110
  92.9941290  38.2755810  32.4788240  92.8796300  37.2536150  33.5898390
  77.5929090  20.6589570  35.9038330  78.1412080  20.4777620  35.1404440
  77.6584400  19.8683680  36.4394640  78.3660850  37.2495220  33.9138530
  77.7721170  37.1179920  34.6528570  78.3584690  36.4133360  33.4480630
  87.8115870  20.5427450  32.1168560  86.9375710  20.8762560  31.9141490
  87.7026620  20.0700630  32.9420430  88.7187850  22.7498320  33.5010280
  88.3901210  21.9350080  33.1212010  89.6670150  22.7068130  33.3775970
  77.9973080  34.6153600  32.8646570  77.2707140  33.9958890  32.7972520
  78.0582230  35.0094210  31.9944650  81.6018180  36.8298600  29.6495980
  82.1183200  36.2185960  29.1244240  82.2515560  37.3327380  30.1406990
  85.5590690  21.4597290  31.0561470  84.7762480  21.9342790  31.3358230
  85.2653620  20.5552120  30.9474650  90.1111760  22.1620390  29.1010560
  90.5519850  22.1065490  28.2532160  89.8419350  23.0778400  29.1720740
  91.9750330  21.7935630  27.1119380  91.9138730  20.8496850  26.9650400
  92.7542360  21.9015720  27.6572840  76.9031100  21.7644770  23.5775190
  77.6610460  21.8773650  23.0039220  76.4408270  22.6013970  23.5318620
  83.4444910  23.8784040  26.5677500  82.6319420  23.5040930  26.2273380
  83.9486550  23.1229120  26.8698690  87.9469890  20.5426490  27.8060570
  88.5499260  21.1146700  28.2809090  87.2062880  21.1065930  27.5834470
  91.0904490  20.9448050  23.0800850  91.2855120  21.8431500  23.3468280
  90.3034360  20.7135130  23.5733800  77.8865780  36.6261220  23.5193470
  77.3613400  37.0069250  22.8155430  77.8110360  37.2511990  24.2403180
  79.2756250  22.2908820  22.1177160  79.8049010  21.5038620  21.9885110
  79.9084570  22.9700010  22.3512690  81.4694090  22.0283960  25.1722550
  80.8396830  21.3271270  25.3392680  80.9299230  22.7888090  24.9555710
  84.4086040  38.6423190  37.8433160  85.3353350  38.4067460  37.8869120
  84.3936470  39.4695190  37.3619190  81.5949650  21.3067940  37.6075040
  81.3133920  21.8101540  36.8435860  81.9769350  20.5089690  37.2417170
  80.4858750  38.5743600  22.3942720  81.2177570  38.2902880  21.8466610
  80.7452420  38.3356880  23.2842100  79.6473540  34.6908330  22.3989050
  79.0182420  35.1593430  22.9474880  79.7621370  33.8457550  22.8335240
  88.1965110  20.7221520  38.1855510  88.0830560  21.0416130  39.0807030
  89.0134850  21.1234030  37.8892790  87.1023260  28.7413990   8.5490250
  87.0217310  27.8268600   8.2781960  86.6887680  29.2381060   7.8429960
  85.2341300  30.5193010  10.4299520  84.4583400  30.0393450  10.7198090
  85.8854230  29.8398660  10.2555680  79.2507130  30.8312820  11.3075280
  78.4192010  30.5761530  11.7071790  79.8588110  30.9023590  12.0433200
  89.2548730  34.9253200   9.2098650  88.7930260  34.1540440   9.5385820
  90.0674280  34.9519270   9.7151100  79.2308390  34.8652910  11.5033300
  79.5336430  33.9750650  11.3243520  79.9751980  35.4223130  11.2755550
  77.6599080  25.7914710   5.0917670  76.7715780  26.1330680   4.9897550
  77.9440270  25.5915030   4.1998500  75.6232090  28.3920360  10.9757370
  76.1948200  27.6242560  10.9761010  75.6233630  28.6909120  10.0663980
  85.4812040  37.2111210   8.8302640  84.8623480  37.6668710   8.2597080
  86.3363820  37.3662670   8.4292340  84.6750290  33.1950200  10.4369680
  84.6058570  32.2540140  10.2758810  85.4370150  33.2851610  11.0092250
  76.8656960  23.8004720  12.7626300  76.6859800  22.9030470  13.0429060
  76.4637040  24.3476590  13.4373250  85.7055460  26.0020580  10.6638610
  86.0820280  25.1292460  10.5512280  85.6074970  26.3379280   9.7729050
  79.8360470  24.3746210   6.1256050  79.9427220  25.2749940   6.4324810
  78.9252830  24.3264180   5.8350700  89.4879580  23.4971020   7.5966950
  90.3089200  23.0067590   7.6392430  89.5213660  24.0868680   8.3498790
  77.4843630  26.2965220  11.3708640  78.1653740  26.5603590  11.9896040
  77.1691680  25.4566090  11.7046650  81.6768200  27.3432580  10.4581230
  82.1846420  27.8413550  11.0986250  82.2081440  26.5667780  10.2820590
  93.7779130  25.5137770  14.1610580  93.0731300  25.9019480  13.6425690
  94.0437050  26.2088060  14.7631510  79.9604300  21.9831140  14.7244650
  79.9622740  22.5003530  13.9190550  79.1308610  21.5061320  14.7014580
  86.3475390  32.0950450   6.2234550  85.7292660  32.5599900   5.6597270
  86.8598640  32.7877930   6.6404060  81.2107150  31.6226320  12.9018150
  80.8776530  32.2495240  13.5439220  81.3873830  32.1488200  12.1219820
  89.7241060  25.4371400  10.3694490  89.0196630  25.7256290  10.9497600
  90.0853220  26.2471510  10.0094050  79.6419630  23.6941100  12.7315100
  79.9836440  24.5383150  12.4368970  78.7035440  23.8424840  12.8480440
  80.4226250  33.5907120  14.7167330  81.0400250  34.2658200  14.4351780
  79.5619370  33.9995100  14.6254830  75.7158590  32.7806980   3.5974180
  75.3386570  33.2694080   2.8659080  75.9731660  33.4532260   4.2280710
  91.3403840  35.0546530  12.6321970  90.6567360  35.7245640  12.6238640
  91.8798130  35.2527180  11.8666830  92.7927980  24.8826190  10.7603700
  91.8452890  24.9165170  10.8919130  93.1177970  25.6965140  11.1453060
  83.3247520  21.1823370   9.0559690  83.6322500  20.6270260   8.3395190
  82.3948220  21.3167830   8.8732680  88.8762580  36.8990660  11.3467150
  88.8889740  36.4952950  10.4789410  88.3237800  37.6737950  11.2428580
  90.1708000  33.6206880   6.4357320  90.0604330  32.6781210   6.5606740
  90.1676250  33.9822520   7.3220080  88.2748020  31.8020500  12.6749760
  88.6916810  31.5880610  11.8403220  88.9987840  32.0593290  13.2458380
  85.7128280  29.2472200   5.7919810  84.7857560  29.1809580   6.0208280
  85.8653100  30.1852330   5.6775050  85.6997360  25.5189200   2.7886970
  84.7601030  25.6803160   2.8739430  86.0180620  26.2374880   2.2422960
  92.2210120  30.2007720  12.7666000  91.3928750  30.2700810  12.2916130
  92.8160600  30.7862030  12.2981830  89.7425570  30.8092500   6.2955060
  89.1237990  30.4712050   5.6481360  89.7250020  30.1652260   7.0034250
  89.1852130  26.9877040  13.7120870  88.7723310  27.8130750  13.9660860
  88.4528080  26.4022080  13.5197230  81.3184920  29.7736940   8.5739540
  80.9141920  29.0614190   8.0785440  81.4048040  29.4290180   9.4627580
  81.7866620  33.4604500  10.7378750  81.4894910  32.8549970  10.0586530
  82.7366440  33.4981810  10.6268110  80.0313540  26.5480150  12.3538580
  80.5828130  26.6575490  11.5791830  80.5457050  26.9217750  13.0693810
  89.8752230  37.0336370  14.4001850  89.3982790  37.8408560  14.2074460
  89.1914020  36.3814700  14.5528060  80.8785050  33.1986190  17.3886550
  79.9813580  33.4226160  17.6359950  80.9037920  33.3221130  16.4397950
  87.9190270  30.0479310   3.3027810  88.3583550  29.2101740   3.1565630
  88.6318690  30.6808710   3.3891950  79.7056270  30.0699510  15.9643920
  79.5664040  30.9422310  16.3331320  78.8237630  29.7272320  15.8191860
  86.0285650  34.9875380   7.2709050  86.4681560  35.7299710   6.8564440
  85.9672540  35.2301950   8.1948010  81.5036620  36.0121210  18.1729070
  81.4752050  36.4164160  17.3057500  81.3401590  35.0831570  18.0100670
  78.0189550  28.6681920   6.0746190  77.8987150  29.3944010   5.4627460
  77.7090440  27.8984830   5.5974100  93.4551440  36.7948310  19.4693240
  93.9311160  37.2731200  20.1482320  94.0758600  36.7265800  18.7438740
  75.6574920  31.8397060  11.8814830  75.7355340  31.9745830  10.9370550
  76.2716600  31.1312950  12.0742950  76.9022550  33.5397250   8.2921010
  76.4950630  33.6811840   7.4374610  77.7935560  33.2557410   8.0892220
  92.8584690  33.9861160  16.6293250  92.9847750  33.7473040  15.7110430
  92.9006070  33.1545700  17.1015330  86.7201430  37.6889160  15.1988060
  87.2346100  37.5997170  16.0010490  85.8770510  38.0348860  15.4915970
  88.6955830  37.9744500   4.6272060  88.5356970  37.6847440   5.5253890
  88.5302540  37.1984630   4.0917290  81.1744210  37.7543030   6.4043680
  80.9986690  36.8378570   6.1911480  80.3199950  38.1130320   6.6441480
  88.3981960  35.4832060   3.1870060  87.7047120  35.4809350   2.5272340
  89.1404820  35.0591380   2.7564230  87.9631890  37.1094770   7.2618550
  88.4188840  36.3284150   7.5757170  88.3024410  37.8201590   7.8059730
  92.7108700  26.0393620  17.5942990  92.0952970  26.5473290  17.0658450
  92.3905120  25.1391950  17.5368930  75.7134440  32.8811230  14.4209290
  75.8765480  32.4116590  13.6028660  76.1786890  32.3734790  15.0858130
  80.4853210  22.0116990   9.4569860  80.0421360  22.7926530   9.1254380
  81.0438200  22.3346880  10.1640800  84.7723020  24.8785510  15.0605180
  84.3102390  25.0868530  15.8725120  84.3701130  24.0644860  14.7575850
  89.7727530  26.0994460  16.1901840  88.9221120  25.8000210  16.5110910
  89.6129320  26.3436470  15.2785660  86.8677240  27.5996210  18.2900630
  87.1930650  26.7659960  17.9502860  87.6557570  28.1224730  18.4378960
  83.6012030  21.6327690   4.3375690  82.9766210  21.6287560   5.0629000
  83.5142150  20.7658650   3.9411660  82.5229110  22.5564320  11.3159460
  82.8201440  23.4627150  11.2351480  83.0714670  22.0683100  10.7019030
  80.2767430  27.1350560   7.1851110  80.0508350  26.9187730   8.0897730
  79.4959960  27.5679020   6.8397080  87.5065190  27.1413930   5.7841760
  86.9074080  27.8649730   5.6005380  88.0544800  27.0790710   5.0018210
  82.7166640  28.0336140  17.8511380  82.6210240  27.0930870  17.7011780
  83.5598620  28.2551210  17.4559450  86.1130060  25.7777470   7.8145040
  86.5059630  26.0949670   7.0013730  86.4746910  24.8989350   7.9289560
  77.8477180  24.4449810  16.0045160  77.4540570  25.2925020  16.2117940
  77.1595580  23.8076180  16.1953800  84.4222230  24.5284780  19.0741900
  83.7320550  24.3356980  19.7087990  85.1654530  24.8119420  19.6066200
  75.1494230  22.3678270  10.0375240  74.8607280  22.9381130  10.7500220
  75.8939990  21.8882720  10.4006470  86.6985200  28.3683220  11.9095820
  85.9666320  28.8770030  12.2585920  86.3009540  27.5513200  11.6084600
  83.1362590  25.0437420  10.3148310  83.1398650  24.6027370   9.4652850
  84.0313710  25.3654750  10.4220130  78.9864970  24.9263910   9.2742520
  78.6465020  25.4039140  10.0309570  78.2242290  24.4729030   8.9143620
  83.1982740  26.0449500   3.3055070  83.3195560  26.0035980   4.2540890
  82.8131250  26.9073650   3.1501800  87.1611110  23.8216900  11.3218760
  87.1783850  24.2725550  12.1660610  86.9126690  22.9222540  11.5352200
  82.2104240  28.3550640   2.7038370  81.6421140  27.9068890   2.0774280
  82.9193240  28.7143420   2.1703520  90.5881860  21.2349080  17.1605140
  90.9127630  20.5038740  17.6863120  90.6238370  20.9162720  16.2586130
  77.2873420  32.2562660  16.5805100  76.9028210  31.6156330  17.1788060
  77.5985610  32.9598780  17.1499830  83.4370560  29.1039200  12.0613720
  83.8040690  28.6297770  12.8075060  83.2475620  29.9780770  12.4022060
  76.3011050  23.8482890   8.1907190  76.0157970  23.4838560   9.0285810
  76.2389910  23.1163350   7.5770330  81.2269930  28.1447840  14.3797930
  80.9227000  29.0239820  14.6048290  82.1816390  28.2047630  14.4155370
  79.7551720  32.3508830   4.9764780  78.9813980  31.8106450   4.8163500
  80.4846350  31.8315440   4.6382540  90.5139700  31.3474190  10.7691170
  91.2338820  31.8429480  10.3787280  90.3121520  30.6692080  10.1245040
  85.9749640  22.7412150   4.9120560  85.1614250  22.2425320   4.8365870
  85.7811590  23.5810400   4.4956910  85.8958500  31.4183250  16.6560170
  85.8295810  30.4978920  16.4017760  85.2663640  31.5158690  17.3704810
  88.6898030  27.1131800   3.2082720  89.5777650  27.4249030   3.0334060
  88.6603120  26.2404050   2.8163300  79.7989120  32.0189210   8.6143590
  80.3167790  31.2157470   8.5600480  79.3473140  31.9568350   9.4560420
  84.6858620  33.2855490   3.8870890  85.0274320  34.0297720   3.3914210
  83.8571330  33.5986610   4.2495720  77.2833660  28.9850580  15.5269290
  76.9248600  29.6504430  16.1142630  76.9888220  28.1534130  15.8981910
  80.4846780  29.4434820  18.4108840  80.1846920  29.5892000  17.5136660
  81.2558020  28.8840110  18.3182230  85.8275230  34.2403820  16.4063970
  85.8419770  33.3084780  16.1882880  85.1200330  34.3263580  17.0453740
  90.9612300  28.4243640   2.6762580  90.8776020  28.8557860   1.8259020
  91.6806490  28.8841990   3.1089400  92.0386440  30.8811160  15.7532550
  91.3134630  31.4739940  15.5561940  92.5661900  30.8734700  14.9545920
  91.9899550  35.2785900   5.4044710  91.3475710  34.6241520   5.6788430
  91.6030210  35.6840990   4.6285380  87.5686030  32.6071330   9.2516400
  87.9209850  32.0099460   8.5917770  86.6848360  32.2815560   9.4224650
  83.6549310  33.3669020   6.6586810  84.3420440  33.9138230   7.0394400
  82.8681730  33.9109750   6.6936420  75.7941710  28.9841840   2.1503890
  76.6636560  29.2666640   2.4339810  75.3032030  29.7977710   2.0352700
  82.9576520  30.3715050   6.2712170  83.4139300  31.1820300   6.4972360
  82.6064730  30.0538190   7.1030660  85.2609130  35.8821390  13.5004470
  85.9051350  36.0880770  14.1777890  85.6238570  35.1209790  13.0475320
  78.8588300  20.7152700   6.7434690  78.7302930  20.7070600   7.6919610
  78.0350320  21.0535790   6.3925700  86.5341210  33.8853740  12.2181920
  87.1763440  33.1846900  12.3314090  87.0590560  34.6652180  12.0378810
  88.3078830  34.6848640  15.4217980  88.6435070  35.2715330  16.0995900
  87.3879170  34.5541350  15.6515770  76.1612960  38.1969220   2.7165520
  76.5210600  38.7958560   2.0622790  76.0205300  38.7429110   3.4900550
  75.8582230  22.4743820  16.2041390  75.1440750  22.6740740  16.8094000
  76.2777270  21.6983390  16.5756190  89.9613180  32.0874300   3.6035220
  89.6734880  32.5486990   4.3913100  90.7565350  31.6272070   3.8719440
  76.1454820  36.4624080  17.1907920  76.2545940  35.5218820  17.0503310
  75.4935380  36.7278830  16.5421650  84.1367410  34.7339970  18.5906040
  83.8164280  34.0149210  19.1351730  83.4625770  35.4095040  18.6642100
  82.1781580  35.5800420   3.5339190  82.1691680  36.3130110   2.9183700
  81.2579940  35.3332000   3.6266150  77.7788220  30.8015310   4.2785950
  77.1716170  31.5414210   4.2881250  78.2537570  30.8914670   3.4524150
  87.3521010  24.9666130  13.9542840  87.7201830  24.1461340  14.2822410
  86.4919210  25.0268020  14.3698490  90.7183040  23.9223070   4.7630400
  90.0896200  24.0268740   4.0488630  90.2234960  24.1419850   5.5524280
  82.6867070  26.2009020   6.1788280  81.9783220  26.6695360   6.6201890
  82.9711550  25.5431030   6.8133470  84.3123000  27.6205720  14.1780810
  84.8108250  28.0951540  14.8432660  84.4545950  26.6969240  14.3850840
  86.7182500  22.9259680   7.6184070  86.5950280  22.9445810   6.6693580
  87.6667060  22.9738620   7.7382470  83.8059290  38.1614980   6.8912050
  84.0600790  38.1236370   5.9691420  82.8571770  38.0348310   6.8840300
  80.8902090  24.5094100   3.5538990  81.7392620  24.9464250   3.4879180
  80.5233360  24.8214360   4.3811050  91.5189860  23.8373680  15.0209200
  91.0163460  24.5779080  15.3603010  92.3346520  24.2257680  14.7045990
  89.8111870  29.0806860   8.4670560  88.8702010  29.0957090   8.6418250
  90.1255940  28.2942820   8.9130860  78.4840270  28.1951530   2.7107410
  78.5643860  27.2479040   2.8224810  79.3760020  28.5258410   2.8168070
  91.8137450  36.2515710  10.1424820  91.9384870  37.0746880  10.6148630
  92.6803010  36.0406440   9.7948970  79.2854980  38.3446920   9.8141950
  80.0217460  37.7962380  10.0850520  79.6695900  39.2102930   9.6747940
  76.1700460  34.4120490   5.6883460  75.2440240  34.6541630   5.6788870
  76.6356890  35.2394750   5.5668210  78.2913260  37.5292990  19.0027530
  79.0925990  37.8505040  19.4162930  77.7765080  37.1688570  19.7247440
  87.1277890  33.6372860  18.9502940  86.5216050  33.6604460  18.2098690
  86.8232000  32.9055900  19.4870190  88.5578260  37.3653150  17.5612350
  89.5100010  37.2811170  17.5112590  88.4106480  38.0294860  18.2346140
  91.4487460  36.7447360   3.0604260  91.1628970  36.3312500   2.2458440
  91.2507010  37.6735070   2.9404780  76.0111070  30.0166450  17.9463580
  76.5150090  29.4373730  18.5179810  75.2718490  30.3006680  18.4839950
  83.0649010  31.4237440  17.4799100  82.2994680  31.9922440  17.3953770
  83.2464970  31.1313650  16.5867330  86.1537420  31.8000670   2.1051860
  85.6047520  32.2469970   2.7494600  86.7756680  31.2949920   2.6289530
  90.2072360  33.1542770  18.0374120  90.9481830  33.4918530  17.5341580
  89.4445040  33.3234830  17.4843890  78.0434150  28.1596040  18.8413650
  78.0839490  27.8609910  19.7498880  78.8979650  28.5603650  18.6821170
  81.8212540  30.7591590   4.0017160  82.2428960  30.5931460   4.8448550
  81.9463380  29.9491820   3.5072300  79.9839960  26.7388140  16.8088140
  79.4536420  26.2479090  16.1811480  80.6528030  27.1672340  16.2746070
  88.8818020  31.2057600  16.5729330  89.2959040  31.3602680  17.4219750
  87.9469020  31.3312820  16.7355110  89.3540190  28.5453760  18.5768480
  89.9360960  27.7906080  18.4888960  89.5301960  29.0761200  17.7999960
  80.4712260  23.7050510  16.8885430  80.3769130  23.0871260  16.1636300
  79.8909650  24.4316800  16.6615340  83.2373700  22.2623750  13.9212820
  82.7891000  22.2848010  13.0758370  82.6038900  21.8642770  14.5183120
  83.6433250  31.1578080  14.5425260  84.0621360  32.0010810  14.3701500
  82.7241880  31.2950120  14.3132040  85.9797150  28.8894260  15.9263100
  86.0993360  28.2935400  16.6657940  86.8391150  28.9263950  15.5064400
  88.3185050  29.4431450  14.5025610  87.7920270  29.9674070  13.8990750
  88.6616390  30.0758840  15.1335340  81.4940670  37.4631090  15.6582990
  80.9561760  38.1877150  15.3391690  81.7474630  36.9861430  14.8680330
  82.7465920  25.4315610  17.1838920  83.3365610  25.1231460  17.8716740
  81.9286160  24.9595360  17.3398820  87.5659350  25.0481420  17.4171940
  86.8774870  24.3862960  17.3521930  88.2865370  24.6019690  17.8620400
  88.1959750  21.6433050   3.4762200  88.4762040  20.8000950   3.8321620
  87.4225480  21.8756160   3.9900950  84.3502880  38.6982300  15.9169640
  84.2761580  39.6017440  16.2242010  83.4481720  38.3794200  15.8891710
  84.8988210  37.8640810   3.5396000  85.7939000  38.2025780   3.5614760
  84.9305840  37.1420220   2.9120280  78.5384370  33.2367860   1.7683000
  78.9759240  33.7797530   2.4240580  79.0232100  32.4114810   1.7779340
  75.7530170  36.0256890   9.2203260  76.0833180  35.1577950   8.9881900
  76.1821170  36.2315410  10.0508220  80.3492090  34.3565900   6.8805230
  80.0487630  34.2330870   7.7809140  80.2429580  33.4974490   6.4720960
  76.2420380  36.8927480  11.9584890  75.8051370  37.0728280  12.7909040
  76.8098060  37.6502100  11.8166610  91.8782560  36.3944480  16.2462200
  91.2784550  36.4537040  15.5026120  92.0076460  35.4549460  16.3759050
  92.5740470  30.8809780   4.0866110  93.3359380  31.4506430   4.1925800
  92.5894840  30.3136980   4.8574420  76.0744810  29.4047710   8.3173770
  75.4193650  29.1359350   7.6733470  76.9122760  29.2952190   7.8675750
  93.5800440  31.7359880   8.9308040  93.9509270  30.9527200   8.5244010
  94.2202370  32.4248980   8.7525340  90.5634200  33.1196460  14.3438360
  89.7494040  33.5493620  14.6064150  90.9708400  33.7314870  13.7307410
  89.0235250  24.1989000   2.5392260  89.4420130  24.0119980   1.6988920
  88.7171310  23.3468050   2.8495190  92.5224980  29.1113140   6.2368060
  92.1468580  28.3441070   5.8049350  91.7928100  29.4935840   6.7242990
  77.1120740  29.7900280  12.8577110  77.4793780  29.7027680  13.7373130
  76.5431560  29.0266830  12.7583970  91.9124600  28.2584660  15.8707580
  91.6810690  28.0297410  14.9705530  92.1729150  29.1784210  15.8252470
  76.6636740  26.7009370  16.7635530  75.7692790  26.6676130  17.1029240
  77.2034290  26.8996160  17.5286780  90.3512670  23.4841090  18.6487280
  91.2282850  23.4924490  19.0321280  90.3633510  22.7471930  18.0379630
  75.2882890  26.6146640   4.2599100  74.3846970  26.8776840   4.0850760
  75.7723510  26.8857810   3.4799060  91.7975940  27.3370630   9.5375300
  92.3213420  26.8433280   8.9065470  92.3835360  27.4720990  10.2822870
  91.9765660  27.4210500  13.0594850  91.0268370  27.3874040  13.1739840
  92.1578670  28.3310610  12.8244620  91.2875910  26.5943980   5.4767710
  91.7835030  26.3614850   6.2616590  91.0891980  25.7555820   5.0605350
  77.1676450  20.9757700  11.1118750  77.8152640  20.4255080  10.6713910
  77.5878290  21.2300850  11.9334560  92.7163070  25.2304930   8.0105390
  92.6062350  25.0760970   8.9487660  93.4770660  24.7025870   7.7680800
  91.0628790  21.1699060  14.4688390  91.7001010  21.7833200  14.8347580
  91.2103680  21.2059720  13.5237620  93.6791830  23.8323510   3.8768240
  92.8843330  23.7668630   4.4061150  93.8835110  24.7674150   3.8653590
  90.6210250  37.8715060   7.8706630  91.2169320  37.5499630   7.1941050
  90.8788400  37.3986880   8.6619900  76.9208450  21.1313370  13.8544070
  76.5723270  21.5877190  14.6202250  76.5896150  20.2370500  13.9366500
  78.5272820  34.3032970  18.0197260  78.4842450  33.9325880  18.9011720
  78.6583830  35.2410540  18.1599080  82.2278850  35.8592560  13.6206980
  81.9870210  36.1267120  12.7337500  83.1681490  36.0298290  13.6757840
  84.4333270  22.3225250  17.3763490  84.3722160  22.9147080  18.1258900
  85.3733650  22.2151210  17.2313750  87.0707830  21.9795310  17.0155780
  87.6848240  22.2974600  16.3536860  87.6157390  21.4943900  17.6351640
  93.4883010  37.8786940  14.4217620  92.9941290  38.2755810  13.7044750
  92.8796300  37.2536150  14.8154900  77.5929090  20.6589570  17.1294840
  78.1412080  20.4777620  16.3660950  77.6584400  19.8683680  17.6651150
  78.3660850  37.2495220  15.1395040  77.7721170  37.1179920  15.8785080
  78.3584690  36.4133360  14.6737140  87.8115870  20.5427450  13.3425070
  86.9375710  20.8762560  13.1398000  87.7026620  20.0700630  14.1676940
  88.7187850  22.7498320  14.7266790  88.3901210  21.9350080  14.3468520
  89.6670150  22.7068130  14.6032480  91.1722460  38.5210360  11.7004360
  90.7125430  39.2726170  11.3262380  90.5434920  37.8016830  11.6419160
  77.9973080  34.6153600  14.0903080  77.2707140  33.9958890  14.0229030
  78.0582230  35.0094210  13.2201160  81.6018180  36.8298600  10.8752490
  82.1183200  36.2185960  10.3500750  82.2515560  37.3327380  11.3663500
  84.3413680  37.7207090  11.7021470  84.6291490  37.4661390  10.8254480
  84.8536900  37.1684450  12.2927040  85.5590690  21.4597290  12.2817980
  84.7762480  21.9342790  12.5614740  85.2653620  20.5552120  12.1731160
  90.1111760  22.1620390  10.3267070  90.5519850  22.1065490   9.4788670
  89.8419350  23.0778400  10.3977250  91.9750330  21.7935630   8.3375890
  91.9138730  20.8496850   8.1906910  92.7542360  21.9015720   8.8829350
  76.2803080  37.9327990   7.2999840  76.1125120  37.2998670   7.9981730
  75.4137590  38.1387390   6.9494030  76.9031100  21.7644770   4.8031700
  77.6610460  21.8773650   4.2295730  76.4408270  22.6013970   4.7575130
  83.4444910  23.8784040   7.7934010  82.6319420  23.5040930   7.4529890
  83.9486550  23.1229120   8.0955200  87.9469890  20.5426490   9.0317080
  88.5499260  21.1146700   9.5065600  87.2062880  21.1065930   8.8090980
  91.0904490  20.9448050   4.3057360  91.2855120  21.8431500   4.5724790
  90.3034360  20.7135130   4.7990310  77.8865780  36.6261220   4.7449980
  77.3613400  37.0069250   4.0411940  77.8110360  37.2511990   5.4659690
  79.2756250  22.2908820   3.3433670  79.8049010  21.5038620   3.2141620
  79.9084570  22.9700010   3.5769200  81.4694090  22.0283960   6.3979060
  80.8396830  21.3271270   6.5649190  80.9299230  22.7888090   6.1812220
  84.4086040  38.6423190  19.0689670  85.3353350  38.4067460  19.1125630
  84.3936470  39.4695190  18.5875700  92.6431100  38.1848760   6.0663920
  92.8183290  37.4986500   5.4224840  91.9452670  38.7095810   5.6740590
  81.5949650  21.3067940  18.8331550  81.3133920  21.8101540  18.0692370
  81.9769350  20.5089690  18.4673680  80.4858750  38.5743600   3.6199230
  81.2177570  38.2902880   3.0723120  80.7452420  38.3356880   4.5098610
  79.6473540  34.6908330   3.6245560  79.0182420  35.1593430   4.1731390
  79.7621370  33.8457550   4.0591750  88.1965110  20.7221520  19.4112020
  88.0830560  21.0416130  20.3063540  89.0134850  21.1234030  19.1149300
  90.9763600  37.8693050  18.8930710  91.7688920  37.3742280  18.6856670
  91.2696750  38.5483190  19.5006320  87.1023260   9.9670500 139.9694680
  87.0217310   9.0525110 139.6986390  86.6887680  10.4637570 139.2634390
  85.2341300  11.7449520 141.8503950  84.4583400  11.2649960 142.1402520
  85.8854230  11.0655170 141.6760110  79.2507130  12.0569330 142.7279710
  78.4192010  11.8018040 143.1276220  79.8588110  12.1280100 143.4637630
  89.2548730  16.1509710 140.6303080  88.7930260  15.3796950 140.9590250
  90.0674280  16.1775780 141.1355530  79.2308390  16.0909420 142.9237730
  79.5336430  15.2007160 142.7447950  79.9751980  16.6479640 142.6959980
  77.6599080   7.0171220 136.5122100  76.7715780   7.3587190 136.4101980
  77.9440270   6.8171540 135.6202930  75.6232090   9.6176870 142.3961800
  76.1948200   8.8499070 142.3965440  75.6233630   9.9165630 141.4868410
  85.4812040  18.4367720 140.2507070  84.8623480  18.8925220 139.6801510
  86.3363820  18.5919180 139.8496770  84.6750290  14.4206710 141.8574110
  84.6058570  13.4796650 141.6963240  85.4370150  14.5108120 142.4296680
  76.8656960   5.0261230 144.1830730  76.6859800   4.1286980 144.4633490
  76.4637040   5.5733100 144.8577680  85.7055460   7.2277090 142.0843040
  86.0820280   6.3548970 141.9716710  85.6074970   7.5635790 141.1933480
  79.8360470   5.6002720 137.5460480  79.9427220   6.5006450 137.8529240
  78.9252830   5.5520690 137.2555130  89.4879580   4.7227530 139.0171380
  90.3089200   4.2324100 139.0596860  89.5213660   5.3125190 139.7703220
  77.4843630   7.5221730 142.7913070  78.1653740   7.7860100 143.4100470
  77.1691680   6.6822600 143.1251080  81.6768200   8.5689090 141.8785660
  82.1846420   9.0670060 142.5190680  82.2081440   7.7924290 141.7025020
  93.7779130   6.7394280 145.5815010  93.0731300   7.1275990 145.0630120
  94.0437050   7.4344570 146.1835940  79.9604300   3.2087650 146.1449080
  79.9622740   3.7260040 145.3394980  79.1308610   2.7317830 146.1219010
  86.3475390  13.3206960 137.6438980  85.7292660  13.7856410 137.0801700
  86.8598640  14.0134440 138.0608490  81.2107150  12.8482830 144.3222580
  80.8776530  13.4751750 144.9643650  81.3873830  13.3744710 143.5424250
  89.7241060   6.6627910 141.7898920  89.0196630   6.9512800 142.3702030
  90.0853220   7.4728020 141.4298480  79.6419630   4.9197610 144.1519530
  79.9836440   5.7639660 143.8573400  78.7035440   5.0681350 144.2684870
  80.4226250  14.8163630 146.1371760  81.0400250  15.4914710 145.8556210
  79.5619370  15.2251610 146.0459260  75.7158590  14.0063490 135.0178610
  75.3386570  14.4950590 134.2863510  75.9731660  14.6788770 135.6485140
  91.3403840  16.2803040 144.0526400  90.6567360  16.9502150 144.0443070
  91.8798130  16.4783690 143.2871260  92.7927980   6.1082700 142.1808130
  91.8452890   6.1421680 142.3123560  93.1177970   6.9221650 142.5657490
  83.3247520   2.4079880 140.4764120  83.6322500   1.8526770 139.7599620
  82.3948220   2.5424340 140.2937110  88.8762580  18.1247170 142.7671580
  88.8889740  17.7209460 141.8993840  88.3237800  18.8994460 142.6633010
  90.1708000  14.8463390 137.8561750  90.0604330  13.9037720 137.9811170
  90.1676250  15.2079030 138.7424510  88.2748020  13.0277010 144.0954190
  88.6916810  12.8137120 143.2607650  88.9987840  13.2849800 144.6662810
  85.7128280  10.4728710 137.2124240  84.7857560  10.4066090 137.4412710
  85.8653100  11.4108840 137.0979480  85.6997360   6.7445710 134.2091400
  84.7601030   6.9059670 134.2943860  86.0180620   7.4631390 133.6627390
  92.2210120  11.4264230 144.1870430  91.3928750  11.4957320 143.7120560
  92.8160600  12.0118540 143.7186260  89.7425570  12.0349010 137.7159490
  89.1237990  11.6968560 137.0685790  89.7250020  11.3908770 138.4238680
  89.1852130   8.2133550 145.1325300  88.7723310   9.0387260 145.3865290
  88.4528080   7.6278590 144.9401660  81.3184920  10.9993450 139.9943970
  80.9141920  10.2870700 139.4989870  81.4048040  10.6546690 140.8832010
  81.7866620  14.6861010 142.1583180  81.4894910  14.0806480 141.4790960
  82.7366440  14.7238320 142.0472540  80.0313540   7.7736660 143.7743010
  80.5828130   7.8832000 142.9996260  80.5457050   8.1474260 144.4898240
  89.8752230  18.2592880 145.8206280  89.3982790  19.0665070 145.6278890
  89.1914020  17.6071210 145.9732490  80.8785050  14.4242700 148.8090980
  79.9813580  14.6482670 149.0564380  80.9037920  14.5477640 147.8602380
  87.9190270  11.2735820 134.7232240  88.3583550  10.4358250 134.5770060
  88.6318690  11.9065220 134.8096380  79.7056270  11.2956020 147.3848350
  79.5664040  12.1678820 147.7535750  78.8237630  10.9528830 147.2396290
  86.0285650  16.2131890 138.6913480  86.4681560  16.9556220 138.2768870
  85.9672540  16.4558460 139.6152440  81.5036620  17.2377720 149.5933500
  81.4752050  17.6420670 148.7261930  81.3401590  16.3088080 149.4305100
  91.5007410   2.5278630 133.0373280  91.1880070   2.6205460 133.9372350
  92.2619880   3.1059660 132.9870710  78.0189550   9.8938430 137.4950620
  77.8987150  10.6200520 136.8831890  77.7090440   9.1241340 137.0178530
  75.6574920  13.0653570 143.3019260  75.7355340  13.2002340 142.3574980
  76.2716600  12.3569460 143.4947380  76.9022550  14.7653760 139.7125440
  76.4950630  14.9068350 138.8579040  77.7935560  14.4813920 139.5096650
  92.8584690  15.2117670 148.0497680  92.9847750  14.9729550 147.1314860
  92.9006070  14.3802210 148.5219760  86.7201430  18.9145670 146.6192490
  87.2346100  18.8253680 147.4214920  85.8770510  19.2605370 146.9120400
  88.6955830  19.2001010 136.0476490  88.5356970  18.9103950 136.9458320
  88.5302540  18.4241140 135.5121720  81.1744210  18.9799540 137.8248110
  80.9986690  18.0635080 137.6115910  80.3199950  19.3386830 138.0645910
  88.3981960  16.7088570 134.6074490  87.7047120  16.7065860 133.9476770
  89.1404820  16.2847890 134.1768660  87.9631890  18.3351280 138.6822980
  88.4188840  17.5540660 138.9961600  88.3024410  19.0458100 139.2264160
  92.7108700   7.2650130 149.0147420  92.0952970   7.7729800 148.4862880
  92.3905120   6.3648460 148.9573360  75.7134440  14.1067740 145.8413720
  75.8765480  13.6373100 145.0233090  76.1786890  13.5991300 146.5062560
  80.4853210   3.2373500 140.8774290  80.0421360   4.0183040 140.5458810
  81.0438200   3.5603390 141.5845230  84.7723020   6.1042020 146.4809610
  84.3102390   6.3125040 147.2929550  84.3701130   5.2901370 146.1780280
  89.7727530   7.3250970 147.6106270  88.9221120   7.0256720 147.9315340
  89.6129320   7.5692980 146.6990090  86.8677240   8.8252720 149.7105060
  87.1930650   7.9916470 149.3707290  87.6557570   9.3481240 149.8583390
  83.6012030   2.8584200 135.7580120  82.9766210   2.8544070 136.4833430
  83.5142150   1.9915160 135.3616090  82.5229110   3.7820830 142.7363890
  82.8201440   4.6883660 142.6555910  83.0714670   3.2939610 142.1223460
  80.2767430   8.3607070 138.6055540  80.0508350   8.1444240 139.5102160
  79.4959960   8.7935530 138.2601510  87.5065190   8.3670440 137.2046190
  86.9074080   9.0906240 137.0209810  88.0544800   8.3047220 136.4222640
  82.7166640   9.2592650 149.2715810  82.6210240   8.3187380 149.1216210
  83.5598620   9.4807720 148.8763880  86.1130060   7.0033980 139.2349470
  86.5059630   7.3206180 138.4218160  86.4746910   6.1245860 139.3493990
  77.8477180   5.6706320 147.4249590  77.4540570   6.5181530 147.6322370
  77.1595580   5.0332690 147.6158230  75.1494230   3.5934780 141.4579670
  74.8607280   4.1637640 142.1704650  75.8939990   3.1139230 141.8210900
  75.3364460   7.5354900 132.6682390  75.2539130   8.4785660 132.8097380
  74.9847520   7.3929810 131.7894740  86.6985200   9.5939730 143.3300250
  85.9666320  10.1026540 143.6790350  86.3009540   8.7769710 143.0289030
  83.1362590   6.2693930 141.7352740  83.1398650   5.8283880 140.8857280
  84.0313710   6.5911260 141.8424560  78.9864970   6.1520420 140.6946950
  78.6465020   6.6295650 141.4514000  78.2242290   5.6985540 140.3348050
  83.1982740   7.2706010 134.7259500  83.3195560   7.2292490 135.6745320
  82.8131250   8.1330160 134.5706230  87.1611110   5.0473410 142.7423190
  87.1783850   5.4982060 143.5865040  86.9126690   4.1479050 142.9556630
  82.2104240   9.5807150 134.1242800  81.6421140   9.1325400 133.4978710
  82.9193240   9.9399930 133.5907950  90.5881860   2.4605590 148.5809570
  90.9127630   1.7295250 149.1067550  90.6238370   2.1419230 147.6790560
  77.2873420  13.4819170 148.0009530  76.9028210  12.8412840 148.5992490
  77.5985610  14.1855290 148.5704260  83.4370560  10.3295710 143.4818150
  83.8040690   9.8554280 144.2279490  83.2475620  11.2037280 143.8226490
  76.3011050   5.0739400 139.6111620  76.0157970   4.7095070 140.4490240
  76.2389910   4.3419860 138.9974760  81.2269930   9.3704350 145.8002360
  80.9227000  10.2496330 146.0252720  82.1816390   9.4304140 145.8359800
  79.7551720  13.5765340 136.3969210  78.9813980  13.0362960 136.2367930
  80.4846350  13.0571950 136.0586970  90.5139700  12.5730700 142.1895600
  91.2338820  13.0685990 141.7991710  90.3121520  11.8948590 141.5449470
  85.9749640   3.9668660 136.3324990  85.1614250   3.4681830 136.2570300
  85.7811590   4.8066910 135.9161340  85.8958500  12.6439760 148.0764600
  85.8295810  11.7235430 147.8222190  85.2663640  12.7415200 148.7909240
  88.6898030   8.3388310 134.6287150  89.5777650   8.6505540 134.4538490
  88.6603120   7.4660560 134.2367730  79.7989120  13.2445720 140.0348020
  80.3167790  12.4413980 139.9804910  79.3473140  13.1824860 140.8764850
  84.6858620  14.5112000 135.3075320  85.0274320  15.2554230 134.8118640
  83.8571330  14.8243120 135.6700150  77.2833660  10.2107090 146.9473720
  76.9248600  10.8760940 147.5347060  76.9888220   9.3790640 147.3186340
  80.4846780  10.6691330 149.8313270  80.1846920  10.8148510 148.9341090
  81.2558020  10.1096620 149.7386660  85.8275230  15.4660330 147.8268400
  85.8419770  14.5341290 147.6087310  85.1200330  15.5520090 148.4658170
  90.9612300   9.6500150 134.0967010  90.8776020  10.0814370 133.2463450
  91.6806490  10.1098500 134.5293830  92.0386440  12.1067670 147.1736980
  91.3134630  12.6996450 146.9766370  92.5661900  12.0991210 146.3750350
  91.9899550  16.5042410 136.8249140  91.3475710  15.8498030 137.0992860
  91.6030210  16.9097500 136.0489810  87.5686030  13.8327840 140.6720830
  87.9209850  13.2355970 140.0122200  86.6848360  13.5072070 140.8429080
  83.6549310  14.5925530 138.0791240  84.3420440  15.1394740 138.4598830
  82.8681730  15.1366260 138.1140850  75.7941710  10.2098350 133.5708320
  76.6636560  10.4923150 133.8544240  75.3032030  11.0234220 133.4557130
  82.9576520  11.5971560 137.6916600  83.4139300  12.4076810 137.9176790
  82.6064730  11.2794700 138.5235090  85.2609130  17.1077900 144.9208900
  85.9051350  17.3137280 145.5982320  85.6238570  16.3466300 144.4679750
  78.8588300   1.9409210 138.1639120  78.7302930   1.9327110 139.1124040
  78.0350320   2.2792300 137.8130130  86.5341210  15.1110250 143.6386350
  87.1763440  14.4103410 143.7518520  87.0590560  15.8908690 143.4583240
  90.3796930  15.3958870 133.3625490  90.1534510  14.6789310 133.9550130
  89.9893130  15.1471310 132.5247240  88.3078830  15.9105150 146.8422410
  88.6435070  16.4971840 147.5200330  87.3879170  15.7797860 147.0720200
  76.1612960  19.4225730 134.1369950  76.5210600  20.0215070 133.4827220
  76.0205300  19.9685620 134.9104980  75.8582230   3.7000330 147.6245820
  75.1440750   3.8997250 148.2298430  76.2777270   2.9239900 147.9960620
  89.9613180  13.3130810 135.0239650  89.6734880  13.7743500 135.8117530
  90.7565350  12.8528580 135.2923870  76.1454820  17.6880590 148.6112350
  76.2545940  16.7475330 148.4707740  75.4935380  17.9535340 147.9626080
  82.1781580  16.8056930 134.9543620  82.1691680  17.5386620 134.3388130
  81.2579940  16.5588510 135.0470580  77.7788220  12.0271820 135.6990380
  77.1716170  12.7670720 135.7085680  78.2537570  12.1171180 134.8728580
  87.3521010   6.1922640 145.3747270  87.7201830   5.3717850 145.7026840
  86.4919210   6.2524530 145.7902920  90.7183040   5.1479580 136.1834830
  90.0896200   5.2525250 135.4693060  90.2234960   5.3676360 136.9728710
  85.1641180  16.8685170 133.6168810  85.2653160  16.6649160 132.6870790
  84.2642920  16.6143450 133.8216590  82.6867070   7.4265530 137.5992710
  81.9783220   7.8951870 138.0406320  82.9711550   6.7687540 138.2337900
  84.3123000   8.8462230 145.5985240  84.8108250   9.3208050 146.2637090
  84.4545950   7.9225750 145.8055270  86.7182500   4.1516190 139.0388500
  86.5950280   4.1702320 138.0898010  87.6667060   4.1995130 139.1586900
  83.8059290  19.3871490 138.3116480  84.0600790  19.3492880 137.3895850
  82.8571770  19.2604820 138.3044730  80.8902090   5.7350610 134.9743420
  81.7392620   6.1720760 134.9083610  80.5233360   6.0470870 135.8015480
  91.5189860   5.0630190 146.4413630  91.0163460   5.8035590 146.7807440
  92.3346520   5.4514190 146.1250420  89.8111870  10.3063370 139.8874990
  88.8702010  10.3213600 140.0622680  90.1255940   9.5199330 140.3335290
  79.7893510  11.9882970 133.4478950  80.5556780  11.8764330 134.0104380
  79.8668200  11.2920940 132.7955720  78.4840270   9.4208040 134.1311840
  78.5643860   8.4735550 134.2429240  79.3760020   9.7514920 134.2372500
  91.8137450  17.4772220 141.5629250  91.9384870  18.3003390 142.0353060
  92.6803010  17.2662950 141.2153400  79.2854980  19.5703430 141.2346380
  80.0217460  19.0218890 141.5054950  79.6695900  20.4359440 141.0952370
  76.1700460  15.6377000 137.1087890  75.2440240  15.8798140 137.0993300
  76.6356890  16.4651260 136.9872640  82.3957290  18.7433740 133.0571950
  83.1885900  19.0322570 132.6053740  81.8761640  18.3125910 132.3784430
  88.5578260  18.5909660 148.9816780  89.5100010  18.5067680 148.9317020
  88.4106480  19.2551370 149.6550570  91.4487460  17.9703870 134.4808690
  91.1628970  17.5569010 133.6662870  91.2507010  18.8991580 134.3609210
  76.0111070  11.2422960 149.3668010  76.5150090  10.6630240 149.9384240
  75.2718490  11.5263190 149.9044380  82.9134690  13.9637150 132.9214300
  82.8085330  13.3489500 133.6475680  82.7458910  13.4403040 132.1377310
  83.0649010  12.6493950 148.9003530  82.2994680  13.2178950 148.8158200
  83.2464970  12.3570160 148.0071760  86.1537420  13.0257180 133.5256290
  85.6047520  13.4726480 134.1699030  86.7756680  12.5206430 134.0493960
  90.2072360  14.3799280 149.4578550  90.9481830  14.7175040 148.9546010
  89.4445040  14.5491340 148.9048320  81.8212540  11.9848100 135.4221590
  82.2428960  11.8187970 136.2652980  81.9463380  11.1748330 134.9276730
  79.9839960   7.9644650 148.2292570  79.4536420   7.4735600 147.6015910
  80.6528030   8.3928850 147.6950500  84.3340180  11.0085710 132.6698690
  84.8545840  10.2934730 132.3039840  84.9808580  11.6471580 132.9699200
  88.8818020  12.4314110 147.9933760  89.2959040  12.5859190 148.8424180
  87.9469020  12.5569330 148.1559540  89.3540190   9.7710270 149.9972910
  89.9360960   9.0162590 149.9093390  89.5301960  10.3017710 149.2204390
  80.4712260   4.9307020 148.3089860  80.3769130   4.3127770 147.5840730
  79.8909650   5.6573310 148.0819770  83.2373700   3.4880260 145.3417250
  82.7891000   3.5104520 144.4962800  82.6038900   3.0899280 145.9387550
  83.6433250  12.3834590 145.9629690  84.0621360  13.2267320 145.7905930
  82.7241880  12.5206630 145.7336470  85.9797150  10.1150770 147.3467530
  86.0993360   9.5191910 148.0862370  86.8391150  10.1520460 146.9268830
  88.3185050  10.6687960 145.9230040  87.7920270  11.1930580 145.3195180
  88.6616390  11.3015350 146.5539770  80.7171440   8.0581330 132.3679750
  80.5160500   7.1948690 132.7293090  80.5463490   7.9714690 131.4301350
  81.4940670  18.6887600 147.0787420  80.9561760  19.4133660 146.7596120
  81.7474630  18.2117940 146.2884760  82.7465920   6.6572120 148.6043350
  83.3365610   6.3487970 149.2921170  81.9286160   6.1851870 148.7603250
  87.5659350   6.2737930 148.8376370  86.8774870   5.6119470 148.7726360
  88.2865370   5.8276200 149.2824830  88.1959750   2.8689560 134.8966630
  88.4762040   2.0257460 135.2526050  87.4225480   3.1012670 135.4105380
  79.5154240   5.1581950 132.3557630  79.8180140   5.1649380 131.4476780
  80.2548830   4.8079810 132.8525290  84.3502880  19.9238810 147.3374070
  84.2761580  20.8273950 147.6446440  83.4481720  19.6050710 147.3096140
  82.7339170   4.1016570 133.3413830  82.3861170   3.4240560 132.7616280
  82.9351940   3.6406080 134.1557220  84.8988210  19.0897320 134.9600430
  85.7939000  19.4282290 134.9819190  84.9305840  18.3676730 134.3324710
  78.5384370  14.4624370 133.1887430  78.9759240  15.0054040 133.8445010
  79.0232100  13.6371320 133.1983770  75.7530170  17.2513400 140.6407690
  76.0833180  16.3834460 140.4086330  76.1821170  17.4571920 141.4712650
  80.3492090  15.5822410 138.3009660  80.0487630  15.4587380 139.2013570
  80.2429580  14.7231000 137.8925390  76.2420380  18.1183990 143.3789320
  75.8051370  18.2984790 144.2113470  76.8098060  18.8758610 143.2371040
  91.8782560  17.6200990 147.6666630  91.2784550  17.6793550 146.9230550
  92.0076460  16.6805970 147.7963480  93.1184010  15.3618810 133.0036340
  92.2876970  15.4295460 133.4743570  93.2955840  16.2522930 132.7003200
  92.5740470  12.1066290 135.5070540  93.3359380  12.6762940 135.6130230
  92.5894840  11.5393490 136.2778850  76.0744810  10.6304220 139.7378200
  75.4193650  10.3615860 139.0937900  76.9122760  10.5208700 139.2880180
  93.5800440  12.9616390 140.3512470  93.9509270  12.1783710 139.9448440
  94.2202370  13.6505490 140.1729770  90.5634200  14.3452970 145.7642790
  89.7494040  14.7750130 146.0268580  90.9708400  14.9571380 145.1511840
  92.6259640  12.4000660 132.6643060  92.9008480  13.3079540 132.5362280
  92.4370380  12.3363190 133.6005050  89.0235250   5.4245510 133.9596690
  89.4420130   5.2376490 133.1193350  88.7171310   4.5724560 134.2699620
  92.5224980  10.3369650 137.6572490  92.1468580   9.5697580 137.2253780
  91.7928100  10.7192350 138.1447420  77.1120740  11.0156790 144.2781540
  77.4793780  10.9284190 145.1577560  76.5431560  10.2523340 144.1788400
  91.9124600   9.4841170 147.2912010  91.6810690   9.2553920 146.3909960
  92.1729150  10.4040720 147.2456900  76.6636740   7.9265880 148.1839960
  75.7692790   7.8932640 148.5233670  77.2034290   8.1252670 148.9491210
  75.2882890   7.8403150 135.6803530  74.3846970   8.1033350 135.5055190
  75.7723510   8.1114320 134.9003490  91.7975940   8.5627140 140.9579730
  92.3213420   8.0689790 140.3269900  92.3835360   8.6977500 141.7027300
  91.9765660   8.6467010 144.4799280  91.0268370   8.6130550 144.5944270
  92.1578670   9.5567120 144.2449050  77.8310100   6.8968690 133.5897910
  78.5401800   6.4751910 133.1045190  77.1150040   6.9643920 132.9581260
  77.4784260   2.9508020 132.6300560  78.2012390   3.4916960 132.9481780
  77.7508780   2.6771440 131.7542100  91.2875910   7.8200490 136.8972140
  91.7835030   7.5871360 137.6821020  91.0891980   6.9812330 136.4809780
  77.1676450   2.2014210 142.5323180  77.8152640   1.6511590 142.0918340
  77.5878290   2.4557360 143.3538990  92.7163070   6.4561440 139.4309820
  92.6062350   6.3017480 140.3692090  93.4770660   5.9282380 139.1885230
  91.0628790   2.3955570 145.8892820  91.7001010   3.0089710 146.2552010
  91.2103680   2.4316230 144.9442050  93.6053340   4.2869360 132.6715960
  94.5302650   4.1550540 132.4634250  93.5829130   4.3662180 133.6252410
  93.6791830   5.0580020 135.2972670  92.8843330   4.9925140 135.8265580
  93.8835110   5.9930660 135.2858020  90.6210250  19.0971570 139.2911060
  91.2169320  18.7756140 138.6145480  90.8788400  18.6243390 140.0824330
  76.9208450   2.3569880 145.2748500  76.5723270   2.8133700 146.0406680
  76.5896150   1.4627010 145.3570930  82.2278850  17.0849070 145.0411410
  81.9870210  17.3523630 144.1541930  83.1681490  17.2554800 145.0962270
  84.4333270   3.5481760 148.7967920  84.3722160   4.1403590 149.5463330
  85.3733650   3.4407720 148.6518180  87.0707830   3.2051820 148.4360210
  87.6848240   3.5231110 147.7741290  87.6157390   2.7200410 149.0556070
  93.4883010  19.1043450 145.8422050  92.9941290  19.5012320 145.1249180
  92.8796300  18.4792660 146.2359330  78.3660850  18.4751730 146.5599470
  77.7721170  18.3436430 147.2989510  78.3584690  17.6389870 146.0941570
  88.7187850   3.9754830 146.1471220  88.3901210   3.1606590 145.7672950
  89.6670150   3.9324640 146.0236910  91.1722460  19.7466870 143.1208790
  90.7125430  20.4982680 142.7466810  90.5434920  19.0273340 143.0623590
  77.9973080  15.8410110 145.5107510  77.2707140  15.2215400 145.4433460
  78.0582230  16.2350720 144.6405590  81.6018180  18.0555110 142.2956920
  82.1183200  17.4442470 141.7705180  82.2515560  18.5583890 142.7867930
  84.3413680  18.9463600 143.1225900  84.6291490  18.6917900 142.2458910
  84.8536900  18.3940960 143.7131470  85.5590690   2.6853800 143.7022410
  84.7762480   3.1599300 143.9819170  85.2653620   1.7808630 143.5935590
  90.1111760   3.3876900 141.7471500  90.5519850   3.3322000 140.8993100
  89.8419350   4.3034910 141.8181680  91.9750330   3.0192140 139.7580320
  91.9138730   2.0753360 139.6111340  92.7542360   3.1272230 140.3033780
  76.2803080  19.1584500 138.7204270  76.1125120  18.5255180 139.4186160
  75.4137590  19.3643900 138.3698460  76.9031100   2.9901280 136.2236130
  77.6610460   3.1030160 135.6500160  76.4408270   3.8270480 136.1779560
  83.4444910   5.1040550 139.2138440  82.6319420   4.7297440 138.8734320
  83.9486550   4.3485630 139.5159630  87.9469890   1.7683000 140.4521510
  88.5499260   2.3403210 140.9270030  87.2062880   2.3322440 140.2295410
  91.0904490   2.1704560 135.7261790  91.2855120   3.0688010 135.9929220
  90.3034360   1.9391640 136.2194740  77.8865780  17.8517730 136.1654410
  77.3613400  18.2325760 135.4616370  77.8110360  18.4768500 136.8864120
  79.2756250   3.5165330 134.7638100  79.8049010   2.7295130 134.6346050
  79.9084570   4.1956520 134.9973630  81.4694090   3.2540470 137.8183490
  80.8396830   2.5527780 137.9853620  80.9299230   4.0144600 137.6016650
  92.6431100  19.4105270 137.4868350  92.8183290  18.7243010 136.8429270
  91.9452670  19.9352320 137.0945020  80.4858750  19.8000110 135.0403660
  81.2177570  19.5159390 134.4927550  80.7452420  19.5613390 135.9303040
  79.6473540  15.9164840 135.0449990  79.0182420  16.3849940 135.5935820
  79.7621370  15.0714060 135.4796180  87.1023260   9.9670500 121.1951190
  87.0217310   9.0525110 120.9242900  86.6887680  10.4637570 120.4890900
  85.2341300  11.7449520 123.0760460  84.4583400  11.2649960 123.3659030
  85.8854230  11.0655170 122.9016620  79.2507130  12.0569330 123.9536220
  78.4192010  11.8018040 124.3532730  79.8588110  12.1280100 124.6894140
  89.2548730  16.1509710 121.8559590  88.7930260  15.3796950 122.1846760
  90.0674280  16.1775780 122.3612040  79.2308390  16.0909420 124.1494240
  79.5336430  15.2007160 123.9704460  79.9751980  16.6479640 123.9216490
  77.6599080   7.0171220 117.7378610  76.7715780   7.3587190 117.6358490
  77.9440270   6.8171540 116.8459440  75.6232090   9.6176870 123.6218310
  76.1948200   8.8499070 123.6221950  75.6233630   9.9165630 122.7124920
  85.4812040  18.4367720 121.4763580  84.8623480  18.8925220 120.9058020
  86.3363820  18.5919180 121.0753280  84.6750290  14.4206710 123.0830620
  84.6058570  13.4796650 122.9219750  85.4370150  14.5108120 123.6553190
  76.8656960   5.0261230 125.4087240  76.6859800   4.1286980 125.6890000
  76.4637040   5.5733100 126.0834190  85.7055460   7.2277090 123.3099550
  86.0820280   6.3548970 123.1973220  85.6074970   7.5635790 122.4189990
  79.8360470   5.6002720 118.7716990  79.9427220   6.5006450 119.0785750
  78.9252830   5.5520690 118.4811640  89.4879580   4.7227530 120.2427890
  90.3089200   4.2324100 120.2853370  89.5213660   5.3125190 120.9959730
  77.4843630   7.5221730 124.0169580  78.1653740   7.7860100 124.6356980
  77.1691680   6.6822600 124.3507590  81.6768200   8.5689090 123.1042170
  82.1846420   9.0670060 123.7447190  82.2081440   7.7924290 122.9281530
  93.7779130   6.7394280 126.8071520  93.0731300   7.1275990 126.2886630
  94.0437050   7.4344570 127.4092450  79.9604300   3.2087650 127.3705590
  79.9622740   3.7260040 126.5651490  79.1308610   2.7317830 127.3475520
  86.3475390  13.3206960 118.8695490  85.7292660  13.7856410 118.3058210
  86.8598640  14.0134440 119.2865000  81.2107150  12.8482830 125.5479090
  80.8776530  13.4751750 126.1900160  81.3873830  13.3744710 124.7680760
  89.7241060   6.6627910 123.0155430  89.0196630   6.9512800 123.5958540
  90.0853220   7.4728020 122.6554990  79.6419630   4.9197610 125.3776040
  79.9836440   5.7639660 125.0829910  78.7035440   5.0681350 125.4941380
  80.4226250  14.8163630 127.3628270  81.0400250  15.4914710 127.0812720
  79.5619370  15.2251610 127.2715770  75.7158590  14.0063490 116.2435120
  75.3386570  14.4950590 115.5120020  75.9731660  14.6788770 116.8741650
  91.3403840  16.2803040 125.2782910  90.6567360  16.9502150 125.2699580
  91.8798130  16.4783690 124.5127770  92.7927980   6.1082700 123.4064640
  91.8452890   6.1421680 123.5380070  93.1177970   6.9221650 123.7914000
  83.3247520   2.4079880 121.7020630  83.6322500   1.8526770 120.9856130
  82.3948220   2.5424340 121.5193620  88.8762580  18.1247170 123.9928090
  88.8889740  17.7209460 123.1250350  88.3237800  18.8994460 123.8889520
  90.1708000  14.8463390 119.0818260  90.0604330  13.9037720 119.2067680
  90.1676250  15.2079030 119.9681020  88.2748020  13.0277010 125.3210700
  88.6916810  12.8137120 124.4864160  88.9987840  13.2849800 125.8919320
  85.7128280  10.4728710 118.4380750  84.7857560  10.4066090 118.6669220
  85.8653100  11.4108840 118.3235990  85.6997360   6.7445710 115.4347910
  84.7601030   6.9059670 115.5200370  86.0180620   7.4631390 114.8883900
  92.2210120  11.4264230 125.4126940  91.3928750  11.4957320 124.9377070
  92.8160600  12.0118540 124.9442770  89.7425570  12.0349010 118.9416000
  89.1237990  11.6968560 118.2942300  89.7250020  11.3908770 119.6495190
  89.1852130   8.2133550 126.3581810  88.7723310   9.0387260 126.6121800
  88.4528080   7.6278590 126.1658170  81.3184920  10.9993450 121.2200480
  80.9141920  10.2870700 120.7246380  81.4048040  10.6546690 122.1088520
  81.7866620  14.6861010 123.3839690  81.4894910  14.0806480 122.7047470
  82.7366440  14.7238320 123.2729050  80.0313540   7.7736660 124.9999520
  80.5828130   7.8832000 124.2252770  80.5457050   8.1474260 125.7154750
  89.8752230  18.2592880 127.0462790  89.3982790  19.0665070 126.8535400
  89.1914020  17.6071210 127.1989000  80.8785050  14.4242700 130.0347490
  79.9813580  14.6482670 130.2820890  80.9037920  14.5477640 129.0858890
  87.9190270  11.2735820 115.9488750  88.3583550  10.4358250 115.8026570
  88.6318690  11.9065220 116.0352890  79.7056270  11.2956020 128.6104860
  79.5664040  12.1678820 128.9792260  78.8237630  10.9528830 128.4652800
  86.0285650  16.2131890 119.9169990  86.4681560  16.9556220 119.5025380
  85.9672540  16.4558460 120.8408950  81.5036620  17.2377720 130.8190010
  81.4752050  17.6420670 129.9518440  81.3401590  16.3088080 130.6561610
  91.5007410   2.5278630 114.2629790  91.1880070   2.6205460 115.1628860
  92.2619880   3.1059660 114.2127220  78.0189550   9.8938430 118.7207130
  77.8987150  10.6200520 118.1088400  77.7090440   9.1241340 118.2435040
  93.4551440  18.0204820 132.1154180  93.9311160  18.4987710 132.7943260
  94.0758600  17.9522310 131.3899680  75.6574920  13.0653570 124.5275770
  75.7355340  13.2002340 123.5831490  76.2716600  12.3569460 124.7203890
  76.9022550  14.7653760 120.9381950  76.4950630  14.9068350 120.0835550
  77.7935560  14.4813920 120.7353160  92.8584690  15.2117670 129.2754190
  92.9847750  14.9729550 128.3571370  92.9006070  14.3802210 129.7476270
  86.7201430  18.9145670 127.8449000  87.2346100  18.8253680 128.6471430
  85.8770510  19.2605370 128.1376910  88.6955830  19.2001010 117.2733000
  88.5356970  18.9103950 118.1714830  88.5302540  18.4241140 116.7378230
  81.1744210  18.9799540 119.0504620  80.9986690  18.0635080 118.8372420
  80.3199950  19.3386830 119.2902420  88.3981960  16.7088570 115.8331000
  87.7047120  16.7065860 115.1733280  89.1404820  16.2847890 115.4025170
  87.9631890  18.3351280 119.9079490  88.4188840  17.5540660 120.2218110
  88.3024410  19.0458100 120.4520670  92.7108700   7.2650130 130.2403930
  92.0952970   7.7729800 129.7119390  92.3905120   6.3648460 130.1829870
  75.7134440  14.1067740 127.0670230  75.8765480  13.6373100 126.2489600
  76.1786890  13.5991300 127.7319070  80.4853210   3.2373500 122.1030800
  80.0421360   4.0183040 121.7715320  81.0438200   3.5603390 122.8101740
  84.7723020   6.1042020 127.7066120  84.3102390   6.3125040 128.5186060
  84.3701130   5.2901370 127.4036790  89.7727530   7.3250970 128.8362780
  88.9221120   7.0256720 129.1571850  89.6129320   7.5692980 127.9246600
  86.8677240   8.8252720 130.9361570  87.1930650   7.9916470 130.5963800
  87.6557570   9.3481240 131.0839900  83.6012030   2.8584200 116.9836630
  82.9766210   2.8544070 117.7089940  83.5142150   1.9915160 116.5872600
  82.5229110   3.7820830 123.9620400  82.8201440   4.6883660 123.8812420
  83.0714670   3.2939610 123.3479970  80.2767430   8.3607070 119.8312050
  80.0508350   8.1444240 120.7358670  79.4959960   8.7935530 119.4858020
  87.5065190   8.3670440 118.4302700  86.9074080   9.0906240 118.2466320
  88.0544800   8.3047220 117.6479150  82.7166640   9.2592650 130.4972320
  82.6210240   8.3187380 130.3472720  83.5598620   9.4807720 130.1020390
  86.1130060   7.0033980 120.4605980  86.5059630   7.3206180 119.6474670
  86.4746910   6.1245860 120.5750500  77.8477180   5.6706320 128.6506100
  77.4540570   6.5181530 128.8578880  77.1595580   5.0332690 128.8414740
  84.4222230   5.7541290 131.7202840  83.7320550   5.5613490 132.3548930
  85.1654530   6.0375930 132.2527140  75.1494230   3.5934780 122.6836180
  74.8607280   4.1637640 123.3961160  75.8939990   3.1139230 123.0467410
  75.3364460   7.5354900 113.8938900  75.2539130   8.4785660 114.0353890
  74.9847520   7.3929810 113.0151250  86.6985200   9.5939730 124.5556760
  85.9666320  10.1026540 124.9046860  86.3009540   8.7769710 124.2545540
  83.1362590   6.2693930 122.9609250  83.1398650   5.8283880 122.1113790
  84.0313710   6.5911260 123.0681070  78.9864970   6.1520420 121.9203460
  78.6465020   6.6295650 122.6770510  78.2242290   5.6985540 121.5604560
  83.1982740   7.2706010 115.9516010  83.3195560   7.2292490 116.9001830
  82.8131250   8.1330160 115.7962740  87.1611110   5.0473410 123.9679700
  87.1783850   5.4982060 124.8121550  86.9126690   4.1479050 124.1813140
  82.2104240   9.5807150 115.3499310  81.6421140   9.1325400 114.7235220
  82.9193240   9.9399930 114.8164460  90.5881860   2.4605590 129.8066080
  90.9127630   1.7295250 130.3324060  90.6238370   2.1419230 128.9047070
  77.2873420  13.4819170 129.2266040  76.9028210  12.8412840 129.8249000
  77.5985610  14.1855290 129.7960770  83.4370560  10.3295710 124.7074660
  83.8040690   9.8554280 125.4536000  83.2475620  11.2037280 125.0483000
  76.3011050   5.0739400 120.8368130  76.0157970   4.7095070 121.6746750
  76.2389910   4.3419860 120.2231270  81.2269930   9.3704350 127.0258870
  80.9227000  10.2496330 127.2509230  82.1816390   9.4304140 127.0616310
  79.7551720  13.5765340 117.6225720  78.9813980  13.0362960 117.4624440
  80.4846350  13.0571950 117.2843480  90.5139700  12.5730700 123.4152110
  91.2338820  13.0685990 123.0248220  90.3121520  11.8948590 122.7705980
  85.9749640   3.9668660 117.5581500  85.1614250   3.4681830 117.4826810
  85.7811590   4.8066910 117.1417850  85.8958500  12.6439760 129.3021110
  85.8295810  11.7235430 129.0478700  85.2663640  12.7415200 130.0165750
  88.6898030   8.3388310 115.8543660  89.5777650   8.6505540 115.6795000
  88.6603120   7.4660560 115.4624240  79.7989120  13.2445720 121.2604530
  80.3167790  12.4413980 121.2061420  79.3473140  13.1824860 122.1021360
  84.6858620  14.5112000 116.5331830  85.0274320  15.2554230 116.0375150
  83.8571330  14.8243120 116.8956660  77.2833660  10.2107090 128.1730230
  76.9248600  10.8760940 128.7603570  76.9888220   9.3790640 128.5442850
  80.4846780  10.6691330 131.0569780  80.1846920  10.8148510 130.1597600
  81.2558020  10.1096620 130.9643170  85.8275230  15.4660330 129.0524910
  85.8419770  14.5341290 128.8343820  85.1200330  15.5520090 129.6914680
  90.9612300   9.6500150 115.3223520  90.8776020  10.0814370 114.4719960
  91.6806490  10.1098500 115.7550340  92.0386440  12.1067670 128.3993490
  91.3134630  12.6996450 128.2022880  92.5661900  12.0991210 127.6006860
  91.9899550  16.5042410 118.0505650  91.3475710  15.8498030 118.3249370
  91.6030210  16.9097500 117.2746320  87.5686030  13.8327840 121.8977340
  87.9209850  13.2355970 121.2378710  86.6848360  13.5072070 122.0685590
  83.6549310  14.5925530 119.3047750  84.3420440  15.1394740 119.6855340
  82.8681730  15.1366260 119.3397360  75.7941710  10.2098350 114.7964830
  76.6636560  10.4923150 115.0800750  75.3032030  11.0234220 114.6813640
  82.9576520  11.5971560 118.9173110  83.4139300  12.4076810 119.1433300
  82.6064730  11.2794700 119.7491600  85.2609130  17.1077900 126.1465410
  85.9051350  17.3137280 126.8238830  85.6238570  16.3466300 125.6936260
  78.8588300   1.9409210 119.3895630  78.7302930   1.9327110 120.3380550
  78.0350320   2.2792300 119.0386640  86.5341210  15.1110250 124.8642860
  87.1763440  14.4103410 124.9775030  87.0590560  15.8908690 124.6839750
  90.3796930  15.3958870 114.5882000  90.1534510  14.6789310 115.1806640
  89.9893130  15.1471310 113.7503750  88.3078830  15.9105150 128.0678920
  88.6435070  16.4971840 128.7456840  87.3879170  15.7797860 128.2976710
  76.1612960  19.4225730 115.3626460  76.5210600  20.0215070 114.7083730
  76.0205300  19.9685620 116.1361490  75.8582230   3.7000330 128.8502330
  75.1440750   3.8997250 129.4554940  76.2777270   2.9239900 129.2217130
  89.9613180  13.3130810 116.2496160  89.6734880  13.7743500 117.0374040
  90.7565350  12.8528580 116.5180380  76.1454820  17.6880590 129.8368860
  76.2545940  16.7475330 129.6964250  75.4935380  17.9535340 129.1882590
  84.1367410  15.9596480 131.2366980  83.8164280  15.2405720 131.7812670
  83.4625770  16.6351550 131.3103040  82.1781580  16.8056930 116.1800130
  82.1691680  17.5386620 115.5644640  81.2579940  16.5588510 116.2727090
  77.7788220  12.0271820 116.9246890  77.1716170  12.7670720 116.9342190
  78.2537570  12.1171180 116.0985090  87.3521010   6.1922640 126.6003780
  87.7201830   5.3717850 126.9283350  86.4919210   6.2524530 127.0159430
  90.7183040   5.1479580 117.4091340  90.0896200   5.2525250 116.6949570
  90.2234960   5.3676360 118.1985220  85.1641180  16.8685170 114.8425320
  85.2653160  16.6649160 113.9127300  84.2642920  16.6143450 115.0473100
  82.6867070   7.4265530 118.8249220  81.9783220   7.8951870 119.2662830
  82.9711550   6.7687540 119.4594410  84.3123000   8.8462230 126.8241750
  84.8108250   9.3208050 127.4893600  84.4545950   7.9225750 127.0311780
  86.7182500   4.1516190 120.2645010  86.5950280   4.1702320 119.3154520
  87.6667060   4.1995130 120.3843410  83.8059290  19.3871490 119.5372990
  84.0600790  19.3492880 118.6152360  82.8571770  19.2604820 119.5301240
  80.8902090   5.7350610 116.1999930  81.7392620   6.1720760 116.1340120
  80.5233360   6.0470870 117.0271990  91.5189860   5.0630190 127.6670140
  91.0163460   5.8035590 128.0063950  92.3346520   5.4514190 127.3506930
  89.8111870  10.3063370 121.1131500  88.8702010  10.3213600 121.2879190
  90.1255940   9.5199330 121.5591800  79.7893510  11.9882970 114.6735460
  80.5556780  11.8764330 115.2360890  79.8668200  11.2920940 114.0212230
  78.4840270   9.4208040 115.3568350  78.5643860   8.4735550 115.4685750
  79.3760020   9.7514920 115.4629010  91.8137450  17.4772220 122.7885760
  91.9384870  18.3003390 123.2609570  92.6803010  17.2662950 122.4409910
  79.2854980  19.5703430 122.4602890  80.0217460  19.0218890 122.7311460
  79.6695900  20.4359440 122.3208880  76.1700460  15.6377000 118.3344400
  75.2440240  15.8798140 118.3249810  76.6356890  16.4651260 118.2129150
  78.2913260  18.7549500 131.6488470  79.0925990  19.0761550 132.0623870
  77.7765080  18.3945080 132.3708380  82.3957290  18.7433740 114.2828460
  83.1885900  19.0322570 113.8310250  81.8761640  18.3125910 113.6040940
  87.1277890  14.8629370 131.5963880  86.5216050  14.8860970 130.8559630
  86.8232000  14.1312410 132.1331130  88.5578260  18.5909660 130.2073290
  89.5100010  18.5067680 130.1573530  88.4106480  19.2551370 130.8807080
  91.4487460  17.9703870 115.7065200  91.1628970  17.5569010 114.8919380
  91.2507010  18.8991580 115.5865720  76.0111070  11.2422960 130.5924520
  76.5150090  10.6630240 131.1640750  75.2718490  11.5263190 131.1300890
  82.9134690  13.9637150 114.1470810  82.8085330  13.3489500 114.8732190
  82.7458910  13.4403040 113.3633820  83.0649010  12.6493950 130.1260040
  82.2994680  13.2178950 130.0414710  83.2464970  12.3570160 129.2328270
  86.1537420  13.0257180 114.7512800  85.6047520  13.4726480 115.3955540
  86.7756680  12.5206430 115.2750470  90.2072360  14.3799280 130.6835060
  90.9481830  14.7175040 130.1802520  89.4445040  14.5491340 130.1304830
  78.0434150   9.3852550 131.4874590  78.0839490   9.0866420 132.3959820
  78.8979650   9.7860160 131.3282110  81.8212540  11.9848100 116.6478100
  82.2428960  11.8187970 117.4909490  81.9463380  11.1748330 116.1533240
  79.9839960   7.9644650 129.4549080  79.4536420   7.4735600 128.8272420
  80.6528030   8.3928850 128.9207010  84.3340180  11.0085710 113.8955200
  84.8545840  10.2934730 113.5296350  84.9808580  11.6471580 114.1955710
  88.8818020  12.4314110 129.2190270  89.2959040  12.5859190 130.0680690
  87.9469020  12.5569330 129.3816050  89.3540190   9.7710270 131.2229420
  89.9360960   9.0162590 131.1349900  89.5301960  10.3017710 130.4460900
  80.4712260   4.9307020 129.5346370  80.3769130   4.3127770 128.8097240
  79.8909650   5.6573310 129.3076280  83.2373700   3.4880260 126.5673760
  82.7891000   3.5104520 125.7219310  82.6038900   3.0899280 127.1644060
  83.6433250  12.3834590 127.1886200  84.0621360  13.2267320 127.0162440
  82.7241880  12.5206630 126.9592980  85.9797150  10.1150770 128.5724040
  86.0993360   9.5191910 129.3118880  86.8391150  10.1520460 128.1525340
  88.3185050  10.6687960 127.1486550  87.7920270  11.1930580 126.5451690
  88.6616390  11.3015350 127.7796280  80.7171440   8.0581330 113.5936260
  80.5160500   7.1948690 113.9549600  80.5463490   7.9714690 112.6557860
  81.4940670  18.6887600 128.3043930  80.9561760  19.4133660 127.9852630
  81.7474630  18.2117940 127.5141270  82.7465920   6.6572120 129.8299860
  83.3365610   6.3487970 130.5177680  81.9286160   6.1851870 129.9859760
  87.5659350   6.2737930 130.0632880  86.8774870   5.6119470 129.9982870
  88.2865370   5.8276200 130.5081340  88.1959750   2.8689560 116.1223140
  88.4762040   2.0257460 116.4782560  87.4225480   3.1012670 116.6361890
  79.5154240   5.1581950 113.5814140  79.8180140   5.1649380 112.6733290
  80.2548830   4.8079810 114.0781800  84.3502880  19.9238810 128.5630580
  84.2761580  20.8273950 128.8702950  83.4481720  19.6050710 128.5352650
  82.7339170   4.1016570 114.5670340  82.3861170   3.4240560 113.9872790
  82.9351940   3.6406080 115.3813730  84.8988210  19.0897320 116.1856940
  85.7939000  19.4282290 116.2075700  84.9305840  18.3676730 115.5581220
  78.5384370  14.4624370 114.4143940  78.9759240  15.0054040 115.0701520
  79.0232100  13.6371320 114.4240280  75.7530170  17.2513400 121.8664200
  76.0833180  16.3834460 121.6342840  76.1821170  17.4571920 122.6969160
  80.3492090  15.5822410 119.5266170  80.0487630  15.4587380 120.4270080
  80.2429580  14.7231000 119.1181900  76.2420380  18.1183990 124.6045830
  75.8051370  18.2984790 125.4369980  76.8098060  18.8758610 124.4627550
  91.8782560  17.6200990 128.8923140  91.2784550  17.6793550 128.1487060
  92.0076460  16.6805970 129.0219990  93.1184010  15.3618810 114.2292850
  92.2876970  15.4295460 114.7000080  93.2955840  16.2522930 113.9259710
  92.5740470  12.1066290 116.7327050  93.3359380  12.6762940 116.8386740
  92.5894840  11.5393490 117.5035360  76.0744810  10.6304220 120.9634710
  75.4193650  10.3615860 120.3194410  76.9122760  10.5208700 120.5136690
  93.5800440  12.9616390 121.5768980  93.9509270  12.1783710 121.1704950
  94.2202370  13.6505490 121.3986280  90.5634200  14.3452970 126.9899300
  89.7494040  14.7750130 127.2525090  90.9708400  14.9571380 126.3768350
  92.6259640  12.4000660 113.8899570  92.9008480  13.3079540 113.7618790
  92.4370380  12.3363190 114.8261560  89.0235250   5.4245510 115.1853200
  89.4420130   5.2376490 114.3449860  88.7171310   4.5724560 115.4956130
  92.5224980  10.3369650 118.8829000  92.1468580   9.5697580 118.4510290
  91.7928100  10.7192350 119.3703930  77.1120740  11.0156790 125.5038050
  77.4793780  10.9284190 126.3834070  76.5431560  10.2523340 125.4044910
  91.9124600   9.4841170 128.5168520  91.6810690   9.2553920 127.6166470
  92.1729150  10.4040720 128.4713410  76.6636740   7.9265880 129.4096470
  75.7692790   7.8932640 129.7490180  77.2034290   8.1252670 130.1747720
  90.3512670   4.7097600 131.2948220  91.2282850   4.7181000 131.6782220
  90.3633510   3.9728440 130.6840570  75.2882890   7.8403150 116.9060040
  74.3846970   8.1033350 116.7311700  75.7723510   8.1114320 116.1260000
  91.7975940   8.5627140 122.1836240  92.3213420   8.0689790 121.5526410
  92.3835360   8.6977500 122.9283810  91.9765660   8.6467010 125.7055790
  91.0268370   8.6130550 125.8200780  92.1578670   9.5567120 125.4705560
  77.8310100   6.8968690 114.8154420  78.5401800   6.4751910 114.3301700
  77.1150040   6.9643920 114.1837770  77.4784260   2.9508020 113.8557070
  78.2012390   3.4916960 114.1738290  77.7508780   2.6771440 112.9798610
  91.2875910   7.8200490 118.1228650  91.7835030   7.5871360 118.9077530
  91.0891980   6.9812330 117.7066290  77.1676450   2.2014210 123.7579690
  77.8152640   1.6511590 123.3174850  77.5878290   2.4557360 124.5795500
  92.7163070   6.4561440 120.6566330  92.6062350   6.3017480 121.5948600
  93.4770660   5.9282380 120.4141740  91.0628790   2.3955570 127.1149330
  91.7001010   3.0089710 127.4808520  91.2103680   2.4316230 126.1698560
  93.6053340   4.2869360 113.8972470  94.5302650   4.1550540 113.6890760
  93.5829130   4.3662180 114.8508920  93.6791830   5.0580020 116.5229180
  92.8843330   4.9925140 117.0522090  93.8835110   5.9930660 116.5114530
  90.6210250  19.0971570 120.5167570  91.2169320  18.7756140 119.8401990
  90.8788400  18.6243390 121.3080840  76.9208450   2.3569880 126.5005010
  76.5723270   2.8133700 127.2663190  76.5896150   1.4627010 126.5827440
  78.5272820  15.5289480 130.6658200  78.4842450  15.1582390 131.5472660
  78.6583830  16.4667050 130.8060020  82.2278850  17.0849070 126.2667920
  81.9870210  17.3523630 125.3798440  83.1681490  17.2554800 126.3218780
  84.4333270   3.5481760 130.0224430  84.3722160   4.1403590 130.7719840
  85.3733650   3.4407720 129.8774690  87.0707830   3.2051820 129.6616720
  87.6848240   3.5231110 128.9997800  87.6157390   2.7200410 130.2812580
  93.4883010  19.1043450 127.0678560  92.9941290  19.5012320 126.3505690
  92.8796300  18.4792660 127.4615840  78.3660850  18.4751730 127.7855980
  77.7721170  18.3436430 128.5246020  78.3584690  17.6389870 127.3198080
  88.7187850   3.9754830 127.3727730  88.3901210   3.1606590 126.9929460
  89.6670150   3.9324640 127.2493420  91.1722460  19.7466870 124.3465300
  90.7125430  20.4982680 123.9723320  90.5434920  19.0273340 124.2880100
  77.9973080  15.8410110 126.7364020  77.2707140  15.2215400 126.6689970
  78.0582230  16.2350720 125.8662100  81.6018180  18.0555110 123.5213430
  82.1183200  17.4442470 122.9961690  82.2515560  18.5583890 124.0124440
  84.3413680  18.9463600 124.3482410  84.6291490  18.6917900 123.4715420
  84.8536900  18.3940960 124.9387980  85.5590690   2.6853800 124.9278920
  84.7762480   3.1599300 125.2075680  85.2653620   1.7808630 124.8192100
  90.1111760   3.3876900 122.9728010  90.5519850   3.3322000 122.1249610
  89.8419350   4.3034910 123.0438190  91.9750330   3.0192140 120.9836830
  91.9138730   2.0753360 120.8367850  92.7542360   3.1272230 121.5290290
  76.2803080  19.1584500 119.9460780  76.1125120  18.5255180 120.6442670
  75.4137590  19.3643900 119.5954970  76.9031100   2.9901280 117.4492640
  77.6610460   3.1030160 116.8756670  76.4408270   3.8270480 117.4036070
  83.4444910   5.1040550 120.4394950  82.6319420   4.7297440 120.0990830
  83.9486550   4.3485630 120.7416140  87.9469890   1.7683000 121.6778020
  88.5499260   2.3403210 122.1526540  87.2062880   2.3322440 121.4551920
  91.0904490   2.1704560 116.9518300  91.2855120   3.0688010 117.2185730
  90.3034360   1.9391640 117.4451250  77.8865780  17.8517730 117.3910920
  77.3613400  18.2325760 116.6872880  77.8110360  18.4768500 118.1120630
  79.2756250   3.5165330 115.9894610  79.8049010   2.7295130 115.8602560
  79.9084570   4.1956520 116.2230140  81.4694090   3.2540470 119.0440000
  80.8396830   2.5527780 119.2110130  80.9299230   4.0144600 118.8273160
  84.4086040  19.8679700 131.7150610  85.3353350  19.6323970 131.7586570
  84.3936470  20.6951700 131.2336640  92.6431100  19.4105270 118.7124860
  92.8183290  18.7243010 118.0685780  91.9452670  19.9352320 118.3201530
  81.5949650   2.5324450 131.4792490  81.3133920   3.0358050 130.7153310
  81.9769350   1.7346200 131.1134620  80.4858750  19.8000110 116.2660170
  81.2177570  19.5159390 115.7184060  80.7452420  19.5613390 117.1559550
  79.6473540  15.9164840 116.2706500  79.0182420  16.3849940 116.8192330
  79.7621370  15.0714060 116.7052690  88.1965110   1.9478030 132.0572960
  88.0830560   2.2672640 132.9524480  89.0134850   2.3490540 131.7610240
  90.9763600  19.0949560 131.5391650  91.7688920  18.5998790 131.3317610
  91.2696750  19.7739700 132.1467260  87.1023260   9.9670500 102.4207700
  87.0217310   9.0525110 102.1499410  86.6887680  10.4637570 101.7147410
  85.2341300  11.7449520 104.3016970  84.4583400  11.2649960 104.5915540
  85.8854230  11.0655170 104.1273130  79.2507130  12.0569330 105.1792730
  78.4192010  11.8018040 105.5789240  79.8588110  12.1280100 105.9150650
  89.2548730  16.1509710 103.0816100  88.7930260  15.3796950 103.4103270
  90.0674280  16.1775780 103.5868550  79.2308390  16.0909420 105.3750750
  79.5336430  15.2007160 105.1960970  79.9751980  16.6479640 105.1473000
  77.6599080   7.0171220  98.9635120  76.7715780   7.3587190  98.8615000
  77.9440270   6.8171540  98.0715950  75.6232090   9.6176870 104.8474820
  76.1948200   8.8499070 104.8478460  75.6233630   9.9165630 103.9381430
  85.4812040  18.4367720 102.7020090  84.8623480  18.8925220 102.1314530
  86.3363820  18.5919180 102.3009790  84.6750290  14.4206710 104.3087130
  84.6058570  13.4796650 104.1476260  85.4370150  14.5108120 104.8809700
  76.8656960   5.0261230 106.6343750  76.6859800   4.1286980 106.9146510
  76.4637040   5.5733100 107.3090700  85.7055460   7.2277090 104.5356060
  86.0820280   6.3548970 104.4229730  85.6074970   7.5635790 103.6446500
  79.8360470   5.6002720  99.9973500  79.9427220   6.5006450 100.3042260
  78.9252830   5.5520690  99.7068150  89.4879580   4.7227530 101.4684400
  90.3089200   4.2324100 101.5109880  89.5213660   5.3125190 102.2216240
  77.4843630   7.5221730 105.2426090  78.1653740   7.7860100 105.8613490
  77.1691680   6.6822600 105.5764100  81.6768200   8.5689090 104.3298680
  82.1846420   9.0670060 104.9703700  82.2081440   7.7924290 104.1538040
  93.7779130   6.7394280 108.0328030  93.0731300   7.1275990 107.5143140
  94.0437050   7.4344570 108.6348960  79.9604300   3.2087650 108.5962100
  79.9622740   3.7260040 107.7908000  79.1308610   2.7317830 108.5732030
  86.3475390  13.3206960 100.0952000  85.7292660  13.7856410  99.5314720
  86.8598640  14.0134440 100.5121510  81.2107150  12.8482830 106.7735600
  80.8776530  13.4751750 107.4156670  81.3873830  13.3744710 105.9937270
  89.7241060   6.6627910 104.2411940  89.0196630   6.9512800 104.8215050
  90.0853220   7.4728020 103.8811500  79.6419630   4.9197610 106.6032550
  79.9836440   5.7639660 106.3086420  78.7035440   5.0681350 106.7197890
  80.4226250  14.8163630 108.5884780  81.0400250  15.4914710 108.3069230
  79.5619370  15.2251610 108.4972280  75.7158590  14.0063490  97.4691630
  75.3386570  14.4950590  96.7376530  75.9731660  14.6788770  98.0998160
  91.3403840  16.2803040 106.5039420  90.6567360  16.9502150 106.4956090
  91.8798130  16.4783690 105.7384280  92.7927980   6.1082700 104.6321150
  91.8452890   6.1421680 104.7636580  93.1177970   6.9221650 105.0170510
  83.3247520   2.4079880 102.9277140  83.6322500   1.8526770 102.2112640
  82.3948220   2.5424340 102.7450130  88.8762580  18.1247170 105.2184600
  88.8889740  17.7209460 104.3506860  88.3237800  18.8994460 105.1146030
  90.1708000  14.8463390 100.3074770  90.0604330  13.9037720 100.4324190
  90.1676250  15.2079030 101.1937530  88.2748020  13.0277010 106.5467210
  88.6916810  12.8137120 105.7120670  88.9987840  13.2849800 107.1175830
  85.7128280  10.4728710  99.6637260  84.7857560  10.4066090  99.8925730
  85.8653100  11.4108840  99.5492500  85.6997360   6.7445710  96.6604420
  84.7601030   6.9059670  96.7456880  86.0180620   7.4631390  96.1140410
  92.2210120  11.4264230 106.6383450  91.3928750  11.4957320 106.1633580
  92.8160600  12.0118540 106.1699280  89.7425570  12.0349010 100.1672510
  89.1237990  11.6968560  99.5198810  89.7250020  11.3908770 100.8751700
  89.1852130   8.2133550 107.5838320  88.7723310   9.0387260 107.8378310
  88.4528080   7.6278590 107.3914680  81.3184920  10.9993450 102.4456990
  80.9141920  10.2870700 101.9502890  81.4048040  10.6546690 103.3345030
  81.7866620  14.6861010 104.6096200  81.4894910  14.0806480 103.9303980
  82.7366440  14.7238320 104.4985560  80.0313540   7.7736660 106.2256030
  80.5828130   7.8832000 105.4509280  80.5457050   8.1474260 106.9411260
  89.8752230  18.2592880 108.2719300  89.3982790  19.0665070 108.0791910
  89.1914020  17.6071210 108.4245510  80.8785050  14.4242700 111.2604000
  79.9813580  14.6482670 111.5077400  80.9037920  14.5477640 110.3115400
  87.9190270  11.2735820  97.1745260  88.3583550  10.4358250  97.0283080
  88.6318690  11.9065220  97.2609400  79.7056270  11.2956020 109.8361370
  79.5664040  12.1678820 110.2048770  78.8237630  10.9528830 109.6909310
  86.0285650  16.2131890 101.1426500  86.4681560  16.9556220 100.7281890
  85.9672540  16.4558460 102.0665460  81.5036620  17.2377720 112.0446520
  81.4752050  17.6420670 111.1774950  81.3401590  16.3088080 111.8818120
  91.5007410   2.5278630  95.4886300  91.1880070   2.6205460  96.3885370
  92.2619880   3.1059660  95.4383730  78.0189550   9.8938430  99.9463640
  77.8987150  10.6200520  99.3344910  77.7090440   9.1241340  99.4691550
  93.4551440  18.0204820 113.3410690  93.9311160  18.4987710 114.0199770
  94.0758600  17.9522310 112.6156190  75.6574920  13.0653570 105.7532280
  75.7355340  13.2002340 104.8088000  76.2716600  12.3569460 105.9460400
  76.9022550  14.7653760 102.1638460  76.4950630  14.9068350 101.3092060
  77.7935560  14.4813920 101.9609670  92.8584690  15.2117670 110.5010700
  92.9847750  14.9729550 109.5827880  92.9006070  14.3802210 110.9732780
  86.7201430  18.9145670 109.0705510  87.2346100  18.8253680 109.8727940
  85.8770510  19.2605370 109.3633420  88.3981960  16.7088570  97.0587510
  87.7047120  16.7065860  96.3989790  89.1404820  16.2847890  96.6281680
  87.9631890  18.3351280 101.1336000  88.4188840  17.5540660 101.4474620
  88.3024410  19.0458100 101.6777180  92.7108700   7.2650130 111.4660440
  92.0952970   7.7729800 110.9375900  92.3905120   6.3648460 111.4086380
  75.7134440  14.1067740 108.2926740  75.8765480  13.6373100 107.4746110
  76.1786890  13.5991300 108.9575580  80.4853210   3.2373500 103.3287310
  80.0421360   4.0183040 102.9971830  81.0438200   3.5603390 104.0358250
  84.7723020   6.1042020 108.9322630  84.3102390   6.3125040 109.7442570
  84.3701130   5.2901370 108.6293300  89.7727530   7.3250970 110.0619290
  88.9221120   7.0256720 110.3828360  89.6129320   7.5692980 109.1503110
  86.8677240   8.8252720 112.1618080  87.1930650   7.9916470 111.8220310
  87.6557570   9.3481240 112.3096410  83.6012030   2.8584200  98.2093140
  82.9766210   2.8544070  98.9346450  83.5142150   1.9915160  97.8129110
  82.5229110   3.7820830 105.1876910  82.8201440   4.6883660 105.1068930
  83.0714670   3.2939610 104.5736480  80.2767430   8.3607070 101.0568560
  80.0508350   8.1444240 101.9615180  79.4959960   8.7935530 100.7114530
  87.5065190   8.3670440  99.6559210  86.9074080   9.0906240  99.4722830
  88.0544800   8.3047220  98.8735660  82.7166640   9.2592650 111.7228830
  82.6210240   8.3187380 111.5729230  83.5598620   9.4807720 111.3276900
  86.1130060   7.0033980 101.6862490  86.5059630   7.3206180 100.8731180
  86.4746910   6.1245860 101.8007010  77.8477180   5.6706320 109.8762610
  77.4540570   6.5181530 110.0835390  77.1595580   5.0332690 110.0671250
  84.4222230   5.7541290 112.9459350  83.7320550   5.5613490 113.5805440
  85.1654530   6.0375930 113.4783650  75.1494230   3.5934780 103.9092690
  74.8607280   4.1637640 104.6217670  75.8939990   3.1139230 104.2723920
  75.3364460   7.5354900  95.1195410  75.2539130   8.4785660  95.2610400
  74.9847520   7.3929810  94.2407760  86.6985200   9.5939730 105.7813270
  85.9666320  10.1026540 106.1303370  86.3009540   8.7769710 105.4802050
  83.1362590   6.2693930 104.1865760  83.1398650   5.8283880 103.3370300
  84.0313710   6.5911260 104.2937580  78.9864970   6.1520420 103.1459970
  78.6465020   6.6295650 103.9027020  78.2242290   5.6985540 102.7861070
  83.1982740   7.2706010  97.1772520  83.3195560   7.2292490  98.1258340
  82.8131250   8.1330160  97.0219250  87.1611110   5.0473410 105.1936210
  87.1783850   5.4982060 106.0378060  86.9126690   4.1479050 105.4069650
  82.2104240   9.5807150  96.5755820  81.6421140   9.1325400  95.9491730
  82.9193240   9.9399930  96.0420970  90.5881860   2.4605590 111.0322590
  90.9127630   1.7295250 111.5580570  90.6238370   2.1419230 110.1303580
  77.2873420  13.4819170 110.4522550  76.9028210  12.8412840 111.0505510
  77.5985610  14.1855290 111.0217280  83.4370560  10.3295710 105.9331170
  83.8040690   9.8554280 106.6792510  83.2475620  11.2037280 106.2739510
  76.3011050   5.0739400 102.0624640  76.0157970   4.7095070 102.9003260
  76.2389910   4.3419860 101.4487780  81.2269930   9.3704350 108.2515380
  80.9227000  10.2496330 108.4765740  82.1816390   9.4304140 108.2872820
  79.7551720  13.5765340  98.8482230  78.9813980  13.0362960  98.6880950
  80.4846350  13.0571950  98.5099990  90.5139700  12.5730700 104.6408620
  91.2338820  13.0685990 104.2504730  90.3121520  11.8948590 103.9962490
  85.9749640   3.9668660  98.7838010  85.1614250   3.4681830  98.7083320
  85.7811590   4.8066910  98.3674360  85.8958500  12.6439760 110.5277620
  85.8295810  11.7235430 110.2735210  85.2663640  12.7415200 111.2422260
  88.6898030   8.3388310  97.0800170  89.5777650   8.6505540  96.9051510
  88.6603120   7.4660560  96.6880750  79.7989120  13.2445720 102.4861040
  80.3167790  12.4413980 102.4317930  79.3473140  13.1824860 103.3277870
  84.6858620  14.5112000  97.7588340  85.0274320  15.2554230  97.2631660
  83.8571330  14.8243120  98.1213170  77.2833660  10.2107090 109.3986740
  76.9248600  10.8760940 109.9860080  76.9888220   9.3790640 109.7699360
  80.4846780  10.6691330 112.2826290  80.1846920  10.8148510 111.3854110
  81.2558020  10.1096620 112.1899680  85.8275230  15.4660330 110.2781420
  85.8419770  14.5341290 110.0600330  85.1200330  15.5520090 110.9171190
  90.9612300   9.6500150  96.5480030  90.8776020  10.0814370  95.6976470
  91.6806490  10.1098500  96.9806850  92.0386440  12.1067670 109.6250000
  91.3134630  12.6996450 109.4279390  92.5661900  12.0991210 108.8263370
  91.9899550  16.5042410  99.2762160  91.3475710  15.8498030  99.5505880
  91.6030210  16.9097500  98.5002830  87.5686030  13.8327840 103.1233850
  87.9209850  13.2355970 102.4635220  86.6848360  13.5072070 103.2942100
  83.6549310  14.5925530 100.5304260  84.3420440  15.1394740 100.9111850
  82.8681730  15.1366260 100.5653870  75.7941710  10.2098350  96.0221340
  76.6636560  10.4923150  96.3057260  75.3032030  11.0234220  95.9070150
  82.9576520  11.5971560 100.1429620  83.4139300  12.4076810 100.3689810
  82.6064730  11.2794700 100.9748110  85.2609130  17.1077900 107.3721920
  85.9051350  17.3137280 108.0495340  85.6238570  16.3466300 106.9192770
  78.8588300   1.9409210 100.6152140  78.7302930   1.9327110 101.5637060
  78.0350320   2.2792300 100.2643150  86.5341210  15.1110250 106.0899370
  87.1763440  14.4103410 106.2031540  87.0590560  15.8908690 105.9096260
  90.3796930  15.3958870  95.8138510  90.1534510  14.6789310  96.4063150
  89.9893130  15.1471310  94.9760260  88.3078830  15.9105150 109.2935430
  88.6435070  16.4971840 109.9713350  87.3879170  15.7797860 109.5233220
  75.8582230   3.7000330 110.0758840  75.1440750   3.8997250 110.6811450
  76.2777270   2.9239900 110.4473640  89.9613180  13.3130810  97.4752670
  89.6734880  13.7743500  98.2630550  90.7565350  12.8528580  97.7436890
  76.1454820  17.6880590 111.0625370  76.2545940  16.7475330 110.9220760
  75.4935380  17.9535340 110.4139100  84.1367410  15.9596480 112.4623490
  83.8164280  15.2405720 113.0069180  83.4625770  16.6351550 112.5359550
  82.1781580  16.8056930  97.4056640  82.1691680  17.5386620  96.7901150
  81.2579940  16.5588510  97.4983600  77.7788220  12.0271820  98.1503400
  77.1716170  12.7670720  98.1598700  78.2537570  12.1171180  97.3241600
  87.3521010   6.1922640 107.8260290  87.7201830   5.3717850 108.1539860
  86.4919210   6.2524530 108.2415940  90.7183040   5.1479580  98.6347850
  90.0896200   5.2525250  97.9206080  90.2234960   5.3676360  99.4241730
  85.1641180  16.8685170  96.0681830  85.2653160  16.6649160  95.1383810
  84.2642920  16.6143450  96.2729610  82.6867070   7.4265530 100.0505730
  81.9783220   7.8951870 100.4919340  82.9711550   6.7687540 100.6850920
  84.3123000   8.8462230 108.0498260  84.8108250   9.3208050 108.7150110
  84.4545950   7.9225750 108.2568290  86.7182500   4.1516190 101.4901520
  86.5950280   4.1702320 100.5411030  87.6667060   4.1995130 101.6099920
  83.8059290  19.3871490 100.7629500  84.0600790  19.3492880  99.8408870
  82.8571770  19.2604820 100.7557750  80.8902090   5.7350610  97.4256440
  81.7392620   6.1720760  97.3596630  80.5233360   6.0470870  98.2528500
  91.5189860   5.0630190 108.8926650  91.0163460   5.8035590 109.2320460
  92.3346520   5.4514190 108.5763440  89.8111870  10.3063370 102.3388010
  88.8702010  10.3213600 102.5135700  90.1255940   9.5199330 102.7848310
  79.7893510  11.9882970  95.8991970  80.5556780  11.8764330  96.4617400
  79.8668200  11.2920940  95.2468740  78.4840270   9.4208040  96.5824860
  78.5643860   8.4735550  96.6942260  79.3760020   9.7514920  96.6885520
  91.8137450  17.4772220 104.0142270  91.9384870  18.3003390 104.4866080
  92.6803010  17.2662950 103.6666420  76.1700460  15.6377000  99.5600910
  75.2440240  15.8798140  99.5506320  76.6356890  16.4651260  99.4385660
  78.2913260  18.7549500 112.8744980  79.0925990  19.0761550 113.2880380
  77.7765080  18.3945080 113.5964890  82.3957290  18.7433740  95.5084970
  83.1885900  19.0322570  95.0566760  81.8761640  18.3125910  94.8297450
  87.1277890  14.8629370 112.8220390  86.5216050  14.8860970 112.0816140
  86.8232000  14.1312410 113.3587640  88.5578260  18.5909660 111.4329800
  89.5100010  18.5067680 111.3830040  88.4106480  19.2551370 112.1063590
  91.4487460  17.9703870  96.9321710  91.1628970  17.5569010  96.1175890
  91.2507010  18.8991580  96.8122230  76.0111070  11.2422960 111.8181030
  76.5150090  10.6630240 112.3897260  75.2718490  11.5263190 112.3557400
  82.9134690  13.9637150  95.3727320  82.8085330  13.3489500  96.0988700
  82.7458910  13.4403040  94.5890330  83.0649010  12.6493950 111.3516550
  82.2994680  13.2178950 111.2671220  83.2464970  12.3570160 110.4584780
  86.1537420  13.0257180  95.9769310  85.6047520  13.4726480  96.6212050
  86.7756680  12.5206430  96.5006980  90.2072360  14.3799280 111.9091570
  90.9481830  14.7175040 111.4059030  89.4445040  14.5491340 111.3561340
  78.0434150   9.3852550 112.7131100  78.0839490   9.0866420 113.6216330
  78.8979650   9.7860160 112.5538620  81.8212540  11.9848100  97.8734610
  82.2428960  11.8187970  98.7166000  81.9463380  11.1748330  97.3789750
  79.9839960   7.9644650 110.6805590  79.4536420   7.4735600 110.0528930
  80.6528030   8.3928850 110.1463520  84.3340180  11.0085710  95.1211710
  84.8545840  10.2934730  94.7552860  84.9808580  11.6471580  95.4212220
  88.8818020  12.4314110 110.4446780  89.2959040  12.5859190 111.2937200
  87.9469020  12.5569330 110.6072560  89.3540190   9.7710270 112.4485930
  89.9360960   9.0162590 112.3606410  89.5301960  10.3017710 111.6717410
  80.4712260   4.9307020 110.7602880  80.3769130   4.3127770 110.0353750
  79.8909650   5.6573310 110.5332790  83.2373700   3.4880260 107.7930270
  82.7891000   3.5104520 106.9475820  82.6038900   3.0899280 108.3900570
  83.6433250  12.3834590 108.4142710  84.0621360  13.2267320 108.2418950
  82.7241880  12.5206630 108.1849490  85.9797150  10.1150770 109.7980550
  86.0993360   9.5191910 110.5375390  86.8391150  10.1520460 109.3781850
  88.3185050  10.6687960 108.3743060  87.7920270  11.1930580 107.7708200
  88.6616390  11.3015350 109.0052790  80.7171440   8.0581330  94.8192770
  80.5160500   7.1948690  95.1806110  80.5463490   7.9714690  93.8814370
  81.4940670  18.6887600 109.5300440  80.9561760  19.4133660 109.2109140
  81.7474630  18.2117940 108.7397780  82.7465920   6.6572120 111.0556370
  83.3365610   6.3487970 111.7434190  81.9286160   6.1851870 111.2116270
  87.5659350   6.2737930 111.2889390  86.8774870   5.6119470 111.2239380
  88.2865370   5.8276200 111.7337850  88.1959750   2.8689560  97.3479650
  88.4762040   2.0257460  97.7039070  87.4225480   3.1012670  97.8618400
  79.5154240   5.1581950  94.8070650  79.8180140   5.1649380  93.8989800
  80.2548830   4.8079810  95.3038310  84.3502880  19.9238810 109.7887090
  84.2761580  20.8273950 110.0959460  83.4481720  19.6050710 109.7609160
  82.7339170   4.1016570  95.7926850  82.3861170   3.4240560  95.2129300
  82.9351940   3.6406080  96.6070240  84.8988210  19.0897320  97.4113450
  85.7939000  19.4282290  97.4332210  84.9305840  18.3676730  96.7837730
  78.5384370  14.4624370  95.6400450  78.9759240  15.0054040  96.2958030
  79.0232100  13.6371320  95.6496790  75.7530170  17.2513400 103.0920710
  76.0833180  16.3834460 102.8599350  76.1821170  17.4571920 103.9225670
  80.3492090  15.5822410 100.7522680  80.0487630  15.4587380 101.6526590
  80.2429580  14.7231000 100.3438410  76.2420380  18.1183990 105.8302340
  75.8051370  18.2984790 106.6626490  76.8098060  18.8758610 105.6884060
  91.8782560  17.6200990 110.1179650  91.2784550  17.6793550 109.3743570
  92.0076460  16.6805970 110.2476500  93.1184010  15.3618810  95.4549360
  92.2876970  15.4295460  95.9256590  93.2955840  16.2522930  95.1516220
  92.5740470  12.1066290  97.9583560  93.3359380  12.6762940  98.0643250
  92.5894840  11.5393490  98.7291870  76.0744810  10.6304220 102.1891220
  75.4193650  10.3615860 101.5450920  76.9122760  10.5208700 101.7393200
  93.5800440  12.9616390 102.8025490  93.9509270  12.1783710 102.3961460
  94.2202370  13.6505490 102.6242790  90.5634200  14.3452970 108.2155810
  89.7494040  14.7750130 108.4781600  90.9708400  14.9571380 107.6024860
  92.6259640  12.4000660  95.1156080  92.9008480  13.3079540  94.9875300
  92.4370380  12.3363190  96.0518070  89.0235250   5.4245510  96.4109710
  89.4420130   5.2376490  95.5706370  88.7171310   4.5724560  96.7212640
  92.5224980  10.3369650 100.1085510  92.1468580   9.5697580  99.6766800
  91.7928100  10.7192350 100.5960440  77.1120740  11.0156790 106.7294560
  77.4793780  10.9284190 107.6090580  76.5431560  10.2523340 106.6301420
  91.9124600   9.4841170 109.7425030  91.6810690   9.2553920 108.8422980
  92.1729150  10.4040720 109.6969920  76.6636740   7.9265880 110.6352980
  75.7692790   7.8932640 110.9746690  77.2034290   8.1252670 111.4004230
  90.3512670   4.7097600 112.5204730  91.2282850   4.7181000 112.9038730
  90.3633510   3.9728440 111.9097080  75.2882890   7.8403150  98.1316550
  74.3846970   8.1033350  97.9568210  75.7723510   8.1114320  97.3516510
  91.7975940   8.5627140 103.4092750  92.3213420   8.0689790 102.7782920
  92.3835360   8.6977500 104.1540320  91.9765660   8.6467010 106.9312300
  91.0268370   8.6130550 107.0457290  92.1578670   9.5567120 106.6962070
  77.8310100   6.8968690  96.0410930  78.5401800   6.4751910  95.5558210
  77.1150040   6.9643920  95.4094280  77.4784260   2.9508020  95.0813580
  78.2012390   3.4916960  95.3994800  77.7508780   2.6771440  94.2055120
  91.2875910   7.8200490  99.3485160  91.7835030   7.5871360 100.1334040
  91.0891980   6.9812330  98.9322800  77.1676450   2.2014210 104.9836200
  77.8152640   1.6511590 104.5431360  77.5878290   2.4557360 105.8052010
  92.7163070   6.4561440 101.8822840  92.6062350   6.3017480 102.8205110
  93.4770660   5.9282380 101.6398250  91.0628790   2.3955570 108.3405840
  91.7001010   3.0089710 108.7065030  91.2103680   2.4316230 107.3955070
  93.6053340   4.2869360  95.1228980  94.5302650   4.1550540  94.9147270
  93.5829130   4.3662180  96.0765430  93.6791830   5.0580020  97.7485690
  92.8843330   4.9925140  98.2778600  93.8835110   5.9930660  97.7371040
  90.6210250  19.0971570 101.7424080  91.2169320  18.7756140 101.0658500
  90.8788400  18.6243390 102.5337350  76.9208450   2.3569880 107.7261520
  76.5723270   2.8133700 108.4919700  76.5896150   1.4627010 107.8083950
  78.5272820  15.5289480 111.8914710  78.4842450  15.1582390 112.7729170
  78.6583830  16.4667050 112.0316530  82.2278850  17.0849070 107.4924430
  81.9870210  17.3523630 106.6054950  83.1681490  17.2554800 107.5475290
  84.4333270   3.5481760 111.2480940  84.3722160   4.1403590 111.9976350
  85.3733650   3.4407720 111.1031200  87.0707830   3.2051820 110.8873230
  87.6848240   3.5231110 110.2254310  87.6157390   2.7200410 111.5069090
  93.4883010  19.1043450 108.2935070  92.9941290  19.5012320 107.5762200
  92.8796300  18.4792660 108.6872350  78.3660850  18.4751730 109.0112490
  77.7721170  18.3436430 109.7502530  78.3584690  17.6389870 108.5454590
  88.7187850   3.9754830 108.5984240  88.3901210   3.1606590 108.2185970
  89.6670150   3.9324640 108.4749930  91.1722460  19.7466870 105.5721810
  90.7125430  20.4982680 105.1979830  90.5434920  19.0273340 105.5136610
  77.9973080  15.8410110 107.9620530  77.2707140  15.2215400 107.8946480
  78.0582230  16.2350720 107.0918610  81.6018180  18.0555110 104.7469940
  82.1183200  17.4442470 104.2218200  82.2515560  18.5583890 105.2380950
  84.3413680  18.9463600 105.5738920  84.6291490  18.6917900 104.6971930
  84.8536900  18.3940960 106.1644490  85.5590690   2.6853800 106.1535430
  84.7762480   3.1599300 106.4332190  85.2653620   1.7808630 106.0448610
  90.1111760   3.3876900 104.1984520  90.5519850   3.3322000 103.3506120
  89.8419350   4.3034910 104.2694700  91.9750330   3.0192140 102.2093340
  91.9138730   2.0753360 102.0624360  92.7542360   3.1272230 102.7546800
  76.9031100   2.9901280  98.6749150  77.6610460   3.1030160  98.1013180
  76.4408270   3.8270480  98.6292580  83.4444910   5.1040550 101.6651460
  82.6319420   4.7297440 101.3247340  83.9486550   4.3485630 101.9672650
  87.9469890   1.7683000 102.9034530  88.5499260   2.3403210 103.3783050
  87.2062880   2.3322440 102.6808430  91.0904490   2.1704560  98.1774810
  91.2855120   3.0688010  98.4442240  90.3034360   1.9391640  98.6707760
  79.2756250   3.5165330  97.2151120  79.8049010   2.7295130  97.0859070
  79.9084570   4.1956520  97.4486650  81.4694090   3.2540470 100.2696510
  80.8396830   2.5527780 100.4366640  80.9299230   4.0144600 100.0529670
  84.4086040  19.8679700 112.9407120  85.3353350  19.6323970 112.9843080
  84.3936470  20.6951700 112.4593150  92.6431100  19.4105270  99.9381370
  92.8183290  18.7243010  99.2942290  91.9452670  19.9352320  99.5458040
  81.5949650   2.5324450 112.7049000  81.3133920   3.0358050 111.9409820
  81.9769350   1.7346200 112.3391130  79.6473540  15.9164840  97.4963010
  79.0182420  16.3849940  98.0448840  79.7621370  15.0714060  97.9309200
  88.1965110   1.9478030 113.2829470  88.0830560   2.2672640 114.1780990
  89.0134850   2.3490540 112.9866750  90.9763600  19.0949560 112.7648160
  91.7688920  18.5998790 112.5574120  91.2696750  19.7739700 113.3723770
  87.1023260   9.9670500  83.6464210  87.0217310   9.0525110  83.3755920
  86.6887680  10.4637570  82.9403920  85.2341300  11.7449520  85.5273480
  84.4583400  11.2649960  85.8172050  85.8854230  11.0655170  85.3529640
  79.2507130  12.0569330  86.4049240  78.4192010  11.8018040  86.8045750
  79.8588110  12.1280100  87.1407160  79.2308390  16.0909420  86.6007260
  79.5336430  15.2007160  86.4217480  79.9751980  16.6479640  86.3729510
  77.6599080   7.0171220  80.1891630  76.7715780   7.3587190  80.0871510
  77.9440270   6.8171540  79.2972460  75.6232090   9.6176870  86.0731330
  76.1948200   8.8499070  86.0734970  75.6233630   9.9165630  85.1637940
  85.4812040  18.4367720  83.9276600  84.8623480  18.8925220  83.3571040
  86.3363820  18.5919180  83.5266300  84.6750290  14.4206710  85.5343640
  84.6058570  13.4796650  85.3732770  85.4370150  14.5108120  86.1066210
  76.8656960   5.0261230  87.8600260  76.6859800   4.1286980  88.1403020
  76.4637040   5.5733100  88.5347210  85.7055460   7.2277090  85.7612570
  86.0820280   6.3548970  85.6486240  85.6074970   7.5635790  84.8703010
  79.8360470   5.6002720  81.2230010  79.9427220   6.5006450  81.5298770
  78.9252830   5.5520690  80.9324660  89.4879580   4.7227530  82.6940910
  90.3089200   4.2324100  82.7366390  89.5213660   5.3125190  83.4472750
  77.4843630   7.5221730  86.4682600  78.1653740   7.7860100  87.0870000
  77.1691680   6.6822600  86.8020610  81.6768200   8.5689090  85.5555190
  82.1846420   9.0670060  86.1960210  82.2081440   7.7924290  85.3794550
  93.7779130   6.7394280  89.2584540  93.0731300   7.1275990  88.7399650
  94.0437050   7.4344570  89.8605470  79.9604300   3.2087650  89.8218610
  79.9622740   3.7260040  89.0164510  79.1308610   2.7317830  89.7988540
  86.3475390  13.3206960  81.3208510  85.7292660  13.7856410  80.7571230
  86.8598640  14.0134440  81.7378020  81.2107150  12.8482830  87.9992110
  80.8776530  13.4751750  88.6413180  81.3873830  13.3744710  87.2193780
  89.7241060   6.6627910  85.4668450  89.0196630   6.9512800  86.0471560
  90.0853220   7.4728020  85.1068010  79.6419630   4.9197610  87.8289060
  79.9836440   5.7639660  87.5342930  78.7035440   5.0681350  87.9454400
  92.7927980   6.1082700  85.8577660  91.8452890   6.1421680  85.9893090
  93.1177970   6.9221650  86.2427020  83.3247520   2.4079880  84.1533650
  83.6322500   1.8526770  83.4369150  82.3948220   2.5424340  83.9706640
  88.8762580  18.1247170  86.4441110  88.8889740  17.7209460  85.5763370
  88.3237800  18.8994460  86.3402540  90.1708000  14.8463390  81.5331280
  90.0604330  13.9037720  81.6580700  90.1676250  15.2079030  82.4194040
  88.2748020  13.0277010  87.7723720  88.6916810  12.8137120  86.9377180
  88.9987840  13.2849800  88.3432340  85.7128280  10.4728710  80.8893770
  84.7857560  10.4066090  81.1182240  85.8653100  11.4108840  80.7749010
  85.6997360   6.7445710  77.8860930  84.7601030   6.9059670  77.9713390
  86.0180620   7.4631390  77.3396920  92.2210120  11.4264230  87.8639960
  91.3928750  11.4957320  87.3890090  92.8160600  12.0118540  87.3955790
  89.7425570  12.0349010  81.3929020  89.1237990  11.6968560  80.7455320
  89.7250020  11.3908770  82.1008210  89.1852130   8.2133550  88.8094830
  88.7723310   9.0387260  89.0634820  88.4528080   7.6278590  88.6171190
  81.3184920  10.9993450  83.6713500  80.9141920  10.2870700  83.1759400
  81.4048040  10.6546690  84.5601540  81.7866620  14.6861010  85.8352710
  81.4894910  14.0806480  85.1560490  82.7366440  14.7238320  85.7242070
  80.0313540   7.7736660  87.4512540  80.5828130   7.8832000  86.6765790
  80.5457050   8.1474260  88.1667770  89.8752230  18.2592880  89.4975810
  89.3982790  19.0665070  89.3048420  89.1914020  17.6071210  89.6502020
  87.9190270  11.2735820  78.4001770  88.3583550  10.4358250  78.2539590
  88.6318690  11.9065220  78.4865910  79.7056270  11.2956020  91.0617880
  79.5664040  12.1678820  91.4305280  78.8237630  10.9528830  90.9165820
  91.5007410   2.5278630  76.7142810  91.1880070   2.6205460  77.6141880
  92.2619880   3.1059660  76.6640240  78.0189550   9.8938430  81.1720150
  77.8987150  10.6200520  80.5601420  77.7090440   9.1241340  80.6948060
  93.4551440  18.0204820  94.5667200  93.9311160  18.4987710  95.2456280
  94.0758600  17.9522310  93.8412700  75.6574920  13.0653570  86.9788790
  75.7355340  13.2002340  86.0344510  76.2716600  12.3569460  87.1716910
  76.9022550  14.7653760  83.3894970  76.4950630  14.9068350  82.5348570
  77.7935560  14.4813920  83.1866180  92.8584690  15.2117670  91.7267210
  92.9847750  14.9729550  90.8084390  92.9006070  14.3802210  92.1989290
  86.7201430  18.9145670  90.2962020  87.2346100  18.8253680  91.0984450
  85.8770510  19.2605370  90.5889930  81.1744210  18.9799540  81.5017640
  80.9986690  18.0635080  81.2885440  80.3199950  19.3386830  81.7415440
  92.7108700   7.2650130  92.6916950  92.0952970   7.7729800  92.1632410
  92.3905120   6.3648460  92.6342890  80.4853210   3.2373500  84.5543820
  80.0421360   4.0183040  84.2228340  81.0438200   3.5603390  85.2614760
  84.7723020   6.1042020  90.1579140  84.3102390   6.3125040  90.9699080
  84.3701130   5.2901370  89.8549810  89.7727530   7.3250970  91.2875800
  88.9221120   7.0256720  91.6084870  89.6129320   7.5692980  90.3759620
  86.8677240   8.8252720  93.3874590  87.1930650   7.9916470  93.0476820
  87.6557570   9.3481240  93.5352920  83.6012030   2.8584200  79.4349650
  82.9766210   2.8544070  80.1602960  83.5142150   1.9915160  79.0385620
  82.5229110   3.7820830  86.4133420  82.8201440   4.6883660  86.3325440
  83.0714670   3.2939610  85.7992990  80.2767430   8.3607070  82.2825070
  80.0508350   8.1444240  83.1871690  79.4959960   8.7935530  81.9371040
  87.5065190   8.3670440  80.8815720  86.9074080   9.0906240  80.6979340
  88.0544800   8.3047220  80.0992170  82.7166640   9.2592650  92.9485340
  82.6210240   8.3187380  92.7985740  83.5598620   9.4807720  92.5533410
  86.1130060   7.0033980  82.9119000  86.5059630   7.3206180  82.0987690
  86.4746910   6.1245860  83.0263520  77.8477180   5.6706320  91.1019120
  77.4540570   6.5181530  91.3091900  77.1595580   5.0332690  91.2927760
  84.4222230   5.7541290  94.1715860  83.7320550   5.5613490  94.8061950
  85.1654530   6.0375930  94.7040160  75.1494230   3.5934780  85.1349200
  74.8607280   4.1637640  85.8474180  75.8939990   3.1139230  85.4980430
  75.3364460   7.5354900  76.3451920  75.2539130   8.4785660  76.4866910
  74.9847520   7.3929810  75.4664270  86.6985200   9.5939730  87.0069780
  85.9666320  10.1026540  87.3559880  86.3009540   8.7769710  86.7058560
  83.1362590   6.2693930  85.4122270  83.1398650   5.8283880  84.5626810
  84.0313710   6.5911260  85.5194090  78.9864970   6.1520420  84.3716480
  78.6465020   6.6295650  85.1283530  78.2242290   5.6985540  84.0117580
  83.1982740   7.2706010  78.4029030  83.3195560   7.2292490  79.3514850
  82.8131250   8.1330160  78.2475760  87.1611110   5.0473410  86.4192720
  87.1783850   5.4982060  87.2634570  86.9126690   4.1479050  86.6326160
  82.2104240   9.5807150  77.8012330  81.6421140   9.1325400  77.1748240
  82.9193240   9.9399930  77.2677480  90.5881860   2.4605590  92.2579100
  90.9127630   1.7295250  92.7837080  90.6238370   2.1419230  91.3560090
  83.4370560  10.3295710  87.1587680  83.8040690   9.8554280  87.9049020
  83.2475620  11.2037280  87.4996020  76.3011050   5.0739400  83.2881150
  76.0157970   4.7095070  84.1259770  76.2389910   4.3419860  82.6744290
  81.2269930   9.3704350  89.4771890  80.9227000  10.2496330  89.7022250
  82.1816390   9.4304140  89.5129330  79.7551720  13.5765340  80.0738740
  78.9813980  13.0362960  79.9137460  80.4846350  13.0571950  79.7356500
  90.5139700  12.5730700  85.8665130  91.2338820  13.0685990  85.4761240
  90.3121520  11.8948590  85.2219000  85.9749640   3.9668660  80.0094520
  85.1614250   3.4681830  79.9339830  85.7811590   4.8066910  79.5930870
  85.8958500  12.6439760  91.7534130  85.8295810  11.7235430  91.4991720
  85.2663640  12.7415200  92.4678770  88.6898030   8.3388310  78.3056680
  89.5777650   8.6505540  78.1308020  88.6603120   7.4660560  77.9137260
  79.7989120  13.2445720  83.7117550  80.3167790  12.4413980  83.6574440
  79.3473140  13.1824860  84.5534380  84.6858620  14.5112000  78.9844850
  85.0274320  15.2554230  78.4888170  83.8571330  14.8243120  79.3469680
  77.2833660  10.2107090  90.6243250  76.9248600  10.8760940  91.2116590
  76.9888220   9.3790640  90.9955870  80.4846780  10.6691330  93.5082800
  80.1846920  10.8148510  92.6110620  81.2558020  10.1096620  93.4156190
  85.8275230  15.4660330  91.5037930  85.8419770  14.5341290  91.2856840
  85.1200330  15.5520090  92.1427700  90.9612300   9.6500150  77.7736540
  90.8776020  10.0814370  76.9232980  91.6806490  10.1098500  78.2063360
  92.0386440  12.1067670  90.8506510  91.3134630  12.6996450  90.6535900
  92.5661900  12.0991210  90.0519880  87.5686030  13.8327840  84.3490360
  87.9209850  13.2355970  83.6891730  86.6848360  13.5072070  84.5198610
  83.6549310  14.5925530  81.7560770  84.3420440  15.1394740  82.1368360
  82.8681730  15.1366260  81.7910380  75.7941710  10.2098350  77.2477850
  76.6636560  10.4923150  77.5313770  75.3032030  11.0234220  77.1326660
  82.9576520  11.5971560  81.3686130  83.4139300  12.4076810  81.5946320
  82.6064730  11.2794700  82.2004620  85.2609130  17.1077900  88.5978430
  85.9051350  17.3137280  89.2751850  85.6238570  16.3466300  88.1449280
  78.8588300   1.9409210  81.8408650  78.7302930   1.9327110  82.7893570
  78.0350320   2.2792300  81.4899660  86.5341210  15.1110250  87.3155880
  87.1763440  14.4103410  87.4288050  87.0590560  15.8908690  87.1352770
  88.3078830  15.9105150  90.5191940  88.6435070  16.4971840  91.1969860
  87.3879170  15.7797860  90.7489730  76.1612960  19.4225730  77.8139480
  76.5210600  20.0215070  77.1596750  76.0205300  19.9685620  78.5874510
  75.8582230   3.7000330  91.3015350  75.1440750   3.8997250  91.9067960
  76.2777270   2.9239900  91.6730150  84.1367410  15.9596480  93.6880000
  83.8164280  15.2405720  94.2325690  83.4625770  16.6351550  93.7616060
  82.1781580  16.8056930  78.6313150  82.1691680  17.5386620  78.0157660
  81.2579940  16.5588510  78.7240110  77.7788220  12.0271820  79.3759910
  77.1716170  12.7670720  79.3855210  78.2537570  12.1171180  78.5498110
  87.3521010   6.1922640  89.0516800  87.7201830   5.3717850  89.3796370
  86.4919210   6.2524530  89.4672450  90.7183040   5.1479580  79.8604360
  90.0896200   5.2525250  79.1462590  90.2234960   5.3676360  80.6498240
  85.1641180  16.8685170  77.2938340  85.2653160  16.6649160  76.3640320
  84.2642920  16.6143450  77.4986120  82.6867070   7.4265530  81.2762240
  81.9783220   7.8951870  81.7175850  82.9711550   6.7687540  81.9107430
  84.3123000   8.8462230  89.2754770  84.8108250   9.3208050  89.9406620
  84.4545950   7.9225750  89.4824800  86.7182500   4.1516190  82.7158030
  86.5950280   4.1702320  81.7667540  87.6667060   4.1995130  82.8356430
  83.8059290  19.3871490  81.9886010  84.0600790  19.3492880  81.0665380
  82.8571770  19.2604820  81.9814260  80.8902090   5.7350610  78.6512950
  81.7392620   6.1720760  78.5853140  80.5233360   6.0470870  79.4785010
  91.5189860   5.0630190  90.1183160  91.0163460   5.8035590  90.4576970
  92.3346520   5.4514190  89.8019950  89.8111870  10.3063370  83.5644520
  88.8702010  10.3213600  83.7392210  90.1255940   9.5199330  84.0104820
  79.7893510  11.9882970  77.1248480  80.5556780  11.8764330  77.6873910
  79.8668200  11.2920940  76.4725250  78.4840270   9.4208040  77.8081370
  78.5643860   8.4735550  77.9198770  79.3760020   9.7514920  77.9142030
  79.2854980  19.5703430  84.9115910  80.0217460  19.0218890  85.1824480
  79.6695900  20.4359440  84.7721900  76.1700460  15.6377000  80.7857420
  75.2440240  15.8798140  80.7762830  76.6356890  16.4651260  80.6642170
  82.3957290  18.7433740  76.7341480  83.1885900  19.0322570  76.2823270
  81.8761640  18.3125910  76.0553960  87.1277890  14.8629370  94.0476900
  86.5216050  14.8860970  93.3072650  86.8232000  14.1312410  94.5844150
  76.0111070  11.2422960  93.0437540  76.5150090  10.6630240  93.6153770
  75.2718490  11.5263190  93.5813910  82.9134690  13.9637150  76.5983830
  82.8085330  13.3489500  77.3245210  82.7458910  13.4403040  75.8146840
  83.0649010  12.6493950  92.5773060  82.2994680  13.2178950  92.4927730
  83.2464970  12.3570160  91.6841290  86.1537420  13.0257180  77.2025820
  85.6047520  13.4726480  77.8468560  86.7756680  12.5206430  77.7263490
  90.2072360  14.3799280  93.1348080  90.9481830  14.7175040  92.6315540
  89.4445040  14.5491340  92.5817850  78.0434150   9.3852550  93.9387610
  78.0839490   9.0866420  94.8472840  78.8979650   9.7860160  93.7795130
  81.8212540  11.9848100  79.0991120  82.2428960  11.8187970  79.9422510
  81.9463380  11.1748330  78.6046260  79.9839960   7.9644650  91.9062100
  79.4536420   7.4735600  91.2785440  80.6528030   8.3928850  91.3720030
  84.3340180  11.0085710  76.3468220  84.8545840  10.2934730  75.9809370
  84.9808580  11.6471580  76.6468730  88.8818020  12.4314110  91.6703290
  89.2959040  12.5859190  92.5193710  87.9469020  12.5569330  91.8329070
  89.3540190   9.7710270  93.6742440  89.9360960   9.0162590  93.5862920
  89.5301960  10.3017710  92.8973920  80.4712260   4.9307020  91.9859390
  80.3769130   4.3127770  91.2610260  79.8909650   5.6573310  91.7589300
  83.2373700   3.4880260  89.0186780  82.7891000   3.5104520  88.1732330
  82.6038900   3.0899280  89.6157080  83.6433250  12.3834590  89.6399220
  84.0621360  13.2267320  89.4675460  82.7241880  12.5206630  89.4106000
  85.9797150  10.1150770  91.0237060  86.0993360   9.5191910  91.7631900
  86.8391150  10.1520460  90.6038360  88.3185050  10.6687960  89.5999570
  87.7920270  11.1930580  88.9964710  88.6616390  11.3015350  90.2309300
  80.7171440   8.0581330  76.0449280  80.5160500   7.1948690  76.4062620
  80.5463490   7.9714690  75.1070880  82.7465920   6.6572120  92.2812880
  83.3365610   6.3487970  92.9690700  81.9286160   6.1851870  92.4372780
  87.5659350   6.2737930  92.5145900  86.8774870   5.6119470  92.4495890
  88.2865370   5.8276200  92.9594360  88.1959750   2.8689560  78.5736160
  88.4762040   2.0257460  78.9295580  87.4225480   3.1012670  79.0874910
  79.5154240   5.1581950  76.0327160  79.8180140   5.1649380  75.1246310
  80.2548830   4.8079810  76.5294820  82.7339170   4.1016570  77.0183360
  82.3861170   3.4240560  76.4385810  82.9351940   3.6406080  77.8326750
  78.5384370  14.4624370  76.8656960  78.9759240  15.0054040  77.5214540
  79.0232100  13.6371320  76.8753300  75.7530170  17.2513400  84.3177220
  76.0833180  16.3834460  84.0855860  76.1821170  17.4571920  85.1482180
  80.3492090  15.5822410  81.9779190  80.0487630  15.4587380  82.8783100
  80.2429580  14.7231000  81.5694920  76.2420380  18.1183990  87.0558850
  75.8051370  18.2984790  87.8883000  76.8098060  18.8758610  86.9140570
  91.8782560  17.6200990  91.3436160  91.2784550  17.6793550  90.6000080
  92.0076460  16.6805970  91.4733010  92.5740470  12.1066290  79.1840070
  93.3359380  12.6762940  79.2899760  92.5894840  11.5393490  79.9548380
  76.0744810  10.6304220  83.4147730  75.4193650  10.3615860  82.7707430
  76.9122760  10.5208700  82.9649710  90.5634200  14.3452970  89.4412320
  89.7494040  14.7750130  89.7038110  90.9708400  14.9571380  88.8281370
  89.0235250   5.4245510  77.6366220  89.4420130   5.2376490  76.7962880
  88.7171310   4.5724560  77.9469150  92.5224980  10.3369650  81.3342020
  92.1468580   9.5697580  80.9023310  91.7928100  10.7192350  81.8216950
  77.1120740  11.0156790  87.9551070  77.4793780  10.9284190  88.8347090
  76.5431560  10.2523340  87.8557930  91.9124600   9.4841170  90.9681540
  91.6810690   9.2553920  90.0679490  92.1729150  10.4040720  90.9226430
  76.6636740   7.9265880  91.8609490  75.7692790   7.8932640  92.2003200
  77.2034290   8.1252670  92.6260740  90.3512670   4.7097600  93.7461240
  91.2282850   4.7181000  94.1295240  90.3633510   3.9728440  93.1353590
  75.2882890   7.8403150  79.3573060  74.3846970   8.1033350  79.1824720
  75.7723510   8.1114320  78.5773020  91.7975940   8.5627140  84.6349260
  92.3213420   8.0689790  84.0039430  92.3835360   8.6977500  85.3796830
  91.9765660   8.6467010  88.1568810  91.0268370   8.6130550  88.2713800
  92.1578670   9.5567120  87.9218580  77.8310100   6.8968690  77.2667440
  78.5401800   6.4751910  76.7814720  77.1150040   6.9643920  76.6350790
  77.4784260   2.9508020  76.3070090  78.2012390   3.4916960  76.6251310
  77.7508780   2.6771440  75.4311630  91.2875910   7.8200490  80.5741670
  91.7835030   7.5871360  81.3590550  91.0891980   6.9812330  80.1579310
  77.1676450   2.2014210  86.2092710  77.8152640   1.6511590  85.7687870
  77.5878290   2.4557360  87.0308520  92.7163070   6.4561440  83.1079350
  92.6062350   6.3017480  84.0461620  93.4770660   5.9282380  82.8654760
  91.0628790   2.3955570  89.5662350  91.7001010   3.0089710  89.9321540
  91.2103680   2.4316230  88.6211580  93.6053340   4.2869360  76.3485490
  94.5302650   4.1550540  76.1403780  93.5829130   4.3662180  77.3021940
  93.6791830   5.0580020  78.9742200  92.8843330   4.9925140  79.5035110
  93.8835110   5.9930660  78.9627550  76.9208450   2.3569880  88.9518030
  76.5723270   2.8133700  89.7176210  76.5896150   1.4627010  89.0340460
  84.4333270   3.5481760  92.4737450  84.3722160   4.1403590  93.2232860
  85.3733650   3.4407720  92.3287710  87.0707830   3.2051820  92.1129740
  87.6848240   3.5231110  91.4510820  87.6157390   2.7200410  92.7325600
  93.4883010  19.1043450  89.5191580  92.9941290  19.5012320  88.8018710
  92.8796300  18.4792660  89.9128860  88.7187850   3.9754830  89.8240750
  88.3901210   3.1606590  89.4442480  89.6670150   3.9324640  89.7006440
  91.1722460  19.7466870  86.7978320  90.7125430  20.4982680  86.4236340
  90.5434920  19.0273340  86.7393120  84.3413680  18.9463600  86.7995430
  84.6291490  18.6917900  85.9228440  84.8536900  18.3940960  87.3901000
  85.5590690   2.6853800  87.3791940  84.7762480   3.1599300  87.6588700
  85.2653620   1.7808630  87.2705120  90.1111760   3.3876900  85.4241030
  90.5519850   3.3322000  84.5762630  89.8419350   4.3034910  85.4951210
  91.9750330   3.0192140  83.4349850  91.9138730   2.0753360  83.2880870
  92.7542360   3.1272230  83.9803310  76.2803080  19.1584500  82.3973800
  76.1125120  18.5255180  83.0955690  75.4137590  19.3643900  82.0467990
  76.9031100   2.9901280  79.9005660  77.6610460   3.1030160  79.3269690
  76.4408270   3.8270480  79.8549090  83.4444910   5.1040550  82.8907970
  82.6319420   4.7297440  82.5503850  83.9486550   4.3485630  83.1929160
  87.9469890   1.7683000  84.1291040  88.5499260   2.3403210  84.6039560
  87.2062880   2.3322440  83.9064940  91.0904490   2.1704560  79.4031320
  91.2855120   3.0688010  79.6698750  90.3034360   1.9391640  79.8964270
  77.8865780  17.8517730  79.8423940  77.3613400  18.2325760  79.1385900
  77.8110360  18.4768500  80.5633650  79.2756250   3.5165330  78.4407630
  79.8049010   2.7295130  78.3115580  79.9084570   4.1956520  78.6743160
  81.4694090   3.2540470  81.4953020  80.8396830   2.5527780  81.6623150
  80.9299230   4.0144600  81.2786180  84.4086040  19.8679700  94.1663630
  85.3353350  19.6323970  94.2099590  84.3936470  20.6951700  93.6849660
  81.5949650   2.5324450  93.9305510  81.3133920   3.0358050  93.1666330
  81.9769350   1.7346200  93.5647640  79.6473540  15.9164840  78.7219520
  79.0182420  16.3849940  79.2705350  79.7621370  15.0714060  79.1565710
  88.1965110   1.9478030  94.5085980  88.0830560   2.2672640  95.4037500
  89.0134850   2.3490540  94.2123260  87.1023260   9.9670500  64.8720720
  87.0217310   9.0525110  64.6012430  86.6887680  10.4637570  64.1660430
  85.2341300  11.7449520  66.7529990  84.4583400  11.2649960  67.0428560
  85.8854230  11.0655170  66.5786150  79.2507130  12.0569330  67.6305750
  78.4192010  11.8018040  68.0302260  79.8588110  12.1280100  68.3663670
  89.2548730  16.1509710  65.5329120  88.7930260  15.3796950  65.8616290
  90.0674280  16.1775780  66.0381570  79.2308390  16.0909420  67.8263770
  79.5336430  15.2007160  67.6473990  79.9751980  16.6479640  67.5986020
  77.6599080   7.0171220  61.4148140  76.7715780   7.3587190  61.3128020
  77.9440270   6.8171540  60.5228970  75.6232090   9.6176870  67.2987840
  76.1948200   8.8499070  67.2991480  75.6233630   9.9165630  66.3894450
  85.4812040  18.4367720  65.1533110  84.8623480  18.8925220  64.5827550
  86.3363820  18.5919180  64.7522810  84.6750290  14.4206710  66.7600150
  84.6058570  13.4796650  66.5989280  85.4370150  14.5108120  67.3322720
  76.8656960   5.0261230  69.0856770  76.6859800   4.1286980  69.3659530
  76.4637040   5.5733100  69.7603720  85.7055460   7.2277090  66.9869080
  86.0820280   6.3548970  66.8742750  85.6074970   7.5635790  66.0959520
  79.8360470   5.6002720  62.4486520  79.9427220   6.5006450  62.7555280
  78.9252830   5.5520690  62.1581170  89.4879580   4.7227530  63.9197420
  90.3089200   4.2324100  63.9622900  89.5213660   5.3125190  64.6729260
  77.4843630   7.5221730  67.6939110  78.1653740   7.7860100  68.3126510
  77.1691680   6.6822600  68.0277120  81.6768200   8.5689090  66.7811700
  82.1846420   9.0670060  67.4216720  82.2081440   7.7924290  66.6051060
  93.7779130   6.7394280  70.4841050  93.0731300   7.1275990  69.9656160
  94.0437050   7.4344570  71.0861980  79.9604300   3.2087650  71.0475120
  79.9622740   3.7260040  70.2421020  79.1308610   2.7317830  71.0245050
  86.3475390  13.3206960  62.5465020  85.7292660  13.7856410  61.9827740
  86.8598640  14.0134440  62.9634530  81.2107150  12.8482830  69.2248620
  80.8776530  13.4751750  69.8669690  81.3873830  13.3744710  68.4450290
  89.7241060   6.6627910  66.6924960  89.0196630   6.9512800  67.2728070
  90.0853220   7.4728020  66.3324520  79.6419630   4.9197610  69.0545570
  79.9836440   5.7639660  68.7599440  78.7035440   5.0681350  69.1710910
  80.4226250  14.8163630  71.0397800  81.0400250  15.4914710  70.7582250
  79.5619370  15.2251610  70.9485300  75.7158590  14.0063490  59.9204650
  75.3386570  14.4950590  59.1889550  75.9731660  14.6788770  60.5511180
  91.3403840  16.2803040  68.9552440  90.6567360  16.9502150  68.9469110
  91.8798130  16.4783690  68.1897300  92.7927980   6.1082700  67.0834170
  91.8452890   6.1421680  67.2149600  93.1177970   6.9221650  67.4683530
  83.3247520   2.4079880  65.3790160  83.6322500   1.8526770  64.6625660
  82.3948220   2.5424340  65.1963150  88.8762580  18.1247170  67.6697620
  88.8889740  17.7209460  66.8019880  88.3237800  18.8994460  67.5659050
  90.1708000  14.8463390  62.7587790  90.0604330  13.9037720  62.8837210
  90.1676250  15.2079030  63.6450550  88.2748020  13.0277010  68.9980230
  88.6916810  12.8137120  68.1633690  88.9987840  13.2849800  69.5688850
  85.7128280  10.4728710  62.1150280  84.7857560  10.4066090  62.3438750
  85.8653100  11.4108840  62.0005520  85.6997360   6.7445710  59.1117440
  84.7601030   6.9059670  59.1969900  86.0180620   7.4631390  58.5653430
  92.2210120  11.4264230  69.0896470  91.3928750  11.4957320  68.6146600
  92.8160600  12.0118540  68.6212300  89.7425570  12.0349010  62.6185530
  89.1237990  11.6968560  61.9711830  89.7250020  11.3908770  63.3264720
  89.1852130   8.2133550  70.0351340  88.7723310   9.0387260  70.2891330
  88.4528080   7.6278590  69.8427700  81.3184920  10.9993450  64.8970010
  80.9141920  10.2870700  64.4015910  81.4048040  10.6546690  65.7858050
  81.7866620  14.6861010  67.0609220  81.4894910  14.0806480  66.3817000
  82.7366440  14.7238320  66.9498580  80.0313540   7.7736660  68.6769050
  80.5828130   7.8832000  67.9022300  80.5457050   8.1474260  69.3924280
  89.8752230  18.2592880  70.7232320  89.3982790  19.0665070  70.5304930
  89.1914020  17.6071210  70.8758530  80.8785050  14.4242700  73.7117020
  79.9813580  14.6482670  73.9590420  80.9037920  14.5477640  72.7628420
  87.9190270  11.2735820  59.6258280  88.3583550  10.4358250  59.4796100
  88.6318690  11.9065220  59.7122420  79.7056270  11.2956020  72.2874390
  79.5664040  12.1678820  72.6561790  78.8237630  10.9528830  72.1422330
  86.0285650  16.2131890  63.5939520  86.4681560  16.9556220  63.1794910
  85.9672540  16.4558460  64.5178480  81.5036620  17.2377720  74.4959540
  81.4752050  17.6420670  73.6287970  81.3401590  16.3088080  74.3331140
  91.5007410   2.5278630  57.9399320  91.1880070   2.6205460  58.8398390
  92.2619880   3.1059660  57.8896750  78.0189550   9.8938430  62.3976660
  77.8987150  10.6200520  61.7857930  77.7090440   9.1241340  61.9204570
  75.6574920  13.0653570  68.2045300  75.7355340  13.2002340  67.2601020
  76.2716600  12.3569460  68.3973420  76.9022550  14.7653760  64.6151480
  76.4950630  14.9068350  63.7605080  77.7935560  14.4813920  64.4122690
  92.8584690  15.2117670  72.9523720  92.9847750  14.9729550  72.0340900
  92.9006070  14.3802210  73.4245800  86.7201430  18.9145670  71.5218530
  87.2346100  18.8253680  72.3240960  85.8770510  19.2605370  71.8146440
  88.3981960  16.7088570  59.5100530  87.7047120  16.7065860  58.8502810
  89.1404820  16.2847890  59.0794700  92.7108700   7.2650130  73.9173460
  92.0952970   7.7729800  73.3888920  92.3905120   6.3648460  73.8599400
  75.7134440  14.1067740  70.7439760  75.8765480  13.6373100  69.9259130
  76.1786890  13.5991300  71.4088600  80.4853210   3.2373500  65.7800330
  80.0421360   4.0183040  65.4484850  81.0438200   3.5603390  66.4871270
  84.7723020   6.1042020  71.3835650  84.3102390   6.3125040  72.1955590
  84.3701130   5.2901370  71.0806320  89.7727530   7.3250970  72.5132310
  88.9221120   7.0256720  72.8341380  89.6129320   7.5692980  71.6016130
  86.8677240   8.8252720  74.6131100  87.1930650   7.9916470  74.2733330
  87.6557570   9.3481240  74.7609430  83.6012030   2.8584200  60.6606160
  82.9766210   2.8544070  61.3859470  83.5142150   1.9915160  60.2642130
  82.5229110   3.7820830  67.6389930  82.8201440   4.6883660  67.5581950
  83.0714670   3.2939610  67.0249500  80.2767430   8.3607070  63.5081580
  80.0508350   8.1444240  64.4128200  79.4959960   8.7935530  63.1627550
  87.5065190   8.3670440  62.1072230  86.9074080   9.0906240  61.9235850
  88.0544800   8.3047220  61.3248680  82.7166640   9.2592650  74.1741850
  82.6210240   8.3187380  74.0242250  83.5598620   9.4807720  73.7789920
  86.1130060   7.0033980  64.1375510  86.5059630   7.3206180  63.3244200
  86.4746910   6.1245860  64.2520030  77.8477180   5.6706320  72.3275630
  77.4540570   6.5181530  72.5348410  77.1595580   5.0332690  72.5184270
  84.4222230   5.7541290  75.3972370  83.7320550   5.5613490  76.0318460
  85.1654530   6.0375930  75.9296670  75.1494230   3.5934780  66.3605710
  74.8607280   4.1637640  67.0730690  75.8939990   3.1139230  66.7236940
  75.3364460   7.5354900  57.5708430  75.2539130   8.4785660  57.7123420
  74.9847520   7.3929810  56.6920780  86.6985200   9.5939730  68.2326290
  85.9666320  10.1026540  68.5816390  86.3009540   8.7769710  67.9315070
  83.1362590   6.2693930  66.6378780  83.1398650   5.8283880  65.7883320
  84.0313710   6.5911260  66.7450600  78.9864970   6.1520420  65.5972990
  78.6465020   6.6295650  66.3540040  78.2242290   5.6985540  65.2374090
  83.1982740   7.2706010  59.6285540  83.3195560   7.2292490  60.5771360
  82.8131250   8.1330160  59.4732270  87.1611110   5.0473410  67.6449230
  87.1783850   5.4982060  68.4891080  86.9126690   4.1479050  67.8582670
  82.2104240   9.5807150  59.0268840  81.6421140   9.1325400  58.4004750
  82.9193240   9.9399930  58.4933990  90.5881860   2.4605590  73.4835610
  90.9127630   1.7295250  74.0093590  90.6238370   2.1419230  72.5816600
  77.2873420  13.4819170  72.9035570  76.9028210  12.8412840  73.5018530
  77.5985610  14.1855290  73.4730300  83.4370560  10.3295710  68.3844190
  83.8040690   9.8554280  69.1305530  83.2475620  11.2037280  68.7252530
  76.3011050   5.0739400  64.5137660  76.0157970   4.7095070  65.3516280
  76.2389910   4.3419860  63.9000800  81.2269930   9.3704350  70.7028400
  80.9227000  10.2496330  70.9278760  82.1816390   9.4304140  70.7385840
  79.7551720  13.5765340  61.2995250  78.9813980  13.0362960  61.1393970
  80.4846350  13.0571950  60.9613010  90.5139700  12.5730700  67.0921640
  91.2338820  13.0685990  66.7017750  90.3121520  11.8948590  66.4475510
  85.9749640   3.9668660  61.2351030  85.1614250   3.4681830  61.1596340
  85.7811590   4.8066910  60.8187380  85.8958500  12.6439760  72.9790640
  85.8295810  11.7235430  72.7248230  85.2663640  12.7415200  73.6935280
  88.6898030   8.3388310  59.5313190  89.5777650   8.6505540  59.3564530
  88.6603120   7.4660560  59.1393770  79.7989120  13.2445720  64.9374060
  80.3167790  12.4413980  64.8830950  79.3473140  13.1824860  65.7790890
  84.6858620  14.5112000  60.2101360  85.0274320  15.2554230  59.7144680
  83.8571330  14.8243120  60.5726190  77.2833660  10.2107090  71.8499760
  76.9248600  10.8760940  72.4373100  76.9888220   9.3790640  72.2212380
  80.4846780  10.6691330  74.7339310  80.1846920  10.8148510  73.8367130
  81.2558020  10.1096620  74.6412700  85.8275230  15.4660330  72.7294440
  85.8419770  14.5341290  72.5113350  85.1200330  15.5520090  73.3684210
  90.9612300   9.6500150  58.9993050  90.8776020  10.0814370  58.1489490
  91.6806490  10.1098500  59.4319870  92.0386440  12.1067670  72.0763020
  91.3134630  12.6996450  71.8792410  92.5661900  12.0991210  71.2776390
  91.9899550  16.5042410  61.7275180  91.3475710  15.8498030  62.0018900
  91.6030210  16.9097500  60.9515850  87.5686030  13.8327840  65.5746870
  87.9209850  13.2355970  64.9148240  86.6848360  13.5072070  65.7455120
  83.6549310  14.5925530  62.9817280  84.3420440  15.1394740  63.3624870
  82.8681730  15.1366260  63.0166890  75.7941710  10.2098350  58.4734360
  76.6636560  10.4923150  58.7570280  75.3032030  11.0234220  58.3583170
  82.9576520  11.5971560  62.5942640  83.4139300  12.4076810  62.8202830
  82.6064730  11.2794700  63.4261130  85.2609130  17.1077900  69.8234940
  85.9051350  17.3137280  70.5008360  85.6238570  16.3466300  69.3705790
  78.8588300   1.9409210  63.0665160  78.7302930   1.9327110  64.0150080
  78.0350320   2.2792300  62.7156170  86.5341210  15.1110250  68.5412390
  87.1763440  14.4103410  68.6544560  87.0590560  15.8908690  68.3609280
  90.3796930  15.3958870  58.2651530  90.1534510  14.6789310  58.8576170
  89.9893130  15.1471310  57.4273280  88.3078830  15.9105150  71.7448450
  88.6435070  16.4971840  72.4226370  87.3879170  15.7797860  71.9746240
  76.1612960  19.4225730  59.0395990  76.5210600  20.0215070  58.3853260
  76.0205300  19.9685620  59.8131020  75.8582230   3.7000330  72.5271860
  75.1440750   3.8997250  73.1324470  76.2777270   2.9239900  72.8986660
  89.9613180  13.3130810  59.9265690  89.6734880  13.7743500  60.7143570
  90.7565350  12.8528580  60.1949910  76.1454820  17.6880590  73.5138390
  76.2545940  16.7475330  73.3733780  75.4935380  17.9535340  72.8652120
  84.1367410  15.9596480  74.9136510  83.8164280  15.2405720  75.4582200
  83.4625770  16.6351550  74.9872570  77.7788220  12.0271820  60.6016420
  77.1716170  12.7670720  60.6111720  78.2537570  12.1171180  59.7754620
  87.3521010   6.1922640  70.2773310  87.7201830   5.3717850  70.6052880
  86.4919210   6.2524530  70.6928960  90.7183040   5.1479580  61.0860870
  90.0896200   5.2525250  60.3719100  90.2234960   5.3676360  61.8754750
  82.6867070   7.4265530  62.5018750  81.9783220   7.8951870  62.9432360
  82.9711550   6.7687540  63.1363940  84.3123000   8.8462230  70.5011280
  84.8108250   9.3208050  71.1663130  84.4545950   7.9225750  70.7081310
  86.7182500   4.1516190  63.9414540  86.5950280   4.1702320  62.9924050
  87.6667060   4.1995130  64.0612940  80.8902090   5.7350610  59.8769460
  81.7392620   6.1720760  59.8109650  80.5233360   6.0470870  60.7041520
  91.5189860   5.0630190  71.3439670  91.0163460   5.8035590  71.6833480
  92.3346520   5.4514190  71.0276460  89.8111870  10.3063370  64.7901030
  88.8702010  10.3213600  64.9648720  90.1255940   9.5199330  65.2361330
  79.7893510  11.9882970  58.3504990  80.5556780  11.8764330  58.9130420
  79.8668200  11.2920940  57.6981760  78.4840270   9.4208040  59.0337880
  78.5643860   8.4735550  59.1455280  79.3760020   9.7514920  59.1398540
  91.8137450  17.4772220  66.4655290  91.9384870  18.3003390  66.9379100
  92.6803010  17.2662950  66.1179440  79.2854980  19.5703430  66.1372420
  80.0217460  19.0218890  66.4080990  79.6695900  20.4359440  65.9978410
  78.2913260  18.7549500  75.3258000  79.0925990  19.0761550  75.7393400
  77.7765080  18.3945080  76.0477910  87.1277890  14.8629370  75.2733410
  86.5216050  14.8860970  74.5329160  86.8232000  14.1312410  75.8100660
  88.5578260  18.5909660  73.8842820  89.5100010  18.5067680  73.8343060
  88.4106480  19.2551370  74.5576610  91.4487460  17.9703870  59.3834730
  91.1628970  17.5569010  58.5688910  91.2507010  18.8991580  59.2635250
  76.0111070  11.2422960  74.2694050  76.5150090  10.6630240  74.8410280
  75.2718490  11.5263190  74.8070420  82.9134690  13.9637150  57.8240340
  82.8085330  13.3489500  58.5501720  82.7458910  13.4403040  57.0403350
  83.0649010  12.6493950  73.8029570  82.2994680  13.2178950  73.7184240
  83.2464970  12.3570160  72.9097800  86.1537420  13.0257180  58.4282330
  85.6047520  13.4726480  59.0725070  86.7756680  12.5206430  58.9520000
  78.0434150   9.3852550  75.1644120  78.0839490   9.0866420  76.0729350
  78.8979650   9.7860160  75.0051640  81.8212540  11.9848100  60.3247630
  82.2428960  11.8187970  61.1679020  81.9463380  11.1748330  59.8302770
  79.9839960   7.9644650  73.1318610  79.4536420   7.4735600  72.5041950
  80.6528030   8.3928850  72.5976540  84.3340180  11.0085710  57.5724730
  84.8545840  10.2934730  57.2065880  84.9808580  11.6471580  57.8725240
  88.8818020  12.4314110  72.8959800  89.2959040  12.5859190  73.7450220
  87.9469020  12.5569330  73.0585580  89.3540190   9.7710270  74.8998950
  89.9360960   9.0162590  74.8119430  89.5301960  10.3017710  74.1230430
  80.4712260   4.9307020  73.2115900  80.3769130   4.3127770  72.4866770
  79.8909650   5.6573310  72.9845810  83.2373700   3.4880260  70.2443290
  82.7891000   3.5104520  69.3988840  82.6038900   3.0899280  70.8413590
  83.6433250  12.3834590  70.8655730  84.0621360  13.2267320  70.6931970
  82.7241880  12.5206630  70.6362510  85.9797150  10.1150770  72.2493570
  86.0993360   9.5191910  72.9888410  86.8391150  10.1520460  71.8294870
  88.3185050  10.6687960  70.8256080  87.7920270  11.1930580  70.2221220
  88.6616390  11.3015350  71.4565810  80.7171440   8.0581330  57.2705790
  80.5160500   7.1948690  57.6319130  80.5463490   7.9714690  56.3327390
  81.4940670  18.6887600  71.9813460  80.9561760  19.4133660  71.6622160
  81.7474630  18.2117940  71.1910800  82.7465920   6.6572120  73.5069390
  83.3365610   6.3487970  74.1947210  81.9286160   6.1851870  73.6629290
  87.5659350   6.2737930  73.7402410  86.8774870   5.6119470  73.6752400
  88.2865370   5.8276200  74.1850870  88.1959750   2.8689560  59.7992670
  88.4762040   2.0257460  60.1552090  87.4225480   3.1012670  60.3131420
  79.5154240   5.1581950  57.2583670  79.8180140   5.1649380  56.3502820
  80.2548830   4.8079810  57.7551330  84.3502880  19.9238810  72.2400110
  84.2761580  20.8273950  72.5472480  83.4481720  19.6050710  72.2122180
  82.7339170   4.1016570  58.2439870  82.3861170   3.4240560  57.6642320
  82.9351940   3.6406080  59.0583260  78.5384370  14.4624370  58.0913470
  78.9759240  15.0054040  58.7471050  79.0232100  13.6371320  58.1009810
  80.3492090  15.5822410  63.2035700  80.0487630  15.4587380  64.1039610
  80.2429580  14.7231000  62.7951430  76.2420380  18.1183990  68.2815360
  75.8051370  18.2984790  69.1139510  76.8098060  18.8758610  68.1397080
  91.8782560  17.6200990  72.5692670  91.2784550  17.6793550  71.8256590
  92.0076460  16.6805970  72.6989520  93.1184010  15.3618810  57.9062380
  92.2876970  15.4295460  58.3769610  93.2955840  16.2522930  57.6029240
  92.5740470  12.1066290  60.4096580  93.3359380  12.6762940  60.5156270
  92.5894840  11.5393490  61.1804890  76.0744810  10.6304220  64.6404240
  75.4193650  10.3615860  63.9963940  76.9122760  10.5208700  64.1906220
  93.5800440  12.9616390  65.2538510  93.9509270  12.1783710  64.8474480
  94.2202370  13.6505490  65.0755810  90.5634200  14.3452970  70.6668830
  89.7494040  14.7750130  70.9294620  90.9708400  14.9571380  70.0537880
  92.6259640  12.4000660  57.5669100  92.9008480  13.3079540  57.4388320
  92.4370380  12.3363190  58.5031090  89.0235250   5.4245510  58.8622730
  89.4420130   5.2376490  58.0219390  88.7171310   4.5724560  59.1725660
  92.5224980  10.3369650  62.5598530  92.1468580   9.5697580  62.1279820
  91.7928100  10.7192350  63.0473460  77.1120740  11.0156790  69.1807580
  77.4793780  10.9284190  70.0603600  76.5431560  10.2523340  69.0814440
  91.9124600   9.4841170  72.1938050  91.6810690   9.2553920  71.2936000
  92.1729150  10.4040720  72.1482940  76.6636740   7.9265880  73.0866000
  75.7692790   7.8932640  73.4259710  77.2034290   8.1252670  73.8517250
  90.3512670   4.7097600  74.9717750  91.2282850   4.7181000  75.3551750
  90.3633510   3.9728440  74.3610100  75.2882890   7.8403150  60.5829570
  74.3846970   8.1033350  60.4081230  75.7723510   8.1114320  59.8029530
  91.7975940   8.5627140  65.8605770  92.3213420   8.0689790  65.2295940
  92.3835360   8.6977500  66.6053340  91.9765660   8.6467010  69.3825320
  91.0268370   8.6130550  69.4970310  92.1578670   9.5567120  69.1475090
  77.8310100   6.8968690  58.4923950  78.5401800   6.4751910  58.0071230
  77.1150040   6.9643920  57.8607300  77.4784260   2.9508020  57.5326600
  78.2012390   3.4916960  57.8507820  77.7508780   2.6771440  56.6568140
  91.2875910   7.8200490  61.7998180  91.7835030   7.5871360  62.5847060
  91.0891980   6.9812330  61.3835820  77.1676450   2.2014210  67.4349220
  77.8152640   1.6511590  66.9944380  77.5878290   2.4557360  68.2565030
  92.7163070   6.4561440  64.3335860  92.6062350   6.3017480  65.2718130
  93.4770660   5.9282380  64.0911270  91.0628790   2.3955570  70.7918860
  91.7001010   3.0089710  71.1578050  91.2103680   2.4316230  69.8468090
  93.6053340   4.2869360  57.5742000  94.5302650   4.1550540  57.3660290
  93.5829130   4.3662180  58.5278450  93.6791830   5.0580020  60.1998710
  92.8843330   4.9925140  60.7291620  93.8835110   5.9930660  60.1884060
  76.9208450   2.3569880  70.1774540  76.5723270   2.8133700  70.9432720
  76.5896150   1.4627010  70.2596970  78.5272820  15.5289480  74.3427730
  78.4842450  15.1582390  75.2242190  78.6583830  16.4667050  74.4829550
  82.2278850  17.0849070  69.9437450  81.9870210  17.3523630  69.0567970
  83.1681490  17.2554800  69.9988310  84.4333270   3.5481760  73.6993960
  84.3722160   4.1403590  74.4489370  85.3733650   3.4407720  73.5544220
  87.0707830   3.2051820  73.3386250  87.6848240   3.5231110  72.6767330
  87.6157390   2.7200410  73.9582110  93.4883010  19.1043450  70.7448090
  92.9941290  19.5012320  70.0275220  92.8796300  18.4792660  71.1385370
  78.3660850  18.4751730  71.4625510  77.7721170  18.3436430  72.2015550
  78.3584690  17.6389870  70.9967610  88.7187850   3.9754830  71.0497260
  88.3901210   3.1606590  70.6698990  89.6670150   3.9324640  70.9262950
  91.1722460  19.7466870  68.0234830  90.7125430  20.4982680  67.6492850
  90.5434920  19.0273340  67.9649630  77.9973080  15.8410110  70.4133550
  77.2707140  15.2215400  70.3459500  78.0582230  16.2350720  69.5431630
  81.6018180  18.0555110  67.1982960  82.1183200  17.4442470  66.6731220
  82.2515560  18.5583890  67.6893970  84.3413680  18.9463600  68.0251940
  84.6291490  18.6917900  67.1484950  84.8536900  18.3940960  68.6157510
  85.5590690   2.6853800  68.6048450  84.7762480   3.1599300  68.8845210
  85.2653620   1.7808630  68.4961630  90.1111760   3.3876900  66.6497540
  90.5519850   3.3322000  65.8019140  89.8419350   4.3034910  66.7207720
  91.9750330   3.0192140  64.6606360  91.9138730   2.0753360  64.5137380
  92.7542360   3.1272230  65.2059820  76.9031100   2.9901280  61.1262170
  77.6610460   3.1030160  60.5526200  76.4408270   3.8270480  61.0805600
  83.4444910   5.1040550  64.1164480  82.6319420   4.7297440  63.7760360
  83.9486550   4.3485630  64.4185670  87.9469890   1.7683000  65.3547550
  88.5499260   2.3403210  65.8296070  87.2062880   2.3322440  65.1321450
  91.0904490   2.1704560  60.6287830  91.2855120   3.0688010  60.8955260
  90.3034360   1.9391640  61.1220780  77.8865780  17.8517730  61.0680450
  77.3613400  18.2325760  60.3642410  77.8110360  18.4768500  61.7890160
  79.2756250   3.5165330  59.6664140  79.8049010   2.7295130  59.5372090
  79.9084570   4.1956520  59.8999670  81.4694090   3.2540470  62.7209530
  80.8396830   2.5527780  62.8879660  80.9299230   4.0144600  62.5042690
  84.4086040  19.8679700  75.3920140  85.3353350  19.6323970  75.4356100
  84.3936470  20.6951700  74.9106170  81.5949650   2.5324450  75.1562020
  81.3133920   3.0358050  74.3922840  81.9769350   1.7346200  74.7904150
  79.6473540  15.9164840  59.9476030  79.0182420  16.3849940  60.4961860
  79.7621370  15.0714060  60.3822220  88.1965110   1.9478030  75.7342490
  88.0830560   2.2672640  76.6294010  89.0134850   2.3490540  75.4379770
  87.1023260   9.9670500  46.0977230  87.0217310   9.0525110  45.8268940
  86.6887680  10.4637570  45.3916940  85.2341300  11.7449520  47.9786500
  84.4583400  11.2649960  48.2685070  85.8854230  11.0655170  47.8042660
  79.2507130  12.0569330  48.8562260  78.4192010  11.8018040  49.2558770
  79.8588110  12.1280100  49.5920180  89.2548730  16.1509710  46.7585630
  88.7930260  15.3796950  47.0872800  90.0674280  16.1775780  47.2638080
  79.2308390  16.0909420  49.0520280  79.5336430  15.2007160  48.8730500
  79.9751980  16.6479640  48.8242530  77.6599080   7.0171220  42.6404650
  76.7715780   7.3587190  42.5384530  77.9440270   6.8171540  41.7485480
  75.6232090   9.6176870  48.5244350  76.1948200   8.8499070  48.5247990
  75.6233630   9.9165630  47.6150960  85.4812040  18.4367720  46.3789620
  84.8623480  18.8925220  45.8084060  86.3363820  18.5919180  45.9779320
  84.6750290  14.4206710  47.9856660  84.6058570  13.4796650  47.8245790
  85.4370150  14.5108120  48.5579230  76.8656960   5.0261230  50.3113280
  76.6859800   4.1286980  50.5916040  76.4637040   5.5733100  50.9860230
  85.7055460   7.2277090  48.2125590  86.0820280   6.3548970  48.0999260
  85.6074970   7.5635790  47.3216030  79.8360470   5.6002720  43.6743030
  79.9427220   6.5006450  43.9811790  78.9252830   5.5520690  43.3837680
  89.4879580   4.7227530  45.1453930  90.3089200   4.2324100  45.1879410
  89.5213660   5.3125190  45.8985770  77.4843630   7.5221730  48.9195620
  78.1653740   7.7860100  49.5383020  77.1691680   6.6822600  49.2533630
  81.6768200   8.5689090  48.0068210  82.1846420   9.0670060  48.6473230
  82.2081440   7.7924290  47.8307570  93.7779130   6.7394280  51.7097560
  93.0731300   7.1275990  51.1912670  94.0437050   7.4344570  52.3118490
  79.9604300   3.2087650  52.2731630  79.9622740   3.7260040  51.4677530
  79.1308610   2.7317830  52.2501560  86.3475390  13.3206960  43.7721530
  85.7292660  13.7856410  43.2084250  86.8598640  14.0134440  44.1891040
  81.2107150  12.8482830  50.4505130  80.8776530  13.4751750  51.0926200
  81.3873830  13.3744710  49.6706800  89.7241060   6.6627910  47.9181470
  89.0196630   6.9512800  48.4984580  90.0853220   7.4728020  47.5581030
  79.6419630   4.9197610  50.2802080  79.9836440   5.7639660  49.9855950
  78.7035440   5.0681350  50.3967420  80.4226250  14.8163630  52.2654310
  81.0400250  15.4914710  51.9838760  79.5619370  15.2251610  52.1741810
  75.7158590  14.0063490  41.1461160  75.3386570  14.4950590  40.4146060
  75.9731660  14.6788770  41.7767690  91.3403840  16.2803040  50.1808950
  90.6567360  16.9502150  50.1725620  91.8798130  16.4783690  49.4153810
  92.7927980   6.1082700  48.3090680  91.8452890   6.1421680  48.4406110
  93.1177970   6.9221650  48.6940040  83.3247520   2.4079880  46.6046670
  83.6322500   1.8526770  45.8882170  82.3948220   2.5424340  46.4219660
  88.8762580  18.1247170  48.8954130  88.8889740  17.7209460  48.0276390
  88.3237800  18.8994460  48.7915560  90.1708000  14.8463390  43.9844300
  90.0604330  13.9037720  44.1093720  90.1676250  15.2079030  44.8707060
  88.2748020  13.0277010  50.2236740  88.6916810  12.8137120  49.3890200
  88.9987840  13.2849800  50.7945360  85.7128280  10.4728710  43.3406790
  84.7857560  10.4066090  43.5695260  85.8653100  11.4108840  43.2262030
  85.6997360   6.7445710  40.3373950  84.7601030   6.9059670  40.4226410
  86.0180620   7.4631390  39.7909940  92.2210120  11.4264230  50.3152980
  91.3928750  11.4957320  49.8403110  92.8160600  12.0118540  49.8468810
  89.7425570  12.0349010  43.8442040  89.1237990  11.6968560  43.1968340
  89.7250020  11.3908770  44.5521230  89.1852130   8.2133550  51.2607850
  88.7723310   9.0387260  51.5147840  88.4528080   7.6278590  51.0684210
  81.3184920  10.9993450  46.1226520  80.9141920  10.2870700  45.6272420
  81.4048040  10.6546690  47.0114560  81.7866620  14.6861010  48.2865730
  81.4894910  14.0806480  47.6073510  82.7366440  14.7238320  48.1755090
  80.0313540   7.7736660  49.9025560  80.5828130   7.8832000  49.1278810
  80.5457050   8.1474260  50.6180790  89.8752230  18.2592880  51.9488830
  89.3982790  19.0665070  51.7561440  89.1914020  17.6071210  52.1015040
  80.8785050  14.4242700  54.9373530  79.9813580  14.6482670  55.1846930
  80.9037920  14.5477640  53.9884930  87.9190270  11.2735820  40.8514790
  88.3583550  10.4358250  40.7052610  88.6318690  11.9065220  40.9378930
  79.7056270  11.2956020  53.5130900  79.5664040  12.1678820  53.8818300
  78.8237630  10.9528830  53.3678840  86.0285650  16.2131890  44.8196030
  86.4681560  16.9556220  44.4051420  85.9672540  16.4558460  45.7434990
  81.5036620  17.2377720  55.7216050  81.4752050  17.6420670  54.8544480
  81.3401590  16.3088080  55.5587650  91.5007410   2.5278630  39.1655830
  91.1880070   2.6205460  40.0654900  92.2619880   3.1059660  39.1153260
  78.0189550   9.8938430  43.6233170  77.8987150  10.6200520  43.0114440
  77.7090440   9.1241340  43.1461080  93.4551440  18.0204820  57.0180220
  93.9311160  18.4987710  57.6969300  94.0758600  17.9522310  56.2925720
  75.6574920  13.0653570  49.4301810  75.7355340  13.2002340  48.4857530
  76.2716600  12.3569460  49.6229930  76.9022550  14.7653760  45.8407990
  76.4950630  14.9068350  44.9861590  77.7935560  14.4813920  45.6379200
  92.8584690  15.2117670  54.1780230  92.9847750  14.9729550  53.2597410
  92.9006070  14.3802210  54.6502310  86.7201430  18.9145670  52.7475040
  87.2346100  18.8253680  53.5497470  85.8770510  19.2605370  53.0402950
  88.6955830  19.2001010  42.1759040  88.5356970  18.9103950  43.0740870
  88.5302540  18.4241140  41.6404270  81.1744210  18.9799540  43.9530660
  80.9986690  18.0635080  43.7398460  80.3199950  19.3386830  44.1928460
  88.3981960  16.7088570  40.7357040  87.7047120  16.7065860  40.0759320
  89.1404820  16.2847890  40.3051210  87.9631890  18.3351280  44.8105530
  88.4188840  17.5540660  45.1244150  88.3024410  19.0458100  45.3546710
  92.7108700   7.2650130  55.1429970  92.0952970   7.7729800  54.6145430
  92.3905120   6.3648460  55.0855910  75.7134440  14.1067740  51.9696270
  75.8765480  13.6373100  51.1515640  76.1786890  13.5991300  52.6345110
  80.4853210   3.2373500  47.0056840  80.0421360   4.0183040  46.6741360
  81.0438200   3.5603390  47.7127780  84.7723020   6.1042020  52.6092160
  84.3102390   6.3125040  53.4212100  84.3701130   5.2901370  52.3062830
  89.7727530   7.3250970  53.7388820  88.9221120   7.0256720  54.0597890
  89.6129320   7.5692980  52.8272640  86.8677240   8.8252720  55.8387610
  87.1930650   7.9916470  55.4989840  87.6557570   9.3481240  55.9865940
  83.6012030   2.8584200  41.8862670  82.9766210   2.8544070  42.6115980
  83.5142150   1.9915160  41.4898640  82.5229110   3.7820830  48.8646440
  82.8201440   4.6883660  48.7838460  83.0714670   3.2939610  48.2506010
  80.2767430   8.3607070  44.7338090  80.0508350   8.1444240  45.6384710
  79.4959960   8.7935530  44.3884060  87.5065190   8.3670440  43.3328740
  86.9074080   9.0906240  43.1492360  88.0544800   8.3047220  42.5505190
  82.7166640   9.2592650  55.3998360  82.6210240   8.3187380  55.2498760
  83.5598620   9.4807720  55.0046430  86.1130060   7.0033980  45.3632020
  86.5059630   7.3206180  44.5500710  86.4746910   6.1245860  45.4776540
  77.8477180   5.6706320  53.5532140  77.4540570   6.5181530  53.7604920
  77.1595580   5.0332690  53.7440780  84.4222230   5.7541290  56.6228880
  83.7320550   5.5613490  57.2574970  85.1654530   6.0375930  57.1553180
  75.1494230   3.5934780  47.5862220  74.8607280   4.1637640  48.2987200
  75.8939990   3.1139230  47.9493450  75.3364460   7.5354900  38.7964940
  75.2539130   8.4785660  38.9379930  74.9847520   7.3929810  37.9177290
  86.6985200   9.5939730  49.4582800  85.9666320  10.1026540  49.8072900
  86.3009540   8.7769710  49.1571580  83.1362590   6.2693930  47.8635290
  83.1398650   5.8283880  47.0139830  84.0313710   6.5911260  47.9707110
  78.9864970   6.1520420  46.8229500  78.6465020   6.6295650  47.5796550
  78.2242290   5.6985540  46.4630600  83.1982740   7.2706010  40.8542050
  83.3195560   7.2292490  41.8027870  82.8131250   8.1330160  40.6988780
  87.1611110   5.0473410  48.8705740  87.1783850   5.4982060  49.7147590
  86.9126690   4.1479050  49.0839180  82.2104240   9.5807150  40.2525350
  81.6421140   9.1325400  39.6261260  82.9193240   9.9399930  39.7190500
  90.5881860   2.4605590  54.7092120  90.9127630   1.7295250  55.2350100
  90.6238370   2.1419230  53.8073110  77.2873420  13.4819170  54.1292080
  76.9028210  12.8412840  54.7275040  77.5985610  14.1855290  54.6986810
  83.4370560  10.3295710  49.6100700  83.8040690   9.8554280  50.3562040
  83.2475620  11.2037280  49.9509040  76.3011050   5.0739400  45.7394170
  76.0157970   4.7095070  46.5772790  76.2389910   4.3419860  45.1257310
  81.2269930   9.3704350  51.9284910  80.9227000  10.2496330  52.1535270
  82.1816390   9.4304140  51.9642350  79.7551720  13.5765340  42.5251760
  78.9813980  13.0362960  42.3650480  80.4846350  13.0571950  42.1869520
  90.5139700  12.5730700  48.3178150  91.2338820  13.0685990  47.9274260
  90.3121520  11.8948590  47.6732020  85.9749640   3.9668660  42.4607540
  85.1614250   3.4681830  42.3852850  85.7811590   4.8066910  42.0443890
  85.8958500  12.6439760  54.2047150  85.8295810  11.7235430  53.9504740
  85.2663640  12.7415200  54.9191790  88.6898030   8.3388310  40.7569700
  89.5777650   8.6505540  40.5821040  88.6603120   7.4660560  40.3650280
  79.7989120  13.2445720  46.1630570  80.3167790  12.4413980  46.1087460
  79.3473140  13.1824860  47.0047400  84.6858620  14.5112000  41.4357870
  85.0274320  15.2554230  40.9401190  83.8571330  14.8243120  41.7982700
  77.2833660  10.2107090  53.0756270  76.9248600  10.8760940  53.6629610
  76.9888220   9.3790640  53.4468890  80.4846780  10.6691330  55.9595820
  80.1846920  10.8148510  55.0623640  81.2558020  10.1096620  55.8669210
  85.8275230  15.4660330  53.9550950  85.8419770  14.5341290  53.7369860
  85.1200330  15.5520090  54.5940720  90.9612300   9.6500150  40.2249560
  90.8776020  10.0814370  39.3746000  91.6806490  10.1098500  40.6576380
  92.0386440  12.1067670  53.3019530  91.3134630  12.6996450  53.1048920
  92.5661900  12.0991210  52.5032900  91.9899550  16.5042410  42.9531690
  91.3475710  15.8498030  43.2275410  91.6030210  16.9097500  42.1772360
  87.5686030  13.8327840  46.8003380  87.9209850  13.2355970  46.1404750
  86.6848360  13.5072070  46.9711630  83.6549310  14.5925530  44.2073790
  84.3420440  15.1394740  44.5881380  82.8681730  15.1366260  44.2423400
  75.7941710  10.2098350  39.6990870  76.6636560  10.4923150  39.9826790
  75.3032030  11.0234220  39.5839680  82.9576520  11.5971560  43.8199150
  83.4139300  12.4076810  44.0459340  82.6064730  11.2794700  44.6517640
  85.2609130  17.1077900  51.0491450  85.9051350  17.3137280  51.7264870
  85.6238570  16.3466300  50.5962300  78.8588300   1.9409210  44.2921670
  78.7302930   1.9327110  45.2406590  78.0350320   2.2792300  43.9412680
  86.5341210  15.1110250  49.7668900  87.1763440  14.4103410  49.8801070
  87.0590560  15.8908690  49.5865790  90.3796930  15.3958870  39.4908040
  90.1534510  14.6789310  40.0832680  89.9893130  15.1471310  38.6529790
  88.3078830  15.9105150  52.9704960  88.6435070  16.4971840  53.6482880
  87.3879170  15.7797860  53.2002750  76.1612960  19.4225730  40.2652500
  76.5210600  20.0215070  39.6109770  76.0205300  19.9685620  41.0387530
  75.8582230   3.7000330  53.7528370  75.1440750   3.8997250  54.3580980
  76.2777270   2.9239900  54.1243170  89.9613180  13.3130810  41.1522200
  89.6734880  13.7743500  41.9400080  90.7565350  12.8528580  41.4206420
  76.1454820  17.6880590  54.7394900  76.2545940  16.7475330  54.5990290
  75.4935380  17.9535340  54.0908630  84.1367410  15.9596480  56.1393020
  83.8164280  15.2405720  56.6838710  83.4625770  16.6351550  56.2129080
  82.1781580  16.8056930  41.0826170  82.1691680  17.5386620  40.4670680
  81.2579940  16.5588510  41.1753130  77.7788220  12.0271820  41.8272930
  77.1716170  12.7670720  41.8368230  78.2537570  12.1171180  41.0011130
  87.3521010   6.1922640  51.5029820  87.7201830   5.3717850  51.8309390
  86.4919210   6.2524530  51.9185470  90.7183040   5.1479580  42.3117380
  90.0896200   5.2525250  41.5975610  90.2234960   5.3676360  43.1011260
  85.1641180  16.8685170  39.7451360  85.2653160  16.6649160  38.8153340
  84.2642920  16.6143450  39.9499140  82.6867070   7.4265530  43.7275260
  81.9783220   7.8951870  44.1688870  82.9711550   6.7687540  44.3620450
  84.3123000   8.8462230  51.7267790  84.8108250   9.3208050  52.3919640
  84.4545950   7.9225750  51.9337820  86.7182500   4.1516190  45.1671050
  86.5950280   4.1702320  44.2180560  87.6667060   4.1995130  45.2869450
  83.8059290  19.3871490  44.4399030  84.0600790  19.3492880  43.5178400
  82.8571770  19.2604820  44.4327280  80.8902090   5.7350610  41.1025970
  81.7392620   6.1720760  41.0366160  80.5233360   6.0470870  41.9298030
  91.5189860   5.0630190  52.5696180  91.0163460   5.8035590  52.9089990
  92.3346520   5.4514190  52.2532970  89.8111870  10.3063370  46.0157540
  88.8702010  10.3213600  46.1905230  90.1255940   9.5199330  46.4617840
  79.7893510  11.9882970  39.5761500  80.5556780  11.8764330  40.1386930
  79.8668200  11.2920940  38.9238270  78.4840270   9.4208040  40.2594390
  78.5643860   8.4735550  40.3711790  79.3760020   9.7514920  40.3655050
  91.8137450  17.4772220  47.6911800  91.9384870  18.3003390  48.1635610
  92.6803010  17.2662950  47.3435950  79.2854980  19.5703430  47.3628930
  80.0217460  19.0218890  47.6337500  79.6695900  20.4359440  47.2234920
  76.1700460  15.6377000  43.2370440  75.2440240  15.8798140  43.2275850
  76.6356890  16.4651260  43.1155190  78.2913260  18.7549500  56.5514510
  79.0925990  19.0761550  56.9649910  77.7765080  18.3945080  57.2734420
  82.3957290  18.7433740  39.1854500  83.1885900  19.0322570  38.7336290
  81.8761640  18.3125910  38.5066980  87.1277890  14.8629370  56.4989920
  86.5216050  14.8860970  55.7585670  86.8232000  14.1312410  57.0357170
  88.5578260  18.5909660  55.1099330  89.5100010  18.5067680  55.0599570
  88.4106480  19.2551370  55.7833120  91.4487460  17.9703870  40.6091240
  91.1628970  17.5569010  39.7945420  91.2507010  18.8991580  40.4891760
  76.0111070  11.2422960  55.4950560  76.5150090  10.6630240  56.0666790
  75.2718490  11.5263190  56.0326930  82.9134690  13.9637150  39.0496850
  82.8085330  13.3489500  39.7758230  82.7458910  13.4403040  38.2659860
  83.0649010  12.6493950  55.0286080  82.2994680  13.2178950  54.9440750
  83.2464970  12.3570160  54.1354310  86.1537420  13.0257180  39.6538840
  85.6047520  13.4726480  40.2981580  86.7756680  12.5206430  40.1776510
  90.2072360  14.3799280  55.5861100  90.9481830  14.7175040  55.0828560
  89.4445040  14.5491340  55.0330870  78.0434150   9.3852550  56.3900630
  78.0839490   9.0866420  57.2985860  78.8979650   9.7860160  56.2308150
  81.8212540  11.9848100  41.5504140  82.2428960  11.8187970  42.3935530
  81.9463380  11.1748330  41.0559280  79.9839960   7.9644650  54.3575120
  79.4536420   7.4735600  53.7298460  80.6528030   8.3928850  53.8233050
  84.3340180  11.0085710  38.7981240  84.8545840  10.2934730  38.4322390
  84.9808580  11.6471580  39.0981750  88.8818020  12.4314110  54.1216310
  89.2959040  12.5859190  54.9706730  87.9469020  12.5569330  54.2842090
  89.3540190   9.7710270  56.1255460  89.9360960   9.0162590  56.0375940
  89.5301960  10.3017710  55.3486940  80.4712260   4.9307020  54.4372410
  80.3769130   4.3127770  53.7123280  79.8909650   5.6573310  54.2102320
  83.2373700   3.4880260  51.4699800  82.7891000   3.5104520  50.6245350
  82.6038900   3.0899280  52.0670100  83.6433250  12.3834590  52.0912240
  84.0621360  13.2267320  51.9188480  82.7241880  12.5206630  51.8619020
  85.9797150  10.1150770  53.4750080  86.0993360   9.5191910  54.2144920
  86.8391150  10.1520460  53.0551380  88.3185050  10.6687960  52.0512590
  87.7920270  11.1930580  51.4477730  88.6616390  11.3015350  52.6822320
  80.7171440   8.0581330  38.4962300  80.5160500   7.1948690  38.8575640
  80.5463490   7.9714690  37.5583900  81.4940670  18.6887600  53.2069970
  80.9561760  19.4133660  52.8878670  81.7474630  18.2117940  52.4167310
  82.7465920   6.6572120  54.7325900  83.3365610   6.3487970  55.4203720
  81.9286160   6.1851870  54.8885800  87.5659350   6.2737930  54.9658920
  86.8774870   5.6119470  54.9008910  88.2865370   5.8276200  55.4107380
  88.1959750   2.8689560  41.0249180  88.4762040   2.0257460  41.3808600
  87.4225480   3.1012670  41.5387930  79.5154240   5.1581950  38.4840180
  79.8180140   5.1649380  37.5759330  80.2548830   4.8079810  38.9807840
  84.3502880  19.9238810  53.4656620  84.2761580  20.8273950  53.7728990
  83.4481720  19.6050710  53.4378690  82.7339170   4.1016570  39.4696380
  82.3861170   3.4240560  38.8898830  82.9351940   3.6406080  40.2839770
  84.8988210  19.0897320  41.0882980  85.7939000  19.4282290  41.1101740
  84.9305840  18.3676730  40.4607260  78.5384370  14.4624370  39.3169980
  78.9759240  15.0054040  39.9727560  79.0232100  13.6371320  39.3266320
  75.7530170  17.2513400  46.7690240  76.0833180  16.3834460  46.5368880
  76.1821170  17.4571920  47.5995200  80.3492090  15.5822410  44.4292210
  80.0487630  15.4587380  45.3296120  80.2429580  14.7231000  44.0207940
  76.2420380  18.1183990  49.5071870  75.8051370  18.2984790  50.3396020
  76.8098060  18.8758610  49.3653590  91.8782560  17.6200990  53.7949180
  91.2784550  17.6793550  53.0513100  92.0076460  16.6805970  53.9246030
  93.1184010  15.3618810  39.1318890  92.2876970  15.4295460  39.6026120
  93.2955840  16.2522930  38.8285750  92.5740470  12.1066290  41.6353090
  93.3359380  12.6762940  41.7412780  92.5894840  11.5393490  42.4061400
  76.0744810  10.6304220  45.8660750  75.4193650  10.3615860  45.2220450
  76.9122760  10.5208700  45.4162730  93.5800440  12.9616390  46.4795020
  93.9509270  12.1783710  46.0730990  94.2202370  13.6505490  46.3012320
  90.5634200  14.3452970  51.8925340  89.7494040  14.7750130  52.1551130
  90.9708400  14.9571380  51.2794390  92.6259640  12.4000660  38.7925610
  92.9008480  13.3079540  38.6644830  92.4370380  12.3363190  39.7287600
  89.0235250   5.4245510  40.0879240  89.4420130   5.2376490  39.2475900
  88.7171310   4.5724560  40.3982170  92.5224980  10.3369650  43.7855040
  92.1468580   9.5697580  43.3536330  91.7928100  10.7192350  44.2729970
  77.1120740  11.0156790  50.4064090  77.4793780  10.9284190  51.2860110
  76.5431560  10.2523340  50.3070950  91.9124600   9.4841170  53.4194560
  91.6810690   9.2553920  52.5192510  92.1729150  10.4040720  53.3739450
  76.6636740   7.9265880  54.3122510  75.7692790   7.8932640  54.6516220
  77.2034290   8.1252670  55.0773760  90.3512670   4.7097600  56.1974260
  91.2282850   4.7181000  56.5808260  90.3633510   3.9728440  55.5866610
  75.2882890   7.8403150  41.8086080  74.3846970   8.1033350  41.6337740
  75.7723510   8.1114320  41.0286040  91.7975940   8.5627140  47.0862280
  92.3213420   8.0689790  46.4552450  92.3835360   8.6977500  47.8309850
  91.9765660   8.6467010  50.6081830  91.0268370   8.6130550  50.7226820
  92.1578670   9.5567120  50.3731600  77.8310100   6.8968690  39.7180460
  78.5401800   6.4751910  39.2327740  77.1150040   6.9643920  39.0863810
  77.4784260   2.9508020  38.7583110  78.2012390   3.4916960  39.0764330
  77.7508780   2.6771440  37.8824650  91.2875910   7.8200490  43.0254690
  91.7835030   7.5871360  43.8103570  91.0891980   6.9812330  42.6092330
  77.1676450   2.2014210  48.6605730  77.8152640   1.6511590  48.2200890
  77.5878290   2.4557360  49.4821540  92.7163070   6.4561440  45.5592370
  92.6062350   6.3017480  46.4974640  93.4770660   5.9282380  45.3167780
  91.0628790   2.3955570  52.0175370  91.7001010   3.0089710  52.3834560
  91.2103680   2.4316230  51.0724600  93.6053340   4.2869360  38.7998510
  94.5302650   4.1550540  38.5916800  93.5829130   4.3662180  39.7534960
  93.6791830   5.0580020  41.4255220  92.8843330   4.9925140  41.9548130
  93.8835110   5.9930660  41.4140570  90.6210250  19.0971570  45.4193610
  91.2169320  18.7756140  44.7428030  90.8788400  18.6243390  46.2106880
  76.9208450   2.3569880  51.4031050  76.5723270   2.8133700  52.1689230
  76.5896150   1.4627010  51.4853480  78.5272820  15.5289480  55.5684240
  78.4842450  15.1582390  56.4498700  78.6583830  16.4667050  55.7086060
  82.2278850  17.0849070  51.1693960  81.9870210  17.3523630  50.2824480
  83.1681490  17.2554800  51.2244820  84.4333270   3.5481760  54.9250470
  84.3722160   4.1403590  55.6745880  85.3733650   3.4407720  54.7800730
  87.0707830   3.2051820  54.5642760  87.6848240   3.5231110  53.9023840
  87.6157390   2.7200410  55.1838620  93.4883010  19.1043450  51.9704600
  92.9941290  19.5012320  51.2531730  92.8796300  18.4792660  52.3641880
  78.3660850  18.4751730  52.6882020  77.7721170  18.3436430  53.4272060
  78.3584690  17.6389870  52.2224120  88.7187850   3.9754830  52.2753770
  88.3901210   3.1606590  51.8955500  89.6670150   3.9324640  52.1519460
  91.1722460  19.7466870  49.2491340  90.7125430  20.4982680  48.8749360
  90.5434920  19.0273340  49.1906140  77.9973080  15.8410110  51.6390060
  77.2707140  15.2215400  51.5716010  78.0582230  16.2350720  50.7688140
  81.6018180  18.0555110  48.4239470  82.1183200  17.4442470  47.8987730
  82.2515560  18.5583890  48.9150480  85.5590690   2.6853800  49.8304960
  84.7762480   3.1599300  50.1101720  85.2653620   1.7808630  49.7218140
  90.1111760   3.3876900  47.8754050  90.5519850   3.3322000  47.0275650
  89.8419350   4.3034910  47.9464230  91.9750330   3.0192140  45.8862870
  91.9138730   2.0753360  45.7393890  92.7542360   3.1272230  46.4316330
  76.2803080  19.1584500  44.8486820  76.1125120  18.5255180  45.5468710
  75.4137590  19.3643900  44.4981010  76.9031100   2.9901280  42.3518680
  77.6610460   3.1030160  41.7782710  76.4408270   3.8270480  42.3062110
  83.4444910   5.1040550  45.3420990  82.6319420   4.7297440  45.0016870
  83.9486550   4.3485630  45.6442180  87.9469890   1.7683000  46.5804060
  88.5499260   2.3403210  47.0552580  87.2062880   2.3322440  46.3577960
  91.0904490   2.1704560  41.8544340  91.2855120   3.0688010  42.1211770
  90.3034360   1.9391640  42.3477290  77.8865780  17.8517730  42.2936960
  77.3613400  18.2325760  41.5898920  77.8110360  18.4768500  43.0146670
  79.2756250   3.5165330  40.8920650  79.8049010   2.7295130  40.7628600
  79.9084570   4.1956520  41.1256180  81.4694090   3.2540470  43.9466040
  80.8396830   2.5527780  44.1136170  80.9299230   4.0144600  43.7299200
  92.6431100  19.4105270  43.6150900  92.8183290  18.7243010  42.9711820
  91.9452670  19.9352320  43.2227570  81.5949650   2.5324450  56.3818530
  81.3133920   3.0358050  55.6179350  81.9769350   1.7346200  56.0160660
  80.4858750  19.8000110  41.1686210  81.2177570  19.5159390  40.6210100
  80.7452420  19.5613390  42.0585590  79.6473540  15.9164840  41.1732540
  79.0182420  16.3849940  41.7218370  79.7621370  15.0714060  41.6078730
  88.1965110   1.9478030  56.9599000  88.0830560   2.2672640  57.8550520
  89.0134850   2.3490540  56.6636280  90.9763600  19.0949560  56.4417690
  91.7688920  18.5998790  56.2343650  91.2696750  19.7739700  57.0493300
  87.1023260   9.9670500  27.3233740  87.0217310   9.0525110  27.0525450
  86.6887680  10.4637570  26.6173450  85.2341300  11.7449520  29.2043010
  84.4583400  11.2649960  29.4941580  85.8854230  11.0655170  29.0299170
  79.2507130  12.0569330  30.0818770  78.4192010  11.8018040  30.4815280
  79.8588110  12.1280100  30.8176690  89.2548730  16.1509710  27.9842140
  88.7930260  15.3796950  28.3129310  90.0674280  16.1775780  28.4894590
  79.2308390  16.0909420  30.2776790  79.5336430  15.2007160  30.0987010
  79.9751980  16.6479640  30.0499040  77.6599080   7.0171220  23.8661160
  76.7715780   7.3587190  23.7641040  77.9440270   6.8171540  22.9741990
  75.6232090   9.6176870  29.7500860  76.1948200   8.8499070  29.7504500
  75.6233630   9.9165630  28.8407470  85.4812040  18.4367720  27.6046130
  84.8623480  18.8925220  27.0340570  86.3363820  18.5919180  27.2035830
  84.6750290  14.4206710  29.2113170  84.6058570  13.4796650  29.0502300
  85.4370150  14.5108120  29.7835740  76.8656960   5.0261230  31.5369790
  76.6859800   4.1286980  31.8172550  76.4637040   5.5733100  32.2116740
  85.7055460   7.2277090  29.4382100  86.0820280   6.3548970  29.3255770
  85.6074970   7.5635790  28.5472540  79.8360470   5.6002720  24.8999540
  79.9427220   6.5006450  25.2068300  78.9252830   5.5520690  24.6094190
  89.4879580   4.7227530  26.3710440  90.3089200   4.2324100  26.4135920
  89.5213660   5.3125190  27.1242280  77.4843630   7.5221730  30.1452130
  78.1653740   7.7860100  30.7639530  77.1691680   6.6822600  30.4790140
  81.6768200   8.5689090  29.2324720  82.1846420   9.0670060  29.8729740
  82.2081440   7.7924290  29.0564080  93.7779130   6.7394280  32.9354070
  93.0731300   7.1275990  32.4169180  94.0437050   7.4344570  33.5375000
  79.9604300   3.2087650  33.4988140  79.9622740   3.7260040  32.6934040
  79.1308610   2.7317830  33.4758070  86.3475390  13.3206960  24.9978040
  85.7292660  13.7856410  24.4340760  86.8598640  14.0134440  25.4147550
  81.2107150  12.8482830  31.6761640  80.8776530  13.4751750  32.3182710
  81.3873830  13.3744710  30.8963310  89.7241060   6.6627910  29.1437980
  89.0196630   6.9512800  29.7241090  90.0853220   7.4728020  28.7837540
  79.6419630   4.9197610  31.5058590  79.9836440   5.7639660  31.2112460
  78.7035440   5.0681350  31.6223930  80.4226250  14.8163630  33.4910820
  81.0400250  15.4914710  33.2095270  79.5619370  15.2251610  33.3998320
  75.7158590  14.0063490  22.3717670  75.3386570  14.4950590  21.6402570
  75.9731660  14.6788770  23.0024200  91.3403840  16.2803040  31.4065460
  90.6567360  16.9502150  31.3982130  91.8798130  16.4783690  30.6410320
  92.7927980   6.1082700  29.5347190  91.8452890   6.1421680  29.6662620
  93.1177970   6.9221650  29.9196550  83.3247520   2.4079880  27.8303180
  83.6322500   1.8526770  27.1138680  82.3948220   2.5424340  27.6476170
  88.8762580  18.1247170  30.1210640  88.8889740  17.7209460  29.2532900
  88.3237800  18.8994460  30.0172070  90.1708000  14.8463390  25.2100810
  90.0604330  13.9037720  25.3350230  90.1676250  15.2079030  26.0963570
  88.2748020  13.0277010  31.4493250  88.6916810  12.8137120  30.6146710
  88.9987840  13.2849800  32.0201870  85.7128280  10.4728710  24.5663300
  84.7857560  10.4066090  24.7951770  85.8653100  11.4108840  24.4518540
  85.6997360   6.7445710  21.5630460  84.7601030   6.9059670  21.6482920
  86.0180620   7.4631390  21.0166450  92.2210120  11.4264230  31.5409490
  91.3928750  11.4957320  31.0659620  92.8160600  12.0118540  31.0725320
  89.7425570  12.0349010  25.0698550  89.1237990  11.6968560  24.4224850
  89.7250020  11.3908770  25.7777740  89.1852130   8.2133550  32.4864360
  88.7723310   9.0387260  32.7404350  88.4528080   7.6278590  32.2940720
  81.3184920  10.9993450  27.3483030  80.9141920  10.2870700  26.8528930
  81.4048040  10.6546690  28.2371070  81.7866620  14.6861010  29.5122240
  81.4894910  14.0806480  28.8330020  82.7366440  14.7238320  29.4011600
  80.0313540   7.7736660  31.1282070  80.5828130   7.8832000  30.3535320
  80.5457050   8.1474260  31.8437300  89.8752230  18.2592880  33.1745340
  89.3982790  19.0665070  32.9817950  89.1914020  17.6071210  33.3271550
  80.8785050  14.4242700  36.1630040  79.9813580  14.6482670  36.4103440
  80.9037920  14.5477640  35.2141440  87.9190270  11.2735820  22.0771300
  88.3583550  10.4358250  21.9309120  88.6318690  11.9065220  22.1635440
  79.7056270  11.2956020  34.7387410  79.5664040  12.1678820  35.1074810
  78.8237630  10.9528830  34.5935350  86.0285650  16.2131890  26.0452540
  86.4681560  16.9556220  25.6307930  85.9672540  16.4558460  26.9691500
  81.5036620  17.2377720  36.9472560  81.4752050  17.6420670  36.0800990
  81.3401590  16.3088080  36.7844160  91.5007410   2.5278630  20.3912340
  91.1880070   2.6205460  21.2911410  92.2619880   3.1059660  20.3409770
  78.0189550   9.8938430  24.8489680  77.8987150  10.6200520  24.2370950
  77.7090440   9.1241340  24.3717590  93.4551440  18.0204820  38.2436730
  93.9311160  18.4987710  38.9225810  94.0758600  17.9522310  37.5182230
  75.6574920  13.0653570  30.6558320  75.7355340  13.2002340  29.7114040
  76.2716600  12.3569460  30.8486440  76.9022550  14.7653760  27.0664500
  76.4950630  14.9068350  26.2118100  77.7935560  14.4813920  26.8635710
  92.8584690  15.2117670  35.4036740  92.9847750  14.9729550  34.4853920
  92.9006070  14.3802210  35.8758820  86.7201430  18.9145670  33.9731550
  87.2346100  18.8253680  34.7753980  85.8770510  19.2605370  34.2659460
  88.6955830  19.2001010  23.4015550  88.5356970  18.9103950  24.2997380
  88.5302540  18.4241140  22.8660780  81.1744210  18.9799540  25.1787170
  80.9986690  18.0635080  24.9654970  80.3199950  19.3386830  25.4184970
  88.3981960  16.7088570  21.9613550  87.7047120  16.7065860  21.3015830
  89.1404820  16.2847890  21.5307720  87.9631890  18.3351280  26.0362040
  88.4188840  17.5540660  26.3500660  88.3024410  19.0458100  26.5803220
  92.7108700   7.2650130  36.3686480  92.0952970   7.7729800  35.8401940
  92.3905120   6.3648460  36.3112420  75.7134440  14.1067740  33.1952780
  75.8765480  13.6373100  32.3772150  76.1786890  13.5991300  33.8601620
  80.4853210   3.2373500  28.2313350  80.0421360   4.0183040  27.8997870
  81.0438200   3.5603390  28.9384290  84.7723020   6.1042020  33.8348670
  84.3102390   6.3125040  34.6468610  84.3701130   5.2901370  33.5319340
  89.7727530   7.3250970  34.9645330  88.9221120   7.0256720  35.2854400
  89.6129320   7.5692980  34.0529150  86.8677240   8.8252720  37.0644120
  87.1930650   7.9916470  36.7246350  87.6557570   9.3481240  37.2122450
  83.6012030   2.8584200  23.1119180  82.9766210   2.8544070  23.8372490
  83.5142150   1.9915160  22.7155150  82.5229110   3.7820830  30.0902950
  82.8201440   4.6883660  30.0094970  83.0714670   3.2939610  29.4762520
  80.2767430   8.3607070  25.9594600  80.0508350   8.1444240  26.8641220
  79.4959960   8.7935530  25.6140570  87.5065190   8.3670440  24.5585250
  86.9074080   9.0906240  24.3748870  88.0544800   8.3047220  23.7761700
  82.7166640   9.2592650  36.6254870  82.6210240   8.3187380  36.4755270
  83.5598620   9.4807720  36.2302940  86.1130060   7.0033980  26.5888530
  86.5059630   7.3206180  25.7757220  86.4746910   6.1245860  26.7033050
  77.8477180   5.6706320  34.7788650  77.4540570   6.5181530  34.9861430
  77.1595580   5.0332690  34.9697290  84.4222230   5.7541290  37.8485390
  83.7320550   5.5613490  38.4831480  85.1654530   6.0375930  38.3809690
  75.1494230   3.5934780  28.8118730  74.8607280   4.1637640  29.5243710
  75.8939990   3.1139230  29.1749960  75.3364460   7.5354900  20.0221450
  75.2539130   8.4785660  20.1636440  74.9847520   7.3929810  19.1433800
  86.6985200   9.5939730  30.6839310  85.9666320  10.1026540  31.0329410
  86.3009540   8.7769710  30.3828090  83.1362590   6.2693930  29.0891800
  83.1398650   5.8283880  28.2396340  84.0313710   6.5911260  29.1963620
  78.9864970   6.1520420  28.0486010  78.6465020   6.6295650  28.8053060
  78.2242290   5.6985540  27.6887110  83.1982740   7.2706010  22.0798560
  83.3195560   7.2292490  23.0284380  82.8131250   8.1330160  21.9245290
  87.1611110   5.0473410  30.0962250  87.1783850   5.4982060  30.9404100
  86.9126690   4.1479050  30.3095690  82.2104240   9.5807150  21.4781860
  81.6421140   9.1325400  20.8517770  82.9193240   9.9399930  20.9447010
  90.5881860   2.4605590  35.9348630  90.9127630   1.7295250  36.4606610
  90.6238370   2.1419230  35.0329620  77.2873420  13.4819170  35.3548590
  76.9028210  12.8412840  35.9531550  77.5985610  14.1855290  35.9243320
  83.4370560  10.3295710  30.8357210  83.8040690   9.8554280  31.5818550
  83.2475620  11.2037280  31.1765550  76.3011050   5.0739400  26.9650680
  76.0157970   4.7095070  27.8029300  76.2389910   4.3419860  26.3513820
  81.2269930   9.3704350  33.1541420  80.9227000  10.2496330  33.3791780
  82.1816390   9.4304140  33.1898860  79.7551720  13.5765340  23.7508270
  78.9813980  13.0362960  23.5906990  80.4846350  13.0571950  23.4126030
  90.5139700  12.5730700  29.5434660  91.2338820  13.0685990  29.1530770
  90.3121520  11.8948590  28.8988530  85.9749640   3.9668660  23.6864050
  85.1614250   3.4681830  23.6109360  85.7811590   4.8066910  23.2700400
  85.8958500  12.6439760  35.4303660  85.8295810  11.7235430  35.1761250
  85.2663640  12.7415200  36.1448300  88.6898030   8.3388310  21.9826210
  89.5777650   8.6505540  21.8077550  88.6603120   7.4660560  21.5906790
  79.7989120  13.2445720  27.3887080  80.3167790  12.4413980  27.3343970
  79.3473140  13.1824860  28.2303910  84.6858620  14.5112000  22.6614380
  85.0274320  15.2554230  22.1657700  83.8571330  14.8243120  23.0239210
  77.2833660  10.2107090  34.3012780  76.9248600  10.8760940  34.8886120
  76.9888220   9.3790640  34.6725400  80.4846780  10.6691330  37.1852330
  80.1846920  10.8148510  36.2880150  81.2558020  10.1096620  37.0925720
  85.8275230  15.4660330  35.1807460  85.8419770  14.5341290  34.9626370
  85.1200330  15.5520090  35.8197230  90.9612300   9.6500150  21.4506070
  90.8776020  10.0814370  20.6002510  91.6806490  10.1098500  21.8832890
  92.0386440  12.1067670  34.5276040  91.3134630  12.6996450  34.3305430
  92.5661900  12.0991210  33.7289410  91.9899550  16.5042410  24.1788200
  91.3475710  15.8498030  24.4531920  91.6030210  16.9097500  23.4028870
  87.5686030  13.8327840  28.0259890  87.9209850  13.2355970  27.3661260
  86.6848360  13.5072070  28.1968140  83.6549310  14.5925530  25.4330300
  84.3420440  15.1394740  25.8137890  82.8681730  15.1366260  25.4679910
  75.7941710  10.2098350  20.9247380  76.6636560  10.4923150  21.2083300
  75.3032030  11.0234220  20.8096190  82.9576520  11.5971560  25.0455660
  83.4139300  12.4076810  25.2715850  82.6064730  11.2794700  25.8774150
  85.2609130  17.1077900  32.2747960  85.9051350  17.3137280  32.9521380
  85.6238570  16.3466300  31.8218810  78.8588300   1.9409210  25.5178180
  78.7302930   1.9327110  26.4663100  78.0350320   2.2792300  25.1669190
  86.5341210  15.1110250  30.9925410  87.1763440  14.4103410  31.1057580
  87.0590560  15.8908690  30.8122300  90.3796930  15.3958870  20.7164550
  90.1534510  14.6789310  21.3089190  89.9893130  15.1471310  19.8786300
  88.3078830  15.9105150  34.1961470  88.6435070  16.4971840  34.8739390
  87.3879170  15.7797860  34.4259260  76.1612960  19.4225730  21.4909010
  76.5210600  20.0215070  20.8366280  76.0205300  19.9685620  22.2644040
  75.8582230   3.7000330  34.9784880  75.1440750   3.8997250  35.5837490
  76.2777270   2.9239900  35.3499680  89.9613180  13.3130810  22.3778710
  89.6734880  13.7743500  23.1656590  90.7565350  12.8528580  22.6462930
  76.1454820  17.6880590  35.9651410  76.2545940  16.7475330  35.8246800
  75.4935380  17.9535340  35.3165140  84.1367410  15.9596480  37.3649530
  83.8164280  15.2405720  37.9095220  83.4625770  16.6351550  37.4385590
  82.1781580  16.8056930  22.3082680  82.1691680  17.5386620  21.6927190
  81.2579940  16.5588510  22.4009640  77.7788220  12.0271820  23.0529440
  77.1716170  12.7670720  23.0624740  78.2537570  12.1171180  22.2267640
  87.3521010   6.1922640  32.7286330  87.7201830   5.3717850  33.0565900
  86.4919210   6.2524530  33.1441980  90.7183040   5.1479580  23.5373890
  90.0896200   5.2525250  22.8232120  90.2234960   5.3676360  24.3267770
  85.1641180  16.8685170  20.9707870  85.2653160  16.6649160  20.0409850
  84.2642920  16.6143450  21.1755650  82.6867070   7.4265530  24.9531770
  81.9783220   7.8951870  25.3945380  82.9711550   6.7687540  25.5876960
  84.3123000   8.8462230  32.9524300  84.8108250   9.3208050  33.6176150
  84.4545950   7.9225750  33.1594330  86.7182500   4.1516190  26.3927560
  86.5950280   4.1702320  25.4437070  87.6667060   4.1995130  26.5125960
  83.8059290  19.3871490  25.6655540  84.0600790  19.3492880  24.7434910
  82.8571770  19.2604820  25.6583790  80.8902090   5.7350610  22.3282480
  81.7392620   6.1720760  22.2622670  80.5233360   6.0470870  23.1554540
  91.5189860   5.0630190  33.7952690  91.0163460   5.8035590  34.1346500
  92.3346520   5.4514190  33.4789480  89.8111870  10.3063370  27.2414050
  88.8702010  10.3213600  27.4161740  90.1255940   9.5199330  27.6874350
  79.7893510  11.9882970  20.8018010  80.5556780  11.8764330  21.3643440
  79.8668200  11.2920940  20.1494780  78.4840270   9.4208040  21.4850900
  78.5643860   8.4735550  21.5968300  79.3760020   9.7514920  21.5911560
  91.8137450  17.4772220  28.9168310  91.9384870  18.3003390  29.3892120
  92.6803010  17.2662950  28.5692460  79.2854980  19.5703430  28.5885440
  80.0217460  19.0218890  28.8594010  79.6695900  20.4359440  28.4491430
  76.1700460  15.6377000  24.4626950  75.2440240  15.8798140  24.4532360
  76.6356890  16.4651260  24.3411700  78.2913260  18.7549500  37.7771020
  79.0925990  19.0761550  38.1906420  77.7765080  18.3945080  38.4990930
  82.3957290  18.7433740  20.4111010  83.1885900  19.0322570  19.9592800
  81.8761640  18.3125910  19.7323490  87.1277890  14.8629370  37.7246430
  86.5216050  14.8860970  36.9842180  86.8232000  14.1312410  38.2613680
  88.5578260  18.5909660  36.3355840  89.5100010  18.5067680  36.2856080
  88.4106480  19.2551370  37.0089630  91.4487460  17.9703870  21.8347750
  91.1628970  17.5569010  21.0201930  91.2507010  18.8991580  21.7148270
  76.0111070  11.2422960  36.7207070  76.5150090  10.6630240  37.2923300
  75.2718490  11.5263190  37.2583440  82.9134690  13.9637150  20.2753360
  82.8085330  13.3489500  21.0014740  82.7458910  13.4403040  19.4916370
  83.0649010  12.6493950  36.2542590  82.2994680  13.2178950  36.1697260
  83.2464970  12.3570160  35.3610820  86.1537420  13.0257180  20.8795350
  85.6047520  13.4726480  21.5238090  86.7756680  12.5206430  21.4033020
  90.2072360  14.3799280  36.8117610  90.9481830  14.7175040  36.3085070
  89.4445040  14.5491340  36.2587380  78.0434150   9.3852550  37.6157140
  78.0839490   9.0866420  38.5242370  78.8979650   9.7860160  37.4564660
  81.8212540  11.9848100  22.7760650  82.2428960  11.8187970  23.6192040
  81.9463380  11.1748330  22.2815790  79.9839960   7.9644650  35.5831630
  79.4536420   7.4735600  34.9554970  80.6528030   8.3928850  35.0489560
  84.3340180  11.0085710  20.0237750  84.8545840  10.2934730  19.6578900
  84.9808580  11.6471580  20.3238260  88.8818020  12.4314110  35.3472820
  89.2959040  12.5859190  36.1963240  87.9469020  12.5569330  35.5098600
  89.3540190   9.7710270  37.3511970  89.9360960   9.0162590  37.2632450
  89.5301960  10.3017710  36.5743450  80.4712260   4.9307020  35.6628920
  80.3769130   4.3127770  34.9379790  79.8909650   5.6573310  35.4358830
  83.2373700   3.4880260  32.6956310  82.7891000   3.5104520  31.8501860
  82.6038900   3.0899280  33.2926610  83.6433250  12.3834590  33.3168750
  84.0621360  13.2267320  33.1444990  82.7241880  12.5206630  33.0875530
  85.9797150  10.1150770  34.7006590  86.0993360   9.5191910  35.4401430
  86.8391150  10.1520460  34.2807890  88.3185050  10.6687960  33.2769100
  87.7920270  11.1930580  32.6734240  88.6616390  11.3015350  33.9078830
  80.7171440   8.0581330  19.7218810  80.5160500   7.1948690  20.0832150
  80.5463490   7.9714690  18.7840410  81.4940670  18.6887600  34.4326480
  80.9561760  19.4133660  34.1135180  81.7474630  18.2117940  33.6423820
  82.7465920   6.6572120  35.9582410  83.3365610   6.3487970  36.6460230
  81.9286160   6.1851870  36.1142310  87.5659350   6.2737930  36.1915430
  86.8774870   5.6119470  36.1265420  88.2865370   5.8276200  36.6363890
  88.1959750   2.8689560  22.2505690  88.4762040   2.0257460  22.6065110
  87.4225480   3.1012670  22.7644440  79.5154240   5.1581950  19.7096690
  79.8180140   5.1649380  18.8015840  80.2548830   4.8079810  20.2064350
  84.3502880  19.9238810  34.6913130  84.2761580  20.8273950  34.9985500
  83.4481720  19.6050710  34.6635200  82.7339170   4.1016570  20.6952890
  82.3861170   3.4240560  20.1155340  82.9351940   3.6406080  21.5096280
  84.8988210  19.0897320  22.3139490  85.7939000  19.4282290  22.3358250
  84.9305840  18.3676730  21.6863770  78.5384370  14.4624370  20.5426490
  78.9759240  15.0054040  21.1984070  79.0232100  13.6371320  20.5522830
  75.7530170  17.2513400  27.9946750  76.0833180  16.3834460  27.7625390
  76.1821170  17.4571920  28.8251710  80.3492090  15.5822410  25.6548720
  80.0487630  15.4587380  26.5552630  80.2429580  14.7231000  25.2464450
  76.2420380  18.1183990  30.7328380  75.8051370  18.2984790  31.5652530
  76.8098060  18.8758610  30.5910100  91.8782560  17.6200990  35.0205690
  91.2784550  17.6793550  34.2769610  92.0076460  16.6805970  35.1502540
  93.1184010  15.3618810  20.3575400  92.2876970  15.4295460  20.8282630
  93.2955840  16.2522930  20.0542260  92.5740470  12.1066290  22.8609600
  93.3359380  12.6762940  22.9669290  92.5894840  11.5393490  23.6317910
  76.0744810  10.6304220  27.0917260  75.4193650  10.3615860  26.4476960
  76.9122760  10.5208700  26.6419240  93.5800440  12.9616390  27.7051530
  93.9509270  12.1783710  27.2987500  94.2202370  13.6505490  27.5268830
  90.5634200  14.3452970  33.1181850  89.7494040  14.7750130  33.3807640
  90.9708400  14.9571380  32.5050900  92.6259640  12.4000660  20.0182120
  92.9008480  13.3079540  19.8901340  92.4370380  12.3363190  20.9544110
  89.0235250   5.4245510  21.3135750  89.4420130   5.2376490  20.4732410
  88.7171310   4.5724560  21.6238680  92.5224980  10.3369650  25.0111550
  92.1468580   9.5697580  24.5792840  91.7928100  10.7192350  25.4986480
  77.1120740  11.0156790  31.6320600  77.4793780  10.9284190  32.5116620
  76.5431560  10.2523340  31.5327460  91.9124600   9.4841170  34.6451070
  91.6810690   9.2553920  33.7449020  92.1729150  10.4040720  34.5995960
  76.6636740   7.9265880  35.5379020  75.7692790   7.8932640  35.8772730
  77.2034290   8.1252670  36.3030270  90.3512670   4.7097600  37.4230770
  91.2282850   4.7181000  37.8064770  90.3633510   3.9728440  36.8123120
  75.2882890   7.8403150  23.0342590  74.3846970   8.1033350  22.8594250
  75.7723510   8.1114320  22.2542550  91.7975940   8.5627140  28.3118790
  92.3213420   8.0689790  27.6808960  92.3835360   8.6977500  29.0566360
  91.9765660   8.6467010  31.8338340  91.0268370   8.6130550  31.9483330
  92.1578670   9.5567120  31.5988110  77.8310100   6.8968690  20.9436970
  78.5401800   6.4751910  20.4584250  77.1150040   6.9643920  20.3120320
  77.4784260   2.9508020  19.9839620  78.2012390   3.4916960  20.3020840
  77.7508780   2.6771440  19.1081160  91.2875910   7.8200490  24.2511200
  91.7835030   7.5871360  25.0360080  91.0891980   6.9812330  23.8348840
  77.1676450   2.2014210  29.8862240  77.8152640   1.6511590  29.4457400
  77.5878290   2.4557360  30.7078050  92.7163070   6.4561440  26.7848880
  92.6062350   6.3017480  27.7231150  93.4770660   5.9282380  26.5424290
  91.0628790   2.3955570  33.2431880  91.7001010   3.0089710  33.6091070
  91.2103680   2.4316230  32.2981110  93.6053340   4.2869360  20.0255020
  94.5302650   4.1550540  19.8173310  93.5829130   4.3662180  20.9791470
  93.6791830   5.0580020  22.6511730  92.8843330   4.9925140  23.1804640
  93.8835110   5.9930660  22.6397080  90.6210250  19.0971570  26.6450120
  91.2169320  18.7756140  25.9684540  90.8788400  18.6243390  27.4363390
  76.9208450   2.3569880  32.6287560  76.5723270   2.8133700  33.3945740
  76.5896150   1.4627010  32.7109990  78.5272820  15.5289480  36.7940750
  78.4842450  15.1582390  37.6755210  78.6583830  16.4667050  36.9342570
  82.2278850  17.0849070  32.3950470  81.9870210  17.3523630  31.5080990
  83.1681490  17.2554800  32.4501330  84.4333270   3.5481760  36.1506980
  84.3722160   4.1403590  36.9002390  85.3733650   3.4407720  36.0057240
  87.0707830   3.2051820  35.7899270  87.6848240   3.5231110  35.1280350
  87.6157390   2.7200410  36.4095130  93.4883010  19.1043450  33.1961110
  92.9941290  19.5012320  32.4788240  92.8796300  18.4792660  33.5898390
  78.3660850  18.4751730  33.9138530  77.7721170  18.3436430  34.6528570
  78.3584690  17.6389870  33.4480630  88.7187850   3.9754830  33.5010280
  88.3901210   3.1606590  33.1212010  89.6670150   3.9324640  33.3775970
  91.1722460  19.7466870  30.4747850  90.7125430  20.4982680  30.1005870
  90.5434920  19.0273340  30.4162650  77.9973080  15.8410110  32.8646570
  77.2707140  15.2215400  32.7972520  78.0582230  16.2350720  31.9944650
  81.6018180  18.0555110  29.6495980  82.1183200  17.4442470  29.1244240
  82.2515560  18.5583890  30.1406990  84.3413680  18.9463600  30.4764960
  84.6291490  18.6917900  29.5997970  84.8536900  18.3940960  31.0670530
  85.5590690   2.6853800  31.0561470  84.7762480   3.1599300  31.3358230
  85.2653620   1.7808630  30.9474650  90.1111760   3.3876900  29.1010560
  90.5519850   3.3322000  28.2532160  89.8419350   4.3034910  29.1720740
  91.9750330   3.0192140  27.1119380  91.9138730   2.0753360  26.9650400
  92.7542360   3.1272230  27.6572840  76.2803080  19.1584500  26.0743330
  76.1125120  18.5255180  26.7725220  75.4137590  19.3643900  25.7237520
  76.9031100   2.9901280  23.5775190  77.6610460   3.1030160  23.0039220
  76.4408270   3.8270480  23.5318620  83.4444910   5.1040550  26.5677500
  82.6319420   4.7297440  26.2273380  83.9486550   4.3485630  26.8698690
  87.9469890   1.7683000  27.8060570  88.5499260   2.3403210  28.2809090
  87.2062880   2.3322440  27.5834470  91.0904490   2.1704560  23.0800850
  91.2855120   3.0688010  23.3468280  90.3034360   1.9391640  23.5733800
  77.8865780  17.8517730  23.5193470  77.3613400  18.2325760  22.8155430
  77.8110360  18.4768500  24.2403180  79.2756250   3.5165330  22.1177160
  79.8049010   2.7295130  21.9885110  79.9084570   4.1956520  22.3512690
  81.4694090   3.2540470  25.1722550  80.8396830   2.5527780  25.3392680
  80.9299230   4.0144600  24.9555710  84.4086040  19.8679700  37.8433160
  85.3353350  19.6323970  37.8869120  84.3936470  20.6951700  37.3619190
  92.6431100  19.4105270  24.8407410  92.8183290  18.7243010  24.1968330
  91.9452670  19.9352320  24.4484080  81.5949650   2.5324450  37.6075040
  81.3133920   3.0358050  36.8435860  81.9769350   1.7346200  37.2417170
  80.4858750  19.8000110  22.3942720  81.2177570  19.5159390  21.8466610
  80.7452420  19.5613390  23.2842100  79.6473540  15.9164840  22.3989050
  79.0182420  16.3849940  22.9474880  79.7621370  15.0714060  22.8335240
  88.1965110   1.9478030  38.1855510  88.0830560   2.2672640  39.0807030
  89.0134850   2.3490540  37.8892790  90.9763600  19.0949560  37.6674200
  91.7688920  18.5998790  37.4600160  91.2696750  19.7739700  38.2749810
  87.1023260   9.9670500   8.5490250  87.0217310   9.0525110   8.2781960
  86.6887680  10.4637570   7.8429960  85.2341300  11.7449520  10.4299520
  84.4583400  11.2649960  10.7198090  85.8854230  11.0655170  10.2555680
  79.2507130  12.0569330  11.3075280  78.4192010  11.8018040  11.7071790
  79.8588110  12.1280100  12.0433200  89.2548730  16.1509710   9.2098650
  88.7930260  15.3796950   9.5385820  90.0674280  16.1775780   9.7151100
  79.2308390  16.0909420  11.5033300  79.5336430  15.2007160  11.3243520
  79.9751980  16.6479640  11.2755550  77.6599080   7.0171220   5.0917670
  76.7715780   7.3587190   4.9897550  77.9440270   6.8171540   4.1998500
  75.6232090   9.6176870  10.9757370  76.1948200   8.8499070  10.9761010
  75.6233630   9.9165630  10.0663980  85.4812040  18.4367720   8.8302640
  84.8623480  18.8925220   8.2597080  86.3363820  18.5919180   8.4292340
  84.6750290  14.4206710  10.4369680  84.6058570  13.4796650  10.2758810
  85.4370150  14.5108120  11.0092250  76.8656960   5.0261230  12.7626300
  76.6859800   4.1286980  13.0429060  76.4637040   5.5733100  13.4373250
  85.7055460   7.2277090  10.6638610  86.0820280   6.3548970  10.5512280
  85.6074970   7.5635790   9.7729050  79.8360470   5.6002720   6.1256050
  79.9427220   6.5006450   6.4324810  78.9252830   5.5520690   5.8350700
  89.4879580   4.7227530   7.5966950  90.3089200   4.2324100   7.6392430
  89.5213660   5.3125190   8.3498790  77.4843630   7.5221730  11.3708640
  78.1653740   7.7860100  11.9896040  77.1691680   6.6822600  11.7046650
  81.6768200   8.5689090  10.4581230  82.1846420   9.0670060  11.0986250
  82.2081440   7.7924290  10.2820590  93.7779130   6.7394280  14.1610580
  93.0731300   7.1275990  13.6425690  94.0437050   7.4344570  14.7631510
  79.9604300   3.2087650  14.7244650  79.9622740   3.7260040  13.9190550
  79.1308610   2.7317830  14.7014580  86.3475390  13.3206960   6.2234550
  85.7292660  13.7856410   5.6597270  86.8598640  14.0134440   6.6404060
  81.2107150  12.8482830  12.9018150  80.8776530  13.4751750  13.5439220
  81.3873830  13.3744710  12.1219820  89.7241060   6.6627910  10.3694490
  89.0196630   6.9512800  10.9497600  90.0853220   7.4728020  10.0094050
  79.6419630   4.9197610  12.7315100  79.9836440   5.7639660  12.4368970
  78.7035440   5.0681350  12.8480440  80.4226250  14.8163630  14.7167330
  81.0400250  15.4914710  14.4351780  79.5619370  15.2251610  14.6254830
  75.7158590  14.0063490   3.5974180  75.3386570  14.4950590   2.8659080
  75.9731660  14.6788770   4.2280710  91.3403840  16.2803040  12.6321970
  90.6567360  16.9502150  12.6238640  91.8798130  16.4783690  11.8666830
  92.7927980   6.1082700  10.7603700  91.8452890   6.1421680  10.8919130
  93.1177970   6.9221650  11.1453060  83.3247520   2.4079880   9.0559690
  83.6322500   1.8526770   8.3395190  82.3948220   2.5424340   8.8732680
  88.8762580  18.1247170  11.3467150  88.8889740  17.7209460  10.4789410
  88.3237800  18.8994460  11.2428580  90.1708000  14.8463390   6.4357320
  90.0604330  13.9037720   6.5606740  90.1676250  15.2079030   7.3220080
  88.2748020  13.0277010  12.6749760  88.6916810  12.8137120  11.8403220
  88.9987840  13.2849800  13.2458380  85.7128280  10.4728710   5.7919810
  84.7857560  10.4066090   6.0208280  85.8653100  11.4108840   5.6775050
  85.6997360   6.7445710   2.7886970  84.7601030   6.9059670   2.8739430
  86.0180620   7.4631390   2.2422960  92.2210120  11.4264230  12.7666000
  91.3928750  11.4957320  12.2916130  92.8160600  12.0118540  12.2981830
  89.7425570  12.0349010   6.2955060  89.1237990  11.6968560   5.6481360
  89.7250020  11.3908770   7.0034250  89.1852130   8.2133550  13.7120870
  88.7723310   9.0387260  13.9660860  88.4528080   7.6278590  13.5197230
  81.3184920  10.9993450   8.5739540  80.9141920  10.2870700   8.0785440
  81.4048040  10.6546690   9.4627580  81.7866620  14.6861010  10.7378750
  81.4894910  14.0806480  10.0586530  82.7366440  14.7238320  10.6268110
  80.0313540   7.7736660  12.3538580  80.5828130   7.8832000  11.5791830
  80.5457050   8.1474260  13.0693810  89.8752230  18.2592880  14.4001850
  89.3982790  19.0665070  14.2074460  89.1914020  17.6071210  14.5528060
  80.8785050  14.4242700  17.3886550  79.9813580  14.6482670  17.6359950
  80.9037920  14.5477640  16.4397950  87.9190270  11.2735820   3.3027810
  88.3583550  10.4358250   3.1565630  88.6318690  11.9065220   3.3891950
  79.7056270  11.2956020  15.9643920  79.5664040  12.1678820  16.3331320
  78.8237630  10.9528830  15.8191860  86.0285650  16.2131890   7.2709050
  86.4681560  16.9556220   6.8564440  85.9672540  16.4558460   8.1948010
  81.5036620  17.2377720  18.1729070  81.4752050  17.6420670  17.3057500
  81.3401590  16.3088080  18.0100670  78.0189550   9.8938430   6.0746190
  77.8987150  10.6200520   5.4627460  77.7090440   9.1241340   5.5974100
  93.4551440  18.0204820  19.4693240  93.9311160  18.4987710  20.1482320
  94.0758600  17.9522310  18.7438740  75.6574920  13.0653570  11.8814830
  75.7355340  13.2002340  10.9370550  76.2716600  12.3569460  12.0742950
  76.9022550  14.7653760   8.2921010  76.4950630  14.9068350   7.4374610
  77.7935560  14.4813920   8.0892220  92.8584690  15.2117670  16.6293250
  92.9847750  14.9729550  15.7110430  92.9006070  14.3802210  17.1015330
  86.7201430  18.9145670  15.1988060  87.2346100  18.8253680  16.0010490
  85.8770510  19.2605370  15.4915970  88.6955830  19.2001010   4.6272060
  88.5356970  18.9103950   5.5253890  88.5302540  18.4241140   4.0917290
  81.1744210  18.9799540   6.4043680  80.9986690  18.0635080   6.1911480
  80.3199950  19.3386830   6.6441480  88.3981960  16.7088570   3.1870060
  87.7047120  16.7065860   2.5272340  89.1404820  16.2847890   2.7564230
  87.9631890  18.3351280   7.2618550  88.4188840  17.5540660   7.5757170
  88.3024410  19.0458100   7.8059730  92.7108700   7.2650130  17.5942990
  92.0952970   7.7729800  17.0658450  92.3905120   6.3648460  17.5368930
  75.7134440  14.1067740  14.4209290  75.8765480  13.6373100  13.6028660
  76.1786890  13.5991300  15.0858130  80.4853210   3.2373500   9.4569860
  80.0421360   4.0183040   9.1254380  81.0438200   3.5603390  10.1640800
  84.7723020   6.1042020  15.0605180  84.3102390   6.3125040  15.8725120
  84.3701130   5.2901370  14.7575850  89.7727530   7.3250970  16.1901840
  88.9221120   7.0256720  16.5110910  89.6129320   7.5692980  15.2785660
  86.8677240   8.8252720  18.2900630  87.1930650   7.9916470  17.9502860
  87.6557570   9.3481240  18.4378960  83.6012030   2.8584200   4.3375690
  82.9766210   2.8544070   5.0629000  83.5142150   1.9915160   3.9411660
  82.5229110   3.7820830  11.3159460  82.8201440   4.6883660  11.2351480
  83.0714670   3.2939610  10.7019030  80.2767430   8.3607070   7.1851110
  80.0508350   8.1444240   8.0897730  79.4959960   8.7935530   6.8397080
  87.5065190   8.3670440   5.7841760  86.9074080   9.0906240   5.6005380
  88.0544800   8.3047220   5.0018210  82.7166640   9.2592650  17.8511380
  82.6210240   8.3187380  17.7011780  83.5598620   9.4807720  17.4559450
  86.1130060   7.0033980   7.8145040  86.5059630   7.3206180   7.0013730
  86.4746910   6.1245860   7.9289560  77.8477180   5.6706320  16.0045160
  77.4540570   6.5181530  16.2117940  77.1595580   5.0332690  16.1953800
  84.4222230   5.7541290  19.0741900  83.7320550   5.5613490  19.7087990
  85.1654530   6.0375930  19.6066200  75.1494230   3.5934780  10.0375240
  74.8607280   4.1637640  10.7500220  75.8939990   3.1139230  10.4006470
  86.6985200   9.5939730  11.9095820  85.9666320  10.1026540  12.2585920
  86.3009540   8.7769710  11.6084600  83.1362590   6.2693930  10.3148310
  83.1398650   5.8283880   9.4652850  84.0313710   6.5911260  10.4220130
  78.9864970   6.1520420   9.2742520  78.6465020   6.6295650  10.0309570
  78.2242290   5.6985540   8.9143620  83.1982740   7.2706010   3.3055070
  83.3195560   7.2292490   4.2540890  82.8131250   8.1330160   3.1501800
  87.1611110   5.0473410  11.3218760  87.1783850   5.4982060  12.1660610
  86.9126690   4.1479050  11.5352200  82.2104240   9.5807150   2.7038370
  81.6421140   9.1325400   2.0774280  82.9193240   9.9399930   2.1703520
  90.5881860   2.4605590  17.1605140  90.9127630   1.7295250  17.6863120
  90.6238370   2.1419230  16.2586130  77.2873420  13.4819170  16.5805100
  76.9028210  12.8412840  17.1788060  77.5985610  14.1855290  17.1499830
  83.4370560  10.3295710  12.0613720  83.8040690   9.8554280  12.8075060
  83.2475620  11.2037280  12.4022060  76.3011050   5.0739400   8.1907190
  76.0157970   4.7095070   9.0285810  76.2389910   4.3419860   7.5770330
  81.2269930   9.3704350  14.3797930  80.9227000  10.2496330  14.6048290
  82.1816390   9.4304140  14.4155370  79.7551720  13.5765340   4.9764780
  78.9813980  13.0362960   4.8163500  80.4846350  13.0571950   4.6382540
  90.5139700  12.5730700  10.7691170  91.2338820  13.0685990  10.3787280
  90.3121520  11.8948590  10.1245040  85.9749640   3.9668660   4.9120560
  85.1614250   3.4681830   4.8365870  85.7811590   4.8066910   4.4956910
  85.8958500  12.6439760  16.6560170  85.8295810  11.7235430  16.4017760
  85.2663640  12.7415200  17.3704810  88.6898030   8.3388310   3.2082720
  89.5777650   8.6505540   3.0334060  88.6603120   7.4660560   2.8163300
  79.7989120  13.2445720   8.6143590  80.3167790  12.4413980   8.5600480
  79.3473140  13.1824860   9.4560420  84.6858620  14.5112000   3.8870890
  85.0274320  15.2554230   3.3914210  83.8571330  14.8243120   4.2495720
  77.2833660  10.2107090  15.5269290  76.9248600  10.8760940  16.1142630
  76.9888220   9.3790640  15.8981910  80.4846780  10.6691330  18.4108840
  80.1846920  10.8148510  17.5136660  81.2558020  10.1096620  18.3182230
  85.8275230  15.4660330  16.4063970  85.8419770  14.5341290  16.1882880
  85.1200330  15.5520090  17.0453740  90.9612300   9.6500150   2.6762580
  90.8776020  10.0814370   1.8259020  91.6806490  10.1098500   3.1089400
  92.0386440  12.1067670  15.7532550  91.3134630  12.6996450  15.5561940
  92.5661900  12.0991210  14.9545920  91.9899550  16.5042410   5.4044710
  91.3475710  15.8498030   5.6788430  91.6030210  16.9097500   4.6285380
  87.5686030  13.8327840   9.2516400  87.9209850  13.2355970   8.5917770
  86.6848360  13.5072070   9.4224650  83.6549310  14.5925530   6.6586810
  84.3420440  15.1394740   7.0394400  82.8681730  15.1366260   6.6936420
  75.7941710  10.2098350   2.1503890  76.6636560  10.4923150   2.4339810
  75.3032030  11.0234220   2.0352700  82.9576520  11.5971560   6.2712170
  83.4139300  12.4076810   6.4972360  82.6064730  11.2794700   7.1030660
  85.2609130  17.1077900  13.5004470  85.9051350  17.3137280  14.1777890
  85.6238570  16.3466300  13.0475320  78.8588300   1.9409210   6.7434690
  78.7302930   1.9327110   7.6919610  78.0350320   2.2792300   6.3925700
  86.5341210  15.1110250  12.2181920  87.1763440  14.4103410  12.3314090
  87.0590560  15.8908690  12.0378810  88.3078830  15.9105150  15.4217980
  88.6435070  16.4971840  16.0995900  87.3879170  15.7797860  15.6515770
  76.1612960  19.4225730   2.7165520  76.5210600  20.0215070   2.0622790
  76.0205300  19.9685620   3.4900550  75.8582230   3.7000330  16.2041390
  75.1440750   3.8997250  16.8094000  76.2777270   2.9239900  16.5756190
  89.9613180  13.3130810   3.6035220  89.6734880  13.7743500   4.3913100
  90.7565350  12.8528580   3.8719440  76.1454820  17.6880590  17.1907920
  76.2545940  16.7475330  17.0503310  75.4935380  17.9535340  16.5421650
  84.1367410  15.9596480  18.5906040  83.8164280  15.2405720  19.1351730
  83.4625770  16.6351550  18.6642100  82.1781580  16.8056930   3.5339190
  82.1691680  17.5386620   2.9183700  81.2579940  16.5588510   3.6266150
  77.7788220  12.0271820   4.2785950  77.1716170  12.7670720   4.2881250
  78.2537570  12.1171180   3.4524150  87.3521010   6.1922640  13.9542840
  87.7201830   5.3717850  14.2822410  86.4919210   6.2524530  14.3698490
  90.7183040   5.1479580   4.7630400  90.0896200   5.2525250   4.0488630
  90.2234960   5.3676360   5.5524280  82.6867070   7.4265530   6.1788280
  81.9783220   7.8951870   6.6201890  82.9711550   6.7687540   6.8133470
  84.3123000   8.8462230  14.1780810  84.8108250   9.3208050  14.8432660
  84.4545950   7.9225750  14.3850840  86.7182500   4.1516190   7.6184070
  86.5950280   4.1702320   6.6693580  87.6667060   4.1995130   7.7382470
  83.8059290  19.3871490   6.8912050  84.0600790  19.3492880   5.9691420
  82.8571770  19.2604820   6.8840300  80.8902090   5.7350610   3.5538990
  81.7392620   6.1720760   3.4879180  80.5233360   6.0470870   4.3811050
  91.5189860   5.0630190  15.0209200  91.0163460   5.8035590  15.3603010
  92.3346520   5.4514190  14.7045990  89.8111870  10.3063370   8.4670560
  88.8702010  10.3213600   8.6418250  90.1255940   9.5199330   8.9130860
  78.4840270   9.4208040   2.7107410  78.5643860   8.4735550   2.8224810
  79.3760020   9.7514920   2.8168070  91.8137450  17.4772220  10.1424820
  91.9384870  18.3003390  10.6148630  92.6803010  17.2662950   9.7948970
  79.2854980  19.5703430   9.8141950  80.0217460  19.0218890  10.0850520
  79.6695900  20.4359440   9.6747940  76.1700460  15.6377000   5.6883460
  75.2440240  15.8798140   5.6788870  76.6356890  16.4651260   5.5668210
  78.2913260  18.7549500  19.0027530  79.0925990  19.0761550  19.4162930
  77.7765080  18.3945080  19.7247440  87.1277890  14.8629370  18.9502940
  86.5216050  14.8860970  18.2098690  86.8232000  14.1312410  19.4870190
  88.5578260  18.5909660  17.5612350  89.5100010  18.5067680  17.5112590
  88.4106480  19.2551370  18.2346140  91.4487460  17.9703870   3.0604260
  91.1628970  17.5569010   2.2458440  91.2507010  18.8991580   2.9404780
  76.0111070  11.2422960  17.9463580  76.5150090  10.6630240  18.5179810
  75.2718490  11.5263190  18.4839950  83.0649010  12.6493950  17.4799100
  82.2994680  13.2178950  17.3953770  83.2464970  12.3570160  16.5867330
  86.1537420  13.0257180   2.1051860  85.6047520  13.4726480   2.7494600
  86.7756680  12.5206430   2.6289530  90.2072360  14.3799280  18.0374120
  90.9481830  14.7175040  17.5341580  89.4445040  14.5491340  17.4843890
  78.0434150   9.3852550  18.8413650  78.0839490   9.0866420  19.7498880
  78.8979650   9.7860160  18.6821170  81.8212540  11.9848100   4.0017160
  82.2428960  11.8187970   4.8448550  81.9463380  11.1748330   3.5072300
  79.9839960   7.9644650  16.8088140  79.4536420   7.4735600  16.1811480
  80.6528030   8.3928850  16.2746070  88.8818020  12.4314110  16.5729330
  89.2959040  12.5859190  17.4219750  87.9469020  12.5569330  16.7355110
  89.3540190   9.7710270  18.5768480  89.9360960   9.0162590  18.4888960
  89.5301960  10.3017710  17.7999960  80.4712260   4.9307020  16.8885430
  80.3769130   4.3127770  16.1636300  79.8909650   5.6573310  16.6615340
  83.2373700   3.4880260  13.9212820  82.7891000   3.5104520  13.0758370
  82.6038900   3.0899280  14.5183120  83.6433250  12.3834590  14.5425260
  84.0621360  13.2267320  14.3701500  82.7241880  12.5206630  14.3132040
  85.9797150  10.1150770  15.9263100  86.0993360   9.5191910  16.6657940
  86.8391150  10.1520460  15.5064400  88.3185050  10.6687960  14.5025610
  87.7920270  11.1930580  13.8990750  88.6616390  11.3015350  15.1335340
  81.4940670  18.6887600  15.6582990  80.9561760  19.4133660  15.3391690
  81.7474630  18.2117940  14.8680330  82.7465920   6.6572120  17.1838920
  83.3365610   6.3487970  17.8716740  81.9286160   6.1851870  17.3398820
  87.5659350   6.2737930  17.4171940  86.8774870   5.6119470  17.3521930
  88.2865370   5.8276200  17.8620400  88.1959750   2.8689560   3.4762200
  88.4762040   2.0257460   3.8321620  87.4225480   3.1012670   3.9900950
  84.3502880  19.9238810  15.9169640  84.2761580  20.8273950  16.2242010
  83.4481720  19.6050710  15.8891710  84.8988210  19.0897320   3.5396000
  85.7939000  19.4282290   3.5614760  84.9305840  18.3676730   2.9120280
  78.5384370  14.4624370   1.7683000  78.9759240  15.0054040   2.4240580
  79.0232100  13.6371320   1.7779340  75.7530170  17.2513400   9.2203260
  76.0833180  16.3834460   8.9881900  76.1821170  17.4571920  10.0508220
  80.3492090  15.5822410   6.8805230  80.0487630  15.4587380   7.7809140
  80.2429580  14.7231000   6.4720960  76.2420380  18.1183990  11.9584890
  75.8051370  18.2984790  12.7909040  76.8098060  18.8758610  11.8166610
  91.8782560  17.6200990  16.2462200  91.2784550  17.6793550  15.5026120
  92.0076460  16.6805970  16.3759050  92.5740470  12.1066290   4.0866110
  93.3359380  12.6762940   4.1925800  92.5894840  11.5393490   4.8574420
  76.0744810  10.6304220   8.3173770  75.4193650  10.3615860   7.6733470
  76.9122760  10.5208700   7.8675750  93.5800440  12.9616390   8.9308040
  93.9509270  12.1783710   8.5244010  94.2202370  13.6505490   8.7525340
  90.5634200  14.3452970  14.3438360  89.7494040  14.7750130  14.6064150
  90.9708400  14.9571380  13.7307410  89.0235250   5.4245510   2.5392260
  89.4420130   5.2376490   1.6988920  88.7171310   4.5724560   2.8495190
  92.5224980  10.3369650   6.2368060  92.1468580   9.5697580   5.8049350
  91.7928100  10.7192350   6.7242990  77.1120740  11.0156790  12.8577110
  77.4793780  10.9284190  13.7373130  76.5431560  10.2523340  12.7583970
  91.9124600   9.4841170  15.8707580  91.6810690   9.2553920  14.9705530
  92.1729150  10.4040720  15.8252470  76.6636740   7.9265880  16.7635530
  75.7692790   7.8932640  17.1029240  77.2034290   8.1252670  17.5286780
  90.3512670   4.7097600  18.6487280  91.2282850   4.7181000  19.0321280
  90.3633510   3.9728440  18.0379630  75.2882890   7.8403150   4.2599100
  74.3846970   8.1033350   4.0850760  75.7723510   8.1114320   3.4799060
  91.7975940   8.5627140   9.5375300  92.3213420   8.0689790   8.9065470
  92.3835360   8.6977500  10.2822870  91.9765660   8.6467010  13.0594850
  91.0268370   8.6130550  13.1739840  92.1578670   9.5567120  12.8244620
  91.2875910   7.8200490   5.4767710  91.7835030   7.5871360   6.2616590
  91.0891980   6.9812330   5.0605350  77.1676450   2.2014210  11.1118750
  77.8152640   1.6511590  10.6713910  77.5878290   2.4557360  11.9334560
  92.7163070   6.4561440   8.0105390  92.6062350   6.3017480   8.9487660
  93.4770660   5.9282380   7.7680800  91.0628790   2.3955570  14.4688390
  91.7001010   3.0089710  14.8347580  91.2103680   2.4316230  13.5237620
  93.6791830   5.0580020   3.8768240  92.8843330   4.9925140   4.4061150
  93.8835110   5.9930660   3.8653590  90.6210250  19.0971570   7.8706630
  91.2169320  18.7756140   7.1941050  90.8788400  18.6243390   8.6619900
  76.9208450   2.3569880  13.8544070  76.5723270   2.8133700  14.6202250
  76.5896150   1.4627010  13.9366500  78.5272820  15.5289480  18.0197260
  78.4842450  15.1582390  18.9011720  78.6583830  16.4667050  18.1599080
  82.2278850  17.0849070  13.6206980  81.9870210  17.3523630  12.7337500
  83.1681490  17.2554800  13.6757840  84.4333270   3.5481760  17.3763490
  84.3722160   4.1403590  18.1258900  85.3733650   3.4407720  17.2313750
  87.0707830   3.2051820  17.0155780  87.6848240   3.5231110  16.3536860
  87.6157390   2.7200410  17.6351640  93.4883010  19.1043450  14.4217620
  92.9941290  19.5012320  13.7044750  92.8796300  18.4792660  14.8154900
  78.3660850  18.4751730  15.1395040  77.7721170  18.3436430  15.8785080
  78.3584690  17.6389870  14.6737140  88.7187850   3.9754830  14.7266790
  88.3901210   3.1606590  14.3468520  89.6670150   3.9324640  14.6032480
  91.1722460  19.7466870  11.7004360  90.7125430  20.4982680  11.3262380
  90.5434920  19.0273340  11.6419160  77.9973080  15.8410110  14.0903080
  77.2707140  15.2215400  14.0229030  78.0582230  16.2350720  13.2201160
  81.6018180  18.0555110  10.8752490  82.1183200  17.4442470  10.3500750
  82.2515560  18.5583890  11.3663500  84.3413680  18.9463600  11.7021470
  84.6291490  18.6917900  10.8254480  84.8536900  18.3940960  12.2927040
  85.5590690   2.6853800  12.2817980  84.7762480   3.1599300  12.5614740
  85.2653620   1.7808630  12.1731160  90.1111760   3.3876900  10.3267070
  90.5519850   3.3322000   9.4788670  89.8419350   4.3034910  10.3977250
  91.9750330   3.0192140   8.3375890  91.9138730   2.0753360   8.1906910
  92.7542360   3.1272230   8.8829350  76.2803080  19.1584500   7.2999840
  76.1125120  18.5255180   7.9981730  75.4137590  19.3643900   6.9494030
  76.9031100   2.9901280   4.8031700  77.6610460   3.1030160   4.2295730
  76.4408270   3.8270480   4.7575130  83.4444910   5.1040550   7.7934010
  82.6319420   4.7297440   7.4529890  83.9486550   4.3485630   8.0955200
  87.9469890   1.7683000   9.0317080  88.5499260   2.3403210   9.5065600
  87.2062880   2.3322440   8.8090980  91.0904490   2.1704560   4.3057360
  91.2855120   3.0688010   4.5724790  90.3034360   1.9391640   4.7990310
  77.8865780  17.8517730   4.7449980  77.3613400  18.2325760   4.0411940
  77.8110360  18.4768500   5.4659690  79.2756250   3.5165330   3.3433670
  79.8049010   2.7295130   3.2141620  79.9084570   4.1956520   3.5769200
  81.4694090   3.2540470   6.3979060  80.8396830   2.5527780   6.5649190
  80.9299230   4.0144600   6.1812220  84.4086040  19.8679700  19.0689670
  85.3353350  19.6323970  19.1125630  84.3936470  20.6951700  18.5875700
  92.6431100  19.4105270   6.0663920  92.8183290  18.7243010   5.4224840
  91.9452670  19.9352320   5.6740590  81.5949650   2.5324450  18.8331550
  81.3133920   3.0358050  18.0692370  81.9769350   1.7346200  18.4673680
  80.4858750  19.8000110   3.6199230  81.2177570  19.5159390   3.0723120
  80.7452420  19.5613390   4.5098610  79.6473540  15.9164840   3.6245560
  79.0182420  16.3849940   4.1731390  79.7621370  15.0714060   4.0591750
  88.1965110   1.9478030  19.4112020  88.0830560   2.2672640  20.3063540
  89.0134850   2.3490540  19.1149300  90.9763600  19.0949560  18.8930710
  91.7688920  18.5998790  18.6856670  91.2696750  19.7739700  19.5006320
  68.3279770 141.3874930 139.9694680  68.2473820 140.4729540 139.6986390
  67.9144190 141.8842000 139.2634390  66.4597810 143.1653950 141.8503950
  65.6839910 142.6854390 142.1402520  67.1110740 142.4859600 141.6760110
  60.4763640 143.4773760 142.7279710  59.6448520 143.2222470 143.1276220
  61.0844620 143.5484530 143.4637630  70.4805240 147.5714140 140.6303080
  70.0186770 146.8001380 140.9590250  71.2930790 147.5980210 141.1355530
  60.4564900 147.5113850 142.9237730  60.7592940 146.6211590 142.7447950
  61.2008490 148.0684070 142.6959980  58.8855590 138.4375650 136.5122100
  57.9972290 138.7791620 136.4101980  59.1696780 138.2375970 135.6202930
  56.8488600 141.0381300 142.3961800  57.4204710 140.2703500 142.3965440
  56.8490140 141.3370060 141.4868410  66.7068550 149.8572150 140.2507070
  66.0879990 150.3129650 139.6801510  67.5620330 150.0123610 139.8496770
  65.9006800 145.8411140 141.8574110  65.8315080 144.9001080 141.6963240
  66.6626660 145.9312550 142.4296680  58.0913470 136.4465660 144.1830730
  57.9116310 135.5491410 144.4633490  57.6893550 136.9937530 144.8577680
  66.9311970 138.6481520 142.0843040  67.3076790 137.7753400 141.9716710
  66.8331480 138.9840220 141.1933480  61.0616980 137.0207150 137.5460480
  61.1683730 137.9210880 137.8529240  60.1509340 136.9725120 137.2555130
  70.7136090 136.1431960 139.0171380  71.5345710 135.6528530 139.0596860
  70.7470170 136.7329620 139.7703220  58.7100140 138.9426160 142.7913070
  59.3910250 139.2064530 143.4100470  58.3948190 138.1027030 143.1251080
  62.9024710 139.9893520 141.8785660  63.4102930 140.4874490 142.5190680
  63.4337950 139.2128720 141.7025020  75.0035640 138.1598710 145.5815010
  74.2987810 138.5480420 145.0630120  75.2693560 138.8549000 146.1835940
  61.1860810 134.6292080 146.1449080  61.1879250 135.1464470 145.3394980
  60.3565120 134.1522260 146.1219010  67.5731900 144.7411390 137.6438980
  66.9549170 145.2060840 137.0801700  68.0855150 145.4338870 138.0608490
  62.4363660 144.2687260 144.3222580  62.1033040 144.8956180 144.9643650
  62.6130340 144.7949140 143.5424250  70.9497570 138.0832340 141.7898920
  70.2453140 138.3717230 142.3702030  71.3109730 138.8932450 141.4298480
  60.8676140 136.3402040 144.1519530  61.2092950 137.1844090 143.8573400
  59.9291950 136.4885780 144.2684870  61.6482760 146.2368060 146.1371760
  62.2656760 146.9119140 145.8556210  60.7875880 146.6456040 146.0459260
  56.9415100 145.4267920 135.0178610  56.5643080 145.9155020 134.2863510
  57.1988170 146.0993200 135.6485140  72.5660350 147.7007470 144.0526400
  71.8823870 148.3706580 144.0443070  73.1054640 147.8988120 143.2871260
  74.0184490 137.5287130 142.1808130  73.0709400 137.5626110 142.3123560
  74.3434480 138.3426080 142.5657490  64.5504030 133.8284310 140.4764120
  64.8579010 133.2731200 139.7599620  63.6204730 133.9628770 140.2937110
  70.1019090 149.5451600 142.7671580  70.1146250 149.1413890 141.8993840
  69.5494310 150.3198890 142.6633010  71.3964510 146.2667820 137.8561750
  71.2860840 145.3242150 137.9811170  71.3932760 146.6283460 138.7424510
  69.5004530 144.4481440 144.0954190  69.9173320 144.2341550 143.2607650
  70.2244350 144.7054230 144.6662810  66.9384790 141.8933140 137.2124240
  66.0114070 141.8270520 137.4412710  67.0909610 142.8313270 137.0979480
  66.9253870 138.1650140 134.2091400  65.9857540 138.3264100 134.2943860
  67.2437130 138.8835820 133.6627390  73.4466630 142.8468660 144.1870430
  72.6185260 142.9161750 143.7120560  74.0417110 143.4322970 143.7186260
  70.9682080 143.4553440 137.7159490  70.3494500 143.1172990 137.0685790
  70.9506530 142.8113200 138.4238680  70.4108640 139.6337980 145.1325300
  69.9979820 140.4591690 145.3865290  69.6784590 139.0483020 144.9401660
  62.5441430 142.4197880 139.9943970  62.1398430 141.7075130 139.4989870
  62.6304550 142.0751120 140.8832010  63.0123130 146.1065440 142.1583180
  62.7151420 145.5010910 141.4790960  63.9622950 146.1442750 142.0472540
  61.2570050 139.1941090 143.7743010  61.8084640 139.3036430 142.9996260
  61.7713560 139.5678690 144.4898240  71.1008740 149.6797310 145.8206280
  70.6239300 150.4869500 145.6278890  70.4170530 149.0275640 145.9732490
  62.1041560 145.8447130 148.8090980  61.2070090 146.0687100 149.0564380
  62.1294430 145.9682070 147.8602380  69.1446780 142.6940250 134.7232240
  69.5840060 141.8562680 134.5770060  69.8575200 143.3269650 134.8096380
  60.9312780 142.7160450 147.3848350  60.7920550 143.5883250 147.7535750
  60.0494140 142.3733260 147.2396290  67.2542160 147.6336320 138.6913480
  67.6938070 148.3760650 138.2768870  67.1929050 147.8762890 139.6152440
  62.7293130 148.6582150 149.5933500  62.7008560 149.0625100 148.7261930
  62.5658100 147.7292510 149.4305100  72.7263920 133.9483060 133.0373280
  72.4136580 134.0409890 133.9372350  73.4876390 134.5264090 132.9870710
  59.2446060 141.3142860 137.4950620  59.1243660 142.0404950 136.8831890
  58.9346950 140.5445770 137.0178530  56.8831430 144.4858000 143.3019260
  56.9611850 144.6206770 142.3574980  57.4973110 143.7773890 143.4947380
  58.1279060 146.1858190 139.7125440  57.7207140 146.3272780 138.8579040
  59.0192070 145.9018350 139.5096650  74.0841200 146.6322100 148.0497680
  74.2104260 146.3933980 147.1314860  74.1262580 145.8006640 148.5219760
  67.9457940 150.3350100 146.6192490  68.4602610 150.2458110 147.4214920
  67.1027020 150.6809800 146.9120400  69.9212340 150.6205440 136.0476490
  69.7613480 150.3308380 136.9458320  69.7559050 149.8445570 135.5121720
  62.4000720 150.4003970 137.8248110  62.2243200 149.4839510 137.6115910
  61.5456460 150.7591260 138.0645910  69.6238470 148.1293000 134.6074490
  68.9303630 148.1270290 133.9476770  70.3661330 147.7052320 134.1768660
  69.1888400 149.7555710 138.6822980  69.6445350 148.9745090 138.9961600
  69.5280920 150.4662530 139.2264160  73.9365210 138.6854560 149.0147420
  73.3209480 139.1934230 148.4862880  73.6161630 137.7852890 148.9573360
  56.9390950 145.5272170 145.8413720  57.1021990 145.0577530 145.0233090
  57.4043400 145.0195730 146.5062560  61.7109720 134.6577930 140.8774290
  61.2677870 135.4387470 140.5458810  62.2694710 134.9807820 141.5845230
  65.9979530 137.5246450 146.4809610  65.5358900 137.7329470 147.2929550
  65.5957640 136.7105800 146.1780280  70.9984040 138.7455400 147.6106270
  70.1477630 138.4461150 147.9315340  70.8385830 138.9897410 146.6990090
  68.0933750 140.2457150 149.7105060  68.4187160 139.4120900 149.3707290
  68.8814080 140.7685670 149.8583390  64.8268540 134.2788630 135.7580120
  64.2022720 134.2748500 136.4833430  64.7398660 133.4119590 135.3616090
  63.7485620 135.2025260 142.7363890  64.0457950 136.1088090 142.6555910
  64.2971180 134.7144040 142.1223460  61.5023940 139.7811500 138.6055540
  61.2764860 139.5648670 139.5102160  60.7216470 140.2139960 138.2601510
  68.7321700 139.7874870 137.2046190  68.1330590 140.5110670 137.0209810
  69.2801310 139.7251650 136.4222640  63.9423150 140.6797080 149.2715810
  63.8466750 139.7391810 149.1216210  64.7855130 140.9012150 148.8763880
  67.3386570 138.4238410 139.2349470  67.7316140 138.7410610 138.4218160
  67.7003420 137.5450290 139.3493990  59.0733690 137.0910750 147.4249590
  58.6797080 137.9385960 147.6322370  58.3852090 136.4537120 147.6158230
  56.3750740 135.0139210 141.4579670  56.0863790 135.5842070 142.1704650
  57.1196500 134.5343660 141.8210900  56.5620970 138.9559330 132.6682390
  56.4795640 139.8990090 132.8097380  56.2104030 138.8134240 131.7894740
  67.9241710 141.0144160 143.3300250  67.1922830 141.5230970 143.6790350
  67.5266050 140.1974140 143.0289030  64.3619100 137.6898360 141.7352740
  64.3655160 137.2488310 140.8857280  65.2570220 138.0115690 141.8424560
  60.2121480 137.5724850 140.6946950  59.8721530 138.0500080 141.4514000
  59.4498800 137.1189970 140.3348050  64.4239250 138.6910440 134.7259500
  64.5452070 138.6496920 135.6745320  64.0387760 139.5534590 134.5706230
  68.3867620 136.4677840 142.7423190  68.4040360 136.9186490 143.5865040
  68.1383200 135.5683480 142.9556630  63.4360750 141.0011580 134.1242800
  62.8677650 140.5529830 133.4978710  64.1449750 141.3604360 133.5907950
  71.8138370 133.8810020 148.5809570  72.1384140 133.1499680 149.1067550
  71.8494880 133.5623660 147.6790560  58.5129930 144.9023600 148.0009530
  58.1284720 144.2617270 148.5992490  58.8242120 145.6059720 148.5704260
  64.6627070 141.7500140 143.4818150  65.0297200 141.2758710 144.2279490
  64.4732130 142.6241710 143.8226490  57.5267560 136.4943830 139.6111620
  57.2414480 136.1299500 140.4490240  57.4646420 135.7624290 138.9974760
  62.4526440 140.7908780 145.8002360  62.1483510 141.6700760 146.0252720
  63.4072900 140.8508570 145.8359800  60.9808230 144.9969770 136.3969210
  60.2070490 144.4567390 136.2367930  61.7102860 144.4776380 136.0586970
  71.7396210 143.9935130 142.1895600  72.4595330 144.4890420 141.7991710
  71.5378030 143.3153020 141.5449470  67.2006150 135.3873090 136.3324990
  66.3870760 134.8886260 136.2570300  67.0068100 136.2271340 135.9161340
  67.1215010 144.0644190 148.0764600  67.0552320 143.1439860 147.8222190
  66.4920150 144.1619630 148.7909240  69.9154540 139.7592740 134.6287150
  70.8034160 140.0709970 134.4538490  69.8859630 138.8864990 134.2367730
  61.0245630 144.6650150 140.0348020  61.5424300 143.8618410 139.9804910
  60.5729650 144.6029290 140.8764850  65.9115130 145.9316430 135.3075320
  66.2530830 146.6758660 134.8118640  65.0827840 146.2447550 135.6700150
  58.5090170 141.6311520 146.9473720  58.1505110 142.2965370 147.5347060
  58.2144730 140.7995070 147.3186340  61.7103290 142.0895760 149.8313270
  61.4103430 142.2352940 148.9341090  62.4814530 141.5301050 149.7386660
  67.0531740 146.8864760 147.8268400  67.0676280 145.9545720 147.6087310
  66.3456840 146.9724520 148.4658170  72.1868810 141.0704580 134.0967010
  72.1032530 141.5018800 133.2463450  72.9063000 141.5302930 134.5293830
  73.2642950 143.5272100 147.1736980  72.5391140 144.1200880 146.9766370
  73.7918410 143.5195640 146.3750350  73.2156060 147.9246840 136.8249140
  72.5732220 147.2702460 137.0992860  72.8286720 148.3301930 136.0489810
  68.7942540 145.2532270 140.6720830  69.1466360 144.6560400 140.0122200
  67.9104870 144.9276500 140.8429080  64.8805820 146.0129960 138.0791240
  65.5676950 146.5599170 138.4598830  64.0938240 146.5570690 138.1140850
  57.0198220 141.6302780 133.5708320  57.8893070 141.9127580 133.8544240
  56.5288540 142.4438650 133.4557130  64.1833030 143.0175990 137.6916600
  64.6395810 143.8281240 137.9176790  63.8321240 142.6999130 138.5235090
  66.4865640 148.5282330 144.9208900  67.1307860 148.7341710 145.5982320
  66.8495080 147.7670730 144.4679750  60.0844810 133.3613640 138.1639120
  59.9559440 133.3531540 139.1124040  59.2606830 133.6996730 137.8130130
  67.7597720 146.5314680 143.6386350  68.4019950 145.8307840 143.7518520
  68.2847070 147.3113120 143.4583240  71.6053440 146.8163300 133.3625490
  71.3791020 146.0993740 133.9550130  71.2149640 146.5675740 132.5247240
  69.5335340 147.3309580 146.8422410  69.8691580 147.9176270 147.5200330
  68.6135680 147.2002290 147.0720200  57.3869470 150.8430160 134.1369950
  57.7467110 151.4419500 133.4827220  57.2461810 151.3890050 134.9104980
  57.0838740 135.1204760 147.6245820  56.3697260 135.3201680 148.2298430
  57.5033780 134.3444330 147.9960620  71.1869690 144.7335240 135.0239650
  70.8991390 145.1947930 135.8117530  71.9821860 144.2733010 135.2923870
  57.3711330 149.1085020 148.6112350  57.4802450 148.1679760 148.4707740
  56.7191890 149.3739770 147.9626080  63.4038090 148.2261360 134.9543620
  63.3948190 148.9591050 134.3388130  62.4836450 147.9792940 135.0470580
  59.0044730 143.4476250 135.6990380  58.3972680 144.1875150 135.7085680
  59.4794080 143.5375610 134.8728580  68.5777520 137.6127070 145.3747270
  68.9458340 136.7922280 145.7026840  67.7175720 137.6728960 145.7902920
  71.9439550 136.5684010 136.1834830  71.3152710 136.6729680 135.4693060
  71.4491470 136.7880790 136.9728710  66.3897690 148.2889600 133.6168810
  66.4909670 148.0853590 132.6870790  65.4899430 148.0347880 133.8216590
  63.9123580 138.8469960 137.5992710  63.2039730 139.3156300 138.0406320
  64.1968060 138.1891970 138.2337900  65.5379510 140.2666660 145.5985240
  66.0364760 140.7412480 146.2637090  65.6802460 139.3430180 145.8055270
  67.9439010 135.5720620 139.0388500  67.8206790 135.5906750 138.0898010
  68.8923570 135.6199560 139.1586900  65.0315800 150.8075920 138.3116480
  65.2857300 150.7697310 137.3895850  64.0828280 150.6809250 138.3044730
  62.1158600 137.1555040 134.9743420  62.9649130 137.5925190 134.9083610
  61.7489870 137.4675300 135.8015480  72.7446370 136.4834620 146.4413630
  72.2419970 137.2240020 146.7807440  73.5603030 136.8718620 146.1250420
  71.0368380 141.7267800 139.8874990  70.0958520 141.7418030 140.0622680
  71.3512450 140.9403760 140.3335290  61.0150020 143.4087400 133.4478950
  61.7813290 143.2968760 134.0104380  61.0924710 142.7125370 132.7955720
  59.7096780 140.8412470 134.1311840  59.7900370 139.8939980 134.2429240
  60.6016530 141.1719350 134.2372500  73.0393960 148.8976650 141.5629250
  73.1641380 149.7207820 142.0353060  73.9059520 148.6867380 141.2153400
  57.3956970 147.0581430 137.1087890  56.4696750 147.3002570 137.0993300
  57.8613400 147.8855690 136.9872640  63.6213800 150.1638170 133.0571950
  64.4142410 150.4527000 132.6053740  63.1018150 149.7330340 132.3784430
  69.7834770 150.0114090 148.9816780  70.7356520 149.9272110 148.9317020
  69.6362990 150.6755800 149.6550570  72.6743970 149.3908300 134.4808690
  72.3885480 148.9773440 133.6662870  72.4763520 150.3196010 134.3609210
  57.2367580 142.6627390 149.3668010  57.7406600 142.0834670 149.9384240
  56.4975000 142.9467620 149.9044380  64.1391200 145.3841580 132.9214300
  64.0341840 144.7693930 133.6475680  63.9715420 144.8607470 132.1377310
  64.2905520 144.0698380 148.9003530  63.5251190 144.6383380 148.8158200
  64.4721480 143.7774590 148.0071760  67.3793930 144.4461610 133.5256290
  66.8304030 144.8930910 134.1699030  68.0013190 143.9410860 134.0493960
  71.4328870 145.8003710 149.4578550  72.1738340 146.1379470 148.9546010
  70.6701550 145.9695770 148.9048320  63.0469050 143.4052530 135.4221590
  63.4685470 143.2392400 136.2652980  63.1719890 142.5952760 134.9276730
  61.2096470 139.3849080 148.2292570  60.6792930 138.8940030 147.6015910
  61.8784540 139.8133280 147.6950500  65.5596690 142.4290140 132.6698690
  66.0802350 141.7139160 132.3039840  66.2065090 143.0676010 132.9699200
  70.1074530 143.8518540 147.9933760  70.5215550 144.0063620 148.8424180
  69.1725530 143.9773760 148.1559540  70.5796700 141.1914700 149.9972910
  71.1617470 140.4367020 149.9093390  70.7558470 141.7222140 149.2204390
  61.6968770 136.3511450 148.3089860  61.6025640 135.7332200 147.5840730
  61.1166160 137.0777740 148.0819770  64.4630210 134.9084690 145.3417250
  64.0147510 134.9308950 144.4962800  63.8295410 134.5103710 145.9387550
  64.8689760 143.8039020 145.9629690  65.2877870 144.6471750 145.7905930
  63.9498390 143.9411060 145.7336470  67.2053660 141.5355200 147.3467530
  67.3249870 140.9396340 148.0862370  68.0647660 141.5724890 146.9268830
  69.5441560 142.0892390 145.9230040  69.0176780 142.6135010 145.3195180
  69.8872900 142.7219780 146.5539770  61.9427950 139.4785760 132.3679750
  61.7417010 138.6153120 132.7293090  61.7720000 139.3919120 131.4301350
  62.7197180 150.1092030 147.0787420  62.1818270 150.8338090 146.7596120
  62.9731140 149.6322370 146.2884760  63.9722430 138.0776550 148.6043350
  64.5622120 137.7692400 149.2921170  63.1542670 137.6056300 148.7603250
  68.7915860 137.6942360 148.8376370  68.1031380 137.0323900 148.7726360
  69.5121880 137.2480630 149.2824830  69.4216260 134.2893990 134.8966630
  69.7018550 133.4461890 135.2526050  68.6481990 134.5217100 135.4105380
  60.7410750 136.5786380 132.3557630  61.0436650 136.5853810 131.4476780
  61.4805340 136.2284240 132.8525290  63.9595680 135.5221000 133.3413830
  63.6117680 134.8444990 132.7616280  64.1608450 135.0610510 134.1557220
  66.1244720 150.5101750 134.9600430  67.0195510 150.8486720 134.9819190
  66.1562350 149.7881160 134.3324710  59.7640880 145.8828800 133.1887430
  60.2015750 146.4258470 133.8445010  60.2488610 145.0575750 133.1983770
  56.9786680 148.6717830 140.6407690  57.3089690 147.8038890 140.4086330
  57.4077680 148.8776350 141.4712650  61.5748600 147.0026840 138.3009660
  61.2744140 146.8791810 139.2013570  61.4686090 146.1435430 137.8925390
  57.4676890 149.5388420 143.3789320  57.0307880 149.7189220 144.2113470
  58.0354570 150.2963040 143.2371040  73.1039070 149.0405420 147.6666630
  72.5041060 149.0997980 146.9230550  73.2332970 148.1010400 147.7963480
  74.3440520 146.7823240 133.0036340  73.5133480 146.8499890 133.4743570
  74.5212350 147.6727360 132.7003200  73.7996980 143.5270720 135.5070540
  74.5615890 144.0967370 135.6130230  73.8151350 142.9597920 136.2778850
  57.3001320 142.0508650 139.7378200  56.6450160 141.7820290 139.0937900
  58.1379270 141.9413130 139.2880180  74.8056950 144.3820820 140.3512470
  75.1765780 143.5988140 139.9448440  75.4458880 145.0709920 140.1729770
  71.7890710 145.7657400 145.7642790  70.9750550 146.1954560 146.0268580
  72.1964910 146.3775810 145.1511840  73.8516150 143.8205090 132.6643060
  74.1264990 144.7283970 132.5362280  73.6626890 143.7567620 133.6005050
  70.2491760 136.8449940 133.9596690  70.6676640 136.6580920 133.1193350
  69.9427820 135.9928990 134.2699620  73.7481490 141.7574080 137.6572490
  73.3725090 140.9902010 137.2253780  73.0184610 142.1396780 138.1447420
  58.3377250 142.4361220 144.2781540  58.7050290 142.3488620 145.1577560
  57.7688070 141.6727770 144.1788400  73.1381110 140.9045600 147.2912010
  72.9067200 140.6758350 146.3909960  73.3985660 141.8245150 147.2456900
  57.8893250 139.3470310 148.1839960  56.9949300 139.3137070 148.5233670
  58.4290800 139.5457100 148.9491210  56.5139400 139.2607580 135.6803530
  55.6103480 139.5237780 135.5055190  56.9980020 139.5318750 134.9003490
  73.0232450 139.9831570 140.9579730  73.5469930 139.4894220 140.3269900
  73.6091870 140.1181930 141.7027300  73.2022170 140.0671440 144.4799280
  72.2524880 140.0334980 144.5944270  73.3835180 140.9771550 144.2449050
  59.0566610 138.3173120 133.5897910  59.7658310 137.8956340 133.1045190
  58.3406550 138.3848350 132.9581260  58.7040770 134.3712450 132.6300560
  59.4268900 134.9121390 132.9481780  58.9765290 134.0975870 131.7542100
  72.5132420 139.2404920 136.8972140  73.0091540 139.0075790 137.6821020
  72.3148490 138.4016760 136.4809780  58.3932960 133.6218640 142.5323180
  59.0409150 133.0716020 142.0918340  58.8134800 133.8761790 143.3538990
  73.9419580 137.8765870 139.4309820  73.8318860 137.7221910 140.3692090
  74.7027170 137.3486810 139.1885230  72.2885300 133.8160000 145.8892820
  72.9257520 134.4294140 146.2552010  72.4360190 133.8520660 144.9442050
  74.8309850 135.7073790 132.6715960  75.7559160 135.5754970 132.4634250
  74.8085640 135.7866610 133.6252410  74.9048340 136.4784450 135.2972670
  74.1099840 136.4129570 135.8265580  75.1091620 137.4135090 135.2858020
  71.8466760 150.5176000 139.2911060  72.4425830 150.1960570 138.6145480
  72.1044910 150.0447820 140.0824330  58.1464960 133.7774310 145.2748500
  57.7979780 134.2338130 146.0406680  57.8152660 132.8831440 145.3570930
  63.4535360 148.5053500 145.0411410  63.2126720 148.7728060 144.1541930
  64.3938000 148.6759230 145.0962270  65.6589780 134.9686190 148.7967920
  65.5978670 135.5608020 149.5463330  66.5990160 134.8612150 148.6518180
  68.2964340 134.6256250 148.4360210  68.9104750 134.9435540 147.7741290
  68.8413900 134.1404840 149.0556070  74.7139520 150.5247880 145.8422050
  74.2197800 150.9216750 145.1249180  74.1052810 149.8997090 146.2359330
  58.8185600 133.3050510 148.5499270  59.3668590 133.1238560 147.7865380
  58.8840910 132.5144620 149.0855580  59.5917360 149.8956160 146.5599470
  58.9977680 149.7640860 147.2989510  59.5841200 149.0594300 146.0941570
  69.0372380 133.1888390 144.7629500  68.1632220 133.5223500 144.5602430
  68.9283130 132.7161570 145.5881370  69.9444360 135.3959260 146.1471220
  69.6157720 134.5811020 145.7672950  70.8926660 135.3529070 146.0236910
  59.2229590 147.2614540 145.5107510  58.4963650 146.6419830 145.4433460
  59.2838740 147.6555150 144.6405590  62.8274690 149.4759540 142.2956920
  63.3439710 148.8646900 141.7705180  63.4772070 149.9788320 142.7867930
  65.5670190 150.3668030 143.1225900  65.8548000 150.1122330 142.2458910
  66.0793410 149.8145390 143.7131470  66.7847200 134.1058230 143.7022410
  66.0018990 134.5803730 143.9819170  66.4910130 133.2013060 143.5935590
  71.3368270 134.8081330 141.7471500  71.7776360 134.7526430 140.8993100
  71.0675860 135.7239340 141.8181680  73.2006840 134.4396570 139.7580320
  73.1395240 133.4957790 139.6111340  73.9798870 134.5476660 140.3033780
  57.5059590 150.5788930 138.7204270  57.3381630 149.9459610 139.4186160
  56.6394100 150.7848330 138.3698460  58.1287610 134.4105710 136.2236130
  58.8866970 134.5234590 135.6500160  57.6664780 135.2474910 136.1779560
  64.6701420 136.5244980 139.2138440  63.8575930 136.1501870 138.8734320
  65.1743060 135.7690060 139.5159630  69.1726400 133.1887430 140.4521510
  69.7755770 133.7607640 140.9270030  68.4319390 133.7526870 140.2295410
  72.3161000 133.5908990 135.7261790  72.5111630 134.4892440 135.9929220
  71.5290870 133.3596070 136.2194740  59.1122290 149.2722160 136.1654410
  58.5869910 149.6530190 135.4616370  59.0366870 149.8972930 136.8864120
  60.5012760 134.9369760 134.7638100  61.0305520 134.1499560 134.6346050
  61.1341080 135.6160950 134.9973630  62.6950600 134.6744900 137.8183490
  62.0653340 133.9732210 137.9853620  62.1555740 135.4349030 137.6016650
  73.8687610 150.8309700 137.4868350  74.0439800 150.1447440 136.8429270
  73.1709180 151.3556750 137.0945020  61.7115260 151.2204540 135.0403660
  62.4434080 150.9363820 134.4927550  61.9708930 150.9817820 135.9303040
  60.8730050 147.3369270 135.0449990  60.2438930 147.8054370 135.5935820
  60.9877880 146.4918490 135.4796180  68.3279770 141.3874930 121.1951190
  68.2473820 140.4729540 120.9242900  67.9144190 141.8842000 120.4890900
  66.4597810 143.1653950 123.0760460  65.6839910 142.6854390 123.3659030
  67.1110740 142.4859600 122.9016620  60.4763640 143.4773760 123.9536220
  59.6448520 143.2222470 124.3532730  61.0844620 143.5484530 124.6894140
  70.4805240 147.5714140 121.8559590  70.0186770 146.8001380 122.1846760
  71.2930790 147.5980210 122.3612040  60.4564900 147.5113850 124.1494240
  60.7592940 146.6211590 123.9704460  61.2008490 148.0684070 123.9216490
  58.8855590 138.4375650 117.7378610  57.9972290 138.7791620 117.6358490
  59.1696780 138.2375970 116.8459440  56.8488600 141.0381300 123.6218310
  57.4204710 140.2703500 123.6221950  56.8490140 141.3370060 122.7124920
  66.7068550 149.8572150 121.4763580  66.0879990 150.3129650 120.9058020
  67.5620330 150.0123610 121.0753280  65.9006800 145.8411140 123.0830620
  65.8315080 144.9001080 122.9219750  66.6626660 145.9312550 123.6553190
  58.0913470 136.4465660 125.4087240  57.9116310 135.5491410 125.6890000
  57.6893550 136.9937530 126.0834190  66.9311970 138.6481520 123.3099550
  67.3076790 137.7753400 123.1973220  66.8331480 138.9840220 122.4189990
  61.0616980 137.0207150 118.7716990  61.1683730 137.9210880 119.0785750
  60.1509340 136.9725120 118.4811640  70.7136090 136.1431960 120.2427890
  71.5345710 135.6528530 120.2853370  70.7470170 136.7329620 120.9959730
  58.7100140 138.9426160 124.0169580  59.3910250 139.2064530 124.6356980
  58.3948190 138.1027030 124.3507590  62.9024710 139.9893520 123.1042170
  63.4102930 140.4874490 123.7447190  63.4337950 139.2128720 122.9281530
  75.0035640 138.1598710 126.8071520  74.2987810 138.5480420 126.2886630
  75.2693560 138.8549000 127.4092450  61.1860810 134.6292080 127.3705590
  61.1879250 135.1464470 126.5651490  60.3565120 134.1522260 127.3475520
  67.5731900 144.7411390 118.8695490  66.9549170 145.2060840 118.3058210
  68.0855150 145.4338870 119.2865000  62.4363660 144.2687260 125.5479090
  62.1033040 144.8956180 126.1900160  62.6130340 144.7949140 124.7680760
  70.9497570 138.0832340 123.0155430  70.2453140 138.3717230 123.5958540
  71.3109730 138.8932450 122.6554990  60.8676140 136.3402040 125.3776040
  61.2092950 137.1844090 125.0829910  59.9291950 136.4885780 125.4941380
  61.6482760 146.2368060 127.3628270  62.2656760 146.9119140 127.0812720
  60.7875880 146.6456040 127.2715770  56.9415100 145.4267920 116.2435120
  56.5643080 145.9155020 115.5120020  57.1988170 146.0993200 116.8741650
  72.5660350 147.7007470 125.2782910  71.8823870 148.3706580 125.2699580
  73.1054640 147.8988120 124.5127770  74.0184490 137.5287130 123.4064640
  73.0709400 137.5626110 123.5380070  74.3434480 138.3426080 123.7914000
  64.5504030 133.8284310 121.7020630  64.8579010 133.2731200 120.9856130
  63.6204730 133.9628770 121.5193620  70.1019090 149.5451600 123.9928090
  70.1146250 149.1413890 123.1250350  69.5494310 150.3198890 123.8889520
  71.3964510 146.2667820 119.0818260  71.2860840 145.3242150 119.2067680
  71.3932760 146.6283460 119.9681020  69.5004530 144.4481440 125.3210700
  69.9173320 144.2341550 124.4864160  70.2244350 144.7054230 125.8919320
  66.9384790 141.8933140 118.4380750  66.0114070 141.8270520 118.6669220
  67.0909610 142.8313270 118.3235990  66.9253870 138.1650140 115.4347910
  65.9857540 138.3264100 115.5200370  67.2437130 138.8835820 114.8883900
  73.4466630 142.8468660 125.4126940  72.6185260 142.9161750 124.9377070
  74.0417110 143.4322970 124.9442770  70.9682080 143.4553440 118.9416000
  70.3494500 143.1172990 118.2942300  70.9506530 142.8113200 119.6495190
  70.4108640 139.6337980 126.3581810  69.9979820 140.4591690 126.6121800
  69.6784590 139.0483020 126.1658170  62.5441430 142.4197880 121.2200480
  62.1398430 141.7075130 120.7246380  62.6304550 142.0751120 122.1088520
  63.0123130 146.1065440 123.3839690  62.7151420 145.5010910 122.7047470
  63.9622950 146.1442750 123.2729050  61.2570050 139.1941090 124.9999520
  61.8084640 139.3036430 124.2252770  61.7713560 139.5678690 125.7154750
  71.1008740 149.6797310 127.0462790  70.6239300 150.4869500 126.8535400
  70.4170530 149.0275640 127.1989000  62.1041560 145.8447130 130.0347490
  61.2070090 146.0687100 130.2820890  62.1294430 145.9682070 129.0858890
  69.1446780 142.6940250 115.9488750  69.5840060 141.8562680 115.8026570
  69.8575200 143.3269650 116.0352890  60.9312780 142.7160450 128.6104860
  60.7920550 143.5883250 128.9792260  60.0494140 142.3733260 128.4652800
  67.2542160 147.6336320 119.9169990  67.6938070 148.3760650 119.5025380
  67.1929050 147.8762890 120.8408950  62.7293130 148.6582150 130.8190010
  62.7008560 149.0625100 129.9518440  62.5658100 147.7292510 130.6561610
  72.7263920 133.9483060 114.2629790  72.4136580 134.0409890 115.1628860
  73.4876390 134.5264090 114.2127220  59.2446060 141.3142860 118.7207130
  59.1243660 142.0404950 118.1088400  58.9346950 140.5445770 118.2435040
  74.6807950 149.4409250 132.1154180  75.1567670 149.9192140 132.7943260
  75.3015110 149.3726740 131.3899680  56.8831430 144.4858000 124.5275770
  56.9611850 144.6206770 123.5831490  57.4973110 143.7773890 124.7203890
  58.1279060 146.1858190 120.9381950  57.7207140 146.3272780 120.0835550
  59.0192070 145.9018350 120.7353160  74.0841200 146.6322100 129.2754190
  74.2104260 146.3933980 128.3571370  74.1262580 145.8006640 129.7476270
  67.9457940 150.3350100 127.8449000  68.4602610 150.2458110 128.6471430
  67.1027020 150.6809800 128.1376910  69.9212340 150.6205440 117.2733000
  69.7613480 150.3308380 118.1714830  69.7559050 149.8445570 116.7378230
  62.4000720 150.4003970 119.0504620  62.2243200 149.4839510 118.8372420
  61.5456460 150.7591260 119.2902420  69.6238470 148.1293000 115.8331000
  68.9303630 148.1270290 115.1733280  70.3661330 147.7052320 115.4025170
  69.1888400 149.7555710 119.9079490  69.6445350 148.9745090 120.2218110
  69.5280920 150.4662530 120.4520670  73.9365210 138.6854560 130.2403930
  73.3209480 139.1934230 129.7119390  73.6161630 137.7852890 130.1829870
  56.9390950 145.5272170 127.0670230  57.1021990 145.0577530 126.2489600
  57.4043400 145.0195730 127.7319070  61.7109720 134.6577930 122.1030800
  61.2677870 135.4387470 121.7715320  62.2694710 134.9807820 122.8101740
  65.9979530 137.5246450 127.7066120  65.5358900 137.7329470 128.5186060
  65.5957640 136.7105800 127.4036790  70.9984040 138.7455400 128.8362780
  70.1477630 138.4461150 129.1571850  70.8385830 138.9897410 127.9246600
  68.0933750 140.2457150 130.9361570  68.4187160 139.4120900 130.5963800
  68.8814080 140.7685670 131.0839900  64.8268540 134.2788630 116.9836630
  64.2022720 134.2748500 117.7089940  64.7398660 133.4119590 116.5872600
  63.7485620 135.2025260 123.9620400  64.0457950 136.1088090 123.8812420
  64.2971180 134.7144040 123.3479970  61.5023940 139.7811500 119.8312050
  61.2764860 139.5648670 120.7358670  60.7216470 140.2139960 119.4858020
  68.7321700 139.7874870 118.4302700  68.1330590 140.5110670 118.2466320
  69.2801310 139.7251650 117.6479150  63.9423150 140.6797080 130.4972320
  63.8466750 139.7391810 130.3472720  64.7855130 140.9012150 130.1020390
  67.3386570 138.4238410 120.4605980  67.7316140 138.7410610 119.6474670
  67.7003420 137.5450290 120.5750500  59.0733690 137.0910750 128.6506100
  58.6797080 137.9385960 128.8578880  58.3852090 136.4537120 128.8414740
  65.6478740 137.1745720 131.7202840  64.9577060 136.9817920 132.3548930
  66.3911040 137.4580360 132.2527140  56.3750740 135.0139210 122.6836180
  56.0863790 135.5842070 123.3961160  57.1196500 134.5343660 123.0467410
  56.5620970 138.9559330 113.8938900  56.4795640 139.8990090 114.0353890
  56.2104030 138.8134240 113.0151250  67.9241710 141.0144160 124.5556760
  67.1922830 141.5230970 124.9046860  67.5266050 140.1974140 124.2545540
  64.3619100 137.6898360 122.9609250  64.3655160 137.2488310 122.1113790
  65.2570220 138.0115690 123.0681070  60.2121480 137.5724850 121.9203460
  59.8721530 138.0500080 122.6770510  59.4498800 137.1189970 121.5604560
  64.4239250 138.6910440 115.9516010  64.5452070 138.6496920 116.9001830
  64.0387760 139.5534590 115.7962740  68.3867620 136.4677840 123.9679700
  68.4040360 136.9186490 124.8121550  68.1383200 135.5683480 124.1813140
  63.4360750 141.0011580 115.3499310  62.8677650 140.5529830 114.7235220
  64.1449750 141.3604360 114.8164460  71.8138370 133.8810020 129.8066080
  72.1384140 133.1499680 130.3324060  71.8494880 133.5623660 128.9047070
  58.5129930 144.9023600 129.2266040  58.1284720 144.2617270 129.8249000
  58.8242120 145.6059720 129.7960770  64.6627070 141.7500140 124.7074660
  65.0297200 141.2758710 125.4536000  64.4732130 142.6241710 125.0483000
  57.5267560 136.4943830 120.8368130  57.2414480 136.1299500 121.6746750
  57.4646420 135.7624290 120.2231270  62.4526440 140.7908780 127.0258870
  62.1483510 141.6700760 127.2509230  63.4072900 140.8508570 127.0616310
  60.9808230 144.9969770 117.6225720  60.2070490 144.4567390 117.4624440
  61.7102860 144.4776380 117.2843480  71.7396210 143.9935130 123.4152110
  72.4595330 144.4890420 123.0248220  71.5378030 143.3153020 122.7705980
  67.2006150 135.3873090 117.5581500  66.3870760 134.8886260 117.4826810
  67.0068100 136.2271340 117.1417850  67.1215010 144.0644190 129.3021110
  67.0552320 143.1439860 129.0478700  66.4920150 144.1619630 130.0165750
  69.9154540 139.7592740 115.8543660  70.8034160 140.0709970 115.6795000
  69.8859630 138.8864990 115.4624240  61.0245630 144.6650150 121.2604530
  61.5424300 143.8618410 121.2061420  60.5729650 144.6029290 122.1021360
  65.9115130 145.9316430 116.5331830  66.2530830 146.6758660 116.0375150
  65.0827840 146.2447550 116.8956660  58.5090170 141.6311520 128.1730230
  58.1505110 142.2965370 128.7603570  58.2144730 140.7995070 128.5442850
  61.7103290 142.0895760 131.0569780  61.4103430 142.2352940 130.1597600
  62.4814530 141.5301050 130.9643170  67.0531740 146.8864760 129.0524910
  67.0676280 145.9545720 128.8343820  66.3456840 146.9724520 129.6914680
  72.1868810 141.0704580 115.3223520  72.1032530 141.5018800 114.4719960
  72.9063000 141.5302930 115.7550340  73.2642950 143.5272100 128.3993490
  72.5391140 144.1200880 128.2022880  73.7918410 143.5195640 127.6006860
  73.2156060 147.9246840 118.0505650  72.5732220 147.2702460 118.3249370
  72.8286720 148.3301930 117.2746320  68.7942540 145.2532270 121.8977340
  69.1466360 144.6560400 121.2378710  67.9104870 144.9276500 122.0685590
  64.8805820 146.0129960 119.3047750  65.5676950 146.5599170 119.6855340
  64.0938240 146.5570690 119.3397360  57.0198220 141.6302780 114.7964830
  57.8893070 141.9127580 115.0800750  56.5288540 142.4438650 114.6813640
  64.1833030 143.0175990 118.9173110  64.6395810 143.8281240 119.1433300
  63.8321240 142.6999130 119.7491600  66.4865640 148.5282330 126.1465410
  67.1307860 148.7341710 126.8238830  66.8495080 147.7670730 125.6936260
  60.0844810 133.3613640 119.3895630  59.9559440 133.3531540 120.3380550
  59.2606830 133.6996730 119.0386640  67.7597720 146.5314680 124.8642860
  68.4019950 145.8307840 124.9775030  68.2847070 147.3113120 124.6839750
  71.6053440 146.8163300 114.5882000  71.3791020 146.0993740 115.1806640
  71.2149640 146.5675740 113.7503750  69.5335340 147.3309580 128.0678920
  69.8691580 147.9176270 128.7456840  68.6135680 147.2002290 128.2976710
  57.3869470 150.8430160 115.3626460  57.7467110 151.4419500 114.7083730
  57.2461810 151.3890050 116.1361490  57.0838740 135.1204760 128.8502330
  56.3697260 135.3201680 129.4554940  57.5033780 134.3444330 129.2217130
  71.1869690 144.7335240 116.2496160  70.8991390 145.1947930 117.0374040
  71.9821860 144.2733010 116.5180380  57.3711330 149.1085020 129.8368860
  57.4802450 148.1679760 129.6964250  56.7191890 149.3739770 129.1882590
  65.3623920 147.3800910 131.2366980  65.0420790 146.6610150 131.7812670
  64.6882280 148.0555980 131.3103040  63.4038090 148.2261360 116.1800130
  63.3948190 148.9591050 115.5644640  62.4836450 147.9792940 116.2727090
  59.0044730 143.4476250 116.9246890  58.3972680 144.1875150 116.9342190
  59.4794080 143.5375610 116.0985090  68.5777520 137.6127070 126.6003780
  68.9458340 136.7922280 126.9283350  67.7175720 137.6728960 127.0159430
  71.9439550 136.5684010 117.4091340  71.3152710 136.6729680 116.6949570
  71.4491470 136.7880790 118.1985220  66.3897690 148.2889600 114.8425320
  66.4909670 148.0853590 113.9127300  65.4899430 148.0347880 115.0473100
  63.9123580 138.8469960 118.8249220  63.2039730 139.3156300 119.2662830
  64.1968060 138.1891970 119.4594410  65.5379510 140.2666660 126.8241750
  66.0364760 140.7412480 127.4893600  65.6802460 139.3430180 127.0311780
  67.9439010 135.5720620 120.2645010  67.8206790 135.5906750 119.3154520
  68.8923570 135.6199560 120.3843410  65.0315800 150.8075920 119.5372990
  65.2857300 150.7697310 118.6152360  64.0828280 150.6809250 119.5301240
  62.1158600 137.1555040 116.1999930  62.9649130 137.5925190 116.1340120
  61.7489870 137.4675300 117.0271990  72.7446370 136.4834620 127.6670140
  72.2419970 137.2240020 128.0063950  73.5603030 136.8718620 127.3506930
  71.0368380 141.7267800 121.1131500  70.0958520 141.7418030 121.2879190
  71.3512450 140.9403760 121.5591800  61.0150020 143.4087400 114.6735460
  61.7813290 143.2968760 115.2360890  61.0924710 142.7125370 114.0212230
  59.7096780 140.8412470 115.3568350  59.7900370 139.8939980 115.4685750
  60.6016530 141.1719350 115.4629010  73.0393960 148.8976650 122.7885760
  73.1641380 149.7207820 123.2609570  73.9059520 148.6867380 122.4409910
  57.3956970 147.0581430 118.3344400  56.4696750 147.3002570 118.3249810
  57.8613400 147.8855690 118.2129150  59.5169770 150.1753930 131.6488470
  60.3182500 150.4965980 132.0623870  59.0021590 149.8149510 132.3708380
  63.6213800 150.1638170 114.2828460  64.4142410 150.4527000 113.8310250
  63.1018150 149.7330340 113.6040940  68.3534400 146.2833800 131.5963880
  67.7472560 146.3065400 130.8559630  68.0488510 145.5516840 132.1331130
  69.7834770 150.0114090 130.2073290  70.7356520 149.9272110 130.1573530
  69.6362990 150.6755800 130.8807080  72.6743970 149.3908300 115.7065200
  72.3885480 148.9773440 114.8919380  72.4763520 150.3196010 115.5865720
  57.2367580 142.6627390 130.5924520  57.7406600 142.0834670 131.1640750
  56.4975000 142.9467620 131.1300890  64.1391200 145.3841580 114.1470810
  64.0341840 144.7693930 114.8732190  63.9715420 144.8607470 113.3633820
  64.2905520 144.0698380 130.1260040  63.5251190 144.6383380 130.0414710
  64.4721480 143.7774590 129.2328270  67.3793930 144.4461610 114.7512800
  66.8304030 144.8930910 115.3955540  68.0013190 143.9410860 115.2750470
  71.4328870 145.8003710 130.6835060  72.1738340 146.1379470 130.1802520
  70.6701550 145.9695770 130.1304830  59.2690660 140.8056980 131.4874590
  59.3096000 140.5070850 132.3959820  60.1236160 141.2064590 131.3282110
  63.0469050 143.4052530 116.6478100  63.4685470 143.2392400 117.4909490
  63.1719890 142.5952760 116.1533240  61.2096470 139.3849080 129.4549080
  60.6792930 138.8940030 128.8272420  61.8784540 139.8133280 128.9207010
  65.5596690 142.4290140 113.8955200  66.0802350 141.7139160 113.5296350
  66.2065090 143.0676010 114.1955710  70.1074530 143.8518540 129.2190270
  70.5215550 144.0063620 130.0680690  69.1725530 143.9773760 129.3816050
  70.5796700 141.1914700 131.2229420  71.1617470 140.4367020 131.1349900
  70.7558470 141.7222140 130.4460900  61.6968770 136.3511450 129.5346370
  61.6025640 135.7332200 128.8097240  61.1166160 137.0777740 129.3076280
  64.4630210 134.9084690 126.5673760  64.0147510 134.9308950 125.7219310
  63.8295410 134.5103710 127.1644060  64.8689760 143.8039020 127.1886200
  65.2877870 144.6471750 127.0162440  63.9498390 143.9411060 126.9592980
  67.2053660 141.5355200 128.5724040  67.3249870 140.9396340 129.3118880
  68.0647660 141.5724890 128.1525340  69.5441560 142.0892390 127.1486550
  69.0176780 142.6135010 126.5451690  69.8872900 142.7219780 127.7796280
  61.9427950 139.4785760 113.5936260  61.7417010 138.6153120 113.9549600
  61.7720000 139.3919120 112.6557860  62.7197180 150.1092030 128.3043930
  62.1818270 150.8338090 127.9852630  62.9731140 149.6322370 127.5141270
  63.9722430 138.0776550 129.8299860  64.5622120 137.7692400 130.5177680
  63.1542670 137.6056300 129.9859760  68.7915860 137.6942360 130.0632880
  68.1031380 137.0323900 129.9982870  69.5121880 137.2480630 130.5081340
  69.4216260 134.2893990 116.1223140  69.7018550 133.4461890 116.4782560
  68.6481990 134.5217100 116.6361890  60.7410750 136.5786380 113.5814140
  61.0436650 136.5853810 112.6733290  61.4805340 136.2284240 114.0781800
  63.9595680 135.5221000 114.5670340  63.6117680 134.8444990 113.9872790
  64.1608450 135.0610510 115.3813730  66.1244720 150.5101750 116.1856940
  67.0195510 150.8486720 116.2075700  66.1562350 149.7881160 115.5581220
  59.7640880 145.8828800 114.4143940  60.2015750 146.4258470 115.0701520
  60.2488610 145.0575750 114.4240280  56.9786680 148.6717830 121.8664200
  57.3089690 147.8038890 121.6342840  57.4077680 148.8776350 122.6969160
  61.5748600 147.0026840 119.5266170  61.2744140 146.8791810 120.4270080
  61.4686090 146.1435430 119.1181900  57.4676890 149.5388420 124.6045830
  57.0307880 149.7189220 125.4369980  58.0354570 150.2963040 124.4627550
  73.1039070 149.0405420 128.8923140  72.5041060 149.0997980 128.1487060
  73.2332970 148.1010400 129.0219990  74.3440520 146.7823240 114.2292850
  73.5133480 146.8499890 114.7000080  74.5212350 147.6727360 113.9259710
  73.7996980 143.5270720 116.7327050  74.5615890 144.0967370 116.8386740
  73.8151350 142.9597920 117.5035360  57.3001320 142.0508650 120.9634710
  56.6450160 141.7820290 120.3194410  58.1379270 141.9413130 120.5136690
  74.8056950 144.3820820 121.5768980  75.1765780 143.5988140 121.1704950
  75.4458880 145.0709920 121.3986280  71.7890710 145.7657400 126.9899300
  70.9750550 146.1954560 127.2525090  72.1964910 146.3775810 126.3768350
  73.8516150 143.8205090 113.8899570  74.1264990 144.7283970 113.7618790
  73.6626890 143.7567620 114.8261560  70.2491760 136.8449940 115.1853200
  70.6676640 136.6580920 114.3449860  69.9427820 135.9928990 115.4956130
  73.7481490 141.7574080 118.8829000  73.3725090 140.9902010 118.4510290
  73.0184610 142.1396780 119.3703930  58.3377250 142.4361220 125.5038050
  58.7050290 142.3488620 126.3834070  57.7688070 141.6727770 125.4044910
  73.1381110 140.9045600 128.5168520  72.9067200 140.6758350 127.6166470
  73.3985660 141.8245150 128.4713410  57.8893250 139.3470310 129.4096470
  56.9949300 139.3137070 129.7490180  58.4290800 139.5457100 130.1747720
  71.5769180 136.1302030 131.2948220  72.4539360 136.1385430 131.6782220
  71.5890020 135.3932870 130.6840570  56.5139400 139.2607580 116.9060040
  55.6103480 139.5237780 116.7311700  56.9980020 139.5318750 116.1260000
  73.0232450 139.9831570 122.1836240  73.5469930 139.4894220 121.5526410
  73.6091870 140.1181930 122.9283810  73.2022170 140.0671440 125.7055790
  72.2524880 140.0334980 125.8200780  73.3835180 140.9771550 125.4705560
  59.0566610 138.3173120 114.8154420  59.7658310 137.8956340 114.3301700
  58.3406550 138.3848350 114.1837770  58.7040770 134.3712450 113.8557070
  59.4268900 134.9121390 114.1738290  58.9765290 134.0975870 112.9798610
  72.5132420 139.2404920 118.1228650  73.0091540 139.0075790 118.9077530
  72.3148490 138.4016760 117.7066290  58.3932960 133.6218640 123.7579690
  59.0409150 133.0716020 123.3174850  58.8134800 133.8761790 124.5795500
  73.9419580 137.8765870 120.6566330  73.8318860 137.7221910 121.5948600
  74.7027170 137.3486810 120.4141740  72.2885300 133.8160000 127.1149330
  72.9257520 134.4294140 127.4808520  72.4360190 133.8520660 126.1698560
  74.8309850 135.7073790 113.8972470  75.7559160 135.5754970 113.6890760
  74.8085640 135.7866610 114.8508920  74.9048340 136.4784450 116.5229180
  74.1099840 136.4129570 117.0522090  75.1091620 137.4135090 116.5114530
  71.8466760 150.5176000 120.5167570  72.4425830 150.1960570 119.8401990
  72.1044910 150.0447820 121.3080840  58.1464960 133.7774310 126.5005010
  57.7979780 134.2338130 127.2663190  57.8152660 132.8831440 126.5827440
  59.7529330 146.9493910 130.6658200  59.7098960 146.5786820 131.5472660
  59.8840340 147.8871480 130.8060020  63.4535360 148.5053500 126.2667920
  63.2126720 148.7728060 125.3798440  64.3938000 148.6759230 126.3218780
  65.6589780 134.9686190 130.0224430  65.5978670 135.5608020 130.7719840
  66.5990160 134.8612150 129.8774690  68.2964340 134.6256250 129.6616720
  68.9104750 134.9435540 128.9997800  68.8413900 134.1404840 130.2812580
  74.7139520 150.5247880 127.0678560  74.2197800 150.9216750 126.3505690
  74.1052810 149.8997090 127.4615840  58.8185600 133.3050510 129.7755780
  59.3668590 133.1238560 129.0121890  58.8840910 132.5144620 130.3112090
  59.5917360 149.8956160 127.7855980  58.9977680 149.7640860 128.5246020
  59.5841200 149.0594300 127.3198080  69.0372380 133.1888390 125.9886010
  68.1632220 133.5223500 125.7858940  68.9283130 132.7161570 126.8137880
  69.9444360 135.3959260 127.3727730  69.6157720 134.5811020 126.9929460
  70.8926660 135.3529070 127.2493420  59.2229590 147.2614540 126.7364020
  58.4963650 146.6419830 126.6689970  59.2838740 147.6555150 125.8662100
  62.8274690 149.4759540 123.5213430  63.3439710 148.8646900 122.9961690
  63.4772070 149.9788320 124.0124440  65.5670190 150.3668030 124.3482410
  65.8548000 150.1122330 123.4715420  66.0793410 149.8145390 124.9387980
  66.7847200 134.1058230 124.9278920  66.0018990 134.5803730 125.2075680
  66.4910130 133.2013060 124.8192100  71.3368270 134.8081330 122.9728010
  71.7776360 134.7526430 122.1249610  71.0675860 135.7239340 123.0438190
  73.2006840 134.4396570 120.9836830  73.1395240 133.4957790 120.8367850
  73.9798870 134.5476660 121.5290290  57.5059590 150.5788930 119.9460780
  57.3381630 149.9459610 120.6442670  56.6394100 150.7848330 119.5954970
  58.1287610 134.4105710 117.4492640  58.8866970 134.5234590 116.8756670
  57.6664780 135.2474910 117.4036070  64.6701420 136.5244980 120.4394950
  63.8575930 136.1501870 120.0990830  65.1743060 135.7690060 120.7416140
  69.1726400 133.1887430 121.6778020  69.7755770 133.7607640 122.1526540
  68.4319390 133.7526870 121.4551920  72.3161000 133.5908990 116.9518300
  72.5111630 134.4892440 117.2185730  71.5290870 133.3596070 117.4451250
  59.1122290 149.2722160 117.3910920  58.5869910 149.6530190 116.6872880
  59.0366870 149.8972930 118.1120630  60.5012760 134.9369760 115.9894610
  61.0305520 134.1499560 115.8602560  61.1341080 135.6160950 116.2230140
  62.6950600 134.6744900 119.0440000  62.0653340 133.9732210 119.2110130
  62.1555740 135.4349030 118.8273160  73.8687610 150.8309700 118.7124860
  74.0439800 150.1447440 118.0685780  73.1709180 151.3556750 118.3201530
  62.8206160 133.9528880 131.4792490  62.5390430 134.4562480 130.7153310
  63.2025860 133.1550630 131.1134620  61.7115260 151.2204540 116.2660170
  62.4434080 150.9363820 115.7184060  61.9708930 150.9817820 117.1559550
  60.8730050 147.3369270 116.2706500  60.2438930 147.8054370 116.8192330
  60.9877880 146.4918490 116.7052690  69.4221620 133.3682460 132.0572960
  69.3087070 133.6877070 132.9524480  70.2391360 133.7694970 131.7610240
  72.2020110 150.5153990 131.5391650  72.9945430 150.0203220 131.3317610
  72.4953260 151.1944130 132.1467260  68.3279770 141.3874930 102.4207700
  68.2473820 140.4729540 102.1499410  67.9144190 141.8842000 101.7147410
  66.4597810 143.1653950 104.3016970  65.6839910 142.6854390 104.5915540
  67.1110740 142.4859600 104.1273130  60.4763640 143.4773760 105.1792730
  59.6448520 143.2222470 105.5789240  61.0844620 143.5484530 105.9150650
  70.4805240 147.5714140 103.0816100  70.0186770 146.8001380 103.4103270
  71.2930790 147.5980210 103.5868550  60.4564900 147.5113850 105.3750750
  60.7592940 146.6211590 105.1960970  61.2008490 148.0684070 105.1473000
  58.8855590 138.4375650  98.9635120  57.9972290 138.7791620  98.8615000
  59.1696780 138.2375970  98.0715950  56.8488600 141.0381300 104.8474820
  57.4204710 140.2703500 104.8478460  56.8490140 141.3370060 103.9381430
  66.7068550 149.8572150 102.7020090  66.0879990 150.3129650 102.1314530
  67.5620330 150.0123610 102.3009790  65.9006800 145.8411140 104.3087130
  65.8315080 144.9001080 104.1476260  66.6626660 145.9312550 104.8809700
  58.0913470 136.4465660 106.6343750  57.9116310 135.5491410 106.9146510
  57.6893550 136.9937530 107.3090700  66.9311970 138.6481520 104.5356060
  67.3076790 137.7753400 104.4229730  66.8331480 138.9840220 103.6446500
  61.0616980 137.0207150  99.9973500  61.1683730 137.9210880 100.3042260
  60.1509340 136.9725120  99.7068150  58.7100140 138.9426160 105.2426090
  59.3910250 139.2064530 105.8613490  58.3948190 138.1027030 105.5764100
  62.9024710 139.9893520 104.3298680  63.4102930 140.4874490 104.9703700
  63.4337950 139.2128720 104.1538040  75.0035640 138.1598710 108.0328030
  74.2987810 138.5480420 107.5143140  75.2693560 138.8549000 108.6348960
  61.1860810 134.6292080 108.5962100  61.1879250 135.1464470 107.7908000
  60.3565120 134.1522260 108.5732030  67.5731900 144.7411390 100.0952000
  66.9549170 145.2060840  99.5314720  68.0855150 145.4338870 100.5121510
  62.4363660 144.2687260 106.7735600  62.1033040 144.8956180 107.4156670
  62.6130340 144.7949140 105.9937270  70.9497570 138.0832340 104.2411940
  70.2453140 138.3717230 104.8215050  71.3109730 138.8932450 103.8811500
  60.8676140 136.3402040 106.6032550  61.2092950 137.1844090 106.3086420
  59.9291950 136.4885780 106.7197890  61.6482760 146.2368060 108.5884780
  62.2656760 146.9119140 108.3069230  60.7875880 146.6456040 108.4972280
  56.9415100 145.4267920  97.4691630  56.5643080 145.9155020  96.7376530
  57.1988170 146.0993200  98.0998160  72.5660350 147.7007470 106.5039420
  71.8823870 148.3706580 106.4956090  73.1054640 147.8988120 105.7384280
  74.0184490 137.5287130 104.6321150  73.0709400 137.5626110 104.7636580
  74.3434480 138.3426080 105.0170510  64.5504030 133.8284310 102.9277140
  64.8579010 133.2731200 102.2112640  63.6204730 133.9628770 102.7450130
  70.1019090 149.5451600 105.2184600  70.1146250 149.1413890 104.3506860
  69.5494310 150.3198890 105.1146030  71.3964510 146.2667820 100.3074770
  71.2860840 145.3242150 100.4324190  71.3932760 146.6283460 101.1937530
  69.5004530 144.4481440 106.5467210  69.9173320 144.2341550 105.7120670
  70.2244350 144.7054230 107.1175830  66.9384790 141.8933140  99.6637260
  66.0114070 141.8270520  99.8925730  67.0909610 142.8313270  99.5492500
  66.9253870 138.1650140  96.6604420  65.9857540 138.3264100  96.7456880
  67.2437130 138.8835820  96.1140410  73.4466630 142.8468660 106.6383450
  72.6185260 142.9161750 106.1633580  74.0417110 143.4322970 106.1699280
  70.9682080 143.4553440 100.1672510  70.3494500 143.1172990  99.5198810
  70.9506530 142.8113200 100.8751700  70.4108640 139.6337980 107.5838320
  69.9979820 140.4591690 107.8378310  69.6784590 139.0483020 107.3914680
  62.5441430 142.4197880 102.4456990  62.1398430 141.7075130 101.9502890
  62.6304550 142.0751120 103.3345030  63.0123130 146.1065440 104.6096200
  62.7151420 145.5010910 103.9303980  63.9622950 146.1442750 104.4985560
  61.2570050 139.1941090 106.2256030  61.8084640 139.3036430 105.4509280
  61.7713560 139.5678690 106.9411260  71.1008740 149.6797310 108.2719300
  70.6239300 150.4869500 108.0791910  70.4170530 149.0275640 108.4245510
  62.1041560 145.8447130 111.2604000  61.2070090 146.0687100 111.5077400
  62.1294430 145.9682070 110.3115400  69.1446780 142.6940250  97.1745260
  69.5840060 141.8562680  97.0283080  69.8575200 143.3269650  97.2609400
  60.9312780 142.7160450 109.8361370  60.7920550 143.5883250 110.2048770
  60.0494140 142.3733260 109.6909310  67.2542160 147.6336320 101.1426500
  67.6938070 148.3760650 100.7281890  67.1929050 147.8762890 102.0665460
  62.7293130 148.6582150 112.0446520  62.7008560 149.0625100 111.1774950
  62.5658100 147.7292510 111.8818120  59.2446060 141.3142860  99.9463640
  59.1243660 142.0404950  99.3344910  58.9346950 140.5445770  99.4691550
  74.6807950 149.4409250 113.3410690  75.1567670 149.9192140 114.0199770
  75.3015110 149.3726740 112.6156190  56.8831430 144.4858000 105.7532280
  56.9611850 144.6206770 104.8088000  57.4973110 143.7773890 105.9460400
  58.1279060 146.1858190 102.1638460  57.7207140 146.3272780 101.3092060
  59.0192070 145.9018350 101.9609670  74.0841200 146.6322100 110.5010700
  74.2104260 146.3933980 109.5827880  74.1262580 145.8006640 110.9732780
  67.9457940 150.3350100 109.0705510  68.4602610 150.2458110 109.8727940
  67.1027020 150.6809800 109.3633420  69.9212340 150.6205440  98.4989510
  69.7613480 150.3308380  99.3971340  69.7559050 149.8445570  97.9634740
  62.4000720 150.4003970 100.2761130  62.2243200 149.4839510 100.0628930
  61.5456460 150.7591260 100.5158930  69.6238470 148.1293000  97.0587510
  68.9303630 148.1270290  96.3989790  70.3661330 147.7052320  96.6281680
  69.1888400 149.7555710 101.1336000  69.6445350 148.9745090 101.4474620
  69.5280920 150.4662530 101.6777180  73.9365210 138.6854560 111.4660440
  73.3209480 139.1934230 110.9375900  73.6161630 137.7852890 111.4086380
  56.9390950 145.5272170 108.2926740  57.1021990 145.0577530 107.4746110
  57.4043400 145.0195730 108.9575580  61.7109720 134.6577930 103.3287310
  61.2677870 135.4387470 102.9971830  62.2694710 134.9807820 104.0358250
  65.9979530 137.5246450 108.9322630  65.5358900 137.7329470 109.7442570
  65.5957640 136.7105800 108.6293300  70.9984040 138.7455400 110.0619290
  70.1477630 138.4461150 110.3828360  70.8385830 138.9897410 109.1503110
  68.0933750 140.2457150 112.1618080  68.4187160 139.4120900 111.8220310
  68.8814080 140.7685670 112.3096410  64.8268540 134.2788630  98.2093140
  64.2022720 134.2748500  98.9346450  64.7398660 133.4119590  97.8129110
  63.7485620 135.2025260 105.1876910  64.0457950 136.1088090 105.1068930
  64.2971180 134.7144040 104.5736480  61.5023940 139.7811500 101.0568560
  61.2764860 139.5648670 101.9615180  60.7216470 140.2139960 100.7114530
  68.7321700 139.7874870  99.6559210  68.1330590 140.5110670  99.4722830
  69.2801310 139.7251650  98.8735660  63.9423150 140.6797080 111.7228830
  63.8466750 139.7391810 111.5729230  64.7855130 140.9012150 111.3276900
  67.3386570 138.4238410 101.6862490  67.7316140 138.7410610 100.8731180
  67.7003420 137.5450290 101.8007010  59.0733690 137.0910750 109.8762610
  58.6797080 137.9385960 110.0835390  58.3852090 136.4537120 110.0671250
  65.6478740 137.1745720 112.9459350  64.9577060 136.9817920 113.5805440
  66.3911040 137.4580360 113.4783650  56.3750740 135.0139210 103.9092690
  56.0863790 135.5842070 104.6217670  57.1196500 134.5343660 104.2723920
  56.5620970 138.9559330  95.1195410  56.4795640 139.8990090  95.2610400
  56.2104030 138.8134240  94.2407760  67.9241710 141.0144160 105.7813270
  67.1922830 141.5230970 106.1303370  67.5266050 140.1974140 105.4802050
  64.3619100 137.6898360 104.1865760  64.3655160 137.2488310 103.3370300
  65.2570220 138.0115690 104.2937580  60.2121480 137.5724850 103.1459970
  59.8721530 138.0500080 103.9027020  59.4498800 137.1189970 102.7861070
  64.4239250 138.6910440  97.1772520  64.5452070 138.6496920  98.1258340
  64.0387760 139.5534590  97.0219250  68.3867620 136.4677840 105.1936210
  68.4040360 136.9186490 106.0378060  68.1383200 135.5683480 105.4069650
  63.4360750 141.0011580  96.5755820  62.8677650 140.5529830  95.9491730
  64.1449750 141.3604360  96.0420970  71.8138370 133.8810020 111.0322590
  72.1384140 133.1499680 111.5580570  71.8494880 133.5623660 110.1303580
  58.5129930 144.9023600 110.4522550  58.1284720 144.2617270 111.0505510
  58.8242120 145.6059720 111.0217280  64.6627070 141.7500140 105.9331170
  65.0297200 141.2758710 106.6792510  64.4732130 142.6241710 106.2739510
  57.5267560 136.4943830 102.0624640  57.2414480 136.1299500 102.9003260
  57.4646420 135.7624290 101.4487780  62.4526440 140.7908780 108.2515380
  62.1483510 141.6700760 108.4765740  63.4072900 140.8508570 108.2872820
  60.9808230 144.9969770  98.8482230  60.2070490 144.4567390  98.6880950
  61.7102860 144.4776380  98.5099990  71.7396210 143.9935130 104.6408620
  72.4595330 144.4890420 104.2504730  71.5378030 143.3153020 103.9962490
  67.1215010 144.0644190 110.5277620  67.0552320 143.1439860 110.2735210
  66.4920150 144.1619630 111.2422260  69.9154540 139.7592740  97.0800170
  70.8034160 140.0709970  96.9051510  69.8859630 138.8864990  96.6880750
  61.0245630 144.6650150 102.4861040  61.5424300 143.8618410 102.4317930
  60.5729650 144.6029290 103.3277870  65.9115130 145.9316430  97.7588340
  66.2530830 146.6758660  97.2631660  65.0827840 146.2447550  98.1213170
  58.5090170 141.6311520 109.3986740  58.1505110 142.2965370 109.9860080
  58.2144730 140.7995070 109.7699360  61.7103290 142.0895760 112.2826290
  61.4103430 142.2352940 111.3854110  62.4814530 141.5301050 112.1899680
  67.0531740 146.8864760 110.2781420  67.0676280 145.9545720 110.0600330
  66.3456840 146.9724520 110.9171190  72.1868810 141.0704580  96.5480030
  72.1032530 141.5018800  95.6976470  72.9063000 141.5302930  96.9806850
  73.2642950 143.5272100 109.6250000  72.5391140 144.1200880 109.4279390
  73.7918410 143.5195640 108.8263370  73.2156060 147.9246840  99.2762160
  72.5732220 147.2702460  99.5505880  72.8286720 148.3301930  98.5002830
  68.7942540 145.2532270 103.1233850  69.1466360 144.6560400 102.4635220
  67.9104870 144.9276500 103.2942100  64.8805820 146.0129960 100.5304260
  65.5676950 146.5599170 100.9111850  64.0938240 146.5570690 100.5653870
  57.0198220 141.6302780  96.0221340  57.8893070 141.9127580  96.3057260
  56.5288540 142.4438650  95.9070150  64.1833030 143.0175990 100.1429620
  64.6395810 143.8281240 100.3689810  63.8321240 142.6999130 100.9748110
  66.4865640 148.5282330 107.3721920  67.1307860 148.7341710 108.0495340
  66.8495080 147.7670730 106.9192770  60.0844810 133.3613640 100.6152140
  59.9559440 133.3531540 101.5637060  59.2606830 133.6996730 100.2643150
  67.7597720 146.5314680 106.0899370  68.4019950 145.8307840 106.2031540
  68.2847070 147.3113120 105.9096260  71.6053440 146.8163300  95.8138510
  71.3791020 146.0993740  96.4063150  71.2149640 146.5675740  94.9760260
  69.5335340 147.3309580 109.2935430  69.8691580 147.9176270 109.9713350
  68.6135680 147.2002290 109.5233220  57.3869470 150.8430160  96.5882970
  57.7467110 151.4419500  95.9340240  57.2461810 151.3890050  97.3618000
  57.0838740 135.1204760 110.0758840  56.3697260 135.3201680 110.6811450
  57.5033780 134.3444330 110.4473640  71.1869690 144.7335240  97.4752670
  70.8991390 145.1947930  98.2630550  71.9821860 144.2733010  97.7436890
  57.3711330 149.1085020 111.0625370  57.4802450 148.1679760 110.9220760
  56.7191890 149.3739770 110.4139100  65.3623920 147.3800910 112.4623490
  65.0420790 146.6610150 113.0069180  64.6882280 148.0555980 112.5359550
  63.4038090 148.2261360  97.4056640  63.3948190 148.9591050  96.7901150
  62.4836450 147.9792940  97.4983600  59.0044730 143.4476250  98.1503400
  58.3972680 144.1875150  98.1598700  59.4794080 143.5375610  97.3241600
  68.5777520 137.6127070 107.8260290  68.9458340 136.7922280 108.1539860
  67.7175720 137.6728960 108.2415940  66.3897690 148.2889600  96.0681830
  66.4909670 148.0853590  95.1383810  65.4899430 148.0347880  96.2729610
  63.9123580 138.8469960 100.0505730  63.2039730 139.3156300 100.4919340
  64.1968060 138.1891970 100.6850920  65.5379510 140.2666660 108.0498260
  66.0364760 140.7412480 108.7150110  65.6802460 139.3430180 108.2568290
  65.0315800 150.8075920 100.7629500  65.2857300 150.7697310  99.8408870
  64.0828280 150.6809250 100.7557750  62.1158600 137.1555040  97.4256440
  62.9649130 137.5925190  97.3596630  61.7489870 137.4675300  98.2528500
  72.7446370 136.4834620 108.8926650  72.2419970 137.2240020 109.2320460
  73.5603030 136.8718620 108.5763440  71.0368380 141.7267800 102.3388010
  70.0958520 141.7418030 102.5135700  71.3512450 140.9403760 102.7848310
  61.0150020 143.4087400  95.8991970  61.7813290 143.2968760  96.4617400
  61.0924710 142.7125370  95.2468740  59.7096780 140.8412470  96.5824860
  59.7900370 139.8939980  96.6942260  60.6016530 141.1719350  96.6885520
  73.0393960 148.8976650 104.0142270  73.1641380 149.7207820 104.4866080
  73.9059520 148.6867380 103.6666420  57.3956970 147.0581430  99.5600910
  56.4696750 147.3002570  99.5506320  57.8613400 147.8855690  99.4385660
  59.5169770 150.1753930 112.8744980  60.3182500 150.4965980 113.2880380
  59.0021590 149.8149510 113.5964890  63.6213800 150.1638170  95.5084970
  64.4142410 150.4527000  95.0566760  63.1018150 149.7330340  94.8297450
  68.3534400 146.2833800 112.8220390  67.7472560 146.3065400 112.0816140
  68.0488510 145.5516840 113.3587640  69.7834770 150.0114090 111.4329800
  70.7356520 149.9272110 111.3830040  69.6362990 150.6755800 112.1063590
  72.6743970 149.3908300  96.9321710  72.3885480 148.9773440  96.1175890
  72.4763520 150.3196010  96.8122230  57.2367580 142.6627390 111.8181030
  57.7406600 142.0834670 112.3897260  56.4975000 142.9467620 112.3557400
  64.1391200 145.3841580  95.3727320  64.0341840 144.7693930  96.0988700
  63.9715420 144.8607470  94.5890330  64.2905520 144.0698380 111.3516550
  63.5251190 144.6383380 111.2671220  64.4721480 143.7774590 110.4584780
  67.3793930 144.4461610  95.9769310  66.8304030 144.8930910  96.6212050
  68.0013190 143.9410860  96.5006980  71.4328870 145.8003710 111.9091570
  72.1738340 146.1379470 111.4059030  70.6701550 145.9695770 111.3561340
  59.2690660 140.8056980 112.7131100  59.3096000 140.5070850 113.6216330
  60.1236160 141.2064590 112.5538620  63.0469050 143.4052530  97.8734610
  63.4685470 143.2392400  98.7166000  63.1719890 142.5952760  97.3789750
  61.2096470 139.3849080 110.6805590  60.6792930 138.8940030 110.0528930
  61.8784540 139.8133280 110.1463520  65.5596690 142.4290140  95.1211710
  66.0802350 141.7139160  94.7552860  66.2065090 143.0676010  95.4212220
  70.1074530 143.8518540 110.4446780  70.5215550 144.0063620 111.2937200
  69.1725530 143.9773760 110.6072560  70.5796700 141.1914700 112.4485930
  71.1617470 140.4367020 112.3606410  70.7558470 141.7222140 111.6717410
  61.6968770 136.3511450 110.7602880  61.6025640 135.7332200 110.0353750
  61.1166160 137.0777740 110.5332790  64.4630210 134.9084690 107.7930270
  64.0147510 134.9308950 106.9475820  63.8295410 134.5103710 108.3900570
  64.8689760 143.8039020 108.4142710  65.2877870 144.6471750 108.2418950
  63.9498390 143.9411060 108.1849490  67.2053660 141.5355200 109.7980550
  67.3249870 140.9396340 110.5375390  68.0647660 141.5724890 109.3781850
  69.5441560 142.0892390 108.3743060  69.0176780 142.6135010 107.7708200
  69.8872900 142.7219780 109.0052790  61.9427950 139.4785760  94.8192770
  61.7417010 138.6153120  95.1806110  61.7720000 139.3919120  93.8814370
  62.7197180 150.1092030 109.5300440  62.1818270 150.8338090 109.2109140
  62.9731140 149.6322370 108.7397780  63.9722430 138.0776550 111.0556370
  64.5622120 137.7692400 111.7434190  63.1542670 137.6056300 111.2116270
  68.7915860 137.6942360 111.2889390  68.1031380 137.0323900 111.2239380
  69.5121880 137.2480630 111.7337850  60.7410750 136.5786380  94.8070650
  61.0436650 136.5853810  93.8989800  61.4805340 136.2284240  95.3038310
  63.9595680 135.5221000  95.7926850  63.6117680 134.8444990  95.2129300
  64.1608450 135.0610510  96.6070240  66.1244720 150.5101750  97.4113450
  67.0195510 150.8486720  97.4332210  66.1562350 149.7881160  96.7837730
  59.7640880 145.8828800  95.6400450  60.2015750 146.4258470  96.2958030
  60.2488610 145.0575750  95.6496790  56.9786680 148.6717830 103.0920710
  57.3089690 147.8038890 102.8599350  57.4077680 148.8776350 103.9225670
  61.5748600 147.0026840 100.7522680  61.2744140 146.8791810 101.6526590
  61.4686090 146.1435430 100.3438410  57.4676890 149.5388420 105.8302340
  57.0307880 149.7189220 106.6626490  58.0354570 150.2963040 105.6884060
  73.1039070 149.0405420 110.1179650  72.5041060 149.0997980 109.3743570
  73.2332970 148.1010400 110.2476500  74.3440520 146.7823240  95.4549360
  73.5133480 146.8499890  95.9256590  74.5212350 147.6727360  95.1516220
  73.7996980 143.5270720  97.9583560  74.5615890 144.0967370  98.0643250
  73.8151350 142.9597920  98.7291870  57.3001320 142.0508650 102.1891220
  56.6450160 141.7820290 101.5450920  58.1379270 141.9413130 101.7393200
  74.8056950 144.3820820 102.8025490  75.1765780 143.5988140 102.3961460
  75.4458880 145.0709920 102.6242790  71.7890710 145.7657400 108.2155810
  70.9750550 146.1954560 108.4781600  72.1964910 146.3775810 107.6024860
  73.8516150 143.8205090  95.1156080  74.1264990 144.7283970  94.9875300
  73.6626890 143.7567620  96.0518070  73.7481490 141.7574080 100.1085510
  73.3725090 140.9902010  99.6766800  73.0184610 142.1396780 100.5960440
  58.3377250 142.4361220 106.7294560  58.7050290 142.3488620 107.6090580
  57.7688070 141.6727770 106.6301420  73.1381110 140.9045600 109.7425030
  72.9067200 140.6758350 108.8422980  73.3985660 141.8245150 109.6969920
  57.8893250 139.3470310 110.6352980  56.9949300 139.3137070 110.9746690
  58.4290800 139.5457100 111.4004230  71.5769180 136.1302030 112.5204730
  72.4539360 136.1385430 112.9038730  71.5890020 135.3932870 111.9097080
  56.5139400 139.2607580  98.1316550  55.6103480 139.5237780  97.9568210
  56.9980020 139.5318750  97.3516510  73.0232450 139.9831570 103.4092750
  73.5469930 139.4894220 102.7782920  73.6091870 140.1181930 104.1540320
  73.2022170 140.0671440 106.9312300  72.2524880 140.0334980 107.0457290
  73.3835180 140.9771550 106.6962070  59.0566610 138.3173120  96.0410930
  59.7658310 137.8956340  95.5558210  58.3406550 138.3848350  95.4094280
  58.7040770 134.3712450  95.0813580  59.4268900 134.9121390  95.3994800
  58.9765290 134.0975870  94.2055120  72.5132420 139.2404920  99.3485160
  73.0091540 139.0075790 100.1334040  72.3148490 138.4016760  98.9322800
  58.3932960 133.6218640 104.9836200  59.0409150 133.0716020 104.5431360
  58.8134800 133.8761790 105.8052010  73.9419580 137.8765870 101.8822840
  73.8318860 137.7221910 102.8205110  74.7027170 137.3486810 101.6398250
  72.2885300 133.8160000 108.3405840  72.9257520 134.4294140 108.7065030
  72.4360190 133.8520660 107.3955070  74.9048340 136.4784450  97.7485690
  74.1099840 136.4129570  98.2778600  75.1091620 137.4135090  97.7371040
  71.8466760 150.5176000 101.7424080  72.4425830 150.1960570 101.0658500
  72.1044910 150.0447820 102.5337350  58.1464960 133.7774310 107.7261520
  57.7979780 134.2338130 108.4919700  57.8152660 132.8831440 107.8083950
  59.7529330 146.9493910 111.8914710  59.7098960 146.5786820 112.7729170
  59.8840340 147.8871480 112.0316530  63.4535360 148.5053500 107.4924430
  63.2126720 148.7728060 106.6054950  64.3938000 148.6759230 107.5475290
  65.6589780 134.9686190 111.2480940  65.5978670 135.5608020 111.9976350
  66.5990160 134.8612150 111.1031200  68.2964340 134.6256250 110.8873230
  68.9104750 134.9435540 110.2254310  68.8413900 134.1404840 111.5069090
  74.7139520 150.5247880 108.2935070  74.2197800 150.9216750 107.5762200
  74.1052810 149.8997090 108.6872350  58.8185600 133.3050510 111.0012290
  59.3668590 133.1238560 110.2378400  58.8840910 132.5144620 111.5368600
  59.5917360 149.8956160 109.0112490  58.9977680 149.7640860 109.7502530
  59.5841200 149.0594300 108.5454590  69.0372380 133.1888390 107.2142520
  68.1632220 133.5223500 107.0115450  68.9283130 132.7161570 108.0394390
  69.9444360 135.3959260 108.5984240  69.6157720 134.5811020 108.2185970
  70.8926660 135.3529070 108.4749930  59.2229590 147.2614540 107.9620530
  58.4963650 146.6419830 107.8946480  59.2838740 147.6555150 107.0918610
  62.8274690 149.4759540 104.7469940  63.3439710 148.8646900 104.2218200
  63.4772070 149.9788320 105.2380950  65.5670190 150.3668030 105.5738920
  65.8548000 150.1122330 104.6971930  66.0793410 149.8145390 106.1644490
  66.7847200 134.1058230 106.1535430  66.0018990 134.5803730 106.4332190
  66.4910130 133.2013060 106.0448610  57.5059590 150.5788930 101.1717290
  57.3381630 149.9459610 101.8699180  56.6394100 150.7848330 100.8211480
  58.1287610 134.4105710  98.6749150  58.8866970 134.5234590  98.1013180
  57.6664780 135.2474910  98.6292580  64.6701420 136.5244980 101.6651460
  63.8575930 136.1501870 101.3247340  65.1743060 135.7690060 101.9672650
  59.1122290 149.2722160  98.6167430  58.5869910 149.6530190  97.9129390
  59.0366870 149.8972930  99.3377140  60.5012760 134.9369760  97.2151120
  61.0305520 134.1499560  97.0859070  61.1341080 135.6160950  97.4486650
  62.6950600 134.6744900 100.2696510  62.0653340 133.9732210 100.4366640
  62.1555740 135.4349030 100.0529670  73.8687610 150.8309700  99.9381370
  74.0439800 150.1447440  99.2942290  73.1709180 151.3556750  99.5458040
  62.8206160 133.9528880 112.7049000  62.5390430 134.4562480 111.9409820
  63.2025860 133.1550630 112.3391130  61.7115260 151.2204540  97.4916680
  62.4434080 150.9363820  96.9440570  61.9708930 150.9817820  98.3816060
  60.8730050 147.3369270  97.4963010  60.2438930 147.8054370  98.0448840
  60.9877880 146.4918490  97.9309200  69.4221620 133.3682460 113.2829470
  69.3087070 133.6877070 114.1780990  70.2391360 133.7694970 112.9866750
  72.2020110 150.5153990 112.7648160  72.9945430 150.0203220 112.5574120
  72.4953260 151.1944130 113.3723770  68.3279770 141.3874930  83.6464210
  68.2473820 140.4729540  83.3755920  67.9144190 141.8842000  82.9403920
  66.4597810 143.1653950  85.5273480  65.6839910 142.6854390  85.8172050
  67.1110740 142.4859600  85.3529640  60.4763640 143.4773760  86.4049240
  59.6448520 143.2222470  86.8045750  61.0844620 143.5484530  87.1407160
  70.4805240 147.5714140  84.3072610  70.0186770 146.8001380  84.6359780
  71.2930790 147.5980210  84.8125060  60.4564900 147.5113850  86.6007260
  60.7592940 146.6211590  86.4217480  61.2008490 148.0684070  86.3729510
  58.8855590 138.4375650  80.1891630  57.9972290 138.7791620  80.0871510
  59.1696780 138.2375970  79.2972460  56.8488600 141.0381300  86.0731330
  57.4204710 140.2703500  86.0734970  56.8490140 141.3370060  85.1637940
  66.7068550 149.8572150  83.9276600  66.0879990 150.3129650  83.3571040
  67.5620330 150.0123610  83.5266300  65.9006800 145.8411140  85.5343640
  65.8315080 144.9001080  85.3732770  66.6626660 145.9312550  86.1066210
  58.0913470 136.4465660  87.8600260  57.9116310 135.5491410  88.1403020
  57.6893550 136.9937530  88.5347210  66.9311970 138.6481520  85.7612570
  67.3076790 137.7753400  85.6486240  66.8331480 138.9840220  84.8703010
  70.7136090 136.1431960  82.6940910  71.5345710 135.6528530  82.7366390
  70.7470170 136.7329620  83.4472750  58.7100140 138.9426160  86.4682600
  59.3910250 139.2064530  87.0870000  58.3948190 138.1027030  86.8020610
  62.9024710 139.9893520  85.5555190  63.4102930 140.4874490  86.1960210
  63.4337950 139.2128720  85.3794550  75.0035640 138.1598710  89.2584540
  74.2987810 138.5480420  88.7399650  75.2693560 138.8549000  89.8605470
  61.1860810 134.6292080  89.8218610  61.1879250 135.1464470  89.0164510
  60.3565120 134.1522260  89.7988540  67.5731900 144.7411390  81.3208510
  66.9549170 145.2060840  80.7571230  68.0855150 145.4338870  81.7378020
  62.4363660 144.2687260  87.9992110  62.1033040 144.8956180  88.6413180
  62.6130340 144.7949140  87.2193780  70.9497570 138.0832340  85.4668450
  70.2453140 138.3717230  86.0471560  71.3109730 138.8932450  85.1068010
  60.8676140 136.3402040  87.8289060  61.2092950 137.1844090  87.5342930
  59.9291950 136.4885780  87.9454400  61.6482760 146.2368060  89.8141290
  62.2656760 146.9119140  89.5325740  60.7875880 146.6456040  89.7228790
  56.9415100 145.4267920  78.6948140  56.5643080 145.9155020  77.9633040
  57.1988170 146.0993200  79.3254670  72.5660350 147.7007470  87.7295930
  71.8823870 148.3706580  87.7212600  73.1054640 147.8988120  86.9640790
  74.0184490 137.5287130  85.8577660  73.0709400 137.5626110  85.9893090
  74.3434480 138.3426080  86.2427020  64.5504030 133.8284310  84.1533650
  64.8579010 133.2731200  83.4369150  63.6204730 133.9628770  83.9706640
  70.1019090 149.5451600  86.4441110  70.1146250 149.1413890  85.5763370
  69.5494310 150.3198890  86.3402540  71.3964510 146.2667820  81.5331280
  71.2860840 145.3242150  81.6580700  71.3932760 146.6283460  82.4194040
  69.5004530 144.4481440  87.7723720  69.9173320 144.2341550  86.9377180
  70.2244350 144.7054230  88.3432340  66.9384790 141.8933140  80.8893770
  66.0114070 141.8270520  81.1182240  67.0909610 142.8313270  80.7749010
  66.9253870 138.1650140  77.8860930  65.9857540 138.3264100  77.9713390
  67.2437130 138.8835820  77.3396920  73.4466630 142.8468660  87.8639960
  72.6185260 142.9161750  87.3890090  74.0417110 143.4322970  87.3955790
  70.9682080 143.4553440  81.3929020  70.3494500 143.1172990  80.7455320
  70.9506530 142.8113200  82.1008210  70.4108640 139.6337980  88.8094830
  69.9979820 140.4591690  89.0634820  69.6784590 139.0483020  88.6171190
  62.5441430 142.4197880  83.6713500  62.1398430 141.7075130  83.1759400
  62.6304550 142.0751120  84.5601540  63.0123130 146.1065440  85.8352710
  62.7151420 145.5010910  85.1560490  63.9622950 146.1442750  85.7242070
  61.2570050 139.1941090  87.4512540  61.8084640 139.3036430  86.6765790
  61.7713560 139.5678690  88.1667770  71.1008740 149.6797310  89.4975810
  70.6239300 150.4869500  89.3048420  70.4170530 149.0275640  89.6502020
  62.1041560 145.8447130  92.4860510  61.2070090 146.0687100  92.7333910
  62.1294430 145.9682070  91.5371910  69.1446780 142.6940250  78.4001770
  69.5840060 141.8562680  78.2539590  69.8575200 143.3269650  78.4865910
  60.9312780 142.7160450  91.0617880  60.7920550 143.5883250  91.4305280
  60.0494140 142.3733260  90.9165820  67.2542160 147.6336320  82.3683010
  67.6938070 148.3760650  81.9538400  67.1929050 147.8762890  83.2921970
  62.7293130 148.6582150  93.2703030  62.7008560 149.0625100  92.4031460
  62.5658100 147.7292510  93.1074630  72.7263920 133.9483060  76.7142810
  72.4136580 134.0409890  77.6141880  73.4876390 134.5264090  76.6640240
  59.2446060 141.3142860  81.1720150  59.1243660 142.0404950  80.5601420
  58.9346950 140.5445770  80.6948060  74.6807950 149.4409250  94.5667200
  75.1567670 149.9192140  95.2456280  75.3015110 149.3726740  93.8412700
  56.8831430 144.4858000  86.9788790  56.9611850 144.6206770  86.0344510
  57.4973110 143.7773890  87.1716910  58.1279060 146.1858190  83.3894970
  57.7207140 146.3272780  82.5348570  59.0192070 145.9018350  83.1866180
  74.0841200 146.6322100  91.7267210  74.2104260 146.3933980  90.8084390
  74.1262580 145.8006640  92.1989290  67.9457940 150.3350100  90.2962020
  68.4602610 150.2458110  91.0984450  67.1027020 150.6809800  90.5889930
  69.9212340 150.6205440  79.7246020  69.7613480 150.3308380  80.6227850
  69.7559050 149.8445570  79.1891250  62.4000720 150.4003970  81.5017640
  62.2243200 149.4839510  81.2885440  61.5456460 150.7591260  81.7415440
  69.6238470 148.1293000  78.2844020  68.9303630 148.1270290  77.6246300
  70.3661330 147.7052320  77.8538190  69.1888400 149.7555710  82.3592510
  69.6445350 148.9745090  82.6731130  69.5280920 150.4662530  82.9033690
  73.9365210 138.6854560  92.6916950  73.3209480 139.1934230  92.1632410
  73.6161630 137.7852890  92.6342890  56.9390950 145.5272170  89.5183250
  57.1021990 145.0577530  88.7002620  57.4043400 145.0195730  90.1832090
  61.7109720 134.6577930  84.5543820  61.2677870 135.4387470  84.2228340
  62.2694710 134.9807820  85.2614760  65.9979530 137.5246450  90.1579140
  65.5358900 137.7329470  90.9699080  65.5957640 136.7105800  89.8549810
  70.9984040 138.7455400  91.2875800  70.1477630 138.4461150  91.6084870
  70.8385830 138.9897410  90.3759620  68.0933750 140.2457150  93.3874590
  68.4187160 139.4120900  93.0476820  68.8814080 140.7685670  93.5352920
  63.7485620 135.2025260  86.4133420  64.0457950 136.1088090  86.3325440
  64.2971180 134.7144040  85.7992990  61.5023940 139.7811500  82.2825070
  61.2764860 139.5648670  83.1871690  60.7216470 140.2139960  81.9371040
  68.7321700 139.7874870  80.8815720  68.1330590 140.5110670  80.6979340
  69.2801310 139.7251650  80.0992170  63.9423150 140.6797080  92.9485340
  63.8466750 139.7391810  92.7985740  64.7855130 140.9012150  92.5533410
  67.3386570 138.4238410  82.9119000  67.7316140 138.7410610  82.0987690
  67.7003420 137.5450290  83.0263520  59.0733690 137.0910750  91.1019120
  58.6797080 137.9385960  91.3091900  58.3852090 136.4537120  91.2927760
  65.6478740 137.1745720  94.1715860  64.9577060 136.9817920  94.8061950
  66.3911040 137.4580360  94.7040160  56.3750740 135.0139210  85.1349200
  56.0863790 135.5842070  85.8474180  57.1196500 134.5343660  85.4980430
  56.5620970 138.9559330  76.3451920  56.4795640 139.8990090  76.4866910
  56.2104030 138.8134240  75.4664270  67.9241710 141.0144160  87.0069780
  67.1922830 141.5230970  87.3559880  67.5266050 140.1974140  86.7058560
  64.3619100 137.6898360  85.4122270  64.3655160 137.2488310  84.5626810
  65.2570220 138.0115690  85.5194090  60.2121480 137.5724850  84.3716480
  59.8721530 138.0500080  85.1283530  59.4498800 137.1189970  84.0117580
  68.3867620 136.4677840  86.4192720  68.4040360 136.9186490  87.2634570
  68.1383200 135.5683480  86.6326160  63.4360750 141.0011580  77.8012330
  62.8677650 140.5529830  77.1748240  64.1449750 141.3604360  77.2677480
  58.5129930 144.9023600  91.6779060  58.1284720 144.2617270  92.2762020
  58.8242120 145.6059720  92.2473790  64.6627070 141.7500140  87.1587680
  65.0297200 141.2758710  87.9049020  64.4732130 142.6241710  87.4996020
  57.5267560 136.4943830  83.2881150  57.2414480 136.1299500  84.1259770
  57.4646420 135.7624290  82.6744290  62.4526440 140.7908780  89.4771890
  62.1483510 141.6700760  89.7022250  63.4072900 140.8508570  89.5129330
  60.9808230 144.9969770  80.0738740  60.2070490 144.4567390  79.9137460
  61.7102860 144.4776380  79.7356500  71.7396210 143.9935130  85.8665130
  72.4595330 144.4890420  85.4761240  71.5378030 143.3153020  85.2219000
  67.1215010 144.0644190  91.7534130  67.0552320 143.1439860  91.4991720
  66.4920150 144.1619630  92.4678770  61.0245630 144.6650150  83.7117550
  61.5424300 143.8618410  83.6574440  60.5729650 144.6029290  84.5534380
  65.9115130 145.9316430  78.9844850  66.2530830 146.6758660  78.4888170
  65.0827840 146.2447550  79.3469680  58.5090170 141.6311520  90.6243250
  58.1505110 142.2965370  91.2116590  58.2144730 140.7995070  90.9955870
  61.7103290 142.0895760  93.5082800  61.4103430 142.2352940  92.6110620
  62.4814530 141.5301050  93.4156190  67.0531740 146.8864760  91.5037930
  67.0676280 145.9545720  91.2856840  66.3456840 146.9724520  92.1427700
  73.2642950 143.5272100  90.8506510  72.5391140 144.1200880  90.6535900
  73.7918410 143.5195640  90.0519880  73.2156060 147.9246840  80.5018670
  72.5732220 147.2702460  80.7762390  72.8286720 148.3301930  79.7259340
  68.7942540 145.2532270  84.3490360  69.1466360 144.6560400  83.6891730
  67.9104870 144.9276500  84.5198610  64.8805820 146.0129960  81.7560770
  65.5676950 146.5599170  82.1368360  64.0938240 146.5570690  81.7910380
  57.0198220 141.6302780  77.2477850  57.8893070 141.9127580  77.5313770
  56.5288540 142.4438650  77.1326660  64.1833030 143.0175990  81.3686130
  64.6395810 143.8281240  81.5946320  63.8321240 142.6999130  82.2004620
  66.4865640 148.5282330  88.5978430  67.1307860 148.7341710  89.2751850
  66.8495080 147.7670730  88.1449280  67.7597720 146.5314680  87.3155880
  68.4019950 145.8307840  87.4288050  68.2847070 147.3113120  87.1352770
  71.6053440 146.8163300  77.0395020  71.3791020 146.0993740  77.6319660
  71.2149640 146.5675740  76.2016770  69.5335340 147.3309580  90.5191940
  69.8691580 147.9176270  91.1969860  68.6135680 147.2002290  90.7489730
  57.3869470 150.8430160  77.8139480  57.7467110 151.4419500  77.1596750
  57.2461810 151.3890050  78.5874510  57.0838740 135.1204760  91.3015350
  56.3697260 135.3201680  91.9067960  57.5033780 134.3444330  91.6730150
  71.1869690 144.7335240  78.7009180  70.8991390 145.1947930  79.4887060
  71.9821860 144.2733010  78.9693400  57.3711330 149.1085020  92.2881880
  57.4802450 148.1679760  92.1477270  56.7191890 149.3739770  91.6395610
  65.3623920 147.3800910  93.6880000  65.0420790 146.6610150  94.2325690
  64.6882280 148.0555980  93.7616060  63.4038090 148.2261360  78.6313150
  63.3948190 148.9591050  78.0157660  62.4836450 147.9792940  78.7240110
  59.0044730 143.4476250  79.3759910  58.3972680 144.1875150  79.3855210
  59.4794080 143.5375610  78.5498110  68.5777520 137.6127070  89.0516800
  68.9458340 136.7922280  89.3796370  67.7175720 137.6728960  89.4672450
  71.9439550 136.5684010  79.8604360  71.3152710 136.6729680  79.1462590
  71.4491470 136.7880790  80.6498240  66.3897690 148.2889600  77.2938340
  66.4909670 148.0853590  76.3640320  65.4899430 148.0347880  77.4986120
  65.5379510 140.2666660  89.2754770  66.0364760 140.7412480  89.9406620
  65.6802460 139.3430180  89.4824800  67.9439010 135.5720620  82.7158030
  67.8206790 135.5906750  81.7667540  68.8923570 135.6199560  82.8356430
  65.0315800 150.8075920  81.9886010  65.2857300 150.7697310  81.0665380
  64.0828280 150.6809250  81.9814260  71.0368380 141.7267800  83.5644520
  70.0958520 141.7418030  83.7392210  71.3512450 140.9403760  84.0104820
  61.0150020 143.4087400  77.1248480  61.7813290 143.2968760  77.6873910
  61.0924710 142.7125370  76.4725250  59.7096780 140.8412470  77.8081370
  59.7900370 139.8939980  77.9198770  60.6016530 141.1719350  77.9142030
  73.0393960 148.8976650  85.2398780  73.1641380 149.7207820  85.7122590
  73.9059520 148.6867380  84.8922930  57.3956970 147.0581430  80.7857420
  56.4696750 147.3002570  80.7762830  57.8613400 147.8855690  80.6642170
  59.5169770 150.1753930  94.1001490  60.3182500 150.4965980  94.5136890
  59.0021590 149.8149510  94.8221400  63.6213800 150.1638170  76.7341480
  64.4142410 150.4527000  76.2823270  63.1018150 149.7330340  76.0553960
  68.3534400 146.2833800  94.0476900  67.7472560 146.3065400  93.3072650
  68.0488510 145.5516840  94.5844150  69.7834770 150.0114090  92.6586310
  70.7356520 149.9272110  92.6086550  69.6362990 150.6755800  93.3320100
  72.6743970 149.3908300  78.1578220  72.3885480 148.9773440  77.3432400
  72.4763520 150.3196010  78.0378740  57.2367580 142.6627390  93.0437540
  57.7406600 142.0834670  93.6153770  56.4975000 142.9467620  93.5813910
  64.1391200 145.3841580  76.5983830  64.0341840 144.7693930  77.3245210
  63.9715420 144.8607470  75.8146840  64.2905520 144.0698380  92.5773060
  63.5251190 144.6383380  92.4927730  64.4721480 143.7774590  91.6841290
  67.3793930 144.4461610  77.2025820  66.8304030 144.8930910  77.8468560
  68.0013190 143.9410860  77.7263490  71.4328870 145.8003710  93.1348080
  72.1738340 146.1379470  92.6315540  70.6701550 145.9695770  92.5817850
  59.2690660 140.8056980  93.9387610  59.3096000 140.5070850  94.8472840
  60.1236160 141.2064590  93.7795130  63.0469050 143.4052530  79.0991120
  63.4685470 143.2392400  79.9422510  63.1719890 142.5952760  78.6046260
  61.2096470 139.3849080  91.9062100  60.6792930 138.8940030  91.2785440
  61.8784540 139.8133280  91.3720030  65.5596690 142.4290140  76.3468220
  66.0802350 141.7139160  75.9809370  66.2065090 143.0676010  76.6468730
  70.1074530 143.8518540  91.6703290  70.5215550 144.0063620  92.5193710
  69.1725530 143.9773760  91.8329070  70.5796700 141.1914700  93.6742440
  71.1617470 140.4367020  93.5862920  70.7558470 141.7222140  92.8973920
  61.6968770 136.3511450  91.9859390  61.6025640 135.7332200  91.2610260
  61.1166160 137.0777740  91.7589300  64.4630210 134.9084690  89.0186780
  64.0147510 134.9308950  88.1732330  63.8295410 134.5103710  89.6157080
  64.8689760 143.8039020  89.6399220  65.2877870 144.6471750  89.4675460
  63.9498390 143.9411060  89.4106000  67.2053660 141.5355200  91.0237060
  67.3249870 140.9396340  91.7631900  68.0647660 141.5724890  90.6038360
  69.5441560 142.0892390  89.5999570  69.0176780 142.6135010  88.9964710
  69.8872900 142.7219780  90.2309300  61.9427950 139.4785760  76.0449280
  61.7417010 138.6153120  76.4062620  61.7720000 139.3919120  75.1070880
  62.7197180 150.1092030  90.7556950  62.1818270 150.8338090  90.4365650
  62.9731140 149.6322370  89.9654290  63.9722430 138.0776550  92.2812880
  64.5622120 137.7692400  92.9690700  63.1542670 137.6056300  92.4372780
  68.7915860 137.6942360  92.5145900  68.1031380 137.0323900  92.4495890
  69.5121880 137.2480630  92.9594360  60.7410750 136.5786380  76.0327160
  61.0436650 136.5853810  75.1246310  61.4805340 136.2284240  76.5294820
  66.1244720 150.5101750  78.6369960  67.0195510 150.8486720  78.6588720
  66.1562350 149.7881160  78.0094240  59.7640880 145.8828800  76.8656960
  60.2015750 146.4258470  77.5214540  60.2488610 145.0575750  76.8753300
  56.9786680 148.6717830  84.3177220  57.3089690 147.8038890  84.0855860
  57.4077680 148.8776350  85.1482180  61.5748600 147.0026840  81.9779190
  61.2744140 146.8791810  82.8783100  61.4686090 146.1435430  81.5694920
  57.4676890 149.5388420  87.0558850  57.0307880 149.7189220  87.8883000
  58.0354570 150.2963040  86.9140570  73.1039070 149.0405420  91.3436160
  72.5041060 149.0997980  90.6000080  73.2332970 148.1010400  91.4733010
  74.3440520 146.7823240  76.6805870  73.5133480 146.8499890  77.1513100
  74.5212350 147.6727360  76.3772730  73.7996980 143.5270720  79.1840070
  74.5615890 144.0967370  79.2899760  73.8151350 142.9597920  79.9548380
  57.3001320 142.0508650  83.4147730  56.6450160 141.7820290  82.7707430
  58.1379270 141.9413130  82.9649710  74.8056950 144.3820820  84.0282000
  75.1765780 143.5988140  83.6217970  75.4458880 145.0709920  83.8499300
  71.7890710 145.7657400  89.4412320  70.9750550 146.1954560  89.7038110
  72.1964910 146.3775810  88.8281370  73.8516150 143.8205090  76.3412590
  74.1264990 144.7283970  76.2131810  73.6626890 143.7567620  77.2774580
  73.7481490 141.7574080  81.3342020  73.3725090 140.9902010  80.9023310
  73.0184610 142.1396780  81.8216950  58.3377250 142.4361220  87.9551070
  58.7050290 142.3488620  88.8347090  57.7688070 141.6727770  87.8557930
  73.1381110 140.9045600  90.9681540  72.9067200 140.6758350  90.0679490
  73.3985660 141.8245150  90.9226430  57.8893250 139.3470310  91.8609490
  56.9949300 139.3137070  92.2003200  58.4290800 139.5457100  92.6260740
  56.5139400 139.2607580  79.3573060  55.6103480 139.5237780  79.1824720
  56.9980020 139.5318750  78.5773020  73.0232450 139.9831570  84.6349260
  73.5469930 139.4894220  84.0039430  73.6091870 140.1181930  85.3796830
  73.2022170 140.0671440  88.1568810  72.2524880 140.0334980  88.2713800
  73.3835180 140.9771550  87.9218580  59.0566610 138.3173120  77.2667440
  59.7658310 137.8956340  76.7814720  58.3406550 138.3848350  76.6350790
  72.5132420 139.2404920  80.5741670  73.0091540 139.0075790  81.3590550
  72.3148490 138.4016760  80.1579310  58.3932960 133.6218640  86.2092710
  59.0409150 133.0716020  85.7687870  58.8134800 133.8761790  87.0308520
  73.9419580 137.8765870  83.1079350  73.8318860 137.7221910  84.0461620
  74.7027170 137.3486810  82.8654760  74.8309850 135.7073790  76.3485490
  75.7559160 135.5754970  76.1403780  74.8085640 135.7866610  77.3021940
  74.9048340 136.4784450  78.9742200  74.1099840 136.4129570  79.5035110
  75.1091620 137.4135090  78.9627550  71.8466760 150.5176000  82.9680590
  72.4425830 150.1960570  82.2915010  72.1044910 150.0447820  83.7593860
  58.1464960 133.7774310  88.9518030  57.7979780 134.2338130  89.7176210
  57.8152660 132.8831440  89.0340460  59.7529330 146.9493910  93.1171220
  59.7098960 146.5786820  93.9985680  59.8840340 147.8871480  93.2573040
  63.4535360 148.5053500  88.7180940  63.2126720 148.7728060  87.8311460
  64.3938000 148.6759230  88.7731800  65.6589780 134.9686190  92.4737450
  65.5978670 135.5608020  93.2232860  66.5990160 134.8612150  92.3287710
  68.2964340 134.6256250  92.1129740  68.9104750 134.9435540  91.4510820
  68.8413900 134.1404840  92.7325600  74.7139520 150.5247880  89.5191580
  74.2197800 150.9216750  88.8018710  74.1052810 149.8997090  89.9128860
  59.5917360 149.8956160  90.2369000  58.9977680 149.7640860  90.9759040
  59.5841200 149.0594300  89.7711100  69.0372380 133.1888390  88.4399030
  68.1632220 133.5223500  88.2371960  68.9283130 132.7161570  89.2650900
  59.2229590 147.2614540  89.1877040  58.4963650 146.6419830  89.1202990
  59.2838740 147.6555150  88.3175120  62.8274690 149.4759540  85.9726450
  63.3439710 148.8646900  85.4474710  63.4772070 149.9788320  86.4637460
  65.5670190 150.3668030  86.7995430  65.8548000 150.1122330  85.9228440
  66.0793410 149.8145390  87.3901000  66.7847200 134.1058230  87.3791940
  66.0018990 134.5803730  87.6588700  66.4910130 133.2013060  87.2705120
  71.3368270 134.8081330  85.4241030  71.7776360 134.7526430  84.5762630
  71.0675860 135.7239340  85.4951210  73.2006840 134.4396570  83.4349850
  73.1395240 133.4957790  83.2880870  73.9798870 134.5476660  83.9803310
  57.5059590 150.5788930  82.3973800  57.3381630 149.9459610  83.0955690
  56.6394100 150.7848330  82.0467990  59.1122290 149.2722160  79.8423940
  58.5869910 149.6530190  79.1385900  59.0366870 149.8972930  80.5633650
  73.8687610 150.8309700  81.1637880  74.0439800 150.1447440  80.5198800
  73.1709180 151.3556750  80.7714550  62.8206160 133.9528880  93.9305510
  62.5390430 134.4562480  93.1666330  63.2025860 133.1550630  93.5647640
  61.7115260 151.2204540  78.7173190  62.4434080 150.9363820  78.1697080
  61.9708930 150.9817820  79.6072570  60.8730050 147.3369270  78.7219520
  60.2438930 147.8054370  79.2705350  60.9877880 146.4918490  79.1565710
  72.2020110 150.5153990  93.9904670  72.9945430 150.0203220  93.7830630
  72.4953260 151.1944130  94.5980280  68.3279770 141.3874930  64.8720720
  68.2473820 140.4729540  64.6012430  67.9144190 141.8842000  64.1660430
  66.4597810 143.1653950  66.7529990  65.6839910 142.6854390  67.0428560
  67.1110740 142.4859600  66.5786150  60.4763640 143.4773760  67.6305750
  59.6448520 143.2222470  68.0302260  61.0844620 143.5484530  68.3663670
  70.4805240 147.5714140  65.5329120  70.0186770 146.8001380  65.8616290
  71.2930790 147.5980210  66.0381570  60.4564900 147.5113850  67.8263770
  60.7592940 146.6211590  67.6473990  61.2008490 148.0684070  67.5986020
  58.8855590 138.4375650  61.4148140  57.9972290 138.7791620  61.3128020
  59.1696780 138.2375970  60.5228970  56.8488600 141.0381300  67.2987840
  57.4204710 140.2703500  67.2991480  56.8490140 141.3370060  66.3894450
  66.7068550 149.8572150  65.1533110  66.0879990 150.3129650  64.5827550
  67.5620330 150.0123610  64.7522810  65.9006800 145.8411140  66.7600150
  65.8315080 144.9001080  66.5989280  66.6626660 145.9312550  67.3322720
  58.0913470 136.4465660  69.0856770  57.9116310 135.5491410  69.3659530
  57.6893550 136.9937530  69.7603720  66.9311970 138.6481520  66.9869080
  67.3076790 137.7753400  66.8742750  66.8331480 138.9840220  66.0959520
  61.0616980 137.0207150  62.4486520  61.1683730 137.9210880  62.7555280
  60.1509340 136.9725120  62.1581170  70.7136090 136.1431960  63.9197420
  71.5345710 135.6528530  63.9622900  70.7470170 136.7329620  64.6729260
  58.7100140 138.9426160  67.6939110  59.3910250 139.2064530  68.3126510
  58.3948190 138.1027030  68.0277120  62.9024710 139.9893520  66.7811700
  63.4102930 140.4874490  67.4216720  63.4337950 139.2128720  66.6051060
  75.0035640 138.1598710  70.4841050  74.2987810 138.5480420  69.9656160
  75.2693560 138.8549000  71.0861980  61.1860810 134.6292080  71.0475120
  61.1879250 135.1464470  70.2421020  60.3565120 134.1522260  71.0245050
  67.5731900 144.7411390  62.5465020  66.9549170 145.2060840  61.9827740
  68.0855150 145.4338870  62.9634530  62.4363660 144.2687260  69.2248620
  62.1033040 144.8956180  69.8669690  62.6130340 144.7949140  68.4450290
  60.8676140 136.3402040  69.0545570  61.2092950 137.1844090  68.7599440
  59.9291950 136.4885780  69.1710910  61.6482760 146.2368060  71.0397800
  62.2656760 146.9119140  70.7582250  60.7875880 146.6456040  70.9485300
  56.9415100 145.4267920  59.9204650  56.5643080 145.9155020  59.1889550
  57.1988170 146.0993200  60.5511180  72.5660350 147.7007470  68.9552440
  71.8823870 148.3706580  68.9469110  73.1054640 147.8988120  68.1897300
  64.5504030 133.8284310  65.3790160  64.8579010 133.2731200  64.6625660
  63.6204730 133.9628770  65.1963150  70.1019090 149.5451600  67.6697620
  70.1146250 149.1413890  66.8019880  69.5494310 150.3198890  67.5659050
  71.3964510 146.2667820  62.7587790  71.2860840 145.3242150  62.8837210
  71.3932760 146.6283460  63.6450550  69.5004530 144.4481440  68.9980230
  69.9173320 144.2341550  68.1633690  70.2244350 144.7054230  69.5688850
  66.9384790 141.8933140  62.1150280  66.0114070 141.8270520  62.3438750
  67.0909610 142.8313270  62.0005520  66.9253870 138.1650140  59.1117440
  65.9857540 138.3264100  59.1969900  67.2437130 138.8835820  58.5653430
  73.4466630 142.8468660  69.0896470  72.6185260 142.9161750  68.6146600
  74.0417110 143.4322970  68.6212300  70.9682080 143.4553440  62.6185530
  70.3494500 143.1172990  61.9711830  70.9506530 142.8113200  63.3264720
  62.5441430 142.4197880  64.8970010  62.1398430 141.7075130  64.4015910
  62.6304550 142.0751120  65.7858050  63.0123130 146.1065440  67.0609220
  62.7151420 145.5010910  66.3817000  63.9622950 146.1442750  66.9498580
  61.2570050 139.1941090  68.6769050  61.8084640 139.3036430  67.9022300
  61.7713560 139.5678690  69.3924280  71.1008740 149.6797310  70.7232320
  70.6239300 150.4869500  70.5304930  70.4170530 149.0275640  70.8758530
  62.1041560 145.8447130  73.7117020  61.2070090 146.0687100  73.9590420
  62.1294430 145.9682070  72.7628420  69.1446780 142.6940250  59.6258280
  69.5840060 141.8562680  59.4796100  69.8575200 143.3269650  59.7122420
  60.9312780 142.7160450  72.2874390  60.7920550 143.5883250  72.6561790
  60.0494140 142.3733260  72.1422330  67.2542160 147.6336320  63.5939520
  67.6938070 148.3760650  63.1794910  67.1929050 147.8762890  64.5178480
  62.7293130 148.6582150  74.4959540  62.7008560 149.0625100  73.6287970
  62.5658100 147.7292510  74.3331140  72.7263920 133.9483060  57.9399320
  72.4136580 134.0409890  58.8398390  73.4876390 134.5264090  57.8896750
  59.2446060 141.3142860  62.3976660  59.1243660 142.0404950  61.7857930
  58.9346950 140.5445770  61.9204570  74.6807950 149.4409250  75.7923710
  75.1567670 149.9192140  76.4712790  75.3015110 149.3726740  75.0669210
  56.8831430 144.4858000  68.2045300  56.9611850 144.6206770  67.2601020
  57.4973110 143.7773890  68.3973420  58.1279060 146.1858190  64.6151480
  57.7207140 146.3272780  63.7605080  59.0192070 145.9018350  64.4122690
  74.0841200 146.6322100  72.9523720  74.2104260 146.3933980  72.0340900
  74.1262580 145.8006640  73.4245800  67.9457940 150.3350100  71.5218530
  68.4602610 150.2458110  72.3240960  67.1027020 150.6809800  71.8146440
  69.9212340 150.6205440  60.9502530  69.7613480 150.3308380  61.8484360
  69.7559050 149.8445570  60.4147760  62.4000720 150.4003970  62.7274150
  62.2243200 149.4839510  62.5141950  61.5456460 150.7591260  62.9671950
  69.6238470 148.1293000  59.5100530  68.9303630 148.1270290  58.8502810
  70.3661330 147.7052320  59.0794700  69.1888400 149.7555710  63.5849020
  69.6445350 148.9745090  63.8987640  69.5280920 150.4662530  64.1290200
  56.9390950 145.5272170  70.7439760  57.1021990 145.0577530  69.9259130
  57.4043400 145.0195730  71.4088600  61.7109720 134.6577930  65.7800330
  61.2677870 135.4387470  65.4484850  62.2694710 134.9807820  66.4871270
  65.9979530 137.5246450  71.3835650  65.5358900 137.7329470  72.1955590
  65.5957640 136.7105800  71.0806320  64.8268540 134.2788630  60.6606160
  64.2022720 134.2748500  61.3859470  64.7398660 133.4119590  60.2642130
  63.7485620 135.2025260  67.6389930  64.0457950 136.1088090  67.5581950
  64.2971180 134.7144040  67.0249500  61.5023940 139.7811500  63.5081580
  61.2764860 139.5648670  64.4128200  60.7216470 140.2139960  63.1627550
  68.7321700 139.7874870  62.1072230  68.1330590 140.5110670  61.9235850
  69.2801310 139.7251650  61.3248680  63.9423150 140.6797080  74.1741850
  63.8466750 139.7391810  74.0242250  64.7855130 140.9012150  73.7789920
  67.3386570 138.4238410  64.1375510  67.7316140 138.7410610  63.3244200
  67.7003420 137.5450290  64.2520030  59.0733690 137.0910750  72.3275630
  58.6797080 137.9385960  72.5348410  58.3852090 136.4537120  72.5184270
  65.6478740 137.1745720  75.3972370  64.9577060 136.9817920  76.0318460
  66.3911040 137.4580360  75.9296670  56.3750740 135.0139210  66.3605710
  56.0863790 135.5842070  67.0730690  57.1196500 134.5343660  66.7236940
  56.5620970 138.9559330  57.5708430  56.4795640 139.8990090  57.7123420
  56.2104030 138.8134240  56.6920780  67.9241710 141.0144160  68.2326290
  67.1922830 141.5230970  68.5816390  67.5266050 140.1974140  67.9315070
  64.3619100 137.6898360  66.6378780  64.3655160 137.2488310  65.7883320
  65.2570220 138.0115690  66.7450600  60.2121480 137.5724850  65.5972990
  59.8721530 138.0500080  66.3540040  59.4498800 137.1189970  65.2374090
  64.4239250 138.6910440  59.6285540  64.5452070 138.6496920  60.5771360
  64.0387760 139.5534590  59.4732270  63.4360750 141.0011580  59.0268840
  62.8677650 140.5529830  58.4004750  64.1449750 141.3604360  58.4933990
  71.8138370 133.8810020  73.4835610  72.1384140 133.1499680  74.0093590
  71.8494880 133.5623660  72.5816600  58.5129930 144.9023600  72.9035570
  58.1284720 144.2617270  73.5018530  58.8242120 145.6059720  73.4730300
  64.6627070 141.7500140  68.3844190  65.0297200 141.2758710  69.1305530
  64.4732130 142.6241710  68.7252530  57.5267560 136.4943830  64.5137660
  57.2414480 136.1299500  65.3516280  57.4646420 135.7624290  63.9000800
  62.4526440 140.7908780  70.7028400  62.1483510 141.6700760  70.9278760
  63.4072900 140.8508570  70.7385840  60.9808230 144.9969770  61.2995250
  60.2070490 144.4567390  61.1393970  61.7102860 144.4776380  60.9613010
  71.7396210 143.9935130  67.0921640  72.4595330 144.4890420  66.7017750
  71.5378030 143.3153020  66.4475510  67.2006150 135.3873090  61.2351030
  66.3870760 134.8886260  61.1596340  67.0068100 136.2271340  60.8187380
  67.1215010 144.0644190  72.9790640  67.0552320 143.1439860  72.7248230
  66.4920150 144.1619630  73.6935280  69.9154540 139.7592740  59.5313190
  70.8034160 140.0709970  59.3564530  69.8859630 138.8864990  59.1393770
  61.0245630 144.6650150  64.9374060  61.5424300 143.8618410  64.8830950
  60.5729650 144.6029290  65.7790890  65.9115130 145.9316430  60.2101360
  66.2530830 146.6758660  59.7144680  65.0827840 146.2447550  60.5726190
  58.5090170 141.6311520  71.8499760  58.1505110 142.2965370  72.4373100
  58.2144730 140.7995070  72.2212380  61.7103290 142.0895760  74.7339310
  61.4103430 142.2352940  73.8367130  62.4814530 141.5301050  74.6412700
  67.0531740 146.8864760  72.7294440  67.0676280 145.9545720  72.5113350
  66.3456840 146.9724520  73.3684210  72.1868810 141.0704580  58.9993050
  72.1032530 141.5018800  58.1489490  72.9063000 141.5302930  59.4319870
  73.2642950 143.5272100  72.0763020  72.5391140 144.1200880  71.8792410
  73.7918410 143.5195640  71.2776390  73.2156060 147.9246840  61.7275180
  72.5732220 147.2702460  62.0018900  72.8286720 148.3301930  60.9515850
  68.7942540 145.2532270  65.5746870  69.1466360 144.6560400  64.9148240
  67.9104870 144.9276500  65.7455120  64.8805820 146.0129960  62.9817280
  65.5676950 146.5599170  63.3624870  64.0938240 146.5570690  63.0166890
  57.0198220 141.6302780  58.4734360  57.8893070 141.9127580  58.7570280
  56.5288540 142.4438650  58.3583170  64.1833030 143.0175990  62.5942640
  64.6395810 143.8281240  62.8202830  63.8321240 142.6999130  63.4261130
  66.4865640 148.5282330  69.8234940  67.1307860 148.7341710  70.5008360
  66.8495080 147.7670730  69.3705790  60.0844810 133.3613640  63.0665160
  59.9559440 133.3531540  64.0150080  59.2606830 133.6996730  62.7156170
  67.7597720 146.5314680  68.5412390  68.4019950 145.8307840  68.6544560
  68.2847070 147.3113120  68.3609280  71.6053440 146.8163300  58.2651530
  71.3791020 146.0993740  58.8576170  71.2149640 146.5675740  57.4273280
  69.5335340 147.3309580  71.7448450  69.8691580 147.9176270  72.4226370
  68.6135680 147.2002290  71.9746240  57.3869470 150.8430160  59.0395990
  57.7467110 151.4419500  58.3853260  57.2461810 151.3890050  59.8131020
  57.0838740 135.1204760  72.5271860  56.3697260 135.3201680  73.1324470
  57.5033780 134.3444330  72.8986660  71.1869690 144.7335240  59.9265690
  70.8991390 145.1947930  60.7143570  71.9821860 144.2733010  60.1949910
  57.3711330 149.1085020  73.5138390  57.4802450 148.1679760  73.3733780
  56.7191890 149.3739770  72.8652120  65.3623920 147.3800910  74.9136510
  65.0420790 146.6610150  75.4582200  64.6882280 148.0555980  74.9872570
  63.4038090 148.2261360  59.8569660  63.3948190 148.9591050  59.2414170
  62.4836450 147.9792940  59.9496620  59.0044730 143.4476250  60.6016420
  58.3972680 144.1875150  60.6111720  59.4794080 143.5375610  59.7754620
  71.9439550 136.5684010  61.0860870  71.3152710 136.6729680  60.3719100
  71.4491470 136.7880790  61.8754750  66.3897690 148.2889600  58.5194850
  66.4909670 148.0853590  57.5896830  65.4899430 148.0347880  58.7242630
  63.9123580 138.8469960  62.5018750  63.2039730 139.3156300  62.9432360
  64.1968060 138.1891970  63.1363940  65.5379510 140.2666660  70.5011280
  66.0364760 140.7412480  71.1663130  65.6802460 139.3430180  70.7081310
  67.9439010 135.5720620  63.9414540  67.8206790 135.5906750  62.9924050
  68.8923570 135.6199560  64.0612940  65.0315800 150.8075920  63.2142520
  65.2857300 150.7697310  62.2921890  64.0828280 150.6809250  63.2070770
  62.1158600 137.1555040  59.8769460  62.9649130 137.5925190  59.8109650
  61.7489870 137.4675300  60.7041520  71.0368380 141.7267800  64.7901030
  70.0958520 141.7418030  64.9648720  71.3512450 140.9403760  65.2361330
  61.0150020 143.4087400  58.3504990  61.7813290 143.2968760  58.9130420
  61.0924710 142.7125370  57.6981760  59.7096780 140.8412470  59.0337880
  59.7900370 139.8939980  59.1455280  60.6016530 141.1719350  59.1398540
  73.0393960 148.8976650  66.4655290  73.1641380 149.7207820  66.9379100
  73.9059520 148.6867380  66.1179440  57.3956970 147.0581430  62.0113930
  56.4696750 147.3002570  62.0019340  57.8613400 147.8855690  61.8898680
  59.5169770 150.1753930  75.3258000  60.3182500 150.4965980  75.7393400
  59.0021590 149.8149510  76.0477910  63.6213800 150.1638170  57.9597990
  64.4142410 150.4527000  57.5079780  63.1018150 149.7330340  57.2810470
  68.3534400 146.2833800  75.2733410  67.7472560 146.3065400  74.5329160
  68.0488510 145.5516840  75.8100660  69.7834770 150.0114090  73.8842820
  70.7356520 149.9272110  73.8343060  69.6362990 150.6755800  74.5576610
  72.6743970 149.3908300  59.3834730  72.3885480 148.9773440  58.5688910
  72.4763520 150.3196010  59.2635250  57.2367580 142.6627390  74.2694050
  57.7406600 142.0834670  74.8410280  56.4975000 142.9467620  74.8070420
  64.1391200 145.3841580  57.8240340  64.0341840 144.7693930  58.5501720
  63.9715420 144.8607470  57.0403350  64.2905520 144.0698380  73.8029570
  63.5251190 144.6383380  73.7184240  64.4721480 143.7774590  72.9097800
  67.3793930 144.4461610  58.4282330  66.8304030 144.8930910  59.0725070
  68.0013190 143.9410860  58.9520000  71.4328870 145.8003710  74.3604590
  72.1738340 146.1379470  73.8572050  70.6701550 145.9695770  73.8074360
  59.2690660 140.8056980  75.1644120  59.3096000 140.5070850  76.0729350
  60.1236160 141.2064590  75.0051640  63.0469050 143.4052530  60.3247630
  63.4685470 143.2392400  61.1679020  63.1719890 142.5952760  59.8302770
  61.2096470 139.3849080  73.1318610  60.6792930 138.8940030  72.5041950
  61.8784540 139.8133280  72.5976540  65.5596690 142.4290140  57.5724730
  66.0802350 141.7139160  57.2065880  66.2065090 143.0676010  57.8725240
  70.1074530 143.8518540  72.8959800  70.5215550 144.0063620  73.7450220
  69.1725530 143.9773760  73.0585580  61.6968770 136.3511450  73.2115900
  61.6025640 135.7332200  72.4866770  61.1166160 137.0777740  72.9845810
  64.4630210 134.9084690  70.2443290  64.0147510 134.9308950  69.3988840
  63.8295410 134.5103710  70.8413590  64.8689760 143.8039020  70.8655730
  65.2877870 144.6471750  70.6931970  63.9498390 143.9411060  70.6362510
  67.2053660 141.5355200  72.2493570  67.3249870 140.9396340  72.9888410
  68.0647660 141.5724890  71.8294870  69.5441560 142.0892390  70.8256080
  69.0176780 142.6135010  70.2221220  69.8872900 142.7219780  71.4565810
  61.9427950 139.4785760  57.2705790  61.7417010 138.6153120  57.6319130
  61.7720000 139.3919120  56.3327390  62.7197180 150.1092030  71.9813460
  62.1818270 150.8338090  71.6622160  62.9731140 149.6322370  71.1910800
  63.9722430 138.0776550  73.5069390  64.5622120 137.7692400  74.1947210
  63.1542670 137.6056300  73.6629290  69.4216260 134.2893990  59.7992670
  69.7018550 133.4461890  60.1552090  68.6481990 134.5217100  60.3131420
  60.7410750 136.5786380  57.2583670  61.0436650 136.5853810  56.3502820
  61.4805340 136.2284240  57.7551330  63.9595680 135.5221000  58.2439870
  63.6117680 134.8444990  57.6642320  64.1608450 135.0610510  59.0583260
  66.1244720 150.5101750  59.8626470  67.0195510 150.8486720  59.8845230
  66.1562350 149.7881160  59.2350750  59.7640880 145.8828800  58.0913470
  60.2015750 146.4258470  58.7471050  60.2488610 145.0575750  58.1009810
  56.9786680 148.6717830  65.5433730  57.3089690 147.8038890  65.3112370
  57.4077680 148.8776350  66.3738690  61.5748600 147.0026840  63.2035700
  61.2744140 146.8791810  64.1039610  61.4686090 146.1435430  62.7951430
  57.4676890 149.5388420  68.2815360  57.0307880 149.7189220  69.1139510
  58.0354570 150.2963040  68.1397080  73.1039070 149.0405420  72.5692670
  72.5041060 149.0997980  71.8256590  73.2332970 148.1010400  72.6989520
  74.3440520 146.7823240  57.9062380  73.5133480 146.8499890  58.3769610
  74.5212350 147.6727360  57.6029240  73.7996980 143.5270720  60.4096580
  74.5615890 144.0967370  60.5156270  73.8151350 142.9597920  61.1804890
  57.3001320 142.0508650  64.6404240  56.6450160 141.7820290  63.9963940
  58.1379270 141.9413130  64.1906220  74.8056950 144.3820820  65.2538510
  75.1765780 143.5988140  64.8474480  75.4458880 145.0709920  65.0755810
  71.7890710 145.7657400  70.6668830  70.9750550 146.1954560  70.9294620
  72.1964910 146.3775810  70.0537880  73.8516150 143.8205090  57.5669100
  74.1264990 144.7283970  57.4388320  73.6626890 143.7567620  58.5031090
  70.2491760 136.8449940  58.8622730  70.6676640 136.6580920  58.0219390
  69.9427820 135.9928990  59.1725660  73.7481490 141.7574080  62.5598530
  73.3725090 140.9902010  62.1279820  73.0184610 142.1396780  63.0473460
  58.3377250 142.4361220  69.1807580  58.7050290 142.3488620  70.0603600
  57.7688070 141.6727770  69.0814440  57.8893250 139.3470310  73.0866000
  56.9949300 139.3137070  73.4259710  58.4290800 139.5457100  73.8517250
  56.5139400 139.2607580  60.5829570  55.6103480 139.5237780  60.4081230
  56.9980020 139.5318750  59.8029530  73.2022170 140.0671440  69.3825320
  72.2524880 140.0334980  69.4970310  73.3835180 140.9771550  69.1475090
  59.0566610 138.3173120  58.4923950  59.7658310 137.8956340  58.0071230
  58.3406550 138.3848350  57.8607300  58.7040770 134.3712450  57.5326600
  59.4268900 134.9121390  57.8507820  58.9765290 134.0975870  56.6568140
  72.5132420 139.2404920  61.7998180  73.0091540 139.0075790  62.5847060
  72.3148490 138.4016760  61.3835820  58.3932960 133.6218640  67.4349220
  59.0409150 133.0716020  66.9944380  58.8134800 133.8761790  68.2565030
  74.8309850 135.7073790  57.5742000  75.7559160 135.5754970  57.3660290
  74.8085640 135.7866610  58.5278450  74.9048340 136.4784450  60.1998710
  74.1099840 136.4129570  60.7291620  75.1091620 137.4135090  60.1884060
  71.8466760 150.5176000  64.1937100  72.4425830 150.1960570  63.5171520
  72.1044910 150.0447820  64.9850370  58.1464960 133.7774310  70.1774540
  57.7979780 134.2338130  70.9432720  57.8152660 132.8831440  70.2596970
  59.7529330 146.9493910  74.3427730  59.7098960 146.5786820  75.2242190
  59.8840340 147.8871480  74.4829550  63.4535360 148.5053500  69.9437450
  63.2126720 148.7728060  69.0567970  64.3938000 148.6759230  69.9988310
  65.6589780 134.9686190  73.6993960  65.5978670 135.5608020  74.4489370
  66.5990160 134.8612150  73.5544220  74.7139520 150.5247880  70.7448090
  74.2197800 150.9216750  70.0275220  74.1052810 149.8997090  71.1385370
  59.5917360 149.8956160  71.4625510  58.9977680 149.7640860  72.2015550
  59.5841200 149.0594300  70.9967610  59.2229590 147.2614540  70.4133550
  58.4963650 146.6419830  70.3459500  59.2838740 147.6555150  69.5431630
  62.8274690 149.4759540  67.1982960  63.3439710 148.8646900  66.6731220
  63.4772070 149.9788320  67.6893970  65.5670190 150.3668030  68.0251940
  65.8548000 150.1122330  67.1484950  66.0793410 149.8145390  68.6157510
  57.5059590 150.5788930  63.6230310  57.3381630 149.9459610  64.3212200
  56.6394100 150.7848330  63.2724500  58.1287610 134.4105710  61.1262170
  58.8866970 134.5234590  60.5526200  57.6664780 135.2474910  61.0805600
  64.6701420 136.5244980  64.1164480  63.8575930 136.1501870  63.7760360
  65.1743060 135.7690060  64.4185670  72.3161000 133.5908990  60.6287830
  72.5111630 134.4892440  60.8955260  71.5290870 133.3596070  61.1220780
  59.1122290 149.2722160  61.0680450  58.5869910 149.6530190  60.3642410
  59.0366870 149.8972930  61.7890160  60.5012760 134.9369760  59.6664140
  61.0305520 134.1499560  59.5372090  61.1341080 135.6160950  59.8999670
  62.6950600 134.6744900  62.7209530  62.0653340 133.9732210  62.8879660
  62.1555740 135.4349030  62.5042690  73.8687610 150.8309700  62.3894390
  74.0439800 150.1447440  61.7455310  73.1709180 151.3556750  61.9971060
  61.7115260 151.2204540  59.9429700  62.4434080 150.9363820  59.3953590
  61.9708930 150.9817820  60.8329080  60.8730050 147.3369270  59.9476030
  60.2438930 147.8054370  60.4961860  60.9877880 146.4918490  60.3822220
  72.2020110 150.5153990  75.2161180  72.9945430 150.0203220  75.0087140
  72.4953260 151.1944130  75.8236790  68.3279770 141.3874930  46.0977230
  68.2473820 140.4729540  45.8268940  67.9144190 141.8842000  45.3916940
  66.4597810 143.1653950  47.9786500  65.6839910 142.6854390  48.2685070
  67.1110740 142.4859600  47.8042660  60.4763640 143.4773760  48.8562260
  59.6448520 143.2222470  49.2558770  61.0844620 143.5484530  49.5920180
  70.4805240 147.5714140  46.7585630  70.0186770 146.8001380  47.0872800
  71.2930790 147.5980210  47.2638080  60.4564900 147.5113850  49.0520280
  60.7592940 146.6211590  48.8730500  61.2008490 148.0684070  48.8242530
  58.8855590 138.4375650  42.6404650  57.9972290 138.7791620  42.5384530
  59.1696780 138.2375970  41.7485480  56.8488600 141.0381300  48.5244350
  57.4204710 140.2703500  48.5247990  56.8490140 141.3370060  47.6150960
  66.7068550 149.8572150  46.3789620  66.0879990 150.3129650  45.8084060
  67.5620330 150.0123610  45.9779320  65.9006800 145.8411140  47.9856660
  65.8315080 144.9001080  47.8245790  66.6626660 145.9312550  48.5579230
  58.0913470 136.4465660  50.3113280  57.9116310 135.5491410  50.5916040
  57.6893550 136.9937530  50.9860230  66.9311970 138.6481520  48.2125590
  67.3076790 137.7753400  48.0999260  66.8331480 138.9840220  47.3216030
  61.0616980 137.0207150  43.6743030  61.1683730 137.9210880  43.9811790
  60.1509340 136.9725120  43.3837680  70.7136090 136.1431960  45.1453930
  71.5345710 135.6528530  45.1879410  70.7470170 136.7329620  45.8985770
  58.7100140 138.9426160  48.9195620  59.3910250 139.2064530  49.5383020
  58.3948190 138.1027030  49.2533630  62.9024710 139.9893520  48.0068210
  63.4102930 140.4874490  48.6473230  63.4337950 139.2128720  47.8307570
  75.0035640 138.1598710  51.7097560  74.2987810 138.5480420  51.1912670
  75.2693560 138.8549000  52.3118490  61.1860810 134.6292080  52.2731630
  61.1879250 135.1464470  51.4677530  60.3565120 134.1522260  52.2501560
  67.5731900 144.7411390  43.7721530  66.9549170 145.2060840  43.2084250
  68.0855150 145.4338870  44.1891040  62.4363660 144.2687260  50.4505130
  62.1033040 144.8956180  51.0926200  62.6130340 144.7949140  49.6706800
  70.9497570 138.0832340  47.9181470  70.2453140 138.3717230  48.4984580
  71.3109730 138.8932450  47.5581030  60.8676140 136.3402040  50.2802080
  61.2092950 137.1844090  49.9855950  59.9291950 136.4885780  50.3967420
  61.6482760 146.2368060  52.2654310  62.2656760 146.9119140  51.9838760
  60.7875880 146.6456040  52.1741810  56.9415100 145.4267920  41.1461160
  56.5643080 145.9155020  40.4146060  57.1988170 146.0993200  41.7767690
  72.5660350 147.7007470  50.1808950  71.8823870 148.3706580  50.1725620
  73.1054640 147.8988120  49.4153810  74.0184490 137.5287130  48.3090680
  73.0709400 137.5626110  48.4406110  74.3434480 138.3426080  48.6940040
  64.5504030 133.8284310  46.6046670  64.8579010 133.2731200  45.8882170
  63.6204730 133.9628770  46.4219660  70.1019090 149.5451600  48.8954130
  70.1146250 149.1413890  48.0276390  69.5494310 150.3198890  48.7915560
  71.3964510 146.2667820  43.9844300  71.2860840 145.3242150  44.1093720
  71.3932760 146.6283460  44.8707060  69.5004530 144.4481440  50.2236740
  69.9173320 144.2341550  49.3890200  70.2244350 144.7054230  50.7945360
  66.9384790 141.8933140  43.3406790  66.0114070 141.8270520  43.5695260
  67.0909610 142.8313270  43.2262030  66.9253870 138.1650140  40.3373950
  65.9857540 138.3264100  40.4226410  67.2437130 138.8835820  39.7909940
  73.4466630 142.8468660  50.3152980  72.6185260 142.9161750  49.8403110
  74.0417110 143.4322970  49.8468810  70.9682080 143.4553440  43.8442040
  70.3494500 143.1172990  43.1968340  70.9506530 142.8113200  44.5521230
  70.4108640 139.6337980  51.2607850  69.9979820 140.4591690  51.5147840
  69.6784590 139.0483020  51.0684210  62.5441430 142.4197880  46.1226520
  62.1398430 141.7075130  45.6272420  62.6304550 142.0751120  47.0114560
  63.0123130 146.1065440  48.2865730  62.7151420 145.5010910  47.6073510
  63.9622950 146.1442750  48.1755090  61.2570050 139.1941090  49.9025560
  61.8084640 139.3036430  49.1278810  61.7713560 139.5678690  50.6180790
  71.1008740 149.6797310  51.9488830  70.6239300 150.4869500  51.7561440
  70.4170530 149.0275640  52.1015040  62.1041560 145.8447130  54.9373530
  61.2070090 146.0687100  55.1846930  62.1294430 145.9682070  53.9884930
  69.1446780 142.6940250  40.8514790  69.5840060 141.8562680  40.7052610
  69.8575200 143.3269650  40.9378930  60.9312780 142.7160450  53.5130900
  60.7920550 143.5883250  53.8818300  60.0494140 142.3733260  53.3678840
  67.2542160 147.6336320  44.8196030  67.6938070 148.3760650  44.4051420
  67.1929050 147.8762890  45.7434990  62.7293130 148.6582150  55.7216050
  62.7008560 149.0625100  54.8544480  62.5658100 147.7292510  55.5587650
  72.7263920 133.9483060  39.1655830  72.4136580 134.0409890  40.0654900
  73.4876390 134.5264090  39.1153260  59.2446060 141.3142860  43.6233170
  59.1243660 142.0404950  43.0114440  58.9346950 140.5445770  43.1461080
  74.6807950 149.4409250  57.0180220  75.1567670 149.9192140  57.6969300
  75.3015110 149.3726740  56.2925720  56.8831430 144.4858000  49.4301810
  56.9611850 144.6206770  48.4857530  57.4973110 143.7773890  49.6229930
  58.1279060 146.1858190  45.8407990  57.7207140 146.3272780  44.9861590
  59.0192070 145.9018350  45.6379200  74.0841200 146.6322100  54.1780230
  74.2104260 146.3933980  53.2597410  74.1262580 145.8006640  54.6502310
  67.9457940 150.3350100  52.7475040  68.4602610 150.2458110  53.5497470
  67.1027020 150.6809800  53.0402950  69.9212340 150.6205440  42.1759040
  69.7613480 150.3308380  43.0740870  69.7559050 149.8445570  41.6404270
  62.4000720 150.4003970  43.9530660  62.2243200 149.4839510  43.7398460
  61.5456460 150.7591260  44.1928460  69.6238470 148.1293000  40.7357040
  68.9303630 148.1270290  40.0759320  70.3661330 147.7052320  40.3051210
  69.1888400 149.7555710  44.8105530  69.6445350 148.9745090  45.1244150
  69.5280920 150.4662530  45.3546710  73.9365210 138.6854560  55.1429970
  73.3209480 139.1934230  54.6145430  73.6161630 137.7852890  55.0855910
  56.9390950 145.5272170  51.9696270  57.1021990 145.0577530  51.1515640
  57.4043400 145.0195730  52.6345110  61.7109720 134.6577930  47.0056840
  61.2677870 135.4387470  46.6741360  62.2694710 134.9807820  47.7127780
  65.9979530 137.5246450  52.6092160  65.5358900 137.7329470  53.4212100
  65.5957640 136.7105800  52.3062830  70.9984040 138.7455400  53.7388820
  70.1477630 138.4461150  54.0597890  70.8385830 138.9897410  52.8272640
  68.0933750 140.2457150  55.8387610  68.4187160 139.4120900  55.4989840
  68.8814080 140.7685670  55.9865940  64.8268540 134.2788630  41.8862670
  64.2022720 134.2748500  42.6115980  64.7398660 133.4119590  41.4898640
  63.7485620 135.2025260  48.8646440  64.0457950 136.1088090  48.7838460
  64.2971180 134.7144040  48.2506010  61.5023940 139.7811500  44.7338090
  61.2764860 139.5648670  45.6384710  60.7216470 140.2139960  44.3884060
  68.7321700 139.7874870  43.3328740  68.1330590 140.5110670  43.1492360
  69.2801310 139.7251650  42.5505190  63.9423150 140.6797080  55.3998360
  63.8466750 139.7391810  55.2498760  64.7855130 140.9012150  55.0046430
  67.3386570 138.4238410  45.3632020  67.7316140 138.7410610  44.5500710
  67.7003420 137.5450290  45.4776540  59.0733690 137.0910750  53.5532140
  58.6797080 137.9385960  53.7604920  58.3852090 136.4537120  53.7440780
  65.6478740 137.1745720  56.6228880  64.9577060 136.9817920  57.2574970
  66.3911040 137.4580360  57.1553180  56.3750740 135.0139210  47.5862220
  56.0863790 135.5842070  48.2987200  57.1196500 134.5343660  47.9493450
  56.5620970 138.9559330  38.7964940  56.4795640 139.8990090  38.9379930
  56.2104030 138.8134240  37.9177290  67.9241710 141.0144160  49.4582800
  67.1922830 141.5230970  49.8072900  67.5266050 140.1974140  49.1571580
  64.3619100 137.6898360  47.8635290  64.3655160 137.2488310  47.0139830
  65.2570220 138.0115690  47.9707110  60.2121480 137.5724850  46.8229500
  59.8721530 138.0500080  47.5796550  59.4498800 137.1189970  46.4630600
  64.4239250 138.6910440  40.8542050  64.5452070 138.6496920  41.8027870
  64.0387760 139.5534590  40.6988780  68.3867620 136.4677840  48.8705740
  68.4040360 136.9186490  49.7147590  68.1383200 135.5683480  49.0839180
  63.4360750 141.0011580  40.2525350  62.8677650 140.5529830  39.6261260
  64.1449750 141.3604360  39.7190500  71.8138370 133.8810020  54.7092120
  72.1384140 133.1499680  55.2350100  71.8494880 133.5623660  53.8073110
  58.5129930 144.9023600  54.1292080  58.1284720 144.2617270  54.7275040
  58.8242120 145.6059720  54.6986810  64.6627070 141.7500140  49.6100700
  65.0297200 141.2758710  50.3562040  64.4732130 142.6241710  49.9509040
  57.5267560 136.4943830  45.7394170  57.2414480 136.1299500  46.5772790
  57.4646420 135.7624290  45.1257310  62.4526440 140.7908780  51.9284910
  62.1483510 141.6700760  52.1535270  63.4072900 140.8508570  51.9642350
  60.9808230 144.9969770  42.5251760  60.2070490 144.4567390  42.3650480
  61.7102860 144.4776380  42.1869520  71.7396210 143.9935130  48.3178150
  72.4595330 144.4890420  47.9274260  71.5378030 143.3153020  47.6732020
  67.2006150 135.3873090  42.4607540  66.3870760 134.8886260  42.3852850
  67.0068100 136.2271340  42.0443890  67.1215010 144.0644190  54.2047150
  67.0552320 143.1439860  53.9504740  66.4920150 144.1619630  54.9191790
  69.9154540 139.7592740  40.7569700  70.8034160 140.0709970  40.5821040
  69.8859630 138.8864990  40.3650280  61.0245630 144.6650150  46.1630570
  61.5424300 143.8618410  46.1087460  60.5729650 144.6029290  47.0047400
  65.9115130 145.9316430  41.4357870  66.2530830 146.6758660  40.9401190
  65.0827840 146.2447550  41.7982700  58.5090170 141.6311520  53.0756270
  58.1505110 142.2965370  53.6629610  58.2144730 140.7995070  53.4468890
  61.7103290 142.0895760  55.9595820  61.4103430 142.2352940  55.0623640
  62.4814530 141.5301050  55.8669210  67.0531740 146.8864760  53.9550950
  67.0676280 145.9545720  53.7369860  66.3456840 146.9724520  54.5940720
  72.1868810 141.0704580  40.2249560  72.1032530 141.5018800  39.3746000
  72.9063000 141.5302930  40.6576380  73.2642950 143.5272100  53.3019530
  72.5391140 144.1200880  53.1048920  73.7918410 143.5195640  52.5032900
  73.2156060 147.9246840  42.9531690  72.5732220 147.2702460  43.2275410
  72.8286720 148.3301930  42.1772360  68.7942540 145.2532270  46.8003380
  69.1466360 144.6560400  46.1404750  67.9104870 144.9276500  46.9711630
  64.8805820 146.0129960  44.2073790  65.5676950 146.5599170  44.5881380
  64.0938240 146.5570690  44.2423400  57.0198220 141.6302780  39.6990870
  57.8893070 141.9127580  39.9826790  56.5288540 142.4438650  39.5839680
  64.1833030 143.0175990  43.8199150  64.6395810 143.8281240  44.0459340
  63.8321240 142.6999130  44.6517640  66.4865640 148.5282330  51.0491450
  67.1307860 148.7341710  51.7264870  66.8495080 147.7670730  50.5962300
  67.7597720 146.5314680  49.7668900  68.4019950 145.8307840  49.8801070
  68.2847070 147.3113120  49.5865790  71.6053440 146.8163300  39.4908040
  71.3791020 146.0993740  40.0832680  71.2149640 146.5675740  38.6529790
  69.5335340 147.3309580  52.9704960  69.8691580 147.9176270  53.6482880
  68.6135680 147.2002290  53.2002750  57.3869470 150.8430160  40.2652500
  57.7467110 151.4419500  39.6109770  57.2461810 151.3890050  41.0387530
  57.0838740 135.1204760  53.7528370  56.3697260 135.3201680  54.3580980
  57.5033780 134.3444330  54.1243170  71.1869690 144.7335240  41.1522200
  70.8991390 145.1947930  41.9400080  71.9821860 144.2733010  41.4206420
  57.3711330 149.1085020  54.7394900  57.4802450 148.1679760  54.5990290
  56.7191890 149.3739770  54.0908630  65.3623920 147.3800910  56.1393020
  65.0420790 146.6610150  56.6838710  64.6882280 148.0555980  56.2129080
  63.4038090 148.2261360  41.0826170  63.3948190 148.9591050  40.4670680
  62.4836450 147.9792940  41.1753130  59.0044730 143.4476250  41.8272930
  58.3972680 144.1875150  41.8368230  59.4794080 143.5375610  41.0011130
  68.5777520 137.6127070  51.5029820  68.9458340 136.7922280  51.8309390
  67.7175720 137.6728960  51.9185470  71.9439550 136.5684010  42.3117380
  71.3152710 136.6729680  41.5975610  71.4491470 136.7880790  43.1011260
  66.3897690 148.2889600  39.7451360  66.4909670 148.0853590  38.8153340
  65.4899430 148.0347880  39.9499140  63.9123580 138.8469960  43.7275260
  63.2039730 139.3156300  44.1688870  64.1968060 138.1891970  44.3620450
  65.5379510 140.2666660  51.7267790  66.0364760 140.7412480  52.3919640
  65.6802460 139.3430180  51.9337820  67.9439010 135.5720620  45.1671050
  67.8206790 135.5906750  44.2180560  68.8923570 135.6199560  45.2869450
  65.0315800 150.8075920  44.4399030  65.2857300 150.7697310  43.5178400
  64.0828280 150.6809250  44.4327280  62.1158600 137.1555040  41.1025970
  62.9649130 137.5925190  41.0366160  61.7489870 137.4675300  41.9298030
  72.7446370 136.4834620  52.5696180  72.2419970 137.2240020  52.9089990
  73.5603030 136.8718620  52.2532970  71.0368380 141.7267800  46.0157540
  70.0958520 141.7418030  46.1905230  71.3512450 140.9403760  46.4617840
  61.0150020 143.4087400  39.5761500  61.7813290 143.2968760  40.1386930
  61.0924710 142.7125370  38.9238270  59.7096780 140.8412470  40.2594390
  59.7900370 139.8939980  40.3711790  60.6016530 141.1719350  40.3655050
  73.0393960 148.8976650  47.6911800  73.1641380 149.7207820  48.1635610
  73.9059520 148.6867380  47.3435950  57.3956970 147.0581430  43.2370440
  56.4696750 147.3002570  43.2275850  57.8613400 147.8855690  43.1155190
  59.5169770 150.1753930  56.5514510  60.3182500 150.4965980  56.9649910
  59.0021590 149.8149510  57.2734420  63.6213800 150.1638170  39.1854500
  64.4142410 150.4527000  38.7336290  63.1018150 149.7330340  38.5066980
  68.3534400 146.2833800  56.4989920  67.7472560 146.3065400  55.7585670
  68.0488510 145.5516840  57.0357170  69.7834770 150.0114090  55.1099330
  70.7356520 149.9272110  55.0599570  69.6362990 150.6755800  55.7833120
  72.6743970 149.3908300  40.6091240  72.3885480 148.9773440  39.7945420
  72.4763520 150.3196010  40.4891760  57.2367580 142.6627390  55.4950560
  57.7406600 142.0834670  56.0666790  56.4975000 142.9467620  56.0326930
  64.1391200 145.3841580  39.0496850  64.0341840 144.7693930  39.7758230
  63.9715420 144.8607470  38.2659860  64.2905520 144.0698380  55.0286080
  63.5251190 144.6383380  54.9440750  64.4721480 143.7774590  54.1354310
  67.3793930 144.4461610  39.6538840  66.8304030 144.8930910  40.2981580
  68.0013190 143.9410860  40.1776510  71.4328870 145.8003710  55.5861100
  72.1738340 146.1379470  55.0828560  70.6701550 145.9695770  55.0330870
  59.2690660 140.8056980  56.3900630  59.3096000 140.5070850  57.2985860
  60.1236160 141.2064590  56.2308150  63.0469050 143.4052530  41.5504140
  63.4685470 143.2392400  42.3935530  63.1719890 142.5952760  41.0559280
  61.2096470 139.3849080  54.3575120  60.6792930 138.8940030  53.7298460
  61.8784540 139.8133280  53.8233050  65.5596690 142.4290140  38.7981240
  66.0802350 141.7139160  38.4322390  66.2065090 143.0676010  39.0981750
  70.1074530 143.8518540  54.1216310  70.5215550 144.0063620  54.9706730
  69.1725530 143.9773760  54.2842090  70.5796700 141.1914700  56.1255460
  71.1617470 140.4367020  56.0375940  70.7558470 141.7222140  55.3486940
  61.6968770 136.3511450  54.4372410  61.6025640 135.7332200  53.7123280
  61.1166160 137.0777740  54.2102320  64.4630210 134.9084690  51.4699800
  64.0147510 134.9308950  50.6245350  63.8295410 134.5103710  52.0670100
  64.8689760 143.8039020  52.0912240  65.2877870 144.6471750  51.9188480
  63.9498390 143.9411060  51.8619020  67.2053660 141.5355200  53.4750080
  67.3249870 140.9396340  54.2144920  68.0647660 141.5724890  53.0551380
  69.5441560 142.0892390  52.0512590  69.0176780 142.6135010  51.4477730
  69.8872900 142.7219780  52.6822320  61.9427950 139.4785760  38.4962300
  61.7417010 138.6153120  38.8575640  61.7720000 139.3919120  37.5583900
  62.7197180 150.1092030  53.2069970  62.1818270 150.8338090  52.8878670
  62.9731140 149.6322370  52.4167310  63.9722430 138.0776550  54.7325900
  64.5622120 137.7692400  55.4203720  63.1542670 137.6056300  54.8885800
  68.7915860 137.6942360  54.9658920  68.1031380 137.0323900  54.9008910
  69.5121880 137.2480630  55.4107380  69.4216260 134.2893990  41.0249180
  69.7018550 133.4461890  41.3808600  68.6481990 134.5217100  41.5387930
  60.7410750 136.5786380  38.4840180  61.0436650 136.5853810  37.5759330
  61.4805340 136.2284240  38.9807840  63.9595680 135.5221000  39.4696380
  63.6117680 134.8444990  38.8898830  64.1608450 135.0610510  40.2839770
  66.1244720 150.5101750  41.0882980  67.0195510 150.8486720  41.1101740
  66.1562350 149.7881160  40.4607260  59.7640880 145.8828800  39.3169980
  60.2015750 146.4258470  39.9727560  60.2488610 145.0575750  39.3266320
  56.9786680 148.6717830  46.7690240  57.3089690 147.8038890  46.5368880
  57.4077680 148.8776350  47.5995200  61.5748600 147.0026840  44.4292210
  61.2744140 146.8791810  45.3296120  61.4686090 146.1435430  44.0207940
  57.4676890 149.5388420  49.5071870  57.0307880 149.7189220  50.3396020
  58.0354570 150.2963040  49.3653590  73.1039070 149.0405420  53.7949180
  72.5041060 149.0997980  53.0513100  73.2332970 148.1010400  53.9246030
  74.3440520 146.7823240  39.1318890  73.5133480 146.8499890  39.6026120
  74.5212350 147.6727360  38.8285750  73.7996980 143.5270720  41.6353090
  74.5615890 144.0967370  41.7412780  73.8151350 142.9597920  42.4061400
  57.3001320 142.0508650  45.8660750  56.6450160 141.7820290  45.2220450
  58.1379270 141.9413130  45.4162730  74.8056950 144.3820820  46.4795020
  75.1765780 143.5988140  46.0730990  75.4458880 145.0709920  46.3012320
  71.7890710 145.7657400  51.8925340  70.9750550 146.1954560  52.1551130
  72.1964910 146.3775810  51.2794390  73.8516150 143.8205090  38.7925610
  74.1264990 144.7283970  38.6644830  73.6626890 143.7567620  39.7287600
  70.2491760 136.8449940  40.0879240  70.6676640 136.6580920  39.2475900
  69.9427820 135.9928990  40.3982170  73.7481490 141.7574080  43.7855040
  73.3725090 140.9902010  43.3536330  73.0184610 142.1396780  44.2729970
  58.3377250 142.4361220  50.4064090  58.7050290 142.3488620  51.2860110
  57.7688070 141.6727770  50.3070950  73.1381110 140.9045600  53.4194560
  72.9067200 140.6758350  52.5192510  73.3985660 141.8245150  53.3739450
  57.8893250 139.3470310  54.3122510  56.9949300 139.3137070  54.6516220
  58.4290800 139.5457100  55.0773760  71.5769180 136.1302030  56.1974260
  72.4539360 136.1385430  56.5808260  71.5890020 135.3932870  55.5866610
  56.5139400 139.2607580  41.8086080  55.6103480 139.5237780  41.6337740
  56.9980020 139.5318750  41.0286040  73.0232450 139.9831570  47.0862280
  73.5469930 139.4894220  46.4552450  73.6091870 140.1181930  47.8309850
  73.2022170 140.0671440  50.6081830  72.2524880 140.0334980  50.7226820
  73.3835180 140.9771550  50.3731600  59.0566610 138.3173120  39.7180460
  59.7658310 137.8956340  39.2327740  58.3406550 138.3848350  39.0863810
  58.7040770 134.3712450  38.7583110  59.4268900 134.9121390  39.0764330
  58.9765290 134.0975870  37.8824650  72.5132420 139.2404920  43.0254690
  73.0091540 139.0075790  43.8103570  72.3148490 138.4016760  42.6092330
  73.9419580 137.8765870  45.5592370  73.8318860 137.7221910  46.4974640
  74.7027170 137.3486810  45.3167780  72.2885300 133.8160000  52.0175370
  72.9257520 134.4294140  52.3834560  72.4360190 133.8520660  51.0724600
  74.8309850 135.7073790  38.7998510  75.7559160 135.5754970  38.5916800
  74.8085640 135.7866610  39.7534960  74.9048340 136.4784450  41.4255220
  74.1099840 136.4129570  41.9548130  75.1091620 137.4135090  41.4140570
  71.8466760 150.5176000  45.4193610  72.4425830 150.1960570  44.7428030
  72.1044910 150.0447820  46.2106880  59.7529330 146.9493910  55.5684240
  59.7098960 146.5786820  56.4498700  59.8840340 147.8871480  55.7086060
  63.4535360 148.5053500  51.1693960  63.2126720 148.7728060  50.2824480
  64.3938000 148.6759230  51.2244820  65.6589780 134.9686190  54.9250470
  65.5978670 135.5608020  55.6745880  66.5990160 134.8612150  54.7800730
  68.2964340 134.6256250  54.5642760  68.9104750 134.9435540  53.9023840
  68.8413900 134.1404840  55.1838620  74.7139520 150.5247880  51.9704600
  74.2197800 150.9216750  51.2531730  74.1052810 149.8997090  52.3641880
  58.8185600 133.3050510  54.6781820  59.3668590 133.1238560  53.9147930
  58.8840910 132.5144620  55.2138130  59.5917360 149.8956160  52.6882020
  58.9977680 149.7640860  53.4272060  59.5841200 149.0594300  52.2224120
  69.0372380 133.1888390  50.8912050  68.1632220 133.5223500  50.6884980
  68.9283130 132.7161570  51.7163920  69.9444360 135.3959260  52.2753770
  69.6157720 134.5811020  51.8955500  70.8926660 135.3529070  52.1519460
  59.2229590 147.2614540  51.6390060  58.4963650 146.6419830  51.5716010
  59.2838740 147.6555150  50.7688140  62.8274690 149.4759540  48.4239470
  63.3439710 148.8646900  47.8987730  63.4772070 149.9788320  48.9150480
  65.5670190 150.3668030  49.2508450  65.8548000 150.1122330  48.3741460
  66.0793410 149.8145390  49.8414020  66.7847200 134.1058230  49.8304960
  66.0018990 134.5803730  50.1101720  66.4910130 133.2013060  49.7218140
  71.3368270 134.8081330  47.8754050  71.7776360 134.7526430  47.0275650
  71.0675860 135.7239340  47.9464230  73.2006840 134.4396570  45.8862870
  73.1395240 133.4957790  45.7393890  73.9798870 134.5476660  46.4316330
  57.5059590 150.5788930  44.8486820  57.3381630 149.9459610  45.5468710
  56.6394100 150.7848330  44.4981010  58.1287610 134.4105710  42.3518680
  58.8866970 134.5234590  41.7782710  57.6664780 135.2474910  42.3062110
  64.6701420 136.5244980  45.3420990  63.8575930 136.1501870  45.0016870
  65.1743060 135.7690060  45.6442180  69.1726400 133.1887430  46.5804060
  69.7755770 133.7607640  47.0552580  68.4319390 133.7526870  46.3577960
  72.3161000 133.5908990  41.8544340  72.5111630 134.4892440  42.1211770
  71.5290870 133.3596070  42.3477290  59.1122290 149.2722160  42.2936960
  58.5869910 149.6530190  41.5898920  59.0366870 149.8972930  43.0146670
  60.5012760 134.9369760  40.8920650  61.0305520 134.1499560  40.7628600
  61.1341080 135.6160950  41.1256180  62.6950600 134.6744900  43.9466040
  62.0653340 133.9732210  44.1136170  62.1555740 135.4349030  43.7299200
  73.8687610 150.8309700  43.6150900  74.0439800 150.1447440  42.9711820
  73.1709180 151.3556750  43.2227570  62.8206160 133.9528880  56.3818530
  62.5390430 134.4562480  55.6179350  63.2025860 133.1550630  56.0160660
  61.7115260 151.2204540  41.1686210  62.4434080 150.9363820  40.6210100
  61.9708930 150.9817820  42.0585590  60.8730050 147.3369270  41.1732540
  60.2438930 147.8054370  41.7218370  60.9877880 146.4918490  41.6078730
  69.4221620 133.3682460  56.9599000  69.3087070 133.6877070  57.8550520
  70.2391360 133.7694970  56.6636280  72.2020110 150.5153990  56.4417690
  72.9945430 150.0203220  56.2343650  72.4953260 151.1944130  57.0493300
  68.3279770 141.3874930  27.3233740  68.2473820 140.4729540  27.0525450
  67.9144190 141.8842000  26.6173450  66.4597810 143.1653950  29.2043010
  65.6839910 142.6854390  29.4941580  67.1110740 142.4859600  29.0299170
  60.4763640 143.4773760  30.0818770  59.6448520 143.2222470  30.4815280
  61.0844620 143.5484530  30.8176690  70.4805240 147.5714140  27.9842140
  70.0186770 146.8001380  28.3129310  71.2930790 147.5980210  28.4894590
  60.4564900 147.5113850  30.2776790  60.7592940 146.6211590  30.0987010
  61.2008490 148.0684070  30.0499040  58.8855590 138.4375650  23.8661160
  57.9972290 138.7791620  23.7641040  59.1696780 138.2375970  22.9741990
  56.8488600 141.0381300  29.7500860  57.4204710 140.2703500  29.7504500
  56.8490140 141.3370060  28.8407470  66.7068550 149.8572150  27.6046130
  66.0879990 150.3129650  27.0340570  67.5620330 150.0123610  27.2035830
  65.9006800 145.8411140  29.2113170  65.8315080 144.9001080  29.0502300
  66.6626660 145.9312550  29.7835740  58.0913470 136.4465660  31.5369790
  57.9116310 135.5491410  31.8172550  57.6893550 136.9937530  32.2116740
  66.9311970 138.6481520  29.4382100  67.3076790 137.7753400  29.3255770
  66.8331480 138.9840220  28.5472540  61.0616980 137.0207150  24.8999540
  61.1683730 137.9210880  25.2068300  60.1509340 136.9725120  24.6094190
  70.7136090 136.1431960  26.3710440  71.5345710 135.6528530  26.4135920
  70.7470170 136.7329620  27.1242280  58.7100140 138.9426160  30.1452130
  59.3910250 139.2064530  30.7639530  58.3948190 138.1027030  30.4790140
  62.9024710 139.9893520  29.2324720  63.4102930 140.4874490  29.8729740
  63.4337950 139.2128720  29.0564080  75.0035640 138.1598710  32.9354070
  74.2987810 138.5480420  32.4169180  75.2693560 138.8549000  33.5375000
  61.1860810 134.6292080  33.4988140  61.1879250 135.1464470  32.6934040
  60.3565120 134.1522260  33.4758070  67.5731900 144.7411390  24.9978040
  66.9549170 145.2060840  24.4340760  68.0855150 145.4338870  25.4147550
  62.4363660 144.2687260  31.6761640  62.1033040 144.8956180  32.3182710
  62.6130340 144.7949140  30.8963310  70.9497570 138.0832340  29.1437980
  70.2453140 138.3717230  29.7241090  71.3109730 138.8932450  28.7837540
  60.8676140 136.3402040  31.5058590  61.2092950 137.1844090  31.2112460
  59.9291950 136.4885780  31.6223930  61.6482760 146.2368060  33.4910820
  62.2656760 146.9119140  33.2095270  60.7875880 146.6456040  33.3998320
  56.9415100 145.4267920  22.3717670  56.5643080 145.9155020  21.6402570
  57.1988170 146.0993200  23.0024200  72.5660350 147.7007470  31.4065460
  71.8823870 148.3706580  31.3982130  73.1054640 147.8988120  30.6410320
  74.0184490 137.5287130  29.5347190  73.0709400 137.5626110  29.6662620
  74.3434480 138.3426080  29.9196550  64.5504030 133.8284310  27.8303180
  64.8579010 133.2731200  27.1138680  63.6204730 133.9628770  27.6476170
  70.1019090 149.5451600  30.1210640  70.1146250 149.1413890  29.2532900
  69.5494310 150.3198890  30.0172070  71.3964510 146.2667820  25.2100810
  71.2860840 145.3242150  25.3350230  71.3932760 146.6283460  26.0963570
  69.5004530 144.4481440  31.4493250  69.9173320 144.2341550  30.6146710
  70.2244350 144.7054230  32.0201870  66.9384790 141.8933140  24.5663300
  66.0114070 141.8270520  24.7951770  67.0909610 142.8313270  24.4518540
  66.9253870 138.1650140  21.5630460  65.9857540 138.3264100  21.6482920
  67.2437130 138.8835820  21.0166450  73.4466630 142.8468660  31.5409490
  72.6185260 142.9161750  31.0659620  74.0417110 143.4322970  31.0725320
  70.9682080 143.4553440  25.0698550  70.3494500 143.1172990  24.4224850
  70.9506530 142.8113200  25.7777740  70.4108640 139.6337980  32.4864360
  69.9979820 140.4591690  32.7404350  69.6784590 139.0483020  32.2940720
  62.5441430 142.4197880  27.3483030  62.1398430 141.7075130  26.8528930
  62.6304550 142.0751120  28.2371070  63.0123130 146.1065440  29.5122240
  62.7151420 145.5010910  28.8330020  63.9622950 146.1442750  29.4011600
  61.2570050 139.1941090  31.1282070  61.8084640 139.3036430  30.3535320
  61.7713560 139.5678690  31.8437300  71.1008740 149.6797310  33.1745340
  70.6239300 150.4869500  32.9817950  70.4170530 149.0275640  33.3271550
  62.1041560 145.8447130  36.1630040  61.2070090 146.0687100  36.4103440
  62.1294430 145.9682070  35.2141440  69.1446780 142.6940250  22.0771300
  69.5840060 141.8562680  21.9309120  69.8575200 143.3269650  22.1635440
  60.9312780 142.7160450  34.7387410  60.7920550 143.5883250  35.1074810
  60.0494140 142.3733260  34.5935350  67.2542160 147.6336320  26.0452540
  67.6938070 148.3760650  25.6307930  67.1929050 147.8762890  26.9691500
  62.7293130 148.6582150  36.9472560  62.7008560 149.0625100  36.0800990
  62.5658100 147.7292510  36.7844160  72.7263920 133.9483060  20.3912340
  72.4136580 134.0409890  21.2911410  73.4876390 134.5264090  20.3409770
  59.2446060 141.3142860  24.8489680  59.1243660 142.0404950  24.2370950
  58.9346950 140.5445770  24.3717590  74.6807950 149.4409250  38.2436730
  75.1567670 149.9192140  38.9225810  75.3015110 149.3726740  37.5182230
  56.8831430 144.4858000  30.6558320  56.9611850 144.6206770  29.7114040
  57.4973110 143.7773890  30.8486440  58.1279060 146.1858190  27.0664500
  57.7207140 146.3272780  26.2118100  59.0192070 145.9018350  26.8635710
  74.0841200 146.6322100  35.4036740  74.2104260 146.3933980  34.4853920
  74.1262580 145.8006640  35.8758820  67.9457940 150.3350100  33.9731550
  68.4602610 150.2458110  34.7753980  67.1027020 150.6809800  34.2659460
  69.9212340 150.6205440  23.4015550  69.7613480 150.3308380  24.2997380
  69.7559050 149.8445570  22.8660780  62.4000720 150.4003970  25.1787170
  62.2243200 149.4839510  24.9654970  61.5456460 150.7591260  25.4184970
  69.6238470 148.1293000  21.9613550  68.9303630 148.1270290  21.3015830
  70.3661330 147.7052320  21.5307720  69.1888400 149.7555710  26.0362040
  69.6445350 148.9745090  26.3500660  69.5280920 150.4662530  26.5803220
  73.9365210 138.6854560  36.3686480  73.3209480 139.1934230  35.8401940
  73.6161630 137.7852890  36.3112420  56.9390950 145.5272170  33.1952780
  57.1021990 145.0577530  32.3772150  57.4043400 145.0195730  33.8601620
  61.7109720 134.6577930  28.2313350  61.2677870 135.4387470  27.8997870
  62.2694710 134.9807820  28.9384290  65.9979530 137.5246450  33.8348670
  65.5358900 137.7329470  34.6468610  65.5957640 136.7105800  33.5319340
  70.9984040 138.7455400  34.9645330  70.1477630 138.4461150  35.2854400
  70.8385830 138.9897410  34.0529150  68.0933750 140.2457150  37.0644120
  68.4187160 139.4120900  36.7246350  68.8814080 140.7685670  37.2122450
  64.8268540 134.2788630  23.1119180  64.2022720 134.2748500  23.8372490
  64.7398660 133.4119590  22.7155150  63.7485620 135.2025260  30.0902950
  64.0457950 136.1088090  30.0094970  64.2971180 134.7144040  29.4762520
  61.5023940 139.7811500  25.9594600  61.2764860 139.5648670  26.8641220
  60.7216470 140.2139960  25.6140570  68.7321700 139.7874870  24.5585250
  68.1330590 140.5110670  24.3748870  69.2801310 139.7251650  23.7761700
  63.9423150 140.6797080  36.6254870  63.8466750 139.7391810  36.4755270
  64.7855130 140.9012150  36.2302940  67.3386570 138.4238410  26.5888530
  67.7316140 138.7410610  25.7757220  67.7003420 137.5450290  26.7033050
  59.0733690 137.0910750  34.7788650  58.6797080 137.9385960  34.9861430
  58.3852090 136.4537120  34.9697290  65.6478740 137.1745720  37.8485390
  64.9577060 136.9817920  38.4831480  66.3911040 137.4580360  38.3809690
  56.3750740 135.0139210  28.8118730  56.0863790 135.5842070  29.5243710
  57.1196500 134.5343660  29.1749960  56.5620970 138.9559330  20.0221450
  56.4795640 139.8990090  20.1636440  56.2104030 138.8134240  19.1433800
  67.9241710 141.0144160  30.6839310  67.1922830 141.5230970  31.0329410
  67.5266050 140.1974140  30.3828090  64.3619100 137.6898360  29.0891800
  64.3655160 137.2488310  28.2396340  65.2570220 138.0115690  29.1963620
  60.2121480 137.5724850  28.0486010  59.8721530 138.0500080  28.8053060
  59.4498800 137.1189970  27.6887110  64.4239250 138.6910440  22.0798560
  64.5452070 138.6496920  23.0284380  64.0387760 139.5534590  21.9245290
  68.3867620 136.4677840  30.0962250  68.4040360 136.9186490  30.9404100
  68.1383200 135.5683480  30.3095690  63.4360750 141.0011580  21.4781860
  62.8677650 140.5529830  20.8517770  64.1449750 141.3604360  20.9447010
  71.8138370 133.8810020  35.9348630  72.1384140 133.1499680  36.4606610
  71.8494880 133.5623660  35.0329620  58.5129930 144.9023600  35.3548590
  58.1284720 144.2617270  35.9531550  58.8242120 145.6059720  35.9243320
  64.6627070 141.7500140  30.8357210  65.0297200 141.2758710  31.5818550
  64.4732130 142.6241710  31.1765550  57.5267560 136.4943830  26.9650680
  57.2414480 136.1299500  27.8029300  57.4646420 135.7624290  26.3513820
  62.4526440 140.7908780  33.1541420  62.1483510 141.6700760  33.3791780
  63.4072900 140.8508570  33.1898860  60.9808230 144.9969770  23.7508270
  60.2070490 144.4567390  23.5906990  61.7102860 144.4776380  23.4126030
  71.7396210 143.9935130  29.5434660  72.4595330 144.4890420  29.1530770
  71.5378030 143.3153020  28.8988530  67.2006150 135.3873090  23.6864050
  66.3870760 134.8886260  23.6109360  67.0068100 136.2271340  23.2700400
  67.1215010 144.0644190  35.4303660  67.0552320 143.1439860  35.1761250
  66.4920150 144.1619630  36.1448300  69.9154540 139.7592740  21.9826210
  70.8034160 140.0709970  21.8077550  69.8859630 138.8864990  21.5906790
  61.0245630 144.6650150  27.3887080  61.5424300 143.8618410  27.3343970
  60.5729650 144.6029290  28.2303910  65.9115130 145.9316430  22.6614380
  66.2530830 146.6758660  22.1657700  65.0827840 146.2447550  23.0239210
  58.5090170 141.6311520  34.3012780  58.1505110 142.2965370  34.8886120
  58.2144730 140.7995070  34.6725400  61.7103290 142.0895760  37.1852330
  61.4103430 142.2352940  36.2880150  62.4814530 141.5301050  37.0925720
  67.0531740 146.8864760  35.1807460  67.0676280 145.9545720  34.9626370
  66.3456840 146.9724520  35.8197230  72.1868810 141.0704580  21.4506070
  72.1032530 141.5018800  20.6002510  72.9063000 141.5302930  21.8832890
  73.2642950 143.5272100  34.5276040  72.5391140 144.1200880  34.3305430
  73.7918410 143.5195640  33.7289410  73.2156060 147.9246840  24.1788200
  72.5732220 147.2702460  24.4531920  72.8286720 148.3301930  23.4028870
  68.7942540 145.2532270  28.0259890  69.1466360 144.6560400  27.3661260
  67.9104870 144.9276500  28.1968140  64.8805820 146.0129960  25.4330300
  65.5676950 146.5599170  25.8137890  64.0938240 146.5570690  25.4679910
  57.0198220 141.6302780  20.9247380  57.8893070 141.9127580  21.2083300
  56.5288540 142.4438650  20.8096190  64.1833030 143.0175990  25.0455660
  64.6395810 143.8281240  25.2715850  63.8321240 142.6999130  25.8774150
  66.4865640 148.5282330  32.2747960  67.1307860 148.7341710  32.9521380
  66.8495080 147.7670730  31.8218810  60.0844810 133.3613640  25.5178180
  59.9559440 133.3531540  26.4663100  59.2606830 133.6996730  25.1669190
  67.7597720 146.5314680  30.9925410  68.4019950 145.8307840  31.1057580
  68.2847070 147.3113120  30.8122300  71.6053440 146.8163300  20.7164550
  71.3791020 146.0993740  21.3089190  71.2149640 146.5675740  19.8786300
  69.5335340 147.3309580  34.1961470  69.8691580 147.9176270  34.8739390
  68.6135680 147.2002290  34.4259260  57.3869470 150.8430160  21.4909010
  57.7467110 151.4419500  20.8366280  57.2461810 151.3890050  22.2644040
  57.0838740 135.1204760  34.9784880  56.3697260 135.3201680  35.5837490
  57.5033780 134.3444330  35.3499680  71.1869690 144.7335240  22.3778710
  70.8991390 145.1947930  23.1656590  71.9821860 144.2733010  22.6462930
  57.3711330 149.1085020  35.9651410  57.4802450 148.1679760  35.8246800
  56.7191890 149.3739770  35.3165140  65.3623920 147.3800910  37.3649530
  65.0420790 146.6610150  37.9095220  64.6882280 148.0555980  37.4385590
  63.4038090 148.2261360  22.3082680  63.3948190 148.9591050  21.6927190
  62.4836450 147.9792940  22.4009640  59.0044730 143.4476250  23.0529440
  58.3972680 144.1875150  23.0624740  59.4794080 143.5375610  22.2267640
  68.5777520 137.6127070  32.7286330  68.9458340 136.7922280  33.0565900
  67.7175720 137.6728960  33.1441980  71.9439550 136.5684010  23.5373890
  71.3152710 136.6729680  22.8232120  71.4491470 136.7880790  24.3267770
  66.3897690 148.2889600  20.9707870  66.4909670 148.0853590  20.0409850
  65.4899430 148.0347880  21.1755650  63.9123580 138.8469960  24.9531770
  63.2039730 139.3156300  25.3945380  64.1968060 138.1891970  25.5876960
  65.5379510 140.2666660  32.9524300  66.0364760 140.7412480  33.6176150
  65.6802460 139.3430180  33.1594330  67.9439010 135.5720620  26.3927560
  67.8206790 135.5906750  25.4437070  68.8923570 135.6199560  26.5125960
  65.0315800 150.8075920  25.6655540  65.2857300 150.7697310  24.7434910
  64.0828280 150.6809250  25.6583790  62.1158600 137.1555040  22.3282480
  62.9649130 137.5925190  22.2622670  61.7489870 137.4675300  23.1554540
  72.7446370 136.4834620  33.7952690  72.2419970 137.2240020  34.1346500
  73.5603030 136.8718620  33.4789480  71.0368380 141.7267800  27.2414050
  70.0958520 141.7418030  27.4161740  71.3512450 140.9403760  27.6874350
  61.0150020 143.4087400  20.8018010  61.7813290 143.2968760  21.3643440
  61.0924710 142.7125370  20.1494780  59.7096780 140.8412470  21.4850900
  59.7900370 139.8939980  21.5968300  60.6016530 141.1719350  21.5911560
  73.0393960 148.8976650  28.9168310  73.1641380 149.7207820  29.3892120
  73.9059520 148.6867380  28.5692460  57.3956970 147.0581430  24.4626950
  56.4696750 147.3002570  24.4532360  57.8613400 147.8855690  24.3411700
  59.5169770 150.1753930  37.7771020  60.3182500 150.4965980  38.1906420
  59.0021590 149.8149510  38.4990930  63.6213800 150.1638170  20.4111010
  64.4142410 150.4527000  19.9592800  63.1018150 149.7330340  19.7323490
  68.3534400 146.2833800  37.7246430  67.7472560 146.3065400  36.9842180
  68.0488510 145.5516840  38.2613680  69.7834770 150.0114090  36.3355840
  70.7356520 149.9272110  36.2856080  69.6362990 150.6755800  37.0089630
  72.6743970 149.3908300  21.8347750  72.3885480 148.9773440  21.0201930
  72.4763520 150.3196010  21.7148270  57.2367580 142.6627390  36.7207070
  57.7406600 142.0834670  37.2923300  56.4975000 142.9467620  37.2583440
  64.1391200 145.3841580  20.2753360  64.0341840 144.7693930  21.0014740
  63.9715420 144.8607470  19.4916370  64.2905520 144.0698380  36.2542590
  63.5251190 144.6383380  36.1697260  64.4721480 143.7774590  35.3610820
  67.3793930 144.4461610  20.8795350  66.8304030 144.8930910  21.5238090
  68.0013190 143.9410860  21.4033020  71.4328870 145.8003710  36.8117610
  72.1738340 146.1379470  36.3085070  70.6701550 145.9695770  36.2587380
  59.2690660 140.8056980  37.6157140  59.3096000 140.5070850  38.5242370
  60.1236160 141.2064590  37.4564660  63.0469050 143.4052530  22.7760650
  63.4685470 143.2392400  23.6192040  63.1719890 142.5952760  22.2815790
  61.2096470 139.3849080  35.5831630  60.6792930 138.8940030  34.9554970
  61.8784540 139.8133280  35.0489560  65.5596690 142.4290140  20.0237750
  66.0802350 141.7139160  19.6578900  66.2065090 143.0676010  20.3238260
  70.1074530 143.8518540  35.3472820  70.5215550 144.0063620  36.1963240
  69.1725530 143.9773760  35.5098600  70.5796700 141.1914700  37.3511970
  71.1617470 140.4367020  37.2632450  70.7558470 141.7222140  36.5743450
  61.6968770 136.3511450  35.6628920  61.6025640 135.7332200  34.9379790
  61.1166160 137.0777740  35.4358830  64.4630210 134.9084690  32.6956310
  64.0147510 134.9308950  31.8501860  63.8295410 134.5103710  33.2926610
  64.8689760 143.8039020  33.3168750  65.2877870 144.6471750  33.1444990
  63.9498390 143.9411060  33.0875530  67.2053660 141.5355200  34.7006590
  67.3249870 140.9396340  35.4401430  68.0647660 141.5724890  34.2807890
  69.5441560 142.0892390  33.2769100  69.0176780 142.6135010  32.6734240
  69.8872900 142.7219780  33.9078830  61.9427950 139.4785760  19.7218810
  61.7417010 138.6153120  20.0832150  61.7720000 139.3919120  18.7840410
  62.7197180 150.1092030  34.4326480  62.1818270 150.8338090  34.1135180
  62.9731140 149.6322370  33.6423820  63.9722430 138.0776550  35.9582410
  64.5622120 137.7692400  36.6460230  63.1542670 137.6056300  36.1142310
  68.7915860 137.6942360  36.1915430  68.1031380 137.0323900  36.1265420
  69.5121880 137.2480630  36.6363890  69.4216260 134.2893990  22.2505690
  69.7018550 133.4461890  22.6065110  68.6481990 134.5217100  22.7644440
  60.7410750 136.5786380  19.7096690  61.0436650 136.5853810  18.8015840
  61.4805340 136.2284240  20.2064350  63.9595680 135.5221000  20.6952890
  63.6117680 134.8444990  20.1155340  64.1608450 135.0610510  21.5096280
  66.1244720 150.5101750  22.3139490  67.0195510 150.8486720  22.3358250
  66.1562350 149.7881160  21.6863770  59.7640880 145.8828800  20.5426490
  60.2015750 146.4258470  21.1984070  60.2488610 145.0575750  20.5522830
  56.9786680 148.6717830  27.9946750  57.3089690 147.8038890  27.7625390
  57.4077680 148.8776350  28.8251710  61.5748600 147.0026840  25.6548720
  61.2744140 146.8791810  26.5552630  61.4686090 146.1435430  25.2464450
  57.4676890 149.5388420  30.7328380  57.0307880 149.7189220  31.5652530
  58.0354570 150.2963040  30.5910100  73.1039070 149.0405420  35.0205690
  72.5041060 149.0997980  34.2769610  73.2332970 148.1010400  35.1502540
  74.3440520 146.7823240  20.3575400  73.5133480 146.8499890  20.8282630
  74.5212350 147.6727360  20.0542260  73.7996980 143.5270720  22.8609600
  74.5615890 144.0967370  22.9669290  73.8151350 142.9597920  23.6317910
  57.3001320 142.0508650  27.0917260  56.6450160 141.7820290  26.4476960
  58.1379270 141.9413130  26.6419240  74.8056950 144.3820820  27.7051530
  75.1765780 143.5988140  27.2987500  75.4458880 145.0709920  27.5268830
  71.7890710 145.7657400  33.1181850  70.9750550 146.1954560  33.3807640
  72.1964910 146.3775810  32.5050900  73.8516150 143.8205090  20.0182120
  74.1264990 144.7283970  19.8901340  73.6626890 143.7567620  20.9544110
  70.2491760 136.8449940  21.3135750  70.6676640 136.6580920  20.4732410
  69.9427820 135.9928990  21.6238680  73.7481490 141.7574080  25.0111550
  73.3725090 140.9902010  24.5792840  73.0184610 142.1396780  25.4986480
  58.3377250 142.4361220  31.6320600  58.7050290 142.3488620  32.5116620
  57.7688070 141.6727770  31.5327460  73.1381110 140.9045600  34.6451070
  72.9067200 140.6758350  33.7449020  73.3985660 141.8245150  34.5995960
  57.8893250 139.3470310  35.5379020  56.9949300 139.3137070  35.8772730
  58.4290800 139.5457100  36.3030270  71.5769180 136.1302030  37.4230770
  72.4539360 136.1385430  37.8064770  71.5890020 135.3932870  36.8123120
  56.5139400 139.2607580  23.0342590  55.6103480 139.5237780  22.8594250
  56.9980020 139.5318750  22.2542550  73.0232450 139.9831570  28.3118790
  73.5469930 139.4894220  27.6808960  73.6091870 140.1181930  29.0566360
  73.2022170 140.0671440  31.8338340  72.2524880 140.0334980  31.9483330
  73.3835180 140.9771550  31.5988110  59.0566610 138.3173120  20.9436970
  59.7658310 137.8956340  20.4584250  58.3406550 138.3848350  20.3120320
  58.7040770 134.3712450  19.9839620  59.4268900 134.9121390  20.3020840
  58.9765290 134.0975870  19.1081160  72.5132420 139.2404920  24.2511200
  73.0091540 139.0075790  25.0360080  72.3148490 138.4016760  23.8348840
  58.3932960 133.6218640  29.8862240  59.0409150 133.0716020  29.4457400
  58.8134800 133.8761790  30.7078050  73.9419580 137.8765870  26.7848880
  73.8318860 137.7221910  27.7231150  74.7027170 137.3486810  26.5424290
  72.2885300 133.8160000  33.2431880  72.9257520 134.4294140  33.6091070
  72.4360190 133.8520660  32.2981110  74.8309850 135.7073790  20.0255020
  75.7559160 135.5754970  19.8173310  74.8085640 135.7866610  20.9791470
  74.9048340 136.4784450  22.6511730  74.1099840 136.4129570  23.1804640
  75.1091620 137.4135090  22.6397080  71.8466760 150.5176000  26.6450120
  72.4425830 150.1960570  25.9684540  72.1044910 150.0447820  27.4363390
  58.1464960 133.7774310  32.6287560  57.7979780 134.2338130  33.3945740
  57.8152660 132.8831440  32.7109990  59.7529330 146.9493910  36.7940750
  59.7098960 146.5786820  37.6755210  59.8840340 147.8871480  36.9342570
  63.4535360 148.5053500  32.3950470  63.2126720 148.7728060  31.5080990
  64.3938000 148.6759230  32.4501330  65.6589780 134.9686190  36.1506980
  65.5978670 135.5608020  36.9002390  66.5990160 134.8612150  36.0057240
  68.2964340 134.6256250  35.7899270  68.9104750 134.9435540  35.1280350
  68.8413900 134.1404840  36.4095130  74.7139520 150.5247880  33.1961110
  74.2197800 150.9216750  32.4788240  74.1052810 149.8997090  33.5898390
  58.8185600 133.3050510  35.9038330  59.3668590 133.1238560  35.1404440
  58.8840910 132.5144620  36.4394640  59.5917360 149.8956160  33.9138530
  58.9977680 149.7640860  34.6528570  59.5841200 149.0594300  33.4480630
  69.0372380 133.1888390  32.1168560  68.1632220 133.5223500  31.9141490
  68.9283130 132.7161570  32.9420430  69.9444360 135.3959260  33.5010280
  69.6157720 134.5811020  33.1212010  70.8926660 135.3529070  33.3775970
  59.2229590 147.2614540  32.8646570  58.4963650 146.6419830  32.7972520
  59.2838740 147.6555150  31.9944650  62.8274690 149.4759540  29.6495980
  63.3439710 148.8646900  29.1244240  63.4772070 149.9788320  30.1406990
  65.5670190 150.3668030  30.4764960  65.8548000 150.1122330  29.5997970
  66.0793410 149.8145390  31.0670530  66.7847200 134.1058230  31.0561470
  66.0018990 134.5803730  31.3358230  66.4910130 133.2013060  30.9474650
  71.3368270 134.8081330  29.1010560  71.7776360 134.7526430  28.2532160
  71.0675860 135.7239340  29.1720740  73.2006840 134.4396570  27.1119380
  73.1395240 133.4957790  26.9650400  73.9798870 134.5476660  27.6572840
  57.5059590 150.5788930  26.0743330  57.3381630 149.9459610  26.7725220
  56.6394100 150.7848330  25.7237520  58.1287610 134.4105710  23.5775190
  58.8866970 134.5234590  23.0039220  57.6664780 135.2474910  23.5318620
  64.6701420 136.5244980  26.5677500  63.8575930 136.1501870  26.2273380
  65.1743060 135.7690060  26.8698690  69.1726400 133.1887430  27.8060570
  69.7755770 133.7607640  28.2809090  68.4319390 133.7526870  27.5834470
  72.3161000 133.5908990  23.0800850  72.5111630 134.4892440  23.3468280
  71.5290870 133.3596070  23.5733800  59.1122290 149.2722160  23.5193470
  58.5869910 149.6530190  22.8155430  59.0366870 149.8972930  24.2403180
  60.5012760 134.9369760  22.1177160  61.0305520 134.1499560  21.9885110
  61.1341080 135.6160950  22.3512690  62.6950600 134.6744900  25.1722550
  62.0653340 133.9732210  25.3392680  62.1555740 135.4349030  24.9555710
  73.8687610 150.8309700  24.8407410  74.0439800 150.1447440  24.1968330
  73.1709180 151.3556750  24.4484080  62.8206160 133.9528880  37.6075040
  62.5390430 134.4562480  36.8435860  63.2025860 133.1550630  37.2417170
  61.7115260 151.2204540  22.3942720  62.4434080 150.9363820  21.8466610
  61.9708930 150.9817820  23.2842100  60.8730050 147.3369270  22.3989050
  60.2438930 147.8054370  22.9474880  60.9877880 146.4918490  22.8335240
  69.4221620 133.3682460  38.1855510  69.3087070 133.6877070  39.0807030
  70.2391360 133.7694970  37.8892790  72.2020110 150.5153990  37.6674200
  72.9945430 150.0203220  37.4600160  72.4953260 151.1944130  38.2749810
  68.3279770 141.3874930   8.5490250  68.2473820 140.4729540   8.2781960
  67.9144190 141.8842000   7.8429960  66.4597810 143.1653950  10.4299520
  65.6839910 142.6854390  10.7198090  67.1110740 142.4859600  10.2555680
  60.4763640 143.4773760  11.3075280  59.6448520 143.2222470  11.7071790
  61.0844620 143.5484530  12.0433200  70.4805240 147.5714140   9.2098650
  70.0186770 146.8001380   9.5385820  71.2930790 147.5980210   9.7151100
  60.4564900 147.5113850  11.5033300  60.7592940 146.6211590  11.3243520
  61.2008490 148.0684070  11.2755550  58.8855590 138.4375650   5.0917670
  57.9972290 138.7791620   4.9897550  59.1696780 138.2375970   4.1998500
  56.8488600 141.0381300  10.9757370  57.4204710 140.2703500  10.9761010
  56.8490140 141.3370060  10.0663980  66.7068550 149.8572150   8.8302640
  66.0879990 150.3129650   8.2597080  67.5620330 150.0123610   8.4292340
  65.9006800 145.8411140  10.4369680  65.8315080 144.9001080  10.2758810
  66.6626660 145.9312550  11.0092250  58.0913470 136.4465660  12.7626300
  57.9116310 135.5491410  13.0429060  57.6893550 136.9937530  13.4373250
  66.9311970 138.6481520  10.6638610  67.3076790 137.7753400  10.5512280
  66.8331480 138.9840220   9.7729050  61.0616980 137.0207150   6.1256050
  61.1683730 137.9210880   6.4324810  60.1509340 136.9725120   5.8350700
  70.7136090 136.1431960   7.5966950  71.5345710 135.6528530   7.6392430
  70.7470170 136.7329620   8.3498790  58.7100140 138.9426160  11.3708640
  59.3910250 139.2064530  11.9896040  58.3948190 138.1027030  11.7046650
  62.9024710 139.9893520  10.4581230  63.4102930 140.4874490  11.0986250
  63.4337950 139.2128720  10.2820590  75.0035640 138.1598710  14.1610580
  74.2987810 138.5480420  13.6425690  75.2693560 138.8549000  14.7631510
  61.1860810 134.6292080  14.7244650  61.1879250 135.1464470  13.9190550
  60.3565120 134.1522260  14.7014580  67.5731900 144.7411390   6.2234550
  66.9549170 145.2060840   5.6597270  68.0855150 145.4338870   6.6404060
  62.4363660 144.2687260  12.9018150  62.1033040 144.8956180  13.5439220
  62.6130340 144.7949140  12.1219820  70.9497570 138.0832340  10.3694490
  70.2453140 138.3717230  10.9497600  71.3109730 138.8932450  10.0094050
  60.8676140 136.3402040  12.7315100  61.2092950 137.1844090  12.4368970
  59.9291950 136.4885780  12.8480440  61.6482760 146.2368060  14.7167330
  62.2656760 146.9119140  14.4351780  60.7875880 146.6456040  14.6254830
  56.9415100 145.4267920   3.5974180  56.5643080 145.9155020   2.8659080
  57.1988170 146.0993200   4.2280710  72.5660350 147.7007470  12.6321970
  71.8823870 148.3706580  12.6238640  73.1054640 147.8988120  11.8666830
  74.0184490 137.5287130  10.7603700  73.0709400 137.5626110  10.8919130
  74.3434480 138.3426080  11.1453060  64.5504030 133.8284310   9.0559690
  64.8579010 133.2731200   8.3395190  63.6204730 133.9628770   8.8732680
  70.1019090 149.5451600  11.3467150  70.1146250 149.1413890  10.4789410
  69.5494310 150.3198890  11.2428580  71.3964510 146.2667820   6.4357320
  71.2860840 145.3242150   6.5606740  71.3932760 146.6283460   7.3220080
  69.5004530 144.4481440  12.6749760  69.9173320 144.2341550  11.8403220
  70.2244350 144.7054230  13.2458380  66.9384790 141.8933140   5.7919810
  66.0114070 141.8270520   6.0208280  67.0909610 142.8313270   5.6775050
  66.9253870 138.1650140   2.7886970  65.9857540 138.3264100   2.8739430
  67.2437130 138.8835820   2.2422960  73.4466630 142.8468660  12.7666000
  72.6185260 142.9161750  12.2916130  74.0417110 143.4322970  12.2981830
  70.9682080 143.4553440   6.2955060  70.3494500 143.1172990   5.6481360
  70.9506530 142.8113200   7.0034250  70.4108640 139.6337980  13.7120870
  69.9979820 140.4591690  13.9660860  69.6784590 139.0483020  13.5197230
  62.5441430 142.4197880   8.5739540  62.1398430 141.7075130   8.0785440
  62.6304550 142.0751120   9.4627580  63.0123130 146.1065440  10.7378750
  62.7151420 145.5010910  10.0586530  63.9622950 146.1442750  10.6268110
  61.2570050 139.1941090  12.3538580  61.8084640 139.3036430  11.5791830
  61.7713560 139.5678690  13.0693810  71.1008740 149.6797310  14.4001850
  70.6239300 150.4869500  14.2074460  70.4170530 149.0275640  14.5528060
  62.1041560 145.8447130  17.3886550  61.2070090 146.0687100  17.6359950
  62.1294430 145.9682070  16.4397950  69.1446780 142.6940250   3.3027810
  69.5840060 141.8562680   3.1565630  69.8575200 143.3269650   3.3891950
  60.9312780 142.7160450  15.9643920  60.7920550 143.5883250  16.3331320
  60.0494140 142.3733260  15.8191860  67.2542160 147.6336320   7.2709050
  67.6938070 148.3760650   6.8564440  67.1929050 147.8762890   8.1948010
  62.7293130 148.6582150  18.1729070  62.7008560 149.0625100  17.3057500
  62.5658100 147.7292510  18.0100670  59.2446060 141.3142860   6.0746190
  59.1243660 142.0404950   5.4627460  58.9346950 140.5445770   5.5974100
  74.6807950 149.4409250  19.4693240  75.1567670 149.9192140  20.1482320
  75.3015110 149.3726740  18.7438740  56.8831430 144.4858000  11.8814830
  56.9611850 144.6206770  10.9370550  57.4973110 143.7773890  12.0742950
  58.1279060 146.1858190   8.2921010  57.7207140 146.3272780   7.4374610
  59.0192070 145.9018350   8.0892220  74.0841200 146.6322100  16.6293250
  74.2104260 146.3933980  15.7110430  74.1262580 145.8006640  17.1015330
  67.9457940 150.3350100  15.1988060  68.4602610 150.2458110  16.0010490
  67.1027020 150.6809800  15.4915970  69.9212340 150.6205440   4.6272060
  69.7613480 150.3308380   5.5253890  69.7559050 149.8445570   4.0917290
  62.4000720 150.4003970   6.4043680  62.2243200 149.4839510   6.1911480
  61.5456460 150.7591260   6.6441480  69.6238470 148.1293000   3.1870060
  68.9303630 148.1270290   2.5272340  70.3661330 147.7052320   2.7564230
  69.1888400 149.7555710   7.2618550  69.6445350 148.9745090   7.5757170
  69.5280920 150.4662530   7.8059730  73.9365210 138.6854560  17.5942990
  73.3209480 139.1934230  17.0658450  73.6161630 137.7852890  17.5368930
  56.9390950 145.5272170  14.4209290  57.1021990 145.0577530  13.6028660
  57.4043400 145.0195730  15.0858130  61.7109720 134.6577930   9.4569860
  61.2677870 135.4387470   9.1254380  62.2694710 134.9807820  10.1640800
  65.9979530 137.5246450  15.0605180  65.5358900 137.7329470  15.8725120
  65.5957640 136.7105800  14.7575850  70.9984040 138.7455400  16.1901840
  70.1477630 138.4461150  16.5110910  70.8385830 138.9897410  15.2785660
  68.0933750 140.2457150  18.2900630  68.4187160 139.4120900  17.9502860
  68.8814080 140.7685670  18.4378960  64.8268540 134.2788630   4.3375690
  64.2022720 134.2748500   5.0629000  64.7398660 133.4119590   3.9411660
  63.7485620 135.2025260  11.3159460  64.0457950 136.1088090  11.2351480
  64.2971180 134.7144040  10.7019030  61.5023940 139.7811500   7.1851110
  61.2764860 139.5648670   8.0897730  60.7216470 140.2139960   6.8397080
  68.7321700 139.7874870   5.7841760  68.1330590 140.5110670   5.6005380
  69.2801310 139.7251650   5.0018210  63.9423150 140.6797080  17.8511380
  63.8466750 139.7391810  17.7011780  64.7855130 140.9012150  17.4559450
  67.3386570 138.4238410   7.8145040  67.7316140 138.7410610   7.0013730
  67.7003420 137.5450290   7.9289560  59.0733690 137.0910750  16.0045160
  58.6797080 137.9385960  16.2117940  58.3852090 136.4537120  16.1953800
  65.6478740 137.1745720  19.0741900  64.9577060 136.9817920  19.7087990
  66.3911040 137.4580360  19.6066200  56.3750740 135.0139210  10.0375240
  56.0863790 135.5842070  10.7500220  57.1196500 134.5343660  10.4006470
  67.9241710 141.0144160  11.9095820  67.1922830 141.5230970  12.2585920
  67.5266050 140.1974140  11.6084600  64.3619100 137.6898360  10.3148310
  64.3655160 137.2488310   9.4652850  65.2570220 138.0115690  10.4220130
  60.2121480 137.5724850   9.2742520  59.8721530 138.0500080  10.0309570
  59.4498800 137.1189970   8.9143620  64.4239250 138.6910440   3.3055070
  64.5452070 138.6496920   4.2540890  64.0387760 139.5534590   3.1501800
  68.3867620 136.4677840  11.3218760  68.4040360 136.9186490  12.1660610
  68.1383200 135.5683480  11.5352200  63.4360750 141.0011580   2.7038370
  62.8677650 140.5529830   2.0774280  64.1449750 141.3604360   2.1703520
  71.8138370 133.8810020  17.1605140  72.1384140 133.1499680  17.6863120
  71.8494880 133.5623660  16.2586130  58.5129930 144.9023600  16.5805100
  58.1284720 144.2617270  17.1788060  58.8242120 145.6059720  17.1499830
  64.6627070 141.7500140  12.0613720  65.0297200 141.2758710  12.8075060
  64.4732130 142.6241710  12.4022060  57.5267560 136.4943830   8.1907190
  57.2414480 136.1299500   9.0285810  57.4646420 135.7624290   7.5770330
  62.4526440 140.7908780  14.3797930  62.1483510 141.6700760  14.6048290
  63.4072900 140.8508570  14.4155370  60.9808230 144.9969770   4.9764780
  60.2070490 144.4567390   4.8163500  61.7102860 144.4776380   4.6382540
  71.7396210 143.9935130  10.7691170  72.4595330 144.4890420  10.3787280
  71.5378030 143.3153020  10.1245040  67.2006150 135.3873090   4.9120560
  66.3870760 134.8886260   4.8365870  67.0068100 136.2271340   4.4956910
  67.1215010 144.0644190  16.6560170  67.0552320 143.1439860  16.4017760
  66.4920150 144.1619630  17.3704810  69.9154540 139.7592740   3.2082720
  70.8034160 140.0709970   3.0334060  69.8859630 138.8864990   2.8163300
  61.0245630 144.6650150   8.6143590  61.5424300 143.8618410   8.5600480
  60.5729650 144.6029290   9.4560420  65.9115130 145.9316430   3.8870890
  66.2530830 146.6758660   3.3914210  65.0827840 146.2447550   4.2495720
  58.5090170 141.6311520  15.5269290  58.1505110 142.2965370  16.1142630
  58.2144730 140.7995070  15.8981910  61.7103290 142.0895760  18.4108840
  61.4103430 142.2352940  17.5136660  62.4814530 141.5301050  18.3182230
  67.0531740 146.8864760  16.4063970  67.0676280 145.9545720  16.1882880
  66.3456840 146.9724520  17.0453740  72.1868810 141.0704580   2.6762580
  72.1032530 141.5018800   1.8259020  72.9063000 141.5302930   3.1089400
  73.2642950 143.5272100  15.7532550  72.5391140 144.1200880  15.5561940
  73.7918410 143.5195640  14.9545920  73.2156060 147.9246840   5.4044710
  72.5732220 147.2702460   5.6788430  72.8286720 148.3301930   4.6285380
  68.7942540 145.2532270   9.2516400  69.1466360 144.6560400   8.5917770
  67.9104870 144.9276500   9.4224650  64.8805820 146.0129960   6.6586810
  65.5676950 146.5599170   7.0394400  64.0938240 146.5570690   6.6936420
  57.0198220 141.6302780   2.1503890  57.8893070 141.9127580   2.4339810
  56.5288540 142.4438650   2.0352700  64.1833030 143.0175990   6.2712170
  64.6395810 143.8281240   6.4972360  63.8321240 142.6999130   7.1030660
  66.4865640 148.5282330  13.5004470  67.1307860 148.7341710  14.1777890
  66.8495080 147.7670730  13.0475320  60.0844810 133.3613640   6.7434690
  59.9559440 133.3531540   7.6919610  59.2606830 133.6996730   6.3925700
  67.7597720 146.5314680  12.2181920  68.4019950 145.8307840  12.3314090
  68.2847070 147.3113120  12.0378810  69.5335340 147.3309580  15.4217980
  69.8691580 147.9176270  16.0995900  68.6135680 147.2002290  15.6515770
  57.3869470 150.8430160   2.7165520  57.7467110 151.4419500   2.0622790
  57.2461810 151.3890050   3.4900550  57.0838740 135.1204760  16.2041390
  56.3697260 135.3201680  16.8094000  57.5033780 134.3444330  16.5756190
  71.1869690 144.7335240   3.6035220  70.8991390 145.1947930   4.3913100
  71.9821860 144.2733010   3.8719440  57.3711330 149.1085020  17.1907920
  57.4802450 148.1679760  17.0503310  56.7191890 149.3739770  16.5421650
  65.3623920 147.3800910  18.5906040  65.0420790 146.6610150  19.1351730
  64.6882280 148.0555980  18.6642100  63.4038090 148.2261360   3.5339190
  63.3948190 148.9591050   2.9183700  62.4836450 147.9792940   3.6266150
  59.0044730 143.4476250   4.2785950  58.3972680 144.1875150   4.2881250
  59.4794080 143.5375610   3.4524150  68.5777520 137.6127070  13.9542840
  68.9458340 136.7922280  14.2822410  67.7175720 137.6728960  14.3698490
  71.9439550 136.5684010   4.7630400  71.3152710 136.6729680   4.0488630
  71.4491470 136.7880790   5.5524280  63.9123580 138.8469960   6.1788280
  63.2039730 139.3156300   6.6201890  64.1968060 138.1891970   6.8133470
  65.5379510 140.2666660  14.1780810  66.0364760 140.7412480  14.8432660
  65.6802460 139.3430180  14.3850840  67.9439010 135.5720620   7.6184070
  67.8206790 135.5906750   6.6693580  68.8923570 135.6199560   7.7382470
  65.0315800 150.8075920   6.8912050  65.2857300 150.7697310   5.9691420
  64.0828280 150.6809250   6.8840300  62.1158600 137.1555040   3.5538990
  62.9649130 137.5925190   3.4879180  61.7489870 137.4675300   4.3811050
  72.7446370 136.4834620  15.0209200  72.2419970 137.2240020  15.3603010
  73.5603030 136.8718620  14.7045990  71.0368380 141.7267800   8.4670560
  70.0958520 141.7418030   8.6418250  71.3512450 140.9403760   8.9130860
  59.7096780 140.8412470   2.7107410  59.7900370 139.8939980   2.8224810
  60.6016530 141.1719350   2.8168070  73.0393960 148.8976650  10.1424820
  73.1641380 149.7207820  10.6148630  73.9059520 148.6867380   9.7948970
  57.3956970 147.0581430   5.6883460  56.4696750 147.3002570   5.6788870
  57.8613400 147.8855690   5.5668210  59.5169770 150.1753930  19.0027530
  60.3182500 150.4965980  19.4162930  59.0021590 149.8149510  19.7247440
  68.3534400 146.2833800  18.9502940  67.7472560 146.3065400  18.2098690
  68.0488510 145.5516840  19.4870190  69.7834770 150.0114090  17.5612350
  70.7356520 149.9272110  17.5112590  69.6362990 150.6755800  18.2346140
  72.6743970 149.3908300   3.0604260  72.3885480 148.9773440   2.2458440
  72.4763520 150.3196010   2.9404780  57.2367580 142.6627390  17.9463580
  57.7406600 142.0834670  18.5179810  56.4975000 142.9467620  18.4839950
  64.2905520 144.0698380  17.4799100  63.5251190 144.6383380  17.3953770
  64.4721480 143.7774590  16.5867330  67.3793930 144.4461610   2.1051860
  66.8304030 144.8930910   2.7494600  68.0013190 143.9410860   2.6289530
  71.4328870 145.8003710  18.0374120  72.1738340 146.1379470  17.5341580
  70.6701550 145.9695770  17.4843890  59.2690660 140.8056980  18.8413650
  59.3096000 140.5070850  19.7498880  60.1236160 141.2064590  18.6821170
  63.0469050 143.4052530   4.0017160  63.4685470 143.2392400   4.8448550
  63.1719890 142.5952760   3.5072300  61.2096470 139.3849080  16.8088140
  60.6792930 138.8940030  16.1811480  61.8784540 139.8133280  16.2746070
  70.1074530 143.8518540  16.5729330  70.5215550 144.0063620  17.4219750
  69.1725530 143.9773760  16.7355110  70.5796700 141.1914700  18.5768480
  71.1617470 140.4367020  18.4888960  70.7558470 141.7222140  17.7999960
  61.6968770 136.3511450  16.8885430  61.6025640 135.7332200  16.1636300
  61.1166160 137.0777740  16.6615340  64.4630210 134.9084690  13.9212820
  64.0147510 134.9308950  13.0758370  63.8295410 134.5103710  14.5183120
  64.8689760 143.8039020  14.5425260  65.2877870 144.6471750  14.3701500
  63.9498390 143.9411060  14.3132040  67.2053660 141.5355200  15.9263100
  67.3249870 140.9396340  16.6657940  68.0647660 141.5724890  15.5064400
  69.5441560 142.0892390  14.5025610  69.0176780 142.6135010  13.8990750
  69.8872900 142.7219780  15.1335340  62.7197180 150.1092030  15.6582990
  62.1818270 150.8338090  15.3391690  62.9731140 149.6322370  14.8680330
  63.9722430 138.0776550  17.1838920  64.5622120 137.7692400  17.8716740
  63.1542670 137.6056300  17.3398820  68.7915860 137.6942360  17.4171940
  68.1031380 137.0323900  17.3521930  69.5121880 137.2480630  17.8620400
  69.4216260 134.2893990   3.4762200  69.7018550 133.4461890   3.8321620
  68.6481990 134.5217100   3.9900950  66.1244720 150.5101750   3.5396000
  67.0195510 150.8486720   3.5614760  66.1562350 149.7881160   2.9120280
  59.7640880 145.8828800   1.7683000  60.2015750 146.4258470   2.4240580
  60.2488610 145.0575750   1.7779340  56.9786680 148.6717830   9.2203260
  57.3089690 147.8038890   8.9881900  57.4077680 148.8776350  10.0508220
  61.5748600 147.0026840   6.8805230  61.2744140 146.8791810   7.7809140
  61.4686090 146.1435430   6.4720960  57.4676890 149.5388420  11.9584890
  57.0307880 149.7189220  12.7909040  58.0354570 150.2963040  11.8166610
  73.1039070 149.0405420  16.2462200  72.5041060 149.0997980  15.5026120
  73.2332970 148.1010400  16.3759050  73.7996980 143.5270720   4.0866110
  74.5615890 144.0967370   4.1925800  73.8151350 142.9597920   4.8574420
  57.3001320 142.0508650   8.3173770  56.6450160 141.7820290   7.6733470
  58.1379270 141.9413130   7.8675750  74.8056950 144.3820820   8.9308040
  75.1765780 143.5988140   8.5244010  75.4458880 145.0709920   8.7525340
  71.7890710 145.7657400  14.3438360  70.9750550 146.1954560  14.6064150
  72.1964910 146.3775810  13.7307410  70.2491760 136.8449940   2.5392260
  70.6676640 136.6580920   1.6988920  69.9427820 135.9928990   2.8495190
  73.7481490 141.7574080   6.2368060  73.3725090 140.9902010   5.8049350
  73.0184610 142.1396780   6.7242990  58.3377250 142.4361220  12.8577110
  58.7050290 142.3488620  13.7373130  57.7688070 141.6727770  12.7583970
  73.1381110 140.9045600  15.8707580  72.9067200 140.6758350  14.9705530
  73.3985660 141.8245150  15.8252470  57.8893250 139.3470310  16.7635530
  56.9949300 139.3137070  17.1029240  58.4290800 139.5457100  17.5286780
  71.5769180 136.1302030  18.6487280  72.4539360 136.1385430  19.0321280
  71.5890020 135.3932870  18.0379630  56.5139400 139.2607580   4.2599100
  55.6103480 139.5237780   4.0850760  56.9980020 139.5318750   3.4799060
  73.0232450 139.9831570   9.5375300  73.5469930 139.4894220   8.9065470
  73.6091870 140.1181930  10.2822870  73.2022170 140.0671440  13.0594850
  72.2524880 140.0334980  13.1739840  73.3835180 140.9771550  12.8244620
  72.5132420 139.2404920   5.4767710  73.0091540 139.0075790   6.2616590
  72.3148490 138.4016760   5.0605350  58.3932960 133.6218640  11.1118750
  59.0409150 133.0716020  10.6713910  58.8134800 133.8761790  11.9334560
  73.9419580 137.8765870   8.0105390  73.8318860 137.7221910   8.9487660
  74.7027170 137.3486810   7.7680800  72.2885300 133.8160000  14.4688390
  72.9257520 134.4294140  14.8347580  72.4360190 133.8520660  13.5237620
  74.9048340 136.4784450   3.8768240  74.1099840 136.4129570   4.4061150
  75.1091620 137.4135090   3.8653590  71.8466760 150.5176000   7.8706630
  72.4425830 150.1960570   7.1941050  72.1044910 150.0447820   8.6619900
  58.1464960 133.7774310  13.8544070  57.7979780 134.2338130  14.6202250
  57.8152660 132.8831440  13.9366500  59.7529330 146.9493910  18.0197260
  59.7098960 146.5786820  18.9011720  59.8840340 147.8871480  18.1599080
  63.4535360 148.5053500  13.6206980  63.2126720 148.7728060  12.7337500
  64.3938000 148.6759230  13.6757840  65.6589780 134.9686190  17.3763490
  65.5978670 135.5608020  18.1258900  66.5990160 134.8612150  17.2313750
  68.2964340 134.6256250  17.0155780  68.9104750 134.9435540  16.3536860
  68.8413900 134.1404840  17.6351640  74.7139520 150.5247880  14.4217620
  74.2197800 150.9216750  13.7044750  74.1052810 149.8997090  14.8154900
  58.8185600 133.3050510  17.1294840  59.3668590 133.1238560  16.3660950
  58.8840910 132.5144620  17.6651150  59.5917360 149.8956160  15.1395040
  58.9977680 149.7640860  15.8785080  59.5841200 149.0594300  14.6737140
  69.0372380 133.1888390  13.3425070  68.1632220 133.5223500  13.1398000
  68.9283130 132.7161570  14.1676940  69.9444360 135.3959260  14.7266790
  69.6157720 134.5811020  14.3468520  70.8926660 135.3529070  14.6032480
  59.2229590 147.2614540  14.0903080  58.4963650 146.6419830  14.0229030
  59.2838740 147.6555150  13.2201160  62.8274690 149.4759540  10.8752490
  63.3439710 148.8646900  10.3500750  63.4772070 149.9788320  11.3663500
  65.5670190 150.3668030  11.7021470  65.8548000 150.1122330  10.8254480
  66.0793410 149.8145390  12.2927040  66.7847200 134.1058230  12.2817980
  66.0018990 134.5803730  12.5614740  66.4910130 133.2013060  12.1731160
  71.3368270 134.8081330  10.3267070  71.7776360 134.7526430   9.4788670
  71.0675860 135.7239340  10.3977250  73.2006840 134.4396570   8.3375890
  73.1395240 133.4957790   8.1906910  73.9798870 134.5476660   8.8829350
  57.5059590 150.5788930   7.2999840  57.3381630 149.9459610   7.9981730
  56.6394100 150.7848330   6.9494030  58.1287610 134.4105710   4.8031700
  58.8866970 134.5234590   4.2295730  57.6664780 135.2474910   4.7575130
  64.6701420 136.5244980   7.7934010  63.8575930 136.1501870   7.4529890
  65.1743060 135.7690060   8.0955200  69.1726400 133.1887430   9.0317080
  69.7755770 133.7607640   9.5065600  68.4319390 133.7526870   8.8090980
  72.3161000 133.5908990   4.3057360  72.5111630 134.4892440   4.5724790
  71.5290870 133.3596070   4.7990310  59.1122290 149.2722160   4.7449980
  58.5869910 149.6530190   4.0411940  59.0366870 149.8972930   5.4659690
  60.5012760 134.9369760   3.3433670  61.0305520 134.1499560   3.2141620
  61.1341080 135.6160950   3.5769200  62.6950600 134.6744900   6.3979060
  62.0653340 133.9732210   6.5649190  62.1555740 135.4349030   6.1812220
  73.8687610 150.8309700   6.0663920  74.0439800 150.1447440   5.4224840
  73.1709180 151.3556750   5.6740590  62.8206160 133.9528880  18.8331550
  62.5390430 134.4562480  18.0692370  63.2025860 133.1550630  18.4673680
  61.7115260 151.2204540   3.6199230  62.4434080 150.9363820   3.0723120
  61.9708930 150.9817820   4.5098610  60.8730050 147.3369270   3.6245560
  60.2438930 147.8054370   4.1731390  60.9877880 146.4918490   4.0591750
  69.4221620 133.3682460  19.4112020  69.3087070 133.6877070  20.3063540
  70.2391360 133.7694970  19.1149300  72.2020110 150.5153990  18.8930710
  72.9945430 150.0203220  18.6856670  72.4953260 151.1944130  19.5006320
  68.3279770 122.6131440 139.9694680  68.2473820 121.6986050 139.6986390
  67.9144190 123.1098510 139.2634390  66.4597810 124.3910460 141.8503950
  65.6839910 123.9110900 142.1402520  67.1110740 123.7116110 141.6760110
  60.4763640 124.7030270 142.7279710  59.6448520 124.4478980 143.1276220
  61.0844620 124.7741040 143.4637630  70.4805240 128.7970650 140.6303080
  70.0186770 128.0257890 140.9590250  71.2930790 128.8236720 141.1355530
  60.4564900 128.7370360 142.9237730  60.7592940 127.8468100 142.7447950
  61.2008490 129.2940580 142.6959980  58.8855590 119.6632160 136.5122100
  57.9972290 120.0048130 136.4101980  59.1696780 119.4632480 135.6202930
  56.8488600 122.2637810 142.3961800  57.4204710 121.4960010 142.3965440
  56.8490140 122.5626570 141.4868410  66.7068550 131.0828660 140.2507070
  66.0879990 131.5386160 139.6801510  67.5620330 131.2380120 139.8496770
  65.9006800 127.0667650 141.8574110  65.8315080 126.1257590 141.6963240
  66.6626660 127.1569060 142.4296680  58.0913470 117.6722170 144.1830730
  57.9116310 116.7747920 144.4633490  57.6893550 118.2194040 144.8577680
  66.9311970 119.8738030 142.0843040  67.3076790 119.0009910 141.9716710
  66.8331480 120.2096730 141.1933480  61.0616980 118.2463660 137.5460480
  61.1683730 119.1467390 137.8529240  60.1509340 118.1981630 137.2555130
  70.7136090 117.3688470 139.0171380  71.5345710 116.8785040 139.0596860
  70.7470170 117.9586130 139.7703220  58.7100140 120.1682670 142.7913070
  59.3910250 120.4321040 143.4100470  58.3948190 119.3283540 143.1251080
  62.9024710 121.2150030 141.8785660  63.4102930 121.7131000 142.5190680
  63.4337950 120.4385230 141.7025020  75.0035640 119.3855220 145.5815010
  74.2987810 119.7736930 145.0630120  75.2693560 120.0805510 146.1835940
  61.1860810 115.8548590 146.1449080  61.1879250 116.3720980 145.3394980
  60.3565120 115.3778770 146.1219010  67.5731900 125.9667900 137.6438980
  66.9549170 126.4317350 137.0801700  68.0855150 126.6595380 138.0608490
  62.4363660 125.4943770 144.3222580  62.1033040 126.1212690 144.9643650
  62.6130340 126.0205650 143.5424250  70.9497570 119.3088850 141.7898920
  70.2453140 119.5973740 142.3702030  71.3109730 120.1188960 141.4298480
  60.8676140 117.5658550 144.1519530  61.2092950 118.4100600 143.8573400
  59.9291950 117.7142290 144.2684870  61.6482760 127.4624570 146.1371760
  62.2656760 128.1375650 145.8556210  60.7875880 127.8712550 146.0459260
  56.9415100 126.6524430 135.0178610  56.5643080 127.1411530 134.2863510
  57.1988170 127.3249710 135.6485140  72.5660350 128.9263980 144.0526400
  71.8823870 129.5963090 144.0443070  73.1054640 129.1244630 143.2871260
  74.0184490 118.7543640 142.1808130  73.0709400 118.7882620 142.3123560
  74.3434480 119.5682590 142.5657490  64.5504030 115.0540820 140.4764120
  64.8579010 114.4987710 139.7599620  63.6204730 115.1885280 140.2937110
  70.1019090 130.7708110 142.7671580  70.1146250 130.3670400 141.8993840
  69.5494310 131.5455400 142.6633010  71.3964510 127.4924330 137.8561750
  71.2860840 126.5498660 137.9811170  71.3932760 127.8539970 138.7424510
  69.5004530 125.6737950 144.0954190  69.9173320 125.4598060 143.2607650
  70.2244350 125.9310740 144.6662810  66.9384790 123.1189650 137.2124240
  66.0114070 123.0527030 137.4412710  67.0909610 124.0569780 137.0979480
  66.9253870 119.3906650 134.2091400  65.9857540 119.5520610 134.2943860
  67.2437130 120.1092330 133.6627390  73.4466630 124.0725170 144.1870430
  72.6185260 124.1418260 143.7120560  74.0417110 124.6579480 143.7186260
  70.9682080 124.6809950 137.7159490  70.3494500 124.3429500 137.0685790
  70.9506530 124.0369710 138.4238680  70.4108640 120.8594490 145.1325300
  69.9979820 121.6848200 145.3865290  69.6784590 120.2739530 144.9401660
  62.5441430 123.6454390 139.9943970  62.1398430 122.9331640 139.4989870
  62.6304550 123.3007630 140.8832010  63.0123130 127.3321950 142.1583180
  62.7151420 126.7267420 141.4790960  63.9622950 127.3699260 142.0472540
  61.2570050 120.4197600 143.7743010  61.8084640 120.5292940 142.9996260
  61.7713560 120.7935200 144.4898240  71.1008740 130.9053820 145.8206280
  70.6239300 131.7126010 145.6278890  70.4170530 130.2532150 145.9732490
  62.1041560 127.0703640 148.8090980  61.2070090 127.2943610 149.0564380
  62.1294430 127.1938580 147.8602380  69.1446780 123.9196760 134.7232240
  69.5840060 123.0819190 134.5770060  69.8575200 124.5526160 134.8096380
  60.9312780 123.9416960 147.3848350  60.7920550 124.8139760 147.7535750
  60.0494140 123.5989770 147.2396290  67.2542160 128.8592830 138.6913480
  67.6938070 129.6017160 138.2768870  67.1929050 129.1019400 139.6152440
  62.7293130 129.8838660 149.5933500  62.7008560 130.2881610 148.7261930
  62.5658100 128.9549020 149.4305100  72.7263920 115.1739570 133.0373280
  72.4136580 115.2666400 133.9372350  73.4876390 115.7520600 132.9870710
  59.2446060 122.5399370 137.4950620  59.1243660 123.2661460 136.8831890
  58.9346950 121.7702280 137.0178530  56.8831430 125.7114510 143.3019260
  56.9611850 125.8463280 142.3574980  57.4973110 125.0030400 143.4947380
  58.1279060 127.4114700 139.7125440  57.7207140 127.5529290 138.8579040
  59.0192070 127.1274860 139.5096650  74.0841200 127.8578610 148.0497680
  74.2104260 127.6190490 147.1314860  74.1262580 127.0263150 148.5219760
  67.9457940 131.5606610 146.6192490  68.4602610 131.4714620 147.4214920
  67.1027020 131.9066310 146.9120400  69.9212340 131.8461950 136.0476490
  69.7613480 131.5564890 136.9458320  69.7559050 131.0702080 135.5121720
  62.4000720 131.6260480 137.8248110  62.2243200 130.7096020 137.6115910
  61.5456460 131.9847770 138.0645910  69.6238470 129.3549510 134.6074490
  68.9303630 129.3526800 133.9476770  70.3661330 128.9308830 134.1768660
  69.1888400 130.9812220 138.6822980  69.6445350 130.2001600 138.9961600
  69.5280920 131.6919040 139.2264160  73.9365210 119.9111070 149.0147420
  73.3209480 120.4190740 148.4862880  73.6161630 119.0109400 148.9573360
  56.9390950 126.7528680 145.8413720  57.1021990 126.2834040 145.0233090
  57.4043400 126.2452240 146.5062560  61.7109720 115.8834440 140.8774290
  61.2677870 116.6643980 140.5458810  62.2694710 116.2064330 141.5845230
  65.9979530 118.7502960 146.4809610  65.5358900 118.9585980 147.2929550
  65.5957640 117.9362310 146.1780280  70.9984040 119.9711910 147.6106270
  70.1477630 119.6717660 147.9315340  70.8385830 120.2153920 146.6990090
  68.0933750 121.4713660 149.7105060  68.4187160 120.6377410 149.3707290
  68.8814080 121.9942180 149.8583390  64.8268540 115.5045140 135.7580120
  64.2022720 115.5005010 136.4833430  64.7398660 114.6376100 135.3616090
  63.7485620 116.4281770 142.7363890  64.0457950 117.3344600 142.6555910
  64.2971180 115.9400550 142.1223460  61.5023940 121.0068010 138.6055540
  61.2764860 120.7905180 139.5102160  60.7216470 121.4396470 138.2601510
  68.7321700 121.0131380 137.2046190  68.1330590 121.7367180 137.0209810
  69.2801310 120.9508160 136.4222640  63.9423150 121.9053590 149.2715810
  63.8466750 120.9648320 149.1216210  64.7855130 122.1268660 148.8763880
  67.3386570 119.6494920 139.2349470  67.7316140 119.9667120 138.4218160
  67.7003420 118.7706800 139.3493990  59.0733690 118.3167260 147.4249590
  58.6797080 119.1642470 147.6322370  58.3852090 117.6793630 147.6158230
  56.3750740 116.2395720 141.4579670  56.0863790 116.8098580 142.1704650
  57.1196500 115.7600170 141.8210900  56.5620970 120.1815840 132.6682390
  56.4795640 121.1246600 132.8097380  56.2104030 120.0390750 131.7894740
  67.9241710 122.2400670 143.3300250  67.1922830 122.7487480 143.6790350
  67.5266050 121.4230650 143.0289030  64.3619100 118.9154870 141.7352740
  64.3655160 118.4744820 140.8857280  65.2570220 119.2372200 141.8424560
  60.2121480 118.7981360 140.6946950  59.8721530 119.2756590 141.4514000
  59.4498800 118.3446480 140.3348050  64.4239250 119.9166950 134.7259500
  64.5452070 119.8753430 135.6745320  64.0387760 120.7791100 134.5706230
  68.3867620 117.6934350 142.7423190  68.4040360 118.1443000 143.5865040
  68.1383200 116.7939990 142.9556630  63.4360750 122.2268090 134.1242800
  62.8677650 121.7786340 133.4978710  64.1449750 122.5860870 133.5907950
  71.8138370 115.1066530 148.5809570  72.1384140 114.3756190 149.1067550
  71.8494880 114.7880170 147.6790560  58.5129930 126.1280110 148.0009530
  58.1284720 125.4873780 148.5992490  58.8242120 126.8316230 148.5704260
  64.6627070 122.9756650 143.4818150  65.0297200 122.5015220 144.2279490
  64.4732130 123.8498220 143.8226490  57.5267560 117.7200340 139.6111620
  57.2414480 117.3556010 140.4490240  57.4646420 116.9880800 138.9974760
  62.4526440 122.0165290 145.8002360  62.1483510 122.8957270 146.0252720
  63.4072900 122.0765080 145.8359800  60.9808230 126.2226280 136.3969210
  60.2070490 125.6823900 136.2367930  61.7102860 125.7032890 136.0586970
  71.7396210 125.2191640 142.1895600  72.4595330 125.7146930 141.7991710
  71.5378030 124.5409530 141.5449470  67.2006150 116.6129600 136.3324990
  66.3870760 116.1142770 136.2570300  67.0068100 117.4527850 135.9161340
  67.1215010 125.2900700 148.0764600  67.0552320 124.3696370 147.8222190
  66.4920150 125.3876140 148.7909240  69.9154540 120.9849250 134.6287150
  70.8034160 121.2966480 134.4538490  69.8859630 120.1121500 134.2367730
  61.0245630 125.8906660 140.0348020  61.5424300 125.0874920 139.9804910
  60.5729650 125.8285800 140.8764850  65.9115130 127.1572940 135.3075320
  66.2530830 127.9015170 134.8118640  65.0827840 127.4704060 135.6700150
  58.5090170 122.8568030 146.9473720  58.1505110 123.5221880 147.5347060
  58.2144730 122.0251580 147.3186340  61.7103290 123.3152270 149.8313270
  61.4103430 123.4609450 148.9341090  62.4814530 122.7557560 149.7386660
  67.0531740 128.1121270 147.8268400  67.0676280 127.1802230 147.6087310
  66.3456840 128.1981030 148.4658170  72.1868810 122.2961090 134.0967010
  72.1032530 122.7275310 133.2463450  72.9063000 122.7559440 134.5293830
  73.2642950 124.7528610 147.1736980  72.5391140 125.3457390 146.9766370
  73.7918410 124.7452150 146.3750350  73.2156060 129.1503350 136.8249140
  72.5732220 128.4958970 137.0992860  72.8286720 129.5558440 136.0489810
  68.7942540 126.4788780 140.6720830  69.1466360 125.8816910 140.0122200
  67.9104870 126.1533010 140.8429080  64.8805820 127.2386470 138.0791240
  65.5676950 127.7855680 138.4598830  64.0938240 127.7827200 138.1140850
  57.0198220 122.8559290 133.5708320  57.8893070 123.1384090 133.8544240
  56.5288540 123.6695160 133.4557130  64.1833030 124.2432500 137.6916600
  64.6395810 125.0537750 137.9176790  63.8321240 123.9255640 138.5235090
  66.4865640 129.7538840 144.9208900  67.1307860 129.9598220 145.5982320
  66.8495080 128.9927240 144.4679750  60.0844810 114.5870150 138.1639120
  59.9559440 114.5788050 139.1124040  59.2606830 114.9253240 137.8130130
  67.7597720 127.7571190 143.6386350  68.4019950 127.0564350 143.7518520
  68.2847070 128.5369630 143.4583240  71.6053440 128.0419810 133.3625490
  71.3791020 127.3250250 133.9550130  71.2149640 127.7932250 132.5247240
  69.5335340 128.5566090 146.8422410  69.8691580 129.1432780 147.5200330
  68.6135680 128.4258800 147.0720200  57.3869470 132.0686670 134.1369950
  57.7467110 132.6676010 133.4827220  57.2461810 132.6146560 134.9104980
  57.0838740 116.3461270 147.6245820  56.3697260 116.5458190 148.2298430
  57.5033780 115.5700840 147.9960620  71.1869690 125.9591750 135.0239650
  70.8991390 126.4204440 135.8117530  71.9821860 125.4989520 135.2923870
  57.3711330 130.3341530 148.6112350  57.4802450 129.3936270 148.4707740
  56.7191890 130.5996280 147.9626080  63.4038090 129.4517870 134.9543620
  63.3948190 130.1847560 134.3388130  62.4836450 129.2049450 135.0470580
  59.0044730 124.6732760 135.6990380  58.3972680 125.4131660 135.7085680
  59.4794080 124.7632120 134.8728580  68.5777520 118.8383580 145.3747270
  68.9458340 118.0178790 145.7026840  67.7175720 118.8985470 145.7902920
  71.9439550 117.7940520 136.1834830  71.3152710 117.8986190 135.4693060
  71.4491470 118.0137300 136.9728710  66.3897690 129.5146110 133.6168810
  66.4909670 129.3110100 132.6870790  65.4899430 129.2604390 133.8216590
  63.9123580 120.0726470 137.5992710  63.2039730 120.5412810 138.0406320
  64.1968060 119.4148480 138.2337900  65.5379510 121.4923170 145.5985240
  66.0364760 121.9668990 146.2637090  65.6802460 120.5686690 145.8055270
  67.9439010 116.7977130 139.0388500  67.8206790 116.8163260 138.0898010
  68.8923570 116.8456070 139.1586900  65.0315800 132.0332430 138.3116480
  65.2857300 131.9953820 137.3895850  64.0828280 131.9065760 138.3044730
  62.1158600 118.3811550 134.9743420  62.9649130 118.8181700 134.9083610
  61.7489870 118.6931810 135.8015480  72.7446370 117.7091130 146.4413630
  72.2419970 118.4496530 146.7807440  73.5603030 118.0975130 146.1250420
  71.0368380 122.9524310 139.8874990  70.0958520 122.9674540 140.0622680
  71.3512450 122.1660270 140.3335290  61.0150020 124.6343910 133.4478950
  61.7813290 124.5225270 134.0104380  61.0924710 123.9381880 132.7955720
  59.7096780 122.0668980 134.1311840  59.7900370 121.1196490 134.2429240
  60.6016530 122.3975860 134.2372500  73.0393960 130.1233160 141.5629250
  73.1641380 130.9464330 142.0353060  73.9059520 129.9123890 141.2153400
  60.5111490 132.2164370 141.2346380  61.2473970 131.6679830 141.5054950
  60.8952410 133.0820380 141.0952370  57.3956970 128.2837940 137.1087890
  56.4696750 128.5259080 137.0993300  57.8613400 129.1112200 136.9872640
  63.6213800 131.3894680 133.0571950  64.4142410 131.6783510 132.6053740
  63.1018150 130.9586850 132.3784430  69.7834770 131.2370600 148.9816780
  70.7356520 131.1528620 148.9317020  69.6362990 131.9012310 149.6550570
  72.6743970 130.6164810 134.4808690  72.3885480 130.2029950 133.6662870
  72.4763520 131.5452520 134.3609210  57.2367580 123.8883900 149.3668010
  57.7406600 123.3091180 149.9384240  56.4975000 124.1724130 149.9044380
  64.1391200 126.6098090 132.9214300  64.0341840 125.9950440 133.6475680
  63.9715420 126.0863980 132.1377310  64.2905520 125.2954890 148.9003530
  63.5251190 125.8639890 148.8158200  64.4721480 125.0031100 148.0071760
  67.3793930 125.6718120 133.5256290  66.8304030 126.1187420 134.1699030
  68.0013190 125.1667370 134.0493960  71.4328870 127.0260220 149.4578550
  72.1738340 127.3635980 148.9546010  70.6701550 127.1952280 148.9048320
  63.0469050 124.6309040 135.4221590  63.4685470 124.4648910 136.2652980
  63.1719890 123.8209270 134.9276730  61.2096470 120.6105590 148.2292570
  60.6792930 120.1196540 147.6015910  61.8784540 121.0389790 147.6950500
  65.5596690 123.6546650 132.6698690  66.0802350 122.9395670 132.3039840
  66.2065090 124.2932520 132.9699200  70.1074530 125.0775050 147.9933760
  70.5215550 125.2320130 148.8424180  69.1725530 125.2030270 148.1559540
  70.5796700 122.4171210 149.9972910  71.1617470 121.6623530 149.9093390
  70.7558470 122.9478650 149.2204390  61.6968770 117.5767960 148.3089860
  61.6025640 116.9588710 147.5840730  61.1166160 118.3034250 148.0819770
  64.4630210 116.1341200 145.3417250  64.0147510 116.1565460 144.4962800
  63.8295410 115.7360220 145.9387550  64.8689760 125.0295530 145.9629690
  65.2877870 125.8728260 145.7905930  63.9498390 125.1667570 145.7336470
  67.2053660 122.7611710 147.3467530  67.3249870 122.1652850 148.0862370
  68.0647660 122.7981400 146.9268830  69.5441560 123.3148900 145.9230040
  69.0176780 123.8391520 145.3195180  69.8872900 123.9476290 146.5539770
  61.9427950 120.7042270 132.3679750  61.7417010 119.8409630 132.7293090
  61.7720000 120.6175630 131.4301350  62.7197180 131.3348540 147.0787420
  62.1818270 132.0594600 146.7596120  62.9731140 130.8578880 146.2884760
  63.9722430 119.3033060 148.6043350  64.5622120 118.9948910 149.2921170
  63.1542670 118.8312810 148.7603250  68.7915860 118.9198870 148.8376370
  68.1031380 118.2580410 148.7726360  69.5121880 118.4737140 149.2824830
  69.4216260 115.5150500 134.8966630  69.7018550 114.6718400 135.2526050
  68.6481990 115.7473610 135.4105380  60.7410750 117.8042890 132.3557630
  61.0436650 117.8110320 131.4476780  61.4805340 117.4540750 132.8525290
  65.5759390 132.5699750 147.3374070  65.5018090 133.4734890 147.6446440
  64.6738230 132.2511650 147.3096140  63.9595680 116.7477510 133.3413830
  63.6117680 116.0701500 132.7616280  64.1608450 116.2867020 134.1557220
  66.1244720 131.7358260 134.9600430  67.0195510 132.0743230 134.9819190
  66.1562350 131.0137670 134.3324710  59.7640880 127.1085310 133.1887430
  60.2015750 127.6514980 133.8445010  60.2488610 126.2832260 133.1983770
  56.9786680 129.8974340 140.6407690  57.3089690 129.0295400 140.4086330
  57.4077680 130.1032860 141.4712650  61.5748600 128.2283350 138.3009660
  61.2744140 128.1048320 139.2013570  61.4686090 127.3691940 137.8925390
  57.4676890 130.7644930 143.3789320  57.0307880 130.9445730 144.2113470
  58.0354570 131.5219550 143.2371040  73.1039070 130.2661930 147.6666630
  72.5041060 130.3254490 146.9230550  73.2332970 129.3266910 147.7963480
  74.3440520 128.0079750 133.0036340  73.5133480 128.0756400 133.4743570
  74.5212350 128.8983870 132.7003200  73.7996980 124.7527230 135.5070540
  74.5615890 125.3223880 135.6130230  73.8151350 124.1854430 136.2778850
  57.3001320 123.2765160 139.7378200  56.6450160 123.0076800 139.0937900
  58.1379270 123.1669640 139.2880180  74.8056950 125.6077330 140.3512470
  75.1765780 124.8244650 139.9448440  75.4458880 126.2966430 140.1729770
  71.7890710 126.9913910 145.7642790  70.9750550 127.4211070 146.0268580
  72.1964910 127.6032320 145.1511840  73.8516150 125.0461600 132.6643060
  74.1264990 125.9540480 132.5362280  73.6626890 124.9824130 133.6005050
  70.2491760 118.0706450 133.9596690  70.6676640 117.8837430 133.1193350
  69.9427820 117.2185500 134.2699620  73.7481490 122.9830590 137.6572490
  73.3725090 122.2158520 137.2253780  73.0184610 123.3653290 138.1447420
  58.3377250 123.6617730 144.2781540  58.7050290 123.5745130 145.1577560
  57.7688070 122.8984280 144.1788400  73.1381110 122.1302110 147.2912010
  72.9067200 121.9014860 146.3909960  73.3985660 123.0501660 147.2456900
  57.8893250 120.5726820 148.1839960  56.9949300 120.5393580 148.5233670
  58.4290800 120.7713610 148.9491210  56.5139400 120.4864090 135.6803530
  55.6103480 120.7494290 135.5055190  56.9980020 120.7575260 134.9003490
  73.0232450 121.2088080 140.9579730  73.5469930 120.7150730 140.3269900
  73.6091870 121.3438440 141.7027300  73.2022170 121.2927950 144.4799280
  72.2524880 121.2591490 144.5944270  73.3835180 122.2028060 144.2449050
  59.0566610 119.5429630 133.5897910  59.7658310 119.1212850 133.1045190
  58.3406550 119.6104860 132.9581260  58.7040770 115.5968960 132.6300560
  59.4268900 116.1377900 132.9481780  58.9765290 115.3232380 131.7542100
  72.5132420 120.4661430 136.8972140  73.0091540 120.2332300 137.6821020
  72.3148490 119.6273270 136.4809780  58.3932960 114.8475150 142.5323180
  59.0409150 114.2972530 142.0918340  58.8134800 115.1018300 143.3538990
  73.9419580 119.1022380 139.4309820  73.8318860 118.9478420 140.3692090
  74.7027170 118.5743320 139.1885230  72.2885300 115.0416510 145.8892820
  72.9257520 115.6550650 146.2552010  72.4360190 115.0777170 144.9442050
  74.8309850 116.9330300 132.6715960  75.7559160 116.8011480 132.4634250
  74.8085640 117.0123120 133.6252410  74.9048340 117.7040960 135.2972670
  74.1099840 117.6386080 135.8265580  75.1091620 118.6391600 135.2858020
  71.8466760 131.7432510 139.2911060  72.4425830 131.4217080 138.6145480
  72.1044910 131.2704330 140.0824330  58.1464960 115.0030820 145.2748500
  57.7979780 115.4594640 146.0406680  57.8152660 114.1087950 145.3570930
  63.4535360 129.7310010 145.0411410  63.2126720 129.9984570 144.1541930
  64.3938000 129.9015740 145.0962270  65.6589780 116.1942700 148.7967920
  65.5978670 116.7864530 149.5463330  66.5990160 116.0868660 148.6518180
  68.2964340 115.8512760 148.4360210  68.9104750 116.1692050 147.7741290
  68.8413900 115.3661350 149.0556070  74.7139520 131.7504390 145.8422050
  74.2197800 132.1473260 145.1249180  74.1052810 131.1253600 146.2359330
  58.8185600 114.5307020 148.5499270  59.3668590 114.3495070 147.7865380
  58.8840910 113.7401130 149.0855580  59.5917360 131.1212670 146.5599470
  58.9977680 130.9897370 147.2989510  59.5841200 130.2850810 146.0941570
  69.0372380 114.4144900 144.7629500  68.1632220 114.7480010 144.5602430
  68.9283130 113.9418080 145.5881370  69.9444360 116.6215770 146.1471220
  69.6157720 115.8067530 145.7672950  70.8926660 116.5785580 146.0236910
  72.3978970 132.3927810 143.1208790  71.9381940 133.1443620 142.7466810
  71.7691430 131.6734280 143.0623590  59.2229590 128.4871050 145.5107510
  58.4963650 127.8676340 145.4433460  59.2838740 128.8811660 144.6405590
  62.8274690 130.7016050 142.2956920  63.3439710 130.0903410 141.7705180
  63.4772070 131.2044830 142.7867930  65.5670190 131.5924540 143.1225900
  65.8548000 131.3378840 142.2458910  66.0793410 131.0401900 143.7131470
  66.7847200 115.3314740 143.7022410  66.0018990 115.8060240 143.9819170
  66.4910130 114.4269570 143.5935590  71.3368270 116.0337840 141.7471500
  71.7776360 115.9782940 140.8993100  71.0675860 116.9495850 141.8181680
  73.2006840 115.6653080 139.7580320  73.1395240 114.7214300 139.6111340
  73.9798870 115.7733170 140.3033780  57.5059590 131.8045440 138.7204270
  57.3381630 131.1716120 139.4186160  56.6394100 132.0104840 138.3698460
  58.1287610 115.6362220 136.2236130  58.8866970 115.7491100 135.6500160
  57.6664780 116.4731420 136.1779560  64.6701420 117.7501490 139.2138440
  63.8575930 117.3758380 138.8734320  65.1743060 116.9946570 139.5159630
  69.1726400 114.4143940 140.4521510  69.7755770 114.9864150 140.9270030
  68.4319390 114.9783380 140.2295410  72.3161000 114.8165500 135.7261790
  72.5111630 115.7148950 135.9929220  71.5290870 114.5852580 136.2194740
  59.1122290 130.4978670 136.1654410  58.5869910 130.8786700 135.4616370
  59.0366870 131.1229440 136.8864120  60.5012760 116.1626270 134.7638100
  61.0305520 115.3756070 134.6346050  61.1341080 116.8417460 134.9973630
  62.6950600 115.9001410 137.8183490  62.0653340 115.1988720 137.9853620
  62.1555740 116.6605540 137.6016650  73.8687610 132.0566210 137.4868350
  74.0439800 131.3703950 136.8429270  73.1709180 132.5813260 137.0945020
  61.7115260 132.4461050 135.0403660  62.4434080 132.1620330 134.4927550
  61.9708930 132.2074330 135.9303040  60.8730050 128.5625780 135.0449990
  60.2438930 129.0310880 135.5935820  60.9877880 127.7175000 135.4796180
  68.3279770 122.6131440 121.1951190  68.2473820 121.6986050 120.9242900
  67.9144190 123.1098510 120.4890900  66.4597810 124.3910460 123.0760460
  65.6839910 123.9110900 123.3659030  67.1110740 123.7116110 122.9016620
  60.4763640 124.7030270 123.9536220  59.6448520 124.4478980 124.3532730
  61.0844620 124.7741040 124.6894140  70.4805240 128.7970650 121.8559590
  70.0186770 128.0257890 122.1846760  71.2930790 128.8236720 122.3612040
  60.4564900 128.7370360 124.1494240  60.7592940 127.8468100 123.9704460
  61.2008490 129.2940580 123.9216490  56.8488600 122.2637810 123.6218310
  57.4204710 121.4960010 123.6221950  56.8490140 122.5626570 122.7124920
  66.7068550 131.0828660 121.4763580  66.0879990 131.5386160 120.9058020
  67.5620330 131.2380120 121.0753280  65.9006800 127.0667650 123.0830620
  65.8315080 126.1257590 122.9219750  66.6626660 127.1569060 123.6553190
  58.0913470 117.6722170 125.4087240  57.9116310 116.7747920 125.6890000
  57.6893550 118.2194040 126.0834190  66.9311970 119.8738030 123.3099550
  67.3076790 119.0009910 123.1973220  66.8331480 120.2096730 122.4189990
  61.0616980 118.2463660 118.7716990  61.1683730 119.1467390 119.0785750
  60.1509340 118.1981630 118.4811640  70.7136090 117.3688470 120.2427890
  71.5345710 116.8785040 120.2853370  70.7470170 117.9586130 120.9959730
  58.7100140 120.1682670 124.0169580  59.3910250 120.4321040 124.6356980
  58.3948190 119.3283540 124.3507590  62.9024710 121.2150030 123.1042170
  63.4102930 121.7131000 123.7447190  63.4337950 120.4385230 122.9281530
  75.0035640 119.3855220 126.8071520  74.2987810 119.7736930 126.2886630
  75.2693560 120.0805510 127.4092450  61.1860810 115.8548590 127.3705590
  61.1879250 116.3720980 126.5651490  60.3565120 115.3778770 127.3475520
  67.5731900 125.9667900 118.8695490  66.9549170 126.4317350 118.3058210
  68.0855150 126.6595380 119.2865000  62.4363660 125.4943770 125.5479090
  62.1033040 126.1212690 126.1900160  62.6130340 126.0205650 124.7680760
  70.9497570 119.3088850 123.0155430  70.2453140 119.5973740 123.5958540
  71.3109730 120.1188960 122.6554990  60.8676140 117.5658550 125.3776040
  61.2092950 118.4100600 125.0829910  59.9291950 117.7142290 125.4941380
  61.6482760 127.4624570 127.3628270  62.2656760 128.1375650 127.0812720
  60.7875880 127.8712550 127.2715770  56.9415100 126.6524430 116.2435120
  56.5643080 127.1411530 115.5120020  57.1988170 127.3249710 116.8741650
  72.5660350 128.9263980 125.2782910  71.8823870 129.5963090 125.2699580
  73.1054640 129.1244630 124.5127770  74.0184490 118.7543640 123.4064640
  73.0709400 118.7882620 123.5380070  74.3434480 119.5682590 123.7914000
  70.1019090 130.7708110 123.9928090  70.1146250 130.3670400 123.1250350
  69.5494310 131.5455400 123.8889520  71.3964510 127.4924330 119.0818260
  71.2860840 126.5498660 119.2067680  71.3932760 127.8539970 119.9681020
  69.5004530 125.6737950 125.3210700  69.9173320 125.4598060 124.4864160
  70.2244350 125.9310740 125.8919320  66.9384790 123.1189650 118.4380750
  66.0114070 123.0527030 118.6669220  67.0909610 124.0569780 118.3235990
  66.9253870 119.3906650 115.4347910  65.9857540 119.5520610 115.5200370
  67.2437130 120.1092330 114.8883900  73.4466630 124.0725170 125.4126940
  72.6185260 124.1418260 124.9377070  74.0417110 124.6579480 124.9442770
  70.9682080 124.6809950 118.9416000  70.3494500 124.3429500 118.2942300
  70.9506530 124.0369710 119.6495190  70.4108640 120.8594490 126.3581810
  69.9979820 121.6848200 126.6121800  69.6784590 120.2739530 126.1658170
  62.5441430 123.6454390 121.2200480  62.1398430 122.9331640 120.7246380
  62.6304550 123.3007630 122.1088520  63.0123130 127.3321950 123.3839690
  62.7151420 126.7267420 122.7047470  63.9622950 127.3699260 123.2729050
  61.2570050 120.4197600 124.9999520  61.8084640 120.5292940 124.2252770
  61.7713560 120.7935200 125.7154750  71.1008740 130.9053820 127.0462790
  70.6239300 131.7126010 126.8535400  70.4170530 130.2532150 127.1989000
  62.1041560 127.0703640 130.0347490  61.2070090 127.2943610 130.2820890
  62.1294430 127.1938580 129.0858890  60.9312780 123.9416960 128.6104860
  60.7920550 124.8139760 128.9792260  60.0494140 123.5989770 128.4652800
  67.2542160 128.8592830 119.9169990  67.6938070 129.6017160 119.5025380
  67.1929050 129.1019400 120.8408950  62.7293130 129.8838660 130.8190010
  62.7008560 130.2881610 129.9518440  62.5658100 128.9549020 130.6561610
  59.2446060 122.5399370 118.7207130  59.1243660 123.2661460 118.1088400
  58.9346950 121.7702280 118.2435040  74.6807950 130.6665760 132.1154180
  75.1567670 131.1448650 132.7943260  75.3015110 130.5983250 131.3899680
  56.8831430 125.7114510 124.5275770  56.9611850 125.8463280 123.5831490
  57.4973110 125.0030400 124.7203890  58.1279060 127.4114700 120.9381950
  57.7207140 127.5529290 120.0835550  59.0192070 127.1274860 120.7353160
  74.0841200 127.8578610 129.2754190  74.2104260 127.6190490 128.3571370
  74.1262580 127.0263150 129.7476270  67.9457940 131.5606610 127.8449000
  68.4602610 131.4714620 128.6471430  67.1027020 131.9066310 128.1376910
  69.9212340 131.8461950 117.2733000  69.7613480 131.5564890 118.1714830
  69.7559050 131.0702080 116.7378230  62.4000720 131.6260480 119.0504620
  62.2243200 130.7096020 118.8372420  61.5456460 131.9847770 119.2902420
  69.6238470 129.3549510 115.8331000  68.9303630 129.3526800 115.1733280
  70.3661330 128.9308830 115.4025170  69.1888400 130.9812220 119.9079490
  69.6445350 130.2001600 120.2218110  69.5280920 131.6919040 120.4520670
  73.9365210 119.9111070 130.2403930  73.3209480 120.4190740 129.7119390
  73.6161630 119.0109400 130.1829870  56.9390950 126.7528680 127.0670230
  57.1021990 126.2834040 126.2489600  57.4043400 126.2452240 127.7319070
  61.7109720 115.8834440 122.1030800  61.2677870 116.6643980 121.7715320
  62.2694710 116.2064330 122.8101740  65.9979530 118.7502960 127.7066120
  65.5358900 118.9585980 128.5186060  65.5957640 117.9362310 127.4036790
  70.9984040 119.9711910 128.8362780  70.1477630 119.6717660 129.1571850
  70.8385830 120.2153920 127.9246600  68.0933750 121.4713660 130.9361570
  68.4187160 120.6377410 130.5963800  68.8814080 121.9942180 131.0839900
  64.8268540 115.5045140 116.9836630  64.2022720 115.5005010 117.7089940
  64.7398660 114.6376100 116.5872600  63.7485620 116.4281770 123.9620400
  64.0457950 117.3344600 123.8812420  64.2971180 115.9400550 123.3479970
  61.5023940 121.0068010 119.8312050  61.2764860 120.7905180 120.7358670
  60.7216470 121.4396470 119.4858020  68.7321700 121.0131380 118.4302700
  68.1330590 121.7367180 118.2466320  69.2801310 120.9508160 117.6479150
  63.9423150 121.9053590 130.4972320  63.8466750 120.9648320 130.3472720
  64.7855130 122.1268660 130.1020390  67.3386570 119.6494920 120.4605980
  67.7316140 119.9667120 119.6474670  67.7003420 118.7706800 120.5750500
  59.0733690 118.3167260 128.6506100  58.6797080 119.1642470 128.8578880
  58.3852090 117.6793630 128.8414740  65.6478740 118.4002230 131.7202840
  64.9577060 118.2074430 132.3548930  66.3911040 118.6836870 132.2527140
  56.3750740 116.2395720 122.6836180  56.0863790 116.8098580 123.3961160
  57.1196500 115.7600170 123.0467410  67.9241710 122.2400670 124.5556760
  67.1922830 122.7487480 124.9046860  67.5266050 121.4230650 124.2545540
  64.3619100 118.9154870 122.9609250  64.3655160 118.4744820 122.1113790
  65.2570220 119.2372200 123.0681070  60.2121480 118.7981360 121.9203460
  59.8721530 119.2756590 122.6770510  59.4498800 118.3446480 121.5604560
  64.4239250 119.9166950 115.9516010  64.5452070 119.8753430 116.9001830
  64.0387760 120.7791100 115.7962740  68.3867620 117.6934350 123.9679700
  68.4040360 118.1443000 124.8121550  68.1383200 116.7939990 124.1813140
  71.8138370 115.1066530 129.8066080  72.1384140 114.3756190 130.3324060
  71.8494880 114.7880170 128.9047070  58.5129930 126.1280110 129.2266040
  58.1284720 125.4873780 129.8249000  58.8242120 126.8316230 129.7960770
  64.6627070 122.9756650 124.7074660  65.0297200 122.5015220 125.4536000
  64.4732130 123.8498220 125.0483000  62.4526440 122.0165290 127.0258870
  62.1483510 122.8957270 127.2509230  63.4072900 122.0765080 127.0616310
  60.9808230 126.2226280 117.6225720  60.2070490 125.6823900 117.4624440
  61.7102860 125.7032890 117.2843480  71.7396210 125.2191640 123.4152110
  72.4595330 125.7146930 123.0248220  71.5378030 124.5409530 122.7705980
  67.2006150 116.6129600 117.5581500  66.3870760 116.1142770 117.4826810
  67.0068100 117.4527850 117.1417850  67.1215010 125.2900700 129.3021110
  67.0552320 124.3696370 129.0478700  66.4920150 125.3876140 130.0165750
  69.9154540 120.9849250 115.8543660  70.8034160 121.2966480 115.6795000
  69.8859630 120.1121500 115.4624240  61.0245630 125.8906660 121.2604530
  61.5424300 125.0874920 121.2061420  60.5729650 125.8285800 122.1021360
  65.9115130 127.1572940 116.5331830  66.2530830 127.9015170 116.0375150
  65.0827840 127.4704060 116.8956660  58.5090170 122.8568030 128.1730230
  58.1505110 123.5221880 128.7603570  58.2144730 122.0251580 128.5442850
  61.7103290 123.3152270 131.0569780  61.4103430 123.4609450 130.1597600
  62.4814530 122.7557560 130.9643170  67.0531740 128.1121270 129.0524910
  67.0676280 127.1802230 128.8343820  66.3456840 128.1981030 129.6914680
  72.1868810 122.2961090 115.3223520  72.1032530 122.7275310 114.4719960
  72.9063000 122.7559440 115.7550340  73.2642950 124.7528610 128.3993490
  72.5391140 125.3457390 128.2022880  73.7918410 124.7452150 127.6006860
  73.2156060 129.1503350 118.0505650  72.5732220 128.4958970 118.3249370
  72.8286720 129.5558440 117.2746320  68.7942540 126.4788780 121.8977340
  69.1466360 125.8816910 121.2378710  67.9104870 126.1533010 122.0685590
  64.8805820 127.2386470 119.3047750  65.5676950 127.7855680 119.6855340
  64.0938240 127.7827200 119.3397360  57.0198220 122.8559290 114.7964830
  57.8893070 123.1384090 115.0800750  56.5288540 123.6695160 114.6813640
  64.1833030 124.2432500 118.9173110  64.6395810 125.0537750 119.1433300
  63.8321240 123.9255640 119.7491600  66.4865640 129.7538840 126.1465410
  67.1307860 129.9598220 126.8238830  66.8495080 128.9927240 125.6936260
  60.0844810 114.5870150 119.3895630  59.9559440 114.5788050 120.3380550
  59.2606830 114.9253240 119.0386640  67.7597720 127.7571190 124.8642860
  68.4019950 127.0564350 124.9775030  68.2847070 128.5369630 124.6839750
  71.6053440 128.0419810 114.5882000  71.3791020 127.3250250 115.1806640
  71.2149640 127.7932250 113.7503750  69.5335340 128.5566090 128.0678920
  69.8691580 129.1432780 128.7456840  68.6135680 128.4258800 128.2976710
  57.3869470 132.0686670 115.3626460  57.7467110 132.6676010 114.7083730
  57.2461810 132.6146560 116.1361490  57.0838740 116.3461270 128.8502330
  56.3697260 116.5458190 129.4554940  57.5033780 115.5700840 129.2217130
  71.1869690 125.9591750 116.2496160  70.8991390 126.4204440 117.0374040
  71.9821860 125.4989520 116.5180380  57.3711330 130.3341530 129.8368860
  57.4802450 129.3936270 129.6964250  56.7191890 130.5996280 129.1882590
  65.3623920 128.6057420 131.2366980  65.0420790 127.8866660 131.7812670
  64.6882280 129.2812490 131.3103040  63.4038090 129.4517870 116.1800130
  63.3948190 130.1847560 115.5644640  62.4836450 129.2049450 116.2727090
  59.0044730 124.6732760 116.9246890  58.3972680 125.4131660 116.9342190
  59.4794080 124.7632120 116.0985090  68.5777520 118.8383580 126.6003780
  68.9458340 118.0178790 126.9283350  67.7175720 118.8985470 127.0159430
  71.9439550 117.7940520 117.4091340  71.3152710 117.8986190 116.6949570
  71.4491470 118.0137300 118.1985220  66.3897690 129.5146110 114.8425320
  66.4909670 129.3110100 113.9127300  65.4899430 129.2604390 115.0473100
  63.9123580 120.0726470 118.8249220  63.2039730 120.5412810 119.2662830
  64.1968060 119.4148480 119.4594410  65.5379510 121.4923170 126.8241750
  66.0364760 121.9668990 127.4893600  65.6802460 120.5686690 127.0311780
  65.0315800 132.0332430 119.5372990  65.2857300 131.9953820 118.6152360
  64.0828280 131.9065760 119.5301240  62.1158600 118.3811550 116.1999930
  62.9649130 118.8181700 116.1340120  61.7489870 118.6931810 117.0271990
  72.7446370 117.7091130 127.6670140  72.2419970 118.4496530 128.0063950
  73.5603030 118.0975130 127.3506930  71.0368380 122.9524310 121.1131500
  70.0958520 122.9674540 121.2879190  71.3512450 122.1660270 121.5591800
  61.0150020 124.6343910 114.6735460  61.7813290 124.5225270 115.2360890
  61.0924710 123.9381880 114.0212230  59.7096780 122.0668980 115.3568350
  59.7900370 121.1196490 115.4685750  60.6016530 122.3975860 115.4629010
  73.0393960 130.1233160 122.7885760  73.1641380 130.9464330 123.2609570
  73.9059520 129.9123890 122.4409910  60.5111490 132.2164370 122.4602890
  61.2473970 131.6679830 122.7311460  60.8952410 133.0820380 122.3208880
  57.3956970 128.2837940 118.3344400  56.4696750 128.5259080 118.3249810
  57.8613400 129.1112200 118.2129150  59.5169770 131.4010440 131.6488470
  60.3182500 131.7222490 132.0623870  59.0021590 131.0406020 132.3708380
  63.6213800 131.3894680 114.2828460  64.4142410 131.6783510 113.8310250
  63.1018150 130.9586850 113.6040940  68.3534400 127.5090310 131.5963880
  67.7472560 127.5321910 130.8559630  68.0488510 126.7773350 132.1331130
  69.7834770 131.2370600 130.2073290  70.7356520 131.1528620 130.1573530
  69.6362990 131.9012310 130.8807080  72.6743970 130.6164810 115.7065200
  72.3885480 130.2029950 114.8919380  72.4763520 131.5452520 115.5865720
  57.2367580 123.8883900 130.5924520  57.7406600 123.3091180 131.1640750
  56.4975000 124.1724130 131.1300890  64.2905520 125.2954890 130.1260040
  63.5251190 125.8639890 130.0414710  64.4721480 125.0031100 129.2328270
  71.4328870 127.0260220 130.6835060  72.1738340 127.3635980 130.1802520
  70.6701550 127.1952280 130.1304830  59.2690660 122.0313490 131.4874590
  59.3096000 121.7327360 132.3959820  60.1236160 122.4321100 131.3282110
  61.2096470 120.6105590 129.4549080  60.6792930 120.1196540 128.8272420
  61.8784540 121.0389790 128.9207010  70.1074530 125.0775050 129.2190270
  70.5215550 125.2320130 130.0680690  69.1725530 125.2030270 129.3816050
  70.5796700 122.4171210 131.2229420  71.1617470 121.6623530 131.1349900
  70.7558470 122.9478650 130.4460900  61.6968770 117.5767960 129.5346370
  61.6025640 116.9588710 128.8097240  61.1166160 118.3034250 129.3076280
  64.4630210 116.1341200 126.5673760  64.0147510 116.1565460 125.7219310
  63.8295410 115.7360220 127.1644060  64.8689760 125.0295530 127.1886200
  65.2877870 125.8728260 127.0162440  63.9498390 125.1667570 126.9592980
  67.2053660 122.7611710 128.5724040  67.3249870 122.1652850 129.3118880
  68.0647660 122.7981400 128.1525340  69.5441560 123.3148900 127.1486550
  69.0176780 123.8391520 126.5451690  69.8872900 123.9476290 127.7796280
  61.9427950 120.7042270 113.5936260  61.7417010 119.8409630 113.9549600
  61.7720000 120.6175630 112.6557860  62.7197180 131.3348540 128.3043930
  62.1818270 132.0594600 127.9852630  62.9731140 130.8578880 127.5141270
  63.9722430 119.3033060 129.8299860  64.5622120 118.9948910 130.5177680
  63.1542670 118.8312810 129.9859760  68.7915860 118.9198870 130.0632880
  68.1031380 118.2580410 129.9982870  69.5121880 118.4737140 130.5081340
  69.4216260 115.5150500 116.1223140  69.7018550 114.6718400 116.4782560
  68.6481990 115.7473610 116.6361890  60.7410750 117.8042890 113.5814140
  61.0436650 117.8110320 112.6733290  61.4805340 117.4540750 114.0781800
  65.5759390 132.5699750 128.5630580  65.5018090 133.4734890 128.8702950
  64.6738230 132.2511650 128.5352650  63.9595680 116.7477510 114.5670340
  63.6117680 116.0701500 113.9872790  64.1608450 116.2867020 115.3813730
  66.1244720 131.7358260 116.1856940  67.0195510 132.0743230 116.2075700
  66.1562350 131.0137670 115.5581220  59.7640880 127.1085310 114.4143940
  60.2015750 127.6514980 115.0701520  60.2488610 126.2832260 114.4240280
  56.9786680 129.8974340 121.8664200  57.3089690 129.0295400 121.6342840
  57.4077680 130.1032860 122.6969160  61.5748600 128.2283350 119.5266170
  61.2744140 128.1048320 120.4270080  61.4686090 127.3691940 119.1181900
  57.4676890 130.7644930 124.6045830  57.0307880 130.9445730 125.4369980
  58.0354570 131.5219550 124.4627550  73.1039070 130.2661930 128.8923140
  72.5041060 130.3254490 128.1487060  73.2332970 129.3266910 129.0219990
  74.3440520 128.0079750 114.2292850  73.5133480 128.0756400 114.7000080
  74.5212350 128.8983870 113.9259710  73.7996980 124.7527230 116.7327050
  74.5615890 125.3223880 116.8386740  73.8151350 124.1854430 117.5035360
  57.3001320 123.2765160 120.9634710  56.6450160 123.0076800 120.3194410
  58.1379270 123.1669640 120.5136690  74.8056950 125.6077330 121.5768980
  75.1765780 124.8244650 121.1704950  75.4458880 126.2966430 121.3986280
  71.7890710 126.9913910 126.9899300  70.9750550 127.4211070 127.2525090
  72.1964910 127.6032320 126.3768350  73.8516150 125.0461600 113.8899570
  74.1264990 125.9540480 113.7618790  73.6626890 124.9824130 114.8261560
  70.2491760 118.0706450 115.1853200  70.6676640 117.8837430 114.3449860
  69.9427820 117.2185500 115.4956130  73.7481490 122.9830590 118.8829000
  73.3725090 122.2158520 118.4510290  73.0184610 123.3653290 119.3703930
  58.3377250 123.6617730 125.5038050  58.7050290 123.5745130 126.3834070
  57.7688070 122.8984280 125.4044910  73.1381110 122.1302110 128.5168520
  72.9067200 121.9014860 127.6166470  73.3985660 123.0501660 128.4713410
  57.8893250 120.5726820 129.4096470  56.9949300 120.5393580 129.7490180
  58.4290800 120.7713610 130.1747720  71.5769180 117.3558540 131.2948220
  72.4539360 117.3641940 131.6782220  71.5890020 116.6189380 130.6840570
  73.0232450 121.2088080 122.1836240  73.5469930 120.7150730 121.5526410
  73.6091870 121.3438440 122.9283810  73.2022170 121.2927950 125.7055790
  72.2524880 121.2591490 125.8200780  73.3835180 122.2028060 125.4705560
  59.0566610 119.5429630 114.8154420  59.7658310 119.1212850 114.3301700
  58.3406550 119.6104860 114.1837770  58.7040770 115.5968960 113.8557070
  59.4268900 116.1377900 114.1738290  58.9765290 115.3232380 112.9798610
  72.5132420 120.4661430 118.1228650  73.0091540 120.2332300 118.9077530
  72.3148490 119.6273270 117.7066290  58.3932960 114.8475150 123.7579690
  59.0409150 114.2972530 123.3174850  58.8134800 115.1018300 124.5795500
  73.9419580 119.1022380 120.6566330  73.8318860 118.9478420 121.5948600
  74.7027170 118.5743320 120.4141740  72.2885300 115.0416510 127.1149330
  72.9257520 115.6550650 127.4808520  72.4360190 115.0777170 126.1698560
  74.9048340 117.7040960 116.5229180  74.1099840 117.6386080 117.0522090
  75.1091620 118.6391600 116.5114530  71.8466760 131.7432510 120.5167570
  72.4425830 131.4217080 119.8401990  72.1044910 131.2704330 121.3080840
  58.1464960 115.0030820 126.5005010  57.7979780 115.4594640 127.2663190
  57.8152660 114.1087950 126.5827440  59.7529330 128.1750420 130.6658200
  59.7098960 127.8043330 131.5472660  59.8840340 129.1127990 130.8060020
  63.4535360 129.7310010 126.2667920  63.2126720 129.9984570 125.3798440
  64.3938000 129.9015740 126.3218780  65.6589780 116.1942700 130.0224430
  65.5978670 116.7864530 130.7719840  66.5990160 116.0868660 129.8774690
  68.2964340 115.8512760 129.6616720  68.9104750 116.1692050 128.9997800
  68.8413900 115.3661350 130.2812580  74.7139520 131.7504390 127.0678560
  74.2197800 132.1473260 126.3505690  74.1052810 131.1253600 127.4615840
  58.8185600 114.5307020 129.7755780  59.3668590 114.3495070 129.0121890
  58.8840910 113.7401130 130.3112090  59.5917360 131.1212670 127.7855980
  58.9977680 130.9897370 128.5246020  59.5841200 130.2850810 127.3198080
  69.0372380 114.4144900 125.9886010  68.1632220 114.7480010 125.7858940
  68.9283130 113.9418080 126.8137880  69.9444360 116.6215770 127.3727730
  69.6157720 115.8067530 126.9929460  70.8926660 116.5785580 127.2493420
  72.3978970 132.3927810 124.3465300  71.9381940 133.1443620 123.9723320
  71.7691430 131.6734280 124.2880100  59.2229590 128.4871050 126.7364020
  58.4963650 127.8676340 126.6689970  59.2838740 128.8811660 125.8662100
  62.8274690 130.7016050 123.5213430  63.3439710 130.0903410 122.9961690
  63.4772070 131.2044830 124.0124440  65.5670190 131.5924540 124.3482410
  65.8548000 131.3378840 123.4715420  66.0793410 131.0401900 124.9387980
  66.7847200 115.3314740 124.9278920  66.0018990 115.8060240 125.2075680
  66.4910130 114.4269570 124.8192100  57.5059590 131.8045440 119.9460780
  57.3381630 131.1716120 120.6442670  56.6394100 132.0104840 119.5954970
  64.6701420 117.7501490 120.4394950  63.8575930 117.3758380 120.0990830
  65.1743060 116.9946570 120.7416140  72.3161000 114.8165500 116.9518300
  72.5111630 115.7148950 117.2185730  71.5290870 114.5852580 117.4451250
  59.1122290 130.4978670 117.3910920  58.5869910 130.8786700 116.6872880
  59.0366870 131.1229440 118.1120630  60.5012760 116.1626270 115.9894610
  61.0305520 115.3756070 115.8602560  61.1341080 116.8417460 116.2230140
  62.6950600 115.9001410 119.0440000  62.0653340 115.1988720 119.2110130
  62.1555740 116.6605540 118.8273160  65.6342550 132.5140640 131.7150610
  66.5609860 132.2784910 131.7586570  65.6192980 133.3412640 131.2336640
  73.8687610 132.0566210 118.7124860  74.0439800 131.3703950 118.0685780
  73.1709180 132.5813260 118.3201530  62.8206160 115.1785390 131.4792490
  62.5390430 115.6818990 130.7153310  63.2025860 114.3807140 131.1134620
  61.7115260 132.4461050 116.2660170  62.4434080 132.1620330 115.7184060
  61.9708930 132.2074330 117.1559550  60.8730050 128.5625780 116.2706500
  60.2438930 129.0310880 116.8192330  60.9877880 127.7175000 116.7052690
  69.4221620 114.5938970 132.0572960  69.3087070 114.9133580 132.9524480
  70.2391360 114.9951480 131.7610240  72.2020110 131.7410500 131.5391650
  72.9945430 131.2459730 131.3317610  72.4953260 132.4200640 132.1467260
  68.3279770 122.6131440 102.4207700  68.2473820 121.6986050 102.1499410
  67.9144190 123.1098510 101.7147410  66.4597810 124.3910460 104.3016970
  65.6839910 123.9110900 104.5915540  67.1110740 123.7116110 104.1273130
  60.4763640 124.7030270 105.1792730  59.6448520 124.4478980 105.5789240
  61.0844620 124.7741040 105.9150650  60.4564900 128.7370360 105.3750750
  60.7592940 127.8468100 105.1960970  61.2008490 129.2940580 105.1473000
  58.8855590 119.6632160  98.9635120  57.9972290 120.0048130  98.8615000
  59.1696780 119.4632480  98.0715950  65.9006800 127.0667650 104.3087130
  65.8315080 126.1257590 104.1476260  66.6626660 127.1569060 104.8809700
  58.0913470 117.6722170 106.6343750  57.9116310 116.7747920 106.9146510
  57.6893550 118.2194040 107.3090700  66.9311970 119.8738030 104.5356060
  67.3076790 119.0009910 104.4229730  66.8331480 120.2096730 103.6446500
  61.0616980 118.2463660  99.9973500  61.1683730 119.1467390 100.3042260
  60.1509340 118.1981630  99.7068150  70.7136090 117.3688470 101.4684400
  71.5345710 116.8785040 101.5109880  70.7470170 117.9586130 102.2216240
  58.7100140 120.1682670 105.2426090  59.3910250 120.4321040 105.8613490
  58.3948190 119.3283540 105.5764100  62.9024710 121.2150030 104.3298680
  63.4102930 121.7131000 104.9703700  63.4337950 120.4385230 104.1538040
  61.1860810 115.8548590 108.5962100  61.1879250 116.3720980 107.7908000
  60.3565120 115.3778770 108.5732030  67.5731900 125.9667900 100.0952000
  66.9549170 126.4317350  99.5314720  68.0855150 126.6595380 100.5121510
  62.4363660 125.4943770 106.7735600  62.1033040 126.1212690 107.4156670
  62.6130340 126.0205650 105.9937270  70.9497570 119.3088850 104.2411940
  70.2453140 119.5973740 104.8215050  71.3109730 120.1188960 103.8811500
  60.8676140 117.5658550 106.6032550  61.2092950 118.4100600 106.3086420
  59.9291950 117.7142290 106.7197890  61.6482760 127.4624570 108.5884780
  62.2656760 128.1375650 108.3069230  60.7875880 127.8712550 108.4972280
  56.9415100 126.6524430  97.4691630  56.5643080 127.1411530  96.7376530
  57.1988170 127.3249710  98.0998160  74.0184490 118.7543640 104.6321150
  73.0709400 118.7882620 104.7636580  74.3434480 119.5682590 105.0170510
  64.5504030 115.0540820 102.9277140  64.8579010 114.4987710 102.2112640
  63.6204730 115.1885280 102.7450130  71.3964510 127.4924330 100.3074770
  71.2860840 126.5498660 100.4324190  71.3932760 127.8539970 101.1937530
  66.9384790 123.1189650  99.6637260  66.0114070 123.0527030  99.8925730
  67.0909610 124.0569780  99.5492500  66.9253870 119.3906650  96.6604420
  65.9857540 119.5520610  96.7456880  67.2437130 120.1092330  96.1140410
  73.4466630 124.0725170 106.6383450  72.6185260 124.1418260 106.1633580
  74.0417110 124.6579480 106.1699280  70.9682080 124.6809950 100.1672510
  70.3494500 124.3429500  99.5198810  70.9506530 124.0369710 100.8751700
  62.5441430 123.6454390 102.4456990  62.1398430 122.9331640 101.9502890
  62.6304550 123.3007630 103.3345030  63.0123130 127.3321950 104.6096200
  62.7151420 126.7267420 103.9303980  63.9622950 127.3699260 104.4985560
  61.2570050 120.4197600 106.2256030  61.8084640 120.5292940 105.4509280
  61.7713560 120.7935200 106.9411260  62.1041560 127.0703640 111.2604000
  61.2070090 127.2943610 111.5077400  62.1294430 127.1938580 110.3115400
  69.1446780 123.9196760  97.1745260  69.5840060 123.0819190  97.0283080
  69.8575200 124.5526160  97.2609400  60.9312780 123.9416960 109.8361370
  60.7920550 124.8139760 110.2048770  60.0494140 123.5989770 109.6909310
  67.2542160 128.8592830 101.1426500  67.6938070 129.6017160 100.7281890
  67.1929050 129.1019400 102.0665460  62.7293130 129.8838660 112.0446520
  62.7008560 130.2881610 111.1774950  62.5658100 128.9549020 111.8818120
  74.6807950 130.6665760 113.3410690  75.1567670 131.1448650 114.0199770
  75.3015110 130.5983250 112.6156190  56.8831430 125.7114510 105.7532280
  56.9611850 125.8463280 104.8088000  57.4973110 125.0030400 105.9460400
  74.0841200 127.8578610 110.5010700  74.2104260 127.6190490 109.5827880
  74.1262580 127.0263150 110.9732780  62.4000720 131.6260480 100.2761130
  62.2243200 130.7096020 100.0628930  61.5456460 131.9847770 100.5158930
  56.9390950 126.7528680 108.2926740  57.1021990 126.2834040 107.4746110
  57.4043400 126.2452240 108.9575580  61.7109720 115.8834440 103.3287310
  61.2677870 116.6643980 102.9971830  62.2694710 116.2064330 104.0358250
  64.8268540 115.5045140  98.2093140  64.2022720 115.5005010  98.9346450
  64.7398660 114.6376100  97.8129110  63.7485620 116.4281770 105.1876910
  64.0457950 117.3344600 105.1068930  64.2971180 115.9400550 104.5736480
  68.7321700 121.0131380  99.6559210  68.1330590 121.7367180  99.4722830
  69.2801310 120.9508160  98.8735660  67.3386570 119.6494920 101.6862490
  67.7316140 119.9667120 100.8731180  67.7003420 118.7706800 101.8007010
  59.0733690 118.3167260 109.8762610  58.6797080 119.1642470 110.0835390
  58.3852090 117.6793630 110.0671250  65.6478740 118.4002230 112.9459350
  64.9577060 118.2074430 113.5805440  66.3911040 118.6836870 113.4783650
  56.3750740 116.2395720 103.9092690  56.0863790 116.8098580 104.6217670
  57.1196500 115.7600170 104.2723920  56.5620970 120.1815840  95.1195410
  56.4795640 121.1246600  95.2610400  56.2104030 120.0390750  94.2407760
  67.9241710 122.2400670 105.7813270  67.1922830 122.7487480 106.1303370
  67.5266050 121.4230650 105.4802050  64.3619100 118.9154870 104.1865760
  64.3655160 118.4744820 103.3370300  65.2570220 119.2372200 104.2937580
  60.2121480 118.7981360 103.1459970  59.8721530 119.2756590 103.9027020
  59.4498800 118.3446480 102.7861070  64.4239250 119.9166950  97.1772520
  64.5452070 119.8753430  98.1258340  64.0387760 120.7791100  97.0219250
  68.3867620 117.6934350 105.1936210  68.4040360 118.1443000 106.0378060
  68.1383200 116.7939990 105.4069650  63.4360750 122.2268090  96.5755820
  62.8677650 121.7786340  95.9491730  64.1449750 122.5860870  96.0420970
  58.5129930 126.1280110 110.4522550  58.1284720 125.4873780 111.0505510
  58.8242120 126.8316230 111.0217280  64.6627070 122.9756650 105.9331170
  65.0297200 122.5015220 106.6792510  64.4732130 123.8498220 106.2739510
  57.5267560 117.7200340 102.0624640  57.2414480 117.3556010 102.9003260
  57.4646420 116.9880800 101.4487780  62.4526440 122.0165290 108.2515380
  62.1483510 122.8957270 108.4765740  63.4072900 122.0765080 108.2872820
  60.9808230 126.2226280  98.8482230  60.2070490 125.6823900  98.6880950
  61.7102860 125.7032890  98.5099990  71.7396210 125.2191640 104.6408620
  72.4595330 125.7146930 104.2504730  71.5378030 124.5409530 103.9962490
  67.2006150 116.6129600  98.7838010  66.3870760 116.1142770  98.7083320
  67.0068100 117.4527850  98.3674360  69.9154540 120.9849250  97.0800170
  70.8034160 121.2966480  96.9051510  69.8859630 120.1121500  96.6880750
  65.9115130 127.1572940  97.7588340  66.2530830 127.9015170  97.2631660
  65.0827840 127.4704060  98.1213170  58.5090170 122.8568030 109.3986740
  58.1505110 123.5221880 109.9860080  58.2144730 122.0251580 109.7699360
  61.7103290 123.3152270 112.2826290  61.4103430 123.4609450 111.3854110
  62.4814530 122.7557560 112.1899680  73.2642950 124.7528610 109.6250000
  72.5391140 125.3457390 109.4279390  73.7918410 124.7452150 108.8263370
  73.2156060 129.1503350  99.2762160  72.5732220 128.4958970  99.5505880
  72.8286720 129.5558440  98.5002830  68.7942540 126.4788780 103.1233850
  69.1466360 125.8816910 102.4635220  67.9104870 126.1533010 103.2942100
  64.8805820 127.2386470 100.5304260  65.5676950 127.7855680 100.9111850
  64.0938240 127.7827200 100.5653870  57.0198220 122.8559290  96.0221340
  57.8893070 123.1384090  96.3057260  56.5288540 123.6695160  95.9070150
  64.1833030 124.2432500 100.1429620  64.6395810 125.0537750 100.3689810
  63.8321240 123.9255640 100.9748110  60.0844810 114.5870150 100.6152140
  59.9559440 114.5788050 101.5637060  59.2606830 114.9253240 100.2643150
  71.6053440 128.0419810  95.8138510  71.3791020 127.3250250  96.4063150
  71.2149640 127.7932250  94.9760260  57.3869470 132.0686670  96.5882970
  57.7467110 132.6676010  95.9340240  57.2461810 132.6146560  97.3618000
  57.0838740 116.3461270 110.0758840  56.3697260 116.5458190 110.6811450
  57.5033780 115.5700840 110.4473640  57.3711330 130.3341530 111.0625370
  57.4802450 129.3936270 110.9220760  56.7191890 130.5996280 110.4139100
  65.3623920 128.6057420 112.4623490  65.0420790 127.8866660 113.0069180
  64.6882280 129.2812490 112.5359550  63.4038090 129.4517870  97.4056640
  63.3948190 130.1847560  96.7901150  62.4836450 129.2049450  97.4983600
  71.9439550 117.7940520  98.6347850  71.3152710 117.8986190  97.9206080
  71.4491470 118.0137300  99.4241730  66.3897690 129.5146110  96.0681830
  66.4909670 129.3110100  95.1383810  65.4899430 129.2604390  96.2729610
  63.9123580 120.0726470 100.0505730  63.2039730 120.5412810 100.4919340
  64.1968060 119.4148480 100.6850920  65.5379510 121.4923170 108.0498260
  66.0364760 121.9668990 108.7150110  65.6802460 120.5686690 108.2568290
  67.9439010 116.7977130 101.4901520  67.8206790 116.8163260 100.5411030
  68.8923570 116.8456070 101.6099920  65.0315800 132.0332430 100.7629500
  65.2857300 131.9953820  99.8408870  64.0828280 131.9065760 100.7557750
  62.1158600 118.3811550  97.4256440  62.9649130 118.8181700  97.3596630
  61.7489870 118.6931810  98.2528500  71.0368380 122.9524310 102.3388010
  70.0958520 122.9674540 102.5135700  71.3512450 122.1660270 102.7848310
  61.0150020 124.6343910  95.8991970  61.7813290 124.5225270  96.4617400
  61.0924710 123.9381880  95.2468740  59.7096780 122.0668980  96.5824860
  59.7900370 121.1196490  96.6942260  60.6016530 122.3975860  96.6885520
  60.5111490 132.2164370 103.6859400  61.2473970 131.6679830 103.9567970
  60.8952410 133.0820380 103.5465390  57.3956970 128.2837940  99.5600910
  56.4696750 128.5259080  99.5506320  57.8613400 129.1112200  99.4385660
  59.5169770 131.4010440 112.8744980  60.3182500 131.7222490 113.2880380
  59.0021590 131.0406020 113.5964890  63.6213800 131.3894680  95.5084970
  64.4142410 131.6783510  95.0566760  63.1018150 130.9586850  94.8297450
  68.3534400 127.5090310 112.8220390  67.7472560 127.5321910 112.0816140
  68.0488510 126.7773350 113.3587640  69.7834770 131.2370600 111.4329800
  70.7356520 131.1528620 111.3830040  69.6362990 131.9012310 112.1063590
  57.2367580 123.8883900 111.8181030  57.7406600 123.3091180 112.3897260
  56.4975000 124.1724130 112.3557400  64.1391200 126.6098090  95.3727320
  64.0341840 125.9950440  96.0988700  63.9715420 126.0863980  94.5890330
  67.3793930 125.6718120  95.9769310  66.8304030 126.1187420  96.6212050
  68.0013190 125.1667370  96.5006980  71.4328870 127.0260220 111.9091570
  72.1738340 127.3635980 111.4059030  70.6701550 127.1952280 111.3561340
  59.2690660 122.0313490 112.7131100  59.3096000 121.7327360 113.6216330
  60.1236160 122.4321100 112.5538620  63.0469050 124.6309040  97.8734610
  63.4685470 124.4648910  98.7166000  63.1719890 123.8209270  97.3789750
  61.2096470 120.6105590 110.6805590  60.6792930 120.1196540 110.0528930
  61.8784540 121.0389790 110.1463520  65.5596690 123.6546650  95.1211710
  66.0802350 122.9395670  94.7552860  66.2065090 124.2932520  95.4212220
  61.6968770 117.5767960 110.7602880  61.6025640 116.9588710 110.0353750
  61.1166160 118.3034250 110.5332790  64.4630210 116.1341200 107.7930270
  64.0147510 116.1565460 106.9475820  63.8295410 115.7360220 108.3900570
  64.8689760 125.0295530 108.4142710  65.2877870 125.8728260 108.2418950
  63.9498390 125.1667570 108.1849490  61.9427950 120.7042270  94.8192770
  61.7417010 119.8409630  95.1806110  61.7720000 120.6175630  93.8814370
  62.7197180 131.3348540 109.5300440  62.1818270 132.0594600 109.2109140
  62.9731140 130.8578880 108.7397780  63.9722430 119.3033060 111.0556370
  64.5622120 118.9948910 111.7434190  63.1542670 118.8312810 111.2116270
  65.5759390 132.5699750 109.7887090  65.5018090 133.4734890 110.0959460
  64.6738230 132.2511650 109.7609160  63.9595680 116.7477510  95.7926850
  63.6117680 116.0701500  95.2129300  64.1608450 116.2867020  96.6070240
  66.1244720 131.7358260  97.4113450  67.0195510 132.0743230  97.4332210
  66.1562350 131.0137670  96.7837730  59.7640880 127.1085310  95.6400450
  60.2015750 127.6514980  96.2958030  60.2488610 126.2832260  95.6496790
  56.9786680 129.8974340 103.0920710  57.3089690 129.0295400 102.8599350
  57.4077680 130.1032860 103.9225670  61.5748600 128.2283350 100.7522680
  61.2744140 128.1048320 101.6526590  61.4686090 127.3691940 100.3438410
  57.4676890 130.7644930 105.8302340  57.0307880 130.9445730 106.6626490
  58.0354570 131.5219550 105.6884060  73.1039070 130.2661930 110.1179650
  72.5041060 130.3254490 109.3743570  73.2332970 129.3266910 110.2476500
  70.2491760 118.0706450  96.4109710  70.6676640 117.8837430  95.5706370
  69.9427820 117.2185500  96.7212640  58.3377250 123.6617730 106.7294560
  58.7050290 123.5745130 107.6090580  57.7688070 122.8984280 106.6301420
  57.8893250 120.5726820 110.6352980  56.9949300 120.5393580 110.9746690
  58.4290800 120.7713610 111.4004230  56.5139400 120.4864090  98.1316550
  55.6103480 120.7494290  97.9568210  56.9980020 120.7575260  97.3516510
  73.0232450 121.2088080 103.4092750  73.5469930 120.7150730 102.7782920
  73.6091870 121.3438440 104.1540320  73.2022170 121.2927950 106.9312300
  72.2524880 121.2591490 107.0457290  73.3835180 122.2028060 106.6962070
  59.0566610 119.5429630  96.0410930  59.7658310 119.1212850  95.5558210
  58.3406550 119.6104860  95.4094280  58.7040770 115.5968960  95.0813580
  59.4268900 116.1377900  95.3994800  58.9765290 115.3232380  94.2055120
  58.3932960 114.8475150 104.9836200  59.0409150 114.2972530 104.5431360
  58.8134800 115.1018300 105.8052010  73.9419580 119.1022380 101.8822840
  73.8318860 118.9478420 102.8205110  74.7027170 118.5743320 101.6398250
  74.9048340 117.7040960  97.7485690  74.1099840 117.6386080  98.2778600
  75.1091620 118.6391600  97.7371040  58.1464960 115.0030820 107.7261520
  57.7979780 115.4594640 108.4919700  57.8152660 114.1087950 107.8083950
  59.7529330 128.1750420 111.8914710  59.7098960 127.8043330 112.7729170
  59.8840340 129.1127990 112.0316530  63.4535360 129.7310010 107.4924430
  63.2126720 129.9984570 106.6054950  64.3938000 129.9015740 107.5475290
  65.6589780 116.1942700 111.2480940  65.5978670 116.7864530 111.9976350
  66.5990160 116.0868660 111.1031200  68.2964340 115.8512760 110.8873230
  68.9104750 116.1692050 110.2254310  68.8413900 115.3661350 111.5069090
  74.7139520 131.7504390 108.2935070  74.2197800 132.1473260 107.5762200
  74.1052810 131.1253600 108.6872350  58.8185600 114.5307020 111.0012290
  59.3668590 114.3495070 110.2378400  58.8840910 113.7401130 111.5368600
  59.5917360 131.1212670 109.0112490  58.9977680 130.9897370 109.7502530
  59.5841200 130.2850810 108.5454590  69.0372380 114.4144900 107.2142520
  68.1632220 114.7480010 107.0115450  68.9283130 113.9418080 108.0394390
  59.2229590 128.4871050 107.9620530  58.4963650 127.8676340 107.8946480
  59.2838740 128.8811660 107.0918610  62.8274690 130.7016050 104.7469940
  63.3439710 130.0903410 104.2218200  63.4772070 131.2044830 105.2380950
  66.7847200 115.3314740 106.1535430  66.0018990 115.8060240 106.4332190
  66.4910130 114.4269570 106.0448610  71.3368270 116.0337840 104.1984520
  71.7776360 115.9782940 103.3506120  71.0675860 116.9495850 104.2694700
  73.2006840 115.6653080 102.2093340  73.1395240 114.7214300 102.0624360
  73.9798870 115.7733170 102.7546800  57.5059590 131.8045440 101.1717290
  57.3381630 131.1716120 101.8699180  56.6394100 132.0104840 100.8211480
  58.1287610 115.6362220  98.6749150  58.8866970 115.7491100  98.1013180
  57.6664780 116.4731420  98.6292580  64.6701420 117.7501490 101.6651460
  63.8575930 117.3758380 101.3247340  65.1743060 116.9946570 101.9672650
  69.1726400 114.4143940 102.9034530  69.7755770 114.9864150 103.3783050
  68.4319390 114.9783380 102.6808430  59.1122290 130.4978670  98.6167430
  58.5869910 130.8786700  97.9129390  59.0366870 131.1229440  99.3377140
  60.5012760 116.1626270  97.2151120  61.0305520 115.3756070  97.0859070
  61.1341080 116.8417460  97.4486650  62.6950600 115.9001410 100.2696510
  62.0653340 115.1988720 100.4366640  62.1555740 116.6605540 100.0529670
  65.6342550 132.5140640 112.9407120  66.5609860 132.2784910 112.9843080
  65.6192980 133.3412640 112.4593150  62.8206160 115.1785390 112.7049000
  62.5390430 115.6818990 111.9409820  63.2025860 114.3807140 112.3391130
  61.7115260 132.4461050  97.4916680  62.4434080 132.1620330  96.9440570
  61.9708930 132.2074330  98.3816060  60.8730050 128.5625780  97.4963010
  60.2438930 129.0310880  98.0448840  60.9877880 127.7175000  97.9309200
  69.4221620 114.5938970 113.2829470  69.3087070 114.9133580 114.1780990
  70.2391360 114.9951480 112.9866750  72.2020110 131.7410500 112.7648160
  72.9945430 131.2459730 112.5574120  72.4953260 132.4200640 113.3723770
  68.3279770 122.6131440  83.6464210  68.2473820 121.6986050  83.3755920
  67.9144190 123.1098510  82.9403920  66.9311970 119.8738030  85.7612570
  67.3076790 119.0009910  85.6486240  66.8331480 120.2096730  84.8703010
  61.0616980 118.2463660  81.2230010  61.1683730 119.1467390  81.5298770
  60.1509340 118.1981630  80.9324660  70.7136090 117.3688470  82.6940910
  71.5345710 116.8785040  82.7366390  70.7470170 117.9586130  83.4472750
  62.9024710 121.2150030  85.5555190  63.4102930 121.7131000  86.1960210
  63.4337950 120.4385230  85.3794550  67.5731900 125.9667900  81.3208510
  66.9549170 126.4317350  80.7571230  68.0855150 126.6595380  81.7378020
  70.9497570 119.3088850  85.4668450  70.2453140 119.5973740  86.0471560
  71.3109730 120.1188960  85.1068010  56.9415100 126.6524430  78.6948140
  56.5643080 127.1411530  77.9633040  57.1988170 127.3249710  79.3254670
  72.5660350 128.9263980  87.7295930  71.8823870 129.5963090  87.7212600
  73.1054640 129.1244630  86.9640790  64.5504030 115.0540820  84.1533650
  64.8579010 114.4987710  83.4369150  63.6204730 115.1885280  83.9706640
  69.5004530 125.6737950  87.7723720  69.9173320 125.4598060  86.9377180
  70.2244350 125.9310740  88.3432340  66.9384790 123.1189650  80.8893770
  66.0114070 123.0527030  81.1182240  67.0909610 124.0569780  80.7749010
  66.9253870 119.3906650  77.8860930  65.9857540 119.5520610  77.9713390
  67.2437130 120.1092330  77.3396920  73.4466630 124.0725170  87.8639960
  72.6185260 124.1418260  87.3890090  74.0417110 124.6579480  87.3955790
  70.4108640 120.8594490  88.8094830  69.9979820 121.6848200  89.0634820
  69.6784590 120.2739530  88.6171190  61.2570050 120.4197600  87.4512540
  61.8084640 120.5292940  86.6765790  61.7713560 120.7935200  88.1667770
  62.1041560 127.0703640  92.4860510  61.2070090 127.2943610  92.7333910
  62.1294430 127.1938580  91.5371910  60.9312780 123.9416960  91.0617880
  60.7920550 124.8139760  91.4305280  60.0494140 123.5989770  90.9165820
  62.7293130 129.8838660  93.2703030  62.7008560 130.2881610  92.4031460
  62.5658100 128.9549020  93.1074630  72.7263920 115.1739570  76.7142810
  72.4136580 115.2666400  77.6141880  73.4876390 115.7520600  76.6640240
  58.1279060 127.4114700  83.3894970  57.7207140 127.5529290  82.5348570
  59.0192070 127.1274860  83.1866180  67.9457940 131.5606610  90.2962020
  68.4602610 131.4714620  91.0984450  67.1027020 131.9066310  90.5889930
  61.7109720 115.8834440  84.5543820  61.2677870 116.6643980  84.2228340
  62.2694710 116.2064330  85.2614760  65.9979530 118.7502960  90.1579140
  65.5358900 118.9585980  90.9699080  65.5957640 117.9362310  89.8549810
  70.9984040 119.9711910  91.2875800  70.1477630 119.6717660  91.6084870
  70.8385830 120.2153920  90.3759620  64.8268540 115.5045140  79.4349650
  64.2022720 115.5005010  80.1602960  64.7398660 114.6376100  79.0385620
  63.7485620 116.4281770  86.4133420  64.0457950 117.3344600  86.3325440
  64.2971180 115.9400550  85.7992990  61.5023940 121.0068010  82.2825070
  61.2764860 120.7905180  83.1871690  60.7216470 121.4396470  81.9371040
  68.7321700 121.0131380  80.8815720  68.1330590 121.7367180  80.6979340
  69.2801310 120.9508160  80.0992170  63.9423150 121.9053590  92.9485340
  63.8466750 120.9648320  92.7985740  64.7855130 122.1268660  92.5533410
  67.3386570 119.6494920  82.9119000  67.7316140 119.9667120  82.0987690
  67.7003420 118.7706800  83.0263520  65.6478740 118.4002230  94.1715860
  64.9577060 118.2074430  94.8061950  66.3911040 118.6836870  94.7040160
  56.3750740 116.2395720  85.1349200  56.0863790 116.8098580  85.8474180
  57.1196500 115.7600170  85.4980430  56.5620970 120.1815840  76.3451920
  56.4795640 121.1246600  76.4866910  56.2104030 120.0390750  75.4664270
  67.9241710 122.2400670  87.0069780  67.1922830 122.7487480  87.3559880
  67.5266050 121.4230650  86.7058560  64.3619100 118.9154870  85.4122270
  64.3655160 118.4744820  84.5626810  65.2570220 119.2372200  85.5194090
  60.2121480 118.7981360  84.3716480  59.8721530 119.2756590  85.1283530
  59.4498800 118.3446480  84.0117580  64.4239250 119.9166950  78.4029030
  64.5452070 119.8753430  79.3514850  64.0387760 120.7791100  78.2475760
  68.3867620 117.6934350  86.4192720  68.4040360 118.1443000  87.2634570
  68.1383200 116.7939990  86.6326160  63.4360750 122.2268090  77.8012330
  62.8677650 121.7786340  77.1748240  64.1449750 122.5860870  77.2677480
  64.6627070 122.9756650  87.1587680  65.0297200 122.5015220  87.9049020
  64.4732130 123.8498220  87.4996020  62.4526440 122.0165290  89.4771890
  62.1483510 122.8957270  89.7022250  63.4072900 122.0765080  89.5129330
  60.9808230 126.2226280  80.0738740  60.2070490 125.6823900  79.9137460
  61.7102860 125.7032890  79.7356500  71.7396210 125.2191640  85.8665130
  72.4595330 125.7146930  85.4761240  71.5378030 124.5409530  85.2219000
  67.2006150 116.6129600  80.0094520  66.3870760 116.1142770  79.9339830
  67.0068100 117.4527850  79.5930870  69.9154540 120.9849250  78.3056680
  70.8034160 121.2966480  78.1308020  69.8859630 120.1121500  77.9137260
  65.9115130 127.1572940  78.9844850  66.2530830 127.9015170  78.4888170
  65.0827840 127.4704060  79.3469680  61.7103290 123.3152270  93.5082800
  61.4103430 123.4609450  92.6110620  62.4814530 122.7557560  93.4156190
  67.0531740 128.1121270  91.5037930  67.0676280 127.1802230  91.2856840
  66.3456840 128.1981030  92.1427700  73.2156060 129.1503350  80.5018670
  72.5732220 128.4958970  80.7762390  72.8286720 129.5558440  79.7259340
  57.0198220 122.8559290  77.2477850  57.8893070 123.1384090  77.5313770
  56.5288540 123.6695160  77.1326660  66.4865640 129.7538840  88.5978430
  67.1307860 129.9598220  89.2751850  66.8495080 128.9927240  88.1449280
  60.0844810 114.5870150  81.8408650  59.9559440 114.5788050  82.7893570
  59.2606830 114.9253240  81.4899660  71.6053440 128.0419810  77.0395020
  71.3791020 127.3250250  77.6319660  71.2149640 127.7932250  76.2016770
  65.3623920 128.6057420  93.6880000  65.0420790 127.8866660  94.2325690
  64.6882280 129.2812490  93.7616060  63.4038090 129.4517870  78.6313150
  63.3948190 130.1847560  78.0157660  62.4836450 129.2049450  78.7240110
  59.0044730 124.6732760  79.3759910  58.3972680 125.4131660  79.3855210
  59.4794080 124.7632120  78.5498110  68.5777520 118.8383580  89.0516800
  68.9458340 118.0178790  89.3796370  67.7175720 118.8985470  89.4672450
  71.9439550 117.7940520  79.8604360  71.3152710 117.8986190  79.1462590
  71.4491470 118.0137300  80.6498240  66.3897690 129.5146110  77.2938340
  66.4909670 129.3110100  76.3640320  65.4899430 129.2604390  77.4986120
  63.9123580 120.0726470  81.2762240  63.2039730 120.5412810  81.7175850
  64.1968060 119.4148480  81.9107430  65.5379510 121.4923170  89.2754770
  66.0364760 121.9668990  89.9406620  65.6802460 120.5686690  89.4824800
  67.9439010 116.7977130  82.7158030  67.8206790 116.8163260  81.7667540
  68.8923570 116.8456070  82.8356430  65.0315800 132.0332430  81.9886010
  65.2857300 131.9953820  81.0665380  64.0828280 131.9065760  81.9814260
  62.1158600 118.3811550  78.6512950  62.9649130 118.8181700  78.5853140
  61.7489870 118.6931810  79.4785010  61.0150020 124.6343910  77.1248480
  61.7813290 124.5225270  77.6873910  61.0924710 123.9381880  76.4725250
  59.7096780 122.0668980  77.8081370  59.7900370 121.1196490  77.9198770
  60.6016530 122.3975860  77.9142030  60.5111490 132.2164370  84.9115910
  61.2473970 131.6679830  85.1824480  60.8952410 133.0820380  84.7721900
  57.3956970 128.2837940  80.7857420  56.4696750 128.5259080  80.7762830
  57.8613400 129.1112200  80.6642170  72.6743970 130.6164810  78.1578220
  72.3885480 130.2029950  77.3432400  72.4763520 131.5452520  78.0378740
  57.2367580 123.8883900  93.0437540  57.7406600 123.3091180  93.6153770
  56.4975000 124.1724130  93.5813910  64.1391200 126.6098090  76.5983830
  64.0341840 125.9950440  77.3245210  63.9715420 126.0863980  75.8146840
  64.2905520 125.2954890  92.5773060  63.5251190 125.8639890  92.4927730
  64.4721480 125.0031100  91.6841290  67.3793930 125.6718120  77.2025820
  66.8304030 126.1187420  77.8468560  68.0013190 125.1667370  77.7263490
  59.2690660 122.0313490  93.9387610  59.3096000 121.7327360  94.8472840
  60.1236160 122.4321100  93.7795130  63.0469050 124.6309040  79.0991120
  63.4685470 124.4648910  79.9422510  63.1719890 123.8209270  78.6046260
  64.4630210 116.1341200  89.0186780  64.0147510 116.1565460  88.1732330
  63.8295410 115.7360220  89.6157080  64.8689760 125.0295530  89.6399220
  65.2877870 125.8728260  89.4675460  63.9498390 125.1667570  89.4106000
  61.9427950 120.7042270  76.0449280  61.7417010 119.8409630  76.4062620
  61.7720000 120.6175630  75.1070880  62.7197180 131.3348540  90.7556950
  62.1818270 132.0594600  90.4365650  62.9731140 130.8578880  89.9654290
  63.9722430 119.3033060  92.2812880  64.5622120 118.9948910  92.9690700
  63.1542670 118.8312810  92.4372780  68.7915860 118.9198870  92.5145900
  68.1031380 118.2580410  92.4495890  69.5121880 118.4737140  92.9594360
  69.4216260 115.5150500  78.5736160  69.7018550 114.6718400  78.9295580
  68.6481990 115.7473610  79.0874910  60.7410750 117.8042890  76.0327160
  61.0436650 117.8110320  75.1246310  61.4805340 117.4540750  76.5294820
  65.5759390 132.5699750  91.0143600  65.5018090 133.4734890  91.3215970
  64.6738230 132.2511650  90.9865670  63.9595680 116.7477510  77.0183360
  63.6117680 116.0701500  76.4385810  64.1608450 116.2867020  77.8326750
  56.9786680 129.8974340  84.3177220  57.3089690 129.0295400  84.0855860
  57.4077680 130.1032860  85.1482180  74.3440520 128.0079750  76.6805870
  73.5133480 128.0756400  77.1513100  74.5212350 128.8983870  76.3772730
  74.8056950 125.6077330  84.0282000  75.1765780 124.8244650  83.6217970
  75.4458880 126.2966430  83.8499300  70.2491760 118.0706450  77.6366220
  70.6676640 117.8837430  76.7962880  69.9427820 117.2185500  77.9469150
  73.0232450 121.2088080  84.6349260  73.5469930 120.7150730  84.0039430
  73.6091870 121.3438440  85.3796830  73.2022170 121.2927950  88.1568810
  72.2524880 121.2591490  88.2713800  73.3835180 122.2028060  87.9218580
  59.0566610 119.5429630  77.2667440  59.7658310 119.1212850  76.7814720
  58.3406550 119.6104860  76.6350790  58.3932960 114.8475150  86.2092710
  59.0409150 114.2972530  85.7687870  58.8134800 115.1018300  87.0308520
  73.9419580 119.1022380  83.1079350  73.8318860 118.9478420  84.0461620
  74.7027170 118.5743320  82.8654760  74.8309850 116.9330300  76.3485490
  75.7559160 116.8011480  76.1403780  74.8085640 117.0123120  77.3021940
  74.9048340 117.7040960  78.9742200  74.1099840 117.6386080  79.5035110
  75.1091620 118.6391600  78.9627550  63.4535360 129.7310010  88.7180940
  63.2126720 129.9984570  87.8311460  64.3938000 129.9015740  88.7731800
  65.6589780 116.1942700  92.4737450  65.5978670 116.7864530  93.2232860
  66.5990160 116.0868660  92.3287710  68.2964340 115.8512760  92.1129740
  68.9104750 116.1692050  91.4510820  68.8413900 115.3661350  92.7325600
  69.9444360 116.6215770  89.8240750  69.6157720 115.8067530  89.4442480
  70.8926660 116.5785580  89.7006440  72.3978970 132.3927810  86.7978320
  71.9381940 133.1443620  86.4236340  71.7691430 131.6734280  86.7393120
  62.8274690 130.7016050  85.9726450  63.3439710 130.0903410  85.4474710
  63.4772070 131.2044830  86.4637460  66.7847200 115.3314740  87.3791940
  66.0018990 115.8060240  87.6588700  66.4910130 114.4269570  87.2705120
  71.3368270 116.0337840  85.4241030  71.7776360 115.9782940  84.5762630
  71.0675860 116.9495850  85.4951210  73.2006840 115.6653080  83.4349850
  73.1395240 114.7214300  83.2880870  73.9798870 115.7733170  83.9803310
  57.5059590 131.8045440  82.3973800  57.3381630 131.1716120  83.0955690
  56.6394100 132.0104840  82.0467990  58.1287610 115.6362220  79.9005660
  58.8866970 115.7491100  79.3269690  57.6664780 116.4731420  79.8549090
  64.6701420 117.7501490  82.8907970  63.8575930 117.3758380  82.5503850
  65.1743060 116.9946570  83.1929160  69.1726400 114.4143940  84.1291040
  69.7755770 114.9864150  84.6039560  68.4319390 114.9783380  83.9064940
  72.3161000 114.8165500  79.4031320  72.5111630 115.7148950  79.6698750
  71.5290870 114.5852580  79.8964270  60.5012760 116.1626270  78.4407630
  61.0305520 115.3756070  78.3115580  61.1341080 116.8417460  78.6743160
  62.6950600 115.9001410  81.4953020  62.0653340 115.1988720  81.6623150
  62.1555740 116.6605540  81.2786180  65.6342550 132.5140640  94.1663630
  66.5609860 132.2784910  94.2099590  65.6192980 133.3412640  93.6849660
  73.8687610 132.0566210  81.1637880  74.0439800 131.3703950  80.5198800
  73.1709180 132.5813260  80.7714550  62.8206160 115.1785390  93.9305510
  62.5390430 115.6818990  93.1666330  63.2025860 114.3807140  93.5647640
  68.3279770 122.6131440  64.8720720  68.2473820 121.6986050  64.6012430
  67.9144190 123.1098510  64.1660430  66.4597810 124.3910460  66.7529990
  65.6839910 123.9110900  67.0428560  67.1110740 123.7116110  66.5786150
  60.4763640 124.7030270  67.6305750  59.6448520 124.4478980  68.0302260
  61.0844620 124.7741040  68.3663670  70.4805240 128.7970650  65.5329120
  70.0186770 128.0257890  65.8616290  71.2930790 128.8236720  66.0381570
  60.4564900 128.7370360  67.8263770  60.7592940 127.8468100  67.6473990
  61.2008490 129.2940580  67.5986020  58.8855590 119.6632160  61.4148140
  57.9972290 120.0048130  61.3128020  59.1696780 119.4632480  60.5228970
  66.7068550 131.0828660  65.1533110  66.0879990 131.5386160  64.5827550
  67.5620330 131.2380120  64.7522810  65.9006800 127.0667650  66.7600150
  65.8315080 126.1257590  66.5989280  66.6626660 127.1569060  67.3322720
  66.9311970 119.8738030  66.9869080  67.3076790 119.0009910  66.8742750
  66.8331480 120.2096730  66.0959520  61.0616980 118.2463660  62.4486520
  61.1683730 119.1467390  62.7555280  60.1509340 118.1981630  62.1581170
  70.7136090 117.3688470  63.9197420  71.5345710 116.8785040  63.9622900
  70.7470170 117.9586130  64.6729260  62.9024710 121.2150030  66.7811700
  63.4102930 121.7131000  67.4216720  63.4337950 120.4385230  66.6051060
  67.5731900 125.9667900  62.5465020  66.9549170 126.4317350  61.9827740
  68.0855150 126.6595380  62.9634530  62.4363660 125.4943770  69.2248620
  62.1033040 126.1212690  69.8669690  62.6130340 126.0205650  68.4450290
  70.9497570 119.3088850  66.6924960  70.2453140 119.5973740  67.2728070
  71.3109730 120.1188960  66.3324520  56.9415100 126.6524430  59.9204650
  56.5643080 127.1411530  59.1889550  57.1988170 127.3249710  60.5511180
  72.5660350 128.9263980  68.9552440  71.8823870 129.5963090  68.9469110
  73.1054640 129.1244630  68.1897300  74.0184490 118.7543640  67.0834170
  73.0709400 118.7882620  67.2149600  74.3434480 119.5682590  67.4683530
  64.5504030 115.0540820  65.3790160  64.8579010 114.4987710  64.6625660
  63.6204730 115.1885280  65.1963150  71.3964510 127.4924330  62.7587790
  71.2860840 126.5498660  62.8837210  71.3932760 127.8539970  63.6450550
  69.5004530 125.6737950  68.9980230  69.9173320 125.4598060  68.1633690
  70.2244350 125.9310740  69.5688850  66.9384790 123.1189650  62.1150280
  66.0114070 123.0527030  62.3438750  67.0909610 124.0569780  62.0005520
  66.9253870 119.3906650  59.1117440  65.9857540 119.5520610  59.1969900
  67.2437130 120.1092330  58.5653430  73.4466630 124.0725170  69.0896470
  72.6185260 124.1418260  68.6146600  74.0417110 124.6579480  68.6212300
  70.9682080 124.6809950  62.6185530  70.3494500 124.3429500  61.9711830
  70.9506530 124.0369710  63.3264720  70.4108640 120.8594490  70.0351340
  69.9979820 121.6848200  70.2891330  69.6784590 120.2739530  69.8427700
  62.5441430 123.6454390  64.8970010  62.1398430 122.9331640  64.4015910
  62.6304550 123.3007630  65.7858050  63.0123130 127.3321950  67.0609220
  62.7151420 126.7267420  66.3817000  63.9622950 127.3699260  66.9498580
  61.2570050 120.4197600  68.6769050  61.8084640 120.5292940  67.9022300
  61.7713560 120.7935200  69.3924280  71.1008740 130.9053820  70.7232320
  70.6239300 131.7126010  70.5304930  70.4170530 130.2532150  70.8758530
  62.1041560 127.0703640  73.7117020  61.2070090 127.2943610  73.9590420
  62.1294430 127.1938580  72.7628420  69.1446780 123.9196760  59.6258280
  69.5840060 123.0819190  59.4796100  69.8575200 124.5526160  59.7122420
  67.2542160 128.8592830  63.5939520  67.6938070 129.6017160  63.1794910
  67.1929050 129.1019400  64.5178480  62.7293130 129.8838660  74.4959540
  62.7008560 130.2881610  73.6287970  62.5658100 128.9549020  74.3331140
  72.7263920 115.1739570  57.9399320  72.4136580 115.2666400  58.8398390
  73.4876390 115.7520600  57.8896750  59.2446060 122.5399370  62.3976660
  59.1243660 123.2661460  61.7857930  58.9346950 121.7702280  61.9204570
  74.6807950 130.6665760  75.7923710  75.1567670 131.1448650  76.4712790
  75.3015110 130.5983250  75.0669210  58.1279060 127.4114700  64.6151480
  57.7207140 127.5529290  63.7605080  59.0192070 127.1274860  64.4122690
  74.0841200 127.8578610  72.9523720  74.2104260 127.6190490  72.0340900
  74.1262580 127.0263150  73.4245800  67.9457940 131.5606610  71.5218530
  68.4602610 131.4714620  72.3240960  67.1027020 131.9066310  71.8146440
  69.9212340 131.8461950  60.9502530  69.7613480 131.5564890  61.8484360
  69.7559050 131.0702080  60.4147760  62.4000720 131.6260480  62.7274150
  62.2243200 130.7096020  62.5141950  61.5456460 131.9847770  62.9671950
  69.6238470 129.3549510  59.5100530  68.9303630 129.3526800  58.8502810
  70.3661330 128.9308830  59.0794700  69.1888400 130.9812220  63.5849020
  69.6445350 130.2001600  63.8987640  69.5280920 131.6919040  64.1290200
  61.5023940 121.0068010  63.5081580  61.2764860 120.7905180  64.4128200
  60.7216470 121.4396470  63.1627550  68.7321700 121.0131380  62.1072230
  68.1330590 121.7367180  61.9235850  69.2801310 120.9508160  61.3248680
  67.3386570 119.6494920  64.1375510  67.7316140 119.9667120  63.3244200
  67.7003420 118.7706800  64.2520030  67.9241710 122.2400670  68.2326290
  67.1922830 122.7487480  68.5816390  67.5266050 121.4230650  67.9315070
  64.3619100 118.9154870  66.6378780  64.3655160 118.4744820  65.7883320
  65.2570220 119.2372200  66.7450600  60.2121480 118.7981360  65.5972990
  59.8721530 119.2756590  66.3540040  59.4498800 118.3446480  65.2374090
  64.4239250 119.9166950  59.6285540  64.5452070 119.8753430  60.5771360
  64.0387760 120.7791100  59.4732270  68.3867620 117.6934350  67.6449230
  68.4040360 118.1443000  68.4891080  68.1383200 116.7939990  67.8582670
  63.4360750 122.2268090  59.0268840  62.8677650 121.7786340  58.4004750
  64.1449750 122.5860870  58.4933990  64.6627070 122.9756650  68.3844190
  65.0297200 122.5015220  69.1305530  64.4732130 123.8498220  68.7252530
  62.4526440 122.0165290  70.7028400  62.1483510 122.8957270  70.9278760
  63.4072900 122.0765080  70.7385840  60.9808230 126.2226280  61.2995250
  60.2070490 125.6823900  61.1393970  61.7102860 125.7032890  60.9613010
  71.7396210 125.2191640  67.0921640  72.4595330 125.7146930  66.7017750
  71.5378030 124.5409530  66.4475510  67.2006150 116.6129600  61.2351030
  66.3870760 116.1142770  61.1596340  67.0068100 117.4527850  60.8187380
  69.9154540 120.9849250  59.5313190  70.8034160 121.2966480  59.3564530
  69.8859630 120.1121500  59.1393770  61.0245630 125.8906660  64.9374060
  61.5424300 125.0874920  64.8830950  60.5729650 125.8285800  65.7790890
  65.9115130 127.1572940  60.2101360  66.2530830 127.9015170  59.7144680
  65.0827840 127.4704060  60.5726190  61.7103290 123.3152270  74.7339310
  61.4103430 123.4609450  73.8367130  62.4814530 122.7557560  74.6412700
  67.0531740 128.1121270  72.7294440  67.0676280 127.1802230  72.5113350
  66.3456840 128.1981030  73.3684210  72.1868810 122.2961090  58.9993050
  72.1032530 122.7275310  58.1489490  72.9063000 122.7559440  59.4319870
  73.2642950 124.7528610  72.0763020  72.5391140 125.3457390  71.8792410
  73.7918410 124.7452150  71.2776390  73.2156060 129.1503350  61.7275180
  72.5732220 128.4958970  62.0018900  72.8286720 129.5558440  60.9515850
  68.7942540 126.4788780  65.5746870  69.1466360 125.8816910  64.9148240
  67.9104870 126.1533010  65.7455120  64.8805820 127.2386470  62.9817280
  65.5676950 127.7855680  63.3624870  64.0938240 127.7827200  63.0166890
  64.1833030 124.2432500  62.5942640  64.6395810 125.0537750  62.8202830
  63.8321240 123.9255640  63.4261130  66.4865640 129.7538840  69.8234940
  67.1307860 129.9598220  70.5008360  66.8495080 128.9927240  69.3705790
  67.7597720 127.7571190  68.5412390  68.4019950 127.0564350  68.6544560
  68.2847070 128.5369630  68.3609280  71.6053440 128.0419810  58.2651530
  71.3791020 127.3250250  58.8576170  71.2149640 127.7932250  57.4273280
  69.5335340 128.5566090  71.7448450  69.8691580 129.1432780  72.4226370
  68.6135680 128.4258800  71.9746240  57.3869470 132.0686670  59.0395990
  57.7467110 132.6676010  58.3853260  57.2461810 132.6146560  59.8131020
  71.1869690 125.9591750  59.9265690  70.8991390 126.4204440  60.7143570
  71.9821860 125.4989520  60.1949910  65.3623920 128.6057420  74.9136510
  65.0420790 127.8866660  75.4582200  64.6882280 129.2812490  74.9872570
  63.4038090 129.4517870  59.8569660  63.3948190 130.1847560  59.2414170
  62.4836450 129.2049450  59.9496620  59.0044730 124.6732760  60.6016420
  58.3972680 125.4131660  60.6111720  59.4794080 124.7632120  59.7754620
  71.9439550 117.7940520  61.0860870  71.3152710 117.8986190  60.3719100
  71.4491470 118.0137300  61.8754750  66.3897690 129.5146110  58.5194850
  66.4909670 129.3110100  57.5896830  65.4899430 129.2604390  58.7242630
  63.9123580 120.0726470  62.5018750  63.2039730 120.5412810  62.9432360
  64.1968060 119.4148480  63.1363940  67.9439010 116.7977130  63.9414540
  67.8206790 116.8163260  62.9924050  68.8923570 116.8456070  64.0612940
  65.0315800 132.0332430  63.2142520  65.2857300 131.9953820  62.2921890
  64.0828280 131.9065760  63.2070770  72.7446370 117.7091130  71.3439670
  72.2419970 118.4496530  71.6833480  73.5603030 118.0975130  71.0276460
  71.0368380 122.9524310  64.7901030  70.0958520 122.9674540  64.9648720
  71.3512450 122.1660270  65.2361330  61.0150020 124.6343910  58.3504990
  61.7813290 124.5225270  58.9130420  61.0924710 123.9381880  57.6981760
  59.7096780 122.0668980  59.0337880  59.7900370 121.1196490  59.1455280
  60.6016530 122.3975860  59.1398540  73.0393960 130.1233160  66.4655290
  73.1641380 130.9464330  66.9379100  73.9059520 129.9123890  66.1179440
  60.5111490 132.2164370  66.1372420  61.2473970 131.6679830  66.4080990
  60.8952410 133.0820380  65.9978410  57.3956970 128.2837940  62.0113930
  56.4696750 128.5259080  62.0019340  57.8613400 129.1112200  61.8898680
  63.6213800 131.3894680  57.9597990  64.4142410 131.6783510  57.5079780
  63.1018150 130.9586850  57.2810470  68.3534400 127.5090310  75.2733410
  67.7472560 127.5321910  74.5329160  68.0488510 126.7773350  75.8100660
  72.6743970 130.6164810  59.3834730  72.3885480 130.2029950  58.5688910
  72.4763520 131.5452520  59.2635250  64.1391200 126.6098090  57.8240340
  64.0341840 125.9950440  58.5501720  63.9715420 126.0863980  57.0403350
  67.3793930 125.6718120  58.4282330  66.8304030 126.1187420  59.0725070
  68.0013190 125.1667370  58.9520000  71.4328870 127.0260220  74.3604590
  72.1738340 127.3635980  73.8572050  70.6701550 127.1952280  73.8074360
  59.2690660 122.0313490  75.1644120  59.3096000 121.7327360  76.0729350
  60.1236160 122.4321100  75.0051640  63.0469050 124.6309040  60.3247630
  63.4685470 124.4648910  61.1679020  63.1719890 123.8209270  59.8302770
  61.2096470 120.6105590  73.1318610  60.6792930 120.1196540  72.5041950
  61.8784540 121.0389790  72.5976540  65.5596690 123.6546650  57.5724730
  66.0802350 122.9395670  57.2065880  66.2065090 124.2932520  57.8725240
  70.1074530 125.0775050  72.8959800  70.5215550 125.2320130  73.7450220
  69.1725530 125.2030270  73.0585580  64.8689760 125.0295530  70.8655730
  65.2877870 125.8728260  70.6931970  63.9498390 125.1667570  70.6362510
  61.9427950 120.7042270  57.2705790  61.7417010 119.8409630  57.6319130
  61.7720000 120.6175630  56.3327390  62.7197180 131.3348540  71.9813460
  62.1818270 132.0594600  71.6622160  62.9731140 130.8578880  71.1910800
  69.4216260 115.5150500  59.7992670  69.7018550 114.6718400  60.1552090
  68.6481990 115.7473610  60.3131420  65.5759390 132.5699750  72.2400110
  65.5018090 133.4734890  72.5472480  64.6738230 132.2511650  72.2122180
  66.1244720 131.7358260  59.8626470  67.0195510 132.0743230  59.8845230
  66.1562350 131.0137670  59.2350750  59.7640880 127.1085310  58.0913470
  60.2015750 127.6514980  58.7471050  60.2488610 126.2832260  58.1009810
  56.9786680 129.8974340  65.5433730  57.3089690 129.0295400  65.3112370
  57.4077680 130.1032860  66.3738690  61.5748600 128.2283350  63.2035700
  61.2744140 128.1048320  64.1039610  61.4686090 127.3691940  62.7951430
  57.4676890 130.7644930  68.2815360  57.0307880 130.9445730  69.1139510
  58.0354570 131.5219550  68.1397080  73.1039070 130.2661930  72.5692670
  72.5041060 130.3254490  71.8256590  73.2332970 129.3266910  72.6989520
  74.3440520 128.0079750  57.9062380  73.5133480 128.0756400  58.3769610
  74.5212350 128.8983870  57.6029240  73.7996980 124.7527230  60.4096580
  74.5615890 125.3223880  60.5156270  73.8151350 124.1854430  61.1804890
  74.8056950 125.6077330  65.2538510  75.1765780 124.8244650  64.8474480
  75.4458880 126.2966430  65.0755810  71.7890710 126.9913910  70.6668830
  70.9750550 127.4211070  70.9294620  72.1964910 127.6032320  70.0537880
  73.8516150 125.0461600  57.5669100  74.1264990 125.9540480  57.4388320
  73.6626890 124.9824130  58.5031090  70.2491760 118.0706450  58.8622730
  70.6676640 117.8837430  58.0219390  69.9427820 117.2185500  59.1725660
  73.7481490 122.9830590  62.5598530  73.3725090 122.2158520  62.1279820
  73.0184610 123.3653290  63.0473460  73.1381110 122.1302110  72.1938050
  72.9067200 121.9014860  71.2936000  73.3985660 123.0501660  72.1482940
  57.8893250 120.5726820  73.0866000  56.9949300 120.5393580  73.4259710
  58.4290800 120.7713610  73.8517250  71.5769180 117.3558540  74.9717750
  72.4539360 117.3641940  75.3551750  71.5890020 116.6189380  74.3610100
  56.5139400 120.4864090  60.5829570  55.6103480 120.7494290  60.4081230
  56.9980020 120.7575260  59.8029530  73.0232450 121.2088080  65.8605770
  73.5469930 120.7150730  65.2295940  73.6091870 121.3438440  66.6053340
  73.2022170 121.2927950  69.3825320  72.2524880 121.2591490  69.4970310
  73.3835180 122.2028060  69.1475090  59.0566610 119.5429630  58.4923950
  59.7658310 119.1212850  58.0071230  58.3406550 119.6104860  57.8607300
  72.5132420 120.4661430  61.7998180  73.0091540 120.2332300  62.5847060
  72.3148490 119.6273270  61.3835820  58.3932960 114.8475150  67.4349220
  59.0409150 114.2972530  66.9944380  58.8134800 115.1018300  68.2565030
  73.9419580 119.1022380  64.3335860  73.8318860 118.9478420  65.2718130
  74.7027170 118.5743320  64.0911270  74.8309850 116.9330300  57.5742000
  75.7559160 116.8011480  57.3660290  74.8085640 117.0123120  58.5278450
  74.9048340 117.7040960  60.1998710  74.1099840 117.6386080  60.7291620
  75.1091620 118.6391600  60.1884060  71.8466760 131.7432510  64.1937100
  72.4425830 131.4217080  63.5171520  72.1044910 131.2704330  64.9850370
  63.4535360 129.7310010  69.9437450  63.2126720 129.9984570  69.0567970
  64.3938000 129.9015740  69.9988310  65.6589780 116.1942700  73.6993960
  65.5978670 116.7864530  74.4489370  66.5990160 116.0868660  73.5544220
  68.2964340 115.8512760  73.3386250  68.9104750 116.1692050  72.6767330
  68.8413900 115.3661350  73.9582110  74.7139520 131.7504390  70.7448090
  74.2197800 132.1473260  70.0275220  74.1052810 131.1253600  71.1385370
  59.5917360 131.1212670  71.4625510  58.9977680 130.9897370  72.2015550
  59.5841200 130.2850810  70.9967610  69.0372380 114.4144900  69.6655540
  68.1632220 114.7480010  69.4628470  68.9283130 113.9418080  70.4907410
  69.9444360 116.6215770  71.0497260  69.6157720 115.8067530  70.6698990
  70.8926660 116.5785580  70.9262950  62.8274690 130.7016050  67.1982960
  63.3439710 130.0903410  66.6731220  63.4772070 131.2044830  67.6893970
  65.5670190 131.5924540  68.0251940  65.8548000 131.3378840  67.1484950
  66.0793410 131.0401900  68.6157510  66.7847200 115.3314740  68.6048450
  66.0018990 115.8060240  68.8845210  66.4910130 114.4269570  68.4961630
  71.3368270 116.0337840  66.6497540  71.7776360 115.9782940  65.8019140
  71.0675860 116.9495850  66.7207720  73.2006840 115.6653080  64.6606360
  73.1395240 114.7214300  64.5137380  73.9798870 115.7733170  65.2059820
  57.5059590 131.8045440  63.6230310  57.3381630 131.1716120  64.3212200
  56.6394100 132.0104840  63.2724500  64.6701420 117.7501490  64.1164480
  63.8575930 117.3758380  63.7760360  65.1743060 116.9946570  64.4185670
  69.1726400 114.4143940  65.3547550  69.7755770 114.9864150  65.8296070
  68.4319390 114.9783380  65.1321450  72.3161000 114.8165500  60.6287830
  72.5111630 115.7148950  60.8955260  71.5290870 114.5852580  61.1220780
  59.1122290 130.4978670  61.0680450  58.5869910 130.8786700  60.3642410
  59.0366870 131.1229440  61.7890160  73.8687610 132.0566210  62.3894390
  74.0439800 131.3703950  61.7455310  73.1709180 132.5813260  61.9971060
  61.7115260 132.4461050  59.9429700  62.4434080 132.1620330  59.3953590
  61.9708930 132.2074330  60.8329080  60.8730050 128.5625780  59.9476030
  60.2438930 129.0310880  60.4961860  60.9877880 127.7175000  60.3822220
  69.4221620 114.5938970  75.7342490  69.3087070 114.9133580  76.6294010
  70.2391360 114.9951480  75.4379770  68.3279770 122.6131440  46.0977230
  68.2473820 121.6986050  45.8268940  67.9144190 123.1098510  45.3916940
  66.4597810 124.3910460  47.9786500  65.6839910 123.9110900  48.2685070
  67.1110740 123.7116110  47.8042660  60.4763640 124.7030270  48.8562260
  59.6448520 124.4478980  49.2558770  61.0844620 124.7741040  49.5920180
  70.4805240 128.7970650  46.7585630  70.0186770 128.0257890  47.0872800
  71.2930790 128.8236720  47.2638080  56.8488600 122.2637810  48.5244350
  57.4204710 121.4960010  48.5247990  56.8490140 122.5626570  47.6150960
  66.7068550 131.0828660  46.3789620  66.0879990 131.5386160  45.8084060
  67.5620330 131.2380120  45.9779320  65.9006800 127.0667650  47.9856660
  65.8315080 126.1257590  47.8245790  66.6626660 127.1569060  48.5579230
  66.9311970 119.8738030  48.2125590  67.3076790 119.0009910  48.0999260
  66.8331480 120.2096730  47.3216030  70.7136090 117.3688470  45.1453930
  71.5345710 116.8785040  45.1879410  70.7470170 117.9586130  45.8985770
  58.7100140 120.1682670  48.9195620  59.3910250 120.4321040  49.5383020
  58.3948190 119.3283540  49.2533630  67.5731900 125.9667900  43.7721530
  66.9549170 126.4317350  43.2084250  68.0855150 126.6595380  44.1891040
  62.4363660 125.4943770  50.4505130  62.1033040 126.1212690  51.0926200
  62.6130340 126.0205650  49.6706800  70.9497570 119.3088850  47.9181470
  70.2453140 119.5973740  48.4984580  71.3109730 120.1188960  47.5581030
  72.5660350 128.9263980  50.1808950  71.8823870 129.5963090  50.1725620
  73.1054640 129.1244630  49.4153810  74.0184490 118.7543640  48.3090680
  73.0709400 118.7882620  48.4406110  74.3434480 119.5682590  48.6940040
  70.1019090 130.7708110  48.8954130  70.1146250 130.3670400  48.0276390
  69.5494310 131.5455400  48.7915560  71.3964510 127.4924330  43.9844300
  71.2860840 126.5498660  44.1093720  71.3932760 127.8539970  44.8707060
  69.5004530 125.6737950  50.2236740  69.9173320 125.4598060  49.3890200
  70.2244350 125.9310740  50.7945360  66.9384790 123.1189650  43.3406790
  66.0114070 123.0527030  43.5695260  67.0909610 124.0569780  43.2262030
  66.9253870 119.3906650  40.3373950  65.9857540 119.5520610  40.4226410
  67.2437130 120.1092330  39.7909940  73.4466630 124.0725170  50.3152980
  72.6185260 124.1418260  49.8403110  74.0417110 124.6579480  49.8468810
  70.9682080 124.6809950  43.8442040  70.3494500 124.3429500  43.1968340
  70.9506530 124.0369710  44.5521230  70.4108640 120.8594490  51.2607850
  69.9979820 121.6848200  51.5147840  69.6784590 120.2739530  51.0684210
  62.5441430 123.6454390  46.1226520  62.1398430 122.9331640  45.6272420
  62.6304550 123.3007630  47.0114560  63.0123130 127.3321950  48.2865730
  62.7151420 126.7267420  47.6073510  63.9622950 127.3699260  48.1755090
  71.1008740 130.9053820  51.9488830  70.6239300 131.7126010  51.7561440
  70.4170530 130.2532150  52.1015040  62.1041560 127.0703640  54.9373530
  61.2070090 127.2943610  55.1846930  62.1294430 127.1938580  53.9884930
  69.1446780 123.9196760  40.8514790  69.5840060 123.0819190  40.7052610
  69.8575200 124.5526160  40.9378930  60.9312780 123.9416960  53.5130900
  60.7920550 124.8139760  53.8818300  60.0494140 123.5989770  53.3678840
  67.2542160 128.8592830  44.8196030  67.6938070 129.6017160  44.4051420
  67.1929050 129.1019400  45.7434990  62.7293130 129.8838660  55.7216050
  62.7008560 130.2881610  54.8544480  62.5658100 128.9549020  55.5587650
  74.6807950 130.6665760  57.0180220  75.1567670 131.1448650  57.6969300
  75.3015110 130.5983250  56.2925720  56.8831430 125.7114510  49.4301810
  56.9611850 125.8463280  48.4857530  57.4973110 125.0030400  49.6229930
  74.0841200 127.8578610  54.1780230  74.2104260 127.6190490  53.2597410
  74.1262580 127.0263150  54.6502310  67.9457940 131.5606610  52.7475040
  68.4602610 131.4714620  53.5497470  67.1027020 131.9066310  53.0402950
  69.9212340 131.8461950  42.1759040  69.7613480 131.5564890  43.0740870
  69.7559050 131.0702080  41.6404270  62.4000720 131.6260480  43.9530660
  62.2243200 130.7096020  43.7398460  61.5456460 131.9847770  44.1928460
  69.6238470 129.3549510  40.7357040  68.9303630 129.3526800  40.0759320
  70.3661330 128.9308830  40.3051210  69.1888400 130.9812220  44.8105530
  69.6445350 130.2001600  45.1244150  69.5280920 131.6919040  45.3546710
  73.9365210 119.9111070  55.1429970  73.3209480 120.4190740  54.6145430
  73.6161630 119.0109400  55.0855910  65.9979530 118.7502960  52.6092160
  65.5358900 118.9585980  53.4212100  65.5957640 117.9362310  52.3062830
  70.9984040 119.9711910  53.7388820  70.1477630 119.6717660  54.0597890
  70.8385830 120.2153920  52.8272640  68.0933750 121.4713660  55.8387610
  68.4187160 120.6377410  55.4989840  68.8814080 121.9942180  55.9865940
  64.8268540 115.5045140  41.8862670  64.2022720 115.5005010  42.6115980
  64.7398660 114.6376100  41.4898640  61.5023940 121.0068010  44.7338090
  61.2764860 120.7905180  45.6384710  60.7216470 121.4396470  44.3884060
  68.7321700 121.0131380  43.3328740  68.1330590 121.7367180  43.1492360
  69.2801310 120.9508160  42.5505190  63.9423150 121.9053590  55.3998360
  63.8466750 120.9648320  55.2498760  64.7855130 122.1268660  55.0046430
  67.3386570 119.6494920  45.3632020  67.7316140 119.9667120  44.5500710
  67.7003420 118.7706800  45.4776540  59.0733690 118.3167260  53.5532140
  58.6797080 119.1642470  53.7604920  58.3852090 117.6793630  53.7440780
  56.5620970 120.1815840  38.7964940  56.4795640 121.1246600  38.9379930
  56.2104030 120.0390750  37.9177290  67.9241710 122.2400670  49.4582800
  67.1922830 122.7487480  49.8072900  67.5266050 121.4230650  49.1571580
  64.4239250 119.9166950  40.8542050  64.5452070 119.8753430  41.8027870
  64.0387760 120.7791100  40.6988780  68.3867620 117.6934350  48.8705740
  68.4040360 118.1443000  49.7147590  68.1383200 116.7939990  49.0839180
  63.4360750 122.2268090  40.2525350  62.8677650 121.7786340  39.6261260
  64.1449750 122.5860870  39.7190500  58.5129930 126.1280110  54.1292080
  58.1284720 125.4873780  54.7275040  58.8242120 126.8316230  54.6986810
  64.6627070 122.9756650  49.6100700  65.0297200 122.5015220  50.3562040
  64.4732130 123.8498220  49.9509040  62.4526440 122.0165290  51.9284910
  62.1483510 122.8957270  52.1535270  63.4072900 122.0765080  51.9642350
  60.9808230 126.2226280  42.5251760  60.2070490 125.6823900  42.3650480
  61.7102860 125.7032890  42.1869520  71.7396210 125.2191640  48.3178150
  72.4595330 125.7146930  47.9274260  71.5378030 124.5409530  47.6732020
  67.2006150 116.6129600  42.4607540  66.3870760 116.1142770  42.3852850
  67.0068100 117.4527850  42.0443890  67.1215010 125.2900700  54.2047150
  67.0552320 124.3696370  53.9504740  66.4920150 125.3876140  54.9191790
  69.9154540 120.9849250  40.7569700  70.8034160 121.2966480  40.5821040
  69.8859630 120.1121500  40.3650280  61.0245630 125.8906660  46.1630570
  61.5424300 125.0874920  46.1087460  60.5729650 125.8285800  47.0047400
  65.9115130 127.1572940  41.4357870  66.2530830 127.9015170  40.9401190
  65.0827840 127.4704060  41.7982700  58.5090170 122.8568030  53.0756270
  58.1505110 123.5221880  53.6629610  58.2144730 122.0251580  53.4468890
  61.7103290 123.3152270  55.9595820  61.4103430 123.4609450  55.0623640
  62.4814530 122.7557560  55.8669210  67.0531740 128.1121270  53.9550950
  67.0676280 127.1802230  53.7369860  66.3456840 128.1981030  54.5940720
  73.2642950 124.7528610  53.3019530  72.5391140 125.3457390  53.1048920
  73.7918410 124.7452150  52.5032900  73.2156060 129.1503350  42.9531690
  72.5732220 128.4958970  43.2275410  72.8286720 129.5558440  42.1772360
  68.7942540 126.4788780  46.8003380  69.1466360 125.8816910  46.1404750
  67.9104870 126.1533010  46.9711630  64.8805820 127.2386470  44.2073790
  65.5676950 127.7855680  44.5881380  64.0938240 127.7827200  44.2423400
  57.0198220 122.8559290  39.6990870  57.8893070 123.1384090  39.9826790
  56.5288540 123.6695160  39.5839680  64.1833030 124.2432500  43.8199150
  64.6395810 125.0537750  44.0459340  63.8321240 123.9255640  44.6517640
  66.4865640 129.7538840  51.0491450  67.1307860 129.9598220  51.7264870
  66.8495080 128.9927240  50.5962300  60.0844810 114.5870150  44.2921670
  59.9559440 114.5788050  45.2406590  59.2606830 114.9253240  43.9412680
  67.7597720 127.7571190  49.7668900  68.4019950 127.0564350  49.8801070
  68.2847070 128.5369630  49.5865790  71.6053440 128.0419810  39.4908040
  71.3791020 127.3250250  40.0832680  71.2149640 127.7932250  38.6529790
  69.5335340 128.5566090  52.9704960  69.8691580 129.1432780  53.6482880
  68.6135680 128.4258800  53.2002750  57.3869470 132.0686670  40.2652500
  57.7467110 132.6676010  39.6109770  57.2461810 132.6146560  41.0387530
  57.0838740 116.3461270  53.7528370  56.3697260 116.5458190  54.3580980
  57.5033780 115.5700840  54.1243170  71.1869690 125.9591750  41.1522200
  70.8991390 126.4204440  41.9400080  71.9821860 125.4989520  41.4206420
  57.3711330 130.3341530  54.7394900  57.4802450 129.3936270  54.5990290
  56.7191890 130.5996280  54.0908630  65.3623920 128.6057420  56.1393020
  65.0420790 127.8866660  56.6838710  64.6882280 129.2812490  56.2129080
  63.4038090 129.4517870  41.0826170  63.3948190 130.1847560  40.4670680
  62.4836450 129.2049450  41.1753130  59.0044730 124.6732760  41.8272930
  58.3972680 125.4131660  41.8368230  59.4794080 124.7632120  41.0011130
  68.5777520 118.8383580  51.5029820  68.9458340 118.0178790  51.8309390
  67.7175720 118.8985470  51.9185470  71.9439550 117.7940520  42.3117380
  71.3152710 117.8986190  41.5975610  71.4491470 118.0137300  43.1011260
  66.3897690 129.5146110  39.7451360  66.4909670 129.3110100  38.8153340
  65.4899430 129.2604390  39.9499140  63.9123580 120.0726470  43.7275260
  63.2039730 120.5412810  44.1688870  64.1968060 119.4148480  44.3620450
  65.5379510 121.4923170  51.7267790  66.0364760 121.9668990  52.3919640
  65.6802460 120.5686690  51.9337820  65.0315800 132.0332430  44.4399030
  65.2857300 131.9953820  43.5178400  64.0828280 131.9065760  44.4327280
  62.1158600 118.3811550  41.1025970  62.9649130 118.8181700  41.0366160
  61.7489870 118.6931810  41.9298030  72.7446370 117.7091130  52.5696180
  72.2419970 118.4496530  52.9089990  73.5603030 118.0975130  52.2532970
  71.0368380 122.9524310  46.0157540  70.0958520 122.9674540  46.1905230
  71.3512450 122.1660270  46.4617840  61.0150020 124.6343910  39.5761500
  61.7813290 124.5225270  40.1386930  61.0924710 123.9381880  38.9238270
  59.7096780 122.0668980  40.2594390  59.7900370 121.1196490  40.3711790
  60.6016530 122.3975860  40.3655050  73.0393960 130.1233160  47.6911800
  73.1641380 130.9464330  48.1635610  73.9059520 129.9123890  47.3435950
  60.5111490 132.2164370  47.3628930  61.2473970 131.6679830  47.6337500
  60.8952410 133.0820380  47.2234920  59.5169770 131.4010440  56.5514510
  60.3182500 131.7222490  56.9649910  59.0021590 131.0406020  57.2734420
  63.6213800 131.3894680  39.1854500  64.4142410 131.6783510  38.7336290
  63.1018150 130.9586850  38.5066980  68.3534400 127.5090310  56.4989920
  67.7472560 127.5321910  55.7585670  68.0488510 126.7773350  57.0357170
  69.7834770 131.2370600  55.1099330  70.7356520 131.1528620  55.0599570
  69.6362990 131.9012310  55.7833120  72.6743970 130.6164810  40.6091240
  72.3885480 130.2029950  39.7945420  72.4763520 131.5452520  40.4891760
  64.1391200 126.6098090  39.0496850  64.0341840 125.9950440  39.7758230
  63.9715420 126.0863980  38.2659860  64.2905520 125.2954890  55.0286080
  63.5251190 125.8639890  54.9440750  64.4721480 125.0031100  54.1354310
  67.3793930 125.6718120  39.6538840  66.8304030 126.1187420  40.2981580
  68.0013190 125.1667370  40.1776510  71.4328870 127.0260220  55.5861100
  72.1738340 127.3635980  55.0828560  70.6701550 127.1952280  55.0330870
  59.2690660 122.0313490  56.3900630  59.3096000 121.7327360  57.2985860
  60.1236160 122.4321100  56.2308150  63.0469050 124.6309040  41.5504140
  63.4685470 124.4648910  42.3935530  63.1719890 123.8209270  41.0559280
  61.2096470 120.6105590  54.3575120  60.6792930 120.1196540  53.7298460
  61.8784540 121.0389790  53.8233050  65.5596690 123.6546650  38.7981240
  66.0802350 122.9395670  38.4322390  66.2065090 124.2932520  39.0981750
  70.1074530 125.0775050  54.1216310  70.5215550 125.2320130  54.9706730
  69.1725530 125.2030270  54.2842090  70.5796700 122.4171210  56.1255460
  71.1617470 121.6623530  56.0375940  70.7558470 122.9478650  55.3486940
  64.8689760 125.0295530  52.0912240  65.2877870 125.8728260  51.9188480
  63.9498390 125.1667570  51.8619020  67.2053660 122.7611710  53.4750080
  67.3249870 122.1652850  54.2144920  68.0647660 122.7981400  53.0551380
  69.5441560 123.3148900  52.0512590  69.0176780 123.8391520  51.4477730
  69.8872900 123.9476290  52.6822320  61.9427950 120.7042270  38.4962300
  61.7417010 119.8409630  38.8575640  61.7720000 120.6175630  37.5583900
  62.7197180 131.3348540  53.2069970  62.1818270 132.0594600  52.8878670
  62.9731140 130.8578880  52.4167310  63.9722430 119.3033060  54.7325900
  64.5622120 118.9948910  55.4203720  63.1542670 118.8312810  54.8885800
  68.7915860 118.9198870  54.9658920  68.1031380 118.2580410  54.9008910
  69.5121880 118.4737140  55.4107380  69.4216260 115.5150500  41.0249180
  69.7018550 114.6718400  41.3808600  68.6481990 115.7473610  41.5387930
  60.7410750 117.8042890  38.4840180  61.0436650 117.8110320  37.5759330
  61.4805340 117.4540750  38.9807840  65.5759390 132.5699750  53.4656620
  65.5018090 133.4734890  53.7728990  64.6738230 132.2511650  53.4378690
  63.9595680 116.7477510  39.4696380  63.6117680 116.0701500  38.8898830
  64.1608450 116.2867020  40.2839770  66.1244720 131.7358260  41.0882980
  67.0195510 132.0743230  41.1101740  66.1562350 131.0137670  40.4607260
  59.7640880 127.1085310  39.3169980  60.2015750 127.6514980  39.9727560
  60.2488610 126.2832260  39.3266320  73.1039070 130.2661930  53.7949180
  72.5041060 130.3254490  53.0513100  73.2332970 129.3266910  53.9246030
  74.3440520 128.0079750  39.1318890  73.5133480 128.0756400  39.6026120
  74.5212350 128.8983870  38.8285750  73.7996980 124.7527230  41.6353090
  74.5615890 125.3223880  41.7412780  73.8151350 124.1854430  42.4061400
  74.8056950 125.6077330  46.4795020  75.1765780 124.8244650  46.0730990
  75.4458880 126.2966430  46.3012320  71.7890710 126.9913910  51.8925340
  70.9750550 127.4211070  52.1551130  72.1964910 127.6032320  51.2794390
  70.2491760 118.0706450  40.0879240  70.6676640 117.8837430  39.2475900
  69.9427820 117.2185500  40.3982170  73.7481490 122.9830590  43.7855040
  73.3725090 122.2158520  43.3536330  73.0184610 123.3653290  44.2729970
  58.3377250 123.6617730  50.4064090  58.7050290 123.5745130  51.2860110
  57.7688070 122.8984280  50.3070950  73.1381110 122.1302110  53.4194560
  72.9067200 121.9014860  52.5192510  73.3985660 123.0501660  53.3739450
  57.8893250 120.5726820  54.3122510  56.9949300 120.5393580  54.6516220
  58.4290800 120.7713610  55.0773760  71.5769180 117.3558540  56.1974260
  72.4539360 117.3641940  56.5808260  71.5890020 116.6189380  55.5866610
  73.0232450 121.2088080  47.0862280  73.5469930 120.7150730  46.4552450
  73.6091870 121.3438440  47.8309850  73.2022170 121.2927950  50.6081830
  72.2524880 121.2591490  50.7226820  73.3835180 122.2028060  50.3731600
  58.7040770 115.5968960  38.7583110  59.4268900 116.1377900  39.0764330
  58.9765290 115.3232380  37.8824650  72.5132420 120.4661430  43.0254690
  73.0091540 120.2332300  43.8103570  72.3148490 119.6273270  42.6092330
  73.9419580 119.1022380  45.5592370  73.8318860 118.9478420  46.4974640
  74.7027170 118.5743320  45.3167780  74.9048340 117.7040960  41.4255220
  74.1099840 117.6386080  41.9548130  75.1091620 118.6391600  41.4140570
  71.8466760 131.7432510  45.4193610  72.4425830 131.4217080  44.7428030
  72.1044910 131.2704330  46.2106880  58.1464960 115.0030820  51.4031050
  57.7979780 115.4594640  52.1689230  57.8152660 114.1087950  51.4853480
  59.7529330 128.1750420  55.5684240  59.7098960 127.8043330  56.4498700
  59.8840340 129.1127990  55.7086060  74.7139520 131.7504390  51.9704600
  74.2197800 132.1473260  51.2531730  74.1052810 131.1253600  52.3641880
  58.8185600 114.5307020  54.6781820  59.3668590 114.3495070  53.9147930
  58.8840910 113.7401130  55.2138130  72.3978970 132.3927810  49.2491340
  71.9381940 133.1443620  48.8749360  71.7691430 131.6734280  49.1906140
  62.8274690 130.7016050  48.4239470  63.3439710 130.0903410  47.8987730
  63.4772070 131.2044830  48.9150480  65.5670190 131.5924540  49.2508450
  65.8548000 131.3378840  48.3741460  66.0793410 131.0401900  49.8414020
  66.7847200 115.3314740  49.8304960  66.0018990 115.8060240  50.1101720
  66.4910130 114.4269570  49.7218140  71.3368270 116.0337840  47.8754050
  71.7776360 115.9782940  47.0275650  71.0675860 116.9495850  47.9464230
  73.2006840 115.6653080  45.8862870  73.1395240 114.7214300  45.7393890
  73.9798870 115.7733170  46.4316330  72.3161000 114.8165500  41.8544340
  72.5111630 115.7148950  42.1211770  71.5290870 114.5852580  42.3477290
  60.5012760 116.1626270  40.8920650  61.0305520 115.3756070  40.7628600
  61.1341080 116.8417460  41.1256180  62.6950600 115.9001410  43.9466040
  62.0653340 115.1988720  44.1136170  62.1555740 116.6605540  43.7299200
  65.6342550 132.5140640  56.6176650  66.5609860 132.2784910  56.6612610
  65.6192980 133.3412640  56.1362680  73.8687610 132.0566210  43.6150900
  74.0439800 131.3703950  42.9711820  73.1709180 132.5813260  43.2227570
  61.7115260 132.4461050  41.1686210  62.4434080 132.1620330  40.6210100
  61.9708930 132.2074330  42.0585590  60.8730050 128.5625780  41.1732540
  60.2438930 129.0310880  41.7218370  60.9877880 127.7175000  41.6078730
  69.4221620 114.5938970  56.9599000  69.3087070 114.9133580  57.8550520
  70.2391360 114.9951480  56.6636280  72.2020110 131.7410500  56.4417690
  72.9945430 131.2459730  56.2343650  72.4953260 132.4200640  57.0493300
  68.3279770 122.6131440  27.3233740  68.2473820 121.6986050  27.0525450
  67.9144190 123.1098510  26.6173450  66.4597810 124.3910460  29.2043010
  65.6839910 123.9110900  29.4941580  67.1110740 123.7116110  29.0299170
  60.4763640 124.7030270  30.0818770  59.6448520 124.4478980  30.4815280
  61.0844620 124.7741040  30.8176690  70.4805240 128.7970650  27.9842140
  70.0186770 128.0257890  28.3129310  71.2930790 128.8236720  28.4894590
  60.4564900 128.7370360  30.2776790  60.7592940 127.8468100  30.0987010
  61.2008490 129.2940580  30.0499040  58.8855590 119.6632160  23.8661160
  57.9972290 120.0048130  23.7641040  59.1696780 119.4632480  22.9741990
  56.8488600 122.2637810  29.7500860  57.4204710 121.4960010  29.7504500
  56.8490140 122.5626570  28.8407470  66.7068550 131.0828660  27.6046130
  66.0879990 131.5386160  27.0340570  67.5620330 131.2380120  27.2035830
  65.9006800 127.0667650  29.2113170  65.8315080 126.1257590  29.0502300
  66.6626660 127.1569060  29.7835740  58.0913470 117.6722170  31.5369790
  57.9116310 116.7747920  31.8172550  57.6893550 118.2194040  32.2116740
  66.9311970 119.8738030  29.4382100  67.3076790 119.0009910  29.3255770
  66.8331480 120.2096730  28.5472540  61.0616980 118.2463660  24.8999540
  61.1683730 119.1467390  25.2068300  60.1509340 118.1981630  24.6094190
  70.7136090 117.3688470  26.3710440  71.5345710 116.8785040  26.4135920
  70.7470170 117.9586130  27.1242280  58.7100140 120.1682670  30.1452130
  59.3910250 120.4321040  30.7639530  58.3948190 119.3283540  30.4790140
  62.9024710 121.2150030  29.2324720  63.4102930 121.7131000  29.8729740
  63.4337950 120.4385230  29.0564080  75.0035640 119.3855220  32.9354070
  74.2987810 119.7736930  32.4169180  75.2693560 120.0805510  33.5375000
  61.1860810 115.8548590  33.4988140  61.1879250 116.3720980  32.6934040
  60.3565120 115.3778770  33.4758070  67.5731900 125.9667900  24.9978040
  66.9549170 126.4317350  24.4340760  68.0855150 126.6595380  25.4147550
  62.4363660 125.4943770  31.6761640  62.1033040 126.1212690  32.3182710
  62.6130340 126.0205650  30.8963310  70.9497570 119.3088850  29.1437980
  70.2453140 119.5973740  29.7241090  71.3109730 120.1188960  28.7837540
  60.8676140 117.5658550  31.5058590  61.2092950 118.4100600  31.2112460
  59.9291950 117.7142290  31.6223930  61.6482760 127.4624570  33.4910820
  62.2656760 128.1375650  33.2095270  60.7875880 127.8712550  33.3998320
  56.9415100 126.6524430  22.3717670  56.5643080 127.1411530  21.6402570
  57.1988170 127.3249710  23.0024200  72.5660350 128.9263980  31.4065460
  71.8823870 129.5963090  31.3982130  73.1054640 129.1244630  30.6410320
  64.5504030 115.0540820  27.8303180  64.8579010 114.4987710  27.1138680
  63.6204730 115.1885280  27.6476170  70.1019090 130.7708110  30.1210640
  70.1146250 130.3670400  29.2532900  69.5494310 131.5455400  30.0172070
  71.3964510 127.4924330  25.2100810  71.2860840 126.5498660  25.3350230
  71.3932760 127.8539970  26.0963570  69.5004530 125.6737950  31.4493250
  69.9173320 125.4598060  30.6146710  70.2244350 125.9310740  32.0201870
  66.9384790 123.1189650  24.5663300  66.0114070 123.0527030  24.7951770
  67.0909610 124.0569780  24.4518540  66.9253870 119.3906650  21.5630460
  65.9857540 119.5520610  21.6482920  67.2437130 120.1092330  21.0166450
  73.4466630 124.0725170  31.5409490  72.6185260 124.1418260  31.0659620
  74.0417110 124.6579480  31.0725320  70.9682080 124.6809950  25.0698550
  70.3494500 124.3429500  24.4224850  70.9506530 124.0369710  25.7777740
  70.4108640 120.8594490  32.4864360  69.9979820 121.6848200  32.7404350
  69.6784590 120.2739530  32.2940720  62.5441430 123.6454390  27.3483030
  62.1398430 122.9331640  26.8528930  62.6304550 123.3007630  28.2371070
  63.0123130 127.3321950  29.5122240  62.7151420 126.7267420  28.8330020
  63.9622950 127.3699260  29.4011600  61.2570050 120.4197600  31.1282070
  61.8084640 120.5292940  30.3535320  61.7713560 120.7935200  31.8437300
  71.1008740 130.9053820  33.1745340  70.6239300 131.7126010  32.9817950
  70.4170530 130.2532150  33.3271550  62.1041560 127.0703640  36.1630040
  61.2070090 127.2943610  36.4103440  62.1294430 127.1938580  35.2141440
  69.1446780 123.9196760  22.0771300  69.5840060 123.0819190  21.9309120
  69.8575200 124.5526160  22.1635440  60.9312780 123.9416960  34.7387410
  60.7920550 124.8139760  35.1074810  60.0494140 123.5989770  34.5935350
  67.2542160 128.8592830  26.0452540  67.6938070 129.6017160  25.6307930
  67.1929050 129.1019400  26.9691500  62.7293130 129.8838660  36.9472560
  62.7008560 130.2881610  36.0800990  62.5658100 128.9549020  36.7844160
  72.7263920 115.1739570  20.3912340  72.4136580 115.2666400  21.2911410
  73.4876390 115.7520600  20.3409770  59.2446060 122.5399370  24.8489680
  59.1243660 123.2661460  24.2370950  58.9346950 121.7702280  24.3717590
  74.6807950 130.6665760  38.2436730  75.1567670 131.1448650  38.9225810
  75.3015110 130.5983250  37.5182230  56.8831430 125.7114510  30.6558320
  56.9611850 125.8463280  29.7114040  57.4973110 125.0030400  30.8486440
  58.1279060 127.4114700  27.0664500  57.7207140 127.5529290  26.2118100
  59.0192070 127.1274860  26.8635710  74.0841200 127.8578610  35.4036740
  74.2104260 127.6190490  34.4853920  74.1262580 127.0263150  35.8758820
  67.9457940 131.5606610  33.9731550  68.4602610 131.4714620  34.7753980
  67.1027020 131.9066310  34.2659460  69.9212340 131.8461950  23.4015550
  69.7613480 131.5564890  24.2997380  69.7559050 131.0702080  22.8660780
  62.4000720 131.6260480  25.1787170  62.2243200 130.7096020  24.9654970
  61.5456460 131.9847770  25.4184970  69.6238470 129.3549510  21.9613550
  68.9303630 129.3526800  21.3015830  70.3661330 128.9308830  21.5307720
  69.1888400 130.9812220  26.0362040  69.6445350 130.2001600  26.3500660
  69.5280920 131.6919040  26.5803220  56.9390950 126.7528680  33.1952780
  57.1021990 126.2834040  32.3772150  57.4043400 126.2452240  33.8601620
  61.7109720 115.8834440  28.2313350  61.2677870 116.6643980  27.8997870
  62.2694710 116.2064330  28.9384290  65.9979530 118.7502960  33.8348670
  65.5358900 118.9585980  34.6468610  65.5957640 117.9362310  33.5319340
  70.9984040 119.9711910  34.9645330  70.1477630 119.6717660  35.2854400
  70.8385830 120.2153920  34.0529150  68.0933750 121.4713660  37.0644120
  68.4187160 120.6377410  36.7246350  68.8814080 121.9942180  37.2122450
  64.8268540 115.5045140  23.1119180  64.2022720 115.5005010  23.8372490
  64.7398660 114.6376100  22.7155150  63.7485620 116.4281770  30.0902950
  64.0457950 117.3344600  30.0094970  64.2971180 115.9400550  29.4762520
  61.5023940 121.0068010  25.9594600  61.2764860 120.7905180  26.8641220
  60.7216470 121.4396470  25.6140570  68.7321700 121.0131380  24.5585250
  68.1330590 121.7367180  24.3748870  69.2801310 120.9508160  23.7761700
  63.9423150 121.9053590  36.6254870  63.8466750 120.9648320  36.4755270
  64.7855130 122.1268660  36.2302940  67.3386570 119.6494920  26.5888530
  67.7316140 119.9667120  25.7757220  67.7003420 118.7706800  26.7033050
  59.0733690 118.3167260  34.7788650  58.6797080 119.1642470  34.9861430
  58.3852090 117.6793630  34.9697290  65.6478740 118.4002230  37.8485390
  64.9577060 118.2074430  38.4831480  66.3911040 118.6836870  38.3809690
  56.3750740 116.2395720  28.8118730  56.0863790 116.8098580  29.5243710
  57.1196500 115.7600170  29.1749960  56.5620970 120.1815840  20.0221450
  56.4795640 121.1246600  20.1636440  56.2104030 120.0390750  19.1433800
  67.9241710 122.2400670  30.6839310  67.1922830 122.7487480  31.0329410
  67.5266050 121.4230650  30.3828090  64.3619100 118.9154870  29.0891800
  64.3655160 118.4744820  28.2396340  65.2570220 119.2372200  29.1963620
  60.2121480 118.7981360  28.0486010  59.8721530 119.2756590  28.8053060
  59.4498800 118.3446480  27.6887110  64.4239250 119.9166950  22.0798560
  64.5452070 119.8753430  23.0284380  64.0387760 120.7791100  21.9245290
  63.4360750 122.2268090  21.4781860  62.8677650 121.7786340  20.8517770
  64.1449750 122.5860870  20.9447010  71.8138370 115.1066530  35.9348630
  72.1384140 114.3756190  36.4606610  71.8494880 114.7880170  35.0329620
  58.5129930 126.1280110  35.3548590  58.1284720 125.4873780  35.9531550
  58.8242120 126.8316230  35.9243320  64.6627070 122.9756650  30.8357210
  65.0297200 122.5015220  31.5818550  64.4732130 123.8498220  31.1765550
  57.5267560 117.7200340  26.9650680  57.2414480 117.3556010  27.8029300
  57.4646420 116.9880800  26.3513820  62.4526440 122.0165290  33.1541420
  62.1483510 122.8957270  33.3791780  63.4072900 122.0765080  33.1898860
  60.9808230 126.2226280  23.7508270  60.2070490 125.6823900  23.5906990
  61.7102860 125.7032890  23.4126030  71.7396210 125.2191640  29.5434660
  72.4595330 125.7146930  29.1530770  71.5378030 124.5409530  28.8988530
  67.2006150 116.6129600  23.6864050  66.3870760 116.1142770  23.6109360
  67.0068100 117.4527850  23.2700400  67.1215010 125.2900700  35.4303660
  67.0552320 124.3696370  35.1761250  66.4920150 125.3876140  36.1448300
  69.9154540 120.9849250  21.9826210  70.8034160 121.2966480  21.8077550
  69.8859630 120.1121500  21.5906790  61.0245630 125.8906660  27.3887080
  61.5424300 125.0874920  27.3343970  60.5729650 125.8285800  28.2303910
  65.9115130 127.1572940  22.6614380  66.2530830 127.9015170  22.1657700
  65.0827840 127.4704060  23.0239210  58.5090170 122.8568030  34.3012780
  58.1505110 123.5221880  34.8886120  58.2144730 122.0251580  34.6725400
  61.7103290 123.3152270  37.1852330  61.4103430 123.4609450  36.2880150
  62.4814530 122.7557560  37.0925720  67.0531740 128.1121270  35.1807460
  67.0676280 127.1802230  34.9626370  66.3456840 128.1981030  35.8197230
  72.1868810 122.2961090  21.4506070  72.1032530 122.7275310  20.6002510
  72.9063000 122.7559440  21.8832890  73.2642950 124.7528610  34.5276040
  72.5391140 125.3457390  34.3305430  73.7918410 124.7452150  33.7289410
  73.2156060 129.1503350  24.1788200  72.5732220 128.4958970  24.4531920
  72.8286720 129.5558440  23.4028870  68.7942540 126.4788780  28.0259890
  69.1466360 125.8816910  27.3661260  67.9104870 126.1533010  28.1968140
  64.8805820 127.2386470  25.4330300  65.5676950 127.7855680  25.8137890
  64.0938240 127.7827200  25.4679910  57.0198220 122.8559290  20.9247380
  57.8893070 123.1384090  21.2083300  56.5288540 123.6695160  20.8096190
  64.1833030 124.2432500  25.0455660  64.6395810 125.0537750  25.2715850
  63.8321240 123.9255640  25.8774150  66.4865640 129.7538840  32.2747960
  67.1307860 129.9598220  32.9521380  66.8495080 128.9927240  31.8218810
  60.0844810 114.5870150  25.5178180  59.9559440 114.5788050  26.4663100
  59.2606830 114.9253240  25.1669190  67.7597720 127.7571190  30.9925410
  68.4019950 127.0564350  31.1057580  68.2847070 128.5369630  30.8122300
  71.6053440 128.0419810  20.7164550  71.3791020 127.3250250  21.3089190
  71.2149640 127.7932250  19.8786300  69.5335340 128.5566090  34.1961470
  69.8691580 129.1432780  34.8739390  68.6135680 128.4258800  34.4259260
  57.3869470 132.0686670  21.4909010  57.7467110 132.6676010  20.8366280
  57.2461810 132.6146560  22.2644040  57.0838740 116.3461270  34.9784880
  56.3697260 116.5458190  35.5837490  57.5033780 115.5700840  35.3499680
  71.1869690 125.9591750  22.3778710  70.8991390 126.4204440  23.1656590
  71.9821860 125.4989520  22.6462930  57.3711330 130.3341530  35.9651410
  57.4802450 129.3936270  35.8246800  56.7191890 130.5996280  35.3165140
  65.3623920 128.6057420  37.3649530  65.0420790 127.8866660  37.9095220
  64.6882280 129.2812490  37.4385590  63.4038090 129.4517870  22.3082680
  63.3948190 130.1847560  21.6927190  62.4836450 129.2049450  22.4009640
  59.0044730 124.6732760  23.0529440  58.3972680 125.4131660  23.0624740
  59.4794080 124.7632120  22.2267640  68.5777520 118.8383580  32.7286330
  68.9458340 118.0178790  33.0565900  67.7175720 118.8985470  33.1441980
  71.9439550 117.7940520  23.5373890  71.3152710 117.8986190  22.8232120
  71.4491470 118.0137300  24.3267770  66.3897690 129.5146110  20.9707870
  66.4909670 129.3110100  20.0409850  65.4899430 129.2604390  21.1755650
  63.9123580 120.0726470  24.9531770  63.2039730 120.5412810  25.3945380
  64.1968060 119.4148480  25.5876960  65.5379510 121.4923170  32.9524300
  66.0364760 121.9668990  33.6176150  65.6802460 120.5686690  33.1594330
  65.0315800 132.0332430  25.6655540  65.2857300 131.9953820  24.7434910
  64.0828280 131.9065760  25.6583790  62.1158600 118.3811550  22.3282480
  62.9649130 118.8181700  22.2622670  61.7489870 118.6931810  23.1554540
  72.7446370 117.7091130  33.7952690  72.2419970 118.4496530  34.1346500
  73.5603030 118.0975130  33.4789480  71.0368380 122.9524310  27.2414050
  70.0958520 122.9674540  27.4161740  71.3512450 122.1660270  27.6874350
  61.0150020 124.6343910  20.8018010  61.7813290 124.5225270  21.3643440
  61.0924710 123.9381880  20.1494780  59.7096780 122.0668980  21.4850900
  59.7900370 121.1196490  21.5968300  60.6016530 122.3975860  21.5911560
  73.0393960 130.1233160  28.9168310  73.1641380 130.9464330  29.3892120
  73.9059520 129.9123890  28.5692460  60.5111490 132.2164370  28.5885440
  61.2473970 131.6679830  28.8594010  60.8952410 133.0820380  28.4491430
  57.3956970 128.2837940  24.4626950  56.4696750 128.5259080  24.4532360
  57.8613400 129.1112200  24.3411700  59.5169770 131.4010440  37.7771020
  60.3182500 131.7222490  38.1906420  59.0021590 131.0406020  38.4990930
  63.6213800 131.3894680  20.4111010  64.4142410 131.6783510  19.9592800
  63.1018150 130.9586850  19.7323490  68.3534400 127.5090310  37.7246430
  67.7472560 127.5321910  36.9842180  68.0488510 126.7773350  38.2613680
  69.7834770 131.2370600  36.3355840  70.7356520 131.1528620  36.2856080
  69.6362990 131.9012310  37.0089630  72.6743970 130.6164810  21.8347750
  72.3885480 130.2029950  21.0201930  72.4763520 131.5452520  21.7148270
  57.2367580 123.8883900  36.7207070  57.7406600 123.3091180  37.2923300
  56.4975000 124.1724130  37.2583440  64.1391200 126.6098090  20.2753360
  64.0341840 125.9950440  21.0014740  63.9715420 126.0863980  19.4916370
  64.2905520 125.2954890  36.2542590  63.5251190 125.8639890  36.1697260
  64.4721480 125.0031100  35.3610820  67.3793930 125.6718120  20.8795350
  66.8304030 126.1187420  21.5238090  68.0013190 125.1667370  21.4033020
  71.4328870 127.0260220  36.8117610  72.1738340 127.3635980  36.3085070
  70.6701550 127.1952280  36.2587380  59.2690660 122.0313490  37.6157140
  59.3096000 121.7327360  38.5242370  60.1236160 122.4321100  37.4564660
  63.0469050 124.6309040  22.7760650  63.4685470 124.4648910  23.6192040
  63.1719890 123.8209270  22.2815790  61.2096470 120.6105590  35.5831630
  60.6792930 120.1196540  34.9554970  61.8784540 121.0389790  35.0489560
  65.5596690 123.6546650  20.0237750  66.0802350 122.9395670  19.6578900
  66.2065090 124.2932520  20.3238260  70.1074530 125.0775050  35.3472820
  70.5215550 125.2320130  36.1963240  69.1725530 125.2030270  35.5098600
  70.5796700 122.4171210  37.3511970  71.1617470 121.6623530  37.2632450
  70.7558470 122.9478650  36.5743450  61.6968770 117.5767960  35.6628920
  61.6025640 116.9588710  34.9379790  61.1166160 118.3034250  35.4358830
  64.4630210 116.1341200  32.6956310  64.0147510 116.1565460  31.8501860
  63.8295410 115.7360220  33.2926610  64.8689760 125.0295530  33.3168750
  65.2877870 125.8728260  33.1444990  63.9498390 125.1667570  33.0875530
  67.2053660 122.7611710  34.7006590  67.3249870 122.1652850  35.4401430
  68.0647660 122.7981400  34.2807890  69.5441560 123.3148900  33.2769100
  69.0176780 123.8391520  32.6734240  69.8872900 123.9476290  33.9078830
  61.9427950 120.7042270  19.7218810  61.7417010 119.8409630  20.0832150
  61.7720000 120.6175630  18.7840410  62.7197180 131.3348540  34.4326480
  62.1818270 132.0594600  34.1135180  62.9731140 130.8578880  33.6423820
  63.9722430 119.3033060  35.9582410  64.5622120 118.9948910  36.6460230
  63.1542670 118.8312810  36.1142310  68.7915860 118.9198870  36.1915430
  68.1031380 118.2580410  36.1265420  69.5121880 118.4737140  36.6363890
  69.4216260 115.5150500  22.2505690  69.7018550 114.6718400  22.6065110
  68.6481990 115.7473610  22.7644440  60.7410750 117.8042890  19.7096690
  61.0436650 117.8110320  18.8015840  61.4805340 117.4540750  20.2064350
  65.5759390 132.5699750  34.6913130  65.5018090 133.4734890  34.9985500
  64.6738230 132.2511650  34.6635200  63.9595680 116.7477510  20.6952890
  63.6117680 116.0701500  20.1155340  64.1608450 116.2867020  21.5096280
  66.1244720 131.7358260  22.3139490  67.0195510 132.0743230  22.3358250
  66.1562350 131.0137670  21.6863770  59.7640880 127.1085310  20.5426490
  60.2015750 127.6514980  21.1984070  60.2488610 126.2832260  20.5522830
  56.9786680 129.8974340  27.9946750  57.3089690 129.0295400  27.7625390
  57.4077680 130.1032860  28.8251710  61.5748600 128.2283350  25.6548720
  61.2744140 128.1048320  26.5552630  61.4686090 127.3691940  25.2464450
  57.4676890 130.7644930  30.7328380  57.0307880 130.9445730  31.5652530
  58.0354570 131.5219550  30.5910100  73.1039070 130.2661930  35.0205690
  72.5041060 130.3254490  34.2769610  73.2332970 129.3266910  35.1502540
  74.3440520 128.0079750  20.3575400  73.5133480 128.0756400  20.8282630
  74.5212350 128.8983870  20.0542260  73.7996980 124.7527230  22.8609600
  74.5615890 125.3223880  22.9669290  73.8151350 124.1854430  23.6317910
  57.3001320 123.2765160  27.0917260  56.6450160 123.0076800  26.4476960
  58.1379270 123.1669640  26.6419240  74.8056950 125.6077330  27.7051530
  75.1765780 124.8244650  27.2987500  75.4458880 126.2966430  27.5268830
  71.7890710 126.9913910  33.1181850  70.9750550 127.4211070  33.3807640
  72.1964910 127.6032320  32.5050900  73.8516150 125.0461600  20.0182120
  74.1264990 125.9540480  19.8901340  73.6626890 124.9824130  20.9544110
  70.2491760 118.0706450  21.3135750  70.6676640 117.8837430  20.4732410
  69.9427820 117.2185500  21.6238680  73.7481490 122.9830590  25.0111550
  73.3725090 122.2158520  24.5792840  73.0184610 123.3653290  25.4986480
  58.3377250 123.6617730  31.6320600  58.7050290 123.5745130  32.5116620
  57.7688070 122.8984280  31.5327460  57.8893250 120.5726820  35.5379020
  56.9949300 120.5393580  35.8772730  58.4290800 120.7713610  36.3030270
  71.5769180 117.3558540  37.4230770  72.4539360 117.3641940  37.8064770
  71.5890020 116.6189380  36.8123120  56.5139400 120.4864090  23.0342590
  55.6103480 120.7494290  22.8594250  56.9980020 120.7575260  22.2542550
  73.0232450 121.2088080  28.3118790  73.5469930 120.7150730  27.6808960
  73.6091870 121.3438440  29.0566360  73.2022170 121.2927950  31.8338340
  72.2524880 121.2591490  31.9483330  73.3835180 122.2028060  31.5988110
  59.0566610 119.5429630  20.9436970  59.7658310 119.1212850  20.4584250
  58.3406550 119.6104860  20.3120320  58.7040770 115.5968960  19.9839620
  59.4268900 116.1377900  20.3020840  58.9765290 115.3232380  19.1081160
  72.5132420 120.4661430  24.2511200  73.0091540 120.2332300  25.0360080
  72.3148490 119.6273270  23.8348840  58.3932960 114.8475150  29.8862240
  59.0409150 114.2972530  29.4457400  58.8134800 115.1018300  30.7078050
  73.9419580 119.1022380  26.7848880  73.8318860 118.9478420  27.7231150
  74.7027170 118.5743320  26.5424290  74.8309850 116.9330300  20.0255020
  75.7559160 116.8011480  19.8173310  74.8085640 117.0123120  20.9791470
  74.9048340 117.7040960  22.6511730  74.1099840 117.6386080  23.1804640
  75.1091620 118.6391600  22.6397080  71.8466760 131.7432510  26.6450120
  72.4425830 131.4217080  25.9684540  72.1044910 131.2704330  27.4363390
  58.1464960 115.0030820  32.6287560  57.7979780 115.4594640  33.3945740
  57.8152660 114.1087950  32.7109990  59.7529330 128.1750420  36.7940750
  59.7098960 127.8043330  37.6755210  59.8840340 129.1127990  36.9342570
  63.4535360 129.7310010  32.3950470  63.2126720 129.9984570  31.5080990
  64.3938000 129.9015740  32.4501330  65.6589780 116.1942700  36.1506980
  65.5978670 116.7864530  36.9002390  66.5990160 116.0868660  36.0057240
  68.2964340 115.8512760  35.7899270  68.9104750 116.1692050  35.1280350
  68.8413900 115.3661350  36.4095130  74.7139520 131.7504390  33.1961110
  74.2197800 132.1473260  32.4788240  74.1052810 131.1253600  33.5898390
  58.8185600 114.5307020  35.9038330  59.3668590 114.3495070  35.1404440
  58.8840910 113.7401130  36.4394640  59.5917360 131.1212670  33.9138530
  58.9977680 130.9897370  34.6528570  59.5841200 130.2850810  33.4480630
  69.9444360 116.6215770  33.5010280  69.6157720 115.8067530  33.1212010
  70.8926660 116.5785580  33.3775970  72.3978970 132.3927810  30.4747850
  71.9381940 133.1443620  30.1005870  71.7691430 131.6734280  30.4162650
  59.2229590 128.4871050  32.8646570  58.4963650 127.8676340  32.7972520
  59.2838740 128.8811660  31.9944650  62.8274690 130.7016050  29.6495980
  63.3439710 130.0903410  29.1244240  63.4772070 131.2044830  30.1406990
  65.5670190 131.5924540  30.4764960  65.8548000 131.3378840  29.5997970
  66.0793410 131.0401900  31.0670530  57.5059590 131.8045440  26.0743330
  57.3381630 131.1716120  26.7725220  56.6394100 132.0104840  25.7237520
  58.1287610 115.6362220  23.5775190  58.8866970 115.7491100  23.0039220
  57.6664780 116.4731420  23.5318620  64.6701420 117.7501490  26.5677500
  63.8575930 117.3758380  26.2273380  65.1743060 116.9946570  26.8698690
  72.3161000 114.8165500  23.0800850  72.5111630 115.7148950  23.3468280
  71.5290870 114.5852580  23.5733800  59.1122290 130.4978670  23.5193470
  58.5869910 130.8786700  22.8155430  59.0366870 131.1229440  24.2403180
  60.5012760 116.1626270  22.1177160  61.0305520 115.3756070  21.9885110
  61.1341080 116.8417460  22.3512690  62.6950600 115.9001410  25.1722550
  62.0653340 115.1988720  25.3392680  62.1555740 116.6605540  24.9555710
  65.6342550 132.5140640  37.8433160  66.5609860 132.2784910  37.8869120
  65.6192980 133.3412640  37.3619190  73.8687610 132.0566210  24.8407410
  74.0439800 131.3703950  24.1968330  73.1709180 132.5813260  24.4484080
  62.8206160 115.1785390  37.6075040  62.5390430 115.6818990  36.8435860
  63.2025860 114.3807140  37.2417170  61.7115260 132.4461050  22.3942720
  62.4434080 132.1620330  21.8466610  61.9708930 132.2074330  23.2842100
  60.8730050 128.5625780  22.3989050  60.2438930 129.0310880  22.9474880
  60.9877880 127.7175000  22.8335240  72.2020110 131.7410500  37.6674200
  72.9945430 131.2459730  37.4600160  72.4953260 132.4200640  38.2749810
  68.3279770 122.6131440   8.5490250  68.2473820 121.6986050   8.2781960
  67.9144190 123.1098510   7.8429960  66.4597810 124.3910460  10.4299520
  65.6839910 123.9110900  10.7198090  67.1110740 123.7116110  10.2555680
  60.4763640 124.7030270  11.3075280  59.6448520 124.4478980  11.7071790
  61.0844620 124.7741040  12.0433200  70.4805240 128.7970650   9.2098650
  70.0186770 128.0257890   9.5385820  71.2930790 128.8236720   9.7151100
  60.4564900 128.7370360  11.5033300  60.7592940 127.8468100  11.3243520
  61.2008490 129.2940580  11.2755550  58.8855590 119.6632160   5.0917670
  57.9972290 120.0048130   4.9897550  59.1696780 119.4632480   4.1998500
  56.8488600 122.2637810  10.9757370  57.4204710 121.4960010  10.9761010
  56.8490140 122.5626570  10.0663980  66.7068550 131.0828660   8.8302640
  66.0879990 131.5386160   8.2597080  67.5620330 131.2380120   8.4292340
  65.9006800 127.0667650  10.4369680  65.8315080 126.1257590  10.2758810
  66.6626660 127.1569060  11.0092250  58.0913470 117.6722170  12.7626300
  57.9116310 116.7747920  13.0429060  57.6893550 118.2194040  13.4373250
  66.9311970 119.8738030  10.6638610  67.3076790 119.0009910  10.5512280
  66.8331480 120.2096730   9.7729050  61.0616980 118.2463660   6.1256050
  61.1683730 119.1467390   6.4324810  60.1509340 118.1981630   5.8350700
  70.7136090 117.3688470   7.5966950  71.5345710 116.8785040   7.6392430
  70.7470170 117.9586130   8.3498790  58.7100140 120.1682670  11.3708640
  59.3910250 120.4321040  11.9896040  58.3948190 119.3283540  11.7046650
  62.9024710 121.2150030  10.4581230  63.4102930 121.7131000  11.0986250
  63.4337950 120.4385230  10.2820590  75.0035640 119.3855220  14.1610580
  74.2987810 119.7736930  13.6425690  75.2693560 120.0805510  14.7631510
  61.1860810 115.8548590  14.7244650  61.1879250 116.3720980  13.9190550
  60.3565120 115.3778770  14.7014580  67.5731900 125.9667900   6.2234550
  66.9549170 126.4317350   5.6597270  68.0855150 126.6595380   6.6404060
  62.4363660 125.4943770  12.9018150  62.1033040 126.1212690  13.5439220
  62.6130340 126.0205650  12.1219820  70.9497570 119.3088850  10.3694490
  70.2453140 119.5973740  10.9497600  71.3109730 120.1188960  10.0094050
  60.8676140 117.5658550  12.7315100  61.2092950 118.4100600  12.4368970
  59.9291950 117.7142290  12.8480440  61.6482760 127.4624570  14.7167330
  62.2656760 128.1375650  14.4351780  60.7875880 127.8712550  14.6254830
  56.9415100 126.6524430   3.5974180  56.5643080 127.1411530   2.8659080
  57.1988170 127.3249710   4.2280710  72.5660350 128.9263980  12.6321970
  71.8823870 129.5963090  12.6238640  73.1054640 129.1244630  11.8666830
  74.0184490 118.7543640  10.7603700  73.0709400 118.7882620  10.8919130
  74.3434480 119.5682590  11.1453060  64.5504030 115.0540820   9.0559690
  64.8579010 114.4987710   8.3395190  63.6204730 115.1885280   8.8732680
  70.1019090 130.7708110  11.3467150  70.1146250 130.3670400  10.4789410
  69.5494310 131.5455400  11.2428580  71.3964510 127.4924330   6.4357320
  71.2860840 126.5498660   6.5606740  71.3932760 127.8539970   7.3220080
  69.5004530 125.6737950  12.6749760  69.9173320 125.4598060  11.8403220
  70.2244350 125.9310740  13.2458380  66.9384790 123.1189650   5.7919810
  66.0114070 123.0527030   6.0208280  67.0909610 124.0569780   5.6775050
  66.9253870 119.3906650   2.7886970  65.9857540 119.5520610   2.8739430
  67.2437130 120.1092330   2.2422960  73.4466630 124.0725170  12.7666000
  72.6185260 124.1418260  12.2916130  74.0417110 124.6579480  12.2981830
  70.9682080 124.6809950   6.2955060  70.3494500 124.3429500   5.6481360
  70.9506530 124.0369710   7.0034250  70.4108640 120.8594490  13.7120870
  69.9979820 121.6848200  13.9660860  69.6784590 120.2739530  13.5197230
  62.5441430 123.6454390   8.5739540  62.1398430 122.9331640   8.0785440
  62.6304550 123.3007630   9.4627580  63.0123130 127.3321950  10.7378750
  62.7151420 126.7267420  10.0586530  63.9622950 127.3699260  10.6268110
  61.2570050 120.4197600  12.3538580  61.8084640 120.5292940  11.5791830
  61.7713560 120.7935200  13.0693810  71.1008740 130.9053820  14.4001850
  70.6239300 131.7126010  14.2074460  70.4170530 130.2532150  14.5528060
  62.1041560 127.0703640  17.3886550  61.2070090 127.2943610  17.6359950
  62.1294430 127.1938580  16.4397950  69.1446780 123.9196760   3.3027810
  69.5840060 123.0819190   3.1565630  69.8575200 124.5526160   3.3891950
  60.9312780 123.9416960  15.9643920  60.7920550 124.8139760  16.3331320
  60.0494140 123.5989770  15.8191860  67.2542160 128.8592830   7.2709050
  67.6938070 129.6017160   6.8564440  67.1929050 129.1019400   8.1948010
  62.7293130 129.8838660  18.1729070  62.7008560 130.2881610  17.3057500
  62.5658100 128.9549020  18.0100670  59.2446060 122.5399370   6.0746190
  59.1243660 123.2661460   5.4627460  58.9346950 121.7702280   5.5974100
  74.6807950 130.6665760  19.4693240  75.1567670 131.1448650  20.1482320
  75.3015110 130.5983250  18.7438740  56.8831430 125.7114510  11.8814830
  56.9611850 125.8463280  10.9370550  57.4973110 125.0030400  12.0742950
  58.1279060 127.4114700   8.2921010  57.7207140 127.5529290   7.4374610
  59.0192070 127.1274860   8.0892220  74.0841200 127.8578610  16.6293250
  74.2104260 127.6190490  15.7110430  74.1262580 127.0263150  17.1015330
  67.9457940 131.5606610  15.1988060  68.4602610 131.4714620  16.0010490
  67.1027020 131.9066310  15.4915970  69.9212340 131.8461950   4.6272060
  69.7613480 131.5564890   5.5253890  69.7559050 131.0702080   4.0917290
  62.4000720 131.6260480   6.4043680  62.2243200 130.7096020   6.1911480
  61.5456460 131.9847770   6.6441480  69.6238470 129.3549510   3.1870060
  68.9303630 129.3526800   2.5272340  70.3661330 128.9308830   2.7564230
  69.1888400 130.9812220   7.2618550  69.6445350 130.2001600   7.5757170
  69.5280920 131.6919040   7.8059730  73.9365210 119.9111070  17.5942990
  73.3209480 120.4190740  17.0658450  73.6161630 119.0109400  17.5368930
  56.9390950 126.7528680  14.4209290  57.1021990 126.2834040  13.6028660
  57.4043400 126.2452240  15.0858130  61.7109720 115.8834440   9.4569860
  61.2677870 116.6643980   9.1254380  62.2694710 116.2064330  10.1640800
  65.9979530 118.7502960  15.0605180  65.5358900 118.9585980  15.8725120
  65.5957640 117.9362310  14.7575850  70.9984040 119.9711910  16.1901840
  70.1477630 119.6717660  16.5110910  70.8385830 120.2153920  15.2785660
  68.0933750 121.4713660  18.2900630  68.4187160 120.6377410  17.9502860
  68.8814080 121.9942180  18.4378960  64.8268540 115.5045140   4.3375690
  64.2022720 115.5005010   5.0629000  64.7398660 114.6376100   3.9411660
  63.7485620 116.4281770  11.3159460  64.0457950 117.3344600  11.2351480
  64.2971180 115.9400550  10.7019030  61.5023940 121.0068010   7.1851110
  61.2764860 120.7905180   8.0897730  60.7216470 121.4396470   6.8397080
  68.7321700 121.0131380   5.7841760  68.1330590 121.7367180   5.6005380
  69.2801310 120.9508160   5.0018210  63.9423150 121.9053590  17.8511380
  63.8466750 120.9648320  17.7011780  64.7855130 122.1268660  17.4559450
  67.3386570 119.6494920   7.8145040  67.7316140 119.9667120   7.0013730
  67.7003420 118.7706800   7.9289560  59.0733690 118.3167260  16.0045160
  58.6797080 119.1642470  16.2117940  58.3852090 117.6793630  16.1953800
  65.6478740 118.4002230  19.0741900  64.9577060 118.2074430  19.7087990
  66.3911040 118.6836870  19.6066200  56.3750740 116.2395720  10.0375240
  56.0863790 116.8098580  10.7500220  57.1196500 115.7600170  10.4006470
  67.9241710 122.2400670  11.9095820  67.1922830 122.7487480  12.2585920
  67.5266050 121.4230650  11.6084600  64.3619100 118.9154870  10.3148310
  64.3655160 118.4744820   9.4652850  65.2570220 119.2372200  10.4220130
  60.2121480 118.7981360   9.2742520  59.8721530 119.2756590  10.0309570
  59.4498800 118.3446480   8.9143620  64.4239250 119.9166950   3.3055070
  64.5452070 119.8753430   4.2540890  64.0387760 120.7791100   3.1501800
  68.3867620 117.6934350  11.3218760  68.4040360 118.1443000  12.1660610
  68.1383200 116.7939990  11.5352200  63.4360750 122.2268090   2.7038370
  62.8677650 121.7786340   2.0774280  64.1449750 122.5860870   2.1703520
  71.8138370 115.1066530  17.1605140  72.1384140 114.3756190  17.6863120
  71.8494880 114.7880170  16.2586130  58.5129930 126.1280110  16.5805100
  58.1284720 125.4873780  17.1788060  58.8242120 126.8316230  17.1499830
  64.6627070 122.9756650  12.0613720  65.0297200 122.5015220  12.8075060
  64.4732130 123.8498220  12.4022060  57.5267560 117.7200340   8.1907190
  57.2414480 117.3556010   9.0285810  57.4646420 116.9880800   7.5770330
  62.4526440 122.0165290  14.3797930  62.1483510 122.8957270  14.6048290
  63.4072900 122.0765080  14.4155370  60.9808230 126.2226280   4.9764780
  60.2070490 125.6823900   4.8163500  61.7102860 125.7032890   4.6382540
  71.7396210 125.2191640  10.7691170  72.4595330 125.7146930  10.3787280
  71.5378030 124.5409530  10.1245040  67.2006150 116.6129600   4.9120560
  66.3870760 116.1142770   4.8365870  67.0068100 117.4527850   4.4956910
  67.1215010 125.2900700  16.6560170  67.0552320 124.3696370  16.4017760
  66.4920150 125.3876140  17.3704810  69.9154540 120.9849250   3.2082720
  70.8034160 121.2966480   3.0334060  69.8859630 120.1121500   2.8163300
  61.0245630 125.8906660   8.6143590  61.5424300 125.0874920   8.5600480
  60.5729650 125.8285800   9.4560420  65.9115130 127.1572940   3.8870890
  66.2530830 127.9015170   3.3914210  65.0827840 127.4704060   4.2495720
  58.5090170 122.8568030  15.5269290  58.1505110 123.5221880  16.1142630
  58.2144730 122.0251580  15.8981910  61.7103290 123.3152270  18.4108840
  61.4103430 123.4609450  17.5136660  62.4814530 122.7557560  18.3182230
  67.0531740 128.1121270  16.4063970  67.0676280 127.1802230  16.1882880
  66.3456840 128.1981030  17.0453740  72.1868810 122.2961090   2.6762580
  72.1032530 122.7275310   1.8259020  72.9063000 122.7559440   3.1089400
  73.2642950 124.7528610  15.7532550  72.5391140 125.3457390  15.5561940
  73.7918410 124.7452150  14.9545920  73.2156060 129.1503350   5.4044710
  72.5732220 128.4958970   5.6788430  72.8286720 129.5558440   4.6285380
  68.7942540 126.4788780   9.2516400  69.1466360 125.8816910   8.5917770
  67.9104870 126.1533010   9.4224650  64.8805820 127.2386470   6.6586810
  65.5676950 127.7855680   7.0394400  64.0938240 127.7827200   6.6936420
  57.0198220 122.8559290   2.1503890  57.8893070 123.1384090   2.4339810
  56.5288540 123.6695160   2.0352700  64.1833030 124.2432500   6.2712170
  64.6395810 125.0537750   6.4972360  63.8321240 123.9255640   7.1030660
  66.4865640 129.7538840  13.5004470  67.1307860 129.9598220  14.1777890
  66.8495080 128.9927240  13.0475320  60.0844810 114.5870150   6.7434690
  59.9559440 114.5788050   7.6919610  59.2606830 114.9253240   6.3925700
  67.7597720 127.7571190  12.2181920  68.4019950 127.0564350  12.3314090
  68.2847070 128.5369630  12.0378810  69.5335340 128.5566090  15.4217980
  69.8691580 129.1432780  16.0995900  68.6135680 128.4258800  15.6515770
  57.3869470 132.0686670   2.7165520  57.7467110 132.6676010   2.0622790
  57.2461810 132.6146560   3.4900550  57.0838740 116.3461270  16.2041390
  56.3697260 116.5458190  16.8094000  57.5033780 115.5700840  16.5756190
  71.1869690 125.9591750   3.6035220  70.8991390 126.4204440   4.3913100
  71.9821860 125.4989520   3.8719440  57.3711330 130.3341530  17.1907920
  57.4802450 129.3936270  17.0503310  56.7191890 130.5996280  16.5421650
  65.3623920 128.6057420  18.5906040  65.0420790 127.8866660  19.1351730
  64.6882280 129.2812490  18.6642100  63.4038090 129.4517870   3.5339190
  63.3948190 130.1847560   2.9183700  62.4836450 129.2049450   3.6266150
  59.0044730 124.6732760   4.2785950  58.3972680 125.4131660   4.2881250
  59.4794080 124.7632120   3.4524150  68.5777520 118.8383580  13.9542840
  68.9458340 118.0178790  14.2822410  67.7175720 118.8985470  14.3698490
  71.9439550 117.7940520   4.7630400  71.3152710 117.8986190   4.0488630
  71.4491470 118.0137300   5.5524280  63.9123580 120.0726470   6.1788280
  63.2039730 120.5412810   6.6201890  64.1968060 119.4148480   6.8133470
  65.5379510 121.4923170  14.1780810  66.0364760 121.9668990  14.8432660
  65.6802460 120.5686690  14.3850840  67.9439010 116.7977130   7.6184070
  67.8206790 116.8163260   6.6693580  68.8923570 116.8456070   7.7382470
  65.0315800 132.0332430   6.8912050  65.2857300 131.9953820   5.9691420
  64.0828280 131.9065760   6.8840300  62.1158600 118.3811550   3.5538990
  62.9649130 118.8181700   3.4879180  61.7489870 118.6931810   4.3811050
  72.7446370 117.7091130  15.0209200  72.2419970 118.4496530  15.3603010
  73.5603030 118.0975130  14.7045990  71.0368380 122.9524310   8.4670560
  70.0958520 122.9674540   8.6418250  71.3512450 122.1660270   8.9130860
  59.7096780 122.0668980   2.7107410  59.7900370 121.1196490   2.8224810
  60.6016530 122.3975860   2.8168070  73.0393960 130.1233160  10.1424820
  73.1641380 130.9464330  10.6148630  73.9059520 129.9123890   9.7948970
  60.5111490 132.2164370   9.8141950  61.2473970 131.6679830  10.0850520
  60.8952410 133.0820380   9.6747940  57.3956970 128.2837940   5.6883460
  56.4696750 128.5259080   5.6788870  57.8613400 129.1112200   5.5668210
  59.5169770 131.4010440  19.0027530  60.3182500 131.7222490  19.4162930
  59.0021590 131.0406020  19.7247440  68.3534400 127.5090310  18.9502940
  67.7472560 127.5321910  18.2098690  68.0488510 126.7773350  19.4870190
  69.7834770 131.2370600  17.5612350  70.7356520 131.1528620  17.5112590
  69.6362990 131.9012310  18.2346140  72.6743970 130.6164810   3.0604260
  72.3885480 130.2029950   2.2458440  72.4763520 131.5452520   2.9404780
  57.2367580 123.8883900  17.9463580  57.7406600 123.3091180  18.5179810
  56.4975000 124.1724130  18.4839950  64.2905520 125.2954890  17.4799100
  63.5251190 125.8639890  17.3953770  64.4721480 125.0031100  16.5867330
  67.3793930 125.6718120   2.1051860  66.8304030 126.1187420   2.7494600
  68.0013190 125.1667370   2.6289530  71.4328870 127.0260220  18.0374120
  72.1738340 127.3635980  17.5341580  70.6701550 127.1952280  17.4843890
  59.2690660 122.0313490  18.8413650  59.3096000 121.7327360  19.7498880
  60.1236160 122.4321100  18.6821170  63.0469050 124.6309040   4.0017160
  63.4685470 124.4648910   4.8448550  63.1719890 123.8209270   3.5072300
  61.2096470 120.6105590  16.8088140  60.6792930 120.1196540  16.1811480
  61.8784540 121.0389790  16.2746070  70.1074530 125.0775050  16.5729330
  70.5215550 125.2320130  17.4219750  69.1725530 125.2030270  16.7355110
  70.5796700 122.4171210  18.5768480  71.1617470 121.6623530  18.4888960
  70.7558470 122.9478650  17.7999960  61.6968770 117.5767960  16.8885430
  61.6025640 116.9588710  16.1636300  61.1166160 118.3034250  16.6615340
  64.4630210 116.1341200  13.9212820  64.0147510 116.1565460  13.0758370
  63.8295410 115.7360220  14.5183120  64.8689760 125.0295530  14.5425260
  65.2877870 125.8728260  14.3701500  63.9498390 125.1667570  14.3132040
  67.2053660 122.7611710  15.9263100  67.3249870 122.1652850  16.6657940
  68.0647660 122.7981400  15.5064400  69.5441560 123.3148900  14.5025610
  69.0176780 123.8391520  13.8990750  69.8872900 123.9476290  15.1335340
  62.7197180 131.3348540  15.6582990  62.1818270 132.0594600  15.3391690
  62.9731140 130.8578880  14.8680330  63.9722430 119.3033060  17.1838920
  64.5622120 118.9948910  17.8716740  63.1542670 118.8312810  17.3398820
  68.7915860 118.9198870  17.4171940  68.1031380 118.2580410  17.3521930
  69.5121880 118.4737140  17.8620400  69.4216260 115.5150500   3.4762200
  69.7018550 114.6718400   3.8321620  68.6481990 115.7473610   3.9900950
  65.5759390 132.5699750  15.9169640  65.5018090 133.4734890  16.2242010
  64.6738230 132.2511650  15.8891710  66.1244720 131.7358260   3.5396000
  67.0195510 132.0743230   3.5614760  66.1562350 131.0137670   2.9120280
  59.7640880 127.1085310   1.7683000  60.2015750 127.6514980   2.4240580
  60.2488610 126.2832260   1.7779340  56.9786680 129.8974340   9.2203260
  57.3089690 129.0295400   8.9881900  57.4077680 130.1032860  10.0508220
  61.5748600 128.2283350   6.8805230  61.2744140 128.1048320   7.7809140
  61.4686090 127.3691940   6.4720960  57.4676890 130.7644930  11.9584890
  57.0307880 130.9445730  12.7909040  58.0354570 131.5219550  11.8166610
  73.1039070 130.2661930  16.2462200  72.5041060 130.3254490  15.5026120
  73.2332970 129.3266910  16.3759050  73.7996980 124.7527230   4.0866110
  74.5615890 125.3223880   4.1925800  73.8151350 124.1854430   4.8574420
  57.3001320 123.2765160   8.3173770  56.6450160 123.0076800   7.6733470
  58.1379270 123.1669640   7.8675750  74.8056950 125.6077330   8.9308040
  75.1765780 124.8244650   8.5244010  75.4458880 126.2966430   8.7525340
  71.7890710 126.9913910  14.3438360  70.9750550 127.4211070  14.6064150
  72.1964910 127.6032320  13.7307410  70.2491760 118.0706450   2.5392260
  70.6676640 117.8837430   1.6988920  69.9427820 117.2185500   2.8495190
  73.7481490 122.9830590   6.2368060  73.3725090 122.2158520   5.8049350
  73.0184610 123.3653290   6.7242990  58.3377250 123.6617730  12.8577110
  58.7050290 123.5745130  13.7373130  57.7688070 122.8984280  12.7583970
  73.1381110 122.1302110  15.8707580  72.9067200 121.9014860  14.9705530
  73.3985660 123.0501660  15.8252470  57.8893250 120.5726820  16.7635530
  56.9949300 120.5393580  17.1029240  58.4290800 120.7713610  17.5286780
  71.5769180 117.3558540  18.6487280  72.4539360 117.3641940  19.0321280
  71.5890020 116.6189380  18.0379630  56.5139400 120.4864090   4.2599100
  55.6103480 120.7494290   4.0850760  56.9980020 120.7575260   3.4799060
  73.0232450 121.2088080   9.5375300  73.5469930 120.7150730   8.9065470
  73.6091870 121.3438440  10.2822870  73.2022170 121.2927950  13.0594850
  72.2524880 121.2591490  13.1739840  73.3835180 122.2028060  12.8244620
  72.5132420 120.4661430   5.4767710  73.0091540 120.2332300   6.2616590
  72.3148490 119.6273270   5.0605350  58.3932960 114.8475150  11.1118750
  59.0409150 114.2972530  10.6713910  58.8134800 115.1018300  11.9334560
  73.9419580 119.1022380   8.0105390  73.8318860 118.9478420   8.9487660
  74.7027170 118.5743320   7.7680800  72.2885300 115.0416510  14.4688390
  72.9257520 115.6550650  14.8347580  72.4360190 115.0777170  13.5237620
  74.9048340 117.7040960   3.8768240  74.1099840 117.6386080   4.4061150
  75.1091620 118.6391600   3.8653590  71.8466760 131.7432510   7.8706630
  72.4425830 131.4217080   7.1941050  72.1044910 131.2704330   8.6619900
  58.1464960 115.0030820  13.8544070  57.7979780 115.4594640  14.6202250
  57.8152660 114.1087950  13.9366500  59.7529330 128.1750420  18.0197260
  59.7098960 127.8043330  18.9011720  59.8840340 129.1127990  18.1599080
  63.4535360 129.7310010  13.6206980  63.2126720 129.9984570  12.7337500
  64.3938000 129.9015740  13.6757840  65.6589780 116.1942700  17.3763490
  65.5978670 116.7864530  18.1258900  66.5990160 116.0868660  17.2313750
  68.2964340 115.8512760  17.0155780  68.9104750 116.1692050  16.3536860
  68.8413900 115.3661350  17.6351640  74.7139520 131.7504390  14.4217620
  74.2197800 132.1473260  13.7044750  74.1052810 131.1253600  14.8154900
  58.8185600 114.5307020  17.1294840  59.3668590 114.3495070  16.3660950
  58.8840910 113.7401130  17.6651150  59.5917360 131.1212670  15.1395040
  58.9977680 130.9897370  15.8785080  59.5841200 130.2850810  14.6737140
  69.0372380 114.4144900  13.3425070  68.1632220 114.7480010  13.1398000
  68.9283130 113.9418080  14.1676940  69.9444360 116.6215770  14.7266790
  69.6157720 115.8067530  14.3468520  70.8926660 116.5785580  14.6032480
  72.3978970 132.3927810  11.7004360  71.9381940 133.1443620  11.3262380
  71.7691430 131.6734280  11.6419160  59.2229590 128.4871050  14.0903080
  58.4963650 127.8676340  14.0229030  59.2838740 128.8811660  13.2201160
  62.8274690 130.7016050  10.8752490  63.3439710 130.0903410  10.3500750
  63.4772070 131.2044830  11.3663500  65.5670190 131.5924540  11.7021470
  65.8548000 131.3378840  10.8254480  66.0793410 131.0401900  12.2927040
  66.7847200 115.3314740  12.2817980  66.0018990 115.8060240  12.5614740
  66.4910130 114.4269570  12.1731160  71.3368270 116.0337840  10.3267070
  71.7776360 115.9782940   9.4788670  71.0675860 116.9495850  10.3977250
  73.2006840 115.6653080   8.3375890  73.1395240 114.7214300   8.1906910
  73.9798870 115.7733170   8.8829350  57.5059590 131.8045440   7.2999840
  57.3381630 131.1716120   7.9981730  56.6394100 132.0104840   6.9494030
  58.1287610 115.6362220   4.8031700  58.8866970 115.7491100   4.2295730
  57.6664780 116.4731420   4.7575130  64.6701420 117.7501490   7.7934010
  63.8575930 117.3758380   7.4529890  65.1743060 116.9946570   8.0955200
  69.1726400 114.4143940   9.0317080  69.7755770 114.9864150   9.5065600
  68.4319390 114.9783380   8.8090980  72.3161000 114.8165500   4.3057360
  72.5111630 115.7148950   4.5724790  71.5290870 114.5852580   4.7990310
  59.1122290 130.4978670   4.7449980  58.5869910 130.8786700   4.0411940
  59.0366870 131.1229440   5.4659690  60.5012760 116.1626270   3.3433670
  61.0305520 115.3756070   3.2141620  61.1341080 116.8417460   3.5769200
  62.6950600 115.9001410   6.3979060  62.0653340 115.1988720   6.5649190
  62.1555740 116.6605540   6.1812220  65.6342550 132.5140640  19.0689670
  66.5609860 132.2784910  19.1125630  65.6192980 133.3412640  18.5875700
  73.8687610 132.0566210   6.0663920  74.0439800 131.3703950   5.4224840
  73.1709180 132.5813260   5.6740590  62.8206160 115.1785390  18.8331550
  62.5390430 115.6818990  18.0692370  63.2025860 114.3807140  18.4673680
  61.7115260 132.4461050   3.6199230  62.4434080 132.1620330   3.0723120
  61.9708930 132.2074330   4.5098610  60.8730050 128.5625780   3.6245560
  60.2438930 129.0310880   4.1731390  60.9877880 127.7175000   4.0591750
  69.4221620 114.5938970  19.4112020  69.3087070 114.9133580  20.3063540
  70.2391360 114.9951480  19.1149300  72.2020110 131.7410500  18.8930710
  72.9945430 131.2459730  18.6856670  72.4953260 132.4200640  19.5006320
  68.3279770 103.8387950 139.9694680  68.2473820 102.9242560 139.6986390
  67.9144190 104.3355020 139.2634390  66.4597810 105.6166970 141.8503950
  65.6839910 105.1367410 142.1402520  67.1110740 104.9372620 141.6760110
  60.4763640 105.9286780 142.7279710  59.6448520 105.6735490 143.1276220
  61.0844620 105.9997550 143.4637630  70.4805240 110.0227160 140.6303080
  70.0186770 109.2514400 140.9590250  71.2930790 110.0493230 141.1355530
  60.4564900 109.9626870 142.9237730  60.7592940 109.0724610 142.7447950
  61.2008490 110.5197090 142.6959980  58.8855590 100.8888670 136.5122100
  57.9972290 101.2304640 136.4101980  59.1696780 100.6888990 135.6202930
  56.8488600 103.4894320 142.3961800  57.4204710 102.7216520 142.3965440
  56.8490140 103.7883080 141.4868410  66.7068550 112.3085170 140.2507070
  66.0879990 112.7642670 139.6801510  67.5620330 112.4636630 139.8496770
  65.9006800 108.2924160 141.8574110  65.8315080 107.3514100 141.6963240
  66.6626660 108.3825570 142.4296680  58.0913470  98.8978680 144.1830730
  57.9116310  98.0004430 144.4633490  57.6893550  99.4450550 144.8577680
  66.9311970 101.0994540 142.0843040  67.3076790 100.2266420 141.9716710
  66.8331480 101.4353240 141.1933480  61.0616980  99.4720170 137.5460480
  61.1683730 100.3723900 137.8529240  60.1509340  99.4238140 137.2555130
  70.7136090  98.5944980 139.0171380  71.5345710  98.1041550 139.0596860
  70.7470170  99.1842640 139.7703220  58.7100140 101.3939180 142.7913070
  59.3910250 101.6577550 143.4100470  58.3948190 100.5540050 143.1251080
  62.9024710 102.4406540 141.8785660  63.4102930 102.9387510 142.5190680
  63.4337950 101.6641740 141.7025020  75.0035640 100.6111730 145.5815010
  74.2987810 100.9993440 145.0630120  75.2693560 101.3062020 146.1835940
  61.1860810  97.0805100 146.1449080  61.1879250  97.5977490 145.3394980
  60.3565120  96.6035280 146.1219010  67.5731900 107.1924410 137.6438980
  66.9549170 107.6573860 137.0801700  68.0855150 107.8851890 138.0608490
  62.4363660 106.7200280 144.3222580  62.1033040 107.3469200 144.9643650
  62.6130340 107.2462160 143.5424250  70.9497570 100.5345360 141.7898920
  70.2453140 100.8230250 142.3702030  71.3109730 101.3445470 141.4298480
  60.8676140  98.7915060 144.1519530  61.2092950  99.6357110 143.8573400
  59.9291950  98.9398800 144.2684870  61.6482760 108.6881080 146.1371760
  62.2656760 109.3632160 145.8556210  60.7875880 109.0969060 146.0459260
  56.9415100 107.8780940 135.0178610  56.5643080 108.3668040 134.2863510
  57.1988170 108.5506220 135.6485140  72.5660350 110.1520490 144.0526400
  71.8823870 110.8219600 144.0443070  73.1054640 110.3501140 143.2871260
  74.0184490  99.9800150 142.1808130  73.0709400 100.0139130 142.3123560
  74.3434480 100.7939100 142.5657490  64.5504030  96.2797330 140.4764120
  64.8579010  95.7244220 139.7599620  63.6204730  96.4141790 140.2937110
  70.1019090 111.9964620 142.7671580  70.1146250 111.5926910 141.8993840
  69.5494310 112.7711910 142.6633010  71.3964510 108.7180840 137.8561750
  71.2860840 107.7755170 137.9811170  71.3932760 109.0796480 138.7424510
  69.5004530 106.8994460 144.0954190  69.9173320 106.6854570 143.2607650
  70.2244350 107.1567250 144.6662810  66.9384790 104.3446160 137.2124240
  66.0114070 104.2783540 137.4412710  67.0909610 105.2826290 137.0979480
  66.9253870 100.6163160 134.2091400  65.9857540 100.7777120 134.2943860
  67.2437130 101.3348840 133.6627390  73.4466630 105.2981680 144.1870430
  72.6185260 105.3674770 143.7120560  74.0417110 105.8835990 143.7186260
  70.9682080 105.9066460 137.7159490  70.3494500 105.5686010 137.0685790
  70.9506530 105.2626220 138.4238680  70.4108640 102.0851000 145.1325300
  69.9979820 102.9104710 145.3865290  69.6784590 101.4996040 144.9401660
  62.5441430 104.8710900 139.9943970  62.1398430 104.1588150 139.4989870
  62.6304550 104.5264140 140.8832010  63.0123130 108.5578460 142.1583180
  62.7151420 107.9523930 141.4790960  63.9622950 108.5955770 142.0472540
  61.2570050 101.6454110 143.7743010  61.8084640 101.7549450 142.9996260
  61.7713560 102.0191710 144.4898240  71.1008740 112.1310330 145.8206280
  70.6239300 112.9382520 145.6278890  70.4170530 111.4788660 145.9732490
  62.1041560 108.2960150 148.8090980  61.2070090 108.5200120 149.0564380
  62.1294430 108.4195090 147.8602380  69.1446780 105.1453270 134.7232240
  69.5840060 104.3075700 134.5770060  69.8575200 105.7782670 134.8096380
  60.9312780 105.1673470 147.3848350  60.7920550 106.0396270 147.7535750
  60.0494140 104.8246280 147.2396290  67.2542160 110.0849340 138.6913480
  67.6938070 110.8273670 138.2768870  67.1929050 110.3275910 139.6152440
  62.7293130 111.1095170 149.5933500  62.7008560 111.5138120 148.7261930
  62.5658100 110.1805530 149.4305100  59.2446060 103.7655880 137.4950620
  59.1243660 104.4917970 136.8831890  58.9346950 102.9958790 137.0178530
  56.8831430 106.9371020 143.3019260  56.9611850 107.0719790 142.3574980
  57.4973110 106.2286910 143.4947380  58.1279060 108.6371210 139.7125440
  57.7207140 108.7785800 138.8579040  59.0192070 108.3531370 139.5096650
  74.0841200 109.0835120 148.0497680  74.2104260 108.8447000 147.1314860
  74.1262580 108.2519660 148.5219760  67.9457940 112.7863120 146.6192490
  68.4602610 112.6971130 147.4214920  67.1027020 113.1322820 146.9120400
  69.9212340 113.0718460 136.0476490  69.7613480 112.7821400 136.9458320
  69.7559050 112.2958590 135.5121720  62.4000720 112.8516990 137.8248110
  62.2243200 111.9352530 137.6115910  61.5456460 113.2104280 138.0645910
  69.6238470 110.5806020 134.6074490  68.9303630 110.5783310 133.9476770
  70.3661330 110.1565340 134.1768660  69.1888400 112.2068730 138.6822980
  69.6445350 111.4258110 138.9961600  69.5280920 112.9175550 139.2264160
  73.9365210 101.1367580 149.0147420  73.3209480 101.6447250 148.4862880
  73.6161630 100.2365910 148.9573360  56.9390950 107.9785190 145.8413720
  57.1021990 107.5090550 145.0233090  57.4043400 107.4708750 146.5062560
  61.7109720  97.1090950 140.8774290  61.2677870  97.8900490 140.5458810
  62.2694710  97.4320840 141.5845230  65.9979530  99.9759470 146.4809610
  65.5358900 100.1842490 147.2929550  65.5957640  99.1618820 146.1780280
  70.9984040 101.1968420 147.6106270  70.1477630 100.8974170 147.9315340
  70.8385830 101.4410430 146.6990090  68.0933750 102.6970170 149.7105060
  68.4187160 101.8633920 149.3707290  68.8814080 103.2198690 149.8583390
  64.8268540  96.7301650 135.7580120  64.2022720  96.7261520 136.4833430
  64.7398660  95.8632610 135.3616090  63.7485620  97.6538280 142.7363890
  64.0457950  98.5601110 142.6555910  64.2971180  97.1657060 142.1223460
  61.5023940 102.2324520 138.6055540  61.2764860 102.0161690 139.5102160
  60.7216470 102.6652980 138.2601510  68.7321700 102.2387890 137.2046190
  68.1330590 102.9623690 137.0209810  69.2801310 102.1764670 136.4222640
  63.9423150 103.1310100 149.2715810  63.8466750 102.1904830 149.1216210
  64.7855130 103.3525170 148.8763880  67.3386570 100.8751430 139.2349470
  67.7316140 101.1923630 138.4218160  67.7003420  99.9963310 139.3493990
  59.0733690  99.5423770 147.4249590  58.6797080 100.3898980 147.6322370
  58.3852090  98.9050140 147.6158230  56.3750740  97.4652230 141.4579670
  56.0863790  98.0355090 142.1704650  57.1196500  96.9856680 141.8210900
  56.5620970 101.4072350 132.6682390  56.4795640 102.3503110 132.8097380
  56.2104030 101.2647260 131.7894740  67.9241710 103.4657180 143.3300250
  67.1922830 103.9743990 143.6790350  67.5266050 102.6487160 143.0289030
  64.3619100 100.1411380 141.7352740  64.3655160  99.7001330 140.8857280
  65.2570220 100.4628710 141.8424560  60.2121480 100.0237870 140.6946950
  59.8721530 100.5013100 141.4514000  59.4498800  99.5702990 140.3348050
  64.4239250 101.1423460 134.7259500  64.5452070 101.1009940 135.6745320
  64.0387760 102.0047610 134.5706230  68.3867620  98.9190860 142.7423190
  68.4040360  99.3699510 143.5865040  68.1383200  98.0196500 142.9556630
  63.4360750 103.4524600 134.1242800  62.8677650 103.0042850 133.4978710
  64.1449750 103.8117380 133.5907950  71.8138370  96.3323040 148.5809570
  72.1384140  95.6012700 149.1067550  71.8494880  96.0136680 147.6790560
  58.5129930 107.3536620 148.0009530  58.1284720 106.7130290 148.5992490
  58.8242120 108.0572740 148.5704260  64.6627070 104.2013160 143.4818150
  65.0297200 103.7271730 144.2279490  64.4732130 105.0754730 143.8226490
  57.5267560  98.9456850 139.6111620  57.2414480  98.5812520 140.4490240
  57.4646420  98.2137310 138.9974760  62.4526440 103.2421800 145.8002360
  62.1483510 104.1213780 146.0252720  63.4072900 103.3021590 145.8359800
  60.9808230 107.4482790 136.3969210  60.2070490 106.9080410 136.2367930
  61.7102860 106.9289400 136.0586970  71.7396210 106.4448150 142.1895600
  72.4595330 106.9403440 141.7991710  71.5378030 105.7666040 141.5449470
  67.2006150  97.8386110 136.3324990  66.3870760  97.3399280 136.2570300
  67.0068100  98.6784360 135.9161340  67.1215010 106.5157210 148.0764600
  67.0552320 105.5952880 147.8222190  66.4920150 106.6132650 148.7909240
  69.9154540 102.2105760 134.6287150  70.8034160 102.5222990 134.4538490
  69.8859630 101.3378010 134.2367730  61.0245630 107.1163170 140.0348020
  61.5424300 106.3131430 139.9804910  60.5729650 107.0542310 140.8764850
  65.9115130 108.3829450 135.3075320  66.2530830 109.1271680 134.8118640
  65.0827840 108.6960570 135.6700150  58.5090170 104.0824540 146.9473720
  58.1505110 104.7478390 147.5347060  58.2144730 103.2508090 147.3186340
  61.7103290 104.5408780 149.8313270  61.4103430 104.6865960 148.9341090
  62.4814530 103.9814070 149.7386660  67.0531740 109.3377780 147.8268400
  67.0676280 108.4058740 147.6087310  66.3456840 109.4237540 148.4658170
  72.1868810 103.5217600 134.0967010  72.1032530 103.9531820 133.2463450
  72.9063000 103.9815950 134.5293830  73.2642950 105.9785120 147.1736980
  72.5391140 106.5713900 146.9766370  73.7918410 105.9708660 146.3750350
  73.2156060 110.3759860 136.8249140  72.5732220 109.7215480 137.0992860
  72.8286720 110.7814950 136.0489810  68.7942540 107.7045290 140.6720830
  69.1466360 107.1073420 140.0122200  67.9104870 107.3789520 140.8429080
  64.8805820 108.4642980 138.0791240  65.5676950 109.0112190 138.4598830
  64.0938240 109.0083710 138.1140850  57.0198220 104.0815800 133.5708320
  57.8893070 104.3640600 133.8544240  56.5288540 104.8951670 133.4557130
  64.1833030 105.4689010 137.6916600  64.6395810 106.2794260 137.9176790
  63.8321240 105.1512150 138.5235090  66.4865640 110.9795350 144.9208900
  67.1307860 111.1854730 145.5982320  66.8495080 110.2183750 144.4679750
  60.0844810  95.8126660 138.1639120  59.9559440  95.8044560 139.1124040
  59.2606830  96.1509750 137.8130130  67.7597720 108.9827700 143.6386350
  68.4019950 108.2820860 143.7518520  68.2847070 109.7626140 143.4583240
  71.6053440 109.2676320 133.3625490  71.3791020 108.5506760 133.9550130
  71.2149640 109.0188760 132.5247240  69.5335340 109.7822600 146.8422410
  69.8691580 110.3689290 147.5200330  68.6135680 109.6515310 147.0720200
  57.3869470 113.2943180 134.1369950  57.7467110 113.8932520 133.4827220
  57.2461810 113.8403070 134.9104980  57.0838740  97.5717780 147.6245820
  56.3697260  97.7714700 148.2298430  57.5033780  96.7957350 147.9960620
  71.1869690 107.1848260 135.0239650  70.8991390 107.6460950 135.8117530
  71.9821860 106.7246030 135.2923870  57.3711330 111.5598040 148.6112350
  57.4802450 110.6192780 148.4707740  56.7191890 111.8252790 147.9626080
  63.4038090 110.6774380 134.9543620  63.3948190 111.4104070 134.3388130
  62.4836450 110.4305960 135.0470580  59.0044730 105.8989270 135.6990380
  58.3972680 106.6388170 135.7085680  59.4794080 105.9888630 134.8728580
  68.5777520 100.0640090 145.3747270  68.9458340  99.2435300 145.7026840
  67.7175720 100.1241980 145.7902920  71.9439550  99.0197030 136.1834830
  71.3152710  99.1242700 135.4693060  71.4491470  99.2393810 136.9728710
  66.3897690 110.7402620 133.6168810  66.4909670 110.5366610 132.6870790
  65.4899430 110.4860900 133.8216590  63.9123580 101.2982980 137.5992710
  63.2039730 101.7669320 138.0406320  64.1968060 100.6404990 138.2337900
  65.5379510 102.7179680 145.5985240  66.0364760 103.1925500 146.2637090
  65.6802460 101.7943200 145.8055270  67.9439010  98.0233640 139.0388500
  67.8206790  98.0419770 138.0898010  68.8923570  98.0712580 139.1586900
  65.0315800 113.2588940 138.3116480  65.2857300 113.2210330 137.3895850
  64.0828280 113.1322270 138.3044730  72.7446370  98.9347640 146.4413630
  72.2419970  99.6753040 146.7807440  73.5603030  99.3231640 146.1250420
  71.0368380 104.1780820 139.8874990  70.0958520 104.1931050 140.0622680
  71.3512450 103.3916780 140.3335290  61.0150020 105.8600420 133.4478950
  61.7813290 105.7481780 134.0104380  61.0924710 105.1638390 132.7955720
  59.7096780 103.2925490 134.1311840  59.7900370 102.3453000 134.2429240
  60.6016530 103.6232370 134.2372500  73.0393960 111.3489670 141.5629250
  73.1641380 112.1720840 142.0353060  73.9059520 111.1380400 141.2153400
  60.5111490 113.4420880 141.2346380  61.2473970 112.8936340 141.5054950
  60.8952410 114.3076890 141.0952370  57.3956970 109.5094450 137.1087890
  56.4696750 109.7515590 137.0993300  57.8613400 110.3368710 136.9872640
  63.6213800 112.6151190 133.0571950  64.4142410 112.9040020 132.6053740
  63.1018150 112.1843360 132.3784430  69.7834770 112.4627110 148.9816780
  70.7356520 112.3785130 148.9317020  69.6362990 113.1268820 149.6550570
  72.6743970 111.8421320 134.4808690  72.3885480 111.4286460 133.6662870
  72.4763520 112.7709030 134.3609210  57.2367580 105.1140410 149.3668010
  57.7406600 104.5347690 149.9384240  56.4975000 105.3980640 149.9044380
  64.1391200 107.8354600 132.9214300  64.0341840 107.2206950 133.6475680
  63.9715420 107.3120490 132.1377310  64.2905520 106.5211400 148.9003530
  63.5251190 107.0896400 148.8158200  64.4721480 106.2287610 148.0071760
  67.3793930 106.8974630 133.5256290  66.8304030 107.3443930 134.1699030
  68.0013190 106.3923880 134.0493960  71.4328870 108.2516730 149.4578550
  72.1738340 108.5892490 148.9546010  70.6701550 108.4208790 148.9048320
  63.0469050 105.8565550 135.4221590  63.4685470 105.6905420 136.2652980
  63.1719890 105.0465780 134.9276730  61.2096470 101.8362100 148.2292570
  60.6792930 101.3453050 147.6015910  61.8784540 102.2646300 147.6950500
  65.5596690 104.8803160 132.6698690  66.0802350 104.1652180 132.3039840
  66.2065090 105.5189030 132.9699200  70.1074530 106.3031560 147.9933760
  70.5215550 106.4576640 148.8424180  69.1725530 106.4286780 148.1559540
  70.5796700 103.6427720 149.9972910  71.1617470 102.8880040 149.9093390
  70.7558470 104.1735160 149.2204390  61.6968770  98.8024470 148.3089860
  61.6025640  98.1845220 147.5840730  61.1166160  99.5290760 148.0819770
  64.4630210  97.3597710 145.3417250  64.0147510  97.3821970 144.4962800
  63.8295410  96.9616730 145.9387550  64.8689760 106.2552040 145.9629690
  65.2877870 107.0984770 145.7905930  63.9498390 106.3924080 145.7336470
  67.2053660 103.9868220 147.3467530  67.3249870 103.3909360 148.0862370
  68.0647660 104.0237910 146.9268830  69.5441560 104.5405410 145.9230040
  69.0176780 105.0648030 145.3195180  69.8872900 105.1732800 146.5539770
  62.7197180 112.5605050 147.0787420  62.1818270 113.2851110 146.7596120
  62.9731140 112.0835390 146.2884760  63.9722430 100.5289570 148.6043350
  64.5622120 100.2205420 149.2921170  63.1542670 100.0569320 148.7603250
  68.7915860 100.1455380 148.8376370  68.1031380  99.4836920 148.7726360
  69.5121880  99.6993650 149.2824830  65.5759390 113.7956260 147.3374070
  65.5018090 114.6991400 147.6446440  64.6738230 113.4768160 147.3096140
  66.1244720 112.9614770 134.9600430  67.0195510 113.2999740 134.9819190
  66.1562350 112.2394180 134.3324710  59.7640880 108.3341820 133.1887430
  60.2015750 108.8771490 133.8445010  60.2488610 107.5088770 133.1983770
  56.9786680 111.1230850 140.6407690  57.3089690 110.2551910 140.4086330
  57.4077680 111.3289370 141.4712650  61.5748600 109.4539860 138.3009660
  61.2744140 109.3304830 139.2013570  61.4686090 108.5948450 137.8925390
  57.4676890 111.9901440 143.3789320  57.0307880 112.1702240 144.2113470
  58.0354570 112.7476060 143.2371040  73.1039070 111.4918440 147.6666630
  72.5041060 111.5511000 146.9230550  73.2332970 110.5523420 147.7963480
  74.3440520 109.2336260 133.0036340  73.5133480 109.3012910 133.4743570
  74.5212350 110.1240380 132.7003200  73.7996980 105.9783740 135.5070540
  74.5615890 106.5480390 135.6130230  73.8151350 105.4110940 136.2778850
  57.3001320 104.5021670 139.7378200  56.6450160 104.2333310 139.0937900
  58.1379270 104.3926150 139.2880180  74.8056950 106.8333840 140.3512470
  75.1765780 106.0501160 139.9448440  75.4458880 107.5222940 140.1729770
  71.7890710 108.2170420 145.7642790  70.9750550 108.6467580 146.0268580
  72.1964910 108.8288830 145.1511840  73.8516150 106.2718110 132.6643060
  74.1264990 107.1796990 132.5362280  73.6626890 106.2080640 133.6005050
  70.2491760  99.2962960 133.9596690  70.6676640  99.1093940 133.1193350
  69.9427820  98.4442010 134.2699620  73.7481490 104.2087100 137.6572490
  73.3725090 103.4415030 137.2253780  73.0184610 104.5909800 138.1447420
  58.3377250 104.8874240 144.2781540  58.7050290 104.8001640 145.1577560
  57.7688070 104.1240790 144.1788400  73.1381110 103.3558620 147.2912010
  72.9067200 103.1271370 146.3909960  73.3985660 104.2758170 147.2456900
  57.8893250 101.7983330 148.1839960  56.9949300 101.7650090 148.5233670
  58.4290800 101.9970120 148.9491210  56.5139400 101.7120600 135.6803530
  55.6103480 101.9750800 135.5055190  56.9980020 101.9831770 134.9003490
  73.0232450 102.4344590 140.9579730  73.5469930 101.9407240 140.3269900
  73.6091870 102.5694950 141.7027300  73.2022170 102.5184460 144.4799280
  72.2524880 102.4848000 144.5944270  73.3835180 103.4284570 144.2449050
  59.0566610 100.7686140 133.5897910  59.7658310 100.3469360 133.1045190
  58.3406550 100.8361370 132.9581260  72.5132420 101.6917940 136.8972140
  73.0091540 101.4588810 137.6821020  72.3148490 100.8529780 136.4809780
  58.3932960  96.0731660 142.5323180  59.0409150  95.5229040 142.0918340
  58.8134800  96.3274810 143.3538990  73.9419580 100.3278890 139.4309820
  73.8318860 100.1734930 140.3692090  74.7027170  99.7999830 139.1885230
  72.2885300  96.2673020 145.8892820  72.9257520  96.8807160 146.2552010
  72.4360190  96.3033680 144.9442050  74.9048340  98.9297470 135.2972670
  74.1099840  98.8642590 135.8265580  75.1091620  99.8648110 135.2858020
  71.8466760 112.9689020 139.2911060  72.4425830 112.6473590 138.6145480
  72.1044910 112.4960840 140.0824330  58.1464960  96.2287330 145.2748500
  57.7979780  96.6851150 146.0406680  57.8152660  95.3344460 145.3570930
  63.4535360 110.9566520 145.0411410  63.2126720 111.2241080 144.1541930
  64.3938000 111.1272250 145.0962270  65.6589780  97.4199210 148.7967920
  65.5978670  98.0121040 149.5463330  66.5990160  97.3125170 148.6518180
  68.2964340  97.0769270 148.4360210  68.9104750  97.3948560 147.7741290
  68.8413900  96.5917860 149.0556070  74.7139520 112.9760900 145.8422050
  74.2197800 113.3729770 145.1249180  74.1052810 112.3510110 146.2359330
  58.8185600  95.7563530 148.5499270  59.3668590  95.5751580 147.7865380
  58.8840910  94.9657640 149.0855580  59.5917360 112.3469180 146.5599470
  58.9977680 112.2153880 147.2989510  59.5841200 111.5107320 146.0941570
  69.0372380  95.6401410 144.7629500  68.1632220  95.9736520 144.5602430
  68.9283130  95.1674590 145.5881370  69.9444360  97.8472280 146.1471220
  69.6157720  97.0324040 145.7672950  70.8926660  97.8042090 146.0236910
  72.3978970 113.6184320 143.1208790  71.9381940 114.3700130 142.7466810
  71.7691430 112.8990790 143.0623590  59.2229590 109.7127560 145.5107510
  58.4963650 109.0932850 145.4433460  59.2838740 110.1068170 144.6405590
  62.8274690 111.9272560 142.2956920  63.3439710 111.3159920 141.7705180
  63.4772070 112.4301340 142.7867930  65.5670190 112.8181050 143.1225900
  65.8548000 112.5635350 142.2458910  66.0793410 112.2658410 143.7131470
  66.7847200  96.5571250 143.7022410  66.0018990  97.0316750 143.9819170
  66.4910130  95.6526080 143.5935590  71.3368270  97.2594350 141.7471500
  71.7776360  97.2039450 140.8993100  71.0675860  98.1752360 141.8181680
  73.2006840  96.8909590 139.7580320  73.1395240  95.9470810 139.6111340
  73.9798870  96.9989680 140.3033780  57.5059590 113.0301950 138.7204270
  57.3381630 112.3972630 139.4186160  56.6394100 113.2361350 138.3698460
  58.1287610  96.8618730 136.2236130  58.8866970  96.9747610 135.6500160
  57.6664780  97.6987930 136.1779560  64.6701420  98.9758000 139.2138440
  63.8575930  98.6014890 138.8734320  65.1743060  98.2203080 139.5159630
  69.1726400  95.6400450 140.4521510  69.7755770  96.2120660 140.9270030
  68.4319390  96.2039890 140.2295410  59.1122290 111.7235180 136.1654410
  58.5869910 112.1043210 135.4616370  59.0366870 112.3485950 136.8864120
  62.6950600  97.1257920 137.8183490  62.0653340  96.4245230 137.9853620
  62.1555740  97.8862050 137.6016650  73.8687610 113.2822720 137.4868350
  74.0439800 112.5960460 136.8429270  73.1709180 113.8069770 137.0945020
  61.7115260 113.6717560 135.0403660  62.4434080 113.3876840 134.4927550
  61.9708930 113.4330840 135.9303040  60.8730050 109.7882290 135.0449990
  60.2438930 110.2567390 135.5935820  60.9877880 108.9431510 135.4796180
  68.3279770 103.8387950 121.1951190  68.2473820 102.9242560 120.9242900
  67.9144190 104.3355020 120.4890900  66.4597810 105.6166970 123.0760460
  65.6839910 105.1367410 123.3659030  67.1110740 104.9372620 122.9016620
  60.4763640 105.9286780 123.9536220  59.6448520 105.6735490 124.3532730
  61.0844620 105.9997550 124.6894140  70.4805240 110.0227160 121.8559590
  70.0186770 109.2514400 122.1846760  71.2930790 110.0493230 122.3612040
  58.8855590 100.8888670 117.7378610  57.9972290 101.2304640 117.6358490
  59.1696780 100.6888990 116.8459440  56.8488600 103.4894320 123.6218310
  57.4204710 102.7216520 123.6221950  56.8490140 103.7883080 122.7124920
  66.9311970 101.0994540 123.3099550  67.3076790 100.2266420 123.1973220
  66.8331480 101.4353240 122.4189990  58.7100140 101.3939180 124.0169580
  59.3910250 101.6577550 124.6356980  58.3948190 100.5540050 124.3507590
  62.9024710 102.4406540 123.1042170  63.4102930 102.9387510 123.7447190
  63.4337950 101.6641740 122.9281530  75.0035640 100.6111730 126.8071520
  74.2987810 100.9993440 126.2886630  75.2693560 101.3062020 127.4092450
  61.1860810  97.0805100 127.3705590  61.1879250  97.5977490 126.5651490
  60.3565120  96.6035280 127.3475520  62.4363660 106.7200280 125.5479090
  62.1033040 107.3469200 126.1900160  62.6130340 107.2462160 124.7680760
  60.8676140  98.7915060 125.3776040  61.2092950  99.6357110 125.0829910
  59.9291950  98.9398800 125.4941380  61.6482760 108.6881080 127.3628270
  62.2656760 109.3632160 127.0812720  60.7875880 109.0969060 127.2715770
  72.5660350 110.1520490 125.2782910  71.8823870 110.8219600 125.2699580
  73.1054640 110.3501140 124.5127770  64.5504030  96.2797330 121.7020630
  64.8579010  95.7244220 120.9856130  63.6204730  96.4141790 121.5193620
  69.5004530 106.8994460 125.3210700  69.9173320 106.6854570 124.4864160
  70.2244350 107.1567250 125.8919320  66.9384790 104.3446160 118.4380750
  66.0114070 104.2783540 118.6669220  67.0909610 105.2826290 118.3235990
  66.9253870 100.6163160 115.4347910  65.9857540 100.7777120 115.5200370
  67.2437130 101.3348840 114.8883900  73.4466630 105.2981680 125.4126940
  72.6185260 105.3674770 124.9377070  74.0417110 105.8835990 124.9442770
  70.4108640 102.0851000 126.3581810  69.9979820 102.9104710 126.6121800
  69.6784590 101.4996040 126.1658170  62.5441430 104.8710900 121.2200480
  62.1398430 104.1588150 120.7246380  62.6304550 104.5264140 122.1088520
  61.2570050 101.6454110 124.9999520  61.8084640 101.7549450 124.2252770
  61.7713560 102.0191710 125.7154750  71.1008740 112.1310330 127.0462790
  70.6239300 112.9382520 126.8535400  70.4170530 111.4788660 127.1989000
  62.1041560 108.2960150 130.0347490  61.2070090 108.5200120 130.2820890
  62.1294430 108.4195090 129.0858890  69.1446780 105.1453270 115.9488750
  69.5840060 104.3075700 115.8026570  69.8575200 105.7782670 116.0352890
  60.9312780 105.1673470 128.6104860  60.7920550 106.0396270 128.9792260
  60.0494140 104.8246280 128.4652800  62.7293130 111.1095170 130.8190010
  62.7008560 111.5138120 129.9518440  62.5658100 110.1805530 130.6561610
  74.6807950 111.8922270 132.1154180  75.1567670 112.3705160 132.7943260
  75.3015110 111.8239760 131.3899680  56.8831430 106.9371020 124.5275770
  56.9611850 107.0719790 123.5831490  57.4973110 106.2286910 124.7203890
  58.1279060 108.6371210 120.9381950  57.7207140 108.7785800 120.0835550
  59.0192070 108.3531370 120.7353160  74.0841200 109.0835120 129.2754190
  74.2104260 108.8447000 128.3571370  74.1262580 108.2519660 129.7476270
  67.9457940 112.7863120 127.8449000  68.4602610 112.6971130 128.6471430
  67.1027020 113.1322820 128.1376910  62.4000720 112.8516990 119.0504620
  62.2243200 111.9352530 118.8372420  61.5456460 113.2104280 119.2902420
  69.6238470 110.5806020 115.8331000  68.9303630 110.5783310 115.1733280
  70.3661330 110.1565340 115.4025170  73.9365210 101.1367580 130.2403930
  73.3209480 101.6447250 129.7119390  73.6161630 100.2365910 130.1829870
  56.9390950 107.9785190 127.0670230  57.1021990 107.5090550 126.2489600
  57.4043400 107.4708750 127.7319070  65.9979530  99.9759470 127.7066120
  65.5358900 100.1842490 128.5186060  65.5957640  99.1618820 127.4036790
  70.9984040 101.1968420 128.8362780  70.1477630 100.8974170 129.1571850
  70.8385830 101.4410430 127.9246600  68.0933750 102.6970170 130.9361570
  68.4187160 101.8633920 130.5963800  68.8814080 103.2198690 131.0839900
  64.8268540  96.7301650 116.9836630  64.2022720  96.7261520 117.7089940
  64.7398660  95.8632610 116.5872600  63.7485620  97.6538280 123.9620400
  64.0457950  98.5601110 123.8812420  64.2971180  97.1657060 123.3479970
  68.7321700 102.2387890 118.4302700  68.1330590 102.9623690 118.2466320
  69.2801310 102.1764670 117.6479150  67.3386570 100.8751430 120.4605980
  67.7316140 101.1923630 119.6474670  67.7003420  99.9963310 120.5750500
  56.3750740  97.4652230 122.6836180  56.0863790  98.0355090 123.3961160
  57.1196500  96.9856680 123.0467410  56.5620970 101.4072350 113.8938900
  56.4795640 102.3503110 114.0353890  56.2104030 101.2647260 113.0151250
  67.9241710 103.4657180 124.5556760  67.1922830 103.9743990 124.9046860
  67.5266050 102.6487160 124.2545540  64.3619100 100.1411380 122.9609250
  64.3655160  99.7001330 122.1113790  65.2570220 100.4628710 123.0681070
  60.2121480 100.0237870 121.9203460  59.8721530 100.5013100 122.6770510
  59.4498800  99.5702990 121.5604560  64.4239250 101.1423460 115.9516010
  64.5452070 101.1009940 116.9001830  64.0387760 102.0047610 115.7962740
  68.3867620  98.9190860 123.9679700  68.4040360  99.3699510 124.8121550
  68.1383200  98.0196500 124.1813140  58.5129930 107.3536620 129.2266040
  58.1284720 106.7130290 129.8249000  58.8242120 108.0572740 129.7960770
  64.6627070 104.2013160 124.7074660  65.0297200 103.7271730 125.4536000
  64.4732130 105.0754730 125.0483000  62.4526440 103.2421800 127.0258870
  62.1483510 104.1213780 127.2509230  63.4072900 103.3021590 127.0616310
  71.7396210 106.4448150 123.4152110  72.4595330 106.9403440 123.0248220
  71.5378030 105.7666040 122.7705980  67.2006150  97.8386110 117.5581500
  66.3870760  97.3399280 117.4826810  67.0068100  98.6784360 117.1417850
  67.1215010 106.5157210 129.3021110  67.0552320 105.5952880 129.0478700
  66.4920150 106.6132650 130.0165750  69.9154540 102.2105760 115.8543660
  70.8034160 102.5222990 115.6795000  69.8859630 101.3378010 115.4624240
  61.0245630 107.1163170 121.2604530  61.5424300 106.3131430 121.2061420
  60.5729650 107.0542310 122.1021360  65.9115130 108.3829450 116.5331830
  66.2530830 109.1271680 116.0375150  65.0827840 108.6960570 116.8956660
  58.5090170 104.0824540 128.1730230  58.1505110 104.7478390 128.7603570
  58.2144730 103.2508090 128.5442850  61.7103290 104.5408780 131.0569780
  61.4103430 104.6865960 130.1597600  62.4814530 103.9814070 130.9643170
  67.0531740 109.3377780 129.0524910  67.0676280 108.4058740 128.8343820
  66.3456840 109.4237540 129.6914680  72.1868810 103.5217600 115.3223520
  72.1032530 103.9531820 114.4719960  72.9063000 103.9815950 115.7550340
  73.2642950 105.9785120 128.3993490  72.5391140 106.5713900 128.2022880
  73.7918410 105.9708660 127.6006860  64.8805820 108.4642980 119.3047750
  65.5676950 109.0112190 119.6855340  64.0938240 109.0083710 119.3397360
  69.5335340 109.7822600 128.0678920  69.8691580 110.3689290 128.7456840
  68.6135680 109.6515310 128.2976710  57.3869470 113.2943180 115.3626460
  57.7467110 113.8932520 114.7083730  57.2461810 113.8403070 116.1361490
  57.3711330 111.5598040 129.8368860  57.4802450 110.6192780 129.6964250
  56.7191890 111.8252790 129.1882590  65.3623920 109.8313930 131.2366980
  65.0420790 109.1123170 131.7812670  64.6882280 110.5069000 131.3103040
  63.4038090 110.6774380 116.1800130  63.3948190 111.4104070 115.5644640
  62.4836450 110.4305960 116.2727090  68.5777520 100.0640090 126.6003780
  68.9458340  99.2435300 126.9283350  67.7175720 100.1241980 127.0159430
  66.3897690 110.7402620 114.8425320  66.4909670 110.5366610 113.9127300
  65.4899430 110.4860900 115.0473100  63.9123580 101.2982980 118.8249220
  63.2039730 101.7669320 119.2662830  64.1968060 100.6404990 119.4594410
  65.5379510 102.7179680 126.8241750  66.0364760 103.1925500 127.4893600
  65.6802460 101.7943200 127.0311780  67.9439010  98.0233640 120.2645010
  67.8206790  98.0419770 119.3154520  68.8923570  98.0712580 120.3843410
  62.1158600  99.6068060 116.1999930  62.9649130 100.0438210 116.1340120
  61.7489870  99.9188320 117.0271990  72.7446370  98.9347640 127.6670140
  72.2419970  99.6753040 128.0063950  73.5603030  99.3231640 127.3506930
  60.5111490 113.4420880 122.4602890  61.2473970 112.8936340 122.7311460
  60.8952410 114.3076890 122.3208880  57.3956970 109.5094450 118.3344400
  56.4696750 109.7515590 118.3249810  57.8613400 110.3368710 118.2129150
  59.5169770 112.6266950 131.6488470  60.3182500 112.9479000 132.0623870
  59.0021590 112.2662530 132.3708380  63.6213800 112.6151190 114.2828460
  64.4142410 112.9040020 113.8310250  63.1018150 112.1843360 113.6040940
  68.3534400 108.7346820 131.5963880  67.7472560 108.7578420 130.8559630
  68.0488510 108.0029860 132.1331130  69.7834770 112.4627110 130.2073290
  70.7356520 112.3785130 130.1573530  69.6362990 113.1268820 130.8807080
  57.2367580 105.1140410 130.5924520  57.7406600 104.5347690 131.1640750
  56.4975000 105.3980640 131.1300890  64.2905520 106.5211400 130.1260040
  63.5251190 107.0896400 130.0414710  64.4721480 106.2287610 129.2328270
  67.3793930 106.8974630 114.7512800  66.8304030 107.3443930 115.3955540
  68.0013190 106.3923880 115.2750470  71.4328870 108.2516730 130.6835060
  72.1738340 108.5892490 130.1802520  70.6701550 108.4208790 130.1304830
  59.2690660 103.2570000 131.4874590  59.3096000 102.9583870 132.3959820
  60.1236160 103.6577610 131.3282110  65.5596690 104.8803160 113.8955200
  66.0802350 104.1652180 113.5296350  66.2065090 105.5189030 114.1955710
  70.1074530 106.3031560 129.2190270  70.5215550 106.4576640 130.0680690
  69.1725530 106.4286780 129.3816050  70.5796700 103.6427720 131.2229420
  71.1617470 102.8880040 131.1349900  70.7558470 104.1735160 130.4460900
  64.4630210  97.3597710 126.5673760  64.0147510  97.3821970 125.7219310
  63.8295410  96.9616730 127.1644060  64.8689760 106.2552040 127.1886200
  65.2877870 107.0984770 127.0162440  63.9498390 106.3924080 126.9592980
  67.2053660 103.9868220 128.5724040  67.3249870 103.3909360 129.3118880
  68.0647660 104.0237910 128.1525340  69.5441560 104.5405410 127.1486550
  69.0176780 105.0648030 126.5451690  69.8872900 105.1732800 127.7796280
  68.7915860 100.1455380 130.0632880  68.1031380  99.4836920 129.9982870
  69.5121880  99.6993650 130.5081340  60.7410750  99.0299400 113.5814140
  61.0436650  99.0366830 112.6733290  61.4805340  98.6797260 114.0781800
  63.9595680  97.9734020 114.5670340  63.6117680  97.2958010 113.9872790
  64.1608450  97.5123530 115.3813730  56.9786680 111.1230850 121.8664200
  57.3089690 110.2551910 121.6342840  57.4077680 111.3289370 122.6969160
  61.5748600 109.4539860 119.5266170  61.2744140 109.3304830 120.4270080
  61.4686090 108.5948450 119.1181900  57.4676890 111.9901440 124.6045830
  57.0307880 112.1702240 125.4369980  58.0354570 112.7476060 124.4627550
  73.1039070 111.4918440 128.8923140  72.5041060 111.5511000 128.1487060
  73.2332970 110.5523420 129.0219990  57.3001320 104.5021670 120.9634710
  56.6450160 104.2333310 120.3194410  58.1379270 104.3926150 120.5136690
  71.7890710 108.2170420 126.9899300  70.9750550 108.6467580 127.2525090
  72.1964910 108.8288830 126.3768350  58.3377250 104.8874240 125.5038050
  58.7050290 104.8001640 126.3834070  57.7688070 104.1240790 125.4044910
  73.1381110 103.3558620 128.5168520  72.9067200 103.1271370 127.6166470
  73.3985660 104.2758170 128.4713410  57.8893250 101.7983330 129.4096470
  56.9949300 101.7650090 129.7490180  58.4290800 101.9970120 130.1747720
  71.5769180  98.5815050 131.2948220  72.4539360  98.5898450 131.6782220
  71.5890020  97.8445890 130.6840570  56.5139400 101.7120600 116.9060040
  55.6103480 101.9750800 116.7311700  56.9980020 101.9831770 116.1260000
  73.2022170 102.5184460 125.7055790  72.2524880 102.4848000 125.8200780
  73.3835180 103.4284570 125.4705560  59.0566610 100.7686140 114.8154420
  59.7658310 100.3469360 114.3301700  58.3406550 100.8361370 114.1837770
  58.7040770  96.8225470 113.8557070  59.4268900  97.3634410 114.1738290
  58.9765290  96.5488890 112.9798610  72.5132420 101.6917940 118.1228650
  73.0091540 101.4588810 118.9077530  72.3148490 100.8529780 117.7066290
  58.3932960  96.0731660 123.7579690  59.0409150  95.5229040 123.3174850
  58.8134800  96.3274810 124.5795500  74.9048340  98.9297470 116.5229180
  74.1099840  98.8642590 117.0522090  75.1091620  99.8648110 116.5114530
  59.7529330 109.4006930 130.6658200  59.7098960 109.0299840 131.5472660
  59.8840340 110.3384500 130.8060020  74.7139520 112.9760900 127.0678560
  74.2197800 113.3729770 126.3505690  74.1052810 112.3510110 127.4615840
  59.5917360 112.3469180 127.7855980  58.9977680 112.2153880 128.5246020
  59.5841200 111.5107320 127.3198080  69.0372380  95.6401410 125.9886010
  68.1632220  95.9736520 125.7858940  68.9283130  95.1674590 126.8137880
  69.9444360  97.8472280 127.3727730  69.6157720  97.0324040 126.9929460
  70.8926660  97.8042090 127.2493420  59.2229590 109.7127560 126.7364020
  58.4963650 109.0932850 126.6689970  59.2838740 110.1068170 125.8662100
  57.5059590 113.0301950 119.9460780  57.3381630 112.3972630 120.6442670
  56.6394100 113.2361350 119.5954970  64.6701420  98.9758000 120.4394950
  63.8575930  98.6014890 120.0990830  65.1743060  98.2203080 120.7416140
  59.1122290 111.7235180 117.3910920  58.5869910 112.1043210 116.6872880
  59.0366870 112.3485950 118.1120630  60.5012760  97.3882780 115.9894610
  61.0305520  96.6012580 115.8602560  61.1341080  98.0673970 116.2230140
  65.6342550 113.7397150 131.7150610  66.5609860 113.5041420 131.7586570
  65.6192980 114.5669150 131.2336640  61.7115260 113.6717560 116.2660170
  62.4434080 113.3876840 115.7184060  61.9708930 113.4330840 117.1559550
  72.2020110 112.9667010 131.5391650  72.9945430 112.4716240 131.3317610
  72.4953260 113.6457150 132.1467260  66.4597810 105.6166970 104.3016970
  65.6839910 105.1367410 104.5915540  67.1110740 104.9372620 104.1273130
  60.4763640 105.9286780 105.1792730  59.6448520 105.6735490 105.5789240
  61.0844620 105.9997550 105.9150650  70.4805240 110.0227160 103.0816100
  70.0186770 109.2514400 103.4103270  71.2930790 110.0493230 103.5868550
  60.4564900 109.9626870 105.3750750  60.7592940 109.0724610 105.1960970
  61.2008490 110.5197090 105.1473000  66.7068550 112.3085170 102.7020090
  66.0879990 112.7642670 102.1314530  67.5620330 112.4636630 102.3009790
  66.9311970 101.0994540 104.5356060  67.3076790 100.2266420 104.4229730
  66.8331480 101.4353240 103.6446500  62.9024710 102.4406540 104.3298680
  63.4102930 102.9387510 104.9703700  63.4337950 101.6641740 104.1538040
  75.0035640 100.6111730 108.0328030  74.2987810 100.9993440 107.5143140
  75.2693560 101.3062020 108.6348960  62.4363660 106.7200280 106.7735600
  62.1033040 107.3469200 107.4156670  62.6130340 107.2462160 105.9937270
  72.5660350 110.1520490 106.5039420  71.8823870 110.8219600 106.4956090
  73.1054640 110.3501140 105.7384280  70.1019090 111.9964620 105.2184600
  70.1146250 111.5926910 104.3506860  69.5494310 112.7711910 105.1146030
  69.5004530 106.8994460 106.5467210  69.9173320 106.6854570 105.7120670
  70.2244350 107.1567250 107.1175830  73.4466630 105.2981680 106.6383450
  72.6185260 105.3674770 106.1633580  74.0417110 105.8835990 106.1699280
  70.4108640 102.0851000 107.5838320  69.9979820 102.9104710 107.8378310
  69.6784590 101.4996040 107.3914680  71.1008740 112.1310330 108.2719300
  70.6239300 112.9382520 108.0791910  70.4170530 111.4788660 108.4245510
  67.2542160 110.0849340 101.1426500  67.6938070 110.8273670 100.7281890
  67.1929050 110.3275910 102.0665460  62.7293130 111.1095170 112.0446520
  62.7008560 111.5138120 111.1774950  62.5658100 110.1805530 111.8818120
  58.1279060 108.6371210 102.1638460  57.7207140 108.7785800 101.3092060
  59.0192070 108.3531370 101.9609670  67.9457940 112.7863120 109.0705510
  68.4602610 112.6971130 109.8727940  67.1027020 113.1322820 109.3633420
  62.4000720 112.8516990 100.2761130  62.2243200 111.9352530 100.0628930
  61.5456460 113.2104280 100.5158930  69.1888400 112.2068730 101.1336000
  69.6445350 111.4258110 101.4474620  69.5280920 112.9175550 101.6777180
  73.9365210 101.1367580 111.4660440  73.3209480 101.6447250 110.9375900
  73.6161630 100.2365910 111.4086380  65.9979530  99.9759470 108.9322630
  65.5358900 100.1842490 109.7442570  65.5957640  99.1618820 108.6293300
  70.9984040 101.1968420 110.0619290  70.1477630 100.8974170 110.3828360
  70.8385830 101.4410430 109.1503110  68.0933750 102.6970170 112.1618080
  68.4187160 101.8633920 111.8220310  68.8814080 103.2198690 112.3096410
  63.7485620  97.6538280 105.1876910  64.0457950  98.5601110 105.1068930
  64.2971180  97.1657060 104.5736480  63.9423150 103.1310100 111.7228830
  63.8466750 102.1904830 111.5729230  64.7855130 103.3525170 111.3276900
  65.6478740  99.6258740 112.9459350  64.9577060  99.4330940 113.5805440
  66.3911040  99.9093380 113.4783650  56.3750740  97.4652230 103.9092690
  56.0863790  98.0355090 104.6217670  57.1196500  96.9856680 104.2723920
  67.9241710 103.4657180 105.7813270  67.1922830 103.9743990 106.1303370
  67.5266050 102.6487160 105.4802050  64.3619100 100.1411380 104.1865760
  64.3655160  99.7001330 103.3370300  65.2570220 100.4628710 104.2937580
  60.2121480 100.0237870 103.1459970  59.8721530 100.5013100 103.9027020
  59.4498800  99.5702990 102.7861070  68.3867620  98.9190860 105.1936210
  68.4040360  99.3699510 106.0378060  68.1383200  98.0196500 105.4069650
  64.6627070 104.2013160 105.9331170  65.0297200 103.7271730 106.6792510
  64.4732130 105.0754730 106.2739510  57.5267560  98.9456850 102.0624640
  57.2414480  98.5812520 102.9003260  57.4646420  98.2137310 101.4487780
  71.7396210 106.4448150 104.6408620  72.4595330 106.9403440 104.2504730
  71.5378030 105.7666040 103.9962490  67.1215010 106.5157210 110.5277620
  67.0552320 105.5952880 110.2735210  66.4920150 106.6132650 111.2422260
  67.0531740 109.3377780 110.2781420  67.0676280 108.4058740 110.0600330
  66.3456840 109.4237540 110.9171190  73.2642950 105.9785120 109.6250000
  72.5391140 106.5713900 109.4279390  73.7918410 105.9708660 108.8263370
  68.7942540 107.7045290 103.1233850  69.1466360 107.1073420 102.4635220
  67.9104870 107.3789520 103.2942100  66.4865640 110.9795350 107.3721920
  67.1307860 111.1854730 108.0495340  66.8495080 110.2183750 106.9192770
  67.7597720 108.9827700 106.0899370  68.4019950 108.2820860 106.2031540
  68.2847070 109.7626140 105.9096260  69.5335340 109.7822600 109.2935430
  69.8691580 110.3689290 109.9713350  68.6135680 109.6515310 109.5233220
  57.3869470 113.2943180  96.5882970  57.7467110 113.8932520  95.9340240
  57.2461810 113.8403070  97.3618000  65.3623920 109.8313930 112.4623490
  65.0420790 109.1123170 113.0069180  64.6882280 110.5069000 112.5359550
  63.4038090 110.6774380  97.4056640  63.3948190 111.4104070  96.7901150
  62.4836450 110.4305960  97.4983600  68.5777520 100.0640090 107.8260290
  68.9458340  99.2435300 108.1539860  67.7175720 100.1241980 108.2415940
  65.5379510 102.7179680 108.0498260  66.0364760 103.1925500 108.7150110
  65.6802460 101.7943200 108.2568290  65.0315800 113.2588940 100.7629500
  65.2857300 113.2210330  99.8408870  64.0828280 113.1322270 100.7557750
  72.7446370  98.9347640 108.8926650  72.2419970  99.6753040 109.2320460
  73.5603030  99.3231640 108.5763440  73.0393960 111.3489670 104.0142270
  73.1641380 112.1720840 104.4866080  73.9059520 111.1380400 103.6666420
  60.5111490 113.4420880 103.6859400  61.2473970 112.8936340 103.9567970
  60.8952410 114.3076890 103.5465390  57.3956970 109.5094450  99.5600910
  56.4696750 109.7515590  99.5506320  57.8613400 110.3368710  99.4385660
  59.5169770 112.6266950 112.8744980  60.3182500 112.9479000 113.2880380
  59.0021590 112.2662530 113.5964890  63.6213800 112.6151190  95.5084970
  64.4142410 112.9040020  95.0566760  63.1018150 112.1843360  94.8297450
  68.3534400 108.7346820 112.8220390  67.7472560 108.7578420 112.0816140
  68.0488510 108.0029860 113.3587640  69.7834770 112.4627110 111.4329800
  70.7356520 112.3785130 111.3830040  69.6362990 113.1268820 112.1063590
  64.2905520 106.5211400 111.3516550  63.5251190 107.0896400 111.2671220
  64.4721480 106.2287610 110.4584780  71.4328870 108.2516730 111.9091570
  72.1738340 108.5892490 111.4059030  70.6701550 108.4208790 111.3561340
  70.1074530 106.3031560 110.4446780  70.5215550 106.4576640 111.2937200
  69.1725530 106.4286780 110.6072560  70.5796700 103.6427720 112.4485930
  71.1617470 102.8880040 112.3606410  70.7558470 104.1735160 111.6717410
  64.4630210  97.3597710 107.7930270  64.0147510  97.3821970 106.9475820
  63.8295410  96.9616730 108.3900570  64.8689760 106.2552040 108.4142710
  65.2877870 107.0984770 108.2418950  63.9498390 106.3924080 108.1849490
  67.2053660 103.9868220 109.7980550  67.3249870 103.3909360 110.5375390
  68.0647660 104.0237910 109.3781850  69.5441560 104.5405410 108.3743060
  69.0176780 105.0648030 107.7708200  69.8872900 105.1732800 109.0052790
  62.7197180 112.5605050 109.5300440  62.1818270 113.2851110 109.2109140
  62.9731140 112.0835390 108.7397780  63.9722430 100.5289570 111.0556370
  64.5622120 100.2205420 111.7434190  63.1542670 100.0569320 111.2116270
  68.7915860 100.1455380 111.2889390  68.1031380  99.4836920 111.2239380
  69.5121880  99.6993650 111.7337850  65.5759390 113.7956260 109.7887090
  65.5018090 114.6991400 110.0959460  64.6738230 113.4768160 109.7609160
  66.1244720 112.9614770  97.4113450  67.0195510 113.2999740  97.4332210
  66.1562350 112.2394180  96.7837730  56.9786680 111.1230850 103.0920710
  57.3089690 110.2551910 102.8599350  57.4077680 111.3289370 103.9225670
  57.4676890 111.9901440 105.8302340  57.0307880 112.1702240 106.6626490
  58.0354570 112.7476060 105.6884060  57.3001320 104.5021670 102.1891220
  56.6450160 104.2333310 101.5450920  58.1379270 104.3926150 101.7393200
  74.8056950 106.8333840 102.8025490  75.1765780 106.0501160 102.3961460
  75.4458880 107.5222940 102.6242790  71.7890710 108.2170420 108.2155810
  70.9750550 108.6467580 108.4781600  72.1964910 108.8288830 107.6024860
  73.1381110 103.3558620 109.7425030  72.9067200 103.1271370 108.8422980
  73.3985660 104.2758170 109.6969920  73.2022170 102.5184460 106.9312300
  72.2524880 102.4848000 107.0457290  73.3835180 103.4284570 106.6962070
  58.7040770  96.8225470  95.0813580  59.4268900  97.3634410  95.3994800
  58.9765290  96.5488890  94.2055120  58.3932960  96.0731660 104.9836200
  59.0409150  95.5229040 104.5431360  58.8134800  96.3274810 105.8052010
  72.2885300  96.2673020 108.3405840  72.9257520  96.8807160 108.7065030
  72.4360190  96.3033680 107.3955070  71.8466760 112.9689020 101.7424080
  72.4425830 112.6473590 101.0658500  72.1044910 112.4960840 102.5337350
  63.4535360 110.9566520 107.4924430  63.2126720 111.2241080 106.6054950
  64.3938000 111.1272250 107.5475290  65.6589780  97.4199210 111.2480940
  65.5978670  98.0121040 111.9976350  66.5990160  97.3125170 111.1031200
  74.7139520 112.9760900 108.2935070  74.2197800 113.3729770 107.5762200
  74.1052810 112.3510110 108.6872350  69.0372380  95.6401410 107.2142520
  68.1632220  95.9736520 107.0115450  68.9283130  95.1674590 108.0394390
  69.9444360  97.8472280 108.5984240  69.6157720  97.0324040 108.2185970
  70.8926660  97.8042090 108.4749930  72.3978970 113.6184320 105.5721810
  71.9381940 114.3700130 105.1979830  71.7691430 112.8990790 105.5136610
  62.8274690 111.9272560 104.7469940  63.3439710 111.3159920 104.2218200
  63.4772070 112.4301340 105.2380950  65.5670190 112.8181050 105.5738920
  65.8548000 112.5635350 104.6971930  66.0793410 112.2658410 106.1644490
  66.7847200  96.5571250 106.1535430  66.0018990  97.0316750 106.4332190
  66.4910130  95.6526080 106.0448610  57.5059590 113.0301950 101.1717290
  57.3381630 112.3972630 101.8699180  56.6394100 113.2361350 100.8211480
  59.1122290 111.7235180  98.6167430  58.5869910 112.1043210  97.9129390
  59.0366870 112.3485950  99.3377140  65.6342550 113.7397150 112.9407120
  66.5609860 113.5041420 112.9843080  65.6192980 114.5669150 112.4593150
  73.8687610 113.2822720  99.9381370  74.0439800 112.5960460  99.2942290
  73.1709180 113.8069770  99.5458040  62.8206160  96.4041900 112.7049000
  62.5390430  96.9075500 111.9409820  63.2025860  95.6063650 112.3391130
  61.7115260 113.6717560  97.4916680  62.4434080 113.3876840  96.9440570
  61.9708930 113.4330840  98.3816060  60.8730050 109.7882290  97.4963010
  60.2438930 110.2567390  98.0448840  60.9877880 108.9431510  97.9309200
  60.4564900 109.9626870  86.6007260  60.7592940 109.0724610  86.4217480
  61.2008490 110.5197090  86.3729510  58.8855590 100.8888670  80.1891630
  57.9972290 101.2304640  80.0871510  59.1696780 100.6888990  79.2972460
  56.8488600 103.4894320  86.0731330  57.4204710 102.7216520  86.0734970
  56.8490140 103.7883080  85.1637940  58.0913470  98.8978680  87.8600260
  57.9116310  98.0004430  88.1403020  57.6893550  99.4450550  88.5347210
  58.7100140 101.3939180  86.4682600  59.3910250 101.6577550  87.0870000
  58.3948190 100.5540050  86.8020610  61.6482760 108.6881080  89.8141290
  62.2656760 109.3632160  89.5325740  60.7875880 109.0969060  89.7228790
  63.0123130 108.5578460  85.8352710  62.7151420 107.9523930  85.1560490
  63.9622950 108.5955770  85.7242070  62.1041560 108.2960150  92.4860510
  61.2070090 108.5200120  92.7333910  62.1294430 108.4195090  91.5371910
  62.7293130 111.1095170  93.2703030  62.7008560 111.5138120  92.4031460
  62.5658100 110.1805530  93.1074630  59.2446060 103.7655880  81.1720150
  59.1243660 104.4917970  80.5601420  58.9346950 102.9958790  80.6948060
  56.8831430 106.9371020  86.9788790  56.9611850 107.0719790  86.0344510
  57.4973110 106.2286910  87.1716910  62.4000720 112.8516990  81.5017640
  62.2243200 111.9352530  81.2885440  61.5456460 113.2104280  81.7415440
  69.1888400 112.2068730  82.3592510  69.6445350 111.4258110  82.6731130
  69.5280920 112.9175550  82.9033690  56.9390950 107.9785190  89.5183250
  57.1021990 107.5090550  88.7002620  57.4043400 107.4708750  90.1832090
  59.0733690  99.5423770  91.1019120  58.6797080 100.3898980  91.3091900
  58.3852090  98.9050140  91.2927760  56.3750740  97.4652230  85.1349200
  56.0863790  98.0355090  85.8474180  57.1196500  96.9856680  85.4980430
  56.5620970 101.4072350  76.3451920  56.4795640 102.3503110  76.4866910
  56.2104030 101.2647260  75.4664270  58.5129930 107.3536620  91.6779060
  58.1284720 106.7130290  92.2762020  58.8242120 108.0572740  92.2473790
  57.5267560  98.9456850  83.2881150  57.2414480  98.5812520  84.1259770
  57.4646420  98.2137310  82.6744290  65.9115130 108.3829450  78.9844850
  66.2530830 109.1271680  78.4888170  65.0827840 108.6960570  79.3469680
  58.5090170 104.0824540  90.6243250  58.1505110 104.7478390  91.2116590
  58.2144730 103.2508090  90.9955870  64.8805820 108.4642980  81.7560770
  65.5676950 109.0112190  82.1368360  64.0938240 109.0083710  81.7910380
  57.0198220 104.0815800  77.2477850  57.8893070 104.3640600  77.5313770
  56.5288540 104.8951670  77.1326660  57.3869470 113.2943180  77.8139480
  57.7467110 113.8932520  77.1596750  57.2461810 113.8403070  78.5874510
  57.0838740  97.5717780  91.3015350  56.3697260  97.7714700  91.9067960
  57.5033780  96.7957350  91.6730150  57.3711330 111.5598040  92.2881880
  57.4802450 110.6192780  92.1477270  56.7191890 111.8252790  91.6395610
  63.4038090 110.6774380  78.6313150  63.3948190 111.4104070  78.0157660
  62.4836450 110.4305960  78.7240110  66.3897690 110.7402620  77.2938340
  66.4909670 110.5366610  76.3640320  65.4899430 110.4860900  77.4986120
  65.0315800 113.2588940  81.9886010  65.2857300 113.2210330  81.0665380
  64.0828280 113.1322270  81.9814260  61.0150020 105.8600420  77.1248480
  61.7813290 105.7481780  77.6873910  61.0924710 105.1638390  76.4725250
  59.7096780 103.2925490  77.8081370  59.7900370 102.3453000  77.9198770
  60.6016530 103.6232370  77.9142030  60.5111490 113.4420880  84.9115910
  61.2473970 112.8936340  85.1824480  60.8952410 114.3076890  84.7721900
  59.5169770 112.6266950  94.1001490  60.3182500 112.9479000  94.5136890
  59.0021590 112.2662530  94.8221400  63.6213800 112.6151190  76.7341480
  64.4142410 112.9040020  76.2823270  63.1018150 112.1843360  76.0553960
  57.2367580 105.1140410  93.0437540  57.7406600 104.5347690  93.6153770
  56.4975000 105.3980640  93.5813910  64.1391200 107.8354600  76.5983830
  64.0341840 107.2206950  77.3245210  63.9715420 107.3120490  75.8146840
  63.0469050 105.8565550  79.0991120  63.4685470 105.6905420  79.9422510
  63.1719890 105.0465780  78.6046260  61.9427950 101.9298780  76.0449280
  61.7417010 101.0666140  76.4062620  61.7720000 101.8432140  75.1070880
  62.7197180 112.5605050  90.7556950  62.1818270 113.2851110  90.4365650
  62.9731140 112.0835390  89.9654290  60.7410750  99.0299400  76.0327160
  61.0436650  99.0366830  75.1246310  61.4805340  98.6797260  76.5294820
  65.5759390 113.7956260  91.0143600  65.5018090 114.6991400  91.3215970
  64.6738230 113.4768160  90.9865670  66.1244720 112.9614770  78.6369960
  67.0195510 113.2999740  78.6588720  66.1562350 112.2394180  78.0094240
  59.7640880 108.3341820  76.8656960  60.2015750 108.8771490  77.5214540
  60.2488610 107.5088770  76.8753300  61.5748600 109.4539860  81.9779190
  61.2744140 109.3304830  82.8783100  61.4686090 108.5948450  81.5694920
  57.4676890 111.9901440  87.0558850  57.0307880 112.1702240  87.8883000
  58.0354570 112.7476060  86.9140570  58.3377250 104.8874240  87.9551070
  58.7050290 104.8001640  88.8347090  57.7688070 104.1240790  87.8557930
  57.8893250 101.7983330  91.8609490  56.9949300 101.7650090  92.2003200
  58.4290800 101.9970120  92.6260740  56.5139400 101.7120600  79.3573060
  55.6103480 101.9750800  79.1824720  56.9980020 101.9831770  78.5773020
  59.0566610 100.7686140  77.2667440  59.7658310 100.3469360  76.7814720
  58.3406550 100.8361370  76.6350790  58.7040770  96.8225470  76.3070090
  59.4268900  97.3634410  76.6251310  58.9765290  96.5488890  75.4311630
  58.3932960  96.0731660  86.2092710  59.0409150  95.5229040  85.7687870
  58.8134800  96.3274810  87.0308520  58.1464960  96.2287330  88.9518030
  57.7979780  96.6851150  89.7176210  57.8152660  95.3344460  89.0340460
  59.7529330 109.4006930  93.1171220  59.7098960 109.0299840  93.9985680
  59.8840340 110.3384500  93.2573040  58.8185600  95.7563530  92.2268800
  59.3668590  95.5751580  91.4634910  58.8840910  94.9657640  92.7625110
  59.5917360 112.3469180  90.2369000  58.9977680 112.2153880  90.9759040
  59.5841200 111.5107320  89.7711100  59.2229590 109.7127560  89.1877040
  58.4963650 109.0932850  89.1202990  59.2838740 110.1068170  88.3175120
  62.8274690 111.9272560  85.9726450  63.3439710 111.3159920  85.4474710
  63.4772070 112.4301340  86.4637460  57.5059590 113.0301950  82.3973800
  57.3381630 112.3972630  83.0955690  56.6394100 113.2361350  82.0467990
  58.1287610  96.8618730  79.9005660  58.8866970  96.9747610  79.3269690
  57.6664780  97.6987930  79.8549090  59.1122290 111.7235180  79.8423940
  58.5869910 112.1043210  79.1385900  59.0366870 112.3485950  80.5633650
  60.5012760  97.3882780  78.4407630  61.0305520  96.6012580  78.3115580
  61.1341080  98.0673970  78.6743160  65.6342550 113.7397150  94.1663630
  66.5609860 113.5041420  94.2099590  65.6192980 114.5669150  93.6849660
  73.8687610 113.2822720  81.1637880  74.0439800 112.5960460  80.5198800
  73.1709180 113.8069770  80.7714550  61.7115260 113.6717560  78.7173190
  62.4434080 113.3876840  78.1697080  61.9708930 113.4330840  79.6072570
  60.8730050 109.7882290  78.7219520  60.2438930 110.2567390  79.2705350
  60.9877880 108.9431510  79.1565710  68.3279770 103.8387950  64.8720720
  68.2473820 102.9242560  64.6012430  67.9144190 104.3355020  64.1660430
  66.4597810 105.6166970  66.7529990  65.6839910 105.1367410  67.0428560
  67.1110740 104.9372620  66.5786150  60.4763640 105.9286780  67.6305750
  59.6448520 105.6735490  68.0302260  61.0844620 105.9997550  68.3663670
  70.4805240 110.0227160  65.5329120  70.0186770 109.2514400  65.8616290
  71.2930790 110.0493230  66.0381570  60.4564900 109.9626870  67.8263770
  60.7592940 109.0724610  67.6473990  61.2008490 110.5197090  67.5986020
  58.8855590 100.8888670  61.4148140  57.9972290 101.2304640  61.3128020
  59.1696780 100.6888990  60.5228970  56.8488600 103.4894320  67.2987840
  57.4204710 102.7216520  67.2991480  56.8490140 103.7883080  66.3894450
  66.7068550 112.3085170  65.1533110  66.0879990 112.7642670  64.5827550
  67.5620330 112.4636630  64.7522810  65.9006800 108.2924160  66.7600150
  65.8315080 107.3514100  66.5989280  66.6626660 108.3825570  67.3322720
  58.0913470  98.8978680  69.0856770  57.9116310  98.0004430  69.3659530
  57.6893550  99.4450550  69.7603720  61.0616980  99.4720170  62.4486520
  61.1683730 100.3723900  62.7555280  60.1509340  99.4238140  62.1581170
  58.7100140 101.3939180  67.6939110  59.3910250 101.6577550  68.3126510
  58.3948190 100.5540050  68.0277120  62.9024710 102.4406540  66.7811700
  63.4102930 102.9387510  67.4216720  63.4337950 101.6641740  66.6051060
  61.1860810  97.0805100  71.0475120  61.1879250  97.5977490  70.2421020
  60.3565120  96.6035280  71.0245050  62.4363660 106.7200280  69.2248620
  62.1033040 107.3469200  69.8669690  62.6130340 107.2462160  68.4450290
  60.8676140  98.7915060  69.0545570  61.2092950  99.6357110  68.7599440
  59.9291950  98.9398800  69.1710910  61.6482760 108.6881080  71.0397800
  62.2656760 109.3632160  70.7582250  60.7875880 109.0969060  70.9485300
  56.9415100 107.8780940  59.9204650  56.5643080 108.3668040  59.1889550
  57.1988170 108.5506220  60.5511180  70.1019090 111.9964620  67.6697620
  70.1146250 111.5926910  66.8019880  69.5494310 112.7711910  67.5659050
  71.3964510 108.7180840  62.7587790  71.2860840 107.7755170  62.8837210
  71.3932760 109.0796480  63.6450550  66.9253870 100.6163160  59.1117440
  65.9857540 100.7777120  59.1969900  67.2437130 101.3348840  58.5653430
  62.5441430 104.8710900  64.8970010  62.1398430 104.1588150  64.4015910
  62.6304550 104.5264140  65.7858050  63.0123130 108.5578460  67.0609220
  62.7151420 107.9523930  66.3817000  63.9622950 108.5955770  66.9498580
  61.2570050 101.6454110  68.6769050  61.8084640 101.7549450  67.9022300
  61.7713560 102.0191710  69.3924280  62.1041560 108.2960150  73.7117020
  61.2070090 108.5200120  73.9590420  62.1294430 108.4195090  72.7628420
  67.2542160 110.0849340  63.5939520  67.6938070 110.8273670  63.1794910
  67.1929050 110.3275910  64.5178480  62.7293130 111.1095170  74.4959540
  62.7008560 111.5138120  73.6287970  62.5658100 110.1805530  74.3331140
  59.2446060 103.7655880  62.3976660  59.1243660 104.4917970  61.7857930
  58.9346950 102.9958790  61.9204570  56.8831430 106.9371020  68.2045300
  56.9611850 107.0719790  67.2601020  57.4973110 106.2286910  68.3973420
  58.1279060 108.6371210  64.6151480  57.7207140 108.7785800  63.7605080
  59.0192070 108.3531370  64.4122690  67.9457940 112.7863120  71.5218530
  68.4602610 112.6971130  72.3240960  67.1027020 113.1322820  71.8146440
  69.9212340 113.0718460  60.9502530  69.7613480 112.7821400  61.8484360
  69.7559050 112.2958590  60.4147760  62.4000720 112.8516990  62.7274150
  62.2243200 111.9352530  62.5141950  61.5456460 113.2104280  62.9671950
  69.6238470 110.5806020  59.5100530  68.9303630 110.5783310  58.8502810
  70.3661330 110.1565340  59.0794700  69.1888400 112.2068730  63.5849020
  69.6445350 111.4258110  63.8987640  69.5280920 112.9175550  64.1290200
  56.9390950 107.9785190  70.7439760  57.1021990 107.5090550  69.9259130
  57.4043400 107.4708750  71.4088600  61.5023940 102.2324520  63.5081580
  61.2764860 102.0161690  64.4128200  60.7216470 102.6652980  63.1627550
  59.0733690  99.5423770  72.3275630  58.6797080 100.3898980  72.5348410
  58.3852090  98.9050140  72.5184270  56.5620970 101.4072350  57.5708430
  56.4795640 102.3503110  57.7123420  56.2104030 101.2647260  56.6920780
  60.2121480 100.0237870  65.5972990  59.8721530 100.5013100  66.3540040
  59.4498800  99.5702990  65.2374090  64.4239250 101.1423460  59.6285540
  64.5452070 101.1009940  60.5771360  64.0387760 102.0047610  59.4732270
  63.4360750 103.4524600  59.0268840  62.8677650 103.0042850  58.4004750
  64.1449750 103.8117380  58.4933990  58.5129930 107.3536620  72.9035570
  58.1284720 106.7130290  73.5018530  58.8242120 108.0572740  73.4730300
  64.6627070 104.2013160  68.3844190  65.0297200 103.7271730  69.1305530
  64.4732130 105.0754730  68.7252530  60.9808230 107.4482790  61.2995250
  60.2070490 106.9080410  61.1393970  61.7102860 106.9289400  60.9613010
  61.0245630 107.1163170  64.9374060  61.5424300 106.3131430  64.8830950
  60.5729650 107.0542310  65.7790890  58.5090170 104.0824540  71.8499760
  58.1505110 104.7478390  72.4373100  58.2144730 103.2508090  72.2212380
  61.7103290 104.5408780  74.7339310  61.4103430 104.6865960  73.8367130
  62.4814530 103.9814070  74.6412700  67.0531740 109.3377780  72.7294440
  67.0676280 108.4058740  72.5113350  66.3456840 109.4237540  73.3684210
  72.1868810 103.5217600  58.9993050  72.1032530 103.9531820  58.1489490
  72.9063000 103.9815950  59.4319870  73.2156060 110.3759860  61.7275180
  72.5732220 109.7215480  62.0018900  72.8286720 110.7814950  60.9515850
  68.7942540 107.7045290  65.5746870  69.1466360 107.1073420  64.9148240
  67.9104870 107.3789520  65.7455120  64.8805820 108.4642980  62.9817280
  65.5676950 109.0112190  63.3624870  64.0938240 109.0083710  63.0166890
  57.0198220 104.0815800  58.4734360  57.8893070 104.3640600  58.7570280
  56.5288540 104.8951670  58.3583170  64.1833030 105.4689010  62.5942640
  64.6395810 106.2794260  62.8202830  63.8321240 105.1512150  63.4261130
  66.4865640 110.9795350  69.8234940  67.1307860 111.1854730  70.5008360
  66.8495080 110.2183750  69.3705790  67.7597720 108.9827700  68.5412390
  68.4019950 108.2820860  68.6544560  68.2847070 109.7626140  68.3609280
  71.6053440 109.2676320  58.2651530  71.3791020 108.5506760  58.8576170
  71.2149640 109.0188760  57.4273280  69.5335340 109.7822600  71.7448450
  69.8691580 110.3689290  72.4226370  68.6135680 109.6515310  71.9746240
  57.0838740  97.5717780  72.5271860  56.3697260  97.7714700  73.1324470
  57.5033780  96.7957350  72.8986660  57.3711330 111.5598040  73.5138390
  57.4802450 110.6192780  73.3733780  56.7191890 111.8252790  72.8652120
  65.3623920 109.8313930  74.9136510  65.0420790 109.1123170  75.4582200
  64.6882280 110.5069000  74.9872570  63.4038090 110.6774380  59.8569660
  63.3948190 111.4104070  59.2414170  62.4836450 110.4305960  59.9496620
  59.0044730 105.8989270  60.6016420  58.3972680 106.6388170  60.6111720
  59.4794080 105.9888630  59.7754620  66.3897690 110.7402620  58.5194850
  66.4909670 110.5366610  57.5896830  65.4899430 110.4860900  58.7242630
  65.0315800 113.2588940  63.2142520  65.2857300 113.2210330  62.2921890
  64.0828280 113.1322270  63.2070770  62.1158600  99.6068060  59.8769460
  62.9649130 100.0438210  59.8109650  61.7489870  99.9188320  60.7041520
  61.0150020 105.8600420  58.3504990  61.7813290 105.7481780  58.9130420
  61.0924710 105.1638390  57.6981760  59.7096780 103.2925490  59.0337880
  59.7900370 102.3453000  59.1455280  60.6016530 103.6232370  59.1398540
  59.5169770 112.6266950  75.3258000  60.3182500 112.9479000  75.7393400
  59.0021590 112.2662530  76.0477910  68.3534400 108.7346820  75.2733410
  67.7472560 108.7578420  74.5329160  68.0488510 108.0029860  75.8100660
  69.7834770 112.4627110  73.8842820  70.7356520 112.3785130  73.8343060
  69.6362990 113.1268820  74.5576610  57.2367580 105.1140410  74.2694050
  57.7406600 104.5347690  74.8410280  56.4975000 105.3980640  74.8070420
  64.1391200 107.8354600  57.8240340  64.0341840 107.2206950  58.5501720
  63.9715420 107.3120490  57.0403350  59.2690660 103.2570000  75.1644120
  59.3096000 102.9583870  76.0729350  60.1236160 103.6577610  75.0051640
  64.8689760 106.2552040  70.8655730  65.2877870 107.0984770  70.6931970
  63.9498390 106.3924080  70.6362510  61.9427950 101.9298780  57.2705790
  61.7417010 101.0666140  57.6319130  61.7720000 101.8432140  56.3327390
  66.1244720 112.9614770  59.8626470  67.0195510 113.2999740  59.8845230
  66.1562350 112.2394180  59.2350750  59.7640880 108.3341820  58.0913470
  60.2015750 108.8771490  58.7471050  60.2488610 107.5088770  58.1009810
  61.5748600 109.4539860  63.2035700  61.2744140 109.3304830  64.1039610
  61.4686090 108.5948450  62.7951430  57.4676890 111.9901440  68.2815360
  57.0307880 112.1702240  69.1139510  58.0354570 112.7476060  68.1397080
  73.7996980 105.9783740  60.4096580  74.5615890 106.5480390  60.5156270
  73.8151350 105.4110940  61.1804890  57.3001320 104.5021670  64.6404240
  56.6450160 104.2333310  63.9963940  58.1379270 104.3926150  64.1906220
  74.8056950 106.8333840  65.2538510  75.1765780 106.0501160  64.8474480
  75.4458880 107.5222940  65.0755810  73.8516150 106.2718110  57.5669100
  74.1264990 107.1796990  57.4388320  73.6626890 106.2080640  58.5031090
  73.7481490 104.2087100  62.5598530  73.3725090 103.4415030  62.1279820
  73.0184610 104.5909800  63.0473460  58.3377250 104.8874240  69.1807580
  58.7050290 104.8001640  70.0603600  57.7688070 104.1240790  69.0814440
  57.8893250 101.7983330  73.0866000  56.9949300 101.7650090  73.4259710
  58.4290800 101.9970120  73.8517250  56.5139400 101.7120600  60.5829570
  55.6103480 101.9750800  60.4081230  56.9980020 101.9831770  59.8029530
  59.0566610 100.7686140  58.4923950  59.7658310 100.3469360  58.0071230
  58.3406550 100.8361370  57.8607300  72.5132420 101.6917940  61.7998180
  73.0091540 101.4588810  62.5847060  72.3148490 100.8529780  61.3835820
  74.8309850  98.1586810  57.5742000  75.7559160  98.0267990  57.3660290
  74.8085640  98.2379630  58.5278450  71.8466760 112.9689020  64.1937100
  72.4425830 112.6473590  63.5171520  72.1044910 112.4960840  64.9850370
  58.1464960  96.2287330  70.1774540  57.7979780  96.6851150  70.9432720
  57.8152660  95.3344460  70.2596970  59.7529330 109.4006930  74.3427730
  59.7098960 109.0299840  75.2242190  59.8840340 110.3384500  74.4829550
  58.8185600  95.7563530  73.4525310  59.3668590  95.5751580  72.6891420
  58.8840910  94.9657640  73.9881620  59.2229590 109.7127560  70.4133550
  58.4963650 109.0932850  70.3459500  59.2838740 110.1068170  69.5431630
  58.1287610  96.8618730  61.1262170  58.8866970  96.9747610  60.5526200
  57.6664780  97.6987930  61.0805600  60.5012760  97.3882780  59.6664140
  61.0305520  96.6012580  59.5372090  61.1341080  98.0673970  59.8999670
  65.6342550 113.7397150  75.3920140  66.5609860 113.5041420  75.4356100
  65.6192980 114.5669150  74.9106170  73.8687610 113.2822720  62.3894390
  74.0439800 112.5960460  61.7455310  73.1709180 113.8069770  61.9971060
  62.8206160  96.4041900  75.1562020  62.5390430  96.9075500  74.3922840
  63.2025860  95.6063650  74.7904150  60.8730050 109.7882290  59.9476030
  60.2438930 110.2567390  60.4961860  60.9877880 108.9431510  60.3822220
  60.4763640 105.9286780  48.8562260  59.6448520 105.6735490  49.2558770
  61.0844620 105.9997550  49.5920180  58.8855590 100.8888670  42.6404650
  57.9972290 101.2304640  42.5384530  59.1696780 100.6888990  41.7485480
  56.8488600 103.4894320  48.5244350  57.4204710 102.7216520  48.5247990
  56.8490140 103.7883080  47.6150960  58.0913470  98.8978680  50.3113280
  57.9116310  98.0004430  50.5916040  57.6893550  99.4450550  50.9860230
  66.9311970 101.0994540  48.2125590  67.3076790 100.2266420  48.0999260
  66.8331480 101.4353240  47.3216030  70.7136090  98.5944980  45.1453930
  71.5345710  98.1041550  45.1879410  70.7470170  99.1842640  45.8985770
  58.7100140 101.3939180  48.9195620  59.3910250 101.6577550  49.5383020
  58.3948190 100.5540050  49.2533630  62.9024710 102.4406540  48.0068210
  63.4102930 102.9387510  48.6473230  63.4337950 101.6641740  47.8307570
  70.9497570 100.5345360  47.9181470  70.2453140 100.8230250  48.4984580
  71.3109730 101.3445470  47.5581030  60.8676140  98.7915060  50.2802080
  61.2092950  99.6357110  49.9855950  59.9291950  98.9398800  50.3967420
  72.5660350 110.1520490  50.1808950  71.8823870 110.8219600  50.1725620
  73.1054640 110.3501140  49.4153810  74.0184490  99.9800150  48.3090680
  73.0709400 100.0139130  48.4406110  74.3434480 100.7939100  48.6940040
  70.1019090 111.9964620  48.8954130  70.1146250 111.5926910  48.0276390
  69.5494310 112.7711910  48.7915560  71.3964510 108.7180840  43.9844300
  71.2860840 107.7755170  44.1093720  71.3932760 109.0796480  44.8707060
  66.9384790 104.3446160  43.3406790  66.0114070 104.2783540  43.5695260
  67.0909610 105.2826290  43.2262030  66.9253870 100.6163160  40.3373950
  65.9857540 100.7777120  40.4226410  67.2437130 101.3348840  39.7909940
  70.9682080 105.9066460  43.8442040  70.3494500 105.5686010  43.1968340
  70.9506530 105.2626220  44.5521230  62.5441430 104.8710900  46.1226520
  62.1398430 104.1588150  45.6272420  62.6304550 104.5264140  47.0114560
  61.2570050 101.6454110  49.9025560  61.8084640 101.7549450  49.1278810
  61.7713560 102.0191710  50.6180790  69.1446780 105.1453270  40.8514790
  69.5840060 104.3075700  40.7052610  69.8575200 105.7782670  40.9378930
  60.9312780 105.1673470  53.5130900  60.7920550 106.0396270  53.8818300
  60.0494140 104.8246280  53.3678840  62.7293130 111.1095170  55.7216050
  62.7008560 111.5138120  54.8544480  62.5658100 110.1805530  55.5587650
  72.7263920  96.3996080  39.1655830  72.4136580  96.4922910  40.0654900
  73.4876390  96.9777110  39.1153260  59.2446060 103.7655880  43.6233170
  59.1243660 104.4917970  43.0114440  58.9346950 102.9958790  43.1461080
  56.8831430 106.9371020  49.4301810  56.9611850 107.0719790  48.4857530
  57.4973110 106.2286910  49.6229930  58.1279060 108.6371210  45.8407990
  57.7207140 108.7785800  44.9861590  59.0192070 108.3531370  45.6379200
  69.9212340 113.0718460  42.1759040  69.7613480 112.7821400  43.0740870
  69.7559050 112.2958590  41.6404270  56.9390950 107.9785190  51.9696270
  57.1021990 107.5090550  51.1515640  57.4043400 107.4708750  52.6345110
  61.5023940 102.2324520  44.7338090  61.2764860 102.0161690  45.6384710
  60.7216470 102.6652980  44.3884060  68.7321700 102.2387890  43.3328740
  68.1330590 102.9623690  43.1492360  69.2801310 102.1764670  42.5505190
  63.9423150 103.1310100  55.3998360  63.8466750 102.1904830  55.2498760
  64.7855130 103.3525170  55.0046430  67.3386570 100.8751430  45.3632020
  67.7316140 101.1923630  44.5500710  67.7003420  99.9963310  45.4776540
  65.6478740  99.6258740  56.6228880  64.9577060  99.4330940  57.2574970
  66.3911040  99.9093380  57.1553180  67.9241710 103.4657180  49.4582800
  67.1922830 103.9743990  49.8072900  67.5266050 102.6487160  49.1571580
  64.3619100 100.1411380  47.8635290  64.3655160  99.7001330  47.0139830
  65.2570220 100.4628710  47.9707110  60.2121480 100.0237870  46.8229500
  59.8721530 100.5013100  47.5796550  59.4498800  99.5702990  46.4630600
  64.4239250 101.1423460  40.8542050  64.5452070 101.1009940  41.8027870
  64.0387760 102.0047610  40.6988780  68.3867620  98.9190860  48.8705740
  68.4040360  99.3699510  49.7147590  68.1383200  98.0196500  49.0839180
  63.4360750 103.4524600  40.2525350  62.8677650 103.0042850  39.6261260
  64.1449750 103.8117380  39.7190500  58.5129930 107.3536620  54.1292080
  58.1284720 106.7130290  54.7275040  58.8242120 108.0572740  54.6986810
  64.6627070 104.2013160  49.6100700  65.0297200 103.7271730  50.3562040
  64.4732130 105.0754730  49.9509040  62.4526440 103.2421800  51.9284910
  62.1483510 104.1213780  52.1535270  63.4072900 103.3021590  51.9642350
  60.9808230 107.4482790  42.5251760  60.2070490 106.9080410  42.3650480
  61.7102860 106.9289400  42.1869520  71.7396210 106.4448150  48.3178150
  72.4595330 106.9403440  47.9274260  71.5378030 105.7666040  47.6732020
  67.2006150  97.8386110  42.4607540  66.3870760  97.3399280  42.3852850
  67.0068100  98.6784360  42.0443890  67.1215010 106.5157210  54.2047150
  67.0552320 105.5952880  53.9504740  66.4920150 106.6132650  54.9191790
  69.9154540 102.2105760  40.7569700  70.8034160 102.5222990  40.5821040
  69.8859630 101.3378010  40.3650280  61.0245630 107.1163170  46.1630570
  61.5424300 106.3131430  46.1087460  60.5729650 107.0542310  47.0047400
  65.9115130 108.3829450  41.4357870  66.2530830 109.1271680  40.9401190
  65.0827840 108.6960570  41.7982700  58.5090170 104.0824540  53.0756270
  58.1505110 104.7478390  53.6629610  58.2144730 103.2508090  53.4468890
  61.7103290 104.5408780  55.9595820  61.4103430 104.6865960  55.0623640
  62.4814530 103.9814070  55.8669210  67.0531740 109.3377780  53.9550950
  67.0676280 108.4058740  53.7369860  66.3456840 109.4237540  54.5940720
  72.1868810 103.5217600  40.2249560  72.1032530 103.9531820  39.3746000
  72.9063000 103.9815950  40.6576380  73.2156060 110.3759860  42.9531690
  72.5732220 109.7215480  43.2275410  72.8286720 110.7814950  42.1772360
  64.8805820 108.4642980  44.2073790  65.5676950 109.0112190  44.5881380
  64.0938240 109.0083710  44.2423400  57.0198220 104.0815800  39.6990870
  57.8893070 104.3640600  39.9826790  56.5288540 104.8951670  39.5839680
  64.1833030 105.4689010  43.8199150  64.6395810 106.2794260  44.0459340
  63.8321240 105.1512150  44.6517640  57.3869470 113.2943180  40.2652500
  57.7467110 113.8932520  39.6109770  57.2461810 113.8403070  41.0387530
  71.1869690 107.1848260  41.1522200  70.8991390 107.6460950  41.9400080
  71.9821860 106.7246030  41.4206420  57.3711330 111.5598040  54.7394900
  57.4802450 110.6192780  54.5990290  56.7191890 111.8252790  54.0908630
  65.3623920 109.8313930  56.1393020  65.0420790 109.1123170  56.6838710
  64.6882280 110.5069000  56.2129080  63.4038090 110.6774380  41.0826170
  63.3948190 111.4104070  40.4670680  62.4836450 110.4305960  41.1753130
  59.0044730 105.8989270  41.8272930  58.3972680 106.6388170  41.8368230
  59.4794080 105.9888630  41.0011130  68.5777520 100.0640090  51.5029820
  68.9458340  99.2435300  51.8309390  67.7175720 100.1241980  51.9185470
  71.9439550  99.0197030  42.3117380  71.3152710  99.1242700  41.5975610
  71.4491470  99.2393810  43.1011260  66.3897690 110.7402620  39.7451360
  66.4909670 110.5366610  38.8153340  65.4899430 110.4860900  39.9499140
  63.9123580 101.2982980  43.7275260  63.2039730 101.7669320  44.1688870
  64.1968060 100.6404990  44.3620450  65.5379510 102.7179680  51.7267790
  66.0364760 103.1925500  52.3919640  65.6802460 101.7943200  51.9337820
  67.9439010  98.0233640  45.1671050  67.8206790  98.0419770  44.2180560
  68.8923570  98.0712580  45.2869450  72.7446370  98.9347640  52.5696180
  72.2419970  99.6753040  52.9089990  73.5603030  99.3231640  52.2532970
  71.0368380 104.1780820  46.0157540  70.0958520 104.1931050  46.1905230
  71.3512450 103.3916780  46.4617840  61.0150020 105.8600420  39.5761500
  61.7813290 105.7481780  40.1386930  61.0924710 105.1638390  38.9238270
  59.7096780 103.2925490  40.2594390  59.7900370 102.3453000  40.3711790
  60.6016530 103.6232370  40.3655050  73.0393960 111.3489670  47.6911800
  73.1641380 112.1720840  48.1635610  73.9059520 111.1380400  47.3435950
  60.5111490 113.4420880  47.3628930  61.2473970 112.8936340  47.6337500
  60.8952410 114.3076890  47.2234920  57.3956970 109.5094450  43.2370440
  56.4696750 109.7515590  43.2275850  57.8613400 110.3368710  43.1155190
  63.6213800 112.6151190  39.1854500  64.4142410 112.9040020  38.7336290
  63.1018150 112.1843360  38.5066980  57.2367580 105.1140410  55.4950560
  57.7406600 104.5347690  56.0666790  56.4975000 105.3980640  56.0326930
  64.1391200 107.8354600  39.0496850  64.0341840 107.2206950  39.7758230
  63.9715420 107.3120490  38.2659860  64.2905520 106.5211400  55.0286080
  63.5251190 107.0896400  54.9440750  64.4721480 106.2287610  54.1354310
  67.3793930 106.8974630  39.6538840  66.8304030 107.3443930  40.2981580
  68.0013190 106.3923880  40.1776510  71.4328870 108.2516730  55.5861100
  72.1738340 108.5892490  55.0828560  70.6701550 108.4208790  55.0330870
  59.2690660 103.2570000  56.3900630  59.3096000 102.9583870  57.2985860
  60.1236160 103.6577610  56.2308150  63.0469050 105.8565550  41.5504140
  63.4685470 105.6905420  42.3935530  63.1719890 105.0465780  41.0559280
  61.2096470 101.8362100  54.3575120  60.6792930 101.3453050  53.7298460
  61.8784540 102.2646300  53.8233050  65.5596690 104.8803160  38.7981240
  66.0802350 104.1652180  38.4322390  66.2065090 105.5189030  39.0981750
  70.1074530 106.3031560  54.1216310  70.5215550 106.4576640  54.9706730
  69.1725530 106.4286780  54.2842090  70.5796700 103.6427720  56.1255460
  71.1617470 102.8880040  56.0375940  70.7558470 104.1735160  55.3486940
  64.8689760 106.2552040  52.0912240  65.2877870 107.0984770  51.9188480
  63.9498390 106.3924080  51.8619020  67.2053660 103.9868220  53.4750080
  67.3249870 103.3909360  54.2144920  68.0647660 104.0237910  53.0551380
  69.5441560 104.5405410  52.0512590  69.0176780 105.0648030  51.4477730
  69.8872900 105.1732800  52.6822320  61.9427950 101.9298780  38.4962300
  61.7417010 101.0666140  38.8575640  61.7720000 101.8432140  37.5583900
  63.9722430 100.5289570  54.7325900  64.5622120 100.2205420  55.4203720
  63.1542670 100.0569320  54.8885800  69.4216260  96.7407010  41.0249180
  69.7018550  95.8974910  41.3808600  68.6481990  96.9730120  41.5387930
  65.5759390 113.7956260  53.4656620  65.5018090 114.6991400  53.7728990
  64.6738230 113.4768160  53.4378690  66.1244720 112.9614770  41.0882980
  67.0195510 113.2999740  41.1101740  66.1562350 112.2394180  40.4607260
  59.7640880 108.3341820  39.3169980  60.2015750 108.8771490  39.9727560
  60.2488610 107.5088770  39.3266320  56.9786680 111.1230850  46.7690240
  57.3089690 110.2551910  46.5368880  57.4077680 111.3289370  47.5995200
  61.5748600 109.4539860  44.4292210  61.2744140 109.3304830  45.3296120
  61.4686090 108.5948450  44.0207940  57.4676890 111.9901440  49.5071870
  57.0307880 112.1702240  50.3396020  58.0354570 112.7476060  49.3653590
  73.7996980 105.9783740  41.6353090  74.5615890 106.5480390  41.7412780
  73.8151350 105.4110940  42.4061400  57.3001320 104.5021670  45.8660750
  56.6450160 104.2333310  45.2220450  58.1379270 104.3926150  45.4162730
  74.8056950 106.8333840  46.4795020  75.1765780 106.0501160  46.0730990
  75.4458880 107.5222940  46.3012320  73.8516150 106.2718110  38.7925610
  74.1264990 107.1796990  38.6644830  73.6626890 106.2080640  39.7287600
  70.2491760  99.2962960  40.0879240  70.6676640  99.1093940  39.2475900
  69.9427820  98.4442010  40.3982170  73.7481490 104.2087100  43.7855040
  73.3725090 103.4415030  43.3536330  73.0184610 104.5909800  44.2729970
  58.3377250 104.8874240  50.4064090  58.7050290 104.8001640  51.2860110
  57.7688070 104.1240790  50.3070950  57.8893250 101.7983330  54.3122510
  56.9949300 101.7650090  54.6516220  58.4290800 101.9970120  55.0773760
  56.5139400 101.7120600  41.8086080  55.6103480 101.9750800  41.6337740
  56.9980020 101.9831770  41.0286040  73.0232450 102.4344590  47.0862280
  73.5469930 101.9407240  46.4552450  73.6091870 102.5694950  47.8309850
  59.0566610 100.7686140  39.7180460  59.7658310 100.3469360  39.2327740
  58.3406550 100.8361370  39.0863810  72.5132420 101.6917940  43.0254690
  73.0091540 101.4588810  43.8103570  72.3148490 100.8529780  42.6092330
  73.9419580 100.3278890  45.5592370  73.8318860 100.1734930  46.4974640
  74.7027170  99.7999830  45.3167780  74.9048340  98.9297470  41.4255220
  74.1099840  98.8642590  41.9548130  75.1091620  99.8648110  41.4140570
  71.8466760 112.9689020  45.4193610  72.4425830 112.6473590  44.7428030
  72.1044910 112.4960840  46.2106880  59.7529330 109.4006930  55.5684240
  59.7098960 109.0299840  56.4498700  59.8840340 110.3384500  55.7086060
  72.3978970 113.6184320  49.2491340  71.9381940 114.3700130  48.8749360
  71.7691430 112.8990790  49.1906140  73.2006840  96.8909590  45.8862870
  73.1395240  95.9470810  45.7393890  73.9798870  96.9989680  46.4316330
  57.5059590 113.0301950  44.8486820  57.3381630 112.3972630  45.5468710
  56.6394100 113.2361350  44.4981010  72.3161000  96.0422010  41.8544340
  72.5111630  96.9405460  42.1211770  71.5290870  95.8109090  42.3477290
  59.1122290 111.7235180  42.2936960  58.5869910 112.1043210  41.5898920
  59.0366870 112.3485950  43.0146670  73.8687610 113.2822720  43.6150900
  74.0439800 112.5960460  42.9711820  73.1709180 113.8069770  43.2227570
  61.7115260 113.6717560  41.1686210  62.4434080 113.3876840  40.6210100
  61.9708930 113.4330840  42.0585590  60.8730050 109.7882290  41.1732540
  60.2438930 110.2567390  41.7218370  60.9877880 108.9431510  41.6078730
  60.4763640 105.9286780  30.0818770  59.6448520 105.6735490  30.4815280
  61.0844620 105.9997550  30.8176690  60.4564900 109.9626870  30.2776790
  60.7592940 109.0724610  30.0987010  61.2008490 110.5197090  30.0499040
  58.8855590 100.8888670  23.8661160  57.9972290 101.2304640  23.7641040
  59.1696780 100.6888990  22.9741990  56.8488600 103.4894320  29.7500860
  57.4204710 102.7216520  29.7504500  56.8490140 103.7883080  28.8407470
  58.0913470  98.8978680  31.5369790  57.9116310  98.0004430  31.8172550
  57.6893550  99.4450550  32.2116740  61.0616980  99.4720170  24.8999540
  61.1683730 100.3723900  25.2068300  60.1509340  99.4238140  24.6094190
  58.7100140 101.3939180  30.1452130  59.3910250 101.6577550  30.7639530
  58.3948190 100.5540050  30.4790140  61.1860810  97.0805100  33.4988140
  61.1879250  97.5977490  32.6934040  60.3565120  96.6035280  33.4758070
  67.5731900 107.1924410  24.9978040  66.9549170 107.6573860  24.4340760
  68.0855150 107.8851890  25.4147550  62.4363660 106.7200280  31.6761640
  62.1033040 107.3469200  32.3182710  62.6130340 107.2462160  30.8963310
  60.8676140  98.7915060  31.5058590  61.2092950  99.6357110  31.2112460
  59.9291950  98.9398800  31.6223930  61.6482760 108.6881080  33.4910820
  62.2656760 109.3632160  33.2095270  60.7875880 109.0969060  33.3998320
  56.9415100 107.8780940  22.3717670  56.5643080 108.3668040  21.6402570
  57.1988170 108.5506220  23.0024200  69.5004530 106.8994460  31.4493250
  69.9173320 106.6854570  30.6146710  70.2244350 107.1567250  32.0201870
  66.9384790 104.3446160  24.5663300  66.0114070 104.2783540  24.7951770
  67.0909610 105.2826290  24.4518540  66.9253870 100.6163160  21.5630460
  65.9857540 100.7777120  21.6482920  67.2437130 101.3348840  21.0166450
  73.4466630 105.2981680  31.5409490  72.6185260 105.3674770  31.0659620
  74.0417110 105.8835990  31.0725320  63.0123130 108.5578460  29.5122240
  62.7151420 107.9523930  28.8330020  63.9622950 108.5955770  29.4011600
  61.2570050 101.6454110  31.1282070  61.8084640 101.7549450  30.3535320
  61.7713560 102.0191710  31.8437300  62.1041560 108.2960150  36.1630040
  61.2070090 108.5200120  36.4103440  62.1294430 108.4195090  35.2141440
  60.9312780 105.1673470  34.7387410  60.7920550 106.0396270  35.1074810
  60.0494140 104.8246280  34.5935350  67.2542160 110.0849340  26.0452540
  67.6938070 110.8273670  25.6307930  67.1929050 110.3275910  26.9691500
  62.7293130 111.1095170  36.9472560  62.7008560 111.5138120  36.0800990
  62.5658100 110.1805530  36.7844160  72.7263920  96.3996080  20.3912340
  72.4136580  96.4922910  21.2911410  73.4876390  96.9777110  20.3409770
  59.2446060 103.7655880  24.8489680  59.1243660 104.4917970  24.2370950
  58.9346950 102.9958790  24.3717590  56.8831430 106.9371020  30.6558320
  56.9611850 107.0719790  29.7114040  57.4973110 106.2286910  30.8486440
  58.1279060 108.6371210  27.0664500  57.7207140 108.7785800  26.2118100
  59.0192070 108.3531370  26.8635710  74.0841200 109.0835120  35.4036740
  74.2104260 108.8447000  34.4853920  74.1262580 108.2519660  35.8758820
  69.9212340 113.0718460  23.4015550  69.7613480 112.7821400  24.2997380
  69.7559050 112.2958590  22.8660780  62.4000720 112.8516990  25.1787170
  62.2243200 111.9352530  24.9654970  61.5456460 113.2104280  25.4184970
  56.9390950 107.9785190  33.1952780  57.1021990 107.5090550  32.3772150
  57.4043400 107.4708750  33.8601620  65.9979530  99.9759470  33.8348670
  65.5358900 100.1842490  34.6468610  65.5957640  99.1618820  33.5319340
  70.9984040 101.1968420  34.9645330  70.1477630 100.8974170  35.2854400
  70.8385830 101.4410430  34.0529150  68.0933750 102.6970170  37.0644120
  68.4187160 101.8633920  36.7246350  68.8814080 103.2198690  37.2122450
  64.8268540  96.7301650  23.1119180  64.2022720  96.7261520  23.8372490
  64.7398660  95.8632610  22.7155150  63.7485620  97.6538280  30.0902950
  64.0457950  98.5601110  30.0094970  64.2971180  97.1657060  29.4762520
  61.5023940 102.2324520  25.9594600  61.2764860 102.0161690  26.8641220
  60.7216470 102.6652980  25.6140570  68.7321700 102.2387890  24.5585250
  68.1330590 102.9623690  24.3748870  69.2801310 102.1764670  23.7761700
  63.9423150 103.1310100  36.6254870  63.8466750 102.1904830  36.4755270
  64.7855130 103.3525170  36.2302940  59.0733690  99.5423770  34.7788650
  58.6797080 100.3898980  34.9861430  58.3852090  98.9050140  34.9697290
  65.6478740  99.6258740  37.8485390  64.9577060  99.4330940  38.4831480
  66.3911040  99.9093380  38.3809690  56.3750740  97.4652230  28.8118730
  56.0863790  98.0355090  29.5243710  57.1196500  96.9856680  29.1749960
  56.5620970 101.4072350  20.0221450  56.4795640 102.3503110  20.1636440
  56.2104030 101.2647260  19.1433800  60.2121480 100.0237870  28.0486010
  59.8721530 100.5013100  28.8053060  59.4498800  99.5702990  27.6887110
  64.4239250 101.1423460  22.0798560  64.5452070 101.1009940  23.0284380
  64.0387760 102.0047610  21.9245290  63.4360750 103.4524600  21.4781860
  62.8677650 103.0042850  20.8517770  64.1449750 103.8117380  20.9447010
  71.8138370  96.3323040  35.9348630  72.1384140  95.6012700  36.4606610
  71.8494880  96.0136680  35.0329620  58.5129930 107.3536620  35.3548590
  58.1284720 106.7130290  35.9531550  58.8242120 108.0572740  35.9243320
  57.5267560  98.9456850  26.9650680  57.2414480  98.5812520  27.8029300
  57.4646420  98.2137310  26.3513820  62.4526440 103.2421800  33.1541420
  62.1483510 104.1213780  33.3791780  63.4072900 103.3021590  33.1898860
  60.9808230 107.4482790  23.7508270  60.2070490 106.9080410  23.5906990
  61.7102860 106.9289400  23.4126030  67.2006150  97.8386110  23.6864050
  66.3870760  97.3399280  23.6109360  67.0068100  98.6784360  23.2700400
  67.1215010 106.5157210  35.4303660  67.0552320 105.5952880  35.1761250
  66.4920150 106.6132650  36.1448300  61.0245630 107.1163170  27.3887080
  61.5424300 106.3131430  27.3343970  60.5729650 107.0542310  28.2303910
  65.9115130 108.3829450  22.6614380  66.2530830 109.1271680  22.1657700
  65.0827840 108.6960570  23.0239210  61.7103290 104.5408780  37.1852330
  61.4103430 104.6865960  36.2880150  62.4814530 103.9814070  37.0925720
  67.0531740 109.3377780  35.1807460  67.0676280 108.4058740  34.9626370
  66.3456840 109.4237540  35.8197230  73.2642950 105.9785120  34.5276040
  72.5391140 106.5713900  34.3305430  73.7918410 105.9708660  33.7289410
  64.8805820 108.4642980  25.4330300  65.5676950 109.0112190  25.8137890
  64.0938240 109.0083710  25.4679910  57.0198220 104.0815800  20.9247380
  57.8893070 104.3640600  21.2083300  56.5288540 104.8951670  20.8096190
  67.7597720 108.9827700  30.9925410  68.4019950 108.2820860  31.1057580
  68.2847070 109.7626140  30.8122300  69.5335340 109.7822600  34.1961470
  69.8691580 110.3689290  34.8739390  68.6135680 109.6515310  34.4259260
  57.3869470 113.2943180  21.4909010  57.7467110 113.8932520  20.8366280
  57.2461810 113.8403070  22.2644040  57.0838740  97.5717780  34.9784880
  56.3697260  97.7714700  35.5837490  57.5033780  96.7957350  35.3499680
  57.3711330 111.5598040  35.9651410  57.4802450 110.6192780  35.8246800
  56.7191890 111.8252790  35.3165140  65.3623920 109.8313930  37.3649530
  65.0420790 109.1123170  37.9095220  64.6882280 110.5069000  37.4385590
  63.4038090 110.6774380  22.3082680  63.3948190 111.4104070  21.6927190
  62.4836450 110.4305960  22.4009640  59.0044730 105.8989270  23.0529440
  58.3972680 106.6388170  23.0624740  59.4794080 105.9888630  22.2267640
  71.9439550  99.0197030  23.5373890  71.3152710  99.1242700  22.8232120
  71.4491470  99.2393810  24.3267770  66.3897690 110.7402620  20.9707870
  66.4909670 110.5366610  20.0409850  65.4899430 110.4860900  21.1755650
  65.5379510 102.7179680  32.9524300  66.0364760 103.1925500  33.6176150
  65.6802460 101.7943200  33.1594330  65.0315800 113.2588940  25.6655540
  65.2857300 113.2210330  24.7434910  64.0828280 113.1322270  25.6583790
  62.1158600  99.6068060  22.3282480  62.9649130 100.0438210  22.2622670
  61.7489870  99.9188320  23.1554540  72.7446370  98.9347640  33.7952690
  72.2419970  99.6753040  34.1346500  73.5603030  99.3231640  33.4789480
  61.0150020 105.8600420  20.8018010  61.7813290 105.7481780  21.3643440
  61.0924710 105.1638390  20.1494780  59.7096780 103.2925490  21.4850900
  59.7900370 102.3453000  21.5968300  60.6016530 103.6232370  21.5911560
  60.5111490 113.4420880  28.5885440  61.2473970 112.8936340  28.8594010
  60.8952410 114.3076890  28.4491430  57.3956970 109.5094450  24.4626950
  56.4696750 109.7515590  24.4532360  57.8613400 110.3368710  24.3411700
  59.5169770 112.6266950  37.7771020  60.3182500 112.9479000  38.1906420
  59.0021590 112.2662530  38.4990930  63.6213800 112.6151190  20.4111010
  64.4142410 112.9040020  19.9592800  63.1018150 112.1843360  19.7323490
  72.6743970 111.8421320  21.8347750  72.3885480 111.4286460  21.0201930
  72.4763520 112.7709030  21.7148270  57.2367580 105.1140410  36.7207070
  57.7406600 104.5347690  37.2923300  56.4975000 105.3980640  37.2583440
  64.1391200 107.8354600  20.2753360  64.0341840 107.2206950  21.0014740
  63.9715420 107.3120490  19.4916370  64.2905520 106.5211400  36.2542590
  63.5251190 107.0896400  36.1697260  64.4721480 106.2287610  35.3610820
  59.2690660 103.2570000  37.6157140  59.3096000 102.9583870  38.5242370
  60.1236160 103.6577610  37.4564660  63.0469050 105.8565550  22.7760650
  63.4685470 105.6905420  23.6192040  63.1719890 105.0465780  22.2815790
  61.2096470 101.8362100  35.5831630  60.6792930 101.3453050  34.9554970
  61.8784540 102.2646300  35.0489560  65.5596690 104.8803160  20.0237750
  66.0802350 104.1652180  19.6578900  66.2065090 105.5189030  20.3238260
  70.1074530 106.3031560  35.3472820  70.5215550 106.4576640  36.1963240
  69.1725530 106.4286780  35.5098600  70.5796700 103.6427720  37.3511970
  71.1617470 102.8880040  37.2632450  70.7558470 104.1735160  36.5743450
  61.6968770  98.8024470  35.6628920  61.6025640  98.1845220  34.9379790
  61.1166160  99.5290760  35.4358830  64.4630210  97.3597710  32.6956310
  64.0147510  97.3821970  31.8501860  63.8295410  96.9616730  33.2926610
  64.8689760 106.2552040  33.3168750  65.2877870 107.0984770  33.1444990
  63.9498390 106.3924080  33.0875530  67.2053660 103.9868220  34.7006590
  67.3249870 103.3909360  35.4401430  68.0647660 104.0237910  34.2807890
  69.5441560 104.5405410  33.2769100  69.0176780 105.0648030  32.6734240
  69.8872900 105.1732800  33.9078830  61.9427950 101.9298780  19.7218810
  61.7417010 101.0666140  20.0832150  61.7720000 101.8432140  18.7840410
  62.7197180 112.5605050  34.4326480  62.1818270 113.2851110  34.1135180
  62.9731140 112.0835390  33.6423820  63.9722430 100.5289570  35.9582410
  64.5622120 100.2205420  36.6460230  63.1542670 100.0569320  36.1142310
  68.7915860 100.1455380  36.1915430  68.1031380  99.4836920  36.1265420
  69.5121880  99.6993650  36.6363890  69.4216260  96.7407010  22.2505690
  69.7018550  95.8974910  22.6065110  68.6481990  96.9730120  22.7644440
  60.7410750  99.0299400  19.7096690  61.0436650  99.0366830  18.8015840
  61.4805340  98.6797260  20.2064350  65.5759390 113.7956260  34.6913130
  65.5018090 114.6991400  34.9985500  64.6738230 113.4768160  34.6635200
  63.9595680  97.9734020  20.6952890  63.6117680  97.2958010  20.1155340
  64.1608450  97.5123530  21.5096280  66.1244720 112.9614770  22.3139490
  67.0195510 113.2999740  22.3358250  66.1562350 112.2394180  21.6863770
  59.7640880 108.3341820  20.5426490  60.2015750 108.8771490  21.1984070
  60.2488610 107.5088770  20.5522830  56.9786680 111.1230850  27.9946750
  57.3089690 110.2551910  27.7625390  57.4077680 111.3289370  28.8251710
  61.5748600 109.4539860  25.6548720  61.2744140 109.3304830  26.5552630
  61.4686090 108.5948450  25.2464450  57.4676890 111.9901440  30.7328380
  57.0307880 112.1702240  31.5652530  58.0354570 112.7476060  30.5910100
  73.1039070 111.4918440  35.0205690  72.5041060 111.5511000  34.2769610
  73.2332970 110.5523420  35.1502540  74.3440520 109.2336260  20.3575400
  73.5133480 109.3012910  20.8282630  74.5212350 110.1240380  20.0542260
  57.3001320 104.5021670  27.0917260  56.6450160 104.2333310  26.4476960
  58.1379270 104.3926150  26.6419240  71.7890710 108.2170420  33.1181850
  70.9750550 108.6467580  33.3807640  72.1964910 108.8288830  32.5050900
  73.7481490 104.2087100  25.0111550  73.3725090 103.4415030  24.5792840
  73.0184610 104.5909800  25.4986480  58.3377250 104.8874240  31.6320600
  58.7050290 104.8001640  32.5116620  57.7688070 104.1240790  31.5327460
  73.1381110 103.3558620  34.6451070  72.9067200 103.1271370  33.7449020
  73.3985660 104.2758170  34.5995960  71.5769180  98.5815050  37.4230770
  72.4539360  98.5898450  37.8064770  71.5890020  97.8445890  36.8123120
  56.5139400 101.7120600  23.0342590  55.6103480 101.9750800  22.8594250
  56.9980020 101.9831770  22.2542550  59.0566610 100.7686140  20.9436970
  59.7658310 100.3469360  20.4584250  58.3406550 100.8361370  20.3120320
  72.2885300  96.2673020  33.2431880  72.9257520  96.8807160  33.6091070
  72.4360190  96.3033680  32.2981110  58.1464960  96.2287330  32.6287560
  57.7979780  96.6851150  33.3945740  57.8152660  95.3344460  32.7109990
  59.7529330 109.4006930  36.7940750  59.7098960 109.0299840  37.6755210
  59.8840340 110.3384500  36.9342570  63.4535360 110.9566520  32.3950470
  63.2126720 111.2241080  31.5080990  64.3938000 111.1272250  32.4501330
  65.6589780  97.4199210  36.1506980  65.5978670  98.0121040  36.9002390
  66.5990160  97.3125170  36.0057240  68.2964340  97.0769270  35.7899270
  68.9104750  97.3948560  35.1280350  68.8413900  96.5917860  36.4095130
  58.8185600  95.7563530  35.9038330  59.3668590  95.5751580  35.1404440
  58.8840910  94.9657640  36.4394640  59.5917360 112.3469180  33.9138530
  58.9977680 112.2153880  34.6528570  59.5841200 111.5107320  33.4480630
  69.0372380  95.6401410  32.1168560  68.1632220  95.9736520  31.9141490
  68.9283130  95.1674590  32.9420430  69.9444360  97.8472280  33.5010280
  69.6157720  97.0324040  33.1212010  70.8926660  97.8042090  33.3775970
  59.2229590 109.7127560  32.8646570  58.4963650 109.0932850  32.7972520
  59.2838740 110.1068170  31.9944650  62.8274690 111.9272560  29.6495980
  63.3439710 111.3159920  29.1244240  63.4772070 112.4301340  30.1406990
  66.7847200  96.5571250  31.0561470  66.0018990  97.0316750  31.3358230
  66.4910130  95.6526080  30.9474650  73.2006840  96.8909590  27.1119380
  73.1395240  95.9470810  26.9650400  73.9798870  96.9989680  27.6572840
  57.5059590 113.0301950  26.0743330  57.3381630 112.3972630  26.7725220
  56.6394100 113.2361350  25.7237520  64.6701420  98.9758000  26.5677500
  63.8575930  98.6014890  26.2273380  65.1743060  98.2203080  26.8698690
  69.1726400  95.6400450  27.8060570  69.7755770  96.2120660  28.2809090
  68.4319390  96.2039890  27.5834470  72.3161000  96.0422010  23.0800850
  72.5111630  96.9405460  23.3468280  71.5290870  95.8109090  23.5733800
  59.1122290 111.7235180  23.5193470  58.5869910 112.1043210  22.8155430
  59.0366870 112.3485950  24.2403180  60.5012760  97.3882780  22.1177160
  61.0305520  96.6012580  21.9885110  61.1341080  98.0673970  22.3512690
  65.6342550 113.7397150  37.8433160  66.5609860 113.5041420  37.8869120
  65.6192980 114.5669150  37.3619190  61.7115260 113.6717560  22.3942720
  62.4434080 113.3876840  21.8466610  61.9708930 113.4330840  23.2842100
  60.8730050 109.7882290  22.3989050  60.2438930 110.2567390  22.9474880
  60.9877880 108.9431510  22.8335240  69.4221620  95.8195480  38.1855510
  69.3087070  96.1390090  39.0807030  70.2391360  96.2207990  37.8892790
  68.3279770 103.8387950   8.5490250  68.2473820 102.9242560   8.2781960
  67.9144190 104.3355020   7.8429960  66.4597810 105.6166970  10.4299520
  65.6839910 105.1367410  10.7198090  67.1110740 104.9372620  10.2555680
  60.4763640 105.9286780  11.3075280  59.6448520 105.6735490  11.7071790
  61.0844620 105.9997550  12.0433200  70.4805240 110.0227160   9.2098650
  70.0186770 109.2514400   9.5385820  71.2930790 110.0493230   9.7151100
  60.4564900 109.9626870  11.5033300  60.7592940 109.0724610  11.3243520
  61.2008490 110.5197090  11.2755550  58.8855590 100.8888670   5.0917670
  57.9972290 101.2304640   4.9897550  59.1696780 100.6888990   4.1998500
  56.8488600 103.4894320  10.9757370  57.4204710 102.7216520  10.9761010
  56.8490140 103.7883080  10.0663980  66.7068550 112.3085170   8.8302640
  66.0879990 112.7642670   8.2597080  67.5620330 112.4636630   8.4292340
  65.9006800 108.2924160  10.4369680  65.8315080 107.3514100  10.2758810
  66.6626660 108.3825570  11.0092250  58.0913470  98.8978680  12.7626300
  57.9116310  98.0004430  13.0429060  57.6893550  99.4450550  13.4373250
  66.9311970 101.0994540  10.6638610  67.3076790 100.2266420  10.5512280
  66.8331480 101.4353240   9.7729050  61.0616980  99.4720170   6.1256050
  61.1683730 100.3723900   6.4324810  60.1509340  99.4238140   5.8350700
  70.7136090  98.5944980   7.5966950  71.5345710  98.1041550   7.6392430
  70.7470170  99.1842640   8.3498790  58.7100140 101.3939180  11.3708640
  59.3910250 101.6577550  11.9896040  58.3948190 100.5540050  11.7046650
  62.9024710 102.4406540  10.4581230  63.4102930 102.9387510  11.0986250
  63.4337950 101.6641740  10.2820590  75.0035640 100.6111730  14.1610580
  74.2987810 100.9993440  13.6425690  75.2693560 101.3062020  14.7631510
  61.1860810  97.0805100  14.7244650  61.1879250  97.5977490  13.9190550
  60.3565120  96.6035280  14.7014580  67.5731900 107.1924410   6.2234550
  66.9549170 107.6573860   5.6597270  68.0855150 107.8851890   6.6404060
  62.4363660 106.7200280  12.9018150  62.1033040 107.3469200  13.5439220
  62.6130340 107.2462160  12.1219820  70.9497570 100.5345360  10.3694490
  70.2453140 100.8230250  10.9497600  71.3109730 101.3445470  10.0094050
  60.8676140  98.7915060  12.7315100  61.2092950  99.6357110  12.4368970
  59.9291950  98.9398800  12.8480440  61.6482760 108.6881080  14.7167330
  62.2656760 109.3632160  14.4351780  60.7875880 109.0969060  14.6254830
  56.9415100 107.8780940   3.5974180  56.5643080 108.3668040   2.8659080
  57.1988170 108.5506220   4.2280710  72.5660350 110.1520490  12.6321970
  71.8823870 110.8219600  12.6238640  73.1054640 110.3501140  11.8666830
  74.0184490  99.9800150  10.7603700  73.0709400 100.0139130  10.8919130
  74.3434480 100.7939100  11.1453060  64.5504030  96.2797330   9.0559690
  64.8579010  95.7244220   8.3395190  63.6204730  96.4141790   8.8732680
  70.1019090 111.9964620  11.3467150  70.1146250 111.5926910  10.4789410
  69.5494310 112.7711910  11.2428580  71.3964510 108.7180840   6.4357320
  71.2860840 107.7755170   6.5606740  71.3932760 109.0796480   7.3220080
  69.5004530 106.8994460  12.6749760  69.9173320 106.6854570  11.8403220
  70.2244350 107.1567250  13.2458380  66.9384790 104.3446160   5.7919810
  66.0114070 104.2783540   6.0208280  67.0909610 105.2826290   5.6775050
  66.9253870 100.6163160   2.7886970  65.9857540 100.7777120   2.8739430
  67.2437130 101.3348840   2.2422960  73.4466630 105.2981680  12.7666000
  72.6185260 105.3674770  12.2916130  74.0417110 105.8835990  12.2981830
  70.9682080 105.9066460   6.2955060  70.3494500 105.5686010   5.6481360
  70.9506530 105.2626220   7.0034250  70.4108640 102.0851000  13.7120870
  69.9979820 102.9104710  13.9660860  69.6784590 101.4996040  13.5197230
  62.5441430 104.8710900   8.5739540  62.1398430 104.1588150   8.0785440
  62.6304550 104.5264140   9.4627580  63.0123130 108.5578460  10.7378750
  62.7151420 107.9523930  10.0586530  63.9622950 108.5955770  10.6268110
  61.2570050 101.6454110  12.3538580  61.8084640 101.7549450  11.5791830
  61.7713560 102.0191710  13.0693810  71.1008740 112.1310330  14.4001850
  70.6239300 112.9382520  14.2074460  70.4170530 111.4788660  14.5528060
  62.1041560 108.2960150  17.3886550  61.2070090 108.5200120  17.6359950
  62.1294430 108.4195090  16.4397950  69.1446780 105.1453270   3.3027810
  69.5840060 104.3075700   3.1565630  69.8575200 105.7782670   3.3891950
  60.9312780 105.1673470  15.9643920  60.7920550 106.0396270  16.3331320
  60.0494140 104.8246280  15.8191860  67.2542160 110.0849340   7.2709050
  67.6938070 110.8273670   6.8564440  67.1929050 110.3275910   8.1948010
  62.7293130 111.1095170  18.1729070  62.7008560 111.5138120  17.3057500
  62.5658100 110.1805530  18.0100670  59.2446060 103.7655880   6.0746190
  59.1243660 104.4917970   5.4627460  58.9346950 102.9958790   5.5974100
  74.6807950 111.8922270  19.4693240  75.1567670 112.3705160  20.1482320
  75.3015110 111.8239760  18.7438740  56.8831430 106.9371020  11.8814830
  56.9611850 107.0719790  10.9370550  57.4973110 106.2286910  12.0742950
  58.1279060 108.6371210   8.2921010  57.7207140 108.7785800   7.4374610
  59.0192070 108.3531370   8.0892220  74.0841200 109.0835120  16.6293250
  74.2104260 108.8447000  15.7110430  74.1262580 108.2519660  17.1015330
  67.9457940 112.7863120  15.1988060  68.4602610 112.6971130  16.0010490
  67.1027020 113.1322820  15.4915970  69.9212340 113.0718460   4.6272060
  69.7613480 112.7821400   5.5253890  69.7559050 112.2958590   4.0917290
  62.4000720 112.8516990   6.4043680  62.2243200 111.9352530   6.1911480
  61.5456460 113.2104280   6.6441480  69.6238470 110.5806020   3.1870060
  68.9303630 110.5783310   2.5272340  70.3661330 110.1565340   2.7564230
  69.1888400 112.2068730   7.2618550  69.6445350 111.4258110   7.5757170
  69.5280920 112.9175550   7.8059730  56.9390950 107.9785190  14.4209290
  57.1021990 107.5090550  13.6028660  57.4043400 107.4708750  15.0858130
  61.7109720  97.1090950   9.4569860  61.2677870  97.8900490   9.1254380
  62.2694710  97.4320840  10.1640800  65.9979530  99.9759470  15.0605180
  65.5358900 100.1842490  15.8725120  65.5957640  99.1618820  14.7575850
  70.9984040 101.1968420  16.1901840  70.1477630 100.8974170  16.5110910
  70.8385830 101.4410430  15.2785660  68.0933750 102.6970170  18.2900630
  68.4187160 101.8633920  17.9502860  68.8814080 103.2198690  18.4378960
  64.8268540  96.7301650   4.3375690  64.2022720  96.7261520   5.0629000
  64.7398660  95.8632610   3.9411660  63.7485620  97.6538280  11.3159460
  64.0457950  98.5601110  11.2351480  64.2971180  97.1657060  10.7019030
  61.5023940 102.2324520   7.1851110  61.2764860 102.0161690   8.0897730
  60.7216470 102.6652980   6.8397080  68.7321700 102.2387890   5.7841760
  68.1330590 102.9623690   5.6005380  69.2801310 102.1764670   5.0018210
  63.9423150 103.1310100  17.8511380  63.8466750 102.1904830  17.7011780
  64.7855130 103.3525170  17.4559450  67.3386570 100.8751430   7.8145040
  67.7316140 101.1923630   7.0013730  67.7003420  99.9963310   7.9289560
  59.0733690  99.5423770  16.0045160  58.6797080 100.3898980  16.2117940
  58.3852090  98.9050140  16.1953800  65.6478740  99.6258740  19.0741900
  64.9577060  99.4330940  19.7087990  66.3911040  99.9093380  19.6066200
  56.3750740  97.4652230  10.0375240  56.0863790  98.0355090  10.7500220
  57.1196500  96.9856680  10.4006470  67.9241710 103.4657180  11.9095820
  67.1922830 103.9743990  12.2585920  67.5266050 102.6487160  11.6084600
  64.3619100 100.1411380  10.3148310  64.3655160  99.7001330   9.4652850
  65.2570220 100.4628710  10.4220130  60.2121480 100.0237870   9.2742520
  59.8721530 100.5013100  10.0309570  59.4498800  99.5702990   8.9143620
  64.4239250 101.1423460   3.3055070  64.5452070 101.1009940   4.2540890
  64.0387760 102.0047610   3.1501800  68.3867620  98.9190860  11.3218760
  68.4040360  99.3699510  12.1660610  68.1383200  98.0196500  11.5352200
  63.4360750 103.4524600   2.7038370  62.8677650 103.0042850   2.0774280
  64.1449750 103.8117380   2.1703520  58.5129930 107.3536620  16.5805100
  58.1284720 106.7130290  17.1788060  58.8242120 108.0572740  17.1499830
  64.6627070 104.2013160  12.0613720  65.0297200 103.7271730  12.8075060
  64.4732130 105.0754730  12.4022060  57.5267560  98.9456850   8.1907190
  57.2414480  98.5812520   9.0285810  57.4646420  98.2137310   7.5770330
  62.4526440 103.2421800  14.3797930  62.1483510 104.1213780  14.6048290
  63.4072900 103.3021590  14.4155370  60.9808230 107.4482790   4.9764780
  60.2070490 106.9080410   4.8163500  61.7102860 106.9289400   4.6382540
  71.7396210 106.4448150  10.7691170  72.4595330 106.9403440  10.3787280
  71.5378030 105.7666040  10.1245040  67.2006150  97.8386110   4.9120560
  66.3870760  97.3399280   4.8365870  67.0068100  98.6784360   4.4956910
  67.1215010 106.5157210  16.6560170  67.0552320 105.5952880  16.4017760
  66.4920150 106.6132650  17.3704810  69.9154540 102.2105760   3.2082720
  70.8034160 102.5222990   3.0334060  69.8859630 101.3378010   2.8163300
  61.0245630 107.1163170   8.6143590  61.5424300 106.3131430   8.5600480
  60.5729650 107.0542310   9.4560420  65.9115130 108.3829450   3.8870890
  66.2530830 109.1271680   3.3914210  65.0827840 108.6960570   4.2495720
  58.5090170 104.0824540  15.5269290  58.1505110 104.7478390  16.1142630
  58.2144730 103.2508090  15.8981910  61.7103290 104.5408780  18.4108840
  61.4103430 104.6865960  17.5136660  62.4814530 103.9814070  18.3182230
  67.0531740 109.3377780  16.4063970  67.0676280 108.4058740  16.1882880
  66.3456840 109.4237540  17.0453740  72.1868810 103.5217600   2.6762580
  72.1032530 103.9531820   1.8259020  72.9063000 103.9815950   3.1089400
  73.2642950 105.9785120  15.7532550  72.5391140 106.5713900  15.5561940
  73.7918410 105.9708660  14.9545920  73.2156060 110.3759860   5.4044710
  72.5732220 109.7215480   5.6788430  72.8286720 110.7814950   4.6285380
  68.7942540 107.7045290   9.2516400  69.1466360 107.1073420   8.5917770
  67.9104870 107.3789520   9.4224650  64.8805820 108.4642980   6.6586810
  65.5676950 109.0112190   7.0394400  64.0938240 109.0083710   6.6936420
  57.0198220 104.0815800   2.1503890  57.8893070 104.3640600   2.4339810
  56.5288540 104.8951670   2.0352700  64.1833030 105.4689010   6.2712170
  64.6395810 106.2794260   6.4972360  63.8321240 105.1512150   7.1030660
  66.4865640 110.9795350  13.5004470  67.1307860 111.1854730  14.1777890
  66.8495080 110.2183750  13.0475320  60.0844810  95.8126660   6.7434690
  59.9559440  95.8044560   7.6919610  59.2606830  96.1509750   6.3925700
  67.7597720 108.9827700  12.2181920  68.4019950 108.2820860  12.3314090
  68.2847070 109.7626140  12.0378810  69.5335340 109.7822600  15.4217980
  69.8691580 110.3689290  16.0995900  68.6135680 109.6515310  15.6515770
  57.3869470 113.2943180   2.7165520  57.7467110 113.8932520   2.0622790
  57.2461810 113.8403070   3.4900550  57.0838740  97.5717780  16.2041390
  56.3697260  97.7714700  16.8094000  57.5033780  96.7957350  16.5756190
  71.1869690 107.1848260   3.6035220  70.8991390 107.6460950   4.3913100
  71.9821860 106.7246030   3.8719440  57.3711330 111.5598040  17.1907920
  57.4802450 110.6192780  17.0503310  56.7191890 111.8252790  16.5421650
  65.3623920 109.8313930  18.5906040  65.0420790 109.1123170  19.1351730
  64.6882280 110.5069000  18.6642100  63.4038090 110.6774380   3.5339190
  63.3948190 111.4104070   2.9183700  62.4836450 110.4305960   3.6266150
  59.0044730 105.8989270   4.2785950  58.3972680 106.6388170   4.2881250
  59.4794080 105.9888630   3.4524150  68.5777520 100.0640090  13.9542840
  68.9458340  99.2435300  14.2822410  67.7175720 100.1241980  14.3698490
  71.9439550  99.0197030   4.7630400  71.3152710  99.1242700   4.0488630
  71.4491470  99.2393810   5.5524280  63.9123580 101.2982980   6.1788280
  63.2039730 101.7669320   6.6201890  64.1968060 100.6404990   6.8133470
  65.5379510 102.7179680  14.1780810  66.0364760 103.1925500  14.8432660
  65.6802460 101.7943200  14.3850840  67.9439010  98.0233640   7.6184070
  67.8206790  98.0419770   6.6693580  68.8923570  98.0712580   7.7382470
  65.0315800 113.2588940   6.8912050  65.2857300 113.2210330   5.9691420
  64.0828280 113.1322270   6.8840300  62.1158600  99.6068060   3.5538990
  62.9649130 100.0438210   3.4879180  61.7489870  99.9188320   4.3811050
  72.7446370  98.9347640  15.0209200  72.2419970  99.6753040  15.3603010
  73.5603030  99.3231640  14.7045990  71.0368380 104.1780820   8.4670560
  70.0958520 104.1931050   8.6418250  71.3512450 103.3916780   8.9130860
  59.7096780 103.2925490   2.7107410  59.7900370 102.3453000   2.8224810
  60.6016530 103.6232370   2.8168070  73.0393960 111.3489670  10.1424820
  73.1641380 112.1720840  10.6148630  73.9059520 111.1380400   9.7948970
  60.5111490 113.4420880   9.8141950  61.2473970 112.8936340  10.0850520
  60.8952410 114.3076890   9.6747940  57.3956970 109.5094450   5.6883460
  56.4696750 109.7515590   5.6788870  57.8613400 110.3368710   5.5668210
  59.5169770 112.6266950  19.0027530  60.3182500 112.9479000  19.4162930
  59.0021590 112.2662530  19.7247440  69.7834770 112.4627110  17.5612350
  70.7356520 112.3785130  17.5112590  69.6362990 113.1268820  18.2346140
  72.6743970 111.8421320   3.0604260  72.3885480 111.4286460   2.2458440
  72.4763520 112.7709030   2.9404780  57.2367580 105.1140410  17.9463580
  57.7406600 104.5347690  18.5179810  56.4975000 105.3980640  18.4839950
  64.2905520 106.5211400  17.4799100  63.5251190 107.0896400  17.3953770
  64.4721480 106.2287610  16.5867330  67.3793930 106.8974630   2.1051860
  66.8304030 107.3443930   2.7494600  68.0013190 106.3923880   2.6289530
  59.2690660 103.2570000  18.8413650  59.3096000 102.9583870  19.7498880
  60.1236160 103.6577610  18.6821170  63.0469050 105.8565550   4.0017160
  63.4685470 105.6905420   4.8448550  63.1719890 105.0465780   3.5072300
  61.2096470 101.8362100  16.8088140  60.6792930 101.3453050  16.1811480
  61.8784540 102.2646300  16.2746070  70.1074530 106.3031560  16.5729330
  70.5215550 106.4576640  17.4219750  69.1725530 106.4286780  16.7355110
  61.6968770  98.8024470  16.8885430  61.6025640  98.1845220  16.1636300
  61.1166160  99.5290760  16.6615340  64.4630210  97.3597710  13.9212820
  64.0147510  97.3821970  13.0758370  63.8295410  96.9616730  14.5183120
  64.8689760 106.2552040  14.5425260  65.2877870 107.0984770  14.3701500
  63.9498390 106.3924080  14.3132040  67.2053660 103.9868220  15.9263100
  67.3249870 103.3909360  16.6657940  68.0647660 104.0237910  15.5064400
  69.5441560 104.5405410  14.5025610  69.0176780 105.0648030  13.8990750
  69.8872900 105.1732800  15.1335340  62.7197180 112.5605050  15.6582990
  62.1818270 113.2851110  15.3391690  62.9731140 112.0835390  14.8680330
  63.9722430 100.5289570  17.1838920  64.5622120 100.2205420  17.8716740
  63.1542670 100.0569320  17.3398820  68.7915860 100.1455380  17.4171940
  68.1031380  99.4836920  17.3521930  69.5121880  99.6993650  17.8620400
  69.4216260  96.7407010   3.4762200  69.7018550  95.8974910   3.8321620
  68.6481990  96.9730120   3.9900950  65.5759390 113.7956260  15.9169640
  65.5018090 114.6991400  16.2242010  64.6738230 113.4768160  15.8891710
  66.1244720 112.9614770   3.5396000  67.0195510 113.2999740   3.5614760
  66.1562350 112.2394180   2.9120280  59.7640880 108.3341820   1.7683000
  60.2015750 108.8771490   2.4240580  60.2488610 107.5088770   1.7779340
  56.9786680 111.1230850   9.2203260  57.3089690 110.2551910   8.9881900
  57.4077680 111.3289370  10.0508220  61.5748600 109.4539860   6.8805230
  61.2744140 109.3304830   7.7809140  61.4686090 108.5948450   6.4720960
  57.4676890 111.9901440  11.9584890  57.0307880 112.1702240  12.7909040
  58.0354570 112.7476060  11.8166610  73.1039070 111.4918440  16.2462200
  72.5041060 111.5511000  15.5026120  73.2332970 110.5523420  16.3759050
  73.7996980 105.9783740   4.0866110  74.5615890 106.5480390   4.1925800
  73.8151350 105.4110940   4.8574420  57.3001320 104.5021670   8.3173770
  56.6450160 104.2333310   7.6733470  58.1379270 104.3926150   7.8675750
  74.8056950 106.8333840   8.9308040  75.1765780 106.0501160   8.5244010
  75.4458880 107.5222940   8.7525340  71.7890710 108.2170420  14.3438360
  70.9750550 108.6467580  14.6064150  72.1964910 108.8288830  13.7307410
  70.2491760  99.2962960   2.5392260  70.6676640  99.1093940   1.6988920
  69.9427820  98.4442010   2.8495190  73.7481490 104.2087100   6.2368060
  73.3725090 103.4415030   5.8049350  73.0184610 104.5909800   6.7242990
  58.3377250 104.8874240  12.8577110  58.7050290 104.8001640  13.7373130
  57.7688070 104.1240790  12.7583970  73.1381110 103.3558620  15.8707580
  72.9067200 103.1271370  14.9705530  73.3985660 104.2758170  15.8252470
  57.8893250 101.7983330  16.7635530  56.9949300 101.7650090  17.1029240
  58.4290800 101.9970120  17.5286780  56.5139400 101.7120600   4.2599100
  55.6103480 101.9750800   4.0850760  56.9980020 101.9831770   3.4799060
  73.0232450 102.4344590   9.5375300  73.5469930 101.9407240   8.9065470
  73.6091870 102.5694950  10.2822870  73.2022170 102.5184460  13.0594850
  72.2524880 102.4848000  13.1739840  73.3835180 103.4284570  12.8244620
  72.5132420 101.6917940   5.4767710  73.0091540 101.4588810   6.2616590
  72.3148490 100.8529780   5.0605350  58.3932960  96.0731660  11.1118750
  59.0409150  95.5229040  10.6713910  58.8134800  96.3274810  11.9334560
  73.9419580 100.3278890   8.0105390  73.8318860 100.1734930   8.9487660
  74.7027170  99.7999830   7.7680800  74.9048340  98.9297470   3.8768240
  74.1099840  98.8642590   4.4061150  75.1091620  99.8648110   3.8653590
  71.8466760 112.9689020   7.8706630  72.4425830 112.6473590   7.1941050
  72.1044910 112.4960840   8.6619900  58.1464960  96.2287330  13.8544070
  57.7979780  96.6851150  14.6202250  57.8152660  95.3344460  13.9366500
  59.7529330 109.4006930  18.0197260  59.7098960 109.0299840  18.9011720
  59.8840340 110.3384500  18.1599080  63.4535360 110.9566520  13.6206980
  63.2126720 111.2241080  12.7337500  64.3938000 111.1272250  13.6757840
  65.6589780  97.4199210  17.3763490  65.5978670  98.0121040  18.1258900
  66.5990160  97.3125170  17.2313750  68.2964340  97.0769270  17.0155780
  68.9104750  97.3948560  16.3536860  68.8413900  96.5917860  17.6351640
  74.7139520 112.9760900  14.4217620  74.2197800 113.3729770  13.7044750
  74.1052810 112.3510110  14.8154900  58.8185600  95.7563530  17.1294840
  59.3668590  95.5751580  16.3660950  58.8840910  94.9657640  17.6651150
  59.5917360 112.3469180  15.1395040  58.9977680 112.2153880  15.8785080
  59.5841200 111.5107320  14.6737140  69.0372380  95.6401410  13.3425070
  68.1632220  95.9736520  13.1398000  68.9283130  95.1674590  14.1676940
  69.9444360  97.8472280  14.7266790  69.6157720  97.0324040  14.3468520
  70.8926660  97.8042090  14.6032480  72.3978970 113.6184320  11.7004360
  71.9381940 114.3700130  11.3262380  71.7691430 112.8990790  11.6419160
  59.2229590 109.7127560  14.0903080  58.4963650 109.0932850  14.0229030
  59.2838740 110.1068170  13.2201160  62.8274690 111.9272560  10.8752490
  63.3439710 111.3159920  10.3500750  63.4772070 112.4301340  11.3663500
  65.5670190 112.8181050  11.7021470  65.8548000 112.5635350  10.8254480
  66.0793410 112.2658410  12.2927040  66.7847200  96.5571250  12.2817980
  66.0018990  97.0316750  12.5614740  66.4910130  95.6526080  12.1731160
  71.3368270  97.2594350  10.3267070  71.7776360  97.2039450   9.4788670
  71.0675860  98.1752360  10.3977250  73.2006840  96.8909590   8.3375890
  73.1395240  95.9470810   8.1906910  73.9798870  96.9989680   8.8829350
  57.5059590 113.0301950   7.2999840  57.3381630 112.3972630   7.9981730
  56.6394100 113.2361350   6.9494030  58.1287610  96.8618730   4.8031700
  58.8866970  96.9747610   4.2295730  57.6664780  97.6987930   4.7575130
  64.6701420  98.9758000   7.7934010  63.8575930  98.6014890   7.4529890
  65.1743060  98.2203080   8.0955200  69.1726400  95.6400450   9.0317080
  69.7755770  96.2120660   9.5065600  68.4319390  96.2039890   8.8090980
  72.3161000  96.0422010   4.3057360  72.5111630  96.9405460   4.5724790
  71.5290870  95.8109090   4.7990310  59.1122290 111.7235180   4.7449980
  58.5869910 112.1043210   4.0411940  59.0366870 112.3485950   5.4659690
  60.5012760  97.3882780   3.3433670  61.0305520  96.6012580   3.2141620
  61.1341080  98.0673970   3.5769200  62.6950600  97.1257920   6.3979060
  62.0653340  96.4245230   6.5649190  62.1555740  97.8862050   6.1812220
  65.6342550 113.7397150  19.0689670  66.5609860 113.5041420  19.1125630
  65.6192980 114.5669150  18.5875700  73.8687610 113.2822720   6.0663920
  74.0439800 112.5960460   5.4224840  73.1709180 113.8069770   5.6740590
  62.8206160  96.4041900  18.8331550  62.5390430  96.9075500  18.0692370
  63.2025860  95.6063650  18.4673680  61.7115260 113.6717560   3.6199230
  62.4434080 113.3876840   3.0723120  61.9708930 113.4330840   4.5098610
  60.8730050 109.7882290   3.6245560  60.2438930 110.2567390   4.1731390
  60.9877880 108.9431510   4.0591750  69.4221620  95.8195480  19.4112020
  69.3087070  96.1390090  20.3063540  70.2391360  96.2207990  19.1149300
  72.2020110 112.9667010  18.8930710  72.9945430 112.4716240  18.6856670
  72.4953260 113.6457150  19.5006320  68.3279770  85.0644460 139.9694680
  68.2473820  84.1499070 139.6986390  67.9144190  85.5611530 139.2634390
  66.4597810  86.8423480 141.8503950  65.6839910  86.3623920 142.1402520
  67.1110740  86.1629130 141.6760110  60.4763640  87.1543290 142.7279710
  59.6448520  86.8992000 143.1276220  61.0844620  87.2254060 143.4637630
  70.4805240  91.2483670 140.6303080  70.0186770  90.4770910 140.9590250
  71.2930790  91.2749740 141.1355530  60.4564900  91.1883380 142.9237730
  60.7592940  90.2981120 142.7447950  61.2008490  91.7453600 142.6959980
  58.8855590  82.1145180 136.5122100  57.9972290  82.4561150 136.4101980
  59.1696780  81.9145500 135.6202930  56.8488600  84.7150830 142.3961800
  57.4204710  83.9473030 142.3965440  56.8490140  85.0139590 141.4868410
  66.7068550  93.5341680 140.2507070  66.0879990  93.9899180 139.6801510
  67.5620330  93.6893140 139.8496770  65.9006800  89.5180670 141.8574110
  65.8315080  88.5770610 141.6963240  66.6626660  89.6082080 142.4296680
  58.0913470  80.1235190 144.1830730  57.9116310  79.2260940 144.4633490
  57.6893550  80.6707060 144.8577680  66.9311970  82.3251050 142.0843040
  67.3076790  81.4522930 141.9716710  66.8331480  82.6609750 141.1933480
  70.7136090  79.8201490 139.0171380  71.5345710  79.3298060 139.0596860
  70.7470170  80.4099150 139.7703220  58.7100140  82.6195690 142.7913070
  59.3910250  82.8834060 143.4100470  58.3948190  81.7796560 143.1251080
  62.9024710  83.6663050 141.8785660  63.4102930  84.1644020 142.5190680
  63.4337950  82.8898250 141.7025020  75.0035640  81.8368240 145.5815010
  74.2987810  82.2249950 145.0630120  75.2693560  82.5318530 146.1835940
  61.1860810  78.3061610 146.1449080  61.1879250  78.8234000 145.3394980
  60.3565120  77.8291790 146.1219010  67.5731900  88.4180920 137.6438980
  66.9549170  88.8830370 137.0801700  68.0855150  89.1108400 138.0608490
  62.4363660  87.9456790 144.3222580  62.1033040  88.5725710 144.9643650
  62.6130340  88.4718670 143.5424250  70.9497570  81.7601870 141.7898920
  70.2453140  82.0486760 142.3702030  71.3109730  82.5701980 141.4298480
  60.8676140  80.0171570 144.1519530  61.2092950  80.8613620 143.8573400
  59.9291950  80.1655310 144.2684870  61.6482760  89.9137590 146.1371760
  62.2656760  90.5888670 145.8556210  60.7875880  90.3225570 146.0459260
  56.9415100  89.1037450 135.0178610  56.5643080  89.5924550 134.2863510
  57.1988170  89.7762730 135.6485140  72.5660350  91.3777000 144.0526400
  71.8823870  92.0476110 144.0443070  73.1054640  91.5757650 143.2871260
  74.0184490  81.2056660 142.1808130  73.0709400  81.2395640 142.3123560
  74.3434480  82.0195610 142.5657490  64.5504030  77.5053840 140.4764120
  64.8579010  76.9500730 139.7599620  63.6204730  77.6398300 140.2937110
  70.1019090  93.2221130 142.7671580  70.1146250  92.8183420 141.8993840
  69.5494310  93.9968420 142.6633010  69.5004530  88.1250970 144.0954190
  69.9173320  87.9111080 143.2607650  70.2244350  88.3823760 144.6662810
  66.9253870  81.8419670 134.2091400  65.9857540  82.0033630 134.2943860
  67.2437130  82.5605350 133.6627390  73.4466630  86.5238190 144.1870430
  72.6185260  86.5931280 143.7120560  74.0417110  87.1092500 143.7186260
  70.9682080  87.1322970 137.7159490  70.3494500  86.7942520 137.0685790
  70.9506530  86.4882730 138.4238680  70.4108640  83.3107510 145.1325300
  69.9979820  84.1361220 145.3865290  69.6784590  82.7252550 144.9401660
  63.0123130  89.7834970 142.1583180  62.7151420  89.1780440 141.4790960
  63.9622950  89.8212280 142.0472540  61.2570050  82.8710620 143.7743010
  61.8084640  82.9805960 142.9996260  61.7713560  83.2448220 144.4898240
  71.1008740  93.3566840 145.8206280  70.6239300  94.1639030 145.6278890
  70.4170530  92.7045170 145.9732490  62.1041560  89.5216660 148.8090980
  61.2070090  89.7456630 149.0564380  62.1294430  89.6451600 147.8602380
  69.1446780  86.3709780 134.7232240  69.5840060  85.5332210 134.5770060
  69.8575200  87.0039180 134.8096380  60.9312780  86.3929980 147.3848350
  60.7920550  87.2652780 147.7535750  60.0494140  86.0502790 147.2396290
  62.7293130  92.3351680 149.5933500  62.7008560  92.7394630 148.7261930
  62.5658100  91.4062040 149.4305100  72.7263920  77.6252590 133.0373280
  72.4136580  77.7179420 133.9372350  73.4876390  78.2033620 132.9870710
  56.8831430  88.1627530 143.3019260  56.9611850  88.2976300 142.3574980
  57.4973110  87.4543420 143.4947380  58.1279060  89.8627720 139.7125440
  57.7207140  90.0042310 138.8579040  59.0192070  89.5787880 139.5096650
  74.0841200  90.3091630 148.0497680  74.2104260  90.0703510 147.1314860
  74.1262580  89.4776170 148.5219760  67.9457940  94.0119630 146.6192490
  68.4602610  93.9227640 147.4214920  67.1027020  94.3579330 146.9120400
  62.4000720  94.0773500 137.8248110  62.2243200  93.1609040 137.6115910
  61.5456460  94.4360790 138.0645910  73.9365210  82.3624090 149.0147420
  73.3209480  82.8703760 148.4862880  73.6161630  81.4622420 148.9573360
  56.9390950  89.2041700 145.8413720  57.1021990  88.7347060 145.0233090
  57.4043400  88.6965260 146.5062560  61.7109720  78.3347460 140.8774290
  61.2677870  79.1157000 140.5458810  62.2694710  78.6577350 141.5845230
  65.9979530  81.2015980 146.4809610  65.5358900  81.4099000 147.2929550
  65.5957640  80.3875330 146.1780280  70.9984040  82.4224930 147.6106270
  70.1477630  82.1230680 147.9315340  70.8385830  82.6666940 146.6990090
  68.0933750  83.9226680 149.7105060  68.4187160  83.0890430 149.3707290
  68.8814080  84.4455200 149.8583390  64.8268540  77.9558160 135.7580120
  64.2022720  77.9518030 136.4833430  64.7398660  77.0889120 135.3616090
  63.7485620  78.8794790 142.7363890  64.0457950  79.7857620 142.6555910
  64.2971180  78.3913570 142.1223460  68.7321700  83.4644400 137.2046190
  68.1330590  84.1880200 137.0209810  69.2801310  83.4021180 136.4222640
  63.9423150  84.3566610 149.2715810  63.8466750  83.4161340 149.1216210
  64.7855130  84.5781680 148.8763880  67.3386570  82.1007940 139.2349470
  67.7316140  82.4180140 138.4218160  67.7003420  81.2219820 139.3493990
  59.0733690  80.7680280 147.4249590  58.6797080  81.6155490 147.6322370
  58.3852090  80.1306650 147.6158230  56.3750740  78.6908740 141.4579670
  56.0863790  79.2611600 142.1704650  57.1196500  78.2113190 141.8210900
  56.5620970  82.6328860 132.6682390  56.4795640  83.5759620 132.8097380
  56.2104030  82.4903770 131.7894740  67.9241710  84.6913690 143.3300250
  67.1922830  85.2000500 143.6790350  67.5266050  83.8743670 143.0289030
  64.3619100  81.3667890 141.7352740  64.3655160  80.9257840 140.8857280
  65.2570220  81.6885220 141.8424560  60.2121480  81.2494380 140.6946950
  59.8721530  81.7269610 141.4514000  59.4498800  80.7959500 140.3348050
  68.3867620  80.1447370 142.7423190  68.4040360  80.5956020 143.5865040
  68.1383200  79.2453010 142.9556630  71.8138370  77.5579550 148.5809570
  72.1384140  76.8269210 149.1067550  71.8494880  77.2393190 147.6790560
  58.5129930  88.5793130 148.0009530  58.1284720  87.9386800 148.5992490
  58.8242120  89.2829250 148.5704260  64.6627070  85.4269670 143.4818150
  65.0297200  84.9528240 144.2279490  64.4732130  86.3011240 143.8226490
  57.5267560  80.1713360 139.6111620  57.2414480  79.8069030 140.4490240
  57.4646420  79.4393820 138.9974760  62.4526440  84.4678310 145.8002360
  62.1483510  85.3470290 146.0252720  63.4072900  84.5278100 145.8359800
  60.9808230  88.6739300 136.3969210  60.2070490  88.1336920 136.2367930
  61.7102860  88.1545910 136.0586970  71.7396210  87.6704660 142.1895600
  72.4595330  88.1659950 141.7991710  71.5378030  86.9922550 141.5449470
  67.2006150  79.0642620 136.3324990  66.3870760  78.5655790 136.2570300
  67.0068100  79.9040870 135.9161340  67.1215010  87.7413720 148.0764600
  67.0552320  86.8209390 147.8222190  66.4920150  87.8389160 148.7909240
  69.9154540  83.4362270 134.6287150  70.8034160  83.7479500 134.4538490
  69.8859630  82.5634520 134.2367730  61.0245630  88.3419680 140.0348020
  61.5424300  87.5387940 139.9804910  60.5729650  88.2798820 140.8764850
  65.9115130  89.6085960 135.3075320  66.2530830  90.3528190 134.8118640
  65.0827840  89.9217080 135.6700150  58.5090170  85.3081050 146.9473720
  58.1505110  85.9734900 147.5347060  58.2144730  84.4764600 147.3186340
  61.7103290  85.7665290 149.8313270  61.4103430  85.9122470 148.9341090
  62.4814530  85.2070580 149.7386660  67.0531740  90.5634290 147.8268400
  67.0676280  89.6315250 147.6087310  66.3456840  90.6494050 148.4658170
  72.1868810  84.7474110 134.0967010  72.1032530  85.1788330 133.2463450
  72.9063000  85.2072460 134.5293830  73.2642950  87.2041630 147.1736980
  72.5391140  87.7970410 146.9766370  73.7918410  87.1965170 146.3750350
  68.7942540  88.9301800 140.6720830  69.1466360  88.3329930 140.0122200
  67.9104870  88.6046030 140.8429080  64.8805820  89.6899490 138.0791240
  65.5676950  90.2368700 138.4598830  64.0938240  90.2340220 138.1140850
  57.0198220  85.3072310 133.5708320  57.8893070  85.5897110 133.8544240
  56.5288540  86.1208180 133.4557130  66.4865640  92.2051860 144.9208900
  67.1307860  92.4111240 145.5982320  66.8495080  91.4440260 144.4679750
  60.0844810  77.0383170 138.1639120  59.9559440  77.0301070 139.1124040
  59.2606830  77.3766260 137.8130130  67.7597720  90.2084210 143.6386350
  68.4019950  89.5077370 143.7518520  68.2847070  90.9882650 143.4583240
  69.5335340  91.0079110 146.8422410  69.8691580  91.5945800 147.5200330
  68.6135680  90.8771820 147.0720200  57.3869470  94.5199690 134.1369950
  57.7467110  95.1189030 133.4827220  57.2461810  95.0659580 134.9104980
  57.0838740  78.7974290 147.6245820  56.3697260  78.9971210 148.2298430
  57.5033780  78.0213860 147.9960620  57.3711330  92.7854550 148.6112350
  57.4802450  91.8449290 148.4707740  56.7191890  93.0509300 147.9626080
  63.4038090  91.9030890 134.9543620  63.3948190  92.6360580 134.3388130
  62.4836450  91.6562470 135.0470580  59.0044730  87.1245780 135.6990380
  58.3972680  87.8644680 135.7085680  59.4794080  87.2145140 134.8728580
  68.5777520  81.2896600 145.3747270  68.9458340  80.4691810 145.7026840
  67.7175720  81.3498490 145.7902920  71.9439550  80.2453540 136.1834830
  71.3152710  80.3499210 135.4693060  71.4491470  80.4650320 136.9728710
  65.5379510  83.9436190 145.5985240  66.0364760  84.4182010 146.2637090
  65.6802460  83.0199710 145.8055270  67.9439010  79.2490150 139.0388500
  67.8206790  79.2676280 138.0898010  68.8923570  79.2969090 139.1586900
  65.0315800  94.4845450 138.3116480  65.2857300  94.4466840 137.3895850
  64.0828280  94.3578780 138.3044730  72.7446370  80.1604150 146.4413630
  72.2419970  80.9009550 146.7807440  73.5603030  80.5488150 146.1250420
  71.0368380  85.4037330 139.8874990  70.0958520  85.4187560 140.0622680
  71.3512450  84.6173290 140.3335290  61.0150020  87.0856930 133.4478950
  61.7813290  86.9738290 134.0104380  61.0924710  86.3894900 132.7955720
  59.7096780  84.5182000 134.1311840  59.7900370  83.5709510 134.2429240
  60.6016530  84.8488880 134.2372500  73.0393960  92.5746180 141.5629250
  73.1641380  93.3977350 142.0353060  73.9059520  92.3636910 141.2153400
  60.5111490  94.6677390 141.2346380  61.2473970  94.1192850 141.5054950
  60.8952410  95.5333400 141.0952370  57.3956970  90.7350960 137.1087890
  56.4696750  90.9772100 137.0993300  57.8613400  91.5625220 136.9872640
  69.7834770  93.6883620 148.9816780  70.7356520  93.6041640 148.9317020
  69.6362990  94.3525330 149.6550570  57.2367580  86.3396920 149.3668010
  57.7406600  85.7604200 149.9384240  56.4975000  86.6237150 149.9044380
  64.1391200  89.0611110 132.9214300  64.0341840  88.4463460 133.6475680
  63.9715420  88.5377000 132.1377310  64.2905520  87.7467910 148.9003530
  63.5251190  88.3152910 148.8158200  64.4721480  87.4544120 148.0071760
  67.3793930  88.1231140 133.5256290  66.8304030  88.5700440 134.1699030
  68.0013190  87.6180390 134.0493960  71.4328870  89.4773240 149.4578550
  72.1738340  89.8149000 148.9546010  70.6701550  89.6465300 148.9048320
  61.2096470  83.0618610 148.2292570  60.6792930  82.5709560 147.6015910
  61.8784540  83.4902810 147.6950500  65.5596690  86.1059670 132.6698690
  66.0802350  85.3908690 132.3039840  66.2065090  86.7445540 132.9699200
  70.1074530  87.5288070 147.9933760  70.5215550  87.6833150 148.8424180
  69.1725530  87.6543290 148.1559540  70.5796700  84.8684230 149.9972910
  71.1617470  84.1136550 149.9093390  70.7558470  85.3991670 149.2204390
  61.6968770  80.0280980 148.3089860  61.6025640  79.4101730 147.5840730
  61.1166160  80.7547270 148.0819770  64.4630210  78.5854220 145.3417250
  64.0147510  78.6078480 144.4962800  63.8295410  78.1873240 145.9387550
  64.8689760  87.4808550 145.9629690  65.2877870  88.3241280 145.7905930
  63.9498390  87.6180590 145.7336470  67.2053660  85.2124730 147.3467530
  67.3249870  84.6165870 148.0862370  68.0647660  85.2494420 146.9268830
  69.5441560  85.7661920 145.9230040  69.0176780  86.2904540 145.3195180
  69.8872900  86.3989310 146.5539770  61.9427950  83.1555290 132.3679750
  61.7417010  82.2922650 132.7293090  61.7720000  83.0688650 131.4301350
  62.7197180  93.7861560 147.0787420  62.1818270  94.5107620 146.7596120
  62.9731140  93.3091900 146.2884760  63.9722430  81.7546080 148.6043350
  64.5622120  81.4461930 149.2921170  63.1542670  81.2825830 148.7603250
  68.7915860  81.3711890 148.8376370  68.1031380  80.7093430 148.7726360
  69.5121880  80.9250160 149.2824830  69.4216260  77.9663520 134.8966630
  69.7018550  77.1231420 135.2526050  68.6481990  78.1986630 135.4105380
  60.7410750  80.2555910 132.3557630  61.0436650  80.2623340 131.4476780
  61.4805340  79.9053770 132.8525290  65.5759390  95.0212770 147.3374070
  65.5018090  95.9247910 147.6446440  64.6738230  94.7024670 147.3096140
  63.9595680  79.1990530 133.3413830  63.6117680  78.5214520 132.7616280
  64.1608450  78.7380040 134.1557220  59.7640880  89.5598330 133.1887430
  60.2015750  90.1028000 133.8445010  60.2488610  88.7345280 133.1983770
  56.9786680  92.3487360 140.6407690  57.3089690  91.4808420 140.4086330
  57.4077680  92.5545880 141.4712650  61.5748600  90.6796370 138.3009660
  61.2744140  90.5561340 139.2013570  61.4686090  89.8204960 137.8925390
  57.4676890  93.2157950 143.3789320  57.0307880  93.3958750 144.2113470
  58.0354570  93.9732570 143.2371040  73.1039070  92.7174950 147.6666630
  72.5041060  92.7767510 146.9230550  73.2332970  91.7779930 147.7963480
  74.3440520  90.4592770 133.0036340  73.5133480  90.5269420 133.4743570
  74.5212350  91.3496890 132.7003200  73.7996980  87.2040250 135.5070540
  74.5615890  87.7736900 135.6130230  73.8151350  86.6367450 136.2778850
  57.3001320  85.7278180 139.7378200  56.6450160  85.4589820 139.0937900
  58.1379270  85.6182660 139.2880180  74.8056950  88.0590350 140.3512470
  75.1765780  87.2757670 139.9448440  75.4458880  88.7479450 140.1729770
  71.7890710  89.4426930 145.7642790  70.9750550  89.8724090 146.0268580
  72.1964910  90.0545340 145.1511840  73.8516150  87.4974620 132.6643060
  74.1264990  88.4053500 132.5362280  73.6626890  87.4337150 133.6005050
  70.2491760  80.5219470 133.9596690  70.6676640  80.3350450 133.1193350
  69.9427820  79.6698520 134.2699620  73.7481490  85.4343610 137.6572490
  73.3725090  84.6671540 137.2253780  73.0184610  85.8166310 138.1447420
  58.3377250  86.1130750 144.2781540  58.7050290  86.0258150 145.1577560
  57.7688070  85.3497300 144.1788400  73.1381110  84.5815130 147.2912010
  72.9067200  84.3527880 146.3909960  73.3985660  85.5014680 147.2456900
  57.8893250  83.0239840 148.1839960  56.9949300  82.9906600 148.5233670
  58.4290800  83.2226630 148.9491210  56.5139400  82.9377110 135.6803530
  55.6103480  83.2007310 135.5055190  56.9980020  83.2088280 134.9003490
  73.0232450  83.6601100 140.9579730  73.5469930  83.1663750 140.3269900
  73.6091870  83.7951460 141.7027300  73.2022170  83.7440970 144.4799280
  72.2524880  83.7104510 144.5944270  73.3835180  84.6541080 144.2449050
  59.0566610  81.9942650 133.5897910  59.7658310  81.5725870 133.1045190
  58.3406550  82.0617880 132.9581260  58.7040770  78.0481980 132.6300560
  59.4268900  78.5890920 132.9481780  58.9765290  77.7745400 131.7542100
  72.5132420  82.9174450 136.8972140  73.0091540  82.6845320 137.6821020
  72.3148490  82.0786290 136.4809780  58.3932960  77.2988170 142.5323180
  59.0409150  76.7485550 142.0918340  58.8134800  77.5531320 143.3538990
  73.9419580  81.5535400 139.4309820  73.8318860  81.3991440 140.3692090
  74.7027170  81.0256340 139.1885230  72.2885300  77.4929530 145.8892820
  72.9257520  78.1063670 146.2552010  72.4360190  77.5290190 144.9442050
  74.8309850  79.3843320 132.6715960  75.7559160  79.2524500 132.4634250
  74.8085640  79.4636140 133.6252410  74.9048340  80.1553980 135.2972670
  74.1099840  80.0899100 135.8265580  75.1091620  81.0904620 135.2858020
  71.8466760  94.1945530 139.2911060  72.4425830  93.8730100 138.6145480
  72.1044910  93.7217350 140.0824330  58.1464960  77.4543840 145.2748500
  57.7979780  77.9107660 146.0406680  57.8152660  76.5600970 145.3570930
  63.4535360  92.1823030 145.0411410  63.2126720  92.4497590 144.1541930
  64.3938000  92.3528760 145.0962270  65.6589780  78.6455720 148.7967920
  65.5978670  79.2377550 149.5463330  66.5990160  78.5381680 148.6518180
  68.2964340  78.3025780 148.4360210  68.9104750  78.6205070 147.7741290
  68.8413900  77.8174370 149.0556070  74.7139520  94.2017410 145.8422050
  74.2197800  94.5986280 145.1249180  74.1052810  93.5766620 146.2359330
  58.8185600  76.9820040 148.5499270  59.3668590  76.8008090 147.7865380
  58.8840910  76.1914150 149.0855580  59.5917360  93.5725690 146.5599470
  58.9977680  93.4410390 147.2989510  59.5841200  92.7363830 146.0941570
  69.0372380  76.8657920 144.7629500  68.1632220  77.1993030 144.5602430
  68.9283130  76.3931100 145.5881370  69.9444360  79.0728790 146.1471220
  69.6157720  78.2580550 145.7672950  70.8926660  79.0298600 146.0236910
  72.3978970  94.8440830 143.1208790  71.9381940  95.5956640 142.7466810
  71.7691430  94.1247300 143.0623590  59.2229590  90.9384070 145.5107510
  58.4963650  90.3189360 145.4433460  59.2838740  91.3324680 144.6405590
  62.8274690  93.1529070 142.2956920  63.3439710  92.5416430 141.7705180
  63.4772070  93.6557850 142.7867930  65.5670190  94.0437560 143.1225900
  65.8548000  93.7891860 142.2458910  66.0793410  93.4914920 143.7131470
  66.7847200  77.7827760 143.7022410  66.0018990  78.2573260 143.9819170
  66.4910130  76.8782590 143.5935590  71.3368270  78.4850860 141.7471500
  71.7776360  78.4295960 140.8993100  71.0675860  79.4008870 141.8181680
  73.2006840  78.1166100 139.7580320  73.1395240  77.1727320 139.6111340
  73.9798870  78.2246190 140.3033780  57.5059590  94.2558460 138.7204270
  57.3381630  93.6229140 139.4186160  56.6394100  94.4617860 138.3698460
  58.1287610  78.0875240 136.2236130  58.8866970  78.2004120 135.6500160
  57.6664780  78.9244440 136.1779560  69.1726400  76.8656960 140.4521510
  69.7755770  77.4377170 140.9270030  68.4319390  77.4296400 140.2295410
  72.3161000  77.2678520 135.7261790  72.5111630  78.1661970 135.9929220
  71.5290870  77.0365600 136.2194740  59.1122290  92.9491690 136.1654410
  58.5869910  93.3299720 135.4616370  59.0366870  93.5742460 136.8864120
  60.5012760  78.6139290 134.7638100  61.0305520  77.8269090 134.6346050
  61.1341080  79.2930480 134.9973630  62.6950600  78.3514430 137.8183490
  62.0653340  77.6501740 137.9853620  62.1555740  79.1118560 137.6016650
  73.8687610  94.5079230 137.4868350  74.0439800  93.8216970 136.8429270
  73.1709180  95.0326280 137.0945020  61.7115260  94.8974070 135.0403660
  62.4434080  94.6133350 134.4927550  61.9708930  94.6587350 135.9303040
  60.8730050  91.0138800 135.0449990  60.2438930  91.4823900 135.5935820
  60.9877880  90.1688020 135.4796180  68.3279770  85.0644460 121.1951190
  68.2473820  84.1499070 120.9242900  67.9144190  85.5611530 120.4890900
  66.4597810  86.8423480 123.0760460  65.6839910  86.3623920 123.3659030
  67.1110740  86.1629130 122.9016620  60.4763640  87.1543290 123.9536220
  59.6448520  86.8992000 124.3532730  61.0844620  87.2254060 124.6894140
  60.4564900  91.1883380 124.1494240  60.7592940  90.2981120 123.9704460
  61.2008490  91.7453600 123.9216490  58.8855590  82.1145180 117.7378610
  57.9972290  82.4561150 117.6358490  59.1696780  81.9145500 116.8459440
  58.0913470  80.1235190 125.4087240  57.9116310  79.2260940 125.6890000
  57.6893550  80.6707060 126.0834190  66.9311970  82.3251050 123.3099550
  67.3076790  81.4522930 123.1973220  66.8331480  82.6609750 122.4189990
  61.0616980  80.6976680 118.7716990  61.1683730  81.5980410 119.0785750
  60.1509340  80.6494650 118.4811640  70.7136090  79.8201490 120.2427890
  71.5345710  79.3298060 120.2853370  70.7470170  80.4099150 120.9959730
  58.7100140  82.6195690 124.0169580  59.3910250  82.8834060 124.6356980
  58.3948190  81.7796560 124.3507590  62.9024710  83.6663050 123.1042170
  63.4102930  84.1644020 123.7447190  63.4337950  82.8898250 122.9281530
  61.1860810  78.3061610 127.3705590  61.1879250  78.8234000 126.5651490
  60.3565120  77.8291790 127.3475520  67.5731900  88.4180920 118.8695490
  66.9549170  88.8830370 118.3058210  68.0855150  89.1108400 119.2865000
  62.4363660  87.9456790 125.5479090  62.1033040  88.5725710 126.1900160
  62.6130340  88.4718670 124.7680760  70.9497570  81.7601870 123.0155430
  70.2453140  82.0486760 123.5958540  71.3109730  82.5701980 122.6554990
  60.8676140  80.0171570 125.3776040  61.2092950  80.8613620 125.0829910
  59.9291950  80.1655310 125.4941380  61.6482760  89.9137590 127.3628270
  62.2656760  90.5888670 127.0812720  60.7875880  90.3225570 127.2715770
  56.9415100  89.1037450 116.2435120  56.5643080  89.5924550 115.5120020
  57.1988170  89.7762730 116.8741650  64.5504030  77.5053840 121.7020630
  64.8579010  76.9500730 120.9856130  63.6204730  77.6398300 121.5193620
  71.3964510  89.9437350 119.0818260  71.2860840  89.0011680 119.2067680
  71.3932760  90.3052990 119.9681020  66.9384790  85.5702670 118.4380750
  66.0114070  85.5040050 118.6669220  67.0909610  86.5082800 118.3235990
  66.9253870  81.8419670 115.4347910  65.9857540  82.0033630 115.5200370
  67.2437130  82.5605350 114.8883900  73.4466630  86.5238190 125.4126940
  72.6185260  86.5931280 124.9377070  74.0417110  87.1092500 124.9442770
  70.9682080  87.1322970 118.9416000  70.3494500  86.7942520 118.2942300
  70.9506530  86.4882730 119.6495190  70.4108640  83.3107510 126.3581810
  69.9979820  84.1361220 126.6121800  69.6784590  82.7252550 126.1658170
  62.5441430  86.0967410 121.2200480  62.1398430  85.3844660 120.7246380
  62.6304550  85.7520650 122.1088520  61.2570050  82.8710620 124.9999520
  61.8084640  82.9805960 124.2252770  61.7713560  83.2448220 125.7154750
  69.1446780  86.3709780 115.9488750  69.5840060  85.5332210 115.8026570
  69.8575200  87.0039180 116.0352890  60.9312780  86.3929980 128.6104860
  60.7920550  87.2652780 128.9792260  60.0494140  86.0502790 128.4652800
  72.7263920  77.6252590 114.2629790  72.4136580  77.7179420 115.1628860
  73.4876390  78.2033620 114.2127220  56.8831430  88.1627530 124.5275770
  56.9611850  88.2976300 123.5831490  57.4973110  87.4543420 124.7203890
  69.6238470  91.8062530 115.8331000  68.9303630  91.8039820 115.1733280
  70.3661330  91.3821850 115.4025170  69.1888400  93.4325240 119.9079490
  69.6445350  92.6514620 120.2218110  69.5280920  94.1432060 120.4520670
  73.9365210  82.3624090 130.2403930  73.3209480  82.8703760 129.7119390
  73.6161630  81.4622420 130.1829870  56.9390950  89.2041700 127.0670230
  57.1021990  88.7347060 126.2489600  57.4043400  88.6965260 127.7319070
  61.7109720  78.3347460 122.1030800  61.2677870  79.1157000 121.7715320
  62.2694710  78.6577350 122.8101740  65.9979530  81.2015980 127.7066120
  65.5358900  81.4099000 128.5186060  65.5957640  80.3875330 127.4036790
  70.9984040  82.4224930 128.8362780  70.1477630  82.1230680 129.1571850
  70.8385830  82.6666940 127.9246600  68.0933750  83.9226680 130.9361570
  68.4187160  83.0890430 130.5963800  68.8814080  84.4455200 131.0839900
  64.8268540  77.9558160 116.9836630  64.2022720  77.9518030 117.7089940
  64.7398660  77.0889120 116.5872600  63.7485620  78.8794790 123.9620400
  64.0457950  79.7857620 123.8812420  64.2971180  78.3913570 123.3479970
  61.5023940  83.4581030 119.8312050  61.2764860  83.2418200 120.7358670
  60.7216470  83.8909490 119.4858020  68.7321700  83.4644400 118.4302700
  68.1330590  84.1880200 118.2466320  69.2801310  83.4021180 117.6479150
  63.9423150  84.3566610 130.4972320  63.8466750  83.4161340 130.3472720
  64.7855130  84.5781680 130.1020390  67.3386570  82.1007940 120.4605980
  67.7316140  82.4180140 119.6474670  67.7003420  81.2219820 120.5750500
  59.0733690  80.7680280 128.6506100  58.6797080  81.6155490 128.8578880
  58.3852090  80.1306650 128.8414740  65.6478740  80.8515250 131.7202840
  64.9577060  80.6587450 132.3548930  66.3911040  81.1349890 132.2527140
  56.3750740  78.6908740 122.6836180  56.0863790  79.2611600 123.3961160
  57.1196500  78.2113190 123.0467410  56.5620970  82.6328860 113.8938900
  56.4795640  83.5759620 114.0353890  56.2104030  82.4903770 113.0151250
  67.9241710  84.6913690 124.5556760  67.1922830  85.2000500 124.9046860
  67.5266050  83.8743670 124.2545540  64.3619100  81.3667890 122.9609250
  64.3655160  80.9257840 122.1113790  65.2570220  81.6885220 123.0681070
  60.2121480  81.2494380 121.9203460  59.8721530  81.7269610 122.6770510
  59.4498800  80.7959500 121.5604560  64.4239250  82.3679970 115.9516010
  64.5452070  82.3266450 116.9001830  64.0387760  83.2304120 115.7962740
  68.3867620  80.1447370 123.9679700  68.4040360  80.5956020 124.8121550
  68.1383200  79.2453010 124.1813140  63.4360750  84.6781110 115.3499310
  62.8677650  84.2299360 114.7235220  64.1449750  85.0373890 114.8164460
  71.8138370  77.5579550 129.8066080  72.1384140  76.8269210 130.3324060
  71.8494880  77.2393190 128.9047070  58.5129930  88.5793130 129.2266040
  58.1284720  87.9386800 129.8249000  58.8242120  89.2829250 129.7960770
  64.6627070  85.4269670 124.7074660  65.0297200  84.9528240 125.4536000
  64.4732130  86.3011240 125.0483000  57.5267560  80.1713360 120.8368130
  57.2414480  79.8069030 121.6746750  57.4646420  79.4393820 120.2231270
  62.4526440  84.4678310 127.0258870  62.1483510  85.3470290 127.2509230
  63.4072900  84.5278100 127.0616310  60.9808230  88.6739300 117.6225720
  60.2070490  88.1336920 117.4624440  61.7102860  88.1545910 117.2843480
  71.7396210  87.6704660 123.4152110  72.4595330  88.1659950 123.0248220
  71.5378030  86.9922550 122.7705980  67.2006150  79.0642620 117.5581500
  66.3870760  78.5655790 117.4826810  67.0068100  79.9040870 117.1417850
  69.9154540  83.4362270 115.8543660  70.8034160  83.7479500 115.6795000
  69.8859630  82.5634520 115.4624240  65.9115130  89.6085960 116.5331830
  66.2530830  90.3528190 116.0375150  65.0827840  89.9217080 116.8956660
  58.5090170  85.3081050 128.1730230  58.1505110  85.9734900 128.7603570
  58.2144730  84.4764600 128.5442850  61.7103290  85.7665290 131.0569780
  61.4103430  85.9122470 130.1597600  62.4814530  85.2070580 130.9643170
  72.1868810  84.7474110 115.3223520  72.1032530  85.1788330 114.4719960
  72.9063000  85.2072460 115.7550340  73.2642950  87.2041630 128.3993490
  72.5391140  87.7970410 128.2022880  73.7918410  87.1965170 127.6006860
  64.8805820  89.6899490 119.3047750  65.5676950  90.2368700 119.6855340
  64.0938240  90.2340220 119.3397360  57.0198220  85.3072310 114.7964830
  57.8893070  85.5897110 115.0800750  56.5288540  86.1208180 114.6813640
  64.1833030  86.6945520 118.9173110  64.6395810  87.5050770 119.1433300
  63.8321240  86.3768660 119.7491600  60.0844810  77.0383170 119.3895630
  59.9559440  77.0301070 120.3380550  59.2606830  77.3766260 119.0386640
  57.3869470  94.5199690 115.3626460  57.7467110  95.1189030 114.7083730
  57.2461810  95.0659580 116.1361490  57.0838740  78.7974290 128.8502330
  56.3697260  78.9971210 129.4554940  57.5033780  78.0213860 129.2217130
  71.1869690  88.4104770 116.2496160  70.8991390  88.8717460 117.0374040
  71.9821860  87.9502540 116.5180380  57.3711330  92.7854550 129.8368860
  57.4802450  91.8449290 129.6964250  56.7191890  93.0509300 129.1882590
  63.4038090  91.9030890 116.1800130  63.3948190  92.6360580 115.5644640
  62.4836450  91.6562470 116.2727090  59.0044730  87.1245780 116.9246890
  58.3972680  87.8644680 116.9342190  59.4794080  87.2145140 116.0985090
  68.5777520  81.2896600 126.6003780  68.9458340  80.4691810 126.9283350
  67.7175720  81.3498490 127.0159430  71.9439550  80.2453540 117.4091340
  71.3152710  80.3499210 116.6949570  71.4491470  80.4650320 118.1985220
  66.3897690  91.9659130 114.8425320  66.4909670  91.7623120 113.9127300
  65.4899430  91.7117410 115.0473100  63.9123580  82.5239490 118.8249220
  63.2039730  82.9925830 119.2662830  64.1968060  81.8661500 119.4594410
  67.9439010  79.2490150 120.2645010  67.8206790  79.2676280 119.3154520
  68.8923570  79.2969090 120.3843410  62.1158600  80.8324570 116.1999930
  62.9649130  81.2694720 116.1340120  61.7489870  81.1444830 117.0271990
  72.7446370  80.1604150 127.6670140  72.2419970  80.9009550 128.0063950
  73.5603030  80.5488150 127.3506930  71.0368380  85.4037330 121.1131500
  70.0958520  85.4187560 121.2879190  71.3512450  84.6173290 121.5591800
  61.0150020  87.0856930 114.6735460  61.7813290  86.9738290 115.2360890
  61.0924710  86.3894900 114.0212230  59.7096780  84.5182000 115.3568350
  59.7900370  83.5709510 115.4685750  60.6016530  84.8488880 115.4629010
  73.0393960  92.5746180 122.7885760  73.1641380  93.3977350 123.2609570
  73.9059520  92.3636910 122.4409910  57.3956970  90.7350960 118.3344400
  56.4696750  90.9772100 118.3249810  57.8613400  91.5625220 118.2129150
  59.5169770  93.8523460 131.6488470  60.3182500  94.1735510 132.0623870
  59.0021590  93.4919040 132.3708380  63.6213800  93.8407700 114.2828460
  64.4142410  94.1296530 113.8310250  63.1018150  93.4099870 113.6040940
  68.3534400  89.9603330 131.5963880  67.7472560  89.9834930 130.8559630
  68.0488510  89.2286370 132.1331130  57.2367580  86.3396920 130.5924520
  57.7406600  85.7604200 131.1640750  56.4975000  86.6237150 131.1300890
  64.1391200  89.0611110 114.1470810  64.0341840  88.4463460 114.8732190
  63.9715420  88.5377000 113.3633820  67.3793930  88.1231140 114.7512800
  66.8304030  88.5700440 115.3955540  68.0013190  87.6180390 115.2750470
  59.2690660  84.4826510 131.4874590  59.3096000  84.1840380 132.3959820
  60.1236160  84.8834120 131.3282110  63.0469050  87.0822060 116.6478100
  63.4685470  86.9161930 117.4909490  63.1719890  86.2722290 116.1533240
  61.2096470  83.0618610 129.4549080  60.6792930  82.5709560 128.8272420
  61.8784540  83.4902810 128.9207010  65.5596690  86.1059670 113.8955200
  66.0802350  85.3908690 113.5296350  66.2065090  86.7445540 114.1955710
  70.5796700  84.8684230 131.2229420  71.1617470  84.1136550 131.1349900
  70.7558470  85.3991670 130.4460900  61.6968770  80.0280980 129.5346370
  61.6025640  79.4101730 128.8097240  61.1166160  80.7547270 129.3076280
  64.4630210  78.5854220 126.5673760  64.0147510  78.6078480 125.7219310
  63.8295410  78.1873240 127.1644060  61.9427950  83.1555290 113.5936260
  61.7417010  82.2922650 113.9549600  61.7720000  83.0688650 112.6557860
  63.9722430  81.7546080 129.8299860  64.5622120  81.4461930 130.5177680
  63.1542670  81.2825830 129.9859760  68.7915860  81.3711890 130.0632880
  68.1031380  80.7093430 129.9982870  69.5121880  80.9250160 130.5081340
  69.4216260  77.9663520 116.1223140  69.7018550  77.1231420 116.4782560
  68.6481990  78.1986630 116.6361890  60.7410750  80.2555910 113.5814140
  61.0436650  80.2623340 112.6733290  61.4805340  79.9053770 114.0781800
  63.9595680  79.1990530 114.5670340  63.6117680  78.5214520 113.9872790
  64.1608450  78.7380040 115.3813730  66.1244720  94.1871280 116.1856940
  67.0195510  94.5256250 116.2075700  66.1562350  93.4650690 115.5581220
  59.7640880  89.5598330 114.4143940  60.2015750  90.1028000 115.0701520
  60.2488610  88.7345280 114.4240280  56.9786680  92.3487360 121.8664200
  57.3089690  91.4808420 121.6342840  57.4077680  92.5545880 122.6969160
  61.5748600  90.6796370 119.5266170  61.2744140  90.5561340 120.4270080
  61.4686090  89.8204960 119.1181900  57.4676890  93.2157950 124.6045830
  57.0307880  93.3958750 125.4369980  58.0354570  93.9732570 124.4627550
  73.8516150  87.4974620 113.8899570  74.1264990  88.4053500 113.7618790
  73.6626890  87.4337150 114.8261560  70.2491760  80.5219470 115.1853200
  70.6676640  80.3350450 114.3449860  69.9427820  79.6698520 115.4956130
  58.3377250  86.1130750 125.5038050  58.7050290  86.0258150 126.3834070
  57.7688070  85.3497300 125.4044910  73.1381110  84.5815130 128.5168520
  72.9067200  84.3527880 127.6166470  73.3985660  85.5014680 128.4713410
  57.8893250  83.0239840 129.4096470  56.9949300  82.9906600 129.7490180
  58.4290800  83.2226630 130.1747720  71.5769180  79.8071560 131.2948220
  72.4539360  79.8154960 131.6782220  71.5890020  79.0702400 130.6840570
  56.5139400  82.9377110 116.9060040  55.6103480  83.2007310 116.7311700
  56.9980020  83.2088280 116.1260000  73.0232450  83.6601100 122.1836240
  73.5469930  83.1663750 121.5526410  73.6091870  83.7951460 122.9283810
  73.2022170  83.7440970 125.7055790  72.2524880  83.7104510 125.8200780
  73.3835180  84.6541080 125.4705560  59.0566610  81.9942650 114.8154420
  59.7658310  81.5725870 114.3301700  58.3406550  82.0617880 114.1837770
  58.7040770  78.0481980 113.8557070  59.4268900  78.5890920 114.1738290
  58.9765290  77.7745400 112.9798610  72.5132420  82.9174450 118.1228650
  73.0091540  82.6845320 118.9077530  72.3148490  82.0786290 117.7066290
  58.3932960  77.2988170 123.7579690  59.0409150  76.7485550 123.3174850
  58.8134800  77.5531320 124.5795500  73.9419580  81.5535400 120.6566330
  73.8318860  81.3991440 121.5948600  74.7027170  81.0256340 120.4141740
  72.2885300  77.4929530 127.1149330  72.9257520  78.1063670 127.4808520
  72.4360190  77.5290190 126.1698560  74.8309850  79.3843320 113.8972470
  75.7559160  79.2524500 113.6890760  74.8085640  79.4636140 114.8508920
  74.9048340  80.1553980 116.5229180  74.1099840  80.0899100 117.0522090
  75.1091620  81.0904620 116.5114530  71.8466760  94.1945530 120.5167570
  72.4425830  93.8730100 119.8401990  72.1044910  93.7217350 121.3080840
  58.1464960  77.4543840 126.5005010  57.7979780  77.9107660 127.2663190
  57.8152660  76.5600970 126.5827440  59.7529330  90.6263440 130.6658200
  59.7098960  90.2556350 131.5472660  59.8840340  91.5641010 130.8060020
  65.6589780  78.6455720 130.0224430  65.5978670  79.2377550 130.7719840
  66.5990160  78.5381680 129.8774690  68.2964340  78.3025780 129.6616720
  68.9104750  78.6205070 128.9997800  68.8413900  77.8174370 130.2812580
  58.8185600  76.9820040 129.7755780  59.3668590  76.8008090 129.0121890
  58.8840910  76.1914150 130.3112090  59.5917360  93.5725690 127.7855980
  58.9977680  93.4410390 128.5246020  59.5841200  92.7363830 127.3198080
  69.0372380  76.8657920 125.9886010  68.1632220  77.1993030 125.7858940
  68.9283130  76.3931100 126.8137880  69.9444360  79.0728790 127.3727730
  69.6157720  78.2580550 126.9929460  70.8926660  79.0298600 127.2493420
  59.2229590  90.9384070 126.7364020  58.4963650  90.3189360 126.6689970
  59.2838740  91.3324680 125.8662100  66.7847200  77.7827760 124.9278920
  66.0018990  78.2573260 125.2075680  66.4910130  76.8782590 124.8192100
  71.3368270  78.4850860 122.9728010  71.7776360  78.4295960 122.1249610
  71.0675860  79.4008870 123.0438190  73.2006840  78.1166100 120.9836830
  73.1395240  77.1727320 120.8367850  73.9798870  78.2246190 121.5290290
  58.1287610  78.0875240 117.4492640  58.8866970  78.2004120 116.8756670
  57.6664780  78.9244440 117.4036070  64.6701420  80.2014510 120.4394950
  63.8575930  79.8271400 120.0990830  65.1743060  79.4459590 120.7416140
  69.1726400  76.8656960 121.6778020  69.7755770  77.4377170 122.1526540
  68.4319390  77.4296400 121.4551920  72.3161000  77.2678520 116.9518300
  72.5111630  78.1661970 117.2185730  71.5290870  77.0365600 117.4451250
  60.5012760  78.6139290 115.9894610  61.0305520  77.8269090 115.8602560
  61.1341080  79.2930480 116.2230140  62.6950600  78.3514430 119.0440000
  62.0653340  77.6501740 119.2110130  62.1555740  79.1118560 118.8273160
  62.8206160  77.6298410 131.4792490  62.5390430  78.1332010 130.7153310
  63.2025860  76.8320160 131.1134620  60.8730050  91.0138800 116.2706500
  60.2438930  91.4823900 116.8192330  60.9877880  90.1688020 116.7052690
  69.4221620  77.0451990 132.0572960  69.3087070  77.3646600 132.9524480
  70.2391360  77.4464500 131.7610240  60.4763640  87.1543290 105.1792730
  59.6448520  86.8992000 105.5789240  61.0844620  87.2254060 105.9150650
  60.4564900  91.1883380 105.3750750  60.7592940  90.2981120 105.1960970
  61.2008490  91.7453600 105.1473000  56.8488600  84.7150830 104.8474820
  57.4204710  83.9473030 104.8478460  56.8490140  85.0139590 103.9381430
  65.9006800  89.5180670 104.3087130  65.8315080  88.5770610 104.1476260
  66.6626660  89.6082080 104.8809700  58.0913470  80.1235190 106.6343750
  57.9116310  79.2260940 106.9146510  57.6893550  80.6707060 107.3090700
  58.7100140  82.6195690 105.2426090  59.3910250  82.8834060 105.8613490
  58.3948190  81.7796560 105.5764100  62.9024710  83.6663050 104.3298680
  63.4102930  84.1644020 104.9703700  63.4337950  82.8898250 104.1538040
  75.0035640  81.8368240 108.0328030  74.2987810  82.2249950 107.5143140
  75.2693560  82.5318530 108.6348960  62.4363660  87.9456790 106.7735600
  62.1033040  88.5725710 107.4156670  62.6130340  88.4718670 105.9937270
  61.6482760  89.9137590 108.5884780  62.2656760  90.5888670 108.3069230
  60.7875880  90.3225570 108.4972280  56.9415100  89.1037450  97.4691630
  56.5643080  89.5924550  96.7376530  57.1988170  89.7762730  98.0998160
  62.5441430  86.0967410 102.4456990  62.1398430  85.3844660 101.9502890
  62.6304550  85.7520650 103.3345030  63.0123130  89.7834970 104.6096200
  62.7151420  89.1780440 103.9303980  63.9622950  89.8212280 104.4985560
  61.2570050  82.8710620 106.2256030  61.8084640  82.9805960 105.4509280
  61.7713560  83.2448220 106.9411260  71.1008740  93.3566840 108.2719300
  70.6239300  94.1639030 108.0791910  70.4170530  92.7045170 108.4245510
  62.1041560  89.5216660 111.2604000  61.2070090  89.7456630 111.5077400
  62.1294430  89.6451600 110.3115400  60.9312780  86.3929980 109.8361370
  60.7920550  87.2652780 110.2048770  60.0494140  86.0502790 109.6909310
  62.7293130  92.3351680 112.0446520  62.7008560  92.7394630 111.1774950
  62.5658100  91.4062040 111.8818120  59.2446060  84.9912390  99.9463640
  59.1243660  85.7174480  99.3344910  58.9346950  84.2215300  99.4691550
  56.8831430  88.1627530 105.7532280  56.9611850  88.2976300 104.8088000
  57.4973110  87.4543420 105.9460400  58.1279060  89.8627720 102.1638460
  57.7207140  90.0042310 101.3092060  59.0192070  89.5787880 101.9609670
  74.0841200  90.3091630 110.5010700  74.2104260  90.0703510 109.5827880
  74.1262580  89.4776170 110.9732780  67.9457940  94.0119630 109.0705510
  68.4602610  93.9227640 109.8727940  67.1027020  94.3579330 109.3633420
  73.9365210  82.3624090 111.4660440  73.3209480  82.8703760 110.9375900
  73.6161630  81.4622420 111.4086380  56.9390950  89.2041700 108.2926740
  57.1021990  88.7347060 107.4746110  57.4043400  88.6965260 108.9575580
  65.9979530  81.2015980 108.9322630  65.5358900  81.4099000 109.7442570
  65.5957640  80.3875330 108.6293300  68.0933750  83.9226680 112.1618080
  68.4187160  83.0890430 111.8220310  68.8814080  84.4455200 112.3096410
  61.5023940  83.4581030 101.0568560  61.2764860  83.2418200 101.9615180
  60.7216470  83.8909490 100.7114530  63.9423150  84.3566610 111.7228830
  63.8466750  83.4161340 111.5729230  64.7855130  84.5781680 111.3276900
  59.0733690  80.7680280 109.8762610  58.6797080  81.6155490 110.0835390
  58.3852090  80.1306650 110.0671250  65.6478740  80.8515250 112.9459350
  64.9577060  80.6587450 113.5805440  66.3911040  81.1349890 113.4783650
  56.3750740  78.6908740 103.9092690  56.0863790  79.2611600 104.6217670
  57.1196500  78.2113190 104.2723920  60.2121480  81.2494380 103.1459970
  59.8721530  81.7269610 103.9027020  59.4498800  80.7959500 102.7861070
  58.5129930  88.5793130 110.4522550  58.1284720  87.9386800 111.0505510
  58.8242120  89.2829250 111.0217280  64.6627070  85.4269670 105.9331170
  65.0297200  84.9528240 106.6792510  64.4732130  86.3011240 106.2739510
  57.5267560  80.1713360 102.0624640  57.2414480  79.8069030 102.9003260
  57.4646420  79.4393820 101.4487780  62.4526440  84.4678310 108.2515380
  62.1483510  85.3470290 108.4765740  63.4072900  84.5278100 108.2872820
  60.9808230  88.6739300  98.8482230  60.2070490  88.1336920  98.6880950
  61.7102860  88.1545910  98.5099990  67.1215010  87.7413720 110.5277620
  67.0552320  86.8209390 110.2735210  66.4920150  87.8389160 111.2422260
  61.0245630  88.3419680 102.4861040  61.5424300  87.5387940 102.4317930
  60.5729650  88.2798820 103.3277870  58.5090170  85.3081050 109.3986740
  58.1505110  85.9734900 109.9860080  58.2144730  84.4764600 109.7699360
  61.7103290  85.7665290 112.2826290  61.4103430  85.9122470 111.3854110
  62.4814530  85.2070580 112.1899680  67.0531740  90.5634290 110.2781420
  67.0676280  89.6315250 110.0600330  66.3456840  90.6494050 110.9171190
  64.8805820  89.6899490 100.5304260  65.5676950  90.2368700 100.9111850
  64.0938240  90.2340220 100.5653870  66.4865640  92.2051860 107.3721920
  67.1307860  92.4111240 108.0495340  66.8495080  91.4440260 106.9192770
  69.5335340  91.0079110 109.2935430  69.8691580  91.5945800 109.9713350
  68.6135680  90.8771820 109.5233220  57.0838740  78.7974290 110.0758840
  56.3697260  78.9971210 110.6811450  57.5033780  78.0213860 110.4473640
  57.3711330  92.7854550 111.0625370  57.4802450  91.8449290 110.9220760
  56.7191890  93.0509300 110.4139100  65.3623920  91.0570440 112.4623490
  65.0420790  90.3379680 113.0069180  64.6882280  91.7325510 112.5359550
  63.4038090  91.9030890  97.4056640  63.3948190  92.6360580  96.7901150
  62.4836450  91.6562470  97.4983600  59.0044730  87.1245780  98.1503400
  58.3972680  87.8644680  98.1598700  59.4794080  87.2145140  97.3241600
  65.5379510  83.9436190 108.0498260  66.0364760  84.4182010 108.7150110
  65.6802460  83.0199710 108.2568290  72.7446370  80.1604150 108.8926650
  72.2419970  80.9009550 109.2320460  73.5603030  80.5488150 108.5763440
  57.3956970  90.7350960  99.5600910  56.4696750  90.9772100  99.5506320
  57.8613400  91.5625220  99.4385660  59.5169770  93.8523460 112.8744980
  60.3182500  94.1735510 113.2880380  59.0021590  93.4919040 113.5964890
  68.3534400  89.9603330 112.8220390  67.7472560  89.9834930 112.0816140
  68.0488510  89.2286370 113.3587640  64.2905520  87.7467910 111.3516550
  63.5251190  88.3152910 111.2671220  64.4721480  87.4544120 110.4584780
  71.4328870  89.4773240 111.9091570  72.1738340  89.8149000 111.4059030
  70.6701550  89.6465300 111.3561340  59.2690660  84.4826510 112.7131100
  59.3096000  84.1840380 113.6216330  60.1236160  84.8834120 112.5538620
  61.2096470  83.0618610 110.6805590  60.6792930  82.5709560 110.0528930
  61.8784540  83.4902810 110.1463520  70.1074530  87.5288070 110.4446780
  70.5215550  87.6833150 111.2937200  69.1725530  87.6543290 110.6072560
  70.5796700  84.8684230 112.4485930  71.1617470  84.1136550 112.3606410
  70.7558470  85.3991670 111.6717410  61.6968770  80.0280980 110.7602880
  61.6025640  79.4101730 110.0353750  61.1166160  80.7547270 110.5332790
  64.8689760  87.4808550 108.4142710  65.2877870  88.3241280 108.2418950
  63.9498390  87.6180590 108.1849490  67.2053660  85.2124730 109.7980550
  67.3249870  84.6165870 110.5375390  68.0647660  85.2494420 109.3781850
  62.7197180  93.7861560 109.5300440  62.1818270  94.5107620 109.2109140
  62.9731140  93.3091900 108.7397780  63.9722430  81.7546080 111.0556370
  64.5622120  81.4461930 111.7434190  63.1542670  81.2825830 111.2116270
  68.7915860  81.3711890 111.2889390  68.1031380  80.7093430 111.2239380
  69.5121880  80.9250160 111.7337850  65.5759390  95.0212770 109.7887090
  65.5018090  95.9247910 110.0959460  64.6738230  94.7024670 109.7609160
  59.7640880  89.5598330  95.6400450  60.2015750  90.1028000  96.2958030
  60.2488610  88.7345280  95.6496790  56.9786680  92.3487360 103.0920710
  57.3089690  91.4808420 102.8599350  57.4077680  92.5545880 103.9225670
  61.5748600  90.6796370 100.7522680  61.2744140  90.5561340 101.6526590
  61.4686090  89.8204960 100.3438410  57.4676890  93.2157950 105.8302340
  57.0307880  93.3958750 106.6626490  58.0354570  93.9732570 105.6884060
  73.1039070  92.7174950 110.1179650  72.5041060  92.7767510 109.3743570
  73.2332970  91.7779930 110.2476500  57.3001320  85.7278180 102.1891220
  56.6450160  85.4589820 101.5450920  58.1379270  85.6182660 101.7393200
  58.3377250  86.1130750 106.7294560  58.7050290  86.0258150 107.6090580
  57.7688070  85.3497300 106.6301420  57.8893250  83.0239840 110.6352980
  56.9949300  82.9906600 110.9746690  58.4290800  83.2226630 111.4004230
  71.5769180  79.8071560 112.5204730  72.4539360  79.8154960 112.9038730
  71.5890020  79.0702400 111.9097080  59.7529330  90.6263440 111.8914710
  59.7098960  90.2556350 112.7729170  59.8840340  91.5641010 112.0316530
  63.4535360  92.1823030 107.4924430  63.2126720  92.4497590 106.6054950
  64.3938000  92.3528760 107.5475290  65.6589780  78.6455720 111.2480940
  65.5978670  79.2377550 111.9976350  66.5990160  78.5381680 111.1031200
  68.2964340  78.3025780 110.8873230  68.9104750  78.6205070 110.2254310
  68.8413900  77.8174370 111.5069090  74.7139520  94.2017410 108.2935070
  74.2197800  94.5986280 107.5762200  74.1052810  93.5766620 108.6872350
  59.5917360  93.5725690 109.0112490  58.9977680  93.4410390 109.7502530
  59.5841200  92.7363830 108.5454590  59.2229590  90.9384070 107.9620530
  58.4963650  90.3189360 107.8946480  59.2838740  91.3324680 107.0918610
  62.8274690  93.1529070 104.7469940  63.3439710  92.5416430 104.2218200
  63.4772070  93.6557850 105.2380950  65.5670190  94.0437560 105.5738920
  65.8548000  93.7891860 104.6971930  66.0793410  93.4914920 106.1644490
  65.6342550  94.9653660 112.9407120  66.5609860  94.7297930 112.9843080
  65.6192980  95.7925660 112.4593150  62.8206160  77.6298410 112.7049000
  62.5390430  78.1332010 111.9409820  63.2025860  76.8320160 112.3391130
  60.8730050  91.0138800  97.4963010  60.2438930  91.4823900  98.0448840
  60.9877880  90.1688020  97.9309200  69.4221620  77.0451990 113.2829470
  69.3087070  77.3646600 114.1780990  70.2391360  77.4464500 112.9866750
  58.8855590  82.1145180  80.1891630  57.9972290  82.4561150  80.0871510
  59.1696780  81.9145500  79.2972460  58.0913470  80.1235190  87.8600260
  57.9116310  79.2260940  88.1403020  57.6893550  80.6707060  88.5347210
  56.9415100  89.1037450  78.6948140  56.5643080  89.5924550  77.9633040
  57.1988170  89.7762730  79.3254670  72.7263920  77.6252590  76.7142810
  72.4136580  77.7179420  77.6141880  73.4876390  78.2033620  76.6640240
  58.1279060  89.8627720  83.3894970  57.7207140  90.0042310  82.5348570
  59.0192070  89.5787880  83.1866180  56.3750740  78.6908740  85.1349200
  56.0863790  79.2611600  85.8474180  57.1196500  78.2113190  85.4980430
  56.5620970  82.6328860  76.3451920  56.4795640  83.5759620  76.4866910
  56.2104030  82.4903770  75.4664270  63.4360750  84.6781110  77.8012330
  62.8677650  84.2299360  77.1748240  64.1449750  85.0373890  77.2677480
  57.5267560  80.1713360  83.2881150  57.2414480  79.8069030  84.1259770
  57.4646420  79.4393820  82.6744290  60.9808230  88.6739300  80.0738740
  60.2070490  88.1336920  79.9137460  61.7102860  88.1545910  79.7356500
  57.0198220  85.3072310  77.2477850  57.8893070  85.5897110  77.5313770
  56.5288540  86.1208180  77.1326660  57.3869470  94.5199690  77.8139480
  57.7467110  95.1189030  77.1596750  57.2461810  95.0659580  78.5874510
  57.3711330  92.7854550  92.2881880  57.4802450  91.8449290  92.1477270
  56.7191890  93.0509300  91.6395610  59.0044730  87.1245780  79.3759910
  58.3972680  87.8644680  79.3855210  59.4794080  87.2145140  78.5498110
  62.1158600  80.8324570  78.6512950  62.9649130  81.2694720  78.5853140
  61.7489870  81.1444830  79.4785010  59.7096780  84.5182000  77.8081370
  59.7900370  83.5709510  77.9198770  60.6016530  84.8488880  77.9142030
  57.3956970  90.7350960  80.7857420  56.4696750  90.9772100  80.7762830
  57.8613400  91.5625220  80.6642170  59.5169770  93.8523460  94.1001490
  60.3182500  94.1735510  94.5136890  59.0021590  93.4919040  94.8221400
  61.9427950  83.1555290  76.0449280  61.7417010  82.2922650  76.4062620
  61.7720000  83.0688650  75.1070880  60.7410750  80.2555910  76.0327160
  61.0436650  80.2623340  75.1246310  61.4805340  79.9053770  76.5294820
  63.9595680  79.1990530  77.0183360  63.6117680  78.5214520  76.4385810
  64.1608450  78.7380040  77.8326750  59.7640880  89.5598330  76.8656960
  60.2015750  90.1028000  77.5214540  60.2488610  88.7345280  76.8753300
  56.9786680  92.3487360  84.3177220  57.3089690  91.4808420  84.0855860
  57.4077680  92.5545880  85.1482180  57.4676890  93.2157950  87.0558850
  57.0307880  93.3958750  87.8883000  58.0354570  93.9732570  86.9140570
  57.3001320  85.7278180  83.4147730  56.6450160  85.4589820  82.7707430
  58.1379270  85.6182660  82.9649710  56.5139400  82.9377110  79.3573060
  55.6103480  83.2007310  79.1824720  56.9980020  83.2088280  78.5773020
  59.0566610  81.9942650  77.2667440  59.7658310  81.5725870  76.7814720
  58.3406550  82.0617880  76.6350790  58.7040770  78.0481980  76.3070090
  59.4268900  78.5890920  76.6251310  58.9765290  77.7745400  75.4311630
  59.7529330  90.6263440  93.1171220  59.7098960  90.2556350  93.9985680
  59.8840340  91.5641010  93.2573040  59.5917360  93.5725690  90.2369000
  58.9977680  93.4410390  90.9759040  59.5841200  92.7363830  89.7711100
  58.1287610  78.0875240  79.9005660  58.8866970  78.2004120  79.3269690
  57.6664780  78.9244440  79.8549090  72.3161000  77.2678520  79.4031320
  72.5111630  78.1661970  79.6698750  71.5290870  77.0365600  79.8964270
  60.5012760  78.6139290  78.4407630  61.0305520  77.8269090  78.3115580
  61.1341080  79.2930480  78.6743160  58.0913470  80.1235190  69.0856770
  57.9116310  79.2260940  69.3659530  57.6893550  80.6707060  69.7603720
  75.0035640  81.8368240  70.4841050  74.2987810  82.2249950  69.9656160
  75.2693560  82.5318530  71.0861980  61.1860810  78.3061610  71.0475120
  61.1879250  78.8234000  70.2421020  60.3565120  77.8291790  71.0245050
  60.8676140  80.0171570  69.0545570  61.2092950  80.8613620  68.7599440
  59.9291950  80.1655310  69.1710910  65.9979530  81.2015980  71.3835650
  65.5358900  81.4099000  72.1955590  65.5957640  80.3875330  71.0806320
  70.9984040  82.4224930  72.5132310  70.1477630  82.1230680  72.8341380
  70.8385830  82.6666940  71.6016130  68.0933750  83.9226680  74.6131100
  68.4187160  83.0890430  74.2733330  68.8814080  84.4455200  74.7609430
  59.0733690  80.7680280  72.3275630  58.6797080  81.6155490  72.5348410
  58.3852090  80.1306650  72.5184270  65.6478740  80.8515250  75.3972370
  64.9577060  80.6587450  76.0318460  66.3911040  81.1349890  75.9296670
  60.2121480  81.2494380  65.5972990  59.8721530  81.7269610  66.3540040
  59.4498800  80.7959500  65.2374090  71.8138370  77.5579550  73.4835610
  72.1384140  76.8269210  74.0093590  71.8494880  77.2393190  72.5816600
  58.5090170  85.3081050  71.8499760  58.1505110  85.9734900  72.4373100
  58.2144730  84.4764600  72.2212380  57.0838740  78.7974290  72.5271860
  56.3697260  78.9971210  73.1324470  57.5033780  78.0213860  72.8986660
  57.3711330  92.7854550  73.5138390  57.4802450  91.8449290  73.3733780
  56.7191890  93.0509300  72.8652120  68.5777520  81.2896600  70.2773310
  68.9458340  80.4691810  70.6052880  67.7175720  81.3498490  70.6928960
  72.7446370  80.1604150  71.3439670  72.2419970  80.9009550  71.6833480
  73.5603030  80.5488150  71.0276460  59.5169770  93.8523460  75.3258000
  60.3182500  94.1735510  75.7393400  59.0021590  93.4919040  76.0477910
  59.2690660  84.4826510  75.1644120  59.3096000  84.1840380  76.0729350
  60.1236160  84.8834120  75.0051640  61.2096470  83.0618610  73.1318610
  60.6792930  82.5709560  72.5041950  61.8784540  83.4902810  72.5976540
  61.6968770  80.0280980  73.2115900  61.6025640  79.4101730  72.4866770
  61.1166160  80.7547270  72.9845810  63.9722430  81.7546080  73.5069390
  64.5622120  81.4461930  74.1947210  63.1542670  81.2825830  73.6629290
  68.7915860  81.3711890  73.7402410  68.1031380  80.7093430  73.6752400
  69.5121880  80.9250160  74.1850870  57.8893250  83.0239840  73.0866000
  56.9949300  82.9906600  73.4259710  58.4290800  83.2226630  73.8517250
  71.5769180  79.8071560  74.9717750  72.4539360  79.8154960  75.3551750
  71.5890020  79.0702400  74.3610100  72.2885300  77.4929530  70.7918860
  72.9257520  78.1063670  71.1578050  72.4360190  77.5290190  69.8468090
  58.1464960  77.4543840  70.1774540  57.7979780  77.9107660  70.9432720
  57.8152660  76.5600970  70.2596970  65.6589780  78.6455720  73.6993960
  65.5978670  79.2377550  74.4489370  66.5990160  78.5381680  73.5544220
  68.2964340  78.3025780  73.3386250  68.9104750  78.6205070  72.6767330
  68.8413900  77.8174370  73.9582110  58.8185600  76.9820040  73.4525310
  59.3668590  76.8008090  72.6891420  58.8840910  76.1914150  73.9881620
  59.5917360  93.5725690  71.4625510  58.9977680  93.4410390  72.2015550
  59.5841200  92.7363830  70.9967610  69.0372380  76.8657920  69.6655540
  68.1632220  77.1993030  69.4628470  68.9283130  76.3931100  70.4907410
  69.9444360  79.0728790  71.0497260  69.6157720  78.2580550  70.6698990
  70.8926660  79.0298600  70.9262950  62.8206160  77.6298410  75.1562020
  62.5390430  78.1332010  74.3922840  63.2025860  76.8320160  74.7904150
  69.4221620  77.0451990  75.7342490  69.3087070  77.3646600  76.6294010
  70.2391360  77.4464500  75.4379770  73.8516150  87.4974620  38.7925610
  74.1264990  88.4053500  38.6644830  73.6626890  87.4337150  39.7287600
  73.8687610  94.5079230  43.6150900  74.0439800  93.8216970  42.9711820
  73.1709180  95.0326280  43.2227570  70.7136090  79.8201490  26.3710440
  71.5345710  79.3298060  26.4135920  70.7470170  80.4099150  27.1242280
  75.0035640  81.8368240  32.9354070  74.2987810  82.2249950  32.4169180
  75.2693560  82.5318530  33.5375000  61.1860810  78.3061610  33.4988140
  61.1879250  78.8234000  32.6934040  60.3565120  77.8291790  33.4758070
  62.4363660  87.9456790  31.6761640  62.1033040  88.5725710  32.3182710
  62.6130340  88.4718670  30.8963310  70.9497570  81.7601870  29.1437980
  70.2453140  82.0486760  29.7241090  71.3109730  82.5701980  28.7837540
  61.6482760  89.9137590  33.4910820  62.2656760  90.5888670  33.2095270
  60.7875880  90.3225570  33.3998320  74.0184490  81.2056660  29.5347190
  73.0709400  81.2395640  29.6662620  74.3434480  82.0195610  29.9196550
  64.5504030  77.5053840  27.8303180  64.8579010  76.9500730  27.1138680
  63.6204730  77.6398300  27.6476170  70.4108640  83.3107510  32.4864360
  69.9979820  84.1361220  32.7404350  69.6784590  82.7252550  32.2940720
  62.5441430  86.0967410  27.3483030  62.1398430  85.3844660  26.8528930
  62.6304550  85.7520650  28.2371070  71.1008740  93.3566840  33.1745340
  70.6239300  94.1639030  32.9817950  70.4170530  92.7045170  33.3271550
  60.9312780  86.3929980  34.7387410  60.7920550  87.2652780  35.1074810
  60.0494140  86.0502790  34.5935350  74.6807950  93.1178780  38.2436730
  75.1567670  93.5961670  38.9225810  75.3015110  93.0496270  37.5182230
  67.9457940  94.0119630  33.9731550  68.4602610  93.9227640  34.7753980
  67.1027020  94.3579330  34.2659460  69.9212340  94.2974970  23.4015550
  69.7613480  94.0077910  24.2997380  69.7559050  93.5215100  22.8660780
  69.1888400  93.4325240  26.0362040  69.6445350  92.6514620  26.3500660
  69.5280920  94.1432060  26.5803220  73.9365210  82.3624090  36.3686480
  73.3209480  82.8703760  35.8401940  73.6161630  81.4622420  36.3112420
  65.9979530  81.2015980  33.8348670  65.5358900  81.4099000  34.6468610
  65.5957640  80.3875330  33.5319340  70.9984040  82.4224930  34.9645330
  70.1477630  82.1230680  35.2854400  70.8385830  82.6666940  34.0529150
  64.8268540  77.9558160  23.1119180  64.2022720  77.9518030  23.8372490
  64.7398660  77.0889120  22.7155150  63.7485620  78.8794790  30.0902950
  64.0457950  79.7857620  30.0094970  64.2971180  78.3913570  29.4762520
  63.9423150  84.3566610  36.6254870  63.8466750  83.4161340  36.4755270
  64.7855130  84.5781680  36.2302940  67.9241710  84.6913690  30.6839310
  67.1922830  85.2000500  31.0329410  67.5266050  83.8743670  30.3828090
  64.3619100  81.3667890  29.0891800  64.3655160  80.9257840  28.2396340
  65.2570220  81.6885220  29.1963620  68.3867620  80.1447370  30.0962250
  68.4040360  80.5956020  30.9404100  68.1383200  79.2453010  30.3095690
  71.8138370  77.5579550  35.9348630  72.1384140  76.8269210  36.4606610
  71.8494880  77.2393190  35.0329620  58.5129930  88.5793130  35.3548590
  58.1284720  87.9386800  35.9531550  58.8242120  89.2829250  35.9243320
  64.6627070  85.4269670  30.8357210  65.0297200  84.9528240  31.5818550
  64.4732130  86.3011240  31.1765550  62.4526440  84.4678310  33.1541420
  62.1483510  85.3470290  33.3791780  63.4072900  84.5278100  33.1898860
  67.2006150  79.0642620  23.6864050  66.3870760  78.5655790  23.6109360
  67.0068100  79.9040870  23.2700400  61.0245630  88.3419680  27.3887080
  61.5424300  87.5387940  27.3343970  60.5729650  88.2798820  28.2303910
  58.5090170  85.3081050  34.3012780  58.1505110  85.9734900  34.8886120
  58.2144730  84.4764600  34.6725400  72.1868810  84.7474110  21.4506070
  72.1032530  85.1788330  20.6002510  72.9063000  85.2072460  21.8832890
  60.0844810  77.0383170  25.5178180  59.9559440  77.0301070  26.4663100
  59.2606830  77.3766260  25.1669190  69.5335340  91.0079110  34.1961470
  69.8691580  91.5945800  34.8739390  68.6135680  90.8771820  34.4259260
  57.0838740  78.7974290  34.9784880  56.3697260  78.9971210  35.5837490
  57.5033780  78.0213860  35.3499680  57.3711330  92.7854550  35.9651410
  57.4802450  91.8449290  35.8246800  56.7191890  93.0509300  35.3165140
  68.5777520  81.2896600  32.7286330  68.9458340  80.4691810  33.0565900
  67.7175720  81.3498490  33.1441980  71.9439550  80.2453540  23.5373890
  71.3152710  80.3499210  22.8232120  71.4491470  80.4650320  24.3267770
  65.5379510  83.9436190  32.9524300  66.0364760  84.4182010  33.6176150
  65.6802460  83.0199710  33.1594330  67.9439010  79.2490150  26.3927560
  67.8206790  79.2676280  25.4437070  68.8923570  79.2969090  26.5125960
  72.7446370  80.1604150  33.7952690  72.2419970  80.9009550  34.1346500
  73.5603030  80.5488150  33.4789480  69.7834770  93.6883620  36.3355840
  70.7356520  93.6041640  36.2856080  69.6362990  94.3525330  37.0089630
  57.2367580  86.3396920  36.7207070  57.7406600  85.7604200  37.2923300
  56.4975000  86.6237150  37.2583440  67.3793930  88.1231140  20.8795350
  66.8304030  88.5700440  21.5238090  68.0013190  87.6180390  21.4033020
  71.4328870  89.4773240  36.8117610  72.1738340  89.8149000  36.3085070
  70.6701550  89.6465300  36.2587380  70.1074530  87.5288070  35.3472820
  70.5215550  87.6833150  36.1963240  69.1725530  87.6543290  35.5098600
  61.6968770  80.0280980  35.6628920  61.6025640  79.4101730  34.9379790
  61.1166160  80.7547270  35.4358830  64.4630210  78.5854220  32.6956310
  64.0147510  78.6078480  31.8501860  63.8295410  78.1873240  33.2926610
  64.8689760  87.4808550  33.3168750  65.2877870  88.3241280  33.1444990
  63.9498390  87.6180590  33.0875530  67.2053660  85.2124730  34.7006590
  67.3249870  84.6165870  35.4401430  68.0647660  85.2494420  34.2807890
  69.5441560  85.7661920  33.2769100  69.0176780  86.2904540  32.6734240
  69.8872900  86.3989310  33.9078830  62.7197180  93.7861560  34.4326480
  62.1818270  94.5107620  34.1135180  62.9731140  93.3091900  33.6423820
  63.9722430  81.7546080  35.9582410  64.5622120  81.4461930  36.6460230
  63.1542670  81.2825830  36.1142310  68.7915860  81.3711890  36.1915430
  68.1031380  80.7093430  36.1265420  69.5121880  80.9250160  36.6363890
  69.4216260  77.9663520  22.2505690  69.7018550  77.1231420  22.6065110
  68.6481990  78.1986630  22.7644440  60.7410750  80.2555910  19.7096690
  61.0436650  80.2623340  18.8015840  61.4805340  79.9053770  20.2064350
  65.5759390  95.0212770  34.6913130  65.5018090  95.9247910  34.9985500
  64.6738230  94.7024670  34.6635200  66.1244720  94.1871280  22.3139490
  67.0195510  94.5256250  22.3358250  66.1562350  93.4650690  21.6863770
  59.7640880  89.5598330  20.5426490  60.2015750  90.1028000  21.1984070
  60.2488610  88.7345280  20.5522830  73.1039070  92.7174950  35.0205690
  72.5041060  92.7767510  34.2769610  73.2332970  91.7779930  35.1502540
  74.3440520  90.4592770  20.3575400  73.5133480  90.5269420  20.8282630
  74.5212350  91.3496890  20.0542260  73.8516150  87.4974620  20.0182120
  74.1264990  88.4053500  19.8901340  73.6626890  87.4337150  20.9544110
  73.1381110  84.5815130  34.6451070  72.9067200  84.3527880  33.7449020
  73.3985660  85.5014680  34.5995960  73.0232450  83.6601100  28.3118790
  73.5469930  83.1663750  27.6808960  73.6091870  83.7951460  29.0566360
  73.2022170  83.7440970  31.8338340  72.2524880  83.7104510  31.9483330
  73.3835180  84.6541080  31.5988110  59.0566610  81.9942650  20.9436970
  59.7658310  81.5725870  20.4584250  58.3406550  82.0617880  20.3120320
  58.7040770  78.0481980  19.9839620  59.4268900  78.5890920  20.3020840
  58.9765290  77.7745400  19.1081160  72.5132420  82.9174450  24.2511200
  73.0091540  82.6845320  25.0360080  72.3148490  82.0786290  23.8348840
  73.9419580  81.5535400  26.7848880  73.8318860  81.3991440  27.7231150
  74.7027170  81.0256340  26.5424290  72.2885300  77.4929530  33.2431880
  72.9257520  78.1063670  33.6091070  72.4360190  77.5290190  32.2981110
  58.1464960  77.4543840  32.6287560  57.7979780  77.9107660  33.3945740
  57.8152660  76.5600970  32.7109990  63.4535360  92.1823030  32.3950470
  63.2126720  92.4497590  31.5080990  64.3938000  92.3528760  32.4501330
  65.6589780  78.6455720  36.1506980  65.5978670  79.2377550  36.9002390
  66.5990160  78.5381680  36.0057240  68.2964340  78.3025780  35.7899270
  68.9104750  78.6205070  35.1280350  68.8413900  77.8174370  36.4095130
  74.7139520  94.2017410  33.1961110  74.2197800  94.5986280  32.4788240
  74.1052810  93.5766620  33.5898390  58.8185600  76.9820040  35.9038330
  59.3668590  76.8008090  35.1404440  58.8840910  76.1914150  36.4394640
  59.5917360  93.5725690  33.9138530  58.9977680  93.4410390  34.6528570
  59.5841200  92.7363830  33.4480630  69.0372380  76.8657920  32.1168560
  68.1632220  77.1993030  31.9141490  68.9283130  76.3931100  32.9420430
  69.9444360  79.0728790  33.5010280  69.6157720  78.2580550  33.1212010
  70.8926660  79.0298600  33.3775970  65.5670190  94.0437560  30.4764960
  65.8548000  93.7891860  29.5997970  66.0793410  93.4914920  31.0670530
  66.7847200  77.7827760  31.0561470  66.0018990  78.2573260  31.3358230
  66.4910130  76.8782590  30.9474650  71.3368270  78.4850860  29.1010560
  71.7776360  78.4295960  28.2532160  71.0675860  79.4008870  29.1720740
  73.2006840  78.1166100  27.1119380  73.1395240  77.1727320  26.9650400
  73.9798870  78.2246190  27.6572840  58.1287610  78.0875240  23.5775190
  58.8866970  78.2004120  23.0039220  57.6664780  78.9244440  23.5318620
  69.1726400  76.8656960  27.8060570  69.7755770  77.4377170  28.2809090
  68.4319390  77.4296400  27.5834470  60.5012760  78.6139290  22.1177160
  61.0305520  77.8269090  21.9885110  61.1341080  79.2930480  22.3512690
  62.6950600  78.3514430  25.1722550  62.0653340  77.6501740  25.3392680
  62.1555740  79.1118560  24.9555710  73.8687610  94.5079230  24.8407410
  74.0439800  93.8216970  24.1968330  73.1709180  95.0326280  24.4484080
  62.8206160  77.6298410  37.6075040  62.5390430  78.1332010  36.8435860
  63.2025860  76.8320160  37.2417170  61.7115260  94.8974070  22.3942720
  62.4434080  94.6133350  21.8466610  61.9708930  94.6587350  23.2842100
  60.8730050  91.0138800  22.3989050  60.2438930  91.4823900  22.9474880
  60.9877880  90.1688020  22.8335240  72.2020110  94.1923520  37.6674200
  72.9945430  93.6972750  37.4600160  72.4953260  94.8713660  38.2749810
  68.3279770  85.0644460   8.5490250  68.2473820  84.1499070   8.2781960
  67.9144190  85.5611530   7.8429960  66.4597810  86.8423480  10.4299520
  65.6839910  86.3623920  10.7198090  67.1110740  86.1629130  10.2555680
  60.4763640  87.1543290  11.3075280  59.6448520  86.8992000  11.7071790
  61.0844620  87.2254060  12.0433200  70.4805240  91.2483670   9.2098650
  70.0186770  90.4770910   9.5385820  71.2930790  91.2749740   9.7151100
  60.4564900  91.1883380  11.5033300  60.7592940  90.2981120  11.3243520
  61.2008490  91.7453600  11.2755550  58.8855590  82.1145180   5.0917670
  57.9972290  82.4561150   4.9897550  59.1696780  81.9145500   4.1998500
  56.8488600  84.7150830  10.9757370  57.4204710  83.9473030  10.9761010
  56.8490140  85.0139590  10.0663980  66.7068550  93.5341680   8.8302640
  66.0879990  93.9899180   8.2597080  67.5620330  93.6893140   8.4292340
  65.9006800  89.5180670  10.4369680  65.8315080  88.5770610  10.2758810
  66.6626660  89.6082080  11.0092250  58.0913470  80.1235190  12.7626300
  57.9116310  79.2260940  13.0429060  57.6893550  80.6707060  13.4373250
  66.9311970  82.3251050  10.6638610  67.3076790  81.4522930  10.5512280
  66.8331480  82.6609750   9.7729050  61.0616980  80.6976680   6.1256050
  61.1683730  81.5980410   6.4324810  60.1509340  80.6494650   5.8350700
  70.7136090  79.8201490   7.5966950  71.5345710  79.3298060   7.6392430
  70.7470170  80.4099150   8.3498790  58.7100140  82.6195690  11.3708640
  59.3910250  82.8834060  11.9896040  58.3948190  81.7796560  11.7046650
  61.1860810  78.3061610  14.7244650  61.1879250  78.8234000  13.9190550
  60.3565120  77.8291790  14.7014580  67.5731900  88.4180920   6.2234550
  66.9549170  88.8830370   5.6597270  68.0855150  89.1108400   6.6404060
  62.4363660  87.9456790  12.9018150  62.1033040  88.5725710  13.5439220
  62.6130340  88.4718670  12.1219820  70.9497570  81.7601870  10.3694490
  70.2453140  82.0486760  10.9497600  71.3109730  82.5701980  10.0094050
  56.9415100  89.1037450   3.5974180  56.5643080  89.5924550   2.8659080
  57.1988170  89.7762730   4.2280710  72.5660350  91.3777000  12.6321970
  71.8823870  92.0476110  12.6238640  73.1054640  91.5757650  11.8666830
  74.0184490  81.2056660  10.7603700  73.0709400  81.2395640  10.8919130
  74.3434480  82.0195610  11.1453060  64.5504030  77.5053840   9.0559690
  64.8579010  76.9500730   8.3395190  63.6204730  77.6398300   8.8732680
  70.1019090  93.2221130  11.3467150  70.1146250  92.8183420  10.4789410
  69.5494310  93.9968420  11.2428580  71.3964510  89.9437350   6.4357320
  71.2860840  89.0011680   6.5606740  71.3932760  90.3052990   7.3220080
  69.5004530  88.1250970  12.6749760  69.9173320  87.9111080  11.8403220
  70.2244350  88.3823760  13.2458380  66.9384790  85.5702670   5.7919810
  66.0114070  85.5040050   6.0208280  67.0909610  86.5082800   5.6775050
  66.9253870  81.8419670   2.7886970  65.9857540  82.0033630   2.8739430
  67.2437130  82.5605350   2.2422960  73.4466630  86.5238190  12.7666000
  72.6185260  86.5931280  12.2916130  74.0417110  87.1092500  12.2981830
  70.9682080  87.1322970   6.2955060  70.3494500  86.7942520   5.6481360
  70.9506530  86.4882730   7.0034250  70.4108640  83.3107510  13.7120870
  69.9979820  84.1361220  13.9660860  69.6784590  82.7252550  13.5197230
  62.5441430  86.0967410   8.5739540  62.1398430  85.3844660   8.0785440
  62.6304550  85.7520650   9.4627580  63.0123130  89.7834970  10.7378750
  62.7151420  89.1780440  10.0586530  63.9622950  89.8212280  10.6268110
  71.1008740  93.3566840  14.4001850  70.6239300  94.1639030  14.2074460
  70.4170530  92.7045170  14.5528060  69.1446780  86.3709780   3.3027810
  69.5840060  85.5332210   3.1565630  69.8575200  87.0039180   3.3891950
  67.2542160  91.3105850   7.2709050  67.6938070  92.0530180   6.8564440
  67.1929050  91.5532420   8.1948010  59.2446060  84.9912390   6.0746190
  59.1243660  85.7174480   5.4627460  58.9346950  84.2215300   5.5974100
  56.8831430  88.1627530  11.8814830  56.9611850  88.2976300  10.9370550
  57.4973110  87.4543420  12.0742950  58.1279060  89.8627720   8.2921010
  57.7207140  90.0042310   7.4374610  59.0192070  89.5787880   8.0892220
  74.0841200  90.3091630  16.6293250  74.2104260  90.0703510  15.7110430
  74.1262580  89.4776170  17.1015330  67.9457940  94.0119630  15.1988060
  68.4602610  93.9227640  16.0010490  67.1027020  94.3579330  15.4915970
  69.9212340  94.2974970   4.6272060  69.7613480  94.0077910   5.5253890
  69.7559050  93.5215100   4.0917290  62.4000720  94.0773500   6.4043680
  62.2243200  93.1609040   6.1911480  61.5456460  94.4360790   6.6441480
  69.6238470  91.8062530   3.1870060  68.9303630  91.8039820   2.5272340
  70.3661330  91.3821850   2.7564230  69.1888400  93.4325240   7.2618550
  69.6445350  92.6514620   7.5757170  69.5280920  94.1432060   7.8059730
  56.9390950  89.2041700  14.4209290  57.1021990  88.7347060  13.6028660
  57.4043400  88.6965260  15.0858130  61.7109720  78.3347460   9.4569860
  61.2677870  79.1157000   9.1254380  62.2694710  78.6577350  10.1640800
  64.8268540  77.9558160   4.3375690  64.2022720  77.9518030   5.0629000
  64.7398660  77.0889120   3.9411660  63.7485620  78.8794790  11.3159460
  64.0457950  79.7857620  11.2351480  64.2971180  78.3913570  10.7019030
  61.5023940  83.4581030   7.1851110  61.2764860  83.2418200   8.0897730
  60.7216470  83.8909490   6.8397080  68.7321700  83.4644400   5.7841760
  68.1330590  84.1880200   5.6005380  69.2801310  83.4021180   5.0018210
  67.3386570  82.1007940   7.8145040  67.7316140  82.4180140   7.0013730
  67.7003420  81.2219820   7.9289560  59.0733690  80.7680280  16.0045160
  58.6797080  81.6155490  16.2117940  58.3852090  80.1306650  16.1953800
  56.3750740  78.6908740  10.0375240  56.0863790  79.2611600  10.7500220
  57.1196500  78.2113190  10.4006470  67.9241710  84.6913690  11.9095820
  67.1922830  85.2000500  12.2585920  67.5266050  83.8743670  11.6084600
  64.3619100  81.3667890  10.3148310  64.3655160  80.9257840   9.4652850
  65.2570220  81.6885220  10.4220130  60.2121480  81.2494380   9.2742520
  59.8721530  81.7269610  10.0309570  59.4498800  80.7959500   8.9143620
  64.4239250  82.3679970   3.3055070  64.5452070  82.3266450   4.2540890
  64.0387760  83.2304120   3.1501800  68.3867620  80.1447370  11.3218760
  68.4040360  80.5956020  12.1660610  68.1383200  79.2453010  11.5352200
  63.4360750  84.6781110   2.7038370  62.8677650  84.2299360   2.0774280
  64.1449750  85.0373890   2.1703520  71.8138370  77.5579550  17.1605140
  72.1384140  76.8269210  17.6863120  71.8494880  77.2393190  16.2586130
  58.5129930  88.5793130  16.5805100  58.1284720  87.9386800  17.1788060
  58.8242120  89.2829250  17.1499830  57.5267560  80.1713360   8.1907190
  57.2414480  79.8069030   9.0285810  57.4646420  79.4393820   7.5770330
  60.9808230  88.6739300   4.9764780  60.2070490  88.1336920   4.8163500
  61.7102860  88.1545910   4.6382540  71.7396210  87.6704660  10.7691170
  72.4595330  88.1659950  10.3787280  71.5378030  86.9922550  10.1245040
  67.2006150  79.0642620   4.9120560  66.3870760  78.5655790   4.8365870
  67.0068100  79.9040870   4.4956910  67.1215010  87.7413720  16.6560170
  67.0552320  86.8209390  16.4017760  66.4920150  87.8389160  17.3704810
  69.9154540  83.4362270   3.2082720  70.8034160  83.7479500   3.0334060
  69.8859630  82.5634520   2.8163300  61.0245630  88.3419680   8.6143590
  61.5424300  87.5387940   8.5600480  60.5729650  88.2798820   9.4560420
  65.9115130  89.6085960   3.8870890  66.2530830  90.3528190   3.3914210
  65.0827840  89.9217080   4.2495720  72.1868810  84.7474110   2.6762580
  72.1032530  85.1788330   1.8259020  72.9063000  85.2072460   3.1089400
  73.2642950  87.2041630  15.7532550  72.5391140  87.7970410  15.5561940
  73.7918410  87.1965170  14.9545920  73.2156060  91.6016370   5.4044710
  72.5732220  90.9471990   5.6788430  72.8286720  92.0071460   4.6285380
  68.7942540  88.9301800   9.2516400  69.1466360  88.3329930   8.5917770
  67.9104870  88.6046030   9.4224650  64.8805820  89.6899490   6.6586810
  65.5676950  90.2368700   7.0394400  64.0938240  90.2340220   6.6936420
  57.0198220  85.3072310   2.1503890  57.8893070  85.5897110   2.4339810
  56.5288540  86.1208180   2.0352700  64.1833030  86.6945520   6.2712170
  64.6395810  87.5050770   6.4972360  63.8321240  86.3768660   7.1030660
  66.4865640  92.2051860  13.5004470  67.1307860  92.4111240  14.1777890
  66.8495080  91.4440260  13.0475320  60.0844810  77.0383170   6.7434690
  59.9559440  77.0301070   7.6919610  59.2606830  77.3766260   6.3925700
  67.7597720  90.2084210  12.2181920  68.4019950  89.5077370  12.3314090
  68.2847070  90.9882650  12.0378810  69.5335340  91.0079110  15.4217980
  69.8691580  91.5945800  16.0995900  68.6135680  90.8771820  15.6515770
  57.3869470  94.5199690   2.7165520  57.7467110  95.1189030   2.0622790
  57.2461810  95.0659580   3.4900550  57.0838740  78.7974290  16.2041390
  56.3697260  78.9971210  16.8094000  57.5033780  78.0213860  16.5756190
  71.1869690  88.4104770   3.6035220  70.8991390  88.8717460   4.3913100
  71.9821860  87.9502540   3.8719440  63.4038090  91.9030890   3.5339190
  63.3948190  92.6360580   2.9183700  62.4836450  91.6562470   3.6266150
  59.0044730  87.1245780   4.2785950  58.3972680  87.8644680   4.2881250
  59.4794080  87.2145140   3.4524150  68.5777520  81.2896600  13.9542840
  68.9458340  80.4691810  14.2822410  67.7175720  81.3498490  14.3698490
  71.9439550  80.2453540   4.7630400  71.3152710  80.3499210   4.0488630
  71.4491470  80.4650320   5.5524280  63.9123580  82.5239490   6.1788280
  63.2039730  82.9925830   6.6201890  64.1968060  81.8661500   6.8133470
  67.9439010  79.2490150   7.6184070  67.8206790  79.2676280   6.6693580
  68.8923570  79.2969090   7.7382470  65.0315800  94.4845450   6.8912050
  65.2857300  94.4466840   5.9691420  64.0828280  94.3578780   6.8840300
  62.1158600  80.8324570   3.5538990  62.9649130  81.2694720   3.4879180
  61.7489870  81.1444830   4.3811050  71.0368380  85.4037330   8.4670560
  70.0958520  85.4187560   8.6418250  71.3512450  84.6173290   8.9130860
  59.7096780  84.5182000   2.7107410  59.7900370  83.5709510   2.8224810
  60.6016530  84.8488880   2.8168070  73.0393960  92.5746180  10.1424820
  73.1641380  93.3977350  10.6148630  73.9059520  92.3636910   9.7948970
  60.5111490  94.6677390   9.8141950  61.2473970  94.1192850  10.0850520
  60.8952410  95.5333400   9.6747940  57.3956970  90.7350960   5.6883460
  56.4696750  90.9772100   5.6788870  57.8613400  91.5625220   5.5668210
  59.5169770  93.8523460  19.0027530  60.3182500  94.1735510  19.4162930
  59.0021590  93.4919040  19.7247440  69.7834770  93.6883620  17.5612350
  70.7356520  93.6041640  17.5112590  69.6362990  94.3525330  18.2346140
  72.6743970  93.0677830   3.0604260  72.3885480  92.6542970   2.2458440
  72.4763520  93.9965540   2.9404780  67.3793930  88.1231140   2.1051860
  66.8304030  88.5700440   2.7494600  68.0013190  87.6180390   2.6289530
  71.4328870  89.4773240  18.0374120  72.1738340  89.8149000  17.5341580
  70.6701550  89.6465300  17.4843890  63.0469050  87.0822060   4.0017160
  63.4685470  86.9161930   4.8448550  63.1719890  86.2722290   3.5072300
  70.1074530  87.5288070  16.5729330  70.5215550  87.6833150  17.4219750
  69.1725530  87.6543290  16.7355110  70.5796700  84.8684230  18.5768480
  71.1617470  84.1136550  18.4888960  70.7558470  85.3991670  17.7999960
  64.4630210  78.5854220  13.9212820  64.0147510  78.6078480  13.0758370
  63.8295410  78.1873240  14.5183120  64.8689760  87.4808550  14.5425260
  65.2877870  88.3241280  14.3701500  63.9498390  87.6180590  14.3132040
  67.2053660  85.2124730  15.9263100  67.3249870  84.6165870  16.6657940
  68.0647660  85.2494420  15.5064400  69.5441560  85.7661920  14.5025610
  69.0176780  86.2904540  13.8990750  69.8872900  86.3989310  15.1335340
  69.4216260  77.9663520   3.4762200  69.7018550  77.1231420   3.8321620
  68.6481990  78.1986630   3.9900950  65.5759390  95.0212770  15.9169640
  65.5018090  95.9247910  16.2242010  64.6738230  94.7024670  15.8891710
  66.1244720  94.1871280   3.5396000  67.0195510  94.5256250   3.5614760
  66.1562350  93.4650690   2.9120280  59.7640880  89.5598330   1.7683000
  60.2015750  90.1028000   2.4240580  60.2488610  88.7345280   1.7779340
  56.9786680  92.3487360   9.2203260  57.3089690  91.4808420   8.9881900
  57.4077680  92.5545880  10.0508220  61.5748600  90.6796370   6.8805230
  61.2744140  90.5561340   7.7809140  61.4686090  89.8204960   6.4720960
  57.4676890  93.2157950  11.9584890  57.0307880  93.3958750  12.7909040
  58.0354570  93.9732570  11.8166610  73.7996980  87.2040250   4.0866110
  74.5615890  87.7736900   4.1925800  73.8151350  86.6367450   4.8574420
  57.3001320  85.7278180   8.3173770  56.6450160  85.4589820   7.6733470
  58.1379270  85.6182660   7.8675750  74.8056950  88.0590350   8.9308040
  75.1765780  87.2757670   8.5244010  75.4458880  88.7479450   8.7525340
  71.7890710  89.4426930  14.3438360  70.9750550  89.8724090  14.6064150
  72.1964910  90.0545340  13.7307410  70.2491760  80.5219470   2.5392260
  70.6676640  80.3350450   1.6988920  69.9427820  79.6698520   2.8495190
  73.7481490  85.4343610   6.2368060  73.3725090  84.6671540   5.8049350
  73.0184610  85.8166310   6.7242990  71.5769180  79.8071560  18.6487280
  72.4539360  79.8154960  19.0321280  71.5890020  79.0702400  18.0379630
  56.5139400  82.9377110   4.2599100  55.6103480  83.2007310   4.0850760
  56.9980020  83.2088280   3.4799060  73.0232450  83.6601100   9.5375300
  73.5469930  83.1663750   8.9065470  73.6091870  83.7951460  10.2822870
  72.5132420  82.9174450   5.4767710  73.0091540  82.6845320   6.2616590
  72.3148490  82.0786290   5.0605350  58.3932960  77.2988170  11.1118750
  59.0409150  76.7485550  10.6713910  58.8134800  77.5531320  11.9334560
  73.9419580  81.5535400   8.0105390  73.8318860  81.3991440   8.9487660
  74.7027170  81.0256340   7.7680800  72.2885300  77.4929530  14.4688390
  72.9257520  78.1063670  14.8347580  72.4360190  77.5290190  13.5237620
  74.9048340  80.1553980   3.8768240  74.1099840  80.0899100   4.4061150
  75.1091620  81.0904620   3.8653590  71.8466760  94.1945530   7.8706630
  72.4425830  93.8730100   7.1941050  72.1044910  93.7217350   8.6619900
  58.1464960  77.4543840  13.8544070  57.7979780  77.9107660  14.6202250
  57.8152660  76.5600970  13.9366500  68.2964340  78.3025780  17.0155780
  68.9104750  78.6205070  16.3536860  68.8413900  77.8174370  17.6351640
  58.8185600  76.9820040  17.1294840  59.3668590  76.8008090  16.3660950
  58.8840910  76.1914150  17.6651150  59.5917360  93.5725690  15.1395040
  58.9977680  93.4410390  15.8785080  59.5841200  92.7363830  14.6737140
  69.0372380  76.8657920  13.3425070  68.1632220  77.1993030  13.1398000
  68.9283130  76.3931100  14.1676940  69.9444360  79.0728790  14.7266790
  69.6157720  78.2580550  14.3468520  70.8926660  79.0298600  14.6032480
  72.3978970  94.8440830  11.7004360  71.9381940  95.5956640  11.3262380
  71.7691430  94.1247300  11.6419160  59.2229590  90.9384070  14.0903080
  58.4963650  90.3189360  14.0229030  59.2838740  91.3324680  13.2201160
  62.8274690  93.1529070  10.8752490  63.3439710  92.5416430  10.3500750
  63.4772070  93.6557850  11.3663500  65.5670190  94.0437560  11.7021470
  65.8548000  93.7891860  10.8254480  66.0793410  93.4914920  12.2927040
  66.7847200  77.7827760  12.2817980  66.0018990  78.2573260  12.5614740
  66.4910130  76.8782590  12.1731160  71.3368270  78.4850860  10.3267070
  71.7776360  78.4295960   9.4788670  71.0675860  79.4008870  10.3977250
  73.2006840  78.1166100   8.3375890  73.1395240  77.1727320   8.1906910
  73.9798870  78.2246190   8.8829350  57.5059590  94.2558460   7.2999840
  57.3381630  93.6229140   7.9981730  56.6394100  94.4617860   6.9494030
  58.1287610  78.0875240   4.8031700  58.8866970  78.2004120   4.2295730
  57.6664780  78.9244440   4.7575130  64.6701420  80.2014510   7.7934010
  63.8575930  79.8271400   7.4529890  65.1743060  79.4459590   8.0955200
  69.1726400  76.8656960   9.0317080  69.7755770  77.4377170   9.5065600
  68.4319390  77.4296400   8.8090980  72.3161000  77.2678520   4.3057360
  72.5111630  78.1661970   4.5724790  71.5290870  77.0365600   4.7990310
  59.1122290  92.9491690   4.7449980  58.5869910  93.3299720   4.0411940
  59.0366870  93.5742460   5.4659690  60.5012760  78.6139290   3.3433670
  61.0305520  77.8269090   3.2141620  61.1341080  79.2930480   3.5769200
  62.6950600  78.3514430   6.3979060  62.0653340  77.6501740   6.5649190
  62.1555740  79.1118560   6.1812220  65.6342550  94.9653660  19.0689670
  66.5609860  94.7297930  19.1125630  65.6192980  95.7925660  18.5875700
  73.8687610  94.5079230   6.0663920  74.0439800  93.8216970   5.4224840
  73.1709180  95.0326280   5.6740590  62.8206160  77.6298410  18.8331550
  62.5390430  78.1332010  18.0692370  63.2025860  76.8320160  18.4673680
  61.7115260  94.8974070   3.6199230  62.4434080  94.6133350   3.0723120
  61.9708930  94.6587350   4.5098610  60.8730050  91.0138800   3.6245560
  60.2438930  91.4823900   4.1731390  60.9877880  90.1688020   4.0591750
  69.4221620  77.0451990  19.4112020  69.3087070  77.3646600  20.3063540
  70.2391360  77.4464500  19.1149300  68.3279770  66.2900970 139.9694680
  68.2473820  65.3755580 139.6986390  67.9144190  66.7868040 139.2634390
  66.4597810  68.0679990 141.8503950  65.6839910  67.5880430 142.1402520
  67.1110740  67.3885640 141.6760110  60.4763640  68.3799800 142.7279710
  59.6448520  68.1248510 143.1276220  61.0844620  68.4510570 143.4637630
  70.4805240  72.4740180 140.6303080  70.0186770  71.7027420 140.9590250
  71.2930790  72.5006250 141.1355530  60.4564900  72.4139890 142.9237730
  60.7592940  71.5237630 142.7447950  61.2008490  72.9710110 142.6959980
  58.8855590  63.3401690 136.5122100  57.9972290  63.6817660 136.4101980
  59.1696780  63.1402010 135.6202930  56.8488600  65.9407340 142.3961800
  57.4204710  65.1729540 142.3965440  56.8490140  66.2396100 141.4868410
  66.7068550  74.7598190 140.2507070  66.0879990  75.2155690 139.6801510
  67.5620330  74.9149650 139.8496770  65.9006800  70.7437180 141.8574110
  65.8315080  69.8027120 141.6963240  66.6626660  70.8338590 142.4296680
  58.0913470  61.3491700 144.1830730  57.9116310  60.4517450 144.4633490
  57.6893550  61.8963570 144.8577680  66.9311970  63.5507560 142.0843040
  67.3076790  62.6779440 141.9716710  66.8331480  63.8866260 141.1933480
  61.0616980  61.9233190 137.5460480  61.1683730  62.8236920 137.8529240
  60.1509340  61.8751160 137.2555130  70.7136090  61.0458000 139.0171380
  71.5345710  60.5554570 139.0596860  70.7470170  61.6355660 139.7703220
  58.7100140  63.8452200 142.7913070  59.3910250  64.1090570 143.4100470
  58.3948190  63.0053070 143.1251080  62.9024710  64.8919560 141.8785660
  63.4102930  65.3900530 142.5190680  63.4337950  64.1154760 141.7025020
  75.0035640  63.0624750 145.5815010  74.2987810  63.4506460 145.0630120
  75.2693560  63.7575040 146.1835940  61.1860810  59.5318120 146.1449080
  61.1879250  60.0490510 145.3394980  60.3565120  59.0548300 146.1219010
  67.5731900  69.6437430 137.6438980  66.9549170  70.1086880 137.0801700
  68.0855150  70.3364910 138.0608490  62.4363660  69.1713300 144.3222580
  62.1033040  69.7982220 144.9643650  62.6130340  69.6975180 143.5424250
  70.9497570  62.9858380 141.7898920  70.2453140  63.2743270 142.3702030
  71.3109730  63.7958490 141.4298480  60.8676140  61.2428080 144.1519530
  61.2092950  62.0870130 143.8573400  59.9291950  61.3911820 144.2684870
  61.6482760  71.1394100 146.1371760  62.2656760  71.8145180 145.8556210
  60.7875880  71.5482080 146.0459260  56.9415100  70.3293960 135.0178610
  56.5643080  70.8181060 134.2863510  57.1988170  71.0019240 135.6485140
  72.5660350  72.6033510 144.0526400  71.8823870  73.2732620 144.0443070
  73.1054640  72.8014160 143.2871260  74.0184490  62.4313170 142.1808130
  73.0709400  62.4652150 142.3123560  74.3434480  63.2452120 142.5657490
  64.5504030  58.7310350 140.4764120  64.8579010  58.1757240 139.7599620
  63.6204730  58.8654810 140.2937110  70.1019090  74.4477640 142.7671580
  70.1146250  74.0439930 141.8993840  69.5494310  75.2224930 142.6633010
  71.3964510  71.1693860 137.8561750  71.2860840  70.2268190 137.9811170
  71.3932760  71.5309500 138.7424510  69.5004530  69.3507480 144.0954190
  69.9173320  69.1367590 143.2607650  70.2244350  69.6080270 144.6662810
  66.9384790  66.7959180 137.2124240  66.0114070  66.7296560 137.4412710
  67.0909610  67.7339310 137.0979480  66.9253870  63.0676180 134.2091400
  65.9857540  63.2290140 134.2943860  67.2437130  63.7861860 133.6627390
  73.4466630  67.7494700 144.1870430  72.6185260  67.8187790 143.7120560
  74.0417110  68.3349010 143.7186260  70.9682080  68.3579480 137.7159490
  70.3494500  68.0199030 137.0685790  70.9506530  67.7139240 138.4238680
  70.4108640  64.5364020 145.1325300  69.9979820  65.3617730 145.3865290
  69.6784590  63.9509060 144.9401660  62.5441430  67.3223920 139.9943970
  62.1398430  66.6101170 139.4989870  62.6304550  66.9777160 140.8832010
  63.0123130  71.0091480 142.1583180  62.7151420  70.4036950 141.4790960
  63.9622950  71.0468790 142.0472540  61.2570050  64.0967130 143.7743010
  61.8084640  64.2062470 142.9996260  61.7713560  64.4704730 144.4898240
  71.1008740  74.5823350 145.8206280  70.6239300  75.3895540 145.6278890
  70.4170530  73.9301680 145.9732490  62.1041560  70.7473170 148.8090980
  61.2070090  70.9713140 149.0564380  62.1294430  70.8708110 147.8602380
  69.1446780  67.5966290 134.7232240  69.5840060  66.7588720 134.5770060
  69.8575200  68.2295690 134.8096380  60.9312780  67.6186490 147.3848350
  60.7920550  68.4909290 147.7535750  60.0494140  67.2759300 147.2396290
  67.2542160  72.5362360 138.6913480  67.6938070  73.2786690 138.2768870
  67.1929050  72.7788930 139.6152440  62.7293130  73.5608190 149.5933500
  62.7008560  73.9651140 148.7261930  62.5658100  72.6318550 149.4305100
  72.7263920  58.8509100 133.0373280  72.4136580  58.9435930 133.9372350
  73.4876390  59.4290130 132.9870710  59.2446060  66.2168900 137.4950620
  59.1243660  66.9430990 136.8831890  58.9346950  65.4471810 137.0178530
  56.8831430  69.3884040 143.3019260  56.9611850  69.5232810 142.3574980
  57.4973110  68.6799930 143.4947380  58.1279060  71.0884230 139.7125440
  57.7207140  71.2298820 138.8579040  59.0192070  70.8044390 139.5096650
  74.0841200  71.5348140 148.0497680  74.2104260  71.2960020 147.1314860
  74.1262580  70.7032680 148.5219760  67.9457940  75.2376140 146.6192490
  68.4602610  75.1484150 147.4214920  67.1027020  75.5835840 146.9120400
  69.9212340  75.5231480 136.0476490  69.7613480  75.2334420 136.9458320
  69.7559050  74.7471610 135.5121720  62.4000720  75.3030010 137.8248110
  62.2243200  74.3865550 137.6115910  61.5456460  75.6617300 138.0645910
  69.6238470  73.0319040 134.6074490  68.9303630  73.0296330 133.9476770
  70.3661330  72.6078360 134.1768660  69.1888400  74.6581750 138.6822980
  69.6445350  73.8771130 138.9961600  69.5280920  75.3688570 139.2264160
  73.9365210  63.5880600 149.0147420  73.3209480  64.0960270 148.4862880
  73.6161630  62.6878930 148.9573360  56.9390950  70.4298210 145.8413720
  57.1021990  69.9603570 145.0233090  57.4043400  69.9221770 146.5062560
  61.7109720  59.5603970 140.8774290  61.2677870  60.3413510 140.5458810
  62.2694710  59.8833860 141.5845230  65.9979530  62.4272490 146.4809610
  65.5358900  62.6355510 147.2929550  65.5957640  61.6131840 146.1780280
  70.9984040  63.6481440 147.6106270  70.1477630  63.3487190 147.9315340
  70.8385830  63.8923450 146.6990090  68.0933750  65.1483190 149.7105060
  68.4187160  64.3146940 149.3707290  68.8814080  65.6711710 149.8583390
  64.8268540  59.1814670 135.7580120  64.2022720  59.1774540 136.4833430
  64.7398660  58.3145630 135.3616090  63.7485620  60.1051300 142.7363890
  64.0457950  61.0114130 142.6555910  64.2971180  59.6170080 142.1223460
  61.5023940  64.6837540 138.6055540  61.2764860  64.4674710 139.5102160
  60.7216470  65.1166000 138.2601510  68.7321700  64.6900910 137.2046190
  68.1330590  65.4136710 137.0209810  69.2801310  64.6277690 136.4222640
  63.9423150  65.5823120 149.2715810  63.8466750  64.6417850 149.1216210
  64.7855130  65.8038190 148.8763880  67.3386570  63.3264450 139.2349470
  67.7316140  63.6436650 138.4218160  67.7003420  62.4476330 139.3493990
  59.0733690  61.9936790 147.4249590  58.6797080  62.8412000 147.6322370
  58.3852090  61.3563160 147.6158230  56.3750740  59.9165250 141.4579670
  56.0863790  60.4868110 142.1704650  57.1196500  59.4369700 141.8210900
  56.5620970  63.8585370 132.6682390  56.4795640  64.8016130 132.8097380
  56.2104030  63.7160280 131.7894740  67.9241710  65.9170200 143.3300250
  67.1922830  66.4257010 143.6790350  67.5266050  65.1000180 143.0289030
  64.3619100  62.5924400 141.7352740  64.3655160  62.1514350 140.8857280
  65.2570220  62.9141730 141.8424560  60.2121480  62.4750890 140.6946950
  59.8721530  62.9526120 141.4514000  59.4498800  62.0216010 140.3348050
  64.4239250  63.5936480 134.7259500  64.5452070  63.5522960 135.6745320
  64.0387760  64.4560630 134.5706230  68.3867620  61.3703880 142.7423190
  68.4040360  61.8212530 143.5865040  68.1383200  60.4709520 142.9556630
  63.4360750  65.9037620 134.1242800  62.8677650  65.4555870 133.4978710
  64.1449750  66.2630400 133.5907950  71.8138370  58.7836060 148.5809570
  72.1384140  58.0525720 149.1067550  71.8494880  58.4649700 147.6790560
  58.5129930  69.8049640 148.0009530  58.1284720  69.1643310 148.5992490
  58.8242120  70.5085760 148.5704260  64.6627070  66.6526180 143.4818150
  65.0297200  66.1784750 144.2279490  64.4732130  67.5267750 143.8226490
  57.5267560  61.3969870 139.6111620  57.2414480  61.0325540 140.4490240
  57.4646420  60.6650330 138.9974760  62.4526440  65.6934820 145.8002360
  62.1483510  66.5726800 146.0252720  63.4072900  65.7534610 145.8359800
  60.9808230  69.8995810 136.3969210  60.2070490  69.3593430 136.2367930
  61.7102860  69.3802420 136.0586970  71.7396210  68.8961170 142.1895600
  72.4595330  69.3916460 141.7991710  71.5378030  68.2179060 141.5449470
  67.2006150  60.2899130 136.3324990  66.3870760  59.7912300 136.2570300
  67.0068100  61.1297380 135.9161340  67.1215010  68.9670230 148.0764600
  67.0552320  68.0465900 147.8222190  66.4920150  69.0645670 148.7909240
  69.9154540  64.6618780 134.6287150  70.8034160  64.9736010 134.4538490
  69.8859630  63.7891030 134.2367730  61.0245630  69.5676190 140.0348020
  61.5424300  68.7644450 139.9804910  60.5729650  69.5055330 140.8764850
  65.9115130  70.8342470 135.3075320  66.2530830  71.5784700 134.8118640
  65.0827840  71.1473590 135.6700150  58.5090170  66.5337560 146.9473720
  58.1505110  67.1991410 147.5347060  58.2144730  65.7021110 147.3186340
  61.7103290  66.9921800 149.8313270  61.4103430  67.1378980 148.9341090
  62.4814530  66.4327090 149.7386660  67.0531740  71.7890800 147.8268400
  67.0676280  70.8571760 147.6087310  66.3456840  71.8750560 148.4658170
  72.1868810  65.9730620 134.0967010  72.1032530  66.4044840 133.2463450
  72.9063000  66.4328970 134.5293830  73.2642950  68.4298140 147.1736980
  72.5391140  69.0226920 146.9766370  73.7918410  68.4221680 146.3750350
  73.2156060  72.8272880 136.8249140  72.5732220  72.1728500 137.0992860
  72.8286720  73.2327970 136.0489810  68.7942540  70.1558310 140.6720830
  69.1466360  69.5586440 140.0122200  67.9104870  69.8302540 140.8429080
  64.8805820  70.9156000 138.0791240  65.5676950  71.4625210 138.4598830
  64.0938240  71.4596730 138.1140850  57.0198220  66.5328820 133.5708320
  57.8893070  66.8153620 133.8544240  56.5288540  67.3464690 133.4557130
  64.1833030  67.9202030 137.6916600  64.6395810  68.7307280 137.9176790
  63.8321240  67.6025170 138.5235090  66.4865640  73.4308370 144.9208900
  67.1307860  73.6367750 145.5982320  66.8495080  72.6696770 144.4679750
  60.0844810  58.2639680 138.1639120  59.9559440  58.2557580 139.1124040
  59.2606830  58.6022770 137.8130130  67.7597720  71.4340720 143.6386350
  68.4019950  70.7333880 143.7518520  68.2847070  72.2139160 143.4583240
  71.6053440  71.7189340 133.3625490  71.3791020  71.0019780 133.9550130
  71.2149640  71.4701780 132.5247240  69.5335340  72.2335620 146.8422410
  69.8691580  72.8202310 147.5200330  68.6135680  72.1028330 147.0720200
  57.3869470  75.7456200 134.1369950  57.7467110  76.3445540 133.4827220
  57.2461810  76.2916090 134.9104980  57.0838740  60.0230800 147.6245820
  56.3697260  60.2227720 148.2298430  57.5033780  59.2470370 147.9960620
  71.1869690  69.6361280 135.0239650  70.8991390  70.0973970 135.8117530
  71.9821860  69.1759050 135.2923870  57.3711330  74.0111060 148.6112350
  57.4802450  73.0705800 148.4707740  56.7191890  74.2765810 147.9626080
  63.4038090  73.1287400 134.9543620  63.3948190  73.8617090 134.3388130
  62.4836450  72.8818980 135.0470580  59.0044730  68.3502290 135.6990380
  58.3972680  69.0901190 135.7085680  59.4794080  68.4401650 134.8728580
  68.5777520  62.5153110 145.3747270  68.9458340  61.6948320 145.7026840
  67.7175720  62.5755000 145.7902920  71.9439550  61.4710050 136.1834830
  71.3152710  61.5755720 135.4693060  71.4491470  61.6906830 136.9728710
  66.3897690  73.1915640 133.6168810  66.4909670  72.9879630 132.6870790
  65.4899430  72.9373920 133.8216590  63.9123580  63.7496000 137.5992710
  63.2039730  64.2182340 138.0406320  64.1968060  63.0918010 138.2337900
  65.5379510  65.1692700 145.5985240  66.0364760  65.6438520 146.2637090
  65.6802460  64.2456220 145.8055270  67.9439010  60.4746660 139.0388500
  67.8206790  60.4932790 138.0898010  68.8923570  60.5225600 139.1586900
  65.0315800  75.7101960 138.3116480  65.2857300  75.6723350 137.3895850
  64.0828280  75.5835290 138.3044730  62.1158600  62.0581080 134.9743420
  62.9649130  62.4951230 134.9083610  61.7489870  62.3701340 135.8015480
  72.7446370  61.3860660 146.4413630  72.2419970  62.1266060 146.7807440
  73.5603030  61.7744660 146.1250420  71.0368380  66.6293840 139.8874990
  70.0958520  66.6444070 140.0622680  71.3512450  65.8429800 140.3335290
  61.0150020  68.3113440 133.4478950  61.7813290  68.1994800 134.0104380
  61.0924710  67.6151410 132.7955720  59.7096780  65.7438510 134.1311840
  59.7900370  64.7966020 134.2429240  60.6016530  66.0745390 134.2372500
  73.0393960  73.8002690 141.5629250  73.1641380  74.6233860 142.0353060
  73.9059520  73.5893420 141.2153400  60.5111490  75.8933900 141.2346380
  61.2473970  75.3449360 141.5054950  60.8952410  76.7589910 141.0952370
  57.3956970  71.9607470 137.1087890  56.4696750  72.2028610 137.0993300
  57.8613400  72.7881730 136.9872640  63.6213800  75.0664210 133.0571950
  64.4142410  75.3553040 132.6053740  63.1018150  74.6356380 132.3784430
  69.7834770  74.9140130 148.9816780  70.7356520  74.8298150 148.9317020
  69.6362990  75.5781840 149.6550570  72.6743970  74.2934340 134.4808690
  72.3885480  73.8799480 133.6662870  72.4763520  75.2222050 134.3609210
  57.2367580  67.5653430 149.3668010  57.7406600  66.9860710 149.9384240
  56.4975000  67.8493660 149.9044380  64.2905520  68.9724420 148.9003530
  63.5251190  69.5409420 148.8158200  64.4721480  68.6800630 148.0071760
  67.3793930  69.3487650 133.5256290  66.8304030  69.7956950 134.1699030
  68.0013190  68.8436900 134.0493960  71.4328870  70.7029750 149.4578550
  72.1738340  71.0405510 148.9546010  70.6701550  70.8721810 148.9048320
  63.0469050  68.3078570 135.4221590  63.4685470  68.1418440 136.2652980
  63.1719890  67.4978800 134.9276730  61.2096470  64.2875120 148.2292570
  60.6792930  63.7966070 147.6015910  61.8784540  64.7159320 147.6950500
  65.5596690  67.3316180 132.6698690  66.0802350  66.6165200 132.3039840
  66.2065090  67.9702050 132.9699200  70.1074530  68.7544580 147.9933760
  70.5215550  68.9089660 148.8424180  69.1725530  68.8799800 148.1559540
  70.5796700  66.0940740 149.9972910  71.1617470  65.3393060 149.9093390
  70.7558470  66.6248180 149.2204390  61.6968770  61.2537490 148.3089860
  61.6025640  60.6358240 147.5840730  61.1166160  61.9803780 148.0819770
  64.4630210  59.8110730 145.3417250  64.0147510  59.8334990 144.4962800
  63.8295410  59.4129750 145.9387550  64.8689760  68.7065060 145.9629690
  65.2877870  69.5497790 145.7905930  63.9498390  68.8437100 145.7336470
  67.2053660  66.4381240 147.3467530  67.3249870  65.8422380 148.0862370
  68.0647660  66.4750930 146.9268830  69.5441560  66.9918430 145.9230040
  69.0176780  67.5161050 145.3195180  69.8872900  67.6245820 146.5539770
  61.9427950  64.3811800 132.3679750  61.7417010  63.5179160 132.7293090
  61.7720000  64.2945160 131.4301350  62.7197180  75.0118070 147.0787420
  62.1818270  75.7364130 146.7596120  62.9731140  74.5348410 146.2884760
  63.9722430  62.9802590 148.6043350  64.5622120  62.6718440 149.2921170
  63.1542670  62.5082340 148.7603250  68.7915860  62.5968400 148.8376370
  68.1031380  61.9349940 148.7726360  69.5121880  62.1506670 149.2824830
  69.4216260  59.1920030 134.8966630  69.7018550  58.3487930 135.2526050
  68.6481990  59.4243140 135.4105380  60.7410750  61.4812420 132.3557630
  61.0436650  61.4879850 131.4476780  61.4805340  61.1310280 132.8525290
  65.5759390  76.2469280 147.3374070  65.5018090  77.1504420 147.6446440
  64.6738230  75.9281180 147.3096140  63.9595680  60.4247040 133.3413830
  63.6117680  59.7471030 132.7616280  64.1608450  59.9636550 134.1557220
  66.1244720  75.4127790 134.9600430  67.0195510  75.7512760 134.9819190
  66.1562350  74.6907200 134.3324710  56.9786680  73.5743870 140.6407690
  57.3089690  72.7064930 140.4086330  57.4077680  73.7802390 141.4712650
  61.5748600  71.9052880 138.3009660  61.2744140  71.7817850 139.2013570
  61.4686090  71.0461470 137.8925390  57.4676890  74.4414460 143.3789320
  57.0307880  74.6215260 144.2113470  58.0354570  75.1989080 143.2371040
  73.1039070  73.9431460 147.6666630  72.5041060  74.0024020 146.9230550
  73.2332970  73.0036440 147.7963480  74.3440520  71.6849280 133.0036340
  73.5133480  71.7525930 133.4743570  74.5212350  72.5753400 132.7003200
  73.7996980  68.4296760 135.5070540  74.5615890  68.9993410 135.6130230
  73.8151350  67.8623960 136.2778850  57.3001320  66.9534690 139.7378200
  56.6450160  66.6846330 139.0937900  58.1379270  66.8439170 139.2880180
  74.8056950  69.2846860 140.3512470  75.1765780  68.5014180 139.9448440
  75.4458880  69.9735960 140.1729770  71.7890710  70.6683440 145.7642790
  70.9750550  71.0980600 146.0268580  72.1964910  71.2801850 145.1511840
  73.8516150  68.7231130 132.6643060  74.1264990  69.6310010 132.5362280
  73.6626890  68.6593660 133.6005050  70.2491760  61.7475980 133.9596690
  70.6676640  61.5606960 133.1193350  69.9427820  60.8955030 134.2699620
  73.7481490  66.6600120 137.6572490  73.3725090  65.8928050 137.2253780
  73.0184610  67.0422820 138.1447420  58.3377250  67.3387260 144.2781540
  58.7050290  67.2514660 145.1577560  57.7688070  66.5753810 144.1788400
  73.1381110  65.8071640 147.2912010  72.9067200  65.5784390 146.3909960
  73.3985660  66.7271190 147.2456900  57.8893250  64.2496350 148.1839960
  56.9949300  64.2163110 148.5233670  58.4290800  64.4483140 148.9491210
  56.5139400  64.1633620 135.6803530  55.6103480  64.4263820 135.5055190
  56.9980020  64.4344790 134.9003490  73.0232450  64.8857610 140.9579730
  73.5469930  64.3920260 140.3269900  73.6091870  65.0207970 141.7027300
  73.2022170  64.9697480 144.4799280  72.2524880  64.9361020 144.5944270
  73.3835180  65.8797590 144.2449050  59.0566610  63.2199160 133.5897910
  59.7658310  62.7982380 133.1045190  58.3406550  63.2874390 132.9581260
  58.7040770  59.2738490 132.6300560  59.4268900  59.8147430 132.9481780
  58.9765290  59.0001910 131.7542100  72.5132420  64.1430960 136.8972140
  73.0091540  63.9101830 137.6821020  72.3148490  63.3042800 136.4809780
  58.3932960  58.5244680 142.5323180  59.0409150  57.9742060 142.0918340
  58.8134800  58.7787830 143.3538990  73.9419580  62.7791910 139.4309820
  73.8318860  62.6247950 140.3692090  74.7027170  62.2512850 139.1885230
  72.2885300  58.7186040 145.8892820  72.9257520  59.3320180 146.2552010
  72.4360190  58.7546700 144.9442050  74.8309850  60.6099830 132.6715960
  75.7559160  60.4781010 132.4634250  74.8085640  60.6892650 133.6252410
  74.9048340  61.3810490 135.2972670  74.1099840  61.3155610 135.8265580
  75.1091620  62.3161130 135.2858020  71.8466760  75.4202040 139.2911060
  72.4425830  75.0986610 138.6145480  72.1044910  74.9473860 140.0824330
  58.1464960  58.6800350 145.2748500  57.7979780  59.1364170 146.0406680
  57.8152660  57.7857480 145.3570930  63.4535360  73.4079540 145.0411410
  63.2126720  73.6754100 144.1541930  64.3938000  73.5785270 145.0962270
  65.6589780  59.8712230 148.7967920  65.5978670  60.4634060 149.5463330
  66.5990160  59.7638190 148.6518180  68.2964340  59.5282290 148.4360210
  68.9104750  59.8461580 147.7741290  68.8413900  59.0430880 149.0556070
  74.7139520  75.4273920 145.8422050  74.2197800  75.8242790 145.1249180
  74.1052810  74.8023130 146.2359330  58.8185600  58.2076550 148.5499270
  59.3668590  58.0264600 147.7865380  58.8840910  57.4170660 149.0855580
  59.5917360  74.7982200 146.5599470  58.9977680  74.6666900 147.2989510
  59.5841200  73.9620340 146.0941570  69.0372380  58.0914430 144.7629500
  68.1632220  58.4249540 144.5602430  68.9283130  57.6187610 145.5881370
  69.9444360  60.2985300 146.1471220  69.6157720  59.4837060 145.7672950
  70.8926660  60.2555110 146.0236910  72.3978970  76.0697340 143.1208790
  71.9381940  76.8213150 142.7466810  71.7691430  75.3503810 143.0623590
  59.2229590  72.1640580 145.5107510  58.4963650  71.5445870 145.4433460
  59.2838740  72.5581190 144.6405590  62.8274690  74.3785580 142.2956920
  63.3439710  73.7672940 141.7705180  63.4772070  74.8814360 142.7867930
  65.5670190  75.2694070 143.1225900  65.8548000  75.0148370 142.2458910
  66.0793410  74.7171430 143.7131470  66.7847200  59.0084270 143.7022410
  66.0018990  59.4829770 143.9819170  66.4910130  58.1039100 143.5935590
  71.3368270  59.7107370 141.7471500  71.7776360  59.6552470 140.8993100
  71.0675860  60.6265380 141.8181680  73.2006840  59.3422610 139.7580320
  73.1395240  58.3983830 139.6111340  73.9798870  59.4502700 140.3033780
  57.5059590  75.4814970 138.7204270  57.3381630  74.8485650 139.4186160
  56.6394100  75.6874370 138.3698460  58.1287610  59.3131750 136.2236130
  58.8866970  59.4260630 135.6500160  57.6664780  60.1500950 136.1779560
  64.6701420  61.4271020 139.2138440  63.8575930  61.0527910 138.8734320
  65.1743060  60.6716100 139.5159630  69.1726400  58.0913470 140.4521510
  69.7755770  58.6633680 140.9270030  68.4319390  58.6552910 140.2295410
  72.3161000  58.4935030 135.7261790  72.5111630  59.3918480 135.9929220
  71.5290870  58.2622110 136.2194740  59.1122290  74.1748200 136.1654410
  58.5869910  74.5556230 135.4616370  59.0366870  74.7998970 136.8864120
  60.5012760  59.8395800 134.7638100  61.0305520  59.0525600 134.6346050
  61.1341080  60.5186990 134.9973630  62.6950600  59.5770940 137.8183490
  62.0653340  58.8758250 137.9853620  62.1555740  60.3375070 137.6016650
  73.8687610  75.7335740 137.4868350  74.0439800  75.0473480 136.8429270
  73.1709180  76.2582790 137.0945020  61.7115260  76.1230580 135.0403660
  62.4434080  75.8389860 134.4927550  61.9708930  75.8843860 135.9303040
  60.8730050  72.2395310 135.0449990  60.2438930  72.7080410 135.5935820
  60.9877880  71.3944530 135.4796180  68.3279770  66.2900970 121.1951190
  68.2473820  65.3755580 120.9242900  67.9144190  66.7868040 120.4890900
  66.4597810  68.0679990 123.0760460  65.6839910  67.5880430 123.3659030
  67.1110740  67.3885640 122.9016620  70.4805240  72.4740180 121.8559590
  70.0186770  71.7027420 122.1846760  71.2930790  72.5006250 122.3612040
  60.4564900  72.4139890 124.1494240  60.7592940  71.5237630 123.9704460
  61.2008490  72.9710110 123.9216490  58.8855590  63.3401690 117.7378610
  57.9972290  63.6817660 117.6358490  59.1696780  63.1402010 116.8459440
  66.7068550  74.7598190 121.4763580  66.0879990  75.2155690 120.9058020
  67.5620330  74.9149650 121.0753280  58.0913470  61.3491700 125.4087240
  57.9116310  60.4517450 125.6890000  57.6893550  61.8963570 126.0834190
  66.9311970  63.5507560 123.3099550  67.3076790  62.6779440 123.1973220
  66.8331480  63.8866260 122.4189990  61.1860810  59.5318120 127.3705590
  61.1879250  60.0490510 126.5651490  60.3565120  59.0548300 127.3475520
  67.5731900  69.6437430 118.8695490  66.9549170  70.1086880 118.3058210
  68.0855150  70.3364910 119.2865000  62.4363660  69.1713300 125.5479090
  62.1033040  69.7982220 126.1900160  62.6130340  69.6975180 124.7680760
  60.8676140  61.2428080 125.3776040  61.2092950  62.0870130 125.0829910
  59.9291950  61.3911820 125.4941380  56.9415100  70.3293960 116.2435120
  56.5643080  70.8181060 115.5120020  57.1988170  71.0019240 116.8741650
  72.5660350  72.6033510 125.2782910  71.8823870  73.2732620 125.2699580
  73.1054640  72.8014160 124.5127770  64.5504030  58.7310350 121.7020630
  64.8579010  58.1757240 120.9856130  63.6204730  58.8654810 121.5193620
  70.1019090  74.4477640 123.9928090  70.1146250  74.0439930 123.1250350
  69.5494310  75.2224930 123.8889520  71.3964510  71.1693860 119.0818260
  71.2860840  70.2268190 119.2067680  71.3932760  71.5309500 119.9681020
  69.5004530  69.3507480 125.3210700  69.9173320  69.1367590 124.4864160
  70.2244350  69.6080270 125.8919320  66.9384790  66.7959180 118.4380750
  66.0114070  66.7296560 118.6669220  67.0909610  67.7339310 118.3235990
  66.9253870  63.0676180 115.4347910  65.9857540  63.2290140 115.5200370
  67.2437130  63.7861860 114.8883900  70.9682080  68.3579480 118.9416000
  70.3494500  68.0199030 118.2942300  70.9506530  67.7139240 119.6495190
  63.0123130  71.0091480 123.3839690  62.7151420  70.4036950 122.7047470
  63.9622950  71.0468790 123.2729050  71.1008740  74.5823350 127.0462790
  70.6239300  75.3895540 126.8535400  70.4170530  73.9301680 127.1989000
  69.1446780  67.5966290 115.9488750  69.5840060  66.7588720 115.8026570
  69.8575200  68.2295690 116.0352890  60.9312780  67.6186490 128.6104860
  60.7920550  68.4909290 128.9792260  60.0494140  67.2759300 128.4652800
  67.2542160  72.5362360 119.9169990  67.6938070  73.2786690 119.5025380
  67.1929050  72.7788930 120.8408950  72.7263920  58.8509100 114.2629790
  72.4136580  58.9435930 115.1628860  73.4876390  59.4290130 114.2127220
  59.2446060  66.2168900 118.7207130  59.1243660  66.9430990 118.1088400
  58.9346950  65.4471810 118.2435040  74.6807950  74.3435290 132.1154180
  75.1567670  74.8218180 132.7943260  75.3015110  74.2752780 131.3899680
  74.0841200  71.5348140 129.2754190  74.2104260  71.2960020 128.3571370
  74.1262580  70.7032680 129.7476270  69.9212340  75.5231480 117.2733000
  69.7613480  75.2334420 118.1714830  69.7559050  74.7471610 116.7378230
  62.4000720  75.3030010 119.0504620  62.2243200  74.3865550 118.8372420
  61.5456460  75.6617300 119.2902420  69.6238470  73.0319040 115.8331000
  68.9303630  73.0296330 115.1733280  70.3661330  72.6078360 115.4025170
  69.1888400  74.6581750 119.9079490  69.6445350  73.8771130 120.2218110
  69.5280920  75.3688570 120.4520670  65.9979530  62.4272490 127.7066120
  65.5358900  62.6355510 128.5186060  65.5957640  61.6131840 127.4036790
  68.0933750  65.1483190 130.9361570  68.4187160  64.3146940 130.5963800
  68.8814080  65.6711710 131.0839900  64.8268540  59.1814670 116.9836630
  64.2022720  59.1774540 117.7089940  64.7398660  58.3145630 116.5872600
  68.7321700  64.6900910 118.4302700  68.1330590  65.4136710 118.2466320
  69.2801310  64.6277690 117.6479150  63.9423150  65.5823120 130.4972320
  63.8466750  64.6417850 130.3472720  64.7855130  65.8038190 130.1020390
  67.3386570  63.3264450 120.4605980  67.7316140  63.6436650 119.6474670
  67.7003420  62.4476330 120.5750500  59.0733690  61.9936790 128.6506100
  58.6797080  62.8412000 128.8578880  58.3852090  61.3563160 128.8414740
  65.6478740  62.0771760 131.7202840  64.9577060  61.8843960 132.3548930
  66.3911040  62.3606400 132.2527140  56.5620970  63.8585370 113.8938900
  56.4795640  64.8016130 114.0353890  56.2104030  63.7160280 113.0151250
  67.9241710  65.9170200 124.5556760  67.1922830  66.4257010 124.9046860
  67.5266050  65.1000180 124.2545540  64.4239250  63.5936480 115.9516010
  64.5452070  63.5522960 116.9001830  64.0387760  64.4560630 115.7962740
  68.3867620  61.3703880 123.9679700  68.4040360  61.8212530 124.8121550
  68.1383200  60.4709520 124.1813140  63.4360750  65.9037620 115.3499310
  62.8677650  65.4555870 114.7235220  64.1449750  66.2630400 114.8164460
  71.8138370  58.7836060 129.8066080  72.1384140  58.0525720 130.3324060
  71.8494880  58.4649700 128.9047070  64.6627070  66.6526180 124.7074660
  65.0297200  66.1784750 125.4536000  64.4732130  67.5267750 125.0483000
  62.4526440  65.6934820 127.0258870  62.1483510  66.5726800 127.2509230
  63.4072900  65.7534610 127.0616310  60.9808230  69.8995810 117.6225720
  60.2070490  69.3593430 117.4624440  61.7102860  69.3802420 117.2843480
  71.7396210  68.8961170 123.4152110  72.4595330  69.3916460 123.0248220
  71.5378030  68.2179060 122.7705980  67.2006150  60.2899130 117.5581500
  66.3870760  59.7912300 117.4826810  67.0068100  61.1297380 117.1417850
  67.1215010  68.9670230 129.3021110  67.0552320  68.0465900 129.0478700
  66.4920150  69.0645670 130.0165750  69.9154540  64.6618780 115.8543660
  70.8034160  64.9736010 115.6795000  69.8859630  63.7891030 115.4624240
  65.9115130  70.8342470 116.5331830  66.2530830  71.5784700 116.0375150
  65.0827840  71.1473590 116.8956660  61.7103290  66.9921800 131.0569780
  61.4103430  67.1378980 130.1597600  62.4814530  66.4327090 130.9643170
  72.1868810  65.9730620 115.3223520  72.1032530  66.4044840 114.4719960
  72.9063000  66.4328970 115.7550340  73.2156060  72.8272880 118.0505650
  72.5732220  72.1728500 118.3249370  72.8286720  73.2327970 117.2746320
  68.7942540  70.1558310 121.8977340  69.1466360  69.5586440 121.2378710
  67.9104870  69.8302540 122.0685590  64.8805820  70.9156000 119.3047750
  65.5676950  71.4625210 119.6855340  64.0938240  71.4596730 119.3397360
  57.0198220  66.5328820 114.7964830  57.8893070  66.8153620 115.0800750
  56.5288540  67.3464690 114.6813640  64.1833030  67.9202030 118.9173110
  64.6395810  68.7307280 119.1433300  63.8321240  67.6025170 119.7491600
  60.0844810  58.2639680 119.3895630  59.9559440  58.2557580 120.3380550
  59.2606830  58.6022770 119.0386640  71.6053440  71.7189340 114.5882000
  71.3791020  71.0019780 115.1806640  71.2149640  71.4701780 113.7503750
  57.3869470  75.7456200 115.3626460  57.7467110  76.3445540 114.7083730
  57.2461810  76.2916090 116.1361490  57.0838740  60.0230800 128.8502330
  56.3697260  60.2227720 129.4554940  57.5033780  59.2470370 129.2217130
  71.1869690  69.6361280 116.2496160  70.8991390  70.0973970 117.0374040
  71.9821860  69.1759050 116.5180380  63.4038090  73.1287400 116.1800130
  63.3948190  73.8617090 115.5644640  62.4836450  72.8818980 116.2727090
  59.0044730  68.3502290 116.9246890  58.3972680  69.0901190 116.9342190
  59.4794080  68.4401650 116.0985090  68.5777520  62.5153110 126.6003780
  68.9458340  61.6948320 126.9283350  67.7175720  62.5755000 127.0159430
  66.3897690  73.1915640 114.8425320  66.4909670  72.9879630 113.9127300
  65.4899430  72.9373920 115.0473100  65.5379510  65.1692700 126.8241750
  66.0364760  65.6438520 127.4893600  65.6802460  64.2456220 127.0311780
  65.0315800  75.7101960 119.5372990  65.2857300  75.6723350 118.6152360
  64.0828280  75.5835290 119.5301240  62.1158600  62.0581080 116.1999930
  62.9649130  62.4951230 116.1340120  61.7489870  62.3701340 117.0271990
  61.0150020  68.3113440 114.6735460  61.7813290  68.1994800 115.2360890
  61.0924710  67.6151410 114.0212230  59.7096780  65.7438510 115.3568350
  59.7900370  64.7966020 115.4685750  60.6016530  66.0745390 115.4629010
  60.5111490  75.8933900 122.4602890  61.2473970  75.3449360 122.7311460
  60.8952410  76.7589910 122.3208880  57.3956970  71.9607470 118.3344400
  56.4696750  72.2028610 118.3249810  57.8613400  72.7881730 118.2129150
  63.6213800  75.0664210 114.2828460  64.4142410  75.3553040 113.8310250
  63.1018150  74.6356380 113.6040940  68.3534400  71.1859840 131.5963880
  67.7472560  71.2091440 130.8559630  68.0488510  70.4542880 132.1331130
  69.7834770  74.9140130 130.2073290  70.7356520  74.8298150 130.1573530
  69.6362990  75.5781840 130.8807080  72.6743970  74.2934340 115.7065200
  72.3885480  73.8799480 114.8919380  72.4763520  75.2222050 115.5865720
  71.4328870  70.7029750 130.6835060  72.1738340  71.0405510 130.1802520
  70.6701550  70.8721810 130.1304830  59.2690660  65.7083020 131.4874590
  59.3096000  65.4096890 132.3959820  60.1236160  66.1090630 131.3282110
  63.0469050  68.3078570 116.6478100  63.4685470  68.1418440 117.4909490
  63.1719890  67.4978800 116.1533240  61.2096470  64.2875120 129.4549080
  60.6792930  63.7966070 128.8272420  61.8784540  64.7159320 128.9207010
  61.6968770  61.2537490 129.5346370  61.6025640  60.6358240 128.8097240
  61.1166160  61.9803780 129.3076280  64.4630210  59.8110730 126.5673760
  64.0147510  59.8334990 125.7219310  63.8295410  59.4129750 127.1644060
  64.8689760  68.7065060 127.1886200  65.2877870  69.5497790 127.0162440
  63.9498390  68.8437100 126.9592980  67.2053660  66.4381240 128.5724040
  67.3249870  65.8422380 129.3118880  68.0647660  66.4750930 128.1525340
  63.9722430  62.9802590 129.8299860  64.5622120  62.6718440 130.5177680
  63.1542670  62.5082340 129.9859760  68.7915860  62.5968400 130.0632880
  68.1031380  61.9349940 129.9982870  69.5121880  62.1506670 130.5081340
  69.4216260  59.1920030 116.1223140  69.7018550  58.3487930 116.4782560
  68.6481990  59.4243140 116.6361890  66.1244720  75.4127790 116.1856940
  67.0195510  75.7512760 116.2075700  66.1562350  74.6907200 115.5581220
  59.7640880  70.7854840 114.4143940  60.2015750  71.3284510 115.0701520
  60.2488610  69.9601790 114.4240280  56.9786680  73.5743870 121.8664200
  57.3089690  72.7064930 121.6342840  57.4077680  73.7802390 122.6969160
  61.5748600  71.9052880 119.5266170  61.2744140  71.7817850 120.4270080
  61.4686090  71.0461470 119.1181900  57.4676890  74.4414460 124.6045830
  57.0307880  74.6215260 125.4369980  58.0354570  75.1989080 124.4627550
  73.1039070  73.9431460 128.8923140  72.5041060  74.0024020 128.1487060
  73.2332970  73.0036440 129.0219990  74.3440520  71.6849280 114.2292850
  73.5133480  71.7525930 114.7000080  74.5212350  72.5753400 113.9259710
  73.7996980  68.4296760 116.7327050  74.5615890  68.9993410 116.8386740
  73.8151350  67.8623960 117.5035360  74.8056950  69.2846860 121.5768980
  75.1765780  68.5014180 121.1704950  75.4458880  69.9735960 121.3986280
  71.7890710  70.6683440 126.9899300  70.9750550  71.0980600 127.2525090
  72.1964910  71.2801850 126.3768350  73.8516150  68.7231130 113.8899570
  74.1264990  69.6310010 113.7618790  73.6626890  68.6593660 114.8261560
  70.2491760  61.7475980 115.1853200  70.6676640  61.5606960 114.3449860
  69.9427820  60.8955030 115.4956130  57.8893250  64.2496350 129.4096470
  56.9949300  64.2163110 129.7490180  58.4290800  64.4483140 130.1747720
  71.5769180  61.0328070 131.2948220  72.4539360  61.0411470 131.6782220
  71.5890020  60.2958910 130.6840570  56.5139400  64.1633620 116.9060040
  55.6103480  64.4263820 116.7311700  56.9980020  64.4344790 116.1260000
  59.0566610  63.2199160 114.8154420  59.7658310  62.7982380 114.3301700
  58.3406550  63.2874390 114.1837770  74.8309850  60.6099830 113.8972470
  75.7559160  60.4781010 113.6890760  74.8085640  60.6892650 114.8508920
  74.9048340  61.3810490 116.5229180  74.1099840  61.3155610 117.0522090
  75.1091620  62.3161130 116.5114530  71.8466760  75.4202040 120.5167570
  72.4425830  75.0986610 119.8401990  72.1044910  74.9473860 121.3080840
  65.6589780  59.8712230 130.0224430  65.5978670  60.4634060 130.7719840
  66.5990160  59.7638190 129.8774690  68.2964340  59.5282290 129.6616720
  68.9104750  59.8461580 128.9997800  68.8413900  59.0430880 130.2812580
  58.8185600  58.2076550 129.7755780  59.3668590  58.0264600 129.0121890
  58.8840910  57.4170660 130.3112090  69.0372380  58.0914430 125.9886010
  68.1632220  58.4249540 125.7858940  68.9283130  57.6187610 126.8137880
  69.9444360  60.2985300 127.3727730  69.6157720  59.4837060 126.9929460
  70.8926660  60.2555110 127.2493420  72.3978970  76.0697340 124.3465300
  71.9381940  76.8213150 123.9723320  71.7691430  75.3503810 124.2880100
  59.2229590  72.1640580 126.7364020  58.4963650  71.5445870 126.6689970
  59.2838740  72.5581190 125.8662100  66.7847200  59.0084270 124.9278920
  66.0018990  59.4829770 125.2075680  66.4910130  58.1039100 124.8192100
  57.5059590  75.4814970 119.9460780  57.3381630  74.8485650 120.6442670
  56.6394100  75.6874370 119.5954970  58.1287610  59.3131750 117.4492640
  58.8866970  59.4260630 116.8756670  57.6664780  60.1500950 117.4036070
  72.3161000  58.4935030 116.9518300  72.5111630  59.3918480 117.2185730
  71.5290870  58.2622110 117.4451250  59.1122290  74.1748200 117.3910920
  58.5869910  74.5556230 116.6872880  59.0366870  74.7998970 118.1120630
  60.5012760  59.8395800 115.9894610  61.0305520  59.0525600 115.8602560
  61.1341080  60.5186990 116.2230140  65.6342550  76.1910170 131.7150610
  66.5609860  75.9554440 131.7586570  65.6192980  77.0182170 131.2336640
  62.8206160  58.8554920 131.4792490  62.5390430  59.3588520 130.7153310
  63.2025860  58.0576670 131.1134620  61.7115260  76.1230580 116.2660170
  62.4434080  75.8389860 115.7184060  61.9708930  75.8843860 117.1559550
  60.8730050  72.2395310 116.2706500  60.2438930  72.7080410 116.8192330
  60.9877880  71.3944530 116.7052690  69.4221620  58.2708500 132.0572960
  69.3087070  58.5903110 132.9524480  70.2391360  58.6721010 131.7610240
  72.2020110  75.4180030 131.5391650  72.9945430  74.9229260 131.3317610
  72.4953260  76.0970170 132.1467260  70.5796700  66.0940740 112.4485930
  71.1617470  65.3393060 112.3606410  70.7558470  66.6248180 111.6717410
  65.6342550  76.1910170 112.9407120  66.5609860  75.9554440 112.9843080
  65.6192980  77.0182170 112.4593150  56.9415100  70.3293960  78.6948140
  56.5643080  70.8181060  77.9633040  57.1988170  71.0019240  79.3254670
  71.3964510  71.1693860  81.5331280  71.2860840  70.2268190  81.6580700
  71.3932760  71.5309500  82.4194040  69.9212340  75.5231480  79.7246020
  69.7613480  75.2334420  80.6227850  69.7559050  74.7471610  79.1891250
  69.6238470  73.0319040  78.2844020  68.9303630  73.0296330  77.6246300
  70.3661330  72.6078360  77.8538190  56.5620970  63.8585370  76.3451920
  56.4795640  64.8016130  76.4866910  56.2104030  63.7160280  75.4664270
  73.2156060  72.8272880  80.5018670  72.5732220  72.1728500  80.7762390
  72.8286720  73.2327970  79.7259340  57.0198220  66.5328820  77.2477850
  57.8893070  66.8153620  77.5313770  56.5288540  67.3464690  77.1326660
  60.0844810  58.2639680  81.8408650  59.9559440  58.2557580  82.7893570
  59.2606830  58.6022770  81.4899660  71.6053440  71.7189340  77.0395020
  71.3791020  71.0019780  77.6319660  71.2149640  71.4701780  76.2016770
  57.3869470  75.7456200  77.8139480  57.7467110  76.3445540  77.1596750
  57.2461810  76.2916090  78.5874510  71.1869690  69.6361280  78.7009180
  70.8991390  70.0973970  79.4887060  71.9821860  69.1759050  78.9693400
  63.4038090  73.1287400  78.6313150  63.3948190  73.8617090  78.0157660
  62.4836450  72.8818980  78.7240110  59.0044730  68.3502290  79.3759910
  58.3972680  69.0901190  79.3855210  59.4794080  68.4401650  78.5498110
  66.3897690  73.1915640  77.2938340  66.4909670  72.9879630  76.3640320
  65.4899430  72.9373920  77.4986120  61.0150020  68.3113440  77.1248480
  61.7813290  68.1994800  77.6873910  61.0924710  67.6151410  76.4725250
  57.3956970  71.9607470  80.7857420  56.4696750  72.2028610  80.7762830
  57.8613400  72.7881730  80.6642170  63.6213800  75.0664210  76.7341480
  64.4142410  75.3553040  76.2823270  63.1018150  74.6356380  76.0553960
  72.6743970  74.2934340  78.1578220  72.3885480  73.8799480  77.3432400
  72.4763520  75.2222050  78.0378740  64.1391200  70.2867620  76.5983830
  64.0341840  69.6719970  77.3245210  63.9715420  69.7633510  75.8146840
  67.3793930  69.3487650  77.2025820  66.8304030  69.7956950  77.8468560
  68.0013190  68.8436900  77.7263490  66.1244720  75.4127790  78.6369960
  67.0195510  75.7512760  78.6588720  66.1562350  74.6907200  78.0094240
  59.7640880  70.7854840  76.8656960  60.2015750  71.3284510  77.5214540
  60.2488610  69.9601790  76.8753300  56.9786680  73.5743870  84.3177220
  57.3089690  72.7064930  84.0855860  57.4077680  73.7802390  85.1482180
  61.5748600  71.9052880  81.9779190  61.2744140  71.7817850  82.8783100
  61.4686090  71.0461470  81.5694920  74.3440520  71.6849280  76.6805870
  73.5133480  71.7525930  77.1513100  74.5212350  72.5753400  76.3772730
  56.5139400  64.1633620  79.3573060  55.6103480  64.4263820  79.1824720
  56.9980020  64.4344790  78.5773020  58.7040770  59.2738490  76.3070090
  59.4268900  59.8147430  76.6251310  58.9765290  59.0001910  75.4311630
  57.5059590  75.4814970  82.3973800  57.3381630  74.8485650  83.0955690
  56.6394100  75.6874370  82.0467990  58.1287610  59.3131750  79.9005660
  58.8866970  59.4260630  79.3269690  57.6664780  60.1500950  79.8549090
  59.1122290  74.1748200  79.8423940  58.5869910  74.5556230  79.1385900
  59.0366870  74.7998970  80.5633650  73.8687610  75.7335740  81.1637880
  74.0439800  75.0473480  80.5198800  73.1709180  76.2582790  80.7714550
  61.7115260  76.1230580  78.7173190  62.4434080  75.8389860  78.1697080
  61.9708930  75.8843860  79.6072570  60.8730050  72.2395310  78.7219520
  60.2438930  72.7080410  79.2705350  60.9877880  71.3944530  79.1565710
  56.8488600  65.9407340  67.2987840  57.4204710  65.1729540  67.2991480
  56.8490140  66.2396100  66.3894450  58.0913470  61.3491700  69.0856770
  57.9116310  60.4517450  69.3659530  57.6893550  61.8963570  69.7603720
  58.7100140  63.8452200  67.6939110  59.3910250  64.1090570  68.3126510
  58.3948190  63.0053070  68.0277120  71.1008740  74.5823350  70.7232320
  70.6239300  75.3895540  70.5304930  70.4170530  73.9301680  70.8758530
  62.1041560  70.7473170  73.7117020  61.2070090  70.9713140  73.9590420
  62.1294430  70.8708110  72.7628420  60.9312780  67.6186490  72.2874390
  60.7920550  68.4909290  72.6561790  60.0494140  67.2759300  72.1422330
  62.7293130  73.5608190  74.4959540  62.7008560  73.9651140  73.6287970
  62.5658100  72.6318550  74.3331140  74.6807950  74.3435290  75.7923710
  75.1567670  74.8218180  76.4712790  75.3015110  74.2752780  75.0669210
  56.8831430  69.3884040  68.2045300  56.9611850  69.5232810  67.2601020
  57.4973110  68.6799930  68.3973420  56.9390950  70.4298210  70.7439760
  57.1021990  69.9603570  69.9259130  57.4043400  69.9221770  71.4088600
  56.3750740  59.9165250  66.3605710  56.0863790  60.4868110  67.0730690
  57.1196500  59.4369700  66.7236940  58.5129930  69.8049640  72.9035570
  58.1284720  69.1643310  73.5018530  58.8242120  70.5085760  73.4730300
  58.5090170  66.5337560  71.8499760  58.1505110  67.1991410  72.4373100
  58.2144730  65.7021110  72.2212380  67.0531740  71.7890800  72.7294440
  67.0676280  70.8571760  72.5113350  66.3456840  71.8750560  73.3684210
  57.0838740  60.0230800  72.5271860  56.3697260  60.2227720  73.1324470
  57.5033780  59.2470370  72.8986660  57.3711330  74.0111060  73.5138390
  57.4802450  73.0705800  73.3733780  56.7191890  74.2765810  72.8652120
  65.3623920  72.2826950  74.9136510  65.0420790  71.5636190  75.4582200
  64.6882280  72.9582020  74.9872570  59.5169770  75.0779970  75.3258000
  60.3182500  75.3992020  75.7393400  59.0021590  74.7175550  76.0477910
  68.3534400  71.1859840  75.2733410  67.7472560  71.2091440  74.5329160
  68.0488510  70.4542880  75.8100660  69.7834770  74.9140130  73.8842820
  70.7356520  74.8298150  73.8343060  69.6362990  75.5781840  74.5576610
  57.2367580  67.5653430  74.2694050  57.7406600  66.9860710  74.8410280
  56.4975000  67.8493660  74.8070420  64.2905520  68.9724420  73.8029570
  63.5251190  69.5409420  73.7184240  64.4721480  68.6800630  72.9097800
  59.2690660  65.7083020  75.1644120  59.3096000  65.4096890  76.0729350
  60.1236160  66.1090630  75.0051640  61.2096470  64.2875120  73.1318610
  60.6792930  63.7966070  72.5041950  61.8784540  64.7159320  72.5976540
  62.7197180  75.0118070  71.9813460  62.1818270  75.7364130  71.6622160
  62.9731140  74.5348410  71.1910800  65.5759390  76.2469280  72.2400110
  65.5018090  77.1504420  72.5472480  64.6738230  75.9281180  72.2122180
  57.4676890  74.4414460  68.2815360  57.0307880  74.6215260  69.1139510
  58.0354570  75.1989080  68.1397080  73.1039070  73.9431460  72.5692670
  72.5041060  74.0024020  71.8256590  73.2332970  73.0036440  72.6989520
  57.8893250  64.2496350  73.0866000  56.9949300  64.2163110  73.4259710
  58.4290800  64.4483140  73.8517250  58.7040770  59.2738490  57.5326600
  59.4268900  59.8147430  57.8507820  58.9765290  59.0001910  56.6568140
  59.7529330  71.8519950  74.3427730  59.7098960  71.4812860  75.2242190
  59.8840340  72.7897520  74.4829550  74.7139520  75.4273920  70.7448090
  74.2197800  75.8242790  70.0275220  74.1052810  74.8023130  71.1385370
  59.5917360  74.7982200  71.4625510  58.9977680  74.6666900  72.2015550
  59.5841200  73.9620340  70.9967610  59.2229590  72.1640580  70.4133550
  58.4963650  71.5445870  70.3459500  59.2838740  72.5581190  69.5431630
  58.1287610  59.3131750  61.1262170  58.8866970  59.4260630  60.5526200
  57.6664780  60.1500950  61.0805600  65.6342550  76.1910170  75.3920140
  66.5609860  75.9554440  75.4356100  65.6192980  77.0182170  74.9106170
  72.2020110  75.4180030  75.2161180  72.9945430  74.9229260  75.0087140
  72.4953260  76.0970170  75.8236790  60.4763640  68.3799800  48.8562260
  59.6448520  68.1248510  49.2558770  61.0844620  68.4510570  49.5920180
  58.8855590  63.3401690  42.6404650  57.9972290  63.6817660  42.5384530
  59.1696780  63.1402010  41.7485480  56.8488600  65.9407340  48.5244350
  57.4204710  65.1729540  48.5247990  56.8490140  66.2396100  47.6150960
  61.0616980  61.9233190  43.6743030  61.1683730  62.8236920  43.9811790
  60.1509340  61.8751160  43.3837680  58.7100140  63.8452200  48.9195620
  59.3910250  64.1090570  49.5383020  58.3948190  63.0053070  49.2533630
  56.9415100  70.3293960  41.1461160  56.5643080  70.8181060  40.4146060
  57.1988170  71.0019240  41.7767690  66.9253870  63.0676180  40.3373950
  65.9857540  63.2290140  40.4226410  67.2437130  63.7861860  39.7909940
  61.2570050  64.0967130  49.9025560  61.8084640  64.2062470  49.1278810
  61.7713560  64.4704730  50.6180790  72.7263920  58.8509100  39.1655830
  72.4136580  58.9435930  40.0654900  73.4876390  59.4290130  39.1153260
  59.2446060  66.2168900  43.6233170  59.1243660  66.9430990  43.0114440
  58.9346950  65.4471810  43.1461080  56.8831430  69.3884040  49.4301810
  56.9611850  69.5232810  48.4857530  57.4973110  68.6799930  49.6229930
  58.1279060  71.0884230  45.8407990  57.7207140  71.2298820  44.9861590
  59.0192070  70.8044390  45.6379200  69.6238470  73.0319040  40.7357040
  68.9303630  73.0296330  40.0759320  70.3661330  72.6078360  40.3051210
  64.8268540  59.1814670  41.8862670  64.2022720  59.1774540  42.6115980
  64.7398660  58.3145630  41.4898640  61.5023940  64.6837540  44.7338090
  61.2764860  64.4674710  45.6384710  60.7216470  65.1166000  44.3884060
  56.3750740  59.9165250  47.5862220  56.0863790  60.4868110  48.2987200
  57.1196500  59.4369700  47.9493450  60.2121480  62.4750890  46.8229500
  59.8721530  62.9526120  47.5796550  59.4498800  62.0216010  46.4630600
  64.4239250  63.5936480  40.8542050  64.5452070  63.5522960  41.8027870
  64.0387760  64.4560630  40.6988780  63.4360750  65.9037620  40.2525350
  62.8677650  65.4555870  39.6261260  64.1449750  66.2630400  39.7190500
  57.5267560  61.3969870  45.7394170  57.2414480  61.0325540  46.5772790
  57.4646420  60.6650330  45.1257310  60.9808230  69.8995810  42.5251760
  60.2070490  69.3593430  42.3650480  61.7102860  69.3802420  42.1869520
  67.2006150  60.2899130  42.4607540  66.3870760  59.7912300  42.3852850
  67.0068100  61.1297380  42.0443890  61.0245630  69.5676190  46.1630570
  61.5424300  68.7644450  46.1087460  60.5729650  69.5055330  47.0047400
  58.5090170  66.5337560  53.0756270  58.1505110  67.1991410  53.6629610
  58.2144730  65.7021110  53.4468890  57.0198220  66.5328820  39.6990870
  57.8893070  66.8153620  39.9826790  56.5288540  67.3464690  39.5839680
  60.0844810  58.2639680  44.2921670  59.9559440  58.2557580  45.2406590
  59.2606830  58.6022770  43.9412680  71.6053440  71.7189340  39.4908040
  71.3791020  71.0019780  40.0832680  71.2149640  71.4701780  38.6529790
  63.4038090  73.1287400  41.0826170  63.3948190  73.8617090  40.4670680
  62.4836450  72.8818980  41.1753130  59.0044730  68.3502290  41.8272930
  58.3972680  69.0901190  41.8368230  59.4794080  68.4401650  41.0011130
  66.3897690  73.1915640  39.7451360  66.4909670  72.9879630  38.8153340
  65.4899430  72.9373920  39.9499140  63.9123580  63.7496000  43.7275260
  63.2039730  64.2182340  44.1688870  64.1968060  63.0918010  44.3620450
  62.1158600  62.0581080  41.1025970  62.9649130  62.4951230  41.0366160
  61.7489870  62.3701340  41.9298030  61.0150020  68.3113440  39.5761500
  61.7813290  68.1994800  40.1386930  61.0924710  67.6151410  38.9238270
  59.7096780  65.7438510  40.2594390  59.7900370  64.7966020  40.3711790
  60.6016530  66.0745390  40.3655050  57.3956970  71.9607470  43.2370440
  56.4696750  72.2028610  43.2275850  57.8613400  72.7881730  43.1155190
  63.6213800  75.0664210  39.1854500  64.4142410  75.3553040  38.7336290
  63.1018150  74.6356380  38.5066980  64.1391200  70.2867620  39.0496850
  64.0341840  69.6719970  39.7758230  63.9715420  69.7633510  38.2659860
  67.3793930  69.3487650  39.6538840  66.8304030  69.7956950  40.2981580
  68.0013190  68.8436900  40.1776510  63.0469050  68.3078570  41.5504140
  63.4685470  68.1418440  42.3935530  63.1719890  67.4978800  41.0559280
  65.5596690  67.3316180  38.7981240  66.0802350  66.6165200  38.4322390
  66.2065090  67.9702050  39.0981750  61.9427950  64.3811800  38.4962300
  61.7417010  63.5179160  38.8575640  61.7720000  64.2945160  37.5583900
  69.4216260  59.1920030  41.0249180  69.7018550  58.3487930  41.3808600
  68.6481990  59.4243140  41.5387930  63.9595680  60.4247040  39.4696380
  63.6117680  59.7471030  38.8898830  64.1608450  59.9636550  40.2839770
  59.7640880  70.7854840  39.3169980  60.2015750  71.3284510  39.9727560
  60.2488610  69.9601790  39.3266320  74.3440520  71.6849280  39.1318890
  73.5133480  71.7525930  39.6026120  74.5212350  72.5753400  38.8285750
  57.3001320  66.9534690  45.8660750  56.6450160  66.6846330  45.2220450
  58.1379270  66.8439170  45.4162730  73.8516150  68.7231130  38.7925610
  74.1264990  69.6310010  38.6644830  73.6626890  68.6593660  39.7287600
  70.2491760  61.7475980  40.0879240  70.6676640  61.5606960  39.2475900
  69.9427820  60.8955030  40.3982170  58.3377250  67.3387260  50.4064090
  58.7050290  67.2514660  51.2860110  57.7688070  66.5753810  50.3070950
  57.8893250  64.2496350  54.3122510  56.9949300  64.2163110  54.6516220
  58.4290800  64.4483140  55.0773760  56.5139400  64.1633620  41.8086080
  55.6103480  64.4263820  41.6337740  56.9980020  64.4344790  41.0286040
  74.8309850  60.6099830  38.7998510  75.7559160  60.4781010  38.5916800
  74.8085640  60.6892650  39.7534960  74.9048340  61.3810490  41.4255220
  74.1099840  61.3155610  41.9548130  75.1091620  62.3161130  41.4140570
  58.1287610  59.3131750  42.3518680  58.8866970  59.4260630  41.7782710
  57.6664780  60.1500950  42.3062110  64.6701420  61.4271020  45.3420990
  63.8575930  61.0527910  45.0016870  65.1743060  60.6716100  45.6442180
  72.3161000  58.4935030  41.8544340  72.5111630  59.3918480  42.1211770
  71.5290870  58.2622110  42.3477290  60.5012760  59.8395800  40.8920650
  61.0305520  59.0525600  40.7628600  61.1341080  60.5186990  41.1256180
  62.6950600  59.5770940  43.9466040  62.0653340  58.8758250  44.1136170
  62.1555740  60.3375070  43.7299200  60.8730050  72.2395310  41.1732540
  60.2438930  72.7080410  41.7218370  60.9877880  71.3944530  41.6078730
  68.3279770  66.2900970  27.3233740  68.2473820  65.3755580  27.0525450
  67.9144190  66.7868040  26.6173450  66.4597810  68.0679990  29.2043010
  65.6839910  67.5880430  29.4941580  67.1110740  67.3885640  29.0299170
  60.4763640  68.3799800  30.0818770  59.6448520  68.1248510  30.4815280
  61.0844620  68.4510570  30.8176690  70.4805240  72.4740180  27.9842140
  70.0186770  71.7027420  28.3129310  71.2930790  72.5006250  28.4894590
  60.4564900  72.4139890  30.2776790  60.7592940  71.5237630  30.0987010
  61.2008490  72.9710110  30.0499040  58.8855590  63.3401690  23.8661160
  57.9972290  63.6817660  23.7641040  59.1696780  63.1402010  22.9741990
  56.8488600  65.9407340  29.7500860  57.4204710  65.1729540  29.7504500
  56.8490140  66.2396100  28.8407470  66.7068550  74.7598190  27.6046130
  66.0879990  75.2155690  27.0340570  67.5620330  74.9149650  27.2035830
  65.9006800  70.7437180  29.2113170  65.8315080  69.8027120  29.0502300
  66.6626660  70.8338590  29.7835740  66.9311970  63.5507560  29.4382100
  67.3076790  62.6779440  29.3255770  66.8331480  63.8866260  28.5472540
  61.0616980  61.9233190  24.8999540  61.1683730  62.8236920  25.2068300
  60.1509340  61.8751160  24.6094190  70.7136090  61.0458000  26.3710440
  71.5345710  60.5554570  26.4135920  70.7470170  61.6355660  27.1242280
  62.9024710  64.8919560  29.2324720  63.4102930  65.3900530  29.8729740
  63.4337950  64.1154760  29.0564080  75.0035640  63.0624750  32.9354070
  74.2987810  63.4506460  32.4169180  75.2693560  63.7575040  33.5375000
  67.5731900  69.6437430  24.9978040  66.9549170  70.1086880  24.4340760
  68.0855150  70.3364910  25.4147550  62.4363660  69.1713300  31.6761640
  62.1033040  69.7982220  32.3182710  62.6130340  69.6975180  30.8963310
  70.9497570  62.9858380  29.1437980  70.2453140  63.2743270  29.7241090
  71.3109730  63.7958490  28.7837540  60.8676140  61.2428080  31.5058590
  61.2092950  62.0870130  31.2112460  59.9291950  61.3911820  31.6223930
  61.6482760  71.1394100  33.4910820  62.2656760  71.8145180  33.2095270
  60.7875880  71.5482080  33.3998320  56.9415100  70.3293960  22.3717670
  56.5643080  70.8181060  21.6402570  57.1988170  71.0019240  23.0024200
  72.5660350  72.6033510  31.4065460  71.8823870  73.2732620  31.3982130
  73.1054640  72.8014160  30.6410320  64.5504030  58.7310350  27.8303180
  64.8579010  58.1757240  27.1138680  63.6204730  58.8654810  27.6476170
  70.1019090  74.4477640  30.1210640  70.1146250  74.0439930  29.2532900
  69.5494310  75.2224930  30.0172070  71.3964510  71.1693860  25.2100810
  71.2860840  70.2268190  25.3350230  71.3932760  71.5309500  26.0963570
  69.5004530  69.3507480  31.4493250  69.9173320  69.1367590  30.6146710
  70.2244350  69.6080270  32.0201870  66.9384790  66.7959180  24.5663300
  66.0114070  66.7296560  24.7951770  67.0909610  67.7339310  24.4518540
  73.4466630  67.7494700  31.5409490  72.6185260  67.8187790  31.0659620
  74.0417110  68.3349010  31.0725320  62.5441430  67.3223920  27.3483030
  62.1398430  66.6101170  26.8528930  62.6304550  66.9777160  28.2371070
  63.0123130  71.0091480  29.5122240  62.7151420  70.4036950  28.8330020
  63.9622950  71.0468790  29.4011600  61.2570050  64.0967130  31.1282070
  61.8084640  64.2062470  30.3535320  61.7713560  64.4704730  31.8437300
  71.1008740  74.5823350  33.1745340  70.6239300  75.3895540  32.9817950
  70.4170530  73.9301680  33.3271550  62.1041560  70.7473170  36.1630040
  61.2070090  70.9713140  36.4103440  62.1294430  70.8708110  35.2141440
  60.9312780  67.6186490  34.7387410  60.7920550  68.4909290  35.1074810
  60.0494140  67.2759300  34.5935350  67.2542160  72.5362360  26.0452540
  67.6938070  73.2786690  25.6307930  67.1929050  72.7788930  26.9691500
  62.7293130  73.5608190  36.9472560  62.7008560  73.9651140  36.0800990
  62.5658100  72.6318550  36.7844160  72.7263920  58.8509100  20.3912340
  72.4136580  58.9435930  21.2911410  73.4876390  59.4290130  20.3409770
  59.2446060  66.2168900  24.8489680  59.1243660  66.9430990  24.2370950
  58.9346950  65.4471810  24.3717590  74.6807950  74.3435290  38.2436730
  75.1567670  74.8218180  38.9225810  75.3015110  74.2752780  37.5182230
  56.8831430  69.3884040  30.6558320  56.9611850  69.5232810  29.7114040
  57.4973110  68.6799930  30.8486440  58.1279060  71.0884230  27.0664500
  57.7207140  71.2298820  26.2118100  59.0192070  70.8044390  26.8635710
  74.0841200  71.5348140  35.4036740  74.2104260  71.2960020  34.4853920
  74.1262580  70.7032680  35.8758820  67.9457940  75.2376140  33.9731550
  68.4602610  75.1484150  34.7753980  67.1027020  75.5835840  34.2659460
  69.9212340  75.5231480  23.4015550  69.7613480  75.2334420  24.2997380
  69.7559050  74.7471610  22.8660780  62.4000720  75.3030010  25.1787170
  62.2243200  74.3865550  24.9654970  61.5456460  75.6617300  25.4184970
  69.6238470  73.0319040  21.9613550  68.9303630  73.0296330  21.3015830
  70.3661330  72.6078360  21.5307720  69.1888400  74.6581750  26.0362040
  69.6445350  73.8771130  26.3500660  69.5280920  75.3688570  26.5803220
  73.9365210  63.5880600  36.3686480  73.3209480  64.0960270  35.8401940
  73.6161630  62.6878930  36.3112420  56.9390950  70.4298210  33.1952780
  57.1021990  69.9603570  32.3772150  57.4043400  69.9221770  33.8601620
  61.7109720  59.5603970  28.2313350  61.2677870  60.3413510  27.8997870
  62.2694710  59.8833860  28.9384290  68.0933750  65.1483190  37.0644120
  68.4187160  64.3146940  36.7246350  68.8814080  65.6711710  37.2122450
  64.8268540  59.1814670  23.1119180  64.2022720  59.1774540  23.8372490
  64.7398660  58.3145630  22.7155150  63.7485620  60.1051300  30.0902950
  64.0457950  61.0114130  30.0094970  64.2971180  59.6170080  29.4762520
  61.5023940  64.6837540  25.9594600  61.2764860  64.4674710  26.8641220
  60.7216470  65.1166000  25.6140570  68.7321700  64.6900910  24.5585250
  68.1330590  65.4136710  24.3748870  69.2801310  64.6277690  23.7761700
  63.9423150  65.5823120  36.6254870  63.8466750  64.6417850  36.4755270
  64.7855130  65.8038190  36.2302940  67.3386570  63.3264450  26.5888530
  67.7316140  63.6436650  25.7757220  67.7003420  62.4476330  26.7033050
  65.6478740  62.0771760  37.8485390  64.9577060  61.8843960  38.4831480
  66.3911040  62.3606400  38.3809690  56.3750740  59.9165250  28.8118730
  56.0863790  60.4868110  29.5243710  57.1196500  59.4369700  29.1749960
  67.9241710  65.9170200  30.6839310  67.1922830  66.4257010  31.0329410
  67.5266050  65.1000180  30.3828090  64.3619100  62.5924400  29.0891800
  64.3655160  62.1514350  28.2396340  65.2570220  62.9141730  29.1963620
  60.2121480  62.4750890  28.0486010  59.8721530  62.9526120  28.8053060
  59.4498800  62.0216010  27.6887110  64.4239250  63.5936480  22.0798560
  64.5452070  63.5522960  23.0284380  64.0387760  64.4560630  21.9245290
  68.3867620  61.3703880  30.0962250  68.4040360  61.8212530  30.9404100
  68.1383200  60.4709520  30.3095690  63.4360750  65.9037620  21.4781860
  62.8677650  65.4555870  20.8517770  64.1449750  66.2630400  20.9447010
  58.5129930  69.8049640  35.3548590  58.1284720  69.1643310  35.9531550
  58.8242120  70.5085760  35.9243320  64.6627070  66.6526180  30.8357210
  65.0297200  66.1784750  31.5818550  64.4732130  67.5267750  31.1765550
  57.5267560  61.3969870  26.9650680  57.2414480  61.0325540  27.8029300
  57.4646420  60.6650330  26.3513820  62.4526440  65.6934820  33.1541420
  62.1483510  66.5726800  33.3791780  63.4072900  65.7534610  33.1898860
  60.9808230  69.8995810  23.7508270  60.2070490  69.3593430  23.5906990
  61.7102860  69.3802420  23.4126030  71.7396210  68.8961170  29.5434660
  72.4595330  69.3916460  29.1530770  71.5378030  68.2179060  28.8988530
  67.2006150  60.2899130  23.6864050  66.3870760  59.7912300  23.6109360
  67.0068100  61.1297380  23.2700400  67.1215010  68.9670230  35.4303660
  67.0552320  68.0465900  35.1761250  66.4920150  69.0645670  36.1448300
  61.0245630  69.5676190  27.3887080  61.5424300  68.7644450  27.3343970
  60.5729650  69.5055330  28.2303910  65.9115130  70.8342470  22.6614380
  66.2530830  71.5784700  22.1657700  65.0827840  71.1473590  23.0239210
  61.7103290  66.9921800  37.1852330  61.4103430  67.1378980  36.2880150
  62.4814530  66.4327090  37.0925720  67.0531740  71.7890800  35.1807460
  67.0676280  70.8571760  34.9626370  66.3456840  71.8750560  35.8197230
  73.2642950  68.4298140  34.5276040  72.5391140  69.0226920  34.3305430
  73.7918410  68.4221680  33.7289410  73.2156060  72.8272880  24.1788200
  72.5732220  72.1728500  24.4531920  72.8286720  73.2327970  23.4028870
  68.7942540  70.1558310  28.0259890  69.1466360  69.5586440  27.3661260
  67.9104870  69.8302540  28.1968140  64.8805820  70.9156000  25.4330300
  65.5676950  71.4625210  25.8137890  64.0938240  71.4596730  25.4679910
  57.0198220  66.5328820  20.9247380  57.8893070  66.8153620  21.2083300
  56.5288540  67.3464690  20.8096190  64.1833030  67.9202030  25.0455660
  64.6395810  68.7307280  25.2715850  63.8321240  67.6025170  25.8774150
  66.4865640  73.4308370  32.2747960  67.1307860  73.6367750  32.9521380
  66.8495080  72.6696770  31.8218810  60.0844810  58.2639680  25.5178180
  59.9559440  58.2557580  26.4663100  59.2606830  58.6022770  25.1669190
  67.7597720  71.4340720  30.9925410  68.4019950  70.7333880  31.1057580
  68.2847070  72.2139160  30.8122300  69.5335340  72.2335620  34.1961470
  69.8691580  72.8202310  34.8739390  68.6135680  72.1028330  34.4259260
  57.3869470  75.7456200  21.4909010  57.7467110  76.3445540  20.8366280
  57.2461810  76.2916090  22.2644040  57.3711330  74.0111060  35.9651410
  57.4802450  73.0705800  35.8246800  56.7191890  74.2765810  35.3165140
  65.3623920  72.2826950  37.3649530  65.0420790  71.5636190  37.9095220
  64.6882280  72.9582020  37.4385590  63.4038090  73.1287400  22.3082680
  63.3948190  73.8617090  21.6927190  62.4836450  72.8818980  22.4009640
  59.0044730  68.3502290  23.0529440  58.3972680  69.0901190  23.0624740
  59.4794080  68.4401650  22.2267640  66.3897690  73.1915640  20.9707870
  66.4909670  72.9879630  20.0409850  65.4899430  72.9373920  21.1755650
  63.9123580  63.7496000  24.9531770  63.2039730  64.2182340  25.3945380
  64.1968060  63.0918010  25.5876960  65.5379510  65.1692700  32.9524300
  66.0364760  65.6438520  33.6176150  65.6802460  64.2456220  33.1594330
  67.9439010  60.4746660  26.3927560  67.8206790  60.4932790  25.4437070
  68.8923570  60.5225600  26.5125960  65.0315800  75.7101960  25.6655540
  65.2857300  75.6723350  24.7434910  64.0828280  75.5835290  25.6583790
  62.1158600  62.0581080  22.3282480  62.9649130  62.4951230  22.2622670
  61.7489870  62.3701340  23.1554540  71.0368380  66.6293840  27.2414050
  70.0958520  66.6444070  27.4161740  71.3512450  65.8429800  27.6874350
  61.0150020  68.3113440  20.8018010  61.7813290  68.1994800  21.3643440
  61.0924710  67.6151410  20.1494780  59.7096780  65.7438510  21.4850900
  59.7900370  64.7966020  21.5968300  60.6016530  66.0745390  21.5911560
  73.0393960  73.8002690  28.9168310  73.1641380  74.6233860  29.3892120
  73.9059520  73.5893420  28.5692460  60.5111490  75.8933900  28.5885440
  61.2473970  75.3449360  28.8594010  60.8952410  76.7589910  28.4491430
  57.3956970  71.9607470  24.4626950  56.4696750  72.2028610  24.4532360
  57.8613400  72.7881730  24.3411700  59.5169770  75.0779970  37.7771020
  60.3182500  75.3992020  38.1906420  59.0021590  74.7175550  38.4990930
  63.6213800  75.0664210  20.4111010  64.4142410  75.3553040  19.9592800
  63.1018150  74.6356380  19.7323490  68.3534400  71.1859840  37.7246430
  67.7472560  71.2091440  36.9842180  68.0488510  70.4542880  38.2613680
  69.7834770  74.9140130  36.3355840  70.7356520  74.8298150  36.2856080
  69.6362990  75.5781840  37.0089630  64.1391200  70.2867620  20.2753360
  64.0341840  69.6719970  21.0014740  63.9715420  69.7633510  19.4916370
  64.2905520  68.9724420  36.2542590  63.5251190  69.5409420  36.1697260
  64.4721480  68.6800630  35.3610820  67.3793930  69.3487650  20.8795350
  66.8304030  69.7956950  21.5238090  68.0013190  68.8436900  21.4033020
  71.4328870  70.7029750  36.8117610  72.1738340  71.0405510  36.3085070
  70.6701550  70.8721810  36.2587380  63.0469050  68.3078570  22.7760650
  63.4685470  68.1418440  23.6192040  63.1719890  67.4978800  22.2815790
  65.5596690  67.3316180  20.0237750  66.0802350  66.6165200  19.6578900
  66.2065090  67.9702050  20.3238260  70.1074530  68.7544580  35.3472820
  70.5215550  68.9089660  36.1963240  69.1725530  68.8799800  35.5098600
  70.5796700  66.0940740  37.3511970  71.1617470  65.3393060  37.2632450
  70.7558470  66.6248180  36.5743450  64.4630210  59.8110730  32.6956310
  64.0147510  59.8334990  31.8501860  63.8295410  59.4129750  33.2926610
  64.8689760  68.7065060  33.3168750  65.2877870  69.5497790  33.1444990
  63.9498390  68.8437100  33.0875530  67.2053660  66.4381240  34.7006590
  67.3249870  65.8422380  35.4401430  68.0647660  66.4750930  34.2807890
  69.5441560  66.9918430  33.2769100  69.0176780  67.5161050  32.6734240
  69.8872900  67.6245820  33.9078830  61.9427950  64.3811800  19.7218810
  61.7417010  63.5179160  20.0832150  61.7720000  64.2945160  18.7840410
  62.7197180  75.0118070  34.4326480  62.1818270  75.7364130  34.1135180
  62.9731140  74.5348410  33.6423820  63.9722430  62.9802590  35.9582410
  64.5622120  62.6718440  36.6460230  63.1542670  62.5082340  36.1142310
  69.4216260  59.1920030  22.2505690  69.7018550  58.3487930  22.6065110
  68.6481990  59.4243140  22.7644440  60.7410750  61.4812420  19.7096690
  61.0436650  61.4879850  18.8015840  61.4805340  61.1310280  20.2064350
  65.5759390  76.2469280  34.6913130  65.5018090  77.1504420  34.9985500
  64.6738230  75.9281180  34.6635200  63.9595680  60.4247040  20.6952890
  63.6117680  59.7471030  20.1155340  64.1608450  59.9636550  21.5096280
  66.1244720  75.4127790  22.3139490  67.0195510  75.7512760  22.3358250
  66.1562350  74.6907200  21.6863770  59.7640880  70.7854840  20.5426490
  60.2015750  71.3284510  21.1984070  60.2488610  69.9601790  20.5522830
  56.9786680  73.5743870  27.9946750  57.3089690  72.7064930  27.7625390
  57.4077680  73.7802390  28.8251710  61.5748600  71.9052880  25.6548720
  61.2744140  71.7817850  26.5552630  61.4686090  71.0461470  25.2464450
  57.4676890  74.4414460  30.7328380  57.0307880  74.6215260  31.5652530
  58.0354570  75.1989080  30.5910100  73.1039070  73.9431460  35.0205690
  72.5041060  74.0024020  34.2769610  73.2332970  73.0036440  35.1502540
  57.3001320  66.9534690  27.0917260  56.6450160  66.6846330  26.4476960
  58.1379270  66.8439170  26.6419240  74.8056950  69.2846860  27.7051530
  75.1765780  68.5014180  27.2987500  75.4458880  69.9735960  27.5268830
  71.7890710  70.6683440  33.1181850  70.9750550  71.0980600  33.3807640
  72.1964910  71.2801850  32.5050900  73.7481490  66.6600120  25.0111550
  73.3725090  65.8928050  24.5792840  73.0184610  67.0422820  25.4986480
  58.3377250  67.3387260  31.6320600  58.7050290  67.2514660  32.5116620
  57.7688070  66.5753810  31.5327460  73.1381110  65.8071640  34.6451070
  72.9067200  65.5784390  33.7449020  73.3985660  66.7271190  34.5995960
  56.5139400  64.1633620  23.0342590  55.6103480  64.4263820  22.8594250
  56.9980020  64.4344790  22.2542550  73.2022170  64.9697480  31.8338340
  72.2524880  64.9361020  31.9483330  73.3835180  65.8797590  31.5988110
  59.0566610  63.2199160  20.9436970  59.7658310  62.7982380  20.4584250
  58.3406550  63.2874390  20.3120320  58.7040770  59.2738490  19.9839620
  59.4268900  59.8147430  20.3020840  58.9765290  59.0001910  19.1081160
  58.3932960  58.5244680  29.8862240  59.0409150  57.9742060  29.4457400
  58.8134800  58.7787830  30.7078050  74.8309850  60.6099830  20.0255020
  75.7559160  60.4781010  19.8173310  74.8085640  60.6892650  20.9791470
  71.8466760  75.4202040  26.6450120  72.4425830  75.0986610  25.9684540
  72.1044910  74.9473860  27.4363390  58.1464960  58.6800350  32.6287560
  57.7979780  59.1364170  33.3945740  57.8152660  57.7857480  32.7109990
  59.7529330  71.8519950  36.7940750  59.7098960  71.4812860  37.6755210
  59.8840340  72.7897520  36.9342570  63.4535360  73.4079540  32.3950470
  63.2126720  73.6754100  31.5080990  64.3938000  73.5785270  32.4501330
  74.7139520  75.4273920  33.1961110  74.2197800  75.8242790  32.4788240
  74.1052810  74.8023130  33.5898390  59.5917360  74.7982200  33.9138530
  58.9977680  74.6666900  34.6528570  59.5841200  73.9620340  33.4480630
  69.0372380  58.0914430  32.1168560  68.1632220  58.4249540  31.9141490
  68.9283130  57.6187610  32.9420430  72.3978970  76.0697340  30.4747850
  71.9381940  76.8213150  30.1005870  71.7691430  75.3503810  30.4162650
  59.2229590  72.1640580  32.8646570  58.4963650  71.5445870  32.7972520
  59.2838740  72.5581190  31.9944650  62.8274690  74.3785580  29.6495980
  63.3439710  73.7672940  29.1244240  63.4772070  74.8814360  30.1406990
  65.5670190  75.2694070  30.4764960  65.8548000  75.0148370  29.5997970
  66.0793410  74.7171430  31.0670530  66.7847200  59.0084270  31.0561470
  66.0018990  59.4829770  31.3358230  66.4910130  58.1039100  30.9474650
  71.3368270  59.7107370  29.1010560  71.7776360  59.6552470  28.2532160
  71.0675860  60.6265380  29.1720740  57.5059590  75.4814970  26.0743330
  57.3381630  74.8485650  26.7725220  56.6394100  75.6874370  25.7237520
  58.1287610  59.3131750  23.5775190  58.8866970  59.4260630  23.0039220
  57.6664780  60.1500950  23.5318620  64.6701420  61.4271020  26.5677500
  63.8575930  61.0527910  26.2273380  65.1743060  60.6716100  26.8698690
  69.1726400  58.0913470  27.8060570  69.7755770  58.6633680  28.2809090
  68.4319390  58.6552910  27.5834470  59.1122290  74.1748200  23.5193470
  58.5869910  74.5556230  22.8155430  59.0366870  74.7998970  24.2403180
  60.5012760  59.8395800  22.1177160  61.0305520  59.0525600  21.9885110
  61.1341080  60.5186990  22.3512690  62.6950600  59.5770940  25.1722550
  62.0653340  58.8758250  25.3392680  62.1555740  60.3375070  24.9555710
  65.6342550  76.1910170  37.8433160  66.5609860  75.9554440  37.8869120
  65.6192980  77.0182170  37.3619190  73.8687610  75.7335740  24.8407410
  74.0439800  75.0473480  24.1968330  73.1709180  76.2582790  24.4484080
  62.8206160  58.8554920  37.6075040  62.5390430  59.3588520  36.8435860
  63.2025860  58.0576670  37.2417170  61.7115260  76.1230580  22.3942720
  62.4434080  75.8389860  21.8466610  61.9708930  75.8843860  23.2842100
  60.8730050  72.2395310  22.3989050  60.2438930  72.7080410  22.9474880
  60.9877880  71.3944530  22.8335240  68.3279770  66.2900970   8.5490250
  68.2473820  65.3755580   8.2781960  67.9144190  66.7868040   7.8429960
  66.4597810  68.0679990  10.4299520  65.6839910  67.5880430  10.7198090
  67.1110740  67.3885640  10.2555680  70.4805240  72.4740180   9.2098650
  70.0186770  71.7027420   9.5385820  71.2930790  72.5006250   9.7151100
  60.4564900  72.4139890  11.5033300  60.7592940  71.5237630  11.3243520
  61.2008490  72.9710110  11.2755550  58.8855590  63.3401690   5.0917670
  57.9972290  63.6817660   4.9897550  59.1696780  63.1402010   4.1998500
  56.8488600  65.9407340  10.9757370  57.4204710  65.1729540  10.9761010
  56.8490140  66.2396100  10.0663980  66.7068550  74.7598190   8.8302640
  66.0879990  75.2155690   8.2597080  67.5620330  74.9149650   8.4292340
  65.9006800  70.7437180  10.4369680  65.8315080  69.8027120  10.2758810
  66.6626660  70.8338590  11.0092250  58.0913470  61.3491700  12.7626300
  57.9116310  60.4517450  13.0429060  57.6893550  61.8963570  13.4373250
  66.9311970  63.5507560  10.6638610  67.3076790  62.6779440  10.5512280
  66.8331480  63.8866260   9.7729050  61.0616980  61.9233190   6.1256050
  61.1683730  62.8236920   6.4324810  60.1509340  61.8751160   5.8350700
  70.7136090  61.0458000   7.5966950  71.5345710  60.5554570   7.6392430
  70.7470170  61.6355660   8.3498790  58.7100140  63.8452200  11.3708640
  59.3910250  64.1090570  11.9896040  58.3948190  63.0053070  11.7046650
  62.9024710  64.8919560  10.4581230  63.4102930  65.3900530  11.0986250
  63.4337950  64.1154760  10.2820590  61.1860810  59.5318120  14.7244650
  61.1879250  60.0490510  13.9190550  60.3565120  59.0548300  14.7014580
  67.5731900  69.6437430   6.2234550  66.9549170  70.1086880   5.6597270
  68.0855150  70.3364910   6.6404060  62.4363660  69.1713300  12.9018150
  62.1033040  69.7982220  13.5439220  62.6130340  69.6975180  12.1219820
  70.9497570  62.9858380  10.3694490  70.2453140  63.2743270  10.9497600
  71.3109730  63.7958490  10.0094050  60.8676140  61.2428080  12.7315100
  61.2092950  62.0870130  12.4368970  59.9291950  61.3911820  12.8480440
  56.9415100  70.3293960   3.5974180  56.5643080  70.8181060   2.8659080
  57.1988170  71.0019240   4.2280710  72.5660350  72.6033510  12.6321970
  71.8823870  73.2732620  12.6238640  73.1054640  72.8014160  11.8666830
  74.0184490  62.4313170  10.7603700  73.0709400  62.4652150  10.8919130
  74.3434480  63.2452120  11.1453060  64.5504030  58.7310350   9.0559690
  64.8579010  58.1757240   8.3395190  63.6204730  58.8654810   8.8732680
  70.1019090  74.4477640  11.3467150  70.1146250  74.0439930  10.4789410
  69.5494310  75.2224930  11.2428580  71.3964510  71.1693860   6.4357320
  71.2860840  70.2268190   6.5606740  71.3932760  71.5309500   7.3220080
  69.5004530  69.3507480  12.6749760  69.9173320  69.1367590  11.8403220
  70.2244350  69.6080270  13.2458380  66.9384790  66.7959180   5.7919810
  66.0114070  66.7296560   6.0208280  67.0909610  67.7339310   5.6775050
  66.9253870  63.0676180   2.7886970  65.9857540  63.2290140   2.8739430
  67.2437130  63.7861860   2.2422960  70.9682080  68.3579480   6.2955060
  70.3494500  68.0199030   5.6481360  70.9506530  67.7139240   7.0034250
  70.4108640  64.5364020  13.7120870  69.9979820  65.3617730  13.9660860
  69.6784590  63.9509060  13.5197230  62.5441430  67.3223920   8.5739540
  62.1398430  66.6101170   8.0785440  62.6304550  66.9777160   9.4627580
  63.0123130  71.0091480  10.7378750  62.7151420  70.4036950  10.0586530
  63.9622950  71.0468790  10.6268110  61.2570050  64.0967130  12.3538580
  61.8084640  64.2062470  11.5791830  61.7713560  64.4704730  13.0693810
  71.1008740  74.5823350  14.4001850  70.6239300  75.3895540  14.2074460
  70.4170530  73.9301680  14.5528060  62.1041560  70.7473170  17.3886550
  61.2070090  70.9713140  17.6359950  62.1294430  70.8708110  16.4397950
  69.1446780  67.5966290   3.3027810  69.5840060  66.7588720   3.1565630
  69.8575200  68.2295690   3.3891950  67.2542160  72.5362360   7.2709050
  67.6938070  73.2786690   6.8564440  67.1929050  72.7788930   8.1948010
  62.7293130  73.5608190  18.1729070  62.7008560  73.9651140  17.3057500
  62.5658100  72.6318550  18.0100670  59.2446060  66.2168900   6.0746190
  59.1243660  66.9430990   5.4627460  58.9346950  65.4471810   5.5974100
  58.1279060  71.0884230   8.2921010  57.7207140  71.2298820   7.4374610
  59.0192070  70.8044390   8.0892220  67.9457940  75.2376140  15.1988060
  68.4602610  75.1484150  16.0010490  67.1027020  75.5835840  15.4915970
  69.9212340  75.5231480   4.6272060  69.7613480  75.2334420   5.5253890
  69.7559050  74.7471610   4.0917290  62.4000720  75.3030010   6.4043680
  62.2243200  74.3865550   6.1911480  61.5456460  75.6617300   6.6441480
  69.6238470  73.0319040   3.1870060  68.9303630  73.0296330   2.5272340
  70.3661330  72.6078360   2.7564230  69.1888400  74.6581750   7.2618550
  69.6445350  73.8771130   7.5757170  69.5280920  75.3688570   7.8059730
  61.7109720  59.5603970   9.4569860  61.2677870  60.3413510   9.1254380
  62.2694710  59.8833860  10.1640800  65.9979530  62.4272490  15.0605180
  65.5358900  62.6355510  15.8725120  65.5957640  61.6131840  14.7575850
  64.8268540  59.1814670   4.3375690  64.2022720  59.1774540   5.0629000
  64.7398660  58.3145630   3.9411660  63.7485620  60.1051300  11.3159460
  64.0457950  61.0114130  11.2351480  64.2971180  59.6170080  10.7019030
  61.5023940  64.6837540   7.1851110  61.2764860  64.4674710   8.0897730
  60.7216470  65.1166000   6.8397080  68.7321700  64.6900910   5.7841760
  68.1330590  65.4136710   5.6005380  69.2801310  64.6277690   5.0018210
  63.9423150  65.5823120  17.8511380  63.8466750  64.6417850  17.7011780
  64.7855130  65.8038190  17.4559450  67.3386570  63.3264450   7.8145040
  67.7316140  63.6436650   7.0013730  67.7003420  62.4476330   7.9289560
  56.3750740  59.9165250  10.0375240  56.0863790  60.4868110  10.7500220
  57.1196500  59.4369700  10.4006470  67.9241710  65.9170200  11.9095820
  67.1922830  66.4257010  12.2585920  67.5266050  65.1000180  11.6084600
  64.3619100  62.5924400  10.3148310  64.3655160  62.1514350   9.4652850
  65.2570220  62.9141730  10.4220130  60.2121480  62.4750890   9.2742520
  59.8721530  62.9526120  10.0309570  59.4498800  62.0216010   8.9143620
  64.4239250  63.5936480   3.3055070  64.5452070  63.5522960   4.2540890
  64.0387760  64.4560630   3.1501800  68.3867620  61.3703880  11.3218760
  68.4040360  61.8212530  12.1660610  68.1383200  60.4709520  11.5352200
  63.4360750  65.9037620   2.7038370  62.8677650  65.4555870   2.0774280
  64.1449750  66.2630400   2.1703520  71.8138370  58.7836060  17.1605140
  72.1384140  58.0525720  17.6863120  71.8494880  58.4649700  16.2586130
  64.6627070  66.6526180  12.0613720  65.0297200  66.1784750  12.8075060
  64.4732130  67.5267750  12.4022060  57.5267560  61.3969870   8.1907190
  57.2414480  61.0325540   9.0285810  57.4646420  60.6650330   7.5770330
  62.4526440  65.6934820  14.3797930  62.1483510  66.5726800  14.6048290
  63.4072900  65.7534610  14.4155370  60.9808230  69.8995810   4.9764780
  60.2070490  69.3593430   4.8163500  61.7102860  69.3802420   4.6382540
  71.7396210  68.8961170  10.7691170  72.4595330  69.3916460  10.3787280
  71.5378030  68.2179060  10.1245040  67.2006150  60.2899130   4.9120560
  66.3870760  59.7912300   4.8365870  67.0068100  61.1297380   4.4956910
  67.1215010  68.9670230  16.6560170  67.0552320  68.0465900  16.4017760
  66.4920150  69.0645670  17.3704810  69.9154540  64.6618780   3.2082720
  70.8034160  64.9736010   3.0334060  69.8859630  63.7891030   2.8163300
  61.0245630  69.5676190   8.6143590  61.5424300  68.7644450   8.5600480
  60.5729650  69.5055330   9.4560420  65.9115130  70.8342470   3.8870890
  66.2530830  71.5784700   3.3914210  65.0827840  71.1473590   4.2495720
  61.7103290  66.9921800  18.4108840  61.4103430  67.1378980  17.5136660
  62.4814530  66.4327090  18.3182230  67.0531740  71.7890800  16.4063970
  67.0676280  70.8571760  16.1882880  66.3456840  71.8750560  17.0453740
  72.1868810  65.9730620   2.6762580  72.1032530  66.4044840   1.8259020
  72.9063000  66.4328970   3.1089400  73.2156060  72.8272880   5.4044710
  72.5732220  72.1728500   5.6788430  72.8286720  73.2327970   4.6285380
  68.7942540  70.1558310   9.2516400  69.1466360  69.5586440   8.5917770
  67.9104870  69.8302540   9.4224650  64.8805820  70.9156000   6.6586810
  65.5676950  71.4625210   7.0394400  64.0938240  71.4596730   6.6936420
  57.0198220  66.5328820   2.1503890  57.8893070  66.8153620   2.4339810
  56.5288540  67.3464690   2.0352700  64.1833030  67.9202030   6.2712170
  64.6395810  68.7307280   6.4972360  63.8321240  67.6025170   7.1030660
  66.4865640  73.4308370  13.5004470  67.1307860  73.6367750  14.1777890
  66.8495080  72.6696770  13.0475320  60.0844810  58.2639680   6.7434690
  59.9559440  58.2557580   7.6919610  59.2606830  58.6022770   6.3925700
  67.7597720  71.4340720  12.2181920  68.4019950  70.7333880  12.3314090
  68.2847070  72.2139160  12.0378810  69.5335340  72.2335620  15.4217980
  69.8691580  72.8202310  16.0995900  68.6135680  72.1028330  15.6515770
  57.3869470  75.7456200   2.7165520  57.7467110  76.3445540   2.0622790
  57.2461810  76.2916090   3.4900550  71.1869690  69.6361280   3.6035220
  70.8991390  70.0973970   4.3913100  71.9821860  69.1759050   3.8719440
  57.3711330  74.0111060  17.1907920  57.4802450  73.0705800  17.0503310
  56.7191890  74.2765810  16.5421650  65.3623920  72.2826950  18.5906040
  65.0420790  71.5636190  19.1351730  64.6882280  72.9582020  18.6642100
  63.4038090  73.1287400   3.5339190  63.3948190  73.8617090   2.9183700
  62.4836450  72.8818980   3.6266150  59.0044730  68.3502290   4.2785950
  58.3972680  69.0901190   4.2881250  59.4794080  68.4401650   3.4524150
  68.5777520  62.5153110  13.9542840  68.9458340  61.6948320  14.2822410
  67.7175720  62.5755000  14.3698490  71.9439550  61.4710050   4.7630400
  71.3152710  61.5755720   4.0488630  71.4491470  61.6906830   5.5524280
  63.9123580  63.7496000   6.1788280  63.2039730  64.2182340   6.6201890
  64.1968060  63.0918010   6.8133470  65.5379510  65.1692700  14.1780810
  66.0364760  65.6438520  14.8432660  65.6802460  64.2456220  14.3850840
  67.9439010  60.4746660   7.6184070  67.8206790  60.4932790   6.6693580
  68.8923570  60.5225600   7.7382470  65.0315800  75.7101960   6.8912050
  65.2857300  75.6723350   5.9691420  64.0828280  75.5835290   6.8840300
  62.1158600  62.0581080   3.5538990  62.9649130  62.4951230   3.4879180
  61.7489870  62.3701340   4.3811050  72.7446370  61.3860660  15.0209200
  72.2419970  62.1266060  15.3603010  73.5603030  61.7744660  14.7045990
  71.0368380  66.6293840   8.4670560  70.0958520  66.6444070   8.6418250
  71.3512450  65.8429800   8.9130860  59.7096780  65.7438510   2.7107410
  59.7900370  64.7966020   2.8224810  60.6016530  66.0745390   2.8168070
  73.0393960  73.8002690  10.1424820  73.1641380  74.6233860  10.6148630
  73.9059520  73.5893420   9.7948970  60.5111490  75.8933900   9.8141950
  61.2473970  75.3449360  10.0850520  60.8952410  76.7589910   9.6747940
  57.3956970  71.9607470   5.6883460  56.4696750  72.2028610   5.6788870
  57.8613400  72.7881730   5.5668210  59.5169770  75.0779970  19.0027530
  60.3182500  75.3992020  19.4162930  59.0021590  74.7175550  19.7247440
  68.3534400  71.1859840  18.9502940  67.7472560  71.2091440  18.2098690
  68.0488510  70.4542880  19.4870190  69.7834770  74.9140130  17.5612350
  70.7356520  74.8298150  17.5112590  69.6362990  75.5781840  18.2346140
  72.6743970  74.2934340   3.0604260  72.3885480  73.8799480   2.2458440
  72.4763520  75.2222050   2.9404780  64.2905520  68.9724420  17.4799100
  63.5251190  69.5409420  17.3953770  64.4721480  68.6800630  16.5867330
  67.3793930  69.3487650   2.1051860  66.8304030  69.7956950   2.7494600
  68.0013190  68.8436900   2.6289530  59.2690660  65.7083020  18.8413650
  59.3096000  65.4096890  19.7498880  60.1236160  66.1090630  18.6821170
  63.0469050  68.3078570   4.0017160  63.4685470  68.1418440   4.8448550
  63.1719890  67.4978800   3.5072300  61.2096470  64.2875120  16.8088140
  60.6792930  63.7966070  16.1811480  61.8784540  64.7159320  16.2746070
  61.6968770  61.2537490  16.8885430  61.6025640  60.6358240  16.1636300
  61.1166160  61.9803780  16.6615340  64.4630210  59.8110730  13.9212820
  64.0147510  59.8334990  13.0758370  63.8295410  59.4129750  14.5183120
  64.8689760  68.7065060  14.5425260  65.2877870  69.5497790  14.3701500
  63.9498390  68.8437100  14.3132040  69.5441560  66.9918430  14.5025610
  69.0176780  67.5161050  13.8990750  69.8872900  67.6245820  15.1335340
  62.7197180  75.0118070  15.6582990  62.1818270  75.7364130  15.3391690
  62.9731140  74.5348410  14.8680330  63.9722430  62.9802590  17.1838920
  64.5622120  62.6718440  17.8716740  63.1542670  62.5082340  17.3398820
  69.4216260  59.1920030   3.4762200  69.7018550  58.3487930   3.8321620
  68.6481990  59.4243140   3.9900950  65.5759390  76.2469280  15.9169640
  65.5018090  77.1504420  16.2242010  64.6738230  75.9281180  15.8891710
  66.1244720  75.4127790   3.5396000  67.0195510  75.7512760   3.5614760
  66.1562350  74.6907200   2.9120280  59.7640880  70.7854840   1.7683000
  60.2015750  71.3284510   2.4240580  60.2488610  69.9601790   1.7779340
  56.9786680  73.5743870   9.2203260  57.3089690  72.7064930   8.9881900
  57.4077680  73.7802390  10.0508220  61.5748600  71.9052880   6.8805230
  61.2744140  71.7817850   7.7809140  61.4686090  71.0461470   6.4720960
  57.4676890  74.4414460  11.9584890  57.0307880  74.6215260  12.7909040
  58.0354570  75.1989080  11.8166610  73.1039070  73.9431460  16.2462200
  72.5041060  74.0024020  15.5026120  73.2332970  73.0036440  16.3759050
  73.7996980  68.4296760   4.0866110  74.5615890  68.9993410   4.1925800
  73.8151350  67.8623960   4.8574420  57.3001320  66.9534690   8.3173770
  56.6450160  66.6846330   7.6733470  58.1379270  66.8439170   7.8675750
  74.8056950  69.2846860   8.9308040  75.1765780  68.5014180   8.5244010
  75.4458880  69.9735960   8.7525340  70.2491760  61.7475980   2.5392260
  70.6676640  61.5606960   1.6988920  69.9427820  60.8955030   2.8495190
  73.7481490  66.6600120   6.2368060  73.3725090  65.8928050   5.8049350
  73.0184610  67.0422820   6.7242990  71.5769180  61.0328070  18.6487280
  72.4539360  61.0411470  19.0321280  71.5890020  60.2958910  18.0379630
  56.5139400  64.1633620   4.2599100  55.6103480  64.4263820   4.0850760
  56.9980020  64.4344790   3.4799060  73.0232450  64.8857610   9.5375300
  73.5469930  64.3920260   8.9065470  73.6091870  65.0207970  10.2822870
  73.2022170  64.9697480  13.0594850  72.2524880  64.9361020  13.1739840
  73.3835180  65.8797590  12.8244620  72.5132420  64.1430960   5.4767710
  73.0091540  63.9101830   6.2616590  72.3148490  63.3042800   5.0605350
  58.3932960  58.5244680  11.1118750  59.0409150  57.9742060  10.6713910
  58.8134800  58.7787830  11.9334560  73.9419580  62.7791910   8.0105390
  73.8318860  62.6247950   8.9487660  74.7027170  62.2512850   7.7680800
  72.2885300  58.7186040  14.4688390  72.9257520  59.3320180  14.8347580
  72.4360190  58.7546700  13.5237620  74.9048340  61.3810490   3.8768240
  74.1099840  61.3155610   4.4061150  75.1091620  62.3161130   3.8653590
  71.8466760  75.4202040   7.8706630  72.4425830  75.0986610   7.1941050
  72.1044910  74.9473860   8.6619900  58.1464960  58.6800350  13.8544070
  57.7979780  59.1364170  14.6202250  57.8152660  57.7857480  13.9366500
  63.4535360  73.4079540  13.6206980  63.2126720  73.6754100  12.7337500
  64.3938000  73.5785270  13.6757840  65.6589780  59.8712230  17.3763490
  65.5978670  60.4634060  18.1258900  66.5990160  59.7638190  17.2313750
  68.2964340  59.5282290  17.0155780  68.9104750  59.8461580  16.3536860
  68.8413900  59.0430880  17.6351640  74.7139520  75.4273920  14.4217620
  74.2197800  75.8242790  13.7044750  74.1052810  74.8023130  14.8154900
  58.8185600  58.2076550  17.1294840  59.3668590  58.0264600  16.3660950
  58.8840910  57.4170660  17.6651150  59.5917360  74.7982200  15.1395040
  58.9977680  74.6666900  15.8785080  59.5841200  73.9620340  14.6737140
  69.0372380  58.0914430  13.3425070  68.1632220  58.4249540  13.1398000
  68.9283130  57.6187610  14.1676940  69.9444360  60.2985300  14.7266790
  69.6157720  59.4837060  14.3468520  70.8926660  60.2555110  14.6032480
  72.3978970  76.0697340  11.7004360  71.9381940  76.8213150  11.3262380
  71.7691430  75.3503810  11.6419160  62.8274690  74.3785580  10.8752490
  63.3439710  73.7672940  10.3500750  63.4772070  74.8814360  11.3663500
  65.5670190  75.2694070  11.7021470  65.8548000  75.0148370  10.8254480
  66.0793410  74.7171430  12.2927040  66.7847200  59.0084270  12.2817980
  66.0018990  59.4829770  12.5614740  66.4910130  58.1039100  12.1731160
  71.3368270  59.7107370  10.3267070  71.7776360  59.6552470   9.4788670
  71.0675860  60.6265380  10.3977250  73.2006840  59.3422610   8.3375890
  73.1395240  58.3983830   8.1906910  73.9798870  59.4502700   8.8829350
  57.5059590  75.4814970   7.2999840  57.3381630  74.8485650   7.9981730
  56.6394100  75.6874370   6.9494030  58.1287610  59.3131750   4.8031700
  58.8866970  59.4260630   4.2295730  57.6664780  60.1500950   4.7575130
  64.6701420  61.4271020   7.7934010  63.8575930  61.0527910   7.4529890
  65.1743060  60.6716100   8.0955200  69.1726400  58.0913470   9.0317080
  69.7755770  58.6633680   9.5065600  68.4319390  58.6552910   8.8090980
  72.3161000  58.4935030   4.3057360  72.5111630  59.3918480   4.5724790
  71.5290870  58.2622110   4.7990310  59.1122290  74.1748200   4.7449980
  58.5869910  74.5556230   4.0411940  59.0366870  74.7998970   5.4659690
  60.5012760  59.8395800   3.3433670  61.0305520  59.0525600   3.2141620
  61.1341080  60.5186990   3.5769200  62.6950600  59.5770940   6.3979060
  62.0653340  58.8758250   6.5649190  62.1555740  60.3375070   6.1812220
  65.6342550  76.1910170  19.0689670  66.5609860  75.9554440  19.1125630
  65.6192980  77.0182170  18.5875700  73.8687610  75.7335740   6.0663920
  74.0439800  75.0473480   5.4224840  73.1709180  76.2582790   5.6740590
  62.8206160  58.8554920  18.8331550  62.5390430  59.3588520  18.0692370
  63.2025860  58.0576670  18.4673680  61.7115260  76.1230580   3.6199230
  62.4434080  75.8389860   3.0723120  61.9708930  75.8843860   4.5098610
  60.8730050  72.2395310   3.6245560  60.2438930  72.7080410   4.1731390
  60.9877880  71.3944530   4.0591750  69.4221620  58.2708500  19.4112020
  69.3087070  58.5903110  20.3063540  70.2391360  58.6721010  19.1149300
  68.3279770  47.5157480 139.9694680  68.2473820  46.6012090 139.6986390
  67.9144190  48.0124550 139.2634390  66.4597810  49.2936500 141.8503950
  65.6839910  48.8136940 142.1402520  67.1110740  48.6142150 141.6760110
  60.4763640  49.6056310 142.7279710  59.6448520  49.3505020 143.1276220
  61.0844620  49.6767080 143.4637630  70.4805240  53.6996690 140.6303080
  70.0186770  52.9283930 140.9590250  71.2930790  53.7262760 141.1355530
  60.4564900  53.6396400 142.9237730  60.7592940  52.7494140 142.7447950
  61.2008490  54.1966620 142.6959980  58.8855590  44.5658200 136.5122100
  57.9972290  44.9074170 136.4101980  59.1696780  44.3658520 135.6202930
  56.8488600  47.1663850 142.3961800  57.4204710  46.3986050 142.3965440
  56.8490140  47.4652610 141.4868410  66.7068550  55.9854700 140.2507070
  66.0879990  56.4412200 139.6801510  67.5620330  56.1406160 139.8496770
  65.9006800  51.9693690 141.8574110  65.8315080  51.0283630 141.6963240
  66.6626660  52.0595100 142.4296680  58.0913470  42.5748210 144.1830730
  57.9116310  41.6773960 144.4633490  57.6893550  43.1220080 144.8577680
  66.9311970  44.7764070 142.0843040  67.3076790  43.9035950 141.9716710
  66.8331480  45.1122770 141.1933480  61.0616980  43.1489700 137.5460480
  61.1683730  44.0493430 137.8529240  60.1509340  43.1007670 137.2555130
  70.7136090  42.2714510 139.0171380  71.5345710  41.7811080 139.0596860
  70.7470170  42.8612170 139.7703220  58.7100140  45.0708710 142.7913070
  59.3910250  45.3347080 143.4100470  58.3948190  44.2309580 143.1251080
  62.9024710  46.1176070 141.8785660  63.4102930  46.6157040 142.5190680
  63.4337950  45.3411270 141.7025020  75.0035640  44.2881260 145.5815010
  74.2987810  44.6762970 145.0630120  75.2693560  44.9831550 146.1835940
  61.1860810  40.7574630 146.1449080  61.1879250  41.2747020 145.3394980
  60.3565120  40.2804810 146.1219010  67.5731900  50.8693940 137.6438980
  66.9549170  51.3343390 137.0801700  68.0855150  51.5621420 138.0608490
  62.4363660  50.3969810 144.3222580  62.1033040  51.0238730 144.9643650
  62.6130340  50.9231690 143.5424250  70.9497570  44.2114890 141.7898920
  70.2453140  44.4999780 142.3702030  71.3109730  45.0215000 141.4298480
  60.8676140  42.4684590 144.1519530  61.2092950  43.3126640 143.8573400
  59.9291950  42.6168330 144.2684870  61.6482760  52.3650610 146.1371760
  62.2656760  53.0401690 145.8556210  60.7875880  52.7738590 146.0459260
  56.9415100  51.5550470 135.0178610  56.5643080  52.0437570 134.2863510
  57.1988170  52.2275750 135.6485140  72.5660350  53.8290020 144.0526400
  71.8823870  54.4989130 144.0443070  73.1054640  54.0270670 143.2871260
  74.0184490  43.6569680 142.1808130  73.0709400  43.6908660 142.3123560
  74.3434480  44.4708630 142.5657490  64.5504030  39.9566860 140.4764120
  64.8579010  39.4013750 139.7599620  63.6204730  40.0911320 140.2937110
  70.1019090  55.6734150 142.7671580  70.1146250  55.2696440 141.8993840
  69.5494310  56.4481440 142.6633010  71.3964510  52.3950370 137.8561750
  71.2860840  51.4524700 137.9811170  71.3932760  52.7566010 138.7424510
  69.5004530  50.5763990 144.0954190  69.9173320  50.3624100 143.2607650
  70.2244350  50.8336780 144.6662810  66.9384790  48.0215690 137.2124240
  66.0114070  47.9553070 137.4412710  67.0909610  48.9595820 137.0979480
  66.9253870  44.2932690 134.2091400  65.9857540  44.4546650 134.2943860
  67.2437130  45.0118370 133.6627390  73.4466630  48.9751210 144.1870430
  72.6185260  49.0444300 143.7120560  74.0417110  49.5605520 143.7186260
  70.9682080  49.5835990 137.7159490  70.3494500  49.2455540 137.0685790
  70.9506530  48.9395750 138.4238680  70.4108640  45.7620530 145.1325300
  69.9979820  46.5874240 145.3865290  69.6784590  45.1765570 144.9401660
  62.5441430  48.5480430 139.9943970  62.1398430  47.8357680 139.4989870
  62.6304550  48.2033670 140.8832010  63.0123130  52.2347990 142.1583180
  62.7151420  51.6293460 141.4790960  63.9622950  52.2725300 142.0472540
  61.2570050  45.3223640 143.7743010  61.8084640  45.4318980 142.9996260
  61.7713560  45.6961240 144.4898240  71.1008740  55.8079860 145.8206280
  70.6239300  56.6152050 145.6278890  70.4170530  55.1558190 145.9732490
  62.1041560  51.9729680 148.8090980  61.2070090  52.1969650 149.0564380
  62.1294430  52.0964620 147.8602380  69.1446780  48.8222800 134.7232240
  69.5840060  47.9845230 134.5770060  69.8575200  49.4552200 134.8096380
  60.9312780  48.8443000 147.3848350  60.7920550  49.7165800 147.7535750
  60.0494140  48.5015810 147.2396290  67.2542160  53.7618870 138.6913480
  67.6938070  54.5043200 138.2768870  67.1929050  54.0045440 139.6152440
  62.7293130  54.7864700 149.5933500  62.7008560  55.1907650 148.7261930
  62.5658100  53.8575060 149.4305100  72.7263920  40.0765610 133.0373280
  72.4136580  40.1692440 133.9372350  73.4876390  40.6546640 132.9870710
  59.2446060  47.4425410 137.4950620  59.1243660  48.1687500 136.8831890
  58.9346950  46.6728320 137.0178530  56.8831430  50.6140550 143.3019260
  56.9611850  50.7489320 142.3574980  57.4973110  49.9056440 143.4947380
  58.1279060  52.3140740 139.7125440  57.7207140  52.4555330 138.8579040
  59.0192070  52.0300900 139.5096650  74.0841200  52.7604650 148.0497680
  74.2104260  52.5216530 147.1314860  74.1262580  51.9289190 148.5219760
  67.9457940  56.4632650 146.6192490  68.4602610  56.3740660 147.4214920
  67.1027020  56.8092350 146.9120400  69.9212340  56.7487990 136.0476490
  69.7613480  56.4590930 136.9458320  69.7559050  55.9728120 135.5121720
  62.4000720  56.5286520 137.8248110  62.2243200  55.6122060 137.6115910
  61.5456460  56.8873810 138.0645910  69.6238470  54.2575550 134.6074490
  68.9303630  54.2552840 133.9476770  70.3661330  53.8334870 134.1768660
  69.1888400  55.8838260 138.6822980  69.6445350  55.1027640 138.9961600
  69.5280920  56.5945080 139.2264160  73.9365210  44.8137110 149.0147420
  73.3209480  45.3216780 148.4862880  73.6161630  43.9135440 148.9573360
  56.9390950  51.6554720 145.8413720  57.1021990  51.1860080 145.0233090
  57.4043400  51.1478280 146.5062560  61.7109720  40.7860480 140.8774290
  61.2677870  41.5670020 140.5458810  62.2694710  41.1090370 141.5845230
  65.9979530  43.6529000 146.4809610  65.5358900  43.8612020 147.2929550
  65.5957640  42.8388350 146.1780280  70.9984040  44.8737950 147.6106270
  70.1477630  44.5743700 147.9315340  70.8385830  45.1179960 146.6990090
  68.0933750  46.3739700 149.7105060  68.4187160  45.5403450 149.3707290
  68.8814080  46.8968220 149.8583390  64.8268540  40.4071180 135.7580120
  64.2022720  40.4031050 136.4833430  64.7398660  39.5402140 135.3616090
  63.7485620  41.3307810 142.7363890  64.0457950  42.2370640 142.6555910
  64.2971180  40.8426590 142.1223460  61.5023940  45.9094050 138.6055540
  61.2764860  45.6931220 139.5102160  60.7216470  46.3422510 138.2601510
  68.7321700  45.9157420 137.2046190  68.1330590  46.6393220 137.0209810
  69.2801310  45.8534200 136.4222640  63.9423150  46.8079630 149.2715810
  63.8466750  45.8674360 149.1216210  64.7855130  47.0294700 148.8763880
  67.3386570  44.5520960 139.2349470  67.7316140  44.8693160 138.4218160
  67.7003420  43.6732840 139.3493990  59.0733690  43.2193300 147.4249590
  58.6797080  44.0668510 147.6322370  58.3852090  42.5819670 147.6158230
  56.3750740  41.1421760 141.4579670  56.0863790  41.7124620 142.1704650
  57.1196500  40.6626210 141.8210900  56.5620970  45.0841880 132.6682390
  56.4795640  46.0272640 132.8097380  56.2104030  44.9416790 131.7894740
  67.9241710  47.1426710 143.3300250  67.1922830  47.6513520 143.6790350
  67.5266050  46.3256690 143.0289030  64.3619100  43.8180910 141.7352740
  64.3655160  43.3770860 140.8857280  65.2570220  44.1398240 141.8424560
  60.2121480  43.7007400 140.6946950  59.8721530  44.1782630 141.4514000
  59.4498800  43.2472520 140.3348050  64.4239250  44.8192990 134.7259500
  64.5452070  44.7779470 135.6745320  64.0387760  45.6817140 134.5706230
  68.3867620  42.5960390 142.7423190  68.4040360  43.0469040 143.5865040
  68.1383200  41.6966030 142.9556630  63.4360750  47.1294130 134.1242800
  62.8677650  46.6812380 133.4978710  64.1449750  47.4886910 133.5907950
  71.8138370  40.0092570 148.5809570  72.1384140  39.2782230 149.1067550
  71.8494880  39.6906210 147.6790560  58.5129930  51.0306150 148.0009530
  58.1284720  50.3899820 148.5992490  58.8242120  51.7342270 148.5704260
  64.6627070  47.8782690 143.4818150  65.0297200  47.4041260 144.2279490
  64.4732130  48.7524260 143.8226490  57.5267560  42.6226380 139.6111620
  57.2414480  42.2582050 140.4490240  57.4646420  41.8906840 138.9974760
  62.4526440  46.9191330 145.8002360  62.1483510  47.7983310 146.0252720
  63.4072900  46.9791120 145.8359800  60.9808230  51.1252320 136.3969210
  60.2070490  50.5849940 136.2367930  61.7102860  50.6058930 136.0586970
  71.7396210  50.1217680 142.1895600  72.4595330  50.6172970 141.7991710
  71.5378030  49.4435570 141.5449470  67.2006150  41.5155640 136.3324990
  66.3870760  41.0168810 136.2570300  67.0068100  42.3553890 135.9161340
  67.1215010  50.1926740 148.0764600  67.0552320  49.2722410 147.8222190
  66.4920150  50.2902180 148.7909240  69.9154540  45.8875290 134.6287150
  70.8034160  46.1992520 134.4538490  69.8859630  45.0147540 134.2367730
  61.0245630  50.7932700 140.0348020  61.5424300  49.9900960 139.9804910
  60.5729650  50.7311840 140.8764850  65.9115130  52.0598980 135.3075320
  66.2530830  52.8041210 134.8118640  65.0827840  52.3730100 135.6700150
  58.5090170  47.7594070 146.9473720  58.1505110  48.4247920 147.5347060
  58.2144730  46.9277620 147.3186340  61.7103290  48.2178310 149.8313270
  61.4103430  48.3635490 148.9341090  62.4814530  47.6583600 149.7386660
  67.0531740  53.0147310 147.8268400  67.0676280  52.0828270 147.6087310
  66.3456840  53.1007070 148.4658170  72.1868810  47.1987130 134.0967010
  72.1032530  47.6301350 133.2463450  72.9063000  47.6585480 134.5293830
  73.2642950  49.6554650 147.1736980  72.5391140  50.2483430 146.9766370
  73.7918410  49.6478190 146.3750350  73.2156060  54.0529390 136.8249140
  72.5732220  53.3985010 137.0992860  72.8286720  54.4584480 136.0489810
  68.7942540  51.3814820 140.6720830  69.1466360  50.7842950 140.0122200
  67.9104870  51.0559050 140.8429080  64.8805820  52.1412510 138.0791240
  65.5676950  52.6881720 138.4598830  64.0938240  52.6853240 138.1140850
  57.0198220  47.7585330 133.5708320  57.8893070  48.0410130 133.8544240
  56.5288540  48.5721200 133.4557130  64.1833030  49.1458540 137.6916600
  64.6395810  49.9563790 137.9176790  63.8321240  48.8281680 138.5235090
  66.4865640  54.6564880 144.9208900  67.1307860  54.8624260 145.5982320
  66.8495080  53.8953280 144.4679750  60.0844810  39.4896190 138.1639120
  59.9559440  39.4814090 139.1124040  59.2606830  39.8279280 137.8130130
  67.7597720  52.6597230 143.6386350  68.4019950  51.9590390 143.7518520
  68.2847070  53.4395670 143.4583240  71.6053440  52.9445850 133.3625490
  71.3791020  52.2276290 133.9550130  71.2149640  52.6958290 132.5247240
  69.5335340  53.4592130 146.8422410  69.8691580  54.0458820 147.5200330
  68.6135680  53.3284840 147.0720200  57.3869470  56.9712710 134.1369950
  57.7467110  57.5702050 133.4827220  57.2461810  57.5172600 134.9104980
  57.0838740  41.2487310 147.6245820  56.3697260  41.4484230 148.2298430
  57.5033780  40.4726880 147.9960620  71.1869690  50.8617790 135.0239650
  70.8991390  51.3230480 135.8117530  71.9821860  50.4015560 135.2923870
  57.3711330  55.2367570 148.6112350  57.4802450  54.2962310 148.4707740
  56.7191890  55.5022320 147.9626080  63.4038090  54.3543910 134.9543620
  63.3948190  55.0873600 134.3388130  62.4836450  54.1075490 135.0470580
  59.0044730  49.5758800 135.6990380  58.3972680  50.3157700 135.7085680
  59.4794080  49.6658160 134.8728580  68.5777520  43.7409620 145.3747270
  68.9458340  42.9204830 145.7026840  67.7175720  43.8011510 145.7902920
  71.9439550  42.6966560 136.1834830  71.3152710  42.8012230 135.4693060
  71.4491470  42.9163340 136.9728710  66.3897690  54.4172150 133.6168810
  66.4909670  54.2136140 132.6870790  65.4899430  54.1630430 133.8216590
  63.9123580  44.9752510 137.5992710  63.2039730  45.4438850 138.0406320
  64.1968060  44.3174520 138.2337900  65.5379510  46.3949210 145.5985240
  66.0364760  46.8695030 146.2637090  65.6802460  45.4712730 145.8055270
  67.9439010  41.7003170 139.0388500  67.8206790  41.7189300 138.0898010
  68.8923570  41.7482110 139.1586900  65.0315800  56.9358470 138.3116480
  65.2857300  56.8979860 137.3895850  64.0828280  56.8091800 138.3044730
  62.1158600  43.2837590 134.9743420  62.9649130  43.7207740 134.9083610
  61.7489870  43.5957850 135.8015480  72.7446370  42.6117170 146.4413630
  72.2419970  43.3522570 146.7807440  73.5603030  43.0001170 146.1250420
  71.0368380  47.8550350 139.8874990  70.0958520  47.8700580 140.0622680
  71.3512450  47.0686310 140.3335290  61.0150020  49.5369950 133.4478950
  61.7813290  49.4251310 134.0104380  61.0924710  48.8407920 132.7955720
  59.7096780  46.9695020 134.1311840  59.7900370  46.0222530 134.2429240
  60.6016530  47.3001900 134.2372500  73.0393960  55.0259200 141.5629250
  73.1641380  55.8490370 142.0353060  73.9059520  54.8149930 141.2153400
  60.5111490  57.1190410 141.2346380  61.2473970  56.5705870 141.5054950
  60.8952410  57.9846420 141.0952370  57.3956970  53.1863980 137.1087890
  56.4696750  53.4285120 137.0993300  57.8613400  54.0138240 136.9872640
  63.6213800  56.2920720 133.0571950  64.4142410  56.5809550 132.6053740
  63.1018150  55.8612890 132.3784430  69.7834770  56.1396640 148.9816780
  70.7356520  56.0554660 148.9317020  69.6362990  56.8038350 149.6550570
  72.6743970  55.5190850 134.4808690  72.3885480  55.1055990 133.6662870
  72.4763520  56.4478560 134.3609210  57.2367580  48.7909940 149.3668010
  57.7406600  48.2117220 149.9384240  56.4975000  49.0750170 149.9044380
  64.1391200  51.5124130 132.9214300  64.0341840  50.8976480 133.6475680
  63.9715420  50.9890020 132.1377310  64.2905520  50.1980930 148.9003530
  63.5251190  50.7665930 148.8158200  64.4721480  49.9057140 148.0071760
  67.3793930  50.5744160 133.5256290  66.8304030  51.0213460 134.1699030
  68.0013190  50.0693410 134.0493960  71.4328870  51.9286260 149.4578550
  72.1738340  52.2662020 148.9546010  70.6701550  52.0978320 148.9048320
  63.0469050  49.5335080 135.4221590  63.4685470  49.3674950 136.2652980
  63.1719890  48.7235310 134.9276730  61.2096470  45.5131630 148.2292570
  60.6792930  45.0222580 147.6015910  61.8784540  45.9415830 147.6950500
  65.5596690  48.5572690 132.6698690  66.0802350  47.8421710 132.3039840
  66.2065090  49.1958560 132.9699200  70.1074530  49.9801090 147.9933760
  70.5215550  50.1346170 148.8424180  69.1725530  50.1056310 148.1559540
  70.5796700  47.3197250 149.9972910  71.1617470  46.5649570 149.9093390
  70.7558470  47.8504690 149.2204390  61.6968770  42.4794000 148.3089860
  61.6025640  41.8614750 147.5840730  61.1166160  43.2060290 148.0819770
  64.4630210  41.0367240 145.3417250  64.0147510  41.0591500 144.4962800
  63.8295410  40.6386260 145.9387550  64.8689760  49.9321570 145.9629690
  65.2877870  50.7754300 145.7905930  63.9498390  50.0693610 145.7336470
  67.2053660  47.6637750 147.3467530  67.3249870  47.0678890 148.0862370
  68.0647660  47.7007440 146.9268830  69.5441560  48.2174940 145.9230040
  69.0176780  48.7417560 145.3195180  69.8872900  48.8502330 146.5539770
  61.9427950  45.6068310 132.3679750  61.7417010  44.7435670 132.7293090
  61.7720000  45.5201670 131.4301350  62.7197180  56.2374580 147.0787420
  62.1818270  56.9620640 146.7596120  62.9731140  55.7604920 146.2884760
  63.9722430  44.2059100 148.6043350  64.5622120  43.8974950 149.2921170
  63.1542670  43.7338850 148.7603250  68.7915860  43.8224910 148.8376370
  68.1031380  43.1606450 148.7726360  69.5121880  43.3763180 149.2824830
  69.4216260  40.4176540 134.8966630  69.7018550  39.5744440 135.2526050
  68.6481990  40.6499650 135.4105380  60.7410750  42.7068930 132.3557630
  61.0436650  42.7136360 131.4476780  61.4805340  42.3566790 132.8525290
  65.5759390  57.4725790 147.3374070  65.5018090  58.3760930 147.6446440
  64.6738230  57.1537690 147.3096140  63.9595680  41.6503550 133.3413830
  63.6117680  40.9727540 132.7616280  64.1608450  41.1893060 134.1557220
  66.1244720  56.6384300 134.9600430  67.0195510  56.9769270 134.9819190
  66.1562350  55.9163710 134.3324710  59.7640880  52.0111350 133.1887430
  60.2015750  52.5541020 133.8445010  60.2488610  51.1858300 133.1983770
  56.9786680  54.8000380 140.6407690  57.3089690  53.9321440 140.4086330
  57.4077680  55.0058900 141.4712650  61.5748600  53.1309390 138.3009660
  61.2744140  53.0074360 139.2013570  61.4686090  52.2717980 137.8925390
  57.4676890  55.6670970 143.3789320  57.0307880  55.8471770 144.2113470
  58.0354570  56.4245590 143.2371040  73.1039070  55.1687970 147.6666630
  72.5041060  55.2280530 146.9230550  73.2332970  54.2292950 147.7963480
  74.3440520  52.9105790 133.0036340  73.5133480  52.9782440 133.4743570
  74.5212350  53.8009910 132.7003200  73.7996980  49.6553270 135.5070540
  74.5615890  50.2249920 135.6130230  73.8151350  49.0880470 136.2778850
  57.3001320  48.1791200 139.7378200  56.6450160  47.9102840 139.0937900
  58.1379270  48.0695680 139.2880180  74.8056950  50.5103370 140.3512470
  75.1765780  49.7270690 139.9448440  75.4458880  51.1992470 140.1729770
  71.7890710  51.8939950 145.7642790  70.9750550  52.3237110 146.0268580
  72.1964910  52.5058360 145.1511840  73.8516150  49.9487640 132.6643060
  74.1264990  50.8566520 132.5362280  73.6626890  49.8850170 133.6005050
  70.2491760  42.9732490 133.9596690  70.6676640  42.7863470 133.1193350
  69.9427820  42.1211540 134.2699620  73.7481490  47.8856630 137.6572490
  73.3725090  47.1184560 137.2253780  73.0184610  48.2679330 138.1447420
  58.3377250  48.5643770 144.2781540  58.7050290  48.4771170 145.1577560
  57.7688070  47.8010320 144.1788400  73.1381110  47.0328150 147.2912010
  72.9067200  46.8040900 146.3909960  73.3985660  47.9527700 147.2456900
  57.8893250  45.4752860 148.1839960  56.9949300  45.4419620 148.5233670
  58.4290800  45.6739650 148.9491210  56.5139400  45.3890130 135.6803530
  55.6103480  45.6520330 135.5055190  56.9980020  45.6601300 134.9003490
  73.0232450  46.1114120 140.9579730  73.5469930  45.6176770 140.3269900
  73.6091870  46.2464480 141.7027300  73.2022170  46.1953990 144.4799280
  72.2524880  46.1617530 144.5944270  73.3835180  47.1054100 144.2449050
  59.0566610  44.4455670 133.5897910  59.7658310  44.0238890 133.1045190
  58.3406550  44.5130900 132.9581260  58.7040770  40.4995000 132.6300560
  59.4268900  41.0403940 132.9481780  58.9765290  40.2258420 131.7542100
  72.5132420  45.3687470 136.8972140  73.0091540  45.1358340 137.6821020
  72.3148490  44.5299310 136.4809780  58.3932960  39.7501190 142.5323180
  59.0409150  39.1998570 142.0918340  58.8134800  40.0044340 143.3538990
  73.9419580  44.0048420 139.4309820  73.8318860  43.8504460 140.3692090
  74.7027170  43.4769360 139.1885230  72.2885300  39.9442550 145.8892820
  72.9257520  40.5576690 146.2552010  72.4360190  39.9803210 144.9442050
  74.8309850  41.8356340 132.6715960  75.7559160  41.7037520 132.4634250
  74.8085640  41.9149160 133.6252410  74.9048340  42.6067000 135.2972670
  74.1099840  42.5412120 135.8265580  75.1091620  43.5417640 135.2858020
  71.8466760  56.6458550 139.2911060  72.4425830  56.3243120 138.6145480
  72.1044910  56.1730370 140.0824330  58.1464960  39.9056860 145.2748500
  57.7979780  40.3620680 146.0406680  57.8152660  39.0113990 145.3570930
  63.4535360  54.6336050 145.0411410  63.2126720  54.9010610 144.1541930
  64.3938000  54.8041780 145.0962270  65.6589780  41.0968740 148.7967920
  65.5978670  41.6890570 149.5463330  66.5990160  40.9894700 148.6518180
  68.2964340  40.7538800 148.4360210  68.9104750  41.0718090 147.7741290
  68.8413900  40.2687390 149.0556070  74.7139520  56.6530430 145.8422050
  74.2197800  57.0499300 145.1249180  74.1052810  56.0279640 146.2359330
  58.8185600  39.4333060 148.5499270  59.3668590  39.2521110 147.7865380
  58.8840910  38.6427170 149.0855580  59.5917360  56.0238710 146.5599470
  58.9977680  55.8923410 147.2989510  59.5841200  55.1876850 146.0941570
  69.0372380  39.3170940 144.7629500  68.1632220  39.6506050 144.5602430
  68.9283130  38.8444120 145.5881370  69.9444360  41.5241810 146.1471220
  69.6157720  40.7093570 145.7672950  70.8926660  41.4811620 146.0236910
  72.3978970  57.2953850 143.1208790  71.9381940  58.0469660 142.7466810
  71.7691430  56.5760320 143.0623590  59.2229590  53.3897090 145.5107510
  58.4963650  52.7702380 145.4433460  59.2838740  53.7837700 144.6405590
  62.8274690  55.6042090 142.2956920  63.3439710  54.9929450 141.7705180
  63.4772070  56.1070870 142.7867930  65.5670190  56.4950580 143.1225900
  65.8548000  56.2404880 142.2458910  66.0793410  55.9427940 143.7131470
  66.7847200  40.2340780 143.7022410  66.0018990  40.7086280 143.9819170
  66.4910130  39.3295610 143.5935590  71.3368270  40.9363880 141.7471500
  71.7776360  40.8808980 140.8993100  71.0675860  41.8521890 141.8181680
  73.2006840  40.5679120 139.7580320  73.1395240  39.6240340 139.6111340
  73.9798870  40.6759210 140.3033780  57.5059590  56.7071480 138.7204270
  57.3381630  56.0742160 139.4186160  56.6394100  56.9130880 138.3698460
  58.1287610  40.5388260 136.2236130  58.8866970  40.6517140 135.6500160
  57.6664780  41.3757460 136.1779560  64.6701420  42.6527530 139.2138440
  63.8575930  42.2784420 138.8734320  65.1743060  41.8972610 139.5159630
  69.1726400  39.3169980 140.4521510  69.7755770  39.8890190 140.9270030
  68.4319390  39.8809420 140.2295410  72.3161000  39.7191540 135.7261790
  72.5111630  40.6174990 135.9929220  71.5290870  39.4878620 136.2194740
  59.1122290  55.4004710 136.1654410  58.5869910  55.7812740 135.4616370
  59.0366870  56.0255480 136.8864120  60.5012760  41.0652310 134.7638100
  61.0305520  40.2782110 134.6346050  61.1341080  41.7443500 134.9973630
  62.6950600  40.8027450 137.8183490  62.0653340  40.1014760 137.9853620
  62.1555740  41.5631580 137.6016650  73.8687610  56.9592250 137.4868350
  74.0439800  56.2729990 136.8429270  73.1709180  57.4839300 137.0945020
  61.7115260  57.3487090 135.0403660  62.4434080  57.0646370 134.4927550
  61.9708930  57.1100370 135.9303040  60.8730050  53.4651820 135.0449990
  60.2438930  53.9336920 135.5935820  60.9877880  52.6201040 135.4796180
  68.3279770  47.5157480 121.1951190  68.2473820  46.6012090 120.9242900
  67.9144190  48.0124550 120.4890900  66.4597810  49.2936500 123.0760460
  65.6839910  48.8136940 123.3659030  67.1110740  48.6142150 122.9016620
  70.4805240  53.6996690 121.8559590  70.0186770  52.9283930 122.1846760
  71.2930790  53.7262760 122.3612040  58.8855590  44.5658200 117.7378610
  57.9972290  44.9074170 117.6358490  59.1696780  44.3658520 116.8459440
  66.7068550  55.9854700 121.4763580  66.0879990  56.4412200 120.9058020
  67.5620330  56.1406160 121.0753280  65.9006800  51.9693690 123.0830620
  65.8315080  51.0283630 122.9219750  66.6626660  52.0595100 123.6553190
  58.0913470  42.5748210 125.4087240  57.9116310  41.6773960 125.6890000
  57.6893550  43.1220080 126.0834190  66.9311970  44.7764070 123.3099550
  67.3076790  43.9035950 123.1973220  66.8331480  45.1122770 122.4189990
  61.0616980  43.1489700 118.7716990  61.1683730  44.0493430 119.0785750
  60.1509340  43.1007670 118.4811640  70.7136090  42.2714510 120.2427890
  71.5345710  41.7811080 120.2853370  70.7470170  42.8612170 120.9959730
  58.7100140  45.0708710 124.0169580  59.3910250  45.3347080 124.6356980
  58.3948190  44.2309580 124.3507590  62.9024710  46.1176070 123.1042170
  63.4102930  46.6157040 123.7447190  63.4337950  45.3411270 122.9281530
  75.0035640  44.2881260 126.8071520  74.2987810  44.6762970 126.2886630
  75.2693560  44.9831550 127.4092450  61.1860810  40.7574630 127.3705590
  61.1879250  41.2747020 126.5651490  60.3565120  40.2804810 127.3475520
  67.5731900  50.8693940 118.8695490  66.9549170  51.3343390 118.3058210
  68.0855150  51.5621420 119.2865000  62.4363660  50.3969810 125.5479090
  62.1033040  51.0238730 126.1900160  62.6130340  50.9231690 124.7680760
  70.9497570  44.2114890 123.0155430  70.2453140  44.4999780 123.5958540
  71.3109730  45.0215000 122.6554990  60.8676140  42.4684590 125.3776040
  61.2092950  43.3126640 125.0829910  59.9291950  42.6168330 125.4941380
  72.5660350  53.8290020 125.2782910  71.8823870  54.4989130 125.2699580
  73.1054640  54.0270670 124.5127770  74.0184490  43.6569680 123.4064640
  73.0709400  43.6908660 123.5380070  74.3434480  44.4708630 123.7914000
  64.5504030  39.9566860 121.7020630  64.8579010  39.4013750 120.9856130
  63.6204730  40.0911320 121.5193620  70.1019090  55.6734150 123.9928090
  70.1146250  55.2696440 123.1250350  69.5494310  56.4481440 123.8889520
  71.3964510  52.3950370 119.0818260  71.2860840  51.4524700 119.2067680
  71.3932760  52.7566010 119.9681020  69.5004530  50.5763990 125.3210700
  69.9173320  50.3624100 124.4864160  70.2244350  50.8336780 125.8919320
  66.9384790  48.0215690 118.4380750  66.0114070  47.9553070 118.6669220
  67.0909610  48.9595820 118.3235990  66.9253870  44.2932690 115.4347910
  65.9857540  44.4546650 115.5200370  67.2437130  45.0118370 114.8883900
  70.9682080  49.5835990 118.9416000  70.3494500  49.2455540 118.2942300
  70.9506530  48.9395750 119.6495190  70.4108640  45.7620530 126.3581810
  69.9979820  46.5874240 126.6121800  69.6784590  45.1765570 126.1658170
  62.5441430  48.5480430 121.2200480  62.1398430  47.8357680 120.7246380
  62.6304550  48.2033670 122.1088520  63.0123130  52.2347990 123.3839690
  62.7151420  51.6293460 122.7047470  63.9622950  52.2725300 123.2729050
  61.2570050  45.3223640 124.9999520  61.8084640  45.4318980 124.2252770
  61.7713560  45.6961240 125.7154750  71.1008740  55.8079860 127.0462790
  70.6239300  56.6152050 126.8535400  70.4170530  55.1558190 127.1989000
  62.1041560  51.9729680 130.0347490  61.2070090  52.1969650 130.2820890
  62.1294430  52.0964620 129.0858890  69.1446780  48.8222800 115.9488750
  69.5840060  47.9845230 115.8026570  69.8575200  49.4552200 116.0352890
  60.9312780  48.8443000 128.6104860  60.7920550  49.7165800 128.9792260
  60.0494140  48.5015810 128.4652800  67.2542160  53.7618870 119.9169990
  67.6938070  54.5043200 119.5025380  67.1929050  54.0045440 120.8408950
  62.7293130  54.7864700 130.8190010  62.7008560  55.1907650 129.9518440
  62.5658100  53.8575060 130.6561610  72.7263920  40.0765610 114.2629790
  72.4136580  40.1692440 115.1628860  73.4876390  40.6546640 114.2127220
  74.6807950  55.5691800 132.1154180  75.1567670  56.0474690 132.7943260
  75.3015110  55.5009290 131.3899680  67.9457940  56.4632650 127.8449000
  68.4602610  56.3740660 128.6471430  67.1027020  56.8092350 128.1376910
  69.9212340  56.7487990 117.2733000  69.7613480  56.4590930 118.1714830
  69.7559050  55.9728120 116.7378230  62.4000720  56.5286520 119.0504620
  62.2243200  55.6122060 118.8372420  61.5456460  56.8873810 119.2902420
  69.6238470  54.2575550 115.8331000  68.9303630  54.2552840 115.1733280
  70.3661330  53.8334870 115.4025170  69.1888400  55.8838260 119.9079490
  69.6445350  55.1027640 120.2218110  69.5280920  56.5945080 120.4520670
  73.9365210  44.8137110 130.2403930  73.3209480  45.3216780 129.7119390
  73.6161630  43.9135440 130.1829870  61.7109720  40.7860480 122.1030800
  61.2677870  41.5670020 121.7715320  62.2694710  41.1090370 122.8101740
  65.9979530  43.6529000 127.7066120  65.5358900  43.8612020 128.5186060
  65.5957640  42.8388350 127.4036790  70.9984040  44.8737950 128.8362780
  70.1477630  44.5743700 129.1571850  70.8385830  45.1179960 127.9246600
  68.0933750  46.3739700 130.9361570  68.4187160  45.5403450 130.5963800
  68.8814080  46.8968220 131.0839900  64.8268540  40.4071180 116.9836630
  64.2022720  40.4031050 117.7089940  64.7398660  39.5402140 116.5872600
  63.7485620  41.3307810 123.9620400  64.0457950  42.2370640 123.8812420
  64.2971180  40.8426590 123.3479970  61.5023940  45.9094050 119.8312050
  61.2764860  45.6931220 120.7358670  60.7216470  46.3422510 119.4858020
  68.7321700  45.9157420 118.4302700  68.1330590  46.6393220 118.2466320
  69.2801310  45.8534200 117.6479150  63.9423150  46.8079630 130.4972320
  63.8466750  45.8674360 130.3472720  64.7855130  47.0294700 130.1020390
  67.3386570  44.5520960 120.4605980  67.7316140  44.8693160 119.6474670
  67.7003420  43.6732840 120.5750500  59.0733690  43.2193300 128.6506100
  58.6797080  44.0668510 128.8578880  58.3852090  42.5819670 128.8414740
  65.6478740  43.3028270 131.7202840  64.9577060  43.1100470 132.3548930
  66.3911040  43.5862910 132.2527140  56.3750740  41.1421760 122.6836180
  56.0863790  41.7124620 123.3961160  57.1196500  40.6626210 123.0467410
  56.5620970  45.0841880 113.8938900  56.4795640  46.0272640 114.0353890
  56.2104030  44.9416790 113.0151250  67.9241710  47.1426710 124.5556760
  67.1922830  47.6513520 124.9046860  67.5266050  46.3256690 124.2545540
  64.3619100  43.8180910 122.9609250  64.3655160  43.3770860 122.1113790
  65.2570220  44.1398240 123.0681070  60.2121480  43.7007400 121.9203460
  59.8721530  44.1782630 122.6770510  59.4498800  43.2472520 121.5604560
  64.4239250  44.8192990 115.9516010  64.5452070  44.7779470 116.9001830
  64.0387760  45.6817140 115.7962740  68.3867620  42.5960390 123.9679700
  68.4040360  43.0469040 124.8121550  68.1383200  41.6966030 124.1813140
  63.4360750  47.1294130 115.3499310  62.8677650  46.6812380 114.7235220
  64.1449750  47.4886910 114.8164460  71.8138370  40.0092570 129.8066080
  72.1384140  39.2782230 130.3324060  71.8494880  39.6906210 128.9047070
  64.6627070  47.8782690 124.7074660  65.0297200  47.4041260 125.4536000
  64.4732130  48.7524260 125.0483000  57.5267560  42.6226380 120.8368130
  57.2414480  42.2582050 121.6746750  57.4646420  41.8906840 120.2231270
  62.4526440  46.9191330 127.0258870  62.1483510  47.7983310 127.2509230
  63.4072900  46.9791120 127.0616310  71.7396210  50.1217680 123.4152110
  72.4595330  50.6172970 123.0248220  71.5378030  49.4435570 122.7705980
  67.2006150  41.5155640 117.5581500  66.3870760  41.0168810 117.4826810
  67.0068100  42.3553890 117.1417850  67.1215010  50.1926740 129.3021110
  67.0552320  49.2722410 129.0478700  66.4920150  50.2902180 130.0165750
  69.9154540  45.8875290 115.8543660  70.8034160  46.1992520 115.6795000
  69.8859630  45.0147540 115.4624240  65.9115130  52.0598980 116.5331830
  66.2530830  52.8041210 116.0375150  65.0827840  52.3730100 116.8956660
  58.5090170  47.7594070 128.1730230  58.1505110  48.4247920 128.7603570
  58.2144730  46.9277620 128.5442850  61.7103290  48.2178310 131.0569780
  61.4103430  48.3635490 130.1597600  62.4814530  47.6583600 130.9643170
  67.0531740  53.0147310 129.0524910  67.0676280  52.0828270 128.8343820
  66.3456840  53.1007070 129.6914680  72.1868810  47.1987130 115.3223520
  72.1032530  47.6301350 114.4719960  72.9063000  47.6585480 115.7550340
  73.2156060  54.0529390 118.0505650  72.5732220  53.3985010 118.3249370
  72.8286720  54.4584480 117.2746320  68.7942540  51.3814820 121.8977340
  69.1466360  50.7842950 121.2378710  67.9104870  51.0559050 122.0685590
  64.8805820  52.1412510 119.3047750  65.5676950  52.6881720 119.6855340
  64.0938240  52.6853240 119.3397360  64.1833030  49.1458540 118.9173110
  64.6395810  49.9563790 119.1433300  63.8321240  48.8281680 119.7491600
  66.4865640  54.6564880 126.1465410  67.1307860  54.8624260 126.8238830
  66.8495080  53.8953280 125.6936260  67.7597720  52.6597230 124.8642860
  68.4019950  51.9590390 124.9775030  68.2847070  53.4395670 124.6839750
  71.6053440  52.9445850 114.5882000  71.3791020  52.2276290 115.1806640
  71.2149640  52.6958290 113.7503750  69.5335340  53.4592130 128.0678920
  69.8691580  54.0458820 128.7456840  68.6135680  53.3284840 128.2976710
  57.3869470  56.9712710 115.3626460  57.7467110  57.5702050 114.7083730
  57.2461810  57.5172600 116.1361490  57.0838740  41.2487310 128.8502330
  56.3697260  41.4484230 129.4554940  57.5033780  40.4726880 129.2217130
  71.1869690  50.8617790 116.2496160  70.8991390  51.3230480 117.0374040
  71.9821860  50.4015560 116.5180380  65.3623920  53.5083460 131.2366980
  65.0420790  52.7892700 131.7812670  64.6882280  54.1838530 131.3103040
  63.4038090  54.3543910 116.1800130  63.3948190  55.0873600 115.5644640
  62.4836450  54.1075490 116.2727090  68.5777520  43.7409620 126.6003780
  68.9458340  42.9204830 126.9283350  67.7175720  43.8011510 127.0159430
  71.9439550  42.6966560 117.4091340  71.3152710  42.8012230 116.6949570
  71.4491470  42.9163340 118.1985220  66.3897690  54.4172150 114.8425320
  66.4909670  54.2136140 113.9127300  65.4899430  54.1630430 115.0473100
  63.9123580  44.9752510 118.8249220  63.2039730  45.4438850 119.2662830
  64.1968060  44.3174520 119.4594410  65.5379510  46.3949210 126.8241750
  66.0364760  46.8695030 127.4893600  65.6802460  45.4712730 127.0311780
  67.9439010  41.7003170 120.2645010  67.8206790  41.7189300 119.3154520
  68.8923570  41.7482110 120.3843410  65.0315800  56.9358470 119.5372990
  65.2857300  56.8979860 118.6152360  64.0828280  56.8091800 119.5301240
  62.1158600  43.2837590 116.1999930  62.9649130  43.7207740 116.1340120
  61.7489870  43.5957850 117.0271990  72.7446370  42.6117170 127.6670140
  72.2419970  43.3522570 128.0063950  73.5603030  43.0001170 127.3506930
  71.0368380  47.8550350 121.1131500  70.0958520  47.8700580 121.2879190
  71.3512450  47.0686310 121.5591800  61.0150020  49.5369950 114.6735460
  61.7813290  49.4251310 115.2360890  61.0924710  48.8407920 114.0212230
  59.7096780  46.9695020 115.3568350  59.7900370  46.0222530 115.4685750
  60.6016530  47.3001900 115.4629010  60.5111490  57.1190410 122.4602890
  61.2473970  56.5705870 122.7311460  60.8952410  57.9846420 122.3208880
  59.5169770  56.3036480 131.6488470  60.3182500  56.6248530 132.0623870
  59.0021590  55.9432060 132.3708380  63.6213800  56.2920720 114.2828460
  64.4142410  56.5809550 113.8310250  63.1018150  55.8612890 113.6040940
  68.3534400  52.4116350 131.5963880  67.7472560  52.4347950 130.8559630
  68.0488510  51.6799390 132.1331130  69.7834770  56.1396640 130.2073290
  70.7356520  56.0554660 130.1573530  69.6362990  56.8038350 130.8807080
  72.6743970  55.5190850 115.7065200  72.3885480  55.1055990 114.8919380
  72.4763520  56.4478560 115.5865720  57.2367580  48.7909940 130.5924520
  57.7406600  48.2117220 131.1640750  56.4975000  49.0750170 131.1300890
  64.1391200  51.5124130 114.1470810  64.0341840  50.8976480 114.8732190
  63.9715420  50.9890020 113.3633820  64.2905520  50.1980930 130.1260040
  63.5251190  50.7665930 130.0414710  64.4721480  49.9057140 129.2328270
  67.3793930  50.5744160 114.7512800  66.8304030  51.0213460 115.3955540
  68.0013190  50.0693410 115.2750470  59.2690660  46.9339530 131.4874590
  59.3096000  46.6353400 132.3959820  60.1236160  47.3347140 131.3282110
  63.0469050  49.5335080 116.6478100  63.4685470  49.3674950 117.4909490
  63.1719890  48.7235310 116.1533240  61.2096470  45.5131630 129.4549080
  60.6792930  45.0222580 128.8272420  61.8784540  45.9415830 128.9207010
  65.5596690  48.5572690 113.8955200  66.0802350  47.8421710 113.5296350
  66.2065090  49.1958560 114.1955710  70.5796700  47.3197250 131.2229420
  71.1617470  46.5649570 131.1349900  70.7558470  47.8504690 130.4460900
  61.6968770  42.4794000 129.5346370  61.6025640  41.8614750 128.8097240
  61.1166160  43.2060290 129.3076280  64.4630210  41.0367240 126.5673760
  64.0147510  41.0591500 125.7219310  63.8295410  40.6386260 127.1644060
  64.8689760  49.9321570 127.1886200  65.2877870  50.7754300 127.0162440
  63.9498390  50.0693610 126.9592980  67.2053660  47.6637750 128.5724040
  67.3249870  47.0678890 129.3118880  68.0647660  47.7007440 128.1525340
  69.5441560  48.2174940 127.1486550  69.0176780  48.7417560 126.5451690
  69.8872900  48.8502330 127.7796280  61.9427950  45.6068310 113.5936260
  61.7417010  44.7435670 113.9549600  61.7720000  45.5201670 112.6557860
  62.7197180  56.2374580 128.3043930  62.1818270  56.9620640 127.9852630
  62.9731140  55.7604920 127.5141270  63.9722430  44.2059100 129.8299860
  64.5622120  43.8974950 130.5177680  63.1542670  43.7338850 129.9859760
  68.7915860  43.8224910 130.0632880  68.1031380  43.1606450 129.9982870
  69.5121880  43.3763180 130.5081340  69.4216260  40.4176540 116.1223140
  69.7018550  39.5744440 116.4782560  68.6481990  40.6499650 116.6361890
  60.7410750  42.7068930 113.5814140  61.0436650  42.7136360 112.6733290
  61.4805340  42.3566790 114.0781800  65.5759390  57.4725790 128.5630580
  65.5018090  58.3760930 128.8702950  64.6738230  57.1537690 128.5352650
  63.9595680  41.6503550 114.5670340  63.6117680  40.9727540 113.9872790
  64.1608450  41.1893060 115.3813730  66.1244720  56.6384300 116.1856940
  67.0195510  56.9769270 116.2075700  66.1562350  55.9163710 115.5581220
  59.7640880  52.0111350 114.4143940  60.2015750  52.5541020 115.0701520
  60.2488610  51.1858300 114.4240280  73.1039070  55.1687970 128.8923140
  72.5041060  55.2280530 128.1487060  73.2332970  54.2292950 129.0219990
  74.3440520  52.9105790 114.2292850  73.5133480  52.9782440 114.7000080
  74.5212350  53.8009910 113.9259710  73.7996980  49.6553270 116.7327050
  74.5615890  50.2249920 116.8386740  73.8151350  49.0880470 117.5035360
  74.8056950  50.5103370 121.5768980  75.1765780  49.7270690 121.1704950
  75.4458880  51.1992470 121.3986280  73.8516150  49.9487640 113.8899570
  74.1264990  50.8566520 113.7618790  73.6626890  49.8850170 114.8261560
  70.2491760  42.9732490 115.1853200  70.6676640  42.7863470 114.3449860
  69.9427820  42.1211540 115.4956130  73.7481490  47.8856630 118.8829000
  73.3725090  47.1184560 118.4510290  73.0184610  48.2679330 119.3703930
  57.8893250  45.4752860 129.4096470  56.9949300  45.4419620 129.7490180
  58.4290800  45.6739650 130.1747720  71.5769180  42.2584580 131.2948220
  72.4539360  42.2667980 131.6782220  71.5890020  41.5215420 130.6840570
  56.5139400  45.3890130 116.9060040  55.6103480  45.6520330 116.7311700
  56.9980020  45.6601300 116.1260000  73.0232450  46.1114120 122.1836240
  73.5469930  45.6176770 121.5526410  73.6091870  46.2464480 122.9283810
  59.0566610  44.4455670 114.8154420  59.7658310  44.0238890 114.3301700
  58.3406550  44.5130900 114.1837770  58.7040770  40.4995000 113.8557070
  59.4268900  41.0403940 114.1738290  58.9765290  40.2258420 112.9798610
  72.5132420  45.3687470 118.1228650  73.0091540  45.1358340 118.9077530
  72.3148490  44.5299310 117.7066290  58.3932960  39.7501190 123.7579690
  59.0409150  39.1998570 123.3174850  58.8134800  40.0044340 124.5795500
  73.9419580  44.0048420 120.6566330  73.8318860  43.8504460 121.5948600
  74.7027170  43.4769360 120.4141740  72.2885300  39.9442550 127.1149330
  72.9257520  40.5576690 127.4808520  72.4360190  39.9803210 126.1698560
  74.8309850  41.8356340 113.8972470  75.7559160  41.7037520 113.6890760
  74.8085640  41.9149160 114.8508920  74.9048340  42.6067000 116.5229180
  74.1099840  42.5412120 117.0522090  75.1091620  43.5417640 116.5114530
  58.1464960  39.9056860 126.5005010  57.7979780  40.3620680 127.2663190
  57.8152660  39.0113990 126.5827440  63.4535360  54.6336050 126.2667920
  63.2126720  54.9010610 125.3798440  64.3938000  54.8041780 126.3218780
  65.6589780  41.0968740 130.0224430  65.5978670  41.6890570 130.7719840
  66.5990160  40.9894700 129.8774690  68.2964340  40.7538800 129.6616720
  68.9104750  41.0718090 128.9997800  68.8413900  40.2687390 130.2812580
  74.7139520  56.6530430 127.0678560  74.2197800  57.0499300 126.3505690
  74.1052810  56.0279640 127.4615840  58.8185600  39.4333060 129.7755780
  59.3668590  39.2521110 129.0121890  58.8840910  38.6427170 130.3112090
  69.0372380  39.3170940 125.9886010  68.1632220  39.6506050 125.7858940
  68.9283130  38.8444120 126.8137880  69.9444360  41.5241810 127.3727730
  69.6157720  40.7093570 126.9929460  70.8926660  41.4811620 127.2493420
  62.8274690  55.6042090 123.5213430  63.3439710  54.9929450 122.9961690
  63.4772070  56.1070870 124.0124440  65.5670190  56.4950580 124.3482410
  65.8548000  56.2404880 123.4715420  66.0793410  55.9427940 124.9387980
  66.7847200  40.2340780 124.9278920  66.0018990  40.7086280 125.2075680
  66.4910130  39.3295610 124.8192100  71.3368270  40.9363880 122.9728010
  71.7776360  40.8808980 122.1249610  71.0675860  41.8521890 123.0438190
  73.2006840  40.5679120 120.9836830  73.1395240  39.6240340 120.8367850
  73.9798870  40.6759210 121.5290290  57.5059590  56.7071480 119.9460780
  57.3381630  56.0742160 120.6442670  56.6394100  56.9130880 119.5954970
  58.1287610  40.5388260 117.4492640  58.8866970  40.6517140 116.8756670
  57.6664780  41.3757460 117.4036070  64.6701420  42.6527530 120.4394950
  63.8575930  42.2784420 120.0990830  65.1743060  41.8972610 120.7416140
  69.1726400  39.3169980 121.6778020  69.7755770  39.8890190 122.1526540
  68.4319390  39.8809420 121.4551920  72.3161000  39.7191540 116.9518300
  72.5111630  40.6174990 117.2185730  71.5290870  39.4878620 117.4451250
  59.1122290  55.4004710 117.3910920  58.5869910  55.7812740 116.6872880
  59.0366870  56.0255480 118.1120630  60.5012760  41.0652310 115.9894610
  61.0305520  40.2782110 115.8602560  61.1341080  41.7443500 116.2230140
  62.6950600  40.8027450 119.0440000  62.0653340  40.1014760 119.2110130
  62.1555740  41.5631580 118.8273160  65.6342550  57.4166680 131.7150610
  66.5609860  57.1810950 131.7586570  65.6192980  58.2438680 131.2336640
  62.8206160  40.0811430 131.4792490  62.5390430  40.5845030 130.7153310
  63.2025860  39.2833180 131.1134620  61.7115260  57.3487090 116.2660170
  62.4434080  57.0646370 115.7184060  61.9708930  57.1100370 117.1559550
  60.8730050  53.4651820 116.2706500  60.2438930  53.9336920 116.8192330
  60.9877880  52.6201040 116.7052690  69.4221620  39.4965010 132.0572960
  69.3087070  39.8159620 132.9524480  70.2391360  39.8977520 131.7610240
  72.2020110  56.6436540 131.5391650  72.9945430  56.1485770 131.3317610
  72.4953260  57.3226680 132.1467260  68.3279770  47.5157480 102.4207700
  68.2473820  46.6012090 102.1499410  67.9144190  48.0124550 101.7147410
  66.4597810  49.2936500 104.3016970  65.6839910  48.8136940 104.5915540
  67.1110740  48.6142150 104.1273130  60.4763640  49.6056310 105.1792730
  59.6448520  49.3505020 105.5789240  61.0844620  49.6767080 105.9150650
  70.4805240  53.6996690 103.0816100  70.0186770  52.9283930 103.4103270
  71.2930790  53.7262760 103.5868550  65.9006800  51.9693690 104.3087130
  65.8315080  51.0283630 104.1476260  66.6626660  52.0595100 104.8809700
  70.7136090  42.2714510 101.4684400  71.5345710  41.7811080 101.5109880
  70.7470170  42.8612170 102.2216240  75.0035640  44.2881260 108.0328030
  74.2987810  44.6762970 107.5143140  75.2693560  44.9831550 108.6348960
  61.1860810  40.7574630 108.5962100  61.1879250  41.2747020 107.7908000
  60.3565120  40.2804810 108.5732030  67.5731900  50.8693940 100.0952000
  66.9549170  51.3343390  99.5314720  68.0855150  51.5621420 100.5121510
  62.4363660  50.3969810 106.7735600  62.1033040  51.0238730 107.4156670
  62.6130340  50.9231690 105.9937270  70.9497570  44.2114890 104.2411940
  70.2453140  44.4999780 104.8215050  71.3109730  45.0215000 103.8811500
  61.6482760  52.3650610 108.5884780  62.2656760  53.0401690 108.3069230
  60.7875880  52.7738590 108.4972280  56.9415100  51.5550470  97.4691630
  56.5643080  52.0437570  96.7376530  57.1988170  52.2275750  98.0998160
  72.5660350  53.8290020 106.5039420  71.8823870  54.4989130 106.4956090
  73.1054640  54.0270670 105.7384280  74.0184490  43.6569680 104.6321150
  73.0709400  43.6908660 104.7636580  74.3434480  44.4708630 105.0170510
  71.3964510  52.3950370 100.3074770  71.2860840  51.4524700 100.4324190
  71.3932760  52.7566010 101.1937530  69.5004530  50.5763990 106.5467210
  69.9173320  50.3624100 105.7120670  70.2244350  50.8336780 107.1175830
  66.9384790  48.0215690  99.6637260  66.0114070  47.9553070  99.8925730
  67.0909610  48.9595820  99.5492500  66.9253870  44.2932690  96.6604420
  65.9857540  44.4546650  96.7456880  67.2437130  45.0118370  96.1140410
  73.4466630  48.9751210 106.6383450  72.6185260  49.0444300 106.1633580
  74.0417110  49.5605520 106.1699280  70.9682080  49.5835990 100.1672510
  70.3494500  49.2455540  99.5198810  70.9506530  48.9395750 100.8751700
  70.4108640  45.7620530 107.5838320  69.9979820  46.5874240 107.8378310
  69.6784590  45.1765570 107.3914680  63.0123130  52.2347990 104.6096200
  62.7151420  51.6293460 103.9303980  63.9622950  52.2725300 104.4985560
  60.9312780  48.8443000 109.8361370  60.7920550  49.7165800 110.2048770
  60.0494140  48.5015810 109.6909310  72.7263920  40.0765610  95.4886300
  72.4136580  40.1692440  96.3885370  73.4876390  40.6546640  95.4383730
  74.6807950  55.5691800 113.3410690  75.1567670  56.0474690 114.0199770
  75.3015110  55.5009290 112.6156190  56.8831430  50.6140550 105.7532280
  56.9611850  50.7489320 104.8088000  57.4973110  49.9056440 105.9460400
  58.1279060  52.3140740 102.1638460  57.7207140  52.4555330 101.3092060
  59.0192070  52.0300900 101.9609670  74.0841200  52.7604650 110.5010700
  74.2104260  52.5216530 109.5827880  74.1262580  51.9289190 110.9732780
  73.9365210  44.8137110 111.4660440  73.3209480  45.3216780 110.9375900
  73.6161630  43.9135440 111.4086380  56.9390950  51.6554720 108.2926740
  57.1021990  51.1860080 107.4746110  57.4043400  51.1478280 108.9575580
  61.7109720  40.7860480 103.3287310  61.2677870  41.5670020 102.9971830
  62.2694710  41.1090370 104.0358250  65.9979530  43.6529000 108.9322630
  65.5358900  43.8612020 109.7442570  65.5957640  42.8388350 108.6293300
  70.9984040  44.8737950 110.0619290  70.1477630  44.5743700 110.3828360
  70.8385830  45.1179960 109.1503110  68.0933750  46.3739700 112.1618080
  68.4187160  45.5403450 111.8220310  68.8814080  46.8968220 112.3096410
  64.8268540  40.4071180  98.2093140  64.2022720  40.4031050  98.9346450
  64.7398660  39.5402140  97.8129110  68.7321700  45.9157420  99.6559210
  68.1330590  46.6393220  99.4722830  69.2801310  45.8534200  98.8735660
  63.9423150  46.8079630 111.7228830  63.8466750  45.8674360 111.5729230
  64.7855130  47.0294700 111.3276900  65.6478740  43.3028270 112.9459350
  64.9577060  43.1100470 113.5805440  66.3911040  43.5862910 113.4783650
  56.5620970  45.0841880  95.1195410  56.4795640  46.0272640  95.2610400
  56.2104030  44.9416790  94.2407760  71.8138370  40.0092570 111.0322590
  72.1384140  39.2782230 111.5580570  71.8494880  39.6906210 110.1303580
  58.5129930  51.0306150 110.4522550  58.1284720  50.3899820 111.0505510
  58.8242120  51.7342270 111.0217280  64.6627070  47.8782690 105.9331170
  65.0297200  47.4041260 106.6792510  64.4732130  48.7524260 106.2739510
  62.4526440  46.9191330 108.2515380  62.1483510  47.7983310 108.4765740
  63.4072900  46.9791120 108.2872820  60.9808230  51.1252320  98.8482230
  60.2070490  50.5849940  98.6880950  61.7102860  50.6058930  98.5099990
  71.7396210  50.1217680 104.6408620  72.4595330  50.6172970 104.2504730
  71.5378030  49.4435570 103.9962490  67.2006150  41.5155640  98.7838010
  66.3870760  41.0168810  98.7083320  67.0068100  42.3553890  98.3674360
  67.1215010  50.1926740 110.5277620  67.0552320  49.2722410 110.2735210
  66.4920150  50.2902180 111.2422260  61.0245630  50.7932700 102.4861040
  61.5424300  49.9900960 102.4317930  60.5729650  50.7311840 103.3277870
  65.9115130  52.0598980  97.7588340  66.2530830  52.8041210  97.2631660
  65.0827840  52.3730100  98.1213170  58.5090170  47.7594070 109.3986740
  58.1505110  48.4247920 109.9860080  58.2144730  46.9277620 109.7699360
  61.7103290  48.2178310 112.2826290  61.4103430  48.3635490 111.3854110
  62.4814530  47.6583600 112.1899680  73.2642950  49.6554650 109.6250000
  72.5391140  50.2483430 109.4279390  73.7918410  49.6478190 108.8263370
  68.7942540  51.3814820 103.1233850  69.1466360  50.7842950 102.4635220
  67.9104870  51.0559050 103.2942100  64.8805820  52.1412510 100.5304260
  65.5676950  52.6881720 100.9111850  64.0938240  52.6853240 100.5653870
  57.0198220  47.7585330  96.0221340  57.8893070  48.0410130  96.3057260
  56.5288540  48.5721200  95.9070150  64.1833030  49.1458540 100.1429620
  64.6395810  49.9563790 100.3689810  63.8321240  48.8281680 100.9748110
  67.7597720  52.6597230 106.0899370  68.4019950  51.9590390 106.2031540
  68.2847070  53.4395670 105.9096260  69.5335340  53.4592130 109.2935430
  69.8691580  54.0458820 109.9713350  68.6135680  53.3284840 109.5233220
  57.0838740  41.2487310 110.0758840  56.3697260  41.4484230 110.6811450
  57.5033780  40.4726880 110.4473640  59.0044730  49.5758800  98.1503400
  58.3972680  50.3157700  98.1598700  59.4794080  49.6658160  97.3241600
  71.9439550  42.6966560  98.6347850  71.3152710  42.8012230  97.9206080
  71.4491470  42.9163340  99.4241730  72.7446370  42.6117170 108.8926650
  72.2419970  43.3522570 109.2320460  73.5603030  43.0001170 108.5763440
  71.0368380  47.8550350 102.3388010  70.0958520  47.8700580 102.5135700
  71.3512450  47.0686310 102.7848310  61.0150020  49.5369950  95.8991970
  61.7813290  49.4251310  96.4617400  61.0924710  48.8407920  95.2468740
  57.3956970  53.1863980  99.5600910  56.4696750  53.4285120  99.5506320
  57.8613400  54.0138240  99.4385660  68.3534400  52.4116350 112.8220390
  67.7472560  52.4347950 112.0816140  68.0488510  51.6799390 113.3587640
  57.2367580  48.7909940 111.8181030  57.7406600  48.2117220 112.3897260
  56.4975000  49.0750170 112.3557400  64.1391200  51.5124130  95.3727320
  64.0341840  50.8976480  96.0988700  63.9715420  50.9890020  94.5890330
  64.2905520  50.1980930 111.3516550  63.5251190  50.7665930 111.2671220
  64.4721480  49.9057140 110.4584780  71.4328870  51.9286260 111.9091570
  72.1738340  52.2662020 111.4059030  70.6701550  52.0978320 111.3561340
  59.2690660  46.9339530 112.7131100  59.3096000  46.6353400 113.6216330
  60.1236160  47.3347140 112.5538620  63.0469050  49.5335080  97.8734610
  63.4685470  49.3674950  98.7166000  63.1719890  48.7235310  97.3789750
  61.2096470  45.5131630 110.6805590  60.6792930  45.0222580 110.0528930
  61.8784540  45.9415830 110.1463520  70.1074530  49.9801090 110.4446780
  70.5215550  50.1346170 111.2937200  69.1725530  50.1056310 110.6072560
  70.5796700  47.3197250 112.4485930  71.1617470  46.5649570 112.3606410
  70.7558470  47.8504690 111.6717410  61.6968770  42.4794000 110.7602880
  61.6025640  41.8614750 110.0353750  61.1166160  43.2060290 110.5332790
  64.4630210  41.0367240 107.7930270  64.0147510  41.0591500 106.9475820
  63.8295410  40.6386260 108.3900570  64.8689760  49.9321570 108.4142710
  65.2877870  50.7754300 108.2418950  63.9498390  50.0693610 108.1849490
  67.2053660  47.6637750 109.7980550  67.3249870  47.0678890 110.5375390
  68.0647660  47.7007440 109.3781850  69.5441560  48.2174940 108.3743060
  69.0176780  48.7417560 107.7708200  69.8872900  48.8502330 109.0052790
  63.9722430  44.2059100 111.0556370  64.5622120  43.8974950 111.7434190
  63.1542670  43.7338850 111.2116270  68.7915860  43.8224910 111.2889390
  68.1031380  43.1606450 111.2239380  69.5121880  43.3763180 111.7337850
  69.4216260  40.4176540  97.3479650  69.7018550  39.5744440  97.7039070
  68.6481990  40.6499650  97.8618400  61.5748600  53.1309390 100.7522680
  61.2744140  53.0074360 101.6526590  61.4686090  52.2717980 100.3438410
  73.1039070  55.1687970 110.1179650  72.5041060  55.2280530 109.3743570
  73.2332970  54.2292950 110.2476500  73.7996980  49.6553270  97.9583560
  74.5615890  50.2249920  98.0643250  73.8151350  49.0880470  98.7291870
  74.8056950  50.5103370 102.8025490  75.1765780  49.7270690 102.3961460
  75.4458880  51.1992470 102.6242790  71.7890710  51.8939950 108.2155810
  70.9750550  52.3237110 108.4781600  72.1964910  52.5058360 107.6024860
  70.2491760  42.9732490  96.4109710  70.6676640  42.7863470  95.5706370
  69.9427820  42.1211540  96.7212640  73.7481490  47.8856630 100.1085510
  73.3725090  47.1184560  99.6766800  73.0184610  48.2679330 100.5960440
  73.1381110  47.0328150 109.7425030  72.9067200  46.8040900 108.8422980
  73.3985660  47.9527700 109.6969920  57.8893250  45.4752860 110.6352980
  56.9949300  45.4419620 110.9746690  58.4290800  45.6739650 111.4004230
  71.5769180  42.2584580 112.5204730  72.4539360  42.2667980 112.9038730
  71.5890020  41.5215420 111.9097080  73.0232450  46.1114120 103.4092750
  73.5469930  45.6176770 102.7782920  73.6091870  46.2464480 104.1540320
  73.2022170  46.1953990 106.9312300  72.2524880  46.1617530 107.0457290
  73.3835180  47.1054100 106.6962070  58.7040770  40.4995000  95.0813580
  59.4268900  41.0403940  95.3994800  58.9765290  40.2258420  94.2055120
  72.5132420  45.3687470  99.3485160  73.0091540  45.1358340 100.1334040
  72.3148490  44.5299310  98.9322800  72.2885300  39.9442550 108.3405840
  72.9257520  40.5576690 108.7065030  72.4360190  39.9803210 107.3955070
  74.8309850  41.8356340  95.1228980  75.7559160  41.7037520  94.9147270
  74.8085640  41.9149160  96.0765430  74.9048340  42.6067000  97.7485690
  74.1099840  42.5412120  98.2778600  75.1091620  43.5417640  97.7371040
  59.7529330  53.0776460 111.8914710  59.7098960  52.7069370 112.7729170
  59.8840340  54.0154030 112.0316530  65.6589780  41.0968740 111.2480940
  65.5978670  41.6890570 111.9976350  66.5990160  40.9894700 111.1031200
  68.2964340  40.7538800 110.8873230  68.9104750  41.0718090 110.2254310
  68.8413900  40.2687390 111.5069090  58.8185600  39.4333060 111.0012290
  59.3668590  39.2521110 110.2378400  58.8840910  38.6427170 111.5368600
  69.0372380  39.3170940 107.2142520  68.1632220  39.6506050 107.0115450
  68.9283130  38.8444120 108.0394390  69.9444360  41.5241810 108.5984240
  69.6157720  40.7093570 108.2185970  70.8926660  41.4811620 108.4749930
  71.3368270  40.9363880 104.1984520  71.7776360  40.8808980 103.3506120
  71.0675860  41.8521890 104.2694700  69.1726400  39.3169980 102.9034530
  69.7755770  39.8890190 103.3783050  68.4319390  39.8809420 102.6808430
  72.3161000  39.7191540  98.1774810  72.5111630  40.6174990  98.4442240
  71.5290870  39.4878620  98.6707760  62.6950600  40.8027450 100.2696510
  62.0653340  40.1014760 100.4366640  62.1555740  41.5631580 100.0529670
  62.8206160  40.0811430 112.7049000  62.5390430  40.5845030 111.9409820
  63.2025860  39.2833180 112.3391130  69.4221620  39.4965010 113.2829470
  69.3087070  39.8159620 114.1780990  70.2391360  39.8977520 112.9866750
  72.2020110  56.6436540 112.7648160  72.9945430  56.1485770 112.5574120
  72.4953260  57.3226680 113.3723770  68.3279770  47.5157480  83.6464210
  68.2473820  46.6012090  83.3755920  67.9144190  48.0124550  82.9403920
  60.4763640  49.6056310  86.4049240  59.6448520  49.3505020  86.8045750
  61.0844620  49.6767080  87.1407160  60.4564900  53.6396400  86.6007260
  60.7592940  52.7494140  86.4217480  61.2008490  54.1966620  86.3729510
  58.8855590  44.5658200  80.1891630  57.9972290  44.9074170  80.0871510
  59.1696780  44.3658520  79.2972460  56.8488600  47.1663850  86.0731330
  57.4204710  46.3986050  86.0734970  56.8490140  47.4652610  85.1637940
  58.0913470  42.5748210  87.8600260  57.9116310  41.6773960  88.1403020
  57.6893550  43.1220080  88.5347210  61.0616980  43.1489700  81.2230010
  61.1683730  44.0493430  81.5298770  60.1509340  43.1007670  80.9324660
  70.7136090  42.2714510  82.6940910  71.5345710  41.7811080  82.7366390
  70.7470170  42.8612170  83.4472750  58.7100140  45.0708710  86.4682600
  59.3910250  45.3347080  87.0870000  58.3948190  44.2309580  86.8020610
  62.9024710  46.1176070  85.5555190  63.4102930  46.6157040  86.1960210
  63.4337950  45.3411270  85.3794550  61.1860810  40.7574630  89.8218610
  61.1879250  41.2747020  89.0164510  60.3565120  40.2804810  89.7988540
  62.4363660  50.3969810  87.9992110  62.1033040  51.0238730  88.6413180
  62.6130340  50.9231690  87.2193780  60.8676140  42.4684590  87.8289060
  61.2092950  43.3126640  87.5342930  59.9291950  42.6168330  87.9454400
  61.6482760  52.3650610  89.8141290  62.2656760  53.0401690  89.5325740
  60.7875880  52.7738590  89.7228790  56.9415100  51.5550470  78.6948140
  56.5643080  52.0437570  77.9633040  57.1988170  52.2275750  79.3254670
  74.0184490  43.6569680  85.8577660  73.0709400  43.6908660  85.9893090
  74.3434480  44.4708630  86.2427020  73.4466630  48.9751210  87.8639960
  72.6185260  49.0444300  87.3890090  74.0417110  49.5605520  87.3955790
  62.5441430  48.5480430  83.6713500  62.1398430  47.8357680  83.1759400
  62.6304550  48.2033670  84.5601540  61.2570050  45.3223640  87.4512540
  61.8084640  45.4318980  86.6765790  61.7713560  45.6961240  88.1667770
  62.1041560  51.9729680  92.4860510  61.2070090  52.1969650  92.7333910
  62.1294430  52.0964620  91.5371910  59.2446060  47.4425410  81.1720150
  59.1243660  48.1687500  80.5601420  58.9346950  46.6728320  80.6948060
  56.8831430  50.6140550  86.9788790  56.9611850  50.7489320  86.0344510
  57.4973110  49.9056440  87.1716910  58.1279060  52.3140740  83.3894970
  57.7207140  52.4555330  82.5348570  59.0192070  52.0300900  83.1866180
  74.0841200  52.7604650  91.7267210  74.2104260  52.5216530  90.8084390
  74.1262580  51.9289190  92.1989290  56.9390950  51.6554720  89.5183250
  57.1021990  51.1860080  88.7002620  57.4043400  51.1478280  90.1832090
  61.5023940  45.9094050  82.2825070  61.2764860  45.6931220  83.1871690
  60.7216470  46.3422510  81.9371040  59.0733690  43.2193300  91.1019120
  58.6797080  44.0668510  91.3091900  58.3852090  42.5819670  91.2927760
  56.3750740  41.1421760  85.1349200  56.0863790  41.7124620  85.8474180
  57.1196500  40.6626210  85.4980430  56.5620970  45.0841880  76.3451920
  56.4795640  46.0272640  76.4866910  56.2104030  44.9416790  75.4664270
  60.2121480  43.7007400  84.3716480  59.8721530  44.1782630  85.1283530
  59.4498800  43.2472520  84.0117580  58.5129930  51.0306150  91.6779060
  58.1284720  50.3899820  92.2762020  58.8242120  51.7342270  92.2473790
  64.6627070  47.8782690  87.1587680  65.0297200  47.4041260  87.9049020
  64.4732130  48.7524260  87.4996020  57.5267560  42.6226380  83.2881150
  57.2414480  42.2582050  84.1259770  57.4646420  41.8906840  82.6744290
  61.0245630  50.7932700  83.7117550  61.5424300  49.9900960  83.6574440
  60.5729650  50.7311840  84.5534380  58.5090170  47.7594070  90.6243250
  58.1505110  48.4247920  91.2116590  58.2144730  46.9277620  90.9955870
  73.2642950  49.6554650  90.8506510  72.5391140  50.2483430  90.6535900
  73.7918410  49.6478190  90.0519880  57.0198220  47.7585330  77.2477850
  57.8893070  48.0410130  77.5313770  56.5288540  48.5721200  77.1326660
  60.0844810  39.4896190  81.8408650  59.9559440  39.4814090  82.7893570
  59.2606830  39.8279280  81.4899660  57.3869470  56.9712710  77.8139480
  57.7467110  57.5702050  77.1596750  57.2461810  57.5172600  78.5874510
  57.3711330  55.2367570  92.2881880  57.4802450  54.2962310  92.1477270
  56.7191890  55.5022320  91.6395610  65.3623920  53.5083460  93.6880000
  65.0420790  52.7892700  94.2325690  64.6882280  54.1838530  93.7616060
  59.0044730  49.5758800  79.3759910  58.3972680  50.3157700  79.3855210
  59.4794080  49.6658160  78.5498110  71.9439550  42.6966560  79.8604360
  71.3152710  42.8012230  79.1462590  71.4491470  42.9163340  80.6498240
  59.7096780  46.9695020  77.8081370  59.7900370  46.0222530  77.9198770
  60.6016530  47.3001900  77.9142030  57.3956970  53.1863980  80.7857420
  56.4696750  53.4285120  80.7762830  57.8613400  54.0138240  80.6642170
  61.6968770  42.4794000  91.9859390  61.6025640  41.8614750  91.2610260
  61.1166160  43.2060290  91.7589300  64.4630210  41.0367240  89.0186780
  64.0147510  41.0591500  88.1732330  63.8295410  40.6386260  89.6157080
  61.9427950  45.6068310  76.0449280  61.7417010  44.7435670  76.4062620
  61.7720000  45.5201670  75.1070880  69.4216260  40.4176540  78.5736160
  69.7018550  39.5744440  78.9295580  68.6481990  40.6499650  79.0874910
  60.7410750  42.7068930  76.0327160  61.0436650  42.7136360  75.1246310
  61.4805340  42.3566790  76.5294820  63.9595680  41.6503550  77.0183360
  63.6117680  40.9727540  76.4385810  64.1608450  41.1893060  77.8326750
  59.7640880  52.0111350  76.8656960  60.2015750  52.5541020  77.5214540
  60.2488610  51.1858300  76.8753300  56.9786680  54.8000380  84.3177220
  57.3089690  53.9321440  84.0855860  57.4077680  55.0058900  85.1482180
  61.5748600  53.1309390  81.9779190  61.2744140  53.0074360  82.8783100
  61.4686090  52.2717980  81.5694920  57.4676890  55.6670970  87.0558850
  57.0307880  55.8471770  87.8883000  58.0354570  56.4245590  86.9140570
  57.3001320  48.1791200  83.4147730  56.6450160  47.9102840  82.7707430
  58.1379270  48.0695680  82.9649710  70.2491760  42.9732490  77.6366220
  70.6676640  42.7863470  76.7962880  69.9427820  42.1211540  77.9469150
  58.3377250  48.5643770  87.9551070  58.7050290  48.4771170  88.8347090
  57.7688070  47.8010320  87.8557930  73.1381110  47.0328150  90.9681540
  72.9067200  46.8040900  90.0679490  73.3985660  47.9527700  90.9226430
  57.8893250  45.4752860  91.8609490  56.9949300  45.4419620  92.2003200
  58.4290800  45.6739650  92.6260740  71.5769180  42.2584580  93.7461240
  72.4539360  42.2667980  94.1295240  71.5890020  41.5215420  93.1353590
  56.5139400  45.3890130  79.3573060  55.6103480  45.6520330  79.1824720
  56.9980020  45.6601300  78.5773020  73.2022170  46.1953990  88.1568810
  72.2524880  46.1617530  88.2713800  73.3835180  47.1054100  87.9218580
  59.0566610  44.4455670  77.2667440  59.7658310  44.0238890  76.7814720
  58.3406550  44.5130900  76.6350790  58.7040770  40.4995000  76.3070090
  59.4268900  41.0403940  76.6251310  58.9765290  40.2258420  75.4311630
  58.3932960  39.7501190  86.2092710  59.0409150  39.1998570  85.7687870
  58.8134800  40.0044340  87.0308520  73.9419580  44.0048420  83.1079350
  73.8318860  43.8504460  84.0461620  74.7027170  43.4769360  82.8654760
  59.7529330  53.0776460  93.1171220  59.7098960  52.7069370  93.9985680
  59.8840340  54.0154030  93.2573040  65.6589780  41.0968740  92.4737450
  65.5978670  41.6890570  93.2232860  66.5990160  40.9894700  92.3287710
  68.2964340  40.7538800  92.1129740  68.9104750  41.0718090  91.4510820
  68.8413900  40.2687390  92.7325600  58.8185600  39.4333060  92.2268800
  59.3668590  39.2521110  91.4634910  58.8840910  38.6427170  92.7625110
  69.0372380  39.3170940  88.4399030  68.1632220  39.6506050  88.2371960
  68.9283130  38.8444120  89.2650900  59.2229590  53.3897090  89.1877040
  58.4963650  52.7702380  89.1202990  59.2838740  53.7837700  88.3175120
  71.3368270  40.9363880  85.4241030  71.7776360  40.8808980  84.5762630
  71.0675860  41.8521890  85.4951210  57.5059590  56.7071480  82.3973800
  57.3381630  56.0742160  83.0955690  56.6394100  56.9130880  82.0467990
  58.1287610  40.5388260  79.9005660  58.8866970  40.6517140  79.3269690
  57.6664780  41.3757460  79.8549090  59.1122290  55.4004710  79.8423940
  58.5869910  55.7812740  79.1385900  59.0366870  56.0255480  80.5633650
  60.5012760  41.0652310  78.4407630  61.0305520  40.2782110  78.3115580
  61.1341080  41.7443500  78.6743160  62.8206160  40.0811430  93.9305510
  62.5390430  40.5845030  93.1666330  63.2025860  39.2833180  93.5647640
  60.8730050  53.4651820  78.7219520  60.2438930  53.9336920  79.2705350
  60.9877880  52.6201040  79.1565710  69.4221620  39.4965010  94.5085980
  69.3087070  39.8159620  95.4037500  70.2391360  39.8977520  94.2123260
  58.8855590  44.5658200  61.4148140  57.9972290  44.9074170  61.3128020
  59.1696780  44.3658520  60.5228970  56.8488600  47.1663850  67.2987840
  57.4204710  46.3986050  67.2991480  56.8490140  47.4652610  66.3894450
  58.0913470  42.5748210  69.0856770  57.9116310  41.6773960  69.3659530
  57.6893550  43.1220080  69.7603720  61.0616980  43.1489700  62.4486520
  61.1683730  44.0493430  62.7555280  60.1509340  43.1007670  62.1581170
  58.7100140  45.0708710  67.6939110  59.3910250  45.3347080  68.3126510
  58.3948190  44.2309580  68.0277120  61.1860810  40.7574630  71.0475120
  61.1879250  41.2747020  70.2421020  60.3565120  40.2804810  71.0245050
  60.8676140  42.4684590  69.0545570  61.2092950  43.3126640  68.7599440
  59.9291950  42.6168330  69.1710910  61.6482760  52.3650610  71.0397800
  62.2656760  53.0401690  70.7582250  60.7875880  52.7738590  70.9485300
  56.9415100  51.5550470  59.9204650  56.5643080  52.0437570  59.1889550
  57.1988170  52.2275750  60.5511180  64.5504030  39.9566860  65.3790160
  64.8579010  39.4013750  64.6625660  63.6204730  40.0911320  65.1963150
  61.2570050  45.3223640  68.6769050  61.8084640  45.4318980  67.9022300
  61.7713560  45.6961240  69.3924280  62.1041560  51.9729680  73.7117020
  61.2070090  52.1969650  73.9590420  62.1294430  52.0964620  72.7628420
  60.9312780  48.8443000  72.2874390  60.7920550  49.7165800  72.6561790
  60.0494140  48.5015810  72.1422330  62.7293130  54.7864700  74.4959540
  62.7008560  55.1907650  73.6287970  62.5658100  53.8575060  74.3331140
  58.1279060  52.3140740  64.6151480  57.7207140  52.4555330  63.7605080
  59.0192070  52.0300900  64.4122690  56.9390950  51.6554720  70.7439760
  57.1021990  51.1860080  69.9259130  57.4043400  51.1478280  71.4088600
  61.7109720  40.7860480  65.7800330  61.2677870  41.5670020  65.4484850
  62.2694710  41.1090370  66.4871270  65.9979530  43.6529000  71.3835650
  65.5358900  43.8612020  72.1955590  65.5957640  42.8388350  71.0806320
  63.7485620  41.3307810  67.6389930  64.0457950  42.2370640  67.5581950
  64.2971180  40.8426590  67.0249500  63.9423150  46.8079630  74.1741850
  63.8466750  45.8674360  74.0242250  64.7855130  47.0294700  73.7789920
  59.0733690  43.2193300  72.3275630  58.6797080  44.0668510  72.5348410
  58.3852090  42.5819670  72.5184270  65.6478740  43.3028270  75.3972370
  64.9577060  43.1100470  76.0318460  66.3911040  43.5862910  75.9296670
  56.3750740  41.1421760  66.3605710  56.0863790  41.7124620  67.0730690
  57.1196500  40.6626210  66.7236940  56.5620970  45.0841880  57.5708430
  56.4795640  46.0272640  57.7123420  56.2104030  44.9416790  56.6920780
  60.2121480  43.7007400  65.5972990  59.8721530  44.1782630  66.3540040
  59.4498800  43.2472520  65.2374090  58.5129930  51.0306150  72.9035570
  58.1284720  50.3899820  73.5018530  58.8242120  51.7342270  73.4730300
  57.5267560  42.6226380  64.5137660  57.2414480  42.2582050  65.3516280
  57.4646420  41.8906840  63.9000800  62.4526440  46.9191330  70.7028400
  62.1483510  47.7983310  70.9278760  63.4072900  46.9791120  70.7385840
  58.5090170  47.7594070  71.8499760  58.1505110  48.4247920  72.4373100
  58.2144730  46.9277620  72.2212380  61.7103290  48.2178310  74.7339310
  61.4103430  48.3635490  73.8367130  62.4814530  47.6583600  74.6412700
  57.0198220  47.7585330  58.4734360  57.8893070  48.0410130  58.7570280
  56.5288540  48.5721200  58.3583170  60.0844810  39.4896190  63.0665160
  59.9559440  39.4814090  64.0150080  59.2606830  39.8279280  62.7156170
  57.3869470  56.9712710  59.0395990  57.7467110  57.5702050  58.3853260
  57.2461810  57.5172600  59.8131020  57.0838740  41.2487310  72.5271860
  56.3697260  41.4484230  73.1324470  57.5033780  40.4726880  72.8986660
  57.3711330  55.2367570  73.5138390  57.4802450  54.2962310  73.3733780
  56.7191890  55.5022320  72.8652120  62.1158600  43.2837590  59.8769460
  62.9649130  43.7207740  59.8109650  61.7489870  43.5957850  60.7041520
  57.3956970  53.1863980  62.0113930  56.4696750  53.4285120  62.0019340
  57.8613400  54.0138240  61.8898680  59.5169770  56.3036480  75.3258000
  60.3182500  56.6248530  75.7393400  59.0021590  55.9432060  76.0477910
  57.2367580  48.7909940  74.2694050  57.7406600  48.2117220  74.8410280
  56.4975000  49.0750170  74.8070420  59.2690660  46.9339530  75.1644120
  59.3096000  46.6353400  76.0729350  60.1236160  47.3347140  75.0051640
  61.2096470  45.5131630  73.1318610  60.6792930  45.0222580  72.5041950
  61.8784540  45.9415830  72.5976540  61.6968770  42.4794000  73.2115900
  61.6025640  41.8614750  72.4866770  61.1166160  43.2060290  72.9845810
  64.4630210  41.0367240  70.2443290  64.0147510  41.0591500  69.3988840
  63.8295410  40.6386260  70.8413590  63.9722430  44.2059100  73.5069390
  64.5622120  43.8974950  74.1947210  63.1542670  43.7338850  73.6629290
  68.7915860  43.8224910  73.7402410  68.1031380  43.1606450  73.6752400
  69.5121880  43.3763180  74.1850870  60.7410750  42.7068930  57.2583670
  61.0436650  42.7136360  56.3502820  61.4805340  42.3566790  57.7551330
  63.9595680  41.6503550  58.2439870  63.6117680  40.9727540  57.6642320
  64.1608450  41.1893060  59.0583260  59.7640880  52.0111350  58.0913470
  60.2015750  52.5541020  58.7471050  60.2488610  51.1858300  58.1009810
  56.9786680  54.8000380  65.5433730  57.3089690  53.9321440  65.3112370
  57.4077680  55.0058900  66.3738690  57.4676890  55.6670970  68.2815360
  57.0307880  55.8471770  69.1139510  58.0354570  56.4245590  68.1397080
  57.3001320  48.1791200  64.6404240  56.6450160  47.9102840  63.9963940
  58.1379270  48.0695680  64.1906220  58.3377250  48.5643770  69.1807580
  58.7050290  48.4771170  70.0603600  57.7688070  47.8010320  69.0814440
  57.8893250  45.4752860  73.0866000  56.9949300  45.4419620  73.4259710
  58.4290800  45.6739650  73.8517250  56.5139400  45.3890130  60.5829570
  55.6103480  45.6520330  60.4081230  56.9980020  45.6601300  59.8029530
  59.0566610  44.4455670  58.4923950  59.7658310  44.0238890  58.0071230
  58.3406550  44.5130900  57.8607300  58.7040770  40.4995000  57.5326600
  59.4268900  41.0403940  57.8507820  58.9765290  40.2258420  56.6568140
  58.3932960  39.7501190  67.4349220  59.0409150  39.1998570  66.9944380
  58.8134800  40.0044340  68.2565030  58.1464960  39.9056860  70.1774540
  57.7979780  40.3620680  70.9432720  57.8152660  39.0113990  70.2596970
  59.7529330  53.0776460  74.3427730  59.7098960  52.7069370  75.2242190
  59.8840340  54.0154030  74.4829550  65.6589780  41.0968740  73.6993960
  65.5978670  41.6890570  74.4489370  66.5990160  40.9894700  73.5544220
  68.2964340  40.7538800  73.3386250  68.9104750  41.0718090  72.6767330
  68.8413900  40.2687390  73.9582110  58.8185600  39.4333060  73.4525310
  59.3668590  39.2521110  72.6891420  58.8840910  38.6427170  73.9881620
  69.0372380  39.3170940  69.6655540  68.1632220  39.6506050  69.4628470
  68.9283130  38.8444120  70.4907410  59.2229590  53.3897090  70.4133550
  58.4963650  52.7702380  70.3459500  59.2838740  53.7837700  69.5431630
  66.7847200  40.2340780  68.6048450  66.0018990  40.7086280  68.8845210
  66.4910130  39.3295610  68.4961630  57.5059590  56.7071480  63.6230310
  57.3381630  56.0742160  64.3212200  56.6394100  56.9130880  63.2724500
  58.1287610  40.5388260  61.1262170  58.8866970  40.6517140  60.5526200
  57.6664780  41.3757460  61.0805600  59.1122290  55.4004710  61.0680450
  58.5869910  55.7812740  60.3642410  59.0366870  56.0255480  61.7890160
  60.5012760  41.0652310  59.6664140  61.0305520  40.2782110  59.5372090
  61.1341080  41.7443500  59.8999670  62.6950600  40.8027450  62.7209530
  62.0653340  40.1014760  62.8879660  62.1555740  41.5631580  62.5042690
  62.8206160  40.0811430  75.1562020  62.5390430  40.5845030  74.3922840
  63.2025860  39.2833180  74.7904150  69.4221620  39.4965010  75.7342490
  69.3087070  39.8159620  76.6294010  70.2391360  39.8977520  75.4379770
  68.3279770  47.5157480  46.0977230  68.2473820  46.6012090  45.8268940
  67.9144190  48.0124550  45.3916940  58.8855590  44.5658200  42.6404650
  57.9972290  44.9074170  42.5384530  59.1696780  44.3658520  41.7485480
  56.8488600  47.1663850  48.5244350  57.4204710  46.3986050  48.5247990
  56.8490140  47.4652610  47.6150960  58.0913470  42.5748210  50.3113280
  57.9116310  41.6773960  50.5916040  57.6893550  43.1220080  50.9860230
  61.0616980  43.1489700  43.6743030  61.1683730  44.0493430  43.9811790
  60.1509340  43.1007670  43.3837680  70.7136090  42.2714510  45.1453930
  71.5345710  41.7811080  45.1879410  70.7470170  42.8612170  45.8985770
  61.1860810  40.7574630  52.2731630  61.1879250  41.2747020  51.4677530
  60.3565120  40.2804810  52.2501560  67.5731900  50.8693940  43.7721530
  66.9549170  51.3343390  43.2084250  68.0855150  51.5621420  44.1891040
  56.9415100  51.5550470  41.1461160  56.5643080  52.0437570  40.4146060
  57.1988170  52.2275750  41.7767690  74.0184490  43.6569680  48.3090680
  73.0709400  43.6908660  48.4406110  74.3434480  44.4708630  48.6940040
  64.5504030  39.9566860  46.6046670  64.8579010  39.4013750  45.8882170
  63.6204730  40.0911320  46.4219660  66.9384790  48.0215690  43.3406790
  66.0114070  47.9553070  43.5695260  67.0909610  48.9595820  43.2262030
  66.9253870  44.2932690  40.3373950  65.9857540  44.4546650  40.4226410
  67.2437130  45.0118370  39.7909940  70.9682080  49.5835990  43.8442040
  70.3494500  49.2455540  43.1968340  70.9506530  48.9395750  44.5521230
  69.1446780  48.8222800  40.8514790  69.5840060  47.9845230  40.7052610
  69.8575200  49.4552200  40.9378930  67.2542160  53.7618870  44.8196030
  67.6938070  54.5043200  44.4051420  67.1929050  54.0045440  45.7434990
  59.2446060  47.4425410  43.6233170  59.1243660  48.1687500  43.0114440
  58.9346950  46.6728320  43.1461080  58.1279060  52.3140740  45.8407990
  57.7207140  52.4555330  44.9861590  59.0192070  52.0300900  45.6379200
  69.9212340  56.7487990  42.1759040  69.7613480  56.4590930  43.0740870
  69.7559050  55.9728120  41.6404270  62.4000720  56.5286520  43.9530660
  62.2243200  55.6122060  43.7398460  61.5456460  56.8873810  44.1928460
  69.6238470  54.2575550  40.7357040  68.9303630  54.2552840  40.0759320
  70.3661330  53.8334870  40.3051210  61.7109720  40.7860480  47.0056840
  61.2677870  41.5670020  46.6741360  62.2694710  41.1090370  47.7127780
  64.8268540  40.4071180  41.8862670  64.2022720  40.4031050  42.6115980
  64.7398660  39.5402140  41.4898640  63.7485620  41.3307810  48.8646440
  64.0457950  42.2370640  48.7838460  64.2971180  40.8426590  48.2506010
  68.7321700  45.9157420  43.3328740  68.1330590  46.6393220  43.1492360
  69.2801310  45.8534200  42.5505190  67.3386570  44.5520960  45.3632020
  67.7316140  44.8693160  44.5500710  67.7003420  43.6732840  45.4776540
  59.0733690  43.2193300  53.5532140  58.6797080  44.0668510  53.7604920
  58.3852090  42.5819670  53.7440780  56.3750740  41.1421760  47.5862220
  56.0863790  41.7124620  48.2987200  57.1196500  40.6626210  47.9493450
  56.5620970  45.0841880  38.7964940  56.4795640  46.0272640  38.9379930
  56.2104030  44.9416790  37.9177290  64.4239250  44.8192990  40.8542050
  64.5452070  44.7779470  41.8027870  64.0387760  45.6817140  40.6988780
  63.4360750  47.1294130  40.2525350  62.8677650  46.6812380  39.6261260
  64.1449750  47.4886910  39.7190500  57.5267560  42.6226380  45.7394170
  57.2414480  42.2582050  46.5772790  57.4646420  41.8906840  45.1257310
  60.9808230  51.1252320  42.5251760  60.2070490  50.5849940  42.3650480
  61.7102860  50.6058930  42.1869520  69.9154540  45.8875290  40.7569700
  70.8034160  46.1992520  40.5821040  69.8859630  45.0147540  40.3650280
  61.0245630  50.7932700  46.1630570  61.5424300  49.9900960  46.1087460
  60.5729650  50.7311840  47.0047400  65.9115130  52.0598980  41.4357870
  66.2530830  52.8041210  40.9401190  65.0827840  52.3730100  41.7982700
  64.8805820  52.1412510  44.2073790  65.5676950  52.6881720  44.5881380
  64.0938240  52.6853240  44.2423400  57.0198220  47.7585330  39.6990870
  57.8893070  48.0410130  39.9826790  56.5288540  48.5721200  39.5839680
  64.1833030  49.1458540  43.8199150  64.6395810  49.9563790  44.0459340
  63.8321240  48.8281680  44.6517640  60.0844810  39.4896190  44.2921670
  59.9559440  39.4814090  45.2406590  59.2606830  39.8279280  43.9412680
  71.6053440  52.9445850  39.4908040  71.3791020  52.2276290  40.0832680
  71.2149640  52.6958290  38.6529790  57.3869470  56.9712710  40.2652500
  57.7467110  57.5702050  39.6109770  57.2461810  57.5172600  41.0387530
  57.0838740  41.2487310  53.7528370  56.3697260  41.4484230  54.3580980
  57.5033780  40.4726880  54.1243170  71.1869690  50.8617790  41.1522200
  70.8991390  51.3230480  41.9400080  71.9821860  50.4015560  41.4206420
  57.3711330  55.2367570  54.7394900  57.4802450  54.2962310  54.5990290
  56.7191890  55.5022320  54.0908630  63.4038090  54.3543910  41.0826170
  63.3948190  55.0873600  40.4670680  62.4836450  54.1075490  41.1753130
  59.0044730  49.5758800  41.8272930  58.3972680  50.3157700  41.8368230
  59.4794080  49.6658160  41.0011130  66.3897690  54.4172150  39.7451360
  66.4909670  54.2136140  38.8153340  65.4899430  54.1630430  39.9499140
  63.9123580  44.9752510  43.7275260  63.2039730  45.4438850  44.1688870
  64.1968060  44.3174520  44.3620450  65.0315800  56.9358470  44.4399030
  65.2857300  56.8979860  43.5178400  64.0828280  56.8091800  44.4327280
  62.1158600  43.2837590  41.1025970  62.9649130  43.7207740  41.0366160
  61.7489870  43.5957850  41.9298030  61.0150020  49.5369950  39.5761500
  61.7813290  49.4251310  40.1386930  61.0924710  48.8407920  38.9238270
  59.7096780  46.9695020  40.2594390  59.7900370  46.0222530  40.3711790
  60.6016530  47.3001900  40.3655050  57.3956970  53.1863980  43.2370440
  56.4696750  53.4285120  43.2275850  57.8613400  54.0138240  43.1155190
  59.5169770  56.3036480  56.5514510  60.3182500  56.6248530  56.9649910
  59.0021590  55.9432060  57.2734420  63.6213800  56.2920720  39.1854500
  64.4142410  56.5809550  38.7336290  63.1018150  55.8612890  38.5066980
  72.6743970  55.5190850  40.6091240  72.3885480  55.1055990  39.7945420
  72.4763520  56.4478560  40.4891760  57.2367580  48.7909940  55.4950560
  57.7406600  48.2117220  56.0666790  56.4975000  49.0750170  56.0326930
  64.1391200  51.5124130  39.0496850  64.0341840  50.8976480  39.7758230
  63.9715420  50.9890020  38.2659860  67.3793930  50.5744160  39.6538840
  66.8304030  51.0213460  40.2981580  68.0013190  50.0693410  40.1776510
  59.2690660  46.9339530  56.3900630  59.3096000  46.6353400  57.2985860
  60.1236160  47.3347140  56.2308150  63.0469050  49.5335080  41.5504140
  63.4685470  49.3674950  42.3935530  63.1719890  48.7235310  41.0559280
  65.5596690  48.5572690  38.7981240  66.0802350  47.8421710  38.4322390
  66.2065090  49.1958560  39.0981750  61.6968770  42.4794000  54.4372410
  61.6025640  41.8614750  53.7123280  61.1166160  43.2060290  54.2102320
  64.4630210  41.0367240  51.4699800  64.0147510  41.0591500  50.6245350
  63.8295410  40.6386260  52.0670100  61.9427950  45.6068310  38.4962300
  61.7417010  44.7435670  38.8575640  61.7720000  45.5201670  37.5583900
  60.7410750  42.7068930  38.4840180  61.0436650  42.7136360  37.5759330
  61.4805340  42.3566790  38.9807840  63.9595680  41.6503550  39.4696380
  63.6117680  40.9727540  38.8898830  64.1608450  41.1893060  40.2839770
  66.1244720  56.6384300  41.0882980  67.0195510  56.9769270  41.1101740
  66.1562350  55.9163710  40.4607260  59.7640880  52.0111350  39.3169980
  60.2015750  52.5541020  39.9727560  60.2488610  51.1858300  39.3266320
  56.9786680  54.8000380  46.7690240  57.3089690  53.9321440  46.5368880
  57.4077680  55.0058900  47.5995200  61.5748600  53.1309390  44.4292210
  61.2744140  53.0074360  45.3296120  61.4686090  52.2717980  44.0207940
  57.4676890  55.6670970  49.5071870  57.0307880  55.8471770  50.3396020
  58.0354570  56.4245590  49.3653590  57.3001320  48.1791200  45.8660750
  56.6450160  47.9102840  45.2220450  58.1379270  48.0695680  45.4162730
  70.2491760  42.9732490  40.0879240  70.6676640  42.7863470  39.2475900
  69.9427820  42.1211540  40.3982170  73.7481490  47.8856630  43.7855040
  73.3725090  47.1184560  43.3536330  73.0184610  48.2679330  44.2729970
  57.8893250  45.4752860  54.3122510  56.9949300  45.4419620  54.6516220
  58.4290800  45.6739650  55.0773760  56.5139400  45.3890130  41.8086080
  55.6103480  45.6520330  41.6337740  56.9980020  45.6601300  41.0286040
  73.0232450  46.1114120  47.0862280  73.5469930  45.6176770  46.4552450
  73.6091870  46.2464480  47.8309850  59.0566610  44.4455670  39.7180460
  59.7658310  44.0238890  39.2327740  58.3406550  44.5130900  39.0863810
  58.7040770  40.4995000  38.7583110  59.4268900  41.0403940  39.0764330
  58.9765290  40.2258420  37.8824650  72.5132420  45.3687470  43.0254690
  73.0091540  45.1358340  43.8103570  72.3148490  44.5299310  42.6092330
  58.3932960  39.7501190  48.6605730  59.0409150  39.1998570  48.2200890
  58.8134800  40.0044340  49.4821540  73.9419580  44.0048420  45.5592370
  73.8318860  43.8504460  46.4974640  74.7027170  43.4769360  45.3167780
  74.8309850  41.8356340  38.7998510  75.7559160  41.7037520  38.5916800
  74.8085640  41.9149160  39.7534960  74.9048340  42.6067000  41.4255220
  74.1099840  42.5412120  41.9548130  75.1091620  43.5417640  41.4140570
  58.1464960  39.9056860  51.4031050  57.7979780  40.3620680  52.1689230
  57.8152660  39.0113990  51.4853480  58.8185600  39.4333060  54.6781820
  59.3668590  39.2521110  53.9147930  58.8840910  38.6427170  55.2138130
  66.7847200  40.2340780  49.8304960  66.0018990  40.7086280  50.1101720
  66.4910130  39.3295610  49.7218140  71.3368270  40.9363880  47.8754050
  71.7776360  40.8808980  47.0275650  71.0675860  41.8521890  47.9464230
  73.2006840  40.5679120  45.8862870  73.1395240  39.6240340  45.7393890
  73.9798870  40.6759210  46.4316330  57.5059590  56.7071480  44.8486820
  57.3381630  56.0742160  45.5468710  56.6394100  56.9130880  44.4981010
  58.1287610  40.5388260  42.3518680  58.8866970  40.6517140  41.7782710
  57.6664780  41.3757460  42.3062110  64.6701420  42.6527530  45.3420990
  63.8575930  42.2784420  45.0016870  65.1743060  41.8972610  45.6442180
  59.1122290  55.4004710  42.2936960  58.5869910  55.7812740  41.5898920
  59.0366870  56.0255480  43.0146670  60.5012760  41.0652310  40.8920650
  61.0305520  40.2782110  40.7628600  61.1341080  41.7443500  41.1256180
  62.6950600  40.8027450  43.9466040  62.0653340  40.1014760  44.1136170
  62.1555740  41.5631580  43.7299200  73.8687610  56.9592250  43.6150900
  74.0439800  56.2729990  42.9711820  73.1709180  57.4839300  43.2227570
  62.8206160  40.0811430  56.3818530  62.5390430  40.5845030  55.6179350
  63.2025860  39.2833180  56.0160660  61.7115260  57.3487090  41.1686210
  62.4434080  57.0646370  40.6210100  61.9708930  57.1100370  42.0585590
  60.8730050  53.4651820  41.1732540  60.2438930  53.9336920  41.7218370
  60.9877880  52.6201040  41.6078730  68.3279770  47.5157480  27.3233740
  68.2473820  46.6012090  27.0525450  67.9144190  48.0124550  26.6173450
  70.4805240  53.6996690  27.9842140  70.0186770  52.9283930  28.3129310
  71.2930790  53.7262760  28.4894590  58.8855590  44.5658200  23.8661160
  57.9972290  44.9074170  23.7641040  59.1696780  44.3658520  22.9741990
  66.7068550  55.9854700  27.6046130  66.0879990  56.4412200  27.0340570
  67.5620330  56.1406160  27.2035830  66.9311970  44.7764070  29.4382100
  67.3076790  43.9035950  29.3255770  66.8331480  45.1122770  28.5472540
  61.0616980  43.1489700  24.8999540  61.1683730  44.0493430  25.2068300
  60.1509340  43.1007670  24.6094190  61.1860810  40.7574630  33.4988140
  61.1879250  41.2747020  32.6934040  60.3565120  40.2804810  33.4758070
  67.5731900  50.8693940  24.9978040  66.9549170  51.3343390  24.4340760
  68.0855150  51.5621420  25.4147550  56.9415100  51.5550470  22.3717670
  56.5643080  52.0437570  21.6402570  57.1988170  52.2275750  23.0024200
  64.5504030  39.9566860  27.8303180  64.8579010  39.4013750  27.1138680
  63.6204730  40.0911320  27.6476170  70.1019090  55.6734150  30.1210640
  70.1146250  55.2696440  29.2532900  69.5494310  56.4481440  30.0172070
  71.3964510  52.3950370  25.2100810  71.2860840  51.4524700  25.3350230
  71.3932760  52.7566010  26.0963570  66.9384790  48.0215690  24.5663300
  66.0114070  47.9553070  24.7951770  67.0909610  48.9595820  24.4518540
  66.9253870  44.2932690  21.5630460  65.9857540  44.4546650  21.6482920
  67.2437130  45.0118370  21.0166450  70.9682080  49.5835990  25.0698550
  70.3494500  49.2455540  24.4224850  70.9506530  48.9395750  25.7777740
  62.5441430  48.5480430  27.3483030  62.1398430  47.8357680  26.8528930
  62.6304550  48.2033670  28.2371070  62.1041560  51.9729680  36.1630040
  61.2070090  52.1969650  36.4103440  62.1294430  52.0964620  35.2141440
  69.1446780  48.8222800  22.0771300  69.5840060  47.9845230  21.9309120
  69.8575200  49.4552200  22.1635440  60.9312780  48.8443000  34.7387410
  60.7920550  49.7165800  35.1074810  60.0494140  48.5015810  34.5935350
  67.2542160  53.7618870  26.0452540  67.6938070  54.5043200  25.6307930
  67.1929050  54.0045440  26.9691500  62.7293130  54.7864700  36.9472560
  62.7008560  55.1907650  36.0800990  62.5658100  53.8575060  36.7844160
  72.7263920  40.0765610  20.3912340  72.4136580  40.1692440  21.2911410
  73.4876390  40.6546640  20.3409770  59.2446060  47.4425410  24.8489680
  59.1243660  48.1687500  24.2370950  58.9346950  46.6728320  24.3717590
  74.6807950  55.5691800  38.2436730  75.1567670  56.0474690  38.9225810
  75.3015110  55.5009290  37.5182230  58.1279060  52.3140740  27.0664500
  57.7207140  52.4555330  26.2118100  59.0192070  52.0300900  26.8635710
  74.0841200  52.7604650  35.4036740  74.2104260  52.5216530  34.4853920
  74.1262580  51.9289190  35.8758820  67.9457940  56.4632650  33.9731550
  68.4602610  56.3740660  34.7753980  67.1027020  56.8092350  34.2659460
  69.9212340  56.7487990  23.4015550  69.7613480  56.4590930  24.2997380
  69.7559050  55.9728120  22.8660780  62.4000720  56.5286520  25.1787170
  62.2243200  55.6122060  24.9654970  61.5456460  56.8873810  25.4184970
  69.6238470  54.2575550  21.9613550  68.9303630  54.2552840  21.3015830
  70.3661330  53.8334870  21.5307720  69.1888400  55.8838260  26.0362040
  69.6445350  55.1027640  26.3500660  69.5280920  56.5945080  26.5803220
  73.9365210  44.8137110  36.3686480  73.3209480  45.3216780  35.8401940
  73.6161630  43.9135440  36.3112420  56.9390950  51.6554720  33.1952780
  57.1021990  51.1860080  32.3772150  57.4043400  51.1478280  33.8601620
  61.7109720  40.7860480  28.2313350  61.2677870  41.5670020  27.8997870
  62.2694710  41.1090370  28.9384290  65.9979530  43.6529000  33.8348670
  65.5358900  43.8612020  34.6468610  65.5957640  42.8388350  33.5319340
  70.9984040  44.8737950  34.9645330  70.1477630  44.5743700  35.2854400
  70.8385830  45.1179960  34.0529150  68.0933750  46.3739700  37.0644120
  68.4187160  45.5403450  36.7246350  68.8814080  46.8968220  37.2122450
  64.8268540  40.4071180  23.1119180  64.2022720  40.4031050  23.8372490
  64.7398660  39.5402140  22.7155150  63.7485620  41.3307810  30.0902950
  64.0457950  42.2370640  30.0094970  64.2971180  40.8426590  29.4762520
  61.5023940  45.9094050  25.9594600  61.2764860  45.6931220  26.8641220
  60.7216470  46.3422510  25.6140570  68.7321700  45.9157420  24.5585250
  68.1330590  46.6393220  24.3748870  69.2801310  45.8534200  23.7761700
  63.9423150  46.8079630  36.6254870  63.8466750  45.8674360  36.4755270
  64.7855130  47.0294700  36.2302940  67.3386570  44.5520960  26.5888530
  67.7316140  44.8693160  25.7757220  67.7003420  43.6732840  26.7033050
  65.6478740  43.3028270  37.8485390  64.9577060  43.1100470  38.4831480
  66.3911040  43.5862910  38.3809690  56.5620970  45.0841880  20.0221450
  56.4795640  46.0272640  20.1636440  56.2104030  44.9416790  19.1433800
  64.3619100  43.8180910  29.0891800  64.3655160  43.3770860  28.2396340
  65.2570220  44.1398240  29.1963620  60.2121480  43.7007400  28.0486010
  59.8721530  44.1782630  28.8053060  59.4498800  43.2472520  27.6887110
  64.4239250  44.8192990  22.0798560  64.5452070  44.7779470  23.0284380
  64.0387760  45.6817140  21.9245290  63.4360750  47.1294130  21.4781860
  62.8677650  46.6812380  20.8517770  64.1449750  47.4886910  20.9447010
  71.8138370  40.0092570  35.9348630  72.1384140  39.2782230  36.4606610
  71.8494880  39.6906210  35.0329620  58.5129930  51.0306150  35.3548590
  58.1284720  50.3899820  35.9531550  58.8242120  51.7342270  35.9243320
  60.9808230  51.1252320  23.7508270  60.2070490  50.5849940  23.5906990
  61.7102860  50.6058930  23.4126030  67.2006150  41.5155640  23.6864050
  66.3870760  41.0168810  23.6109360  67.0068100  42.3553890  23.2700400
  67.1215010  50.1926740  35.4303660  67.0552320  49.2722410  35.1761250
  66.4920150  50.2902180  36.1448300  69.9154540  45.8875290  21.9826210
  70.8034160  46.1992520  21.8077550  69.8859630  45.0147540  21.5906790
  61.0245630  50.7932700  27.3887080  61.5424300  49.9900960  27.3343970
  60.5729650  50.7311840  28.2303910  65.9115130  52.0598980  22.6614380
  66.2530830  52.8041210  22.1657700  65.0827840  52.3730100  23.0239210
  61.7103290  48.2178310  37.1852330  61.4103430  48.3635490  36.2880150
  62.4814530  47.6583600  37.0925720  67.0531740  53.0147310  35.1807460
  67.0676280  52.0828270  34.9626370  66.3456840  53.1007070  35.8197230
  72.1868810  47.1987130  21.4506070  72.1032530  47.6301350  20.6002510
  72.9063000  47.6585480  21.8832890  73.2156060  54.0529390  24.1788200
  72.5732220  53.3985010  24.4531920  72.8286720  54.4584480  23.4028870
  68.7942540  51.3814820  28.0259890  69.1466360  50.7842950  27.3661260
  67.9104870  51.0559050  28.1968140  64.8805820  52.1412510  25.4330300
  65.5676950  52.6881720  25.8137890  64.0938240  52.6853240  25.4679910
  57.0198220  47.7585330  20.9247380  57.8893070  48.0410130  21.2083300
  56.5288540  48.5721200  20.8096190  64.1833030  49.1458540  25.0455660
  64.6395810  49.9563790  25.2715850  63.8321240  48.8281680  25.8774150
  66.4865640  54.6564880  32.2747960  67.1307860  54.8624260  32.9521380
  66.8495080  53.8953280  31.8218810  60.0844810  39.4896190  25.5178180
  59.9559440  39.4814090  26.4663100  59.2606830  39.8279280  25.1669190
  71.6053440  52.9445850  20.7164550  71.3791020  52.2276290  21.3089190
  71.2149640  52.6958290  19.8786300  69.5335340  53.4592130  34.1961470
  69.8691580  54.0458820  34.8739390  68.6135680  53.3284840  34.4259260
  57.3869470  56.9712710  21.4909010  57.7467110  57.5702050  20.8366280
  57.2461810  57.5172600  22.2644040  57.0838740  41.2487310  34.9784880
  56.3697260  41.4484230  35.5837490  57.5033780  40.4726880  35.3499680
  71.1869690  50.8617790  22.3778710  70.8991390  51.3230480  23.1656590
  71.9821860  50.4015560  22.6462930  57.3711330  55.2367570  35.9651410
  57.4802450  54.2962310  35.8246800  56.7191890  55.5022320  35.3165140
  65.3623920  53.5083460  37.3649530  65.0420790  52.7892700  37.9095220
  64.6882280  54.1838530  37.4385590  63.4038090  54.3543910  22.3082680
  63.3948190  55.0873600  21.6927190  62.4836450  54.1075490  22.4009640
  59.0044730  49.5758800  23.0529440  58.3972680  50.3157700  23.0624740
  59.4794080  49.6658160  22.2267640  68.5777520  43.7409620  32.7286330
  68.9458340  42.9204830  33.0565900  67.7175720  43.8011510  33.1441980
  66.3897690  54.4172150  20.9707870  66.4909670  54.2136140  20.0409850
  65.4899430  54.1630430  21.1755650  63.9123580  44.9752510  24.9531770
  63.2039730  45.4438850  25.3945380  64.1968060  44.3174520  25.5876960
  65.5379510  46.3949210  32.9524300  66.0364760  46.8695030  33.6176150
  65.6802460  45.4712730  33.1594330  65.0315800  56.9358470  25.6655540
  65.2857300  56.8979860  24.7434910  64.0828280  56.8091800  25.6583790
  62.1158600  43.2837590  22.3282480  62.9649130  43.7207740  22.2622670
  61.7489870  43.5957850  23.1554540  72.7446370  42.6117170  33.7952690
  72.2419970  43.3522570  34.1346500  73.5603030  43.0001170  33.4789480
  71.0368380  47.8550350  27.2414050  70.0958520  47.8700580  27.4161740
  71.3512450  47.0686310  27.6874350  61.0150020  49.5369950  20.8018010
  61.7813290  49.4251310  21.3643440  61.0924710  48.8407920  20.1494780
  59.7096780  46.9695020  21.4850900  59.7900370  46.0222530  21.5968300
  60.6016530  47.3001900  21.5911560  60.5111490  57.1190410  28.5885440
  61.2473970  56.5705870  28.8594010  60.8952410  57.9846420  28.4491430
  57.3956970  53.1863980  24.4626950  56.4696750  53.4285120  24.4532360
  57.8613400  54.0138240  24.3411700  59.5169770  56.3036480  37.7771020
  60.3182500  56.6248530  38.1906420  59.0021590  55.9432060  38.4990930
  63.6213800  56.2920720  20.4111010  64.4142410  56.5809550  19.9592800
  63.1018150  55.8612890  19.7323490  68.3534400  52.4116350  37.7246430
  67.7472560  52.4347950  36.9842180  68.0488510  51.6799390  38.2613680
  69.7834770  56.1396640  36.3355840  70.7356520  56.0554660  36.2856080
  69.6362990  56.8038350  37.0089630  57.2367580  48.7909940  36.7207070
  57.7406600  48.2117220  37.2923300  56.4975000  49.0750170  37.2583440
  64.1391200  51.5124130  20.2753360  64.0341840  50.8976480  21.0014740
  63.9715420  50.9890020  19.4916370  64.2905520  50.1980930  36.2542590
  63.5251190  50.7665930  36.1697260  64.4721480  49.9057140  35.3610820
  67.3793930  50.5744160  20.8795350  66.8304030  51.0213460  21.5238090
  68.0013190  50.0693410  21.4033020  71.4328870  51.9286260  36.8117610
  72.1738340  52.2662020  36.3085070  70.6701550  52.0978320  36.2587380
  59.2690660  46.9339530  37.6157140  59.3096000  46.6353400  38.5242370
  60.1236160  47.3347140  37.4564660  63.0469050  49.5335080  22.7760650
  63.4685470  49.3674950  23.6192040  63.1719890  48.7235310  22.2815790
  61.2096470  45.5131630  35.5831630  60.6792930  45.0222580  34.9554970
  61.8784540  45.9415830  35.0489560  65.5596690  48.5572690  20.0237750
  66.0802350  47.8421710  19.6578900  66.2065090  49.1958560  20.3238260
  70.5796700  47.3197250  37.3511970  71.1617470  46.5649570  37.2632450
  70.7558470  47.8504690  36.5743450  61.6968770  42.4794000  35.6628920
  61.6025640  41.8614750  34.9379790  61.1166160  43.2060290  35.4358830
  64.4630210  41.0367240  32.6956310  64.0147510  41.0591500  31.8501860
  63.8295410  40.6386260  33.2926610  67.2053660  47.6637750  34.7006590
  67.3249870  47.0678890  35.4401430  68.0647660  47.7007440  34.2807890
  61.9427950  45.6068310  19.7218810  61.7417010  44.7435670  20.0832150
  61.7720000  45.5201670  18.7840410  62.7197180  56.2374580  34.4326480
  62.1818270  56.9620640  34.1135180  62.9731140  55.7604920  33.6423820
  63.9722430  44.2059100  35.9582410  64.5622120  43.8974950  36.6460230
  63.1542670  43.7338850  36.1142310  68.7915860  43.8224910  36.1915430
  68.1031380  43.1606450  36.1265420  69.5121880  43.3763180  36.6363890
  69.4216260  40.4176540  22.2505690  69.7018550  39.5744440  22.6065110
  68.6481990  40.6499650  22.7644440  60.7410750  42.7068930  19.7096690
  61.0436650  42.7136360  18.8015840  61.4805340  42.3566790  20.2064350
  65.5759390  57.4725790  34.6913130  65.5018090  58.3760930  34.9985500
  64.6738230  57.1537690  34.6635200  63.9595680  41.6503550  20.6952890
  63.6117680  40.9727540  20.1155340  64.1608450  41.1893060  21.5096280
  66.1244720  56.6384300  22.3139490  67.0195510  56.9769270  22.3358250
  66.1562350  55.9163710  21.6863770  59.7640880  52.0111350  20.5426490
  60.2015750  52.5541020  21.1984070  60.2488610  51.1858300  20.5522830
  56.9786680  54.8000380  27.9946750  57.3089690  53.9321440  27.7625390
  57.4077680  55.0058900  28.8251710  61.5748600  53.1309390  25.6548720
  61.2744140  53.0074360  26.5552630  61.4686090  52.2717980  25.2464450
  57.4676890  55.6670970  30.7328380  57.0307880  55.8471770  31.5652530
  58.0354570  56.4245590  30.5910100  74.3440520  52.9105790  20.3575400
  73.5133480  52.9782440  20.8282630  74.5212350  53.8009910  20.0542260
  73.7996980  49.6553270  22.8609600  74.5615890  50.2249920  22.9669290
  73.8151350  49.0880470  23.6317910  57.3001320  48.1791200  27.0917260
  56.6450160  47.9102840  26.4476960  58.1379270  48.0695680  26.6419240
  74.8056950  50.5103370  27.7051530  75.1765780  49.7270690  27.2987500
  75.4458880  51.1992470  27.5268830  73.8516150  49.9487640  20.0182120
  74.1264990  50.8566520  19.8901340  73.6626890  49.8850170  20.9544110
  70.2491760  42.9732490  21.3135750  70.6676640  42.7863470  20.4732410
  69.9427820  42.1211540  21.6238680  57.8893250  45.4752860  35.5379020
  56.9949300  45.4419620  35.8772730  58.4290800  45.6739650  36.3030270
  71.5769180  42.2584580  37.4230770  72.4539360  42.2667980  37.8064770
  71.5890020  41.5215420  36.8123120  56.5139400  45.3890130  23.0342590
  55.6103480  45.6520330  22.8594250  56.9980020  45.6601300  22.2542550
  59.0566610  44.4455670  20.9436970  59.7658310  44.0238890  20.4584250
  58.3406550  44.5130900  20.3120320  58.7040770  40.4995000  19.9839620
  59.4268900  41.0403940  20.3020840  58.9765290  40.2258420  19.1081160
  58.3932960  39.7501190  29.8862240  59.0409150  39.1998570  29.4457400
  58.8134800  40.0044340  30.7078050  72.2885300  39.9442550  33.2431880
  72.9257520  40.5576690  33.6091070  72.4360190  39.9803210  32.2981110
  74.8309850  41.8356340  20.0255020  75.7559160  41.7037520  19.8173310
  74.8085640  41.9149160  20.9791470  71.8466760  56.6458550  26.6450120
  72.4425830  56.3243120  25.9684540  72.1044910  56.1730370  27.4363390
  58.1464960  39.9056860  32.6287560  57.7979780  40.3620680  33.3945740
  57.8152660  39.0113990  32.7109990  59.7529330  53.0776460  36.7940750
  59.7098960  52.7069370  37.6755210  59.8840340  54.0154030  36.9342570
  65.6589780  41.0968740  36.1506980  65.5978670  41.6890570  36.9002390
  66.5990160  40.9894700  36.0057240  68.2964340  40.7538800  35.7899270
  68.9104750  41.0718090  35.1280350  68.8413900  40.2687390  36.4095130
  58.8185600  39.4333060  35.9038330  59.3668590  39.2521110  35.1404440
  58.8840910  38.6427170  36.4394640  59.5917360  56.0238710  33.9138530
  58.9977680  55.8923410  34.6528570  59.5841200  55.1876850  33.4480630
  69.0372380  39.3170940  32.1168560  68.1632220  39.6506050  31.9141490
  68.9283130  38.8444120  32.9420430  69.9444360  41.5241810  33.5010280
  69.6157720  40.7093570  33.1212010  70.8926660  41.4811620  33.3775970
  59.2229590  53.3897090  32.8646570  58.4963650  52.7702380  32.7972520
  59.2838740  53.7837700  31.9944650  62.8274690  55.6042090  29.6495980
  63.3439710  54.9929450  29.1244240  63.4772070  56.1070870  30.1406990
  65.5670190  56.4950580  30.4764960  65.8548000  56.2404880  29.5997970
  66.0793410  55.9427940  31.0670530  66.7847200  40.2340780  31.0561470
  66.0018990  40.7086280  31.3358230  66.4910130  39.3295610  30.9474650
  57.5059590  56.7071480  26.0743330  57.3381630  56.0742160  26.7725220
  56.6394100  56.9130880  25.7237520  64.6701420  42.6527530  26.5677500
  63.8575930  42.2784420  26.2273380  65.1743060  41.8972610  26.8698690
  59.1122290  55.4004710  23.5193470  58.5869910  55.7812740  22.8155430
  59.0366870  56.0255480  24.2403180  60.5012760  41.0652310  22.1177160
  61.0305520  40.2782110  21.9885110  61.1341080  41.7443500  22.3512690
  62.6950600  40.8027450  25.1722550  62.0653340  40.1014760  25.3392680
  62.1555740  41.5631580  24.9555710  65.6342550  57.4166680  37.8433160
  66.5609860  57.1810950  37.8869120  65.6192980  58.2438680  37.3619190
  73.8687610  56.9592250  24.8407410  74.0439800  56.2729990  24.1968330
  73.1709180  57.4839300  24.4484080  62.8206160  40.0811430  37.6075040
  62.5390430  40.5845030  36.8435860  63.2025860  39.2833180  37.2417170
  61.7115260  57.3487090  22.3942720  62.4434080  57.0646370  21.8466610
  61.9708930  57.1100370  23.2842100  60.8730050  53.4651820  22.3989050
  60.2438930  53.9336920  22.9474880  60.9877880  52.6201040  22.8335240
  69.4221620  39.4965010  38.1855510  69.3087070  39.8159620  39.0807030
  70.2391360  39.8977520  37.8892790  72.2020110  56.6436540  37.6674200
  72.9945430  56.1485770  37.4600160  72.4953260  57.3226680  38.2749810
  68.3279770  47.5157480   8.5490250  68.2473820  46.6012090   8.2781960
  67.9144190  48.0124550   7.8429960  66.4597810  49.2936500  10.4299520
  65.6839910  48.8136940  10.7198090  67.1110740  48.6142150  10.2555680
  60.4763640  49.6056310  11.3075280  59.6448520  49.3505020  11.7071790
  61.0844620  49.6767080  12.0433200  70.4805240  53.6996690   9.2098650
  70.0186770  52.9283930   9.5385820  71.2930790  53.7262760   9.7151100
  60.4564900  53.6396400  11.5033300  60.7592940  52.7494140  11.3243520
  61.2008490  54.1966620  11.2755550  58.8855590  44.5658200   5.0917670
  57.9972290  44.9074170   4.9897550  59.1696780  44.3658520   4.1998500
  56.8488600  47.1663850  10.9757370  57.4204710  46.3986050  10.9761010
  56.8490140  47.4652610  10.0663980  66.7068550  55.9854700   8.8302640
  66.0879990  56.4412200   8.2597080  67.5620330  56.1406160   8.4292340
  65.9006800  51.9693690  10.4369680  65.8315080  51.0283630  10.2758810
  66.6626660  52.0595100  11.0092250  58.0913470  42.5748210  12.7626300
  57.9116310  41.6773960  13.0429060  57.6893550  43.1220080  13.4373250
  66.9311970  44.7764070  10.6638610  67.3076790  43.9035950  10.5512280
  66.8331480  45.1122770   9.7729050  61.0616980  43.1489700   6.1256050
  61.1683730  44.0493430   6.4324810  60.1509340  43.1007670   5.8350700
  70.7136090  42.2714510   7.5966950  71.5345710  41.7811080   7.6392430
  70.7470170  42.8612170   8.3498790  58.7100140  45.0708710  11.3708640
  59.3910250  45.3347080  11.9896040  58.3948190  44.2309580  11.7046650
  62.9024710  46.1176070  10.4581230  63.4102930  46.6157040  11.0986250
  63.4337950  45.3411270  10.2820590  75.0035640  44.2881260  14.1610580
  74.2987810  44.6762970  13.6425690  75.2693560  44.9831550  14.7631510
  61.1860810  40.7574630  14.7244650  61.1879250  41.2747020  13.9190550
  60.3565120  40.2804810  14.7014580  67.5731900  50.8693940   6.2234550
  66.9549170  51.3343390   5.6597270  68.0855150  51.5621420   6.6404060
  62.4363660  50.3969810  12.9018150  62.1033040  51.0238730  13.5439220
  62.6130340  50.9231690  12.1219820  70.9497570  44.2114890  10.3694490
  70.2453140  44.4999780  10.9497600  71.3109730  45.0215000  10.0094050
  60.8676140  42.4684590  12.7315100  61.2092950  43.3126640  12.4368970
  59.9291950  42.6168330  12.8480440  61.6482760  52.3650610  14.7167330
  62.2656760  53.0401690  14.4351780  60.7875880  52.7738590  14.6254830
  56.9415100  51.5550470   3.5974180  56.5643080  52.0437570   2.8659080
  57.1988170  52.2275750   4.2280710  72.5660350  53.8290020  12.6321970
  71.8823870  54.4989130  12.6238640  73.1054640  54.0270670  11.8666830
  74.0184490  43.6569680  10.7603700  73.0709400  43.6908660  10.8919130
  74.3434480  44.4708630  11.1453060  64.5504030  39.9566860   9.0559690
  64.8579010  39.4013750   8.3395190  63.6204730  40.0911320   8.8732680
  70.1019090  55.6734150  11.3467150  70.1146250  55.2696440  10.4789410
  69.5494310  56.4481440  11.2428580  71.3964510  52.3950370   6.4357320
  71.2860840  51.4524700   6.5606740  71.3932760  52.7566010   7.3220080
  69.5004530  50.5763990  12.6749760  69.9173320  50.3624100  11.8403220
  70.2244350  50.8336780  13.2458380  66.9384790  48.0215690   5.7919810
  66.0114070  47.9553070   6.0208280  67.0909610  48.9595820   5.6775050
  66.9253870  44.2932690   2.7886970  65.9857540  44.4546650   2.8739430
  67.2437130  45.0118370   2.2422960  73.4466630  48.9751210  12.7666000
  72.6185260  49.0444300  12.2916130  74.0417110  49.5605520  12.2981830
  70.9682080  49.5835990   6.2955060  70.3494500  49.2455540   5.6481360
  70.9506530  48.9395750   7.0034250  70.4108640  45.7620530  13.7120870
  69.9979820  46.5874240  13.9660860  69.6784590  45.1765570  13.5197230
  62.5441430  48.5480430   8.5739540  62.1398430  47.8357680   8.0785440
  62.6304550  48.2033670   9.4627580  63.0123130  52.2347990  10.7378750
  62.7151420  51.6293460  10.0586530  63.9622950  52.2725300  10.6268110
  61.2570050  45.3223640  12.3538580  61.8084640  45.4318980  11.5791830
  61.7713560  45.6961240  13.0693810  71.1008740  55.8079860  14.4001850
  70.6239300  56.6152050  14.2074460  70.4170530  55.1558190  14.5528060
  62.1041560  51.9729680  17.3886550  61.2070090  52.1969650  17.6359950
  62.1294430  52.0964620  16.4397950  69.1446780  48.8222800   3.3027810
  69.5840060  47.9845230   3.1565630  69.8575200  49.4552200   3.3891950
  60.9312780  48.8443000  15.9643920  60.7920550  49.7165800  16.3331320
  60.0494140  48.5015810  15.8191860  67.2542160  53.7618870   7.2709050
  67.6938070  54.5043200   6.8564440  67.1929050  54.0045440   8.1948010
  62.7293130  54.7864700  18.1729070  62.7008560  55.1907650  17.3057500
  62.5658100  53.8575060  18.0100670  59.2446060  47.4425410   6.0746190
  59.1243660  48.1687500   5.4627460  58.9346950  46.6728320   5.5974100
  56.8831430  50.6140550  11.8814830  56.9611850  50.7489320  10.9370550
  57.4973110  49.9056440  12.0742950  58.1279060  52.3140740   8.2921010
  57.7207140  52.4555330   7.4374610  59.0192070  52.0300900   8.0892220
  74.0841200  52.7604650  16.6293250  74.2104260  52.5216530  15.7110430
  74.1262580  51.9289190  17.1015330  67.9457940  56.4632650  15.1988060
  68.4602610  56.3740660  16.0010490  67.1027020  56.8092350  15.4915970
  69.9212340  56.7487990   4.6272060  69.7613480  56.4590930   5.5253890
  69.7559050  55.9728120   4.0917290  62.4000720  56.5286520   6.4043680
  62.2243200  55.6122060   6.1911480  61.5456460  56.8873810   6.6441480
  69.6238470  54.2575550   3.1870060  68.9303630  54.2552840   2.5272340
  70.3661330  53.8334870   2.7564230  69.1888400  55.8838260   7.2618550
  69.6445350  55.1027640   7.5757170  69.5280920  56.5945080   7.8059730
  73.9365210  44.8137110  17.5942990  73.3209480  45.3216780  17.0658450
  73.6161630  43.9135440  17.5368930  56.9390950  51.6554720  14.4209290
  57.1021990  51.1860080  13.6028660  57.4043400  51.1478280  15.0858130
  61.7109720  40.7860480   9.4569860  61.2677870  41.5670020   9.1254380
  62.2694710  41.1090370  10.1640800  65.9979530  43.6529000  15.0605180
  65.5358900  43.8612020  15.8725120  65.5957640  42.8388350  14.7575850
  70.9984040  44.8737950  16.1901840  70.1477630  44.5743700  16.5110910
  70.8385830  45.1179960  15.2785660  68.0933750  46.3739700  18.2900630
  68.4187160  45.5403450  17.9502860  68.8814080  46.8968220  18.4378960
  64.8268540  40.4071180   4.3375690  64.2022720  40.4031050   5.0629000
  64.7398660  39.5402140   3.9411660  63.7485620  41.3307810  11.3159460
  64.0457950  42.2370640  11.2351480  64.2971180  40.8426590  10.7019030
  61.5023940  45.9094050   7.1851110  61.2764860  45.6931220   8.0897730
  60.7216470  46.3422510   6.8397080  68.7321700  45.9157420   5.7841760
  68.1330590  46.6393220   5.6005380  69.2801310  45.8534200   5.0018210
  63.9423150  46.8079630  17.8511380  63.8466750  45.8674360  17.7011780
  64.7855130  47.0294700  17.4559450  67.3386570  44.5520960   7.8145040
  67.7316140  44.8693160   7.0013730  67.7003420  43.6732840   7.9289560
  59.0733690  43.2193300  16.0045160  58.6797080  44.0668510  16.2117940
  58.3852090  42.5819670  16.1953800  65.6478740  43.3028270  19.0741900
  64.9577060  43.1100470  19.7087990  66.3911040  43.5862910  19.6066200
  56.3750740  41.1421760  10.0375240  56.0863790  41.7124620  10.7500220
  57.1196500  40.6626210  10.4006470  67.9241710  47.1426710  11.9095820
  67.1922830  47.6513520  12.2585920  67.5266050  46.3256690  11.6084600
  64.3619100  43.8180910  10.3148310  64.3655160  43.3770860   9.4652850
  65.2570220  44.1398240  10.4220130  60.2121480  43.7007400   9.2742520
  59.8721530  44.1782630  10.0309570  59.4498800  43.2472520   8.9143620
  64.4239250  44.8192990   3.3055070  64.5452070  44.7779470   4.2540890
  64.0387760  45.6817140   3.1501800  68.3867620  42.5960390  11.3218760
  68.4040360  43.0469040  12.1660610  68.1383200  41.6966030  11.5352200
  63.4360750  47.1294130   2.7038370  62.8677650  46.6812380   2.0774280
  64.1449750  47.4886910   2.1703520  71.8138370  40.0092570  17.1605140
  72.1384140  39.2782230  17.6863120  71.8494880  39.6906210  16.2586130
  58.5129930  51.0306150  16.5805100  58.1284720  50.3899820  17.1788060
  58.8242120  51.7342270  17.1499830  64.6627070  47.8782690  12.0613720
  65.0297200  47.4041260  12.8075060  64.4732130  48.7524260  12.4022060
  57.5267560  42.6226380   8.1907190  57.2414480  42.2582050   9.0285810
  57.4646420  41.8906840   7.5770330  62.4526440  46.9191330  14.3797930
  62.1483510  47.7983310  14.6048290  63.4072900  46.9791120  14.4155370
  60.9808230  51.1252320   4.9764780  60.2070490  50.5849940   4.8163500
  61.7102860  50.6058930   4.6382540  71.7396210  50.1217680  10.7691170
  72.4595330  50.6172970  10.3787280  71.5378030  49.4435570  10.1245040
  67.2006150  41.5155640   4.9120560  66.3870760  41.0168810   4.8365870
  67.0068100  42.3553890   4.4956910  67.1215010  50.1926740  16.6560170
  67.0552320  49.2722410  16.4017760  66.4920150  50.2902180  17.3704810
  69.9154540  45.8875290   3.2082720  70.8034160  46.1992520   3.0334060
  69.8859630  45.0147540   2.8163300  61.0245630  50.7932700   8.6143590
  61.5424300  49.9900960   8.5600480  60.5729650  50.7311840   9.4560420
  65.9115130  52.0598980   3.8870890  66.2530830  52.8041210   3.3914210
  65.0827840  52.3730100   4.2495720  58.5090170  47.7594070  15.5269290
  58.1505110  48.4247920  16.1142630  58.2144730  46.9277620  15.8981910
  61.7103290  48.2178310  18.4108840  61.4103430  48.3635490  17.5136660
  62.4814530  47.6583600  18.3182230  67.0531740  53.0147310  16.4063970
  67.0676280  52.0828270  16.1882880  66.3456840  53.1007070  17.0453740
  72.1868810  47.1987130   2.6762580  72.1032530  47.6301350   1.8259020
  72.9063000  47.6585480   3.1089400  73.2642950  49.6554650  15.7532550
  72.5391140  50.2483430  15.5561940  73.7918410  49.6478190  14.9545920
  73.2156060  54.0529390   5.4044710  72.5732220  53.3985010   5.6788430
  72.8286720  54.4584480   4.6285380  68.7942540  51.3814820   9.2516400
  69.1466360  50.7842950   8.5917770  67.9104870  51.0559050   9.4224650
  64.8805820  52.1412510   6.6586810  65.5676950  52.6881720   7.0394400
  64.0938240  52.6853240   6.6936420  57.0198220  47.7585330   2.1503890
  57.8893070  48.0410130   2.4339810  56.5288540  48.5721200   2.0352700
  64.1833030  49.1458540   6.2712170  64.6395810  49.9563790   6.4972360
  63.8321240  48.8281680   7.1030660  66.4865640  54.6564880  13.5004470
  67.1307860  54.8624260  14.1777890  66.8495080  53.8953280  13.0475320
  60.0844810  39.4896190   6.7434690  59.9559440  39.4814090   7.6919610
  59.2606830  39.8279280   6.3925700  67.7597720  52.6597230  12.2181920
  68.4019950  51.9590390  12.3314090  68.2847070  53.4395670  12.0378810
  69.5335340  53.4592130  15.4217980  69.8691580  54.0458820  16.0995900
  68.6135680  53.3284840  15.6515770  57.3869470  56.9712710   2.7165520
  57.7467110  57.5702050   2.0622790  57.2461810  57.5172600   3.4900550
  57.0838740  41.2487310  16.2041390  56.3697260  41.4484230  16.8094000
  57.5033780  40.4726880  16.5756190  71.1869690  50.8617790   3.6035220
  70.8991390  51.3230480   4.3913100  71.9821860  50.4015560   3.8719440
  57.3711330  55.2367570  17.1907920  57.4802450  54.2962310  17.0503310
  56.7191890  55.5022320  16.5421650  65.3623920  53.5083460  18.5906040
  65.0420790  52.7892700  19.1351730  64.6882280  54.1838530  18.6642100
  63.4038090  54.3543910   3.5339190  63.3948190  55.0873600   2.9183700
  62.4836450  54.1075490   3.6266150  59.0044730  49.5758800   4.2785950
  58.3972680  50.3157700   4.2881250  59.4794080  49.6658160   3.4524150
  68.5777520  43.7409620  13.9542840  68.9458340  42.9204830  14.2822410
  67.7175720  43.8011510  14.3698490  71.9439550  42.6966560   4.7630400
  71.3152710  42.8012230   4.0488630  71.4491470  42.9163340   5.5524280
  63.9123580  44.9752510   6.1788280  63.2039730  45.4438850   6.6201890
  64.1968060  44.3174520   6.8133470  65.5379510  46.3949210  14.1780810
  66.0364760  46.8695030  14.8432660  65.6802460  45.4712730  14.3850840
  67.9439010  41.7003170   7.6184070  67.8206790  41.7189300   6.6693580
  68.8923570  41.7482110   7.7382470  65.0315800  56.9358470   6.8912050
  65.2857300  56.8979860   5.9691420  64.0828280  56.8091800   6.8840300
  62.1158600  43.2837590   3.5538990  62.9649130  43.7207740   3.4879180
  61.7489870  43.5957850   4.3811050  72.7446370  42.6117170  15.0209200
  72.2419970  43.3522570  15.3603010  73.5603030  43.0001170  14.7045990
  71.0368380  47.8550350   8.4670560  70.0958520  47.8700580   8.6418250
  71.3512450  47.0686310   8.9130860  59.7096780  46.9695020   2.7107410
  59.7900370  46.0222530   2.8224810  60.6016530  47.3001900   2.8168070
  73.0393960  55.0259200  10.1424820  73.1641380  55.8490370  10.6148630
  73.9059520  54.8149930   9.7948970  60.5111490  57.1190410   9.8141950
  61.2473970  56.5705870  10.0850520  60.8952410  57.9846420   9.6747940
  57.3956970  53.1863980   5.6883460  56.4696750  53.4285120   5.6788870
  57.8613400  54.0138240   5.5668210  59.5169770  56.3036480  19.0027530
  60.3182500  56.6248530  19.4162930  59.0021590  55.9432060  19.7247440
  68.3534400  52.4116350  18.9502940  67.7472560  52.4347950  18.2098690
  68.0488510  51.6799390  19.4870190  69.7834770  56.1396640  17.5612350
  70.7356520  56.0554660  17.5112590  69.6362990  56.8038350  18.2346140
  72.6743970  55.5190850   3.0604260  72.3885480  55.1055990   2.2458440
  72.4763520  56.4478560   2.9404780  57.2367580  48.7909940  17.9463580
  57.7406600  48.2117220  18.5179810  56.4975000  49.0750170  18.4839950
  64.2905520  50.1980930  17.4799100  63.5251190  50.7665930  17.3953770
  64.4721480  49.9057140  16.5867330  67.3793930  50.5744160   2.1051860
  66.8304030  51.0213460   2.7494600  68.0013190  50.0693410   2.6289530
  71.4328870  51.9286260  18.0374120  72.1738340  52.2662020  17.5341580
  70.6701550  52.0978320  17.4843890  59.2690660  46.9339530  18.8413650
  59.3096000  46.6353400  19.7498880  60.1236160  47.3347140  18.6821170
  63.0469050  49.5335080   4.0017160  63.4685470  49.3674950   4.8448550
  63.1719890  48.7235310   3.5072300  61.2096470  45.5131630  16.8088140
  60.6792930  45.0222580  16.1811480  61.8784540  45.9415830  16.2746070
  70.1074530  49.9801090  16.5729330  70.5215550  50.1346170  17.4219750
  69.1725530  50.1056310  16.7355110  70.5796700  47.3197250  18.5768480
  71.1617470  46.5649570  18.4888960  70.7558470  47.8504690  17.7999960
  61.6968770  42.4794000  16.8885430  61.6025640  41.8614750  16.1636300
  61.1166160  43.2060290  16.6615340  64.4630210  41.0367240  13.9212820
  64.0147510  41.0591500  13.0758370  63.8295410  40.6386260  14.5183120
  64.8689760  49.9321570  14.5425260  65.2877870  50.7754300  14.3701500
  63.9498390  50.0693610  14.3132040  67.2053660  47.6637750  15.9263100
  67.3249870  47.0678890  16.6657940  68.0647660  47.7007440  15.5064400
  69.5441560  48.2174940  14.5025610  69.0176780  48.7417560  13.8990750
  69.8872900  48.8502330  15.1335340  62.7197180  56.2374580  15.6582990
  62.1818270  56.9620640  15.3391690  62.9731140  55.7604920  14.8680330
  63.9722430  44.2059100  17.1838920  64.5622120  43.8974950  17.8716740
  63.1542670  43.7338850  17.3398820  68.7915860  43.8224910  17.4171940
  68.1031380  43.1606450  17.3521930  69.5121880  43.3763180  17.8620400
  69.4216260  40.4176540   3.4762200  69.7018550  39.5744440   3.8321620
  68.6481990  40.6499650   3.9900950  65.5759390  57.4725790  15.9169640
  65.5018090  58.3760930  16.2242010  64.6738230  57.1537690  15.8891710
  66.1244720  56.6384300   3.5396000  67.0195510  56.9769270   3.5614760
  66.1562350  55.9163710   2.9120280  59.7640880  52.0111350   1.7683000
  60.2015750  52.5541020   2.4240580  60.2488610  51.1858300   1.7779340
  56.9786680  54.8000380   9.2203260  57.3089690  53.9321440   8.9881900
  57.4077680  55.0058900  10.0508220  61.5748600  53.1309390   6.8805230
  61.2744140  53.0074360   7.7809140  61.4686090  52.2717980   6.4720960
  57.4676890  55.6670970  11.9584890  57.0307880  55.8471770  12.7909040
  58.0354570  56.4245590  11.8166610  73.1039070  55.1687970  16.2462200
  72.5041060  55.2280530  15.5026120  73.2332970  54.2292950  16.3759050
  73.7996980  49.6553270   4.0866110  74.5615890  50.2249920   4.1925800
  73.8151350  49.0880470   4.8574420  57.3001320  48.1791200   8.3173770
  56.6450160  47.9102840   7.6733470  58.1379270  48.0695680   7.8675750
  74.8056950  50.5103370   8.9308040  75.1765780  49.7270690   8.5244010
  75.4458880  51.1992470   8.7525340  71.7890710  51.8939950  14.3438360
  70.9750550  52.3237110  14.6064150  72.1964910  52.5058360  13.7307410
  70.2491760  42.9732490   2.5392260  70.6676640  42.7863470   1.6988920
  69.9427820  42.1211540   2.8495190  73.7481490  47.8856630   6.2368060
  73.3725090  47.1184560   5.8049350  73.0184610  48.2679330   6.7242990
  58.3377250  48.5643770  12.8577110  58.7050290  48.4771170  13.7373130
  57.7688070  47.8010320  12.7583970  73.1381110  47.0328150  15.8707580
  72.9067200  46.8040900  14.9705530  73.3985660  47.9527700  15.8252470
  57.8893250  45.4752860  16.7635530  56.9949300  45.4419620  17.1029240
  58.4290800  45.6739650  17.5286780  71.5769180  42.2584580  18.6487280
  72.4539360  42.2667980  19.0321280  71.5890020  41.5215420  18.0379630
  56.5139400  45.3890130   4.2599100  55.6103480  45.6520330   4.0850760
  56.9980020  45.6601300   3.4799060  73.0232450  46.1114120   9.5375300
  73.5469930  45.6176770   8.9065470  73.6091870  46.2464480  10.2822870
  73.2022170  46.1953990  13.0594850  72.2524880  46.1617530  13.1739840
  73.3835180  47.1054100  12.8244620  72.5132420  45.3687470   5.4767710
  73.0091540  45.1358340   6.2616590  72.3148490  44.5299310   5.0605350
  58.3932960  39.7501190  11.1118750  59.0409150  39.1998570  10.6713910
  58.8134800  40.0044340  11.9334560  73.9419580  44.0048420   8.0105390
  73.8318860  43.8504460   8.9487660  74.7027170  43.4769360   7.7680800
  72.2885300  39.9442550  14.4688390  72.9257520  40.5576690  14.8347580
  72.4360190  39.9803210  13.5237620  74.9048340  42.6067000   3.8768240
  74.1099840  42.5412120   4.4061150  75.1091620  43.5417640   3.8653590
  71.8466760  56.6458550   7.8706630  72.4425830  56.3243120   7.1941050
  72.1044910  56.1730370   8.6619900  58.1464960  39.9056860  13.8544070
  57.7979780  40.3620680  14.6202250  57.8152660  39.0113990  13.9366500
  59.7529330  53.0776460  18.0197260  59.7098960  52.7069370  18.9011720
  59.8840340  54.0154030  18.1599080  63.4535360  54.6336050  13.6206980
  63.2126720  54.9010610  12.7337500  64.3938000  54.8041780  13.6757840
  65.6589780  41.0968740  17.3763490  65.5978670  41.6890570  18.1258900
  66.5990160  40.9894700  17.2313750  68.2964340  40.7538800  17.0155780
  68.9104750  41.0718090  16.3536860  68.8413900  40.2687390  17.6351640
  74.7139520  56.6530430  14.4217620  74.2197800  57.0499300  13.7044750
  74.1052810  56.0279640  14.8154900  58.8185600  39.4333060  17.1294840
  59.3668590  39.2521110  16.3660950  58.8840910  38.6427170  17.6651150
  59.5917360  56.0238710  15.1395040  58.9977680  55.8923410  15.8785080
  59.5841200  55.1876850  14.6737140  69.0372380  39.3170940  13.3425070
  68.1632220  39.6506050  13.1398000  68.9283130  38.8444120  14.1676940
  69.9444360  41.5241810  14.7266790  69.6157720  40.7093570  14.3468520
  70.8926660  41.4811620  14.6032480  72.3978970  57.2953850  11.7004360
  71.9381940  58.0469660  11.3262380  71.7691430  56.5760320  11.6419160
  59.2229590  53.3897090  14.0903080  58.4963650  52.7702380  14.0229030
  59.2838740  53.7837700  13.2201160  62.8274690  55.6042090  10.8752490
  63.3439710  54.9929450  10.3500750  63.4772070  56.1070870  11.3663500
  65.5670190  56.4950580  11.7021470  65.8548000  56.2404880  10.8254480
  66.0793410  55.9427940  12.2927040  66.7847200  40.2340780  12.2817980
  66.0018990  40.7086280  12.5614740  66.4910130  39.3295610  12.1731160
  71.3368270  40.9363880  10.3267070  71.7776360  40.8808980   9.4788670
  71.0675860  41.8521890  10.3977250  73.2006840  40.5679120   8.3375890
  73.1395240  39.6240340   8.1906910  73.9798870  40.6759210   8.8829350
  57.5059590  56.7071480   7.2999840  57.3381630  56.0742160   7.9981730
  56.6394100  56.9130880   6.9494030  58.1287610  40.5388260   4.8031700
  58.8866970  40.6517140   4.2295730  57.6664780  41.3757460   4.7575130
  64.6701420  42.6527530   7.7934010  63.8575930  42.2784420   7.4529890
  65.1743060  41.8972610   8.0955200  69.1726400  39.3169980   9.0317080
  69.7755770  39.8890190   9.5065600  68.4319390  39.8809420   8.8090980
  72.3161000  39.7191540   4.3057360  72.5111630  40.6174990   4.5724790
  71.5290870  39.4878620   4.7990310  59.1122290  55.4004710   4.7449980
  58.5869910  55.7812740   4.0411940  59.0366870  56.0255480   5.4659690
  60.5012760  41.0652310   3.3433670  61.0305520  40.2782110   3.2141620
  61.1341080  41.7443500   3.5769200  62.6950600  40.8027450   6.3979060
  62.0653340  40.1014760   6.5649190  62.1555740  41.5631580   6.1812220
  65.6342550  57.4166680  19.0689670  66.5609860  57.1810950  19.1125630
  65.6192980  58.2438680  18.5875700  73.8687610  56.9592250   6.0663920
  74.0439800  56.2729990   5.4224840  73.1709180  57.4839300   5.6740590
  62.8206160  40.0811430  18.8331550  62.5390430  40.5845030  18.0692370
  63.2025860  39.2833180  18.4673680  61.7115260  57.3487090   3.6199230
  62.4434080  57.0646370   3.0723120  61.9708930  57.1100370   4.5098610
  60.8730050  53.4651820   3.6245560  60.2438930  53.9336920   4.1731390
  60.9877880  52.6201040   4.0591750  69.4221620  39.4965010  19.4112020
  69.3087070  39.8159620  20.3063540  70.2391360  39.8977520  19.1149300
  72.2020110  56.6436540  18.8930710  72.9945430  56.1485770  18.6856670
  72.4953260  57.3226680  19.5006320  68.3279770  28.7413990 139.9694680
  68.2473820  27.8268600 139.6986390  67.9144190  29.2381060 139.2634390
  66.4597810  30.5193010 141.8503950  65.6839910  30.0393450 142.1402520
  67.1110740  29.8398660 141.6760110  60.4763640  30.8312820 142.7279710
  59.6448520  30.5761530 143.1276220  61.0844620  30.9023590 143.4637630
  70.4805240  34.9253200 140.6303080  70.0186770  34.1540440 140.9590250
  71.2930790  34.9519270 141.1355530  60.4564900  34.8652910 142.9237730
  60.7592940  33.9750650 142.7447950  61.2008490  35.4223130 142.6959980
  58.8855590  25.7914710 136.5122100  57.9972290  26.1330680 136.4101980
  59.1696780  25.5915030 135.6202930  56.8488600  28.3920360 142.3961800
  57.4204710  27.6242560 142.3965440  56.8490140  28.6909120 141.4868410
  66.7068550  37.2111210 140.2507070  66.0879990  37.6668710 139.6801510
  67.5620330  37.3662670 139.8496770  65.9006800  33.1950200 141.8574110
  65.8315080  32.2540140 141.6963240  66.6626660  33.2851610 142.4296680
  58.0913470  23.8004720 144.1830730  57.9116310  22.9030470 144.4633490
  57.6893550  24.3476590 144.8577680  66.9311970  26.0020580 142.0843040
  67.3076790  25.1292460 141.9716710  66.8331480  26.3379280 141.1933480
  61.0616980  24.3746210 137.5460480  61.1683730  25.2749940 137.8529240
  60.1509340  24.3264180 137.2555130  70.7136090  23.4971020 139.0171380
  71.5345710  23.0067590 139.0596860  70.7470170  24.0868680 139.7703220
  58.7100140  26.2965220 142.7913070  59.3910250  26.5603590 143.4100470
  58.3948190  25.4566090 143.1251080  62.9024710  27.3432580 141.8785660
  63.4102930  27.8413550 142.5190680  63.4337950  26.5667780 141.7025020
  75.0035640  25.5137770 145.5815010  74.2987810  25.9019480 145.0630120
  75.2693560  26.2088060 146.1835940  61.1860810  21.9831140 146.1449080
  61.1879250  22.5003530 145.3394980  60.3565120  21.5061320 146.1219010
  67.5731900  32.0950450 137.6438980  66.9549170  32.5599900 137.0801700
  68.0855150  32.7877930 138.0608490  62.4363660  31.6226320 144.3222580
  62.1033040  32.2495240 144.9643650  62.6130340  32.1488200 143.5424250
  70.9497570  25.4371400 141.7898920  70.2453140  25.7256290 142.3702030
  71.3109730  26.2471510 141.4298480  60.8676140  23.6941100 144.1519530
  61.2092950  24.5383150 143.8573400  59.9291950  23.8424840 144.2684870
  61.6482760  33.5907120 146.1371760  62.2656760  34.2658200 145.8556210
  60.7875880  33.9995100 146.0459260  56.9415100  32.7806980 135.0178610
  56.5643080  33.2694080 134.2863510  57.1988170  33.4532260 135.6485140
  72.5660350  35.0546530 144.0526400  71.8823870  35.7245640 144.0443070
  73.1054640  35.2527180 143.2871260  74.0184490  24.8826190 142.1808130
  73.0709400  24.9165170 142.3123560  74.3434480  25.6965140 142.5657490
  64.5504030  21.1823370 140.4764120  64.8579010  20.6270260 139.7599620
  63.6204730  21.3167830 140.2937110  70.1019090  36.8990660 142.7671580
  70.1146250  36.4952950 141.8993840  69.5494310  37.6737950 142.6633010
  71.3964510  33.6206880 137.8561750  71.2860840  32.6781210 137.9811170
  71.3932760  33.9822520 138.7424510  69.5004530  31.8020500 144.0954190
  69.9173320  31.5880610 143.2607650  70.2244350  32.0593290 144.6662810
  66.9384790  29.2472200 137.2124240  66.0114070  29.1809580 137.4412710
  67.0909610  30.1852330 137.0979480  66.9253870  25.5189200 134.2091400
  65.9857540  25.6803160 134.2943860  67.2437130  26.2374880 133.6627390
  73.4466630  30.2007720 144.1870430  72.6185260  30.2700810 143.7120560
  74.0417110  30.7862030 143.7186260  70.9682080  30.8092500 137.7159490
  70.3494500  30.4712050 137.0685790  70.9506530  30.1652260 138.4238680
  70.4108640  26.9877040 145.1325300  69.9979820  27.8130750 145.3865290
  69.6784590  26.4022080 144.9401660  62.5441430  29.7736940 139.9943970
  62.1398430  29.0614190 139.4989870  62.6304550  29.4290180 140.8832010
  63.0123130  33.4604500 142.1583180  62.7151420  32.8549970 141.4790960
  63.9622950  33.4981810 142.0472540  61.2570050  26.5480150 143.7743010
  61.8084640  26.6575490 142.9996260  61.7713560  26.9217750 144.4898240
  71.1008740  37.0336370 145.8206280  70.6239300  37.8408560 145.6278890
  70.4170530  36.3814700 145.9732490  62.1041560  33.1986190 148.8090980
  61.2070090  33.4226160 149.0564380  62.1294430  33.3221130 147.8602380
  69.1446780  30.0479310 134.7232240  69.5840060  29.2101740 134.5770060
  69.8575200  30.6808710 134.8096380  60.9312780  30.0699510 147.3848350
  60.7920550  30.9422310 147.7535750  60.0494140  29.7272320 147.2396290
  67.2542160  34.9875380 138.6913480  67.6938070  35.7299710 138.2768870
  67.1929050  35.2301950 139.6152440  62.7293130  36.0121210 149.5933500
  62.7008560  36.4164160 148.7261930  62.5658100  35.0831570 149.4305100
  72.7263920  21.3022120 133.0373280  72.4136580  21.3948950 133.9372350
  73.4876390  21.8803150 132.9870710  59.2446060  28.6681920 137.4950620
  59.1243660  29.3944010 136.8831890  58.9346950  27.8984830 137.0178530
  56.8831430  31.8397060 143.3019260  56.9611850  31.9745830 142.3574980
  57.4973110  31.1312950 143.4947380  58.1279060  33.5397250 139.7125440
  57.7207140  33.6811840 138.8579040  59.0192070  33.2557410 139.5096650
  74.0841200  33.9861160 148.0497680  74.2104260  33.7473040 147.1314860
  74.1262580  33.1545700 148.5219760  67.9457940  37.6889160 146.6192490
  68.4602610  37.5997170 147.4214920  67.1027020  38.0348860 146.9120400
  69.9212340  37.9744500 136.0476490  69.7613480  37.6847440 136.9458320
  69.7559050  37.1984630 135.5121720  62.4000720  37.7543030 137.8248110
  62.2243200  36.8378570 137.6115910  61.5456460  38.1130320 138.0645910
  69.6238470  35.4832060 134.6074490  68.9303630  35.4809350 133.9476770
  70.3661330  35.0591380 134.1768660  69.1888400  37.1094770 138.6822980
  69.6445350  36.3284150 138.9961600  69.5280920  37.8201590 139.2264160
  73.9365210  26.0393620 149.0147420  73.3209480  26.5473290 148.4862880
  73.6161630  25.1391950 148.9573360  56.9390950  32.8811230 145.8413720
  57.1021990  32.4116590 145.0233090  57.4043400  32.3734790 146.5062560
  61.7109720  22.0116990 140.8774290  61.2677870  22.7926530 140.5458810
  62.2694710  22.3346880 141.5845230  65.9979530  24.8785510 146.4809610
  65.5358900  25.0868530 147.2929550  65.5957640  24.0644860 146.1780280
  70.9984040  26.0994460 147.6106270  70.1477630  25.8000210 147.9315340
  70.8385830  26.3436470 146.6990090  68.0933750  27.5996210 149.7105060
  68.4187160  26.7659960 149.3707290  68.8814080  28.1224730 149.8583390
  64.8268540  21.6327690 135.7580120  64.2022720  21.6287560 136.4833430
  64.7398660  20.7658650 135.3616090  63.7485620  22.5564320 142.7363890
  64.0457950  23.4627150 142.6555910  64.2971180  22.0683100 142.1223460
  61.5023940  27.1350560 138.6055540  61.2764860  26.9187730 139.5102160
  60.7216470  27.5679020 138.2601510  68.7321700  27.1413930 137.2046190
  68.1330590  27.8649730 137.0209810  69.2801310  27.0790710 136.4222640
  63.9423150  28.0336140 149.2715810  63.8466750  27.0930870 149.1216210
  64.7855130  28.2551210 148.8763880  67.3386570  25.7777470 139.2349470
  67.7316140  26.0949670 138.4218160  67.7003420  24.8989350 139.3493990
  59.0733690  24.4449810 147.4249590  58.6797080  25.2925020 147.6322370
  58.3852090  23.8076180 147.6158230  56.3750740  22.3678270 141.4579670
  56.0863790  22.9381130 142.1704650  57.1196500  21.8882720 141.8210900
  56.5620970  26.3098390 132.6682390  56.4795640  27.2529150 132.8097380
  56.2104030  26.1673300 131.7894740  67.9241710  28.3683220 143.3300250
  67.1922830  28.8770030 143.6790350  67.5266050  27.5513200 143.0289030
  64.3619100  25.0437420 141.7352740  64.3655160  24.6027370 140.8857280
  65.2570220  25.3654750 141.8424560  60.2121480  24.9263910 140.6946950
  59.8721530  25.4039140 141.4514000  59.4498800  24.4729030 140.3348050
  64.4239250  26.0449500 134.7259500  64.5452070  26.0035980 135.6745320
  64.0387760  26.9073650 134.5706230  68.3867620  23.8216900 142.7423190
  68.4040360  24.2725550 143.5865040  68.1383200  22.9222540 142.9556630
  63.4360750  28.3550640 134.1242800  62.8677650  27.9068890 133.4978710
  64.1449750  28.7143420 133.5907950  71.8138370  21.2349080 148.5809570
  72.1384140  20.5038740 149.1067550  71.8494880  20.9162720 147.6790560
  58.5129930  32.2562660 148.0009530  58.1284720  31.6156330 148.5992490
  58.8242120  32.9598780 148.5704260  64.6627070  29.1039200 143.4818150
  65.0297200  28.6297770 144.2279490  64.4732130  29.9780770 143.8226490
  57.5267560  23.8482890 139.6111620  57.2414480  23.4838560 140.4490240
  57.4646420  23.1163350 138.9974760  62.4526440  28.1447840 145.8002360
  62.1483510  29.0239820 146.0252720  63.4072900  28.2047630 145.8359800
  60.9808230  32.3508830 136.3969210  60.2070490  31.8106450 136.2367930
  61.7102860  31.8315440 136.0586970  71.7396210  31.3474190 142.1895600
  72.4595330  31.8429480 141.7991710  71.5378030  30.6692080 141.5449470
  67.2006150  22.7412150 136.3324990  66.3870760  22.2425320 136.2570300
  67.0068100  23.5810400 135.9161340  67.1215010  31.4183250 148.0764600
  67.0552320  30.4978920 147.8222190  66.4920150  31.5158690 148.7909240
  69.9154540  27.1131800 134.6287150  70.8034160  27.4249030 134.4538490
  69.8859630  26.2404050 134.2367730  61.0245630  32.0189210 140.0348020
  61.5424300  31.2157470 139.9804910  60.5729650  31.9568350 140.8764850
  65.9115130  33.2855490 135.3075320  66.2530830  34.0297720 134.8118640
  65.0827840  33.5986610 135.6700150  58.5090170  28.9850580 146.9473720
  58.1505110  29.6504430 147.5347060  58.2144730  28.1534130 147.3186340
  61.7103290  29.4434820 149.8313270  61.4103430  29.5892000 148.9341090
  62.4814530  28.8840110 149.7386660  67.0531740  34.2403820 147.8268400
  67.0676280  33.3084780 147.6087310  66.3456840  34.3263580 148.4658170
  72.1868810  28.4243640 134.0967010  72.1032530  28.8557860 133.2463450
  72.9063000  28.8841990 134.5293830  73.2642950  30.8811160 147.1736980
  72.5391140  31.4739940 146.9766370  73.7918410  30.8734700 146.3750350
  73.2156060  35.2785900 136.8249140  72.5732220  34.6241520 137.0992860
  72.8286720  35.6840990 136.0489810  68.7942540  32.6071330 140.6720830
  69.1466360  32.0099460 140.0122200  67.9104870  32.2815560 140.8429080
  64.8805820  33.3669020 138.0791240  65.5676950  33.9138230 138.4598830
  64.0938240  33.9109750 138.1140850  57.0198220  28.9841840 133.5708320
  57.8893070  29.2666640 133.8544240  56.5288540  29.7977710 133.4557130
  64.1833030  30.3715050 137.6916600  64.6395810  31.1820300 137.9176790
  63.8321240  30.0538190 138.5235090  66.4865640  35.8821390 144.9208900
  67.1307860  36.0880770 145.5982320  66.8495080  35.1209790 144.4679750
  60.0844810  20.7152700 138.1639120  59.9559440  20.7070600 139.1124040
  59.2606830  21.0535790 137.8130130  67.7597720  33.8853740 143.6386350
  68.4019950  33.1846900 143.7518520  68.2847070  34.6652180 143.4583240
  71.6053440  34.1702360 133.3625490  71.3791020  33.4532800 133.9550130
  71.2149640  33.9214800 132.5247240  69.5335340  34.6848640 146.8422410
  69.8691580  35.2715330 147.5200330  68.6135680  34.5541350 147.0720200
  57.3869470  38.1969220 134.1369950  57.7467110  38.7958560 133.4827220
  57.2461810  38.7429110 134.9104980  57.0838740  22.4743820 147.6245820
  56.3697260  22.6740740 148.2298430  57.5033780  21.6983390 147.9960620
  71.1869690  32.0874300 135.0239650  70.8991390  32.5486990 135.8117530
  71.9821860  31.6272070 135.2923870  57.3711330  36.4624080 148.6112350
  57.4802450  35.5218820 148.4707740  56.7191890  36.7278830 147.9626080
  63.4038090  35.5800420 134.9543620  63.3948190  36.3130110 134.3388130
  62.4836450  35.3332000 135.0470580  59.0044730  30.8015310 135.6990380
  58.3972680  31.5414210 135.7085680  59.4794080  30.8914670 134.8728580
  68.5777520  24.9666130 145.3747270  68.9458340  24.1461340 145.7026840
  67.7175720  25.0268020 145.7902920  71.9439550  23.9223070 136.1834830
  71.3152710  24.0268740 135.4693060  71.4491470  24.1419850 136.9728710
  66.3897690  35.6428660 133.6168810  66.4909670  35.4392650 132.6870790
  65.4899430  35.3886940 133.8216590  63.9123580  26.2009020 137.5992710
  63.2039730  26.6695360 138.0406320  64.1968060  25.5431030 138.2337900
  65.5379510  27.6205720 145.5985240  66.0364760  28.0951540 146.2637090
  65.6802460  26.6969240 145.8055270  67.9439010  22.9259680 139.0388500
  67.8206790  22.9445810 138.0898010  68.8923570  22.9738620 139.1586900
  65.0315800  38.1614980 138.3116480  65.2857300  38.1236370 137.3895850
  64.0828280  38.0348310 138.3044730  62.1158600  24.5094100 134.9743420
  62.9649130  24.9464250 134.9083610  61.7489870  24.8214360 135.8015480
  72.7446370  23.8373680 146.4413630  72.2419970  24.5779080 146.7807440
  73.5603030  24.2257680 146.1250420  71.0368380  29.0806860 139.8874990
  70.0958520  29.0957090 140.0622680  71.3512450  28.2942820 140.3335290
  61.0150020  30.7626460 133.4478950  61.7813290  30.6507820 134.0104380
  61.0924710  30.0664430 132.7955720  59.7096780  28.1951530 134.1311840
  59.7900370  27.2479040 134.2429240  60.6016530  28.5258410 134.2372500
  73.0393960  36.2515710 141.5629250  73.1641380  37.0746880 142.0353060
  73.9059520  36.0406440 141.2153400  60.5111490  38.3446920 141.2346380
  61.2473970  37.7962380 141.5054950  60.8952410  39.2102930 141.0952370
  57.3956970  34.4120490 137.1087890  56.4696750  34.6541630 137.0993300
  57.8613400  35.2394750 136.9872640  63.6213800  37.5177230 133.0571950
  64.4142410  37.8066060 132.6053740  63.1018150  37.0869400 132.3784430
  69.7834770  37.3653150 148.9816780  70.7356520  37.2811170 148.9317020
  69.6362990  38.0294860 149.6550570  72.6743970  36.7447360 134.4808690
  72.3885480  36.3312500 133.6662870  72.4763520  37.6735070 134.3609210
  57.2367580  30.0166450 149.3668010  57.7406600  29.4373730 149.9384240
  56.4975000  30.3006680 149.9044380  64.1391200  32.7380640 132.9214300
  64.0341840  32.1232990 133.6475680  63.9715420  32.2146530 132.1377310
  64.2905520  31.4237440 148.9003530  63.5251190  31.9922440 148.8158200
  64.4721480  31.1313650 148.0071760  67.3793930  31.8000670 133.5256290
  66.8304030  32.2469970 134.1699030  68.0013190  31.2949920 134.0493960
  71.4328870  33.1542770 149.4578550  72.1738340  33.4918530 148.9546010
  70.6701550  33.3234830 148.9048320  63.0469050  30.7591590 135.4221590
  63.4685470  30.5931460 136.2652980  63.1719890  29.9491820 134.9276730
  61.2096470  26.7388140 148.2292570  60.6792930  26.2479090 147.6015910
  61.8784540  27.1672340 147.6950500  65.5596690  29.7829200 132.6698690
  66.0802350  29.0678220 132.3039840  66.2065090  30.4215070 132.9699200
  70.1074530  31.2057600 147.9933760  70.5215550  31.3602680 148.8424180
  69.1725530  31.3312820 148.1559540  70.5796700  28.5453760 149.9972910
  71.1617470  27.7906080 149.9093390  70.7558470  29.0761200 149.2204390
  61.6968770  23.7050510 148.3089860  61.6025640  23.0871260 147.5840730
  61.1166160  24.4316800 148.0819770  64.4630210  22.2623750 145.3417250
  64.0147510  22.2848010 144.4962800  63.8295410  21.8642770 145.9387550
  64.8689760  31.1578080 145.9629690  65.2877870  32.0010810 145.7905930
  63.9498390  31.2950120 145.7336470  67.2053660  28.8894260 147.3467530
  67.3249870  28.2935400 148.0862370  68.0647660  28.9263950 146.9268830
  69.5441560  29.4431450 145.9230040  69.0176780  29.9674070 145.3195180
  69.8872900  30.0758840 146.5539770  61.9427950  26.8324820 132.3679750
  61.7417010  25.9692180 132.7293090  61.7720000  26.7458180 131.4301350
  62.7197180  37.4631090 147.0787420  62.1818270  38.1877150 146.7596120
  62.9731140  36.9861430 146.2884760  63.9722430  25.4315610 148.6043350
  64.5622120  25.1231460 149.2921170  63.1542670  24.9595360 148.7603250
  68.7915860  25.0481420 148.8376370  68.1031380  24.3862960 148.7726360
  69.5121880  24.6019690 149.2824830  69.4216260  21.6433050 134.8966630
  69.7018550  20.8000950 135.2526050  68.6481990  21.8756160 135.4105380
  60.7410750  23.9325440 132.3557630  61.0436650  23.9392870 131.4476780
  61.4805340  23.5823300 132.8525290  65.5759390  38.6982300 147.3374070
  65.5018090  39.6017440 147.6446440  64.6738230  38.3794200 147.3096140
  63.9595680  22.8760060 133.3413830  63.6117680  22.1984050 132.7616280
  64.1608450  22.4149570 134.1557220  66.1244720  37.8640810 134.9600430
  67.0195510  38.2025780 134.9819190  66.1562350  37.1420220 134.3324710
  59.7640880  33.2367860 133.1887430  60.2015750  33.7797530 133.8445010
  60.2488610  32.4114810 133.1983770  56.9786680  36.0256890 140.6407690
  57.3089690  35.1577950 140.4086330  57.4077680  36.2315410 141.4712650
  61.5748600  34.3565900 138.3009660  61.2744140  34.2330870 139.2013570
  61.4686090  33.4974490 137.8925390  57.4676890  36.8927480 143.3789320
  57.0307880  37.0728280 144.2113470  58.0354570  37.6502100 143.2371040
  73.1039070  36.3944480 147.6666630  72.5041060  36.4537040 146.9230550
  73.2332970  35.4549460 147.7963480  74.3440520  34.1362300 133.0036340
  73.5133480  34.2038950 133.4743570  74.5212350  35.0266420 132.7003200
  73.7996980  30.8809780 135.5070540  74.5615890  31.4506430 135.6130230
  73.8151350  30.3136980 136.2778850  57.3001320  29.4047710 139.7378200
  56.6450160  29.1359350 139.0937900  58.1379270  29.2952190 139.2880180
  74.8056950  31.7359880 140.3512470  75.1765780  30.9527200 139.9448440
  75.4458880  32.4248980 140.1729770  71.7890710  33.1196460 145.7642790
  70.9750550  33.5493620 146.0268580  72.1964910  33.7314870 145.1511840
  73.8516150  31.1744150 132.6643060  74.1264990  32.0823030 132.5362280
  73.6626890  31.1106680 133.6005050  70.2491760  24.1989000 133.9596690
  70.6676640  24.0119980 133.1193350  69.9427820  23.3468050 134.2699620
  73.7481490  29.1113140 137.6572490  73.3725090  28.3441070 137.2253780
  73.0184610  29.4935840 138.1447420  58.3377250  29.7900280 144.2781540
  58.7050290  29.7027680 145.1577560  57.7688070  29.0266830 144.1788400
  73.1381110  28.2584660 147.2912010  72.9067200  28.0297410 146.3909960
  73.3985660  29.1784210 147.2456900  57.8893250  26.7009370 148.1839960
  56.9949300  26.6676130 148.5233670  58.4290800  26.8996160 148.9491210
  56.5139400  26.6146640 135.6803530  55.6103480  26.8776840 135.5055190
  56.9980020  26.8857810 134.9003490  73.0232450  27.3370630 140.9579730
  73.5469930  26.8433280 140.3269900  73.6091870  27.4720990 141.7027300
  73.2022170  27.4210500 144.4799280  72.2524880  27.3874040 144.5944270
  73.3835180  28.3310610 144.2449050  59.0566610  25.6712180 133.5897910
  59.7658310  25.2495400 133.1045190  58.3406550  25.7387410 132.9581260
  58.7040770  21.7251510 132.6300560  59.4268900  22.2660450 132.9481780
  58.9765290  21.4514930 131.7542100  72.5132420  26.5943980 136.8972140
  73.0091540  26.3614850 137.6821020  72.3148490  25.7555820 136.4809780
  58.3932960  20.9757700 142.5323180  59.0409150  20.4255080 142.0918340
  58.8134800  21.2300850 143.3538990  73.9419580  25.2304930 139.4309820
  73.8318860  25.0760970 140.3692090  74.7027170  24.7025870 139.1885230
  72.2885300  21.1699060 145.8892820  72.9257520  21.7833200 146.2552010
  72.4360190  21.2059720 144.9442050  74.8309850  23.0612850 132.6715960
  75.7559160  22.9294030 132.4634250  74.8085640  23.1405670 133.6252410
  74.9048340  23.8323510 135.2972670  74.1099840  23.7668630 135.8265580
  75.1091620  24.7674150 135.2858020  71.8466760  37.8715060 139.2911060
  72.4425830  37.5499630 138.6145480  72.1044910  37.3986880 140.0824330
  58.1464960  21.1313370 145.2748500  57.7979780  21.5877190 146.0406680
  57.8152660  20.2370500 145.3570930  63.4535360  35.8592560 145.0411410
  63.2126720  36.1267120 144.1541930  64.3938000  36.0298290 145.0962270
  65.6589780  22.3225250 148.7967920  65.5978670  22.9147080 149.5463330
  66.5990160  22.2151210 148.6518180  68.2964340  21.9795310 148.4360210
  68.9104750  22.2974600 147.7741290  68.8413900  21.4943900 149.0556070
  74.7139520  37.8786940 145.8422050  74.2197800  38.2755810 145.1249180
  74.1052810  37.2536150 146.2359330  58.8185600  20.6589570 148.5499270
  59.3668590  20.4777620 147.7865380  58.8840910  19.8683680 149.0855580
  59.5917360  37.2495220 146.5599470  58.9977680  37.1179920 147.2989510
  59.5841200  36.4133360 146.0941570  69.0372380  20.5427450 144.7629500
  68.1632220  20.8762560 144.5602430  68.9283130  20.0700630 145.5881370
  69.9444360  22.7498320 146.1471220  69.6157720  21.9350080 145.7672950
  70.8926660  22.7068130 146.0236910  72.3978970  38.5210360 143.1208790
  71.9381940  39.2726170 142.7466810  71.7691430  37.8016830 143.0623590
  59.2229590  34.6153600 145.5107510  58.4963650  33.9958890 145.4433460
  59.2838740  35.0094210 144.6405590  62.8274690  36.8298600 142.2956920
  63.3439710  36.2185960 141.7705180  63.4772070  37.3327380 142.7867930
  65.5670190  37.7207090 143.1225900  65.8548000  37.4661390 142.2458910
  66.0793410  37.1684450 143.7131470  66.7847200  21.4597290 143.7022410
  66.0018990  21.9342790 143.9819170  66.4910130  20.5552120 143.5935590
  71.3368270  22.1620390 141.7471500  71.7776360  22.1065490 140.8993100
  71.0675860  23.0778400 141.8181680  73.2006840  21.7935630 139.7580320
  73.1395240  20.8496850 139.6111340  73.9798870  21.9015720 140.3033780
  57.5059590  37.9327990 138.7204270  57.3381630  37.2998670 139.4186160
  56.6394100  38.1387390 138.3698460  58.1287610  21.7644770 136.2236130
  58.8866970  21.8773650 135.6500160  57.6664780  22.6013970 136.1779560
  64.6701420  23.8784040 139.2138440  63.8575930  23.5040930 138.8734320
  65.1743060  23.1229120 139.5159630  69.1726400  20.5426490 140.4521510
  69.7755770  21.1146700 140.9270030  68.4319390  21.1065930 140.2295410
  72.3161000  20.9448050 135.7261790  72.5111630  21.8431500 135.9929220
  71.5290870  20.7135130 136.2194740  59.1122290  36.6261220 136.1654410
  58.5869910  37.0069250 135.4616370  59.0366870  37.2511990 136.8864120
  60.5012760  22.2908820 134.7638100  61.0305520  21.5038620 134.6346050
  61.1341080  22.9700010 134.9973630  62.6950600  22.0283960 137.8183490
  62.0653340  21.3271270 137.9853620  62.1555740  22.7888090 137.6016650
  73.8687610  38.1848760 137.4868350  74.0439800  37.4986500 136.8429270
  73.1709180  38.7095810 137.0945020  61.7115260  38.5743600 135.0403660
  62.4434080  38.2902880 134.4927550  61.9708930  38.3356880 135.9303040
  60.8730050  34.6908330 135.0449990  60.2438930  35.1593430 135.5935820
  60.9877880  33.8457550 135.4796180  68.3279770  28.7413990 121.1951190
  68.2473820  27.8268600 120.9242900  67.9144190  29.2381060 120.4890900
  66.4597810  30.5193010 123.0760460  65.6839910  30.0393450 123.3659030
  67.1110740  29.8398660 122.9016620  60.4763640  30.8312820 123.9536220
  59.6448520  30.5761530 124.3532730  61.0844620  30.9023590 124.6894140
  70.4805240  34.9253200 121.8559590  70.0186770  34.1540440 122.1846760
  71.2930790  34.9519270 122.3612040  60.4564900  34.8652910 124.1494240
  60.7592940  33.9750650 123.9704460  61.2008490  35.4223130 123.9216490
  58.8855590  25.7914710 117.7378610  57.9972290  26.1330680 117.6358490
  59.1696780  25.5915030 116.8459440  56.8488600  28.3920360 123.6218310
  57.4204710  27.6242560 123.6221950  56.8490140  28.6909120 122.7124920
  66.7068550  37.2111210 121.4763580  66.0879990  37.6668710 120.9058020
  67.5620330  37.3662670 121.0753280  65.9006800  33.1950200 123.0830620
  65.8315080  32.2540140 122.9219750  66.6626660  33.2851610 123.6553190
  58.0913470  23.8004720 125.4087240  57.9116310  22.9030470 125.6890000
  57.6893550  24.3476590 126.0834190  66.9311970  26.0020580 123.3099550
  67.3076790  25.1292460 123.1973220  66.8331480  26.3379280 122.4189990
  61.0616980  24.3746210 118.7716990  61.1683730  25.2749940 119.0785750
  60.1509340  24.3264180 118.4811640  70.7136090  23.4971020 120.2427890
  71.5345710  23.0067590 120.2853370  70.7470170  24.0868680 120.9959730
  58.7100140  26.2965220 124.0169580  59.3910250  26.5603590 124.6356980
  58.3948190  25.4566090 124.3507590  62.9024710  27.3432580 123.1042170
  63.4102930  27.8413550 123.7447190  63.4337950  26.5667780 122.9281530
  75.0035640  25.5137770 126.8071520  74.2987810  25.9019480 126.2886630
  75.2693560  26.2088060 127.4092450  61.1860810  21.9831140 127.3705590
  61.1879250  22.5003530 126.5651490  60.3565120  21.5061320 127.3475520
  62.4363660  31.6226320 125.5479090  62.1033040  32.2495240 126.1900160
  62.6130340  32.1488200 124.7680760  70.9497570  25.4371400 123.0155430
  70.2453140  25.7256290 123.5958540  71.3109730  26.2471510 122.6554990
  60.8676140  23.6941100 125.3776040  61.2092950  24.5383150 125.0829910
  59.9291950  23.8424840 125.4941380  61.6482760  33.5907120 127.3628270
  62.2656760  34.2658200 127.0812720  60.7875880  33.9995100 127.2715770
  56.9415100  32.7806980 116.2435120  56.5643080  33.2694080 115.5120020
  57.1988170  33.4532260 116.8741650  72.5660350  35.0546530 125.2782910
  71.8823870  35.7245640 125.2699580  73.1054640  35.2527180 124.5127770
  74.0184490  24.8826190 123.4064640  73.0709400  24.9165170 123.5380070
  74.3434480  25.6965140 123.7914000  64.5504030  21.1823370 121.7020630
  64.8579010  20.6270260 120.9856130  63.6204730  21.3167830 121.5193620
  70.1019090  36.8990660 123.9928090  70.1146250  36.4952950 123.1250350
  69.5494310  37.6737950 123.8889520  69.5004530  31.8020500 125.3210700
  69.9173320  31.5880610 124.4864160  70.2244350  32.0593290 125.8919320
  66.9253870  25.5189200 115.4347910  65.9857540  25.6803160 115.5200370
  67.2437130  26.2374880 114.8883900  73.4466630  30.2007720 125.4126940
  72.6185260  30.2700810 124.9377070  74.0417110  30.7862030 124.9442770
  70.4108640  26.9877040 126.3581810  69.9979820  27.8130750 126.6121800
  69.6784590  26.4022080 126.1658170  62.5441430  29.7736940 121.2200480
  62.1398430  29.0614190 120.7246380  62.6304550  29.4290180 122.1088520
  61.2570050  26.5480150 124.9999520  61.8084640  26.6575490 124.2252770
  61.7713560  26.9217750 125.7154750  71.1008740  37.0336370 127.0462790
  70.6239300  37.8408560 126.8535400  70.4170530  36.3814700 127.1989000
  62.1041560  33.1986190 130.0347490  61.2070090  33.4226160 130.2820890
  62.1294430  33.3221130 129.0858890  69.1446780  30.0479310 115.9488750
  69.5840060  29.2101740 115.8026570  69.8575200  30.6808710 116.0352890
  60.9312780  30.0699510 128.6104860  60.7920550  30.9422310 128.9792260
  60.0494140  29.7272320 128.4652800  62.7293130  36.0121210 130.8190010
  62.7008560  36.4164160 129.9518440  62.5658100  35.0831570 130.6561610
  72.7263920  21.3022120 114.2629790  72.4136580  21.3948950 115.1628860
  73.4876390  21.8803150 114.2127220  59.2446060  28.6681920 118.7207130
  59.1243660  29.3944010 118.1088400  58.9346950  27.8984830 118.2435040
  74.6807950  36.7948310 132.1154180  75.1567670  37.2731200 132.7943260
  75.3015110  36.7265800 131.3899680  56.8831430  31.8397060 124.5275770
  56.9611850  31.9745830 123.5831490  57.4973110  31.1312950 124.7203890
  74.0841200  33.9861160 129.2754190  74.2104260  33.7473040 128.3571370
  74.1262580  33.1545700 129.7476270  67.9457940  37.6889160 127.8449000
  68.4602610  37.5997170 128.6471430  67.1027020  38.0348860 128.1376910
  69.9212340  37.9744500 117.2733000  69.7613480  37.6847440 118.1714830
  69.7559050  37.1984630 116.7378230  69.6238470  35.4832060 115.8331000
  68.9303630  35.4809350 115.1733280  70.3661330  35.0591380 115.4025170
  73.9365210  26.0393620 130.2403930  73.3209480  26.5473290 129.7119390
  73.6161630  25.1391950 130.1829870  56.9390950  32.8811230 127.0670230
  57.1021990  32.4116590 126.2489600  57.4043400  32.3734790 127.7319070
  61.7109720  22.0116990 122.1030800  61.2677870  22.7926530 121.7715320
  62.2694710  22.3346880 122.8101740  65.9979530  24.8785510 127.7066120
  65.5358900  25.0868530 128.5186060  65.5957640  24.0644860 127.4036790
  70.9984040  26.0994460 128.8362780  70.1477630  25.8000210 129.1571850
  70.8385830  26.3436470 127.9246600  68.0933750  27.5996210 130.9361570
  68.4187160  26.7659960 130.5963800  68.8814080  28.1224730 131.0839900
  64.8268540  21.6327690 116.9836630  64.2022720  21.6287560 117.7089940
  64.7398660  20.7658650 116.5872600  63.7485620  22.5564320 123.9620400
  64.0457950  23.4627150 123.8812420  64.2971180  22.0683100 123.3479970
  61.5023940  27.1350560 119.8312050  61.2764860  26.9187730 120.7358670
  60.7216470  27.5679020 119.4858020  68.7321700  27.1413930 118.4302700
  68.1330590  27.8649730 118.2466320  69.2801310  27.0790710 117.6479150
  63.9423150  28.0336140 130.4972320  63.8466750  27.0930870 130.3472720
  64.7855130  28.2551210 130.1020390  67.3386570  25.7777470 120.4605980
  67.7316140  26.0949670 119.6474670  67.7003420  24.8989350 120.5750500
  59.0733690  24.4449810 128.6506100  58.6797080  25.2925020 128.8578880
  58.3852090  23.8076180 128.8414740  65.6478740  24.5284780 131.7202840
  64.9577060  24.3356980 132.3548930  66.3911040  24.8119420 132.2527140
  56.3750740  22.3678270 122.6836180  56.0863790  22.9381130 123.3961160
  57.1196500  21.8882720 123.0467410  56.5620970  26.3098390 113.8938900
  56.4795640  27.2529150 114.0353890  56.2104030  26.1673300 113.0151250
  67.9241710  28.3683220 124.5556760  67.1922830  28.8770030 124.9046860
  67.5266050  27.5513200 124.2545540  64.3619100  25.0437420 122.9609250
  64.3655160  24.6027370 122.1113790  65.2570220  25.3654750 123.0681070
  60.2121480  24.9263910 121.9203460  59.8721530  25.4039140 122.6770510
  59.4498800  24.4729030 121.5604560  64.4239250  26.0449500 115.9516010
  64.5452070  26.0035980 116.9001830  64.0387760  26.9073650 115.7962740
  68.3867620  23.8216900 123.9679700  68.4040360  24.2725550 124.8121550
  68.1383200  22.9222540 124.1813140  63.4360750  28.3550640 115.3499310
  62.8677650  27.9068890 114.7235220  64.1449750  28.7143420 114.8164460
  71.8138370  21.2349080 129.8066080  72.1384140  20.5038740 130.3324060
  71.8494880  20.9162720 128.9047070  58.5129930  32.2562660 129.2266040
  58.1284720  31.6156330 129.8249000  58.8242120  32.9598780 129.7960770
  64.6627070  29.1039200 124.7074660  65.0297200  28.6297770 125.4536000
  64.4732130  29.9780770 125.0483000  57.5267560  23.8482890 120.8368130
  57.2414480  23.4838560 121.6746750  57.4646420  23.1163350 120.2231270
  62.4526440  28.1447840 127.0258870  62.1483510  29.0239820 127.2509230
  63.4072900  28.2047630 127.0616310  71.7396210  31.3474190 123.4152110
  72.4595330  31.8429480 123.0248220  71.5378030  30.6692080 122.7705980
  67.2006150  22.7412150 117.5581500  66.3870760  22.2425320 117.4826810
  67.0068100  23.5810400 117.1417850  67.1215010  31.4183250 129.3021110
  67.0552320  30.4978920 129.0478700  66.4920150  31.5158690 130.0165750
  69.9154540  27.1131800 115.8543660  70.8034160  27.4249030 115.6795000
  69.8859630  26.2404050 115.4624240  58.5090170  28.9850580 128.1730230
  58.1505110  29.6504430 128.7603570  58.2144730  28.1534130 128.5442850
  61.7103290  29.4434820 131.0569780  61.4103430  29.5892000 130.1597600
  62.4814530  28.8840110 130.9643170  67.0531740  34.2403820 129.0524910
  67.0676280  33.3084780 128.8343820  66.3456840  34.3263580 129.6914680
  72.1868810  28.4243640 115.3223520  72.1032530  28.8557860 114.4719960
  72.9063000  28.8841990 115.7550340  73.2642950  30.8811160 128.3993490
  72.5391140  31.4739940 128.2022880  73.7918410  30.8734700 127.6006860
  73.2156060  35.2785900 118.0505650  72.5732220  34.6241520 118.3249370
  72.8286720  35.6840990 117.2746320  57.0198220  28.9841840 114.7964830
  57.8893070  29.2666640 115.0800750  56.5288540  29.7977710 114.6813640
  66.4865640  35.8821390 126.1465410  67.1307860  36.0880770 126.8238830
  66.8495080  35.1209790 125.6936260  60.0844810  20.7152700 119.3895630
  59.9559440  20.7070600 120.3380550  59.2606830  21.0535790 119.0386640
  67.7597720  33.8853740 124.8642860  68.4019950  33.1846900 124.9775030
  68.2847070  34.6652180 124.6839750  71.6053440  34.1702360 114.5882000
  71.3791020  33.4532800 115.1806640  71.2149640  33.9214800 113.7503750
  69.5335340  34.6848640 128.0678920  69.8691580  35.2715330 128.7456840
  68.6135680  34.5541350 128.2976710  57.3869470  38.1969220 115.3626460
  57.7467110  38.7958560 114.7083730  57.2461810  38.7429110 116.1361490
  57.0838740  22.4743820 128.8502330  56.3697260  22.6740740 129.4554940
  57.5033780  21.6983390 129.2217130  71.1869690  32.0874300 116.2496160
  70.8991390  32.5486990 117.0374040  71.9821860  31.6272070 116.5180380
  57.3711330  36.4624080 129.8368860  57.4802450  35.5218820 129.6964250
  56.7191890  36.7278830 129.1882590  65.3623920  34.7339970 131.2366980
  65.0420790  34.0149210 131.7812670  64.6882280  35.4095040 131.3103040
  63.4038090  35.5800420 116.1800130  63.3948190  36.3130110 115.5644640
  62.4836450  35.3332000 116.2727090  59.0044730  30.8015310 116.9246890
  58.3972680  31.5414210 116.9342190  59.4794080  30.8914670 116.0985090
  68.5777520  24.9666130 126.6003780  68.9458340  24.1461340 126.9283350
  67.7175720  25.0268020 127.0159430  71.9439550  23.9223070 117.4091340
  71.3152710  24.0268740 116.6949570  71.4491470  24.1419850 118.1985220
  66.3897690  35.6428660 114.8425320  66.4909670  35.4392650 113.9127300
  65.4899430  35.3886940 115.0473100  63.9123580  26.2009020 118.8249220
  63.2039730  26.6695360 119.2662830  64.1968060  25.5431030 119.4594410
  65.5379510  27.6205720 126.8241750  66.0364760  28.0951540 127.4893600
  65.6802460  26.6969240 127.0311780  67.9439010  22.9259680 120.2645010
  67.8206790  22.9445810 119.3154520  68.8923570  22.9738620 120.3843410
  62.1158600  24.5094100 116.1999930  62.9649130  24.9464250 116.1340120
  61.7489870  24.8214360 117.0271990  72.7446370  23.8373680 127.6670140
  72.2419970  24.5779080 128.0063950  73.5603030  24.2257680 127.3506930
  71.0368380  29.0806860 121.1131500  70.0958520  29.0957090 121.2879190
  71.3512450  28.2942820 121.5591800  61.0150020  30.7626460 114.6735460
  61.7813290  30.6507820 115.2360890  61.0924710  30.0664430 114.0212230
  59.7096780  28.1951530 115.3568350  59.7900370  27.2479040 115.4685750
  60.6016530  28.5258410 115.4629010  73.0393960  36.2515710 122.7885760
  73.1641380  37.0746880 123.2609570  73.9059520  36.0406440 122.4409910
  59.5169770  37.5292990 131.6488470  60.3182500  37.8505040 132.0623870
  59.0021590  37.1688570 132.3708380  63.6213800  37.5177230 114.2828460
  64.4142410  37.8066060 113.8310250  63.1018150  37.0869400 113.6040940
  68.3534400  33.6372860 131.5963880  67.7472560  33.6604460 130.8559630
  68.0488510  32.9055900 132.1331130  69.7834770  37.3653150 130.2073290
  70.7356520  37.2811170 130.1573530  69.6362990  38.0294860 130.8807080
  72.6743970  36.7447360 115.7065200  72.3885480  36.3312500 114.8919380
  72.4763520  37.6735070 115.5865720  57.2367580  30.0166450 130.5924520
  57.7406600  29.4373730 131.1640750  56.4975000  30.3006680 131.1300890
  64.1391200  32.7380640 114.1470810  64.0341840  32.1232990 114.8732190
  63.9715420  32.2146530 113.3633820  64.2905520  31.4237440 130.1260040
  63.5251190  31.9922440 130.0414710  64.4721480  31.1313650 129.2328270
  67.3793930  31.8000670 114.7512800  66.8304030  32.2469970 115.3955540
  68.0013190  31.2949920 115.2750470  71.4328870  33.1542770 130.6835060
  72.1738340  33.4918530 130.1802520  70.6701550  33.3234830 130.1304830
  59.2690660  28.1596040 131.4874590  59.3096000  27.8609910 132.3959820
  60.1236160  28.5603650 131.3282110  63.0469050  30.7591590 116.6478100
  63.4685470  30.5931460 117.4909490  63.1719890  29.9491820 116.1533240
  61.2096470  26.7388140 129.4549080  60.6792930  26.2479090 128.8272420
  61.8784540  27.1672340 128.9207010  65.5596690  29.7829200 113.8955200
  66.0802350  29.0678220 113.5296350  66.2065090  30.4215070 114.1955710
  70.1074530  31.2057600 129.2190270  70.5215550  31.3602680 130.0680690
  69.1725530  31.3312820 129.3816050  70.5796700  28.5453760 131.2229420
  71.1617470  27.7906080 131.1349900  70.7558470  29.0761200 130.4460900
  61.6968770  23.7050510 129.5346370  61.6025640  23.0871260 128.8097240
  61.1166160  24.4316800 129.3076280  64.4630210  22.2623750 126.5673760
  64.0147510  22.2848010 125.7219310  63.8295410  21.8642770 127.1644060
  64.8689760  31.1578080 127.1886200  65.2877870  32.0010810 127.0162440
  63.9498390  31.2950120 126.9592980  67.2053660  28.8894260 128.5724040
  67.3249870  28.2935400 129.3118880  68.0647660  28.9263950 128.1525340
  69.5441560  29.4431450 127.1486550  69.0176780  29.9674070 126.5451690
  69.8872900  30.0758840 127.7796280  61.9427950  26.8324820 113.5936260
  61.7417010  25.9692180 113.9549600  61.7720000  26.7458180 112.6557860
  62.7197180  37.4631090 128.3043930  62.1818270  38.1877150 127.9852630
  62.9731140  36.9861430 127.5141270  63.9722430  25.4315610 129.8299860
  64.5622120  25.1231460 130.5177680  63.1542670  24.9595360 129.9859760
  68.7915860  25.0481420 130.0632880  68.1031380  24.3862960 129.9982870
  69.5121880  24.6019690 130.5081340  69.4216260  21.6433050 116.1223140
  69.7018550  20.8000950 116.4782560  68.6481990  21.8756160 116.6361890
  60.7410750  23.9325440 113.5814140  61.0436650  23.9392870 112.6733290
  61.4805340  23.5823300 114.0781800  65.5759390  38.6982300 128.5630580
  65.5018090  39.6017440 128.8702950  64.6738230  38.3794200 128.5352650
  63.9595680  22.8760060 114.5670340  63.6117680  22.1984050 113.9872790
  64.1608450  22.4149570 115.3813730  66.1244720  37.8640810 116.1856940
  67.0195510  38.2025780 116.2075700  66.1562350  37.1420220 115.5581220
  59.7640880  33.2367860 114.4143940  60.2015750  33.7797530 115.0701520
  60.2488610  32.4114810 114.4240280  56.9786680  36.0256890 121.8664200
  57.3089690  35.1577950 121.6342840  57.4077680  36.2315410 122.6969160
  57.4676890  36.8927480 124.6045830  57.0307880  37.0728280 125.4369980
  58.0354570  37.6502100 124.4627550  73.1039070  36.3944480 128.8923140
  72.5041060  36.4537040 128.1487060  73.2332970  35.4549460 129.0219990
  74.3440520  34.1362300 114.2292850  73.5133480  34.2038950 114.7000080
  74.5212350  35.0266420 113.9259710  73.7996980  30.8809780 116.7327050
  74.5615890  31.4506430 116.8386740  73.8151350  30.3136980 117.5035360
  57.3001320  29.4047710 120.9634710  56.6450160  29.1359350 120.3194410
  58.1379270  29.2952190 120.5136690  74.8056950  31.7359880 121.5768980
  75.1765780  30.9527200 121.1704950  75.4458880  32.4248980 121.3986280
  71.7890710  33.1196460 126.9899300  70.9750550  33.5493620 127.2525090
  72.1964910  33.7314870 126.3768350  73.8516150  31.1744150 113.8899570
  74.1264990  32.0823030 113.7618790  73.6626890  31.1106680 114.8261560
  70.2491760  24.1989000 115.1853200  70.6676640  24.0119980 114.3449860
  69.9427820  23.3468050 115.4956130  73.7481490  29.1113140 118.8829000
  73.3725090  28.3441070 118.4510290  73.0184610  29.4935840 119.3703930
  58.3377250  29.7900280 125.5038050  58.7050290  29.7027680 126.3834070
  57.7688070  29.0266830 125.4044910  73.1381110  28.2584660 128.5168520
  72.9067200  28.0297410 127.6166470  73.3985660  29.1784210 128.4713410
  57.8893250  26.7009370 129.4096470  56.9949300  26.6676130 129.7490180
  58.4290800  26.8996160 130.1747720  71.5769180  23.4841090 131.2948220
  72.4539360  23.4924490 131.6782220  71.5890020  22.7471930 130.6840570
  56.5139400  26.6146640 116.9060040  55.6103480  26.8776840 116.7311700
  56.9980020  26.8857810 116.1260000  73.0232450  27.3370630 122.1836240
  73.5469930  26.8433280 121.5526410  73.6091870  27.4720990 122.9283810
  73.2022170  27.4210500 125.7055790  72.2524880  27.3874040 125.8200780
  73.3835180  28.3310610 125.4705560  59.0566610  25.6712180 114.8154420
  59.7658310  25.2495400 114.3301700  58.3406550  25.7387410 114.1837770
  58.7040770  21.7251510 113.8557070  59.4268900  22.2660450 114.1738290
  58.9765290  21.4514930 112.9798610  72.5132420  26.5943980 118.1228650
  73.0091540  26.3614850 118.9077530  72.3148490  25.7555820 117.7066290
  58.3932960  20.9757700 123.7579690  59.0409150  20.4255080 123.3174850
  58.8134800  21.2300850 124.5795500  73.9419580  25.2304930 120.6566330
  73.8318860  25.0760970 121.5948600  74.7027170  24.7025870 120.4141740
  72.2885300  21.1699060 127.1149330  72.9257520  21.7833200 127.4808520
  72.4360190  21.2059720 126.1698560  74.8309850  23.0612850 113.8972470
  75.7559160  22.9294030 113.6890760  74.8085640  23.1405670 114.8508920
  74.9048340  23.8323510 116.5229180  74.1099840  23.7668630 117.0522090
  75.1091620  24.7674150 116.5114530  71.8466760  37.8715060 120.5167570
  72.4425830  37.5499630 119.8401990  72.1044910  37.3986880 121.3080840
  58.1464960  21.1313370 126.5005010  57.7979780  21.5877190 127.2663190
  57.8152660  20.2370500 126.5827440  59.7529330  34.3032970 130.6658200
  59.7098960  33.9325880 131.5472660  59.8840340  35.2410540 130.8060020
  63.4535360  35.8592560 126.2667920  63.2126720  36.1267120 125.3798440
  64.3938000  36.0298290 126.3218780  65.6589780  22.3225250 130.0224430
  65.5978670  22.9147080 130.7719840  66.5990160  22.2151210 129.8774690
  68.2964340  21.9795310 129.6616720  68.9104750  22.2974600 128.9997800
  68.8413900  21.4943900 130.2812580  74.7139520  37.8786940 127.0678560
  74.2197800  38.2755810 126.3505690  74.1052810  37.2536150 127.4615840
  58.8185600  20.6589570 129.7755780  59.3668590  20.4777620 129.0121890
  58.8840910  19.8683680 130.3112090  59.5917360  37.2495220 127.7855980
  58.9977680  37.1179920 128.5246020  59.5841200  36.4133360 127.3198080
  69.0372380  20.5427450 125.9886010  68.1632220  20.8762560 125.7858940
  68.9283130  20.0700630 126.8137880  69.9444360  22.7498320 127.3727730
  69.6157720  21.9350080 126.9929460  70.8926660  22.7068130 127.2493420
  72.3978970  38.5210360 124.3465300  71.9381940  39.2726170 123.9723320
  71.7691430  37.8016830 124.2880100  59.2229590  34.6153600 126.7364020
  58.4963650  33.9958890 126.6689970  59.2838740  35.0094210 125.8662100
  65.5670190  37.7207090 124.3482410  65.8548000  37.4661390 123.4715420
  66.0793410  37.1684450 124.9387980  66.7847200  21.4597290 124.9278920
  66.0018990  21.9342790 125.2075680  66.4910130  20.5552120 124.8192100
  71.3368270  22.1620390 122.9728010  71.7776360  22.1065490 122.1249610
  71.0675860  23.0778400 123.0438190  73.2006840  21.7935630 120.9836830
  73.1395240  20.8496850 120.8367850  73.9798870  21.9015720 121.5290290
  57.5059590  37.9327990 119.9460780  57.3381630  37.2998670 120.6442670
  56.6394100  38.1387390 119.5954970  58.1287610  21.7644770 117.4492640
  58.8866970  21.8773650 116.8756670  57.6664780  22.6013970 117.4036070
  64.6701420  23.8784040 120.4394950  63.8575930  23.5040930 120.0990830
  65.1743060  23.1229120 120.7416140  69.1726400  20.5426490 121.6778020
  69.7755770  21.1146700 122.1526540  68.4319390  21.1065930 121.4551920
  72.3161000  20.9448050 116.9518300  72.5111630  21.8431500 117.2185730
  71.5290870  20.7135130 117.4451250  60.5012760  22.2908820 115.9894610
  61.0305520  21.5038620 115.8602560  61.1341080  22.9700010 116.2230140
  62.6950600  22.0283960 119.0440000  62.0653340  21.3271270 119.2110130
  62.1555740  22.7888090 118.8273160  65.6342550  38.6423190 131.7150610
  66.5609860  38.4067460 131.7586570  65.6192980  39.4695190 131.2336640
  73.8687610  38.1848760 118.7124860  74.0439800  37.4986500 118.0685780
  73.1709180  38.7095810 118.3201530  62.8206160  21.3067940 131.4792490
  62.5390430  21.8101540 130.7153310  63.2025860  20.5089690 131.1134620
  61.7115260  38.5743600 116.2660170  62.4434080  38.2902880 115.7184060
  61.9708930  38.3356880 117.1559550  69.4221620  20.7221520 132.0572960
  69.3087070  21.0416130 132.9524480  70.2391360  21.1234030 131.7610240
  72.2020110  37.8693050 131.5391650  72.9945430  37.3742280 131.3317610
  72.4953260  38.5483190 132.1467260  66.4597810  30.5193010 104.3016970
  65.6839910  30.0393450 104.5915540  67.1110740  29.8398660 104.1273130
  60.4763640  30.8312820 105.1792730  59.6448520  30.5761530 105.5789240
  61.0844620  30.9023590 105.9150650  60.4564900  34.8652910 105.3750750
  60.7592940  33.9750650 105.1960970  61.2008490  35.4223130 105.1473000
  66.7068550  37.2111210 102.7020090  66.0879990  37.6668710 102.1314530
  67.5620330  37.3662670 102.3009790  65.9006800  33.1950200 104.3087130
  65.8315080  32.2540140 104.1476260  66.6626660  33.2851610 104.8809700
  66.9311970  26.0020580 104.5356060  67.3076790  25.1292460 104.4229730
  66.8331480  26.3379280 103.6446500  70.7136090  23.4971020 101.4684400
  71.5345710  23.0067590 101.5109880  70.7470170  24.0868680 102.2216240
  62.9024710  27.3432580 104.3298680  63.4102930  27.8413550 104.9703700
  63.4337950  26.5667780 104.1538040  75.0035640  25.5137770 108.0328030
  74.2987810  25.9019480 107.5143140  75.2693560  26.2088060 108.6348960
  61.1860810  21.9831140 108.5962100  61.1879250  22.5003530 107.7908000
  60.3565120  21.5061320 108.5732030  62.4363660  31.6226320 106.7735600
  62.1033040  32.2495240 107.4156670  62.6130340  32.1488200 105.9937270
  70.9497570  25.4371400 104.2411940  70.2453140  25.7256290 104.8215050
  71.3109730  26.2471510 103.8811500  60.8676140  23.6941100 106.6032550
  61.2092950  24.5383150 106.3086420  59.9291950  23.8424840 106.7197890
  61.6482760  33.5907120 108.5884780  62.2656760  34.2658200 108.3069230
  60.7875880  33.9995100 108.4972280  72.5660350  35.0546530 106.5039420
  71.8823870  35.7245640 106.4956090  73.1054640  35.2527180 105.7384280
  74.0184490  24.8826190 104.6321150  73.0709400  24.9165170 104.7636580
  74.3434480  25.6965140 105.0170510  64.5504030  21.1823370 102.9277140
  64.8579010  20.6270260 102.2112640  63.6204730  21.3167830 102.7450130
  70.1019090  36.8990660 105.2184600  70.1146250  36.4952950 104.3506860
  69.5494310  37.6737950 105.1146030  66.9384790  29.2472200  99.6637260
  66.0114070  29.1809580  99.8925730  67.0909610  30.1852330  99.5492500
  66.9253870  25.5189200  96.6604420  65.9857540  25.6803160  96.7456880
  67.2437130  26.2374880  96.1140410  73.4466630  30.2007720 106.6383450
  72.6185260  30.2700810 106.1633580  74.0417110  30.7862030 106.1699280
  62.5441430  29.7736940 102.4456990  62.1398430  29.0614190 101.9502890
  62.6304550  29.4290180 103.3345030  63.0123130  33.4604500 104.6096200
  62.7151420  32.8549970 103.9303980  63.9622950  33.4981810 104.4985560
  61.2570050  26.5480150 106.2256030  61.8084640  26.6575490 105.4509280
  61.7713560  26.9217750 106.9411260  71.1008740  37.0336370 108.2719300
  70.6239300  37.8408560 108.0791910  70.4170530  36.3814700 108.4245510
  62.1041560  33.1986190 111.2604000  61.2070090  33.4226160 111.5077400
  62.1294430  33.3221130 110.3115400  69.1446780  30.0479310  97.1745260
  69.5840060  29.2101740  97.0283080  69.8575200  30.6808710  97.2609400
  60.9312780  30.0699510 109.8361370  60.7920550  30.9422310 110.2048770
  60.0494140  29.7272320 109.6909310  67.2542160  34.9875380 101.1426500
  67.6938070  35.7299710 100.7281890  67.1929050  35.2301950 102.0665460
  62.7293130  36.0121210 112.0446520  62.7008560  36.4164160 111.1774950
  62.5658100  35.0831570 111.8818120  74.6807950  36.7948310 113.3410690
  75.1567670  37.2731200 114.0199770  75.3015110  36.7265800 112.6156190
  56.8831430  31.8397060 105.7532280  56.9611850  31.9745830 104.8088000
  57.4973110  31.1312950 105.9460400  58.1279060  33.5397250 102.1638460
  57.7207140  33.6811840 101.3092060  59.0192070  33.2557410 101.9609670
  74.0841200  33.9861160 110.5010700  74.2104260  33.7473040 109.5827880
  74.1262580  33.1545700 110.9732780  67.9457940  37.6889160 109.0705510
  68.4602610  37.5997170 109.8727940  67.1027020  38.0348860 109.3633420
  69.9212340  37.9744500  98.4989510  69.7613480  37.6847440  99.3971340
  69.7559050  37.1984630  97.9634740  62.4000720  37.7543030 100.2761130
  62.2243200  36.8378570 100.0628930  61.5456460  38.1130320 100.5158930
  69.6238470  35.4832060  97.0587510  68.9303630  35.4809350  96.3989790
  70.3661330  35.0591380  96.6281680  69.1888400  37.1094770 101.1336000
  69.6445350  36.3284150 101.4474620  69.5280920  37.8201590 101.6777180
  73.9365210  26.0393620 111.4660440  73.3209480  26.5473290 110.9375900
  73.6161630  25.1391950 111.4086380  56.9390950  32.8811230 108.2926740
  57.1021990  32.4116590 107.4746110  57.4043400  32.3734790 108.9575580
  61.7109720  22.0116990 103.3287310  61.2677870  22.7926530 102.9971830
  62.2694710  22.3346880 104.0358250  65.9979530  24.8785510 108.9322630
  65.5358900  25.0868530 109.7442570  65.5957640  24.0644860 108.6293300
  64.8268540  21.6327690  98.2093140  64.2022720  21.6287560  98.9346450
  64.7398660  20.7658650  97.8129110  63.7485620  22.5564320 105.1876910
  64.0457950  23.4627150 105.1068930  64.2971180  22.0683100 104.5736480
  61.5023940  27.1350560 101.0568560  61.2764860  26.9187730 101.9615180
  60.7216470  27.5679020 100.7114530  68.7321700  27.1413930  99.6559210
  68.1330590  27.8649730  99.4722830  69.2801310  27.0790710  98.8735660
  63.9423150  28.0336140 111.7228830  63.8466750  27.0930870 111.5729230
  64.7855130  28.2551210 111.3276900  67.3386570  25.7777470 101.6862490
  67.7316140  26.0949670 100.8731180  67.7003420  24.8989350 101.8007010
  59.0733690  24.4449810 109.8762610  58.6797080  25.2925020 110.0835390
  58.3852090  23.8076180 110.0671250  65.6478740  24.5284780 112.9459350
  64.9577060  24.3356980 113.5805440  66.3911040  24.8119420 113.4783650
  67.9241710  28.3683220 105.7813270  67.1922830  28.8770030 106.1303370
  67.5266050  27.5513200 105.4802050  64.3619100  25.0437420 104.1865760
  64.3655160  24.6027370 103.3370300  65.2570220  25.3654750 104.2937580
  60.2121480  24.9263910 103.1459970  59.8721530  25.4039140 103.9027020
  59.4498800  24.4729030 102.7861070  64.4239250  26.0449500  97.1772520
  64.5452070  26.0035980  98.1258340  64.0387760  26.9073650  97.0219250
  68.3867620  23.8216900 105.1936210  68.4040360  24.2725550 106.0378060
  68.1383200  22.9222540 105.4069650  63.4360750  28.3550640  96.5755820
  62.8677650  27.9068890  95.9491730  64.1449750  28.7143420  96.0420970
  71.8138370  21.2349080 111.0322590  72.1384140  20.5038740 111.5580570
  71.8494880  20.9162720 110.1303580  58.5129930  32.2562660 110.4522550
  58.1284720  31.6156330 111.0505510  58.8242120  32.9598780 111.0217280
  64.6627070  29.1039200 105.9331170  65.0297200  28.6297770 106.6792510
  64.4732130  29.9780770 106.2739510  62.4526440  28.1447840 108.2515380
  62.1483510  29.0239820 108.4765740  63.4072900  28.2047630 108.2872820
  60.9808230  32.3508830  98.8482230  60.2070490  31.8106450  98.6880950
  61.7102860  31.8315440  98.5099990  67.2006150  22.7412150  98.7838010
  66.3870760  22.2425320  98.7083320  67.0068100  23.5810400  98.3674360
  69.9154540  27.1131800  97.0800170  70.8034160  27.4249030  96.9051510
  69.8859630  26.2404050  96.6880750  61.0245630  32.0189210 102.4861040
  61.5424300  31.2157470 102.4317930  60.5729650  31.9568350 103.3277870
  65.9115130  33.2855490  97.7588340  66.2530830  34.0297720  97.2631660
  65.0827840  33.5986610  98.1213170  58.5090170  28.9850580 109.3986740
  58.1505110  29.6504430 109.9860080  58.2144730  28.1534130 109.7699360
  61.7103290  29.4434820 112.2826290  61.4103430  29.5892000 111.3854110
  62.4814530  28.8840110 112.1899680  72.1868810  28.4243640  96.5480030
  72.1032530  28.8557860  95.6976470  72.9063000  28.8841990  96.9806850
  73.2642950  30.8811160 109.6250000  72.5391140  31.4739940 109.4279390
  73.7918410  30.8734700 108.8263370  73.2156060  35.2785900  99.2762160
  72.5732220  34.6241520  99.5505880  72.8286720  35.6840990  98.5002830
  64.8805820  33.3669020 100.5304260  65.5676950  33.9138230 100.9111850
  64.0938240  33.9109750 100.5653870  64.1833030  30.3715050 100.1429620
  64.6395810  31.1820300 100.3689810  63.8321240  30.0538190 100.9748110
  66.4865640  35.8821390 107.3721920  67.1307860  36.0880770 108.0495340
  66.8495080  35.1209790 106.9192770  60.0844810  20.7152700 100.6152140
  59.9559440  20.7070600 101.5637060  59.2606830  21.0535790 100.2643150
  67.7597720  33.8853740 106.0899370  68.4019950  33.1846900 106.2031540
  68.2847070  34.6652180 105.9096260  71.6053440  34.1702360  95.8138510
  71.3791020  33.4532800  96.4063150  71.2149640  33.9214800  94.9760260
  69.5335340  34.6848640 109.2935430  69.8691580  35.2715330 109.9713350
  68.6135680  34.5541350 109.5233220  57.0838740  22.4743820 110.0758840
  56.3697260  22.6740740 110.6811450  57.5033780  21.6983390 110.4473640
  57.3711330  36.4624080 111.0625370  57.4802450  35.5218820 110.9220760
  56.7191890  36.7278830 110.4139100  65.3623920  34.7339970 112.4623490
  65.0420790  34.0149210 113.0069180  64.6882280  35.4095040 112.5359550
  63.4038090  35.5800420  97.4056640  63.3948190  36.3130110  96.7901150
  62.4836450  35.3332000  97.4983600  68.5777520  24.9666130 107.8260290
  68.9458340  24.1461340 108.1539860  67.7175720  25.0268020 108.2415940
  71.9439550  23.9223070  98.6347850  71.3152710  24.0268740  97.9206080
  71.4491470  24.1419850  99.4241730  66.3897690  35.6428660  96.0681830
  66.4909670  35.4392650  95.1383810  65.4899430  35.3886940  96.2729610
  63.9123580  26.2009020 100.0505730  63.2039730  26.6695360 100.4919340
  64.1968060  25.5431030 100.6850920  67.9439010  22.9259680 101.4901520
  67.8206790  22.9445810 100.5411030  68.8923570  22.9738620 101.6099920
  65.0315800  38.1614980 100.7629500  65.2857300  38.1236370  99.8408870
  64.0828280  38.0348310 100.7557750  72.7446370  23.8373680 108.8926650
  72.2419970  24.5779080 109.2320460  73.5603030  24.2257680 108.5763440
  73.0393960  36.2515710 104.0142270  73.1641380  37.0746880 104.4866080
  73.9059520  36.0406440 103.6666420  60.5111490  38.3446920 103.6859400
  61.2473970  37.7962380 103.9567970  60.8952410  39.2102930 103.5465390
  59.5169770  37.5292990 112.8744980  60.3182500  37.8505040 113.2880380
  59.0021590  37.1688570 113.5964890  63.6213800  37.5177230  95.5084970
  64.4142410  37.8066060  95.0566760  63.1018150  37.0869400  94.8297450
  68.3534400  33.6372860 112.8220390  67.7472560  33.6604460 112.0816140
  68.0488510  32.9055900 113.3587640  69.7834770  37.3653150 111.4329800
  70.7356520  37.2811170 111.3830040  69.6362990  38.0294860 112.1063590
  72.6743970  36.7447360  96.9321710  72.3885480  36.3312500  96.1175890
  72.4763520  37.6735070  96.8122230  57.2367580  30.0166450 111.8181030
  57.7406600  29.4373730 112.3897260  56.4975000  30.3006680 112.3557400
  64.1391200  32.7380640  95.3727320  64.0341840  32.1232990  96.0988700
  63.9715420  32.2146530  94.5890330  64.2905520  31.4237440 111.3516550
  63.5251190  31.9922440 111.2671220  64.4721480  31.1313650 110.4584780
  67.3793930  31.8000670  95.9769310  66.8304030  32.2469970  96.6212050
  68.0013190  31.2949920  96.5006980  71.4328870  33.1542770 111.9091570
  72.1738340  33.4918530 111.4059030  70.6701550  33.3234830 111.3561340
  59.2690660  28.1596040 112.7131100  59.3096000  27.8609910 113.6216330
  60.1236160  28.5603650 112.5538620  63.0469050  30.7591590  97.8734610
  63.4685470  30.5931460  98.7166000  63.1719890  29.9491820  97.3789750
  61.2096470  26.7388140 110.6805590  60.6792930  26.2479090 110.0528930
  61.8784540  27.1672340 110.1463520  65.5596690  29.7829200  95.1211710
  66.0802350  29.0678220  94.7552860  66.2065090  30.4215070  95.4212220
  61.6968770  23.7050510 110.7602880  61.6025640  23.0871260 110.0353750
  61.1166160  24.4316800 110.5332790  64.4630210  22.2623750 107.7930270
  64.0147510  22.2848010 106.9475820  63.8295410  21.8642770 108.3900570
  62.7197180  37.4631090 109.5300440  62.1818270  38.1877150 109.2109140
  62.9731140  36.9861430 108.7397780  63.9722430  25.4315610 111.0556370
  64.5622120  25.1231460 111.7434190  63.1542670  24.9595360 111.2116270
  69.4216260  21.6433050  97.3479650  69.7018550  20.8000950  97.7039070
  68.6481990  21.8756160  97.8618400  65.5759390  38.6982300 109.7887090
  65.5018090  39.6017440 110.0959460  64.6738230  38.3794200 109.7609160
  63.9595680  22.8760060  95.7926850  63.6117680  22.1984050  95.2129300
  64.1608450  22.4149570  96.6070240  66.1244720  37.8640810  97.4113450
  67.0195510  38.2025780  97.4332210  66.1562350  37.1420220  96.7837730
  56.9786680  36.0256890 103.0920710  57.3089690  35.1577950 102.8599350
  57.4077680  36.2315410 103.9225670  61.5748600  34.3565900 100.7522680
  61.2744140  34.2330870 101.6526590  61.4686090  33.4974490 100.3438410
  57.4676890  36.8927480 105.8302340  57.0307880  37.0728280 106.6626490
  58.0354570  37.6502100 105.6884060  73.1039070  36.3944480 110.1179650
  72.5041060  36.4537040 109.3743570  73.2332970  35.4549460 110.2476500
  74.3440520  34.1362300  95.4549360  73.5133480  34.2038950  95.9256590
  74.5212350  35.0266420  95.1516220  57.3001320  29.4047710 102.1891220
  56.6450160  29.1359350 101.5450920  58.1379270  29.2952190 101.7393200
  71.7890710  33.1196460 108.2155810  70.9750550  33.5493620 108.4781600
  72.1964910  33.7314870 107.6024860  73.8516150  31.1744150  95.1156080
  74.1264990  32.0823030  94.9875300  73.6626890  31.1106680  96.0518070
  58.3377250  29.7900280 106.7294560  58.7050290  29.7027680 107.6090580
  57.7688070  29.0266830 106.6301420  57.8893250  26.7009370 110.6352980
  56.9949300  26.6676130 110.9746690  58.4290800  26.8996160 111.4004230
  71.5769180  23.4841090 112.5204730  72.4539360  23.4924490 112.9038730
  71.5890020  22.7471930 111.9097080  73.0232450  27.3370630 103.4092750
  73.5469930  26.8433280 102.7782920  73.6091870  27.4720990 104.1540320
  73.2022170  27.4210500 106.9312300  72.2524880  27.3874040 107.0457290
  73.3835180  28.3310610 106.6962070  58.7040770  21.7251510  95.0813580
  59.4268900  22.2660450  95.3994800  58.9765290  21.4514930  94.2055120
  72.5132420  26.5943980  99.3485160  73.0091540  26.3614850 100.1334040
  72.3148490  25.7555820  98.9322800  58.3932960  20.9757700 104.9836200
  59.0409150  20.4255080 104.5431360  58.8134800  21.2300850 105.8052010
  73.9419580  25.2304930 101.8822840  73.8318860  25.0760970 102.8205110
  74.7027170  24.7025870 101.6398250  72.2885300  21.1699060 108.3405840
  72.9257520  21.7833200 108.7065030  72.4360190  21.2059720 107.3955070
  71.8466760  37.8715060 101.7424080  72.4425830  37.5499630 101.0658500
  72.1044910  37.3986880 102.5337350  58.1464960  21.1313370 107.7261520
  57.7979780  21.5877190 108.4919700  57.8152660  20.2370500 107.8083950
  59.7529330  34.3032970 111.8914710  59.7098960  33.9325880 112.7729170
  59.8840340  35.2410540 112.0316530  63.4535360  35.8592560 107.4924430
  63.2126720  36.1267120 106.6054950  64.3938000  36.0298290 107.5475290
  65.6589780  22.3225250 111.2480940  65.5978670  22.9147080 111.9976350
  66.5990160  22.2151210 111.1031200  68.2964340  21.9795310 110.8873230
  68.9104750  22.2974600 110.2254310  68.8413900  21.4943900 111.5069090
  74.7139520  37.8786940 108.2935070  74.2197800  38.2755810 107.5762200
  74.1052810  37.2536150 108.6872350  58.8185600  20.6589570 111.0012290
  59.3668590  20.4777620 110.2378400  58.8840910  19.8683680 111.5368600
  59.5917360  37.2495220 109.0112490  58.9977680  37.1179920 109.7502530
  59.5841200  36.4133360 108.5454590  69.0372380  20.5427450 107.2142520
  68.1632220  20.8762560 107.0115450  68.9283130  20.0700630 108.0394390
  69.9444360  22.7498320 108.5984240  69.6157720  21.9350080 108.2185970
  70.8926660  22.7068130 108.4749930  72.3978970  38.5210360 105.5721810
  71.9381940  39.2726170 105.1979830  71.7691430  37.8016830 105.5136610
  59.2229590  34.6153600 107.9620530  58.4963650  33.9958890 107.8946480
  59.2838740  35.0094210 107.0918610  62.8274690  36.8298600 104.7469940
  63.3439710  36.2185960 104.2218200  63.4772070  37.3327380 105.2380950
  65.5670190  37.7207090 105.5738920  65.8548000  37.4661390 104.6971930
  66.0793410  37.1684450 106.1644490  66.7847200  21.4597290 106.1535430
  66.0018990  21.9342790 106.4332190  66.4910130  20.5552120 106.0448610
  71.3368270  22.1620390 104.1984520  71.7776360  22.1065490 103.3506120
  71.0675860  23.0778400 104.2694700  73.2006840  21.7935630 102.2093340
  73.1395240  20.8496850 102.0624360  73.9798870  21.9015720 102.7546800
  58.1287610  21.7644770  98.6749150  58.8866970  21.8773650  98.1013180
  57.6664780  22.6013970  98.6292580  64.6701420  23.8784040 101.6651460
  63.8575930  23.5040930 101.3247340  65.1743060  23.1229120 101.9672650
  69.1726400  20.5426490 102.9034530  69.7755770  21.1146700 103.3783050
  68.4319390  21.1065930 102.6808430  72.3161000  20.9448050  98.1774810
  72.5111630  21.8431500  98.4442240  71.5290870  20.7135130  98.6707760
  60.5012760  22.2908820  97.2151120  61.0305520  21.5038620  97.0859070
  61.1341080  22.9700010  97.4486650  62.6950600  22.0283960 100.2696510
  62.0653340  21.3271270 100.4366640  62.1555740  22.7888090 100.0529670
  65.6342550  38.6423190 112.9407120  66.5609860  38.4067460 112.9843080
  65.6192980  39.4695190 112.4593150  73.8687610  38.1848760  99.9381370
  74.0439800  37.4986500  99.2942290  73.1709180  38.7095810  99.5458040
  62.8206160  21.3067940 112.7049000  62.5390430  21.8101540 111.9409820
  63.2025860  20.5089690 112.3391130  69.4221620  20.7221520 113.2829470
  69.3087070  21.0416130 114.1780990  70.2391360  21.1234030 112.9866750
  72.2020110  37.8693050 112.7648160  72.9945430  37.3742280 112.5574120
  72.4953260  38.5483190 113.3723770  60.4763640  30.8312820  86.4049240
  59.6448520  30.5761530  86.8045750  61.0844620  30.9023590  87.1407160
  70.4805240  34.9253200  84.3072610  70.0186770  34.1540440  84.6359780
  71.2930790  34.9519270  84.8125060  60.4564900  34.8652910  86.6007260
  60.7592940  33.9750650  86.4217480  61.2008490  35.4223130  86.3729510
  56.8488600  28.3920360  86.0731330  57.4204710  27.6242560  86.0734970
  56.8490140  28.6909120  85.1637940  65.9006800  33.1950200  85.5343640
  65.8315080  32.2540140  85.3732770  66.6626660  33.2851610  86.1066210
  58.0913470  23.8004720  87.8600260  57.9116310  22.9030470  88.1403020
  57.6893550  24.3476590  88.5347210  61.0616980  24.3746210  81.2230010
  61.1683730  25.2749940  81.5298770  60.1509340  24.3264180  80.9324660
  58.7100140  26.2965220  86.4682600  59.3910250  26.5603590  87.0870000
  58.3948190  25.4566090  86.8020610  62.9024710  27.3432580  85.5555190
  63.4102930  27.8413550  86.1960210  63.4337950  26.5667780  85.3794550
  75.0035640  25.5137770  89.2584540  74.2987810  25.9019480  88.7399650
  75.2693560  26.2088060  89.8605470  56.9415100  32.7806980  78.6948140
  56.5643080  33.2694080  77.9633040  57.1988170  33.4532260  79.3254670
  72.5660350  35.0546530  87.7295930  71.8823870  35.7245640  87.7212600
  73.1054640  35.2527180  86.9640790  70.1019090  36.8990660  86.4441110
  70.1146250  36.4952950  85.5763370  69.5494310  37.6737950  86.3402540
  71.3964510  33.6206880  81.5331280  71.2860840  32.6781210  81.6580700
  71.3932760  33.9822520  82.4194040  69.5004530  31.8020500  87.7723720
  69.9173320  31.5880610  86.9377180  70.2244350  32.0593290  88.3432340
  73.4466630  30.2007720  87.8639960  72.6185260  30.2700810  87.3890090
  74.0417110  30.7862030  87.3955790  70.9682080  30.8092500  81.3929020
  70.3494500  30.4712050  80.7455320  70.9506530  30.1652260  82.1008210
  70.4108640  26.9877040  88.8094830  69.9979820  27.8130750  89.0634820
  69.6784590  26.4022080  88.6171190  62.5441430  29.7736940  83.6713500
  62.1398430  29.0614190  83.1759400  62.6304550  29.4290180  84.5601540
  63.0123130  33.4604500  85.8352710  62.7151420  32.8549970  85.1560490
  63.9622950  33.4981810  85.7242070  71.1008740  37.0336370  89.4975810
  70.6239300  37.8408560  89.3048420  70.4170530  36.3814700  89.6502020
  62.7293130  36.0121210  93.2703030  62.7008560  36.4164160  92.4031460
  62.5658100  35.0831570  93.1074630  72.7263920  21.3022120  76.7142810
  72.4136580  21.3948950  77.6141880  73.4876390  21.8803150  76.6640240
  59.2446060  28.6681920  81.1720150  59.1243660  29.3944010  80.5601420
  58.9346950  27.8984830  80.6948060  74.6807950  36.7948310  94.5667200
  75.1567670  37.2731200  95.2456280  75.3015110  36.7265800  93.8412700
  56.8831430  31.8397060  86.9788790  56.9611850  31.9745830  86.0344510
  57.4973110  31.1312950  87.1716910  58.1279060  33.5397250  83.3894970
  57.7207140  33.6811840  82.5348570  59.0192070  33.2557410  83.1866180
  74.0841200  33.9861160  91.7267210  74.2104260  33.7473040  90.8084390
  74.1262580  33.1545700  92.1989290  67.9457940  37.6889160  90.2962020
  68.4602610  37.5997170  91.0984450  67.1027020  38.0348860  90.5889930
  69.9212340  37.9744500  79.7246020  69.7613480  37.6847440  80.6227850
  69.7559050  37.1984630  79.1891250  62.4000720  37.7543030  81.5017640
  62.2243200  36.8378570  81.2885440  61.5456460  38.1130320  81.7415440
  69.6238470  35.4832060  78.2844020  68.9303630  35.4809350  77.6246300
  70.3661330  35.0591380  77.8538190  69.1888400  37.1094770  82.3592510
  69.6445350  36.3284150  82.6731130  69.5280920  37.8201590  82.9033690
  56.9390950  32.8811230  89.5183250  57.1021990  32.4116590  88.7002620
  57.4043400  32.3734790  90.1832090  70.9984040  26.0994460  91.2875800
  70.1477630  25.8000210  91.6084870  70.8385830  26.3436470  90.3759620
  68.0933750  27.5996210  93.3874590  68.4187160  26.7659960  93.0476820
  68.8814080  28.1224730  93.5352920  61.5023940  27.1350560  82.2825070
  61.2764860  26.9187730  83.1871690  60.7216470  27.5679020  81.9371040
  65.6478740  24.5284780  94.1715860  64.9577060  24.3356980  94.8061950
  66.3911040  24.8119420  94.7040160  67.9241710  28.3683220  87.0069780
  67.1922830  28.8770030  87.3559880  67.5266050  27.5513200  86.7058560
  68.3867620  23.8216900  86.4192720  68.4040360  24.2725550  87.2634570
  68.1383200  22.9222540  86.6326160  58.5129930  32.2562660  91.6779060
  58.1284720  31.6156330  92.2762020  58.8242120  32.9598780  92.2473790
  64.6627070  29.1039200  87.1587680  65.0297200  28.6297770  87.9049020
  64.4732130  29.9780770  87.4996020  60.9808230  32.3508830  80.0738740
  60.2070490  31.8106450  79.9137460  61.7102860  31.8315440  79.7356500
  71.7396210  31.3474190  85.8665130  72.4595330  31.8429480  85.4761240
  71.5378030  30.6692080  85.2219000  67.2006150  22.7412150  80.0094520
  66.3870760  22.2425320  79.9339830  67.0068100  23.5810400  79.5930870
  61.0245630  32.0189210  83.7117550  61.5424300  31.2157470  83.6574440
  60.5729650  31.9568350  84.5534380  61.7103290  29.4434820  93.5082800
  61.4103430  29.5892000  92.6110620  62.4814530  28.8840110  93.4156190
  72.1868810  28.4243640  77.7736540  72.1032530  28.8557860  76.9232980
  72.9063000  28.8841990  78.2063360  73.2642950  30.8811160  90.8506510
  72.5391140  31.4739940  90.6535900  73.7918410  30.8734700  90.0519880
  73.2156060  35.2785900  80.5018670  72.5732220  34.6241520  80.7762390
  72.8286720  35.6840990  79.7259340  68.7942540  32.6071330  84.3490360
  69.1466360  32.0099460  83.6891730  67.9104870  32.2815560  84.5198610
  67.7597720  33.8853740  87.3155880  68.4019950  33.1846900  87.4288050
  68.2847070  34.6652180  87.1352770  71.6053440  34.1702360  77.0395020
  71.3791020  33.4532800  77.6319660  71.2149640  33.9214800  76.2016770
  57.3869470  38.1969220  77.8139480  57.7467110  38.7958560  77.1596750
  57.2461810  38.7429110  78.5874510  57.0838740  22.4743820  91.3015350
  56.3697260  22.6740740  91.9067960  57.5033780  21.6983390  91.6730150
  71.1869690  32.0874300  78.7009180  70.8991390  32.5486990  79.4887060
  71.9821860  31.6272070  78.9693400  57.3711330  36.4624080  92.2881880
  57.4802450  35.5218820  92.1477270  56.7191890  36.7278830  91.6395610
  65.3623920  34.7339970  93.6880000  65.0420790  34.0149210  94.2325690
  64.6882280  35.4095040  93.7616060  59.0044730  30.8015310  79.3759910
  58.3972680  31.5414210  79.3855210  59.4794080  30.8914670  78.5498110
  68.5777520  24.9666130  89.0516800  68.9458340  24.1461340  89.3796370
  67.7175720  25.0268020  89.4672450  72.7446370  23.8373680  90.1183160
  72.2419970  24.5779080  90.4576970  73.5603030  24.2257680  89.8019950
  61.0150020  30.7626460  77.1248480  61.7813290  30.6507820  77.6873910
  61.0924710  30.0664430  76.4725250  59.7096780  28.1951530  77.8081370
  59.7900370  27.2479040  77.9198770  60.6016530  28.5258410  77.9142030
  73.0393960  36.2515710  85.2398780  73.1641380  37.0746880  85.7122590
  73.9059520  36.0406440  84.8922930  60.5111490  38.3446920  84.9115910
  61.2473970  37.7962380  85.1824480  60.8952410  39.2102930  84.7721900
  57.3956970  34.4120490  80.7857420  56.4696750  34.6541630  80.7762830
  57.8613400  35.2394750  80.6642170  68.3534400  33.6372860  94.0476900
  67.7472560  33.6604460  93.3072650  68.0488510  32.9055900  94.5844150
  69.7834770  37.3653150  92.6586310  70.7356520  37.2811170  92.6086550
  69.6362990  38.0294860  93.3320100  72.6743970  36.7447360  78.1578220
  72.3885480  36.3312500  77.3432400  72.4763520  37.6735070  78.0378740
  57.2367580  30.0166450  93.0437540  57.7406600  29.4373730  93.6153770
  56.4975000  30.3006680  93.5813910  71.4328870  33.1542770  93.1348080
  72.1738340  33.4918530  92.6315540  70.6701550  33.3234830  92.5817850
  70.1074530  31.2057600  91.6703290  70.5215550  31.3602680  92.5193710
  69.1725530  31.3312820  91.8329070  70.5796700  28.5453760  93.6742440
  71.1617470  27.7906080  93.5862920  70.7558470  29.0761200  92.8973920
  69.5441560  29.4431450  89.5999570  69.0176780  29.9674070  88.9964710
  69.8872900  30.0758840  90.2309300  62.7197180  37.4631090  90.7556950
  62.1818270  38.1877150  90.4365650  62.9731140  36.9861430  89.9654290
  68.7915860  25.0481420  92.5145900  68.1031380  24.3862960  92.4495890
  69.5121880  24.6019690  92.9594360  69.4216260  21.6433050  78.5736160
  69.7018550  20.8000950  78.9295580  68.6481990  21.8756160  79.0874910
  65.5759390  38.6982300  91.0143600  65.5018090  39.6017440  91.3215970
  64.6738230  38.3794200  90.9865670  59.7640880  33.2367860  76.8656960
  60.2015750  33.7797530  77.5214540  60.2488610  32.4114810  76.8753300
  56.9786680  36.0256890  84.3177220  57.3089690  35.1577950  84.0855860
  57.4077680  36.2315410  85.1482180  61.5748600  34.3565900  81.9779190
  61.2744140  34.2330870  82.8783100  61.4686090  33.4974490  81.5694920
  57.4676890  36.8927480  87.0558850  57.0307880  37.0728280  87.8883000
  58.0354570  37.6502100  86.9140570  73.1039070  36.3944480  91.3436160
  72.5041060  36.4537040  90.6000080  73.2332970  35.4549460  91.4733010
  74.3440520  34.1362300  76.6805870  73.5133480  34.2038950  77.1513100
  74.5212350  35.0266420  76.3772730  73.7996980  30.8809780  79.1840070
  74.5615890  31.4506430  79.2899760  73.8151350  30.3136980  79.9548380
  57.3001320  29.4047710  83.4147730  56.6450160  29.1359350  82.7707430
  58.1379270  29.2952190  82.9649710  74.8056950  31.7359880  84.0282000
  75.1765780  30.9527200  83.6217970  75.4458880  32.4248980  83.8499300
  71.7890710  33.1196460  89.4412320  70.9750550  33.5493620  89.7038110
  72.1964910  33.7314870  88.8281370  73.8516150  31.1744150  76.3412590
  74.1264990  32.0823030  76.2131810  73.6626890  31.1106680  77.2774580
  73.7481490  29.1113140  81.3342020  73.3725090  28.3441070  80.9023310
  73.0184610  29.4935840  81.8216950  58.3377250  29.7900280  87.9551070
  58.7050290  29.7027680  88.8347090  57.7688070  29.0266830  87.8557930
  73.1381110  28.2584660  90.9681540  72.9067200  28.0297410  90.0679490
  73.3985660  29.1784210  90.9226430  73.2022170  27.4210500  88.1568810
  72.2524880  27.3874040  88.2713800  73.3835180  28.3310610  87.9218580
  72.2885300  21.1699060  89.5662350  72.9257520  21.7833200  89.9321540
  72.4360190  21.2059720  88.6211580  74.8309850  23.0612850  76.3485490
  75.7559160  22.9294030  76.1403780  74.8085640  23.1405670  77.3021940
  74.9048340  23.8323510  78.9742200  74.1099840  23.7668630  79.5035110
  75.1091620  24.7674150  78.9627550  71.8466760  37.8715060  82.9680590
  72.4425830  37.5499630  82.2915010  72.1044910  37.3986880  83.7593860
  58.1464960  21.1313370  88.9518030  57.7979780  21.5877190  89.7176210
  57.8152660  20.2370500  89.0340460  63.4535360  35.8592560  88.7180940
  63.2126720  36.1267120  87.8311460  64.3938000  36.0298290  88.7731800
  65.6589780  22.3225250  92.4737450  65.5978670  22.9147080  93.2232860
  66.5990160  22.2151210  92.3287710  68.2964340  21.9795310  92.1129740
  68.9104750  22.2974600  91.4510820  68.8413900  21.4943900  92.7325600
  58.8185600  20.6589570  92.2268800  59.3668590  20.4777620  91.4634910
  58.8840910  19.8683680  92.7625110  59.5917360  37.2495220  90.2369000
  58.9977680  37.1179920  90.9759040  59.5841200  36.4133360  89.7711100
  69.0372380  20.5427450  88.4399030  68.1632220  20.8762560  88.2371960
  68.9283130  20.0700630  89.2650900  69.9444360  22.7498320  89.8240750
  69.6157720  21.9350080  89.4442480  70.8926660  22.7068130  89.7006440
  59.2229590  34.6153600  89.1877040  58.4963650  33.9958890  89.1202990
  59.2838740  35.0094210  88.3175120  62.8274690  36.8298600  85.9726450
  63.3439710  36.2185960  85.4474710  63.4772070  37.3327380  86.4637460
  66.7847200  21.4597290  87.3791940  66.0018990  21.9342790  87.6588700
  66.4910130  20.5552120  87.2705120  57.5059590  37.9327990  82.3973800
  57.3381630  37.2998670  83.0955690  56.6394100  38.1387390  82.0467990
  69.1726400  20.5426490  84.1291040  69.7755770  21.1146700  84.6039560
  68.4319390  21.1065930  83.9064940  72.3161000  20.9448050  79.4031320
  72.5111630  21.8431500  79.6698750  71.5290870  20.7135130  79.8964270
  59.1122290  36.6261220  79.8423940  58.5869910  37.0069250  79.1385900
  59.0366870  37.2511990  80.5633650  65.6342550  38.6423190  94.1663630
  66.5609860  38.4067460  94.2099590  65.6192980  39.4695190  93.6849660
  62.8206160  21.3067940  93.9305510  62.5390430  21.8101540  93.1666330
  63.2025860  20.5089690  93.5647640  61.7115260  38.5743600  78.7173190
  62.4434080  38.2902880  78.1697080  61.9708930  38.3356880  79.6072570
  69.4221620  20.7221520  94.5085980  69.3087070  21.0416130  95.4037500
  70.2391360  21.1234030  94.2123260  72.2020110  37.8693050  93.9904670
  72.9945430  37.3742280  93.7830630  72.4953260  38.5483190  94.5980280
  60.4763640  30.8312820  67.6305750  59.6448520  30.5761530  68.0302260
  61.0844620  30.9023590  68.3663670  70.4805240  34.9253200  65.5329120
  70.0186770  34.1540440  65.8616290  71.2930790  34.9519270  66.0381570
  58.8855590  25.7914710  61.4148140  57.9972290  26.1330680  61.3128020
  59.1696780  25.5915030  60.5228970  56.8488600  28.3920360  67.2987840
  57.4204710  27.6242560  67.2991480  56.8490140  28.6909120  66.3894450
  66.7068550  37.2111210  65.1533110  66.0879990  37.6668710  64.5827550
  67.5620330  37.3662670  64.7522810  65.9006800  33.1950200  66.7600150
  65.8315080  32.2540140  66.5989280  66.6626660  33.2851610  67.3322720
  58.0913470  23.8004720  69.0856770  57.9116310  22.9030470  69.3659530
  57.6893550  24.3476590  69.7603720  61.0616980  24.3746210  62.4486520
  61.1683730  25.2749940  62.7555280  60.1509340  24.3264180  62.1581170
  70.7136090  23.4971020  63.9197420  71.5345710  23.0067590  63.9622900
  70.7470170  24.0868680  64.6729260  58.7100140  26.2965220  67.6939110
  59.3910250  26.5603590  68.3126510  58.3948190  25.4566090  68.0277120
  62.9024710  27.3432580  66.7811700  63.4102930  27.8413550  67.4216720
  63.4337950  26.5667780  66.6051060  75.0035640  25.5137770  70.4841050
  74.2987810  25.9019480  69.9656160  75.2693560  26.2088060  71.0861980
  67.5731900  32.0950450  62.5465020  66.9549170  32.5599900  61.9827740
  68.0855150  32.7877930  62.9634530  62.4363660  31.6226320  69.2248620
  62.1033040  32.2495240  69.8669690  62.6130340  32.1488200  68.4450290
  56.9415100  32.7806980  59.9204650  56.5643080  33.2694080  59.1889550
  57.1988170  33.4532260  60.5511180  74.0184490  24.8826190  67.0834170
  73.0709400  24.9165170  67.2149600  74.3434480  25.6965140  67.4683530
  64.5504030  21.1823370  65.3790160  64.8579010  20.6270260  64.6625660
  63.6204730  21.3167830  65.1963150  70.1019090  36.8990660  67.6697620
  70.1146250  36.4952950  66.8019880  69.5494310  37.6737950  67.5659050
  66.9384790  29.2472200  62.1150280  66.0114070  29.1809580  62.3438750
  67.0909610  30.1852330  62.0005520  66.9253870  25.5189200  59.1117440
  65.9857540  25.6803160  59.1969900  67.2437130  26.2374880  58.5653430
  70.9682080  30.8092500  62.6185530  70.3494500  30.4712050  61.9711830
  70.9506530  30.1652260  63.3264720  62.5441430  29.7736940  64.8970010
  62.1398430  29.0614190  64.4015910  62.6304550  29.4290180  65.7858050
  63.0123130  33.4604500  67.0609220  62.7151420  32.8549970  66.3817000
  63.9622950  33.4981810  66.9498580  61.2570050  26.5480150  68.6769050
  61.8084640  26.6575490  67.9022300  61.7713560  26.9217750  69.3924280
  71.1008740  37.0336370  70.7232320  70.6239300  37.8408560  70.5304930
  70.4170530  36.3814700  70.8758530  62.1041560  33.1986190  73.7117020
  61.2070090  33.4226160  73.9590420  62.1294430  33.3221130  72.7628420
  69.1446780  30.0479310  59.6258280  69.5840060  29.2101740  59.4796100
  69.8575200  30.6808710  59.7122420  67.2542160  34.9875380  63.5939520
  67.6938070  35.7299710  63.1794910  67.1929050  35.2301950  64.5178480
  62.7293130  36.0121210  74.4959540  62.7008560  36.4164160  73.6287970
  62.5658100  35.0831570  74.3331140  72.7263920  21.3022120  57.9399320
  72.4136580  21.3948950  58.8398390  73.4876390  21.8803150  57.8896750
  59.2446060  28.6681920  62.3976660  59.1243660  29.3944010  61.7857930
  58.9346950  27.8984830  61.9204570  58.1279060  33.5397250  64.6151480
  57.7207140  33.6811840  63.7605080  59.0192070  33.2557410  64.4122690
  67.9457940  37.6889160  71.5218530  68.4602610  37.5997170  72.3240960
  67.1027020  38.0348860  71.8146440  62.4000720  37.7543030  62.7274150
  62.2243200  36.8378570  62.5141950  61.5456460  38.1130320  62.9671950
  69.1888400  37.1094770  63.5849020  69.6445350  36.3284150  63.8987640
  69.5280920  37.8201590  64.1290200  73.9365210  26.0393620  73.9173460
  73.3209480  26.5473290  73.3888920  73.6161630  25.1391950  73.8599400
  61.7109720  22.0116990  65.7800330  61.2677870  22.7926530  65.4484850
  62.2694710  22.3346880  66.4871270  65.9979530  24.8785510  71.3835650
  65.5358900  25.0868530  72.1955590  65.5957640  24.0644860  71.0806320
  64.8268540  21.6327690  60.6606160  64.2022720  21.6287560  61.3859470
  64.7398660  20.7658650  60.2642130  63.7485620  22.5564320  67.6389930
  64.0457950  23.4627150  67.5581950  64.2971180  22.0683100  67.0249500
  61.5023940  27.1350560  63.5081580  61.2764860  26.9187730  64.4128200
  60.7216470  27.5679020  63.1627550  68.7321700  27.1413930  62.1072230
  68.1330590  27.8649730  61.9235850  69.2801310  27.0790710  61.3248680
  63.9423150  28.0336140  74.1741850  63.8466750  27.0930870  74.0242250
  64.7855130  28.2551210  73.7789920  67.3386570  25.7777470  64.1375510
  67.7316140  26.0949670  63.3244200  67.7003420  24.8989350  64.2520030
  56.3750740  22.3678270  66.3605710  56.0863790  22.9381130  67.0730690
  57.1196500  21.8882720  66.7236940  64.3619100  25.0437420  66.6378780
  64.3655160  24.6027370  65.7883320  65.2570220  25.3654750  66.7450600
  60.2121480  24.9263910  65.5972990  59.8721530  25.4039140  66.3540040
  59.4498800  24.4729030  65.2374090  64.4239250  26.0449500  59.6285540
  64.5452070  26.0035980  60.5771360  64.0387760  26.9073650  59.4732270
  71.8138370  21.2349080  73.4835610  72.1384140  20.5038740  74.0093590
  71.8494880  20.9162720  72.5816600  57.5267560  23.8482890  64.5137660
  57.2414480  23.4838560  65.3516280  57.4646420  23.1163350  63.9000800
  62.4526440  28.1447840  70.7028400  62.1483510  29.0239820  70.9278760
  63.4072900  28.2047630  70.7385840  60.9808230  32.3508830  61.2995250
  60.2070490  31.8106450  61.1393970  61.7102860  31.8315440  60.9613010
  67.2006150  22.7412150  61.2351030  66.3870760  22.2425320  61.1596340
  67.0068100  23.5810400  60.8187380  67.1215010  31.4183250  72.9790640
  67.0552320  30.4978920  72.7248230  66.4920150  31.5158690  73.6935280
  69.9154540  27.1131800  59.5313190  70.8034160  27.4249030  59.3564530
  69.8859630  26.2404050  59.1393770  61.0245630  32.0189210  64.9374060
  61.5424300  31.2157470  64.8830950  60.5729650  31.9568350  65.7790890
  65.9115130  33.2855490  60.2101360  66.2530830  34.0297720  59.7144680
  65.0827840  33.5986610  60.5726190  67.0531740  34.2403820  72.7294440
  67.0676280  33.3084780  72.5113350  66.3456840  34.3263580  73.3684210
  72.1868810  28.4243640  58.9993050  72.1032530  28.8557860  58.1489490
  72.9063000  28.8841990  59.4319870  68.7942540  32.6071330  65.5746870
  69.1466360  32.0099460  64.9148240  67.9104870  32.2815560  65.7455120
  64.8805820  33.3669020  62.9817280  65.5676950  33.9138230  63.3624870
  64.0938240  33.9109750  63.0166890  57.0198220  28.9841840  58.4734360
  57.8893070  29.2666640  58.7570280  56.5288540  29.7977710  58.3583170
  64.1833030  30.3715050  62.5942640  64.6395810  31.1820300  62.8202830
  63.8321240  30.0538190  63.4261130  66.4865640  35.8821390  69.8234940
  67.1307860  36.0880770  70.5008360  66.8495080  35.1209790  69.3705790
  67.7597720  33.8853740  68.5412390  68.4019950  33.1846900  68.6544560
  68.2847070  34.6652180  68.3609280  69.5335340  34.6848640  71.7448450
  69.8691580  35.2715330  72.4226370  68.6135680  34.5541350  71.9746240
  57.3869470  38.1969220  59.0395990  57.7467110  38.7958560  58.3853260
  57.2461810  38.7429110  59.8131020  63.4038090  35.5800420  59.8569660
  63.3948190  36.3130110  59.2414170  62.4836450  35.3332000  59.9496620
  59.0044730  30.8015310  60.6016420  58.3972680  31.5414210  60.6111720
  59.4794080  30.8914670  59.7754620  71.9439550  23.9223070  61.0860870
  71.3152710  24.0268740  60.3719100  71.4491470  24.1419850  61.8754750
  66.3897690  35.6428660  58.5194850  66.4909670  35.4392650  57.5896830
  65.4899430  35.3886940  58.7242630  63.9123580  26.2009020  62.5018750
  63.2039730  26.6695360  62.9432360  64.1968060  25.5431030  63.1363940
  67.9439010  22.9259680  63.9414540  67.8206790  22.9445810  62.9924050
  68.8923570  22.9738620  64.0612940  65.0315800  38.1614980  63.2142520
  65.2857300  38.1236370  62.2921890  64.0828280  38.0348310  63.2070770
  62.1158600  24.5094100  59.8769460  62.9649130  24.9464250  59.8109650
  61.7489870  24.8214360  60.7041520  72.7446370  23.8373680  71.3439670
  72.2419970  24.5779080  71.6833480  73.5603030  24.2257680  71.0276460
  61.0150020  30.7626460  58.3504990  61.7813290  30.6507820  58.9130420
  61.0924710  30.0664430  57.6981760  73.0393960  36.2515710  66.4655290
  73.1641380  37.0746880  66.9379100  73.9059520  36.0406440  66.1179440
  60.5111490  38.3446920  66.1372420  61.2473970  37.7962380  66.4080990
  60.8952410  39.2102930  65.9978410  57.3956970  34.4120490  62.0113930
  56.4696750  34.6541630  62.0019340  57.8613400  35.2394750  61.8898680
  59.5169770  37.5292990  75.3258000  60.3182500  37.8505040  75.7393400
  59.0021590  37.1688570  76.0477910  63.6213800  37.5177230  57.9597990
  64.4142410  37.8066060  57.5079780  63.1018150  37.0869400  57.2810470
  68.3534400  33.6372860  75.2733410  67.7472560  33.6604460  74.5329160
  68.0488510  32.9055900  75.8100660  69.7834770  37.3653150  73.8842820
  70.7356520  37.2811170  73.8343060  69.6362990  38.0294860  74.5576610
  64.1391200  32.7380640  57.8240340  64.0341840  32.1232990  58.5501720
  63.9715420  32.2146530  57.0403350  64.2905520  31.4237440  73.8029570
  63.5251190  31.9922440  73.7184240  64.4721480  31.1313650  72.9097800
  67.3793930  31.8000670  58.4282330  66.8304030  32.2469970  59.0725070
  68.0013190  31.2949920  58.9520000  71.4328870  33.1542770  74.3604590
  72.1738340  33.4918530  73.8572050  70.6701550  33.3234830  73.8074360
  63.0469050  30.7591590  60.3247630  63.4685470  30.5931460  61.1679020
  63.1719890  29.9491820  59.8302770  65.5596690  29.7829200  57.5724730
  66.0802350  29.0678220  57.2065880  66.2065090  30.4215070  57.8725240
  70.1074530  31.2057600  72.8959800  70.5215550  31.3602680  73.7450220
  69.1725530  31.3312820  73.0585580  64.4630210  22.2623750  70.2443290
  64.0147510  22.2848010  69.3988840  63.8295410  21.8642770  70.8413590
  64.8689760  31.1578080  70.8655730  65.2877870  32.0010810  70.6931970
  63.9498390  31.2950120  70.6362510  62.7197180  37.4631090  71.9813460
  62.1818270  38.1877150  71.6622160  62.9731140  36.9861430  71.1910800
  69.4216260  21.6433050  59.7992670  69.7018550  20.8000950  60.1552090
  68.6481990  21.8756160  60.3131420  65.5759390  38.6982300  72.2400110
  65.5018090  39.6017440  72.5472480  64.6738230  38.3794200  72.2122180
  63.9595680  22.8760060  58.2439870  63.6117680  22.1984050  57.6642320
  64.1608450  22.4149570  59.0583260  66.1244720  37.8640810  59.8626470
  67.0195510  38.2025780  59.8845230  66.1562350  37.1420220  59.2350750
  59.7640880  33.2367860  58.0913470  60.2015750  33.7797530  58.7471050
  60.2488610  32.4114810  58.1009810  56.9786680  36.0256890  65.5433730
  57.3089690  35.1577950  65.3112370  57.4077680  36.2315410  66.3738690
  61.5748600  34.3565900  63.2035700  61.2744140  34.2330870  64.1039610
  61.4686090  33.4974490  62.7951430  57.4676890  36.8927480  68.2815360
  57.0307880  37.0728280  69.1139510  58.0354570  37.6502100  68.1397080
  73.1039070  36.3944480  72.5692670  72.5041060  36.4537040  71.8256590
  73.2332970  35.4549460  72.6989520  73.7996980  30.8809780  60.4096580
  74.5615890  31.4506430  60.5156270  73.8151350  30.3136980  61.1804890
  57.3001320  29.4047710  64.6404240  56.6450160  29.1359350  63.9963940
  58.1379270  29.2952190  64.1906220  74.8056950  31.7359880  65.2538510
  75.1765780  30.9527200  64.8474480  75.4458880  32.4248980  65.0755810
  73.8516150  31.1744150  57.5669100  74.1264990  32.0823030  57.4388320
  73.6626890  31.1106680  58.5031090  70.2491760  24.1989000  58.8622730
  70.6676640  24.0119980  58.0219390  69.9427820  23.3468050  59.1725660
  73.7481490  29.1113140  62.5598530  73.3725090  28.3441070  62.1279820
  73.0184610  29.4935840  63.0473460  58.3377250  29.7900280  69.1807580
  58.7050290  29.7027680  70.0603600  57.7688070  29.0266830  69.0814440
  71.5769180  23.4841090  74.9717750  72.4539360  23.4924490  75.3551750
  71.5890020  22.7471930  74.3610100  73.0232450  27.3370630  65.8605770
  73.5469930  26.8433280  65.2295940  73.6091870  27.4720990  66.6053340
  58.7040770  21.7251510  57.5326600  59.4268900  22.2660450  57.8507820
  58.9765290  21.4514930  56.6568140  72.5132420  26.5943980  61.7998180
  73.0091540  26.3614850  62.5847060  72.3148490  25.7555820  61.3835820
  58.3932960  20.9757700  67.4349220  59.0409150  20.4255080  66.9944380
  58.8134800  21.2300850  68.2565030  73.9419580  25.2304930  64.3335860
  73.8318860  25.0760970  65.2718130  74.7027170  24.7025870  64.0911270
  72.2885300  21.1699060  70.7918860  72.9257520  21.7833200  71.1578050
  72.4360190  21.2059720  69.8468090  74.8309850  23.0612850  57.5742000
  75.7559160  22.9294030  57.3660290  74.8085640  23.1405670  58.5278450
  74.9048340  23.8323510  60.1998710  74.1099840  23.7668630  60.7291620
  75.1091620  24.7674150  60.1884060  71.8466760  37.8715060  64.1937100
  72.4425830  37.5499630  63.5171520  72.1044910  37.3986880  64.9850370
  63.4535360  35.8592560  69.9437450  63.2126720  36.1267120  69.0567970
  64.3938000  36.0298290  69.9988310  68.2964340  21.9795310  73.3386250
  68.9104750  22.2974600  72.6767330  68.8413900  21.4943900  73.9582110
  74.7139520  37.8786940  70.7448090  74.2197800  38.2755810  70.0275220
  74.1052810  37.2536150  71.1385370  69.0372380  20.5427450  69.6655540
  68.1632220  20.8762560  69.4628470  68.9283130  20.0700630  70.4907410
  69.9444360  22.7498320  71.0497260  69.6157720  21.9350080  70.6698990
  70.8926660  22.7068130  70.9262950  72.3978970  38.5210360  68.0234830
  71.9381940  39.2726170  67.6492850  71.7691430  37.8016830  67.9649630
  62.8274690  36.8298600  67.1982960  63.3439710  36.2185960  66.6731220
  63.4772070  37.3327380  67.6893970  65.5670190  37.7207090  68.0251940
  65.8548000  37.4661390  67.1484950  66.0793410  37.1684450  68.6157510
  66.7847200  21.4597290  68.6048450  66.0018990  21.9342790  68.8845210
  66.4910130  20.5552120  68.4961630  71.3368270  22.1620390  66.6497540
  71.7776360  22.1065490  65.8019140  71.0675860  23.0778400  66.7207720
  73.2006840  21.7935630  64.6606360  73.1395240  20.8496850  64.5137380
  73.9798870  21.9015720  65.2059820  57.5059590  37.9327990  63.6230310
  57.3381630  37.2998670  64.3212200  56.6394100  38.1387390  63.2724500
  64.6701420  23.8784040  64.1164480  63.8575930  23.5040930  63.7760360
  65.1743060  23.1229120  64.4185670  69.1726400  20.5426490  65.3547550
  69.7755770  21.1146700  65.8296070  68.4319390  21.1065930  65.1321450
  72.3161000  20.9448050  60.6287830  72.5111630  21.8431500  60.8955260
  71.5290870  20.7135130  61.1220780  59.1122290  36.6261220  61.0680450
  58.5869910  37.0069250  60.3642410  59.0366870  37.2511990  61.7890160
  60.5012760  22.2908820  59.6664140  61.0305520  21.5038620  59.5372090
  61.1341080  22.9700010  59.8999670  62.6950600  22.0283960  62.7209530
  62.0653340  21.3271270  62.8879660  62.1555740  22.7888090  62.5042690
  65.6342550  38.6423190  75.3920140  66.5609860  38.4067460  75.4356100
  65.6192980  39.4695190  74.9106170  61.7115260  38.5743600  59.9429700
  62.4434080  38.2902880  59.3953590  61.9708930  38.3356880  60.8329080
  60.8730050  34.6908330  59.9476030  60.2438930  35.1593430  60.4961860
  60.9877880  33.8457550  60.3822220  69.4221620  20.7221520  75.7342490
  69.3087070  21.0416130  76.6294010  70.2391360  21.1234030  75.4379770
  72.2020110  37.8693050  75.2161180  72.9945430  37.3742280  75.0087140
  72.4953260  38.5483190  75.8236790  68.3279770  28.7413990  46.0977230
  68.2473820  27.8268600  45.8268940  67.9144190  29.2381060  45.3916940
  66.4597810  30.5193010  47.9786500  65.6839910  30.0393450  48.2685070
  67.1110740  29.8398660  47.8042660  70.4805240  34.9253200  46.7585630
  70.0186770  34.1540440  47.0872800  71.2930790  34.9519270  47.2638080
  60.4564900  34.8652910  49.0520280  60.7592940  33.9750650  48.8730500
  61.2008490  35.4223130  48.8242530  58.8855590  25.7914710  42.6404650
  57.9972290  26.1330680  42.5384530  59.1696780  25.5915030  41.7485480
  66.7068550  37.2111210  46.3789620  66.0879990  37.6668710  45.8084060
  67.5620330  37.3662670  45.9779320  65.9006800  33.1950200  47.9856660
  65.8315080  32.2540140  47.8245790  66.6626660  33.2851610  48.5579230
  58.0913470  23.8004720  50.3113280  57.9116310  22.9030470  50.5916040
  57.6893550  24.3476590  50.9860230  66.9311970  26.0020580  48.2125590
  67.3076790  25.1292460  48.0999260  66.8331480  26.3379280  47.3216030
  61.0616980  24.3746210  43.6743030  61.1683730  25.2749940  43.9811790
  60.1509340  24.3264180  43.3837680  70.7136090  23.4971020  45.1453930
  71.5345710  23.0067590  45.1879410  70.7470170  24.0868680  45.8985770
  58.7100140  26.2965220  48.9195620  59.3910250  26.5603590  49.5383020
  58.3948190  25.4566090  49.2533630  62.9024710  27.3432580  48.0068210
  63.4102930  27.8413550  48.6473230  63.4337950  26.5667780  47.8307570
  75.0035640  25.5137770  51.7097560  74.2987810  25.9019480  51.1912670
  75.2693560  26.2088060  52.3118490  61.1860810  21.9831140  52.2731630
  61.1879250  22.5003530  51.4677530  60.3565120  21.5061320  52.2501560
  62.4363660  31.6226320  50.4505130  62.1033040  32.2495240  51.0926200
  62.6130340  32.1488200  49.6706800  70.9497570  25.4371400  47.9181470
  70.2453140  25.7256290  48.4984580  71.3109730  26.2471510  47.5581030
  60.8676140  23.6941100  50.2802080  61.2092950  24.5383150  49.9855950
  59.9291950  23.8424840  50.3967420  61.6482760  33.5907120  52.2654310
  62.2656760  34.2658200  51.9838760  60.7875880  33.9995100  52.1741810
  56.9415100  32.7806980  41.1461160  56.5643080  33.2694080  40.4146060
  57.1988170  33.4532260  41.7767690  72.5660350  35.0546530  50.1808950
  71.8823870  35.7245640  50.1725620  73.1054640  35.2527180  49.4153810
  74.0184490  24.8826190  48.3090680  73.0709400  24.9165170  48.4406110
  74.3434480  25.6965140  48.6940040  64.5504030  21.1823370  46.6046670
  64.8579010  20.6270260  45.8882170  63.6204730  21.3167830  46.4219660
  70.1019090  36.8990660  48.8954130  70.1146250  36.4952950  48.0276390
  69.5494310  37.6737950  48.7915560  71.3964510  33.6206880  43.9844300
  71.2860840  32.6781210  44.1093720  71.3932760  33.9822520  44.8707060
  69.5004530  31.8020500  50.2236740  69.9173320  31.5880610  49.3890200
  70.2244350  32.0593290  50.7945360  66.9253870  25.5189200  40.3373950
  65.9857540  25.6803160  40.4226410  67.2437130  26.2374880  39.7909940
  73.4466630  30.2007720  50.3152980  72.6185260  30.2700810  49.8403110
  74.0417110  30.7862030  49.8468810  70.4108640  26.9877040  51.2607850
  69.9979820  27.8130750  51.5147840  69.6784590  26.4022080  51.0684210
  62.5441430  29.7736940  46.1226520  62.1398430  29.0614190  45.6272420
  62.6304550  29.4290180  47.0114560  63.0123130  33.4604500  48.2865730
  62.7151420  32.8549970  47.6073510  63.9622950  33.4981810  48.1755090
  61.2570050  26.5480150  49.9025560  61.8084640  26.6575490  49.1278810
  61.7713560  26.9217750  50.6180790  62.1041560  33.1986190  54.9373530
  61.2070090  33.4226160  55.1846930  62.1294430  33.3221130  53.9884930
  67.2542160  34.9875380  44.8196030  67.6938070  35.7299710  44.4051420
  67.1929050  35.2301950  45.7434990  62.7293130  36.0121210  55.7216050
  62.7008560  36.4164160  54.8544480  62.5658100  35.0831570  55.5587650
  72.7263920  21.3022120  39.1655830  72.4136580  21.3948950  40.0654900
  73.4876390  21.8803150  39.1153260  74.0841200  33.9861160  54.1780230
  74.2104260  33.7473040  53.2597410  74.1262580  33.1545700  54.6502310
  62.4000720  37.7543030  43.9530660  62.2243200  36.8378570  43.7398460
  61.5456460  38.1130320  44.1928460  73.9365210  26.0393620  55.1429970
  73.3209480  26.5473290  54.6145430  73.6161630  25.1391950  55.0855910
  61.7109720  22.0116990  47.0056840  61.2677870  22.7926530  46.6741360
  62.2694710  22.3346880  47.7127780  65.9979530  24.8785510  52.6092160
  65.5358900  25.0868530  53.4212100  65.5957640  24.0644860  52.3062830
  70.9984040  26.0994460  53.7388820  70.1477630  25.8000210  54.0597890
  70.8385830  26.3436470  52.8272640  68.0933750  27.5996210  55.8387610
  68.4187160  26.7659960  55.4989840  68.8814080  28.1224730  55.9865940
  64.8268540  21.6327690  41.8862670  64.2022720  21.6287560  42.6115980
  64.7398660  20.7658650  41.4898640  63.7485620  22.5564320  48.8646440
  64.0457950  23.4627150  48.7838460  64.2971180  22.0683100  48.2506010
  67.3386570  25.7777470  45.3632020  67.7316140  26.0949670  44.5500710
  67.7003420  24.8989350  45.4776540  65.6478740  24.5284780  56.6228880
  64.9577060  24.3356980  57.2574970  66.3911040  24.8119420  57.1553180
  56.3750740  22.3678270  47.5862220  56.0863790  22.9381130  48.2987200
  57.1196500  21.8882720  47.9493450  56.5620970  26.3098390  38.7964940
  56.4795640  27.2529150  38.9379930  56.2104030  26.1673300  37.9177290
  67.9241710  28.3683220  49.4582800  67.1922830  28.8770030  49.8072900
  67.5266050  27.5513200  49.1571580  64.3619100  25.0437420  47.8635290
  64.3655160  24.6027370  47.0139830  65.2570220  25.3654750  47.9707110
  60.2121480  24.9263910  46.8229500  59.8721530  25.4039140  47.5796550
  59.4498800  24.4729030  46.4630600  64.4239250  26.0449500  40.8542050
  64.5452070  26.0035980  41.8027870  64.0387760  26.9073650  40.6988780
  68.3867620  23.8216900  48.8705740  68.4040360  24.2725550  49.7147590
  68.1383200  22.9222540  49.0839180  63.4360750  28.3550640  40.2525350
  62.8677650  27.9068890  39.6261260  64.1449750  28.7143420  39.7190500
  71.8138370  21.2349080  54.7092120  72.1384140  20.5038740  55.2350100
  71.8494880  20.9162720  53.8073110  58.5129930  32.2562660  54.1292080
  58.1284720  31.6156330  54.7275040  58.8242120  32.9598780  54.6986810
  64.6627070  29.1039200  49.6100700  65.0297200  28.6297770  50.3562040
  64.4732130  29.9780770  49.9509040  57.5267560  23.8482890  45.7394170
  57.2414480  23.4838560  46.5772790  57.4646420  23.1163350  45.1257310
  62.4526440  28.1447840  51.9284910  62.1483510  29.0239820  52.1535270
  63.4072900  28.2047630  51.9642350  60.9808230  32.3508830  42.5251760
  60.2070490  31.8106450  42.3650480  61.7102860  31.8315440  42.1869520
  71.7396210  31.3474190  48.3178150  72.4595330  31.8429480  47.9274260
  71.5378030  30.6692080  47.6732020  67.2006150  22.7412150  42.4607540
  66.3870760  22.2425320  42.3852850  67.0068100  23.5810400  42.0443890
  67.1215010  31.4183250  54.2047150  67.0552320  30.4978920  53.9504740
  66.4920150  31.5158690  54.9191790  67.0531740  34.2403820  53.9550950
  67.0676280  33.3084780  53.7369860  66.3456840  34.3263580  54.5940720
  72.1868810  28.4243640  40.2249560  72.1032530  28.8557860  39.3746000
  72.9063000  28.8841990  40.6576380  73.2642950  30.8811160  53.3019530
  72.5391140  31.4739940  53.1048920  73.7918410  30.8734700  52.5032900
  68.7942540  32.6071330  46.8003380  69.1466360  32.0099460  46.1404750
  67.9104870  32.2815560  46.9711630  57.0198220  28.9841840  39.6990870
  57.8893070  29.2666640  39.9826790  56.5288540  29.7977710  39.5839680
  66.4865640  35.8821390  51.0491450  67.1307860  36.0880770  51.7264870
  66.8495080  35.1209790  50.5962300  60.0844810  20.7152700  44.2921670
  59.9559440  20.7070600  45.2406590  59.2606830  21.0535790  43.9412680
  67.7597720  33.8853740  49.7668900  68.4019950  33.1846900  49.8801070
  68.2847070  34.6652180  49.5865790  69.5335340  34.6848640  52.9704960
  69.8691580  35.2715330  53.6482880  68.6135680  34.5541350  53.2002750
  57.3869470  38.1969220  40.2652500  57.7467110  38.7958560  39.6109770
  57.2461810  38.7429110  41.0387530  57.3711330  36.4624080  54.7394900
  57.4802450  35.5218820  54.5990290  56.7191890  36.7278830  54.0908630
  65.3623920  34.7339970  56.1393020  65.0420790  34.0149210  56.6838710
  64.6882280  35.4095040  56.2129080  63.4038090  35.5800420  41.0826170
  63.3948190  36.3130110  40.4670680  62.4836450  35.3332000  41.1753130
  59.0044730  30.8015310  41.8272930  58.3972680  31.5414210  41.8368230
  59.4794080  30.8914670  41.0011130  68.5777520  24.9666130  51.5029820
  68.9458340  24.1461340  51.8309390  67.7175720  25.0268020  51.9185470
  71.9439550  23.9223070  42.3117380  71.3152710  24.0268740  41.5975610
  71.4491470  24.1419850  43.1011260  66.3897690  35.6428660  39.7451360
  66.4909670  35.4392650  38.8153340  65.4899430  35.3886940  39.9499140
  63.9123580  26.2009020  43.7275260  63.2039730  26.6695360  44.1688870
  64.1968060  25.5431030  44.3620450  65.5379510  27.6205720  51.7267790
  66.0364760  28.0951540  52.3919640  65.6802460  26.6969240  51.9337820
  67.9439010  22.9259680  45.1671050  67.8206790  22.9445810  44.2180560
  68.8923570  22.9738620  45.2869450  65.0315800  38.1614980  44.4399030
  65.2857300  38.1236370  43.5178400  64.0828280  38.0348310  44.4327280
  62.1158600  24.5094100  41.1025970  62.9649130  24.9464250  41.0366160
  61.7489870  24.8214360  41.9298030  72.7446370  23.8373680  52.5696180
  72.2419970  24.5779080  52.9089990  73.5603030  24.2257680  52.2532970
  71.0368380  29.0806860  46.0157540  70.0958520  29.0957090  46.1905230
  71.3512450  28.2942820  46.4617840  61.0150020  30.7626460  39.5761500
  61.7813290  30.6507820  40.1386930  61.0924710  30.0664430  38.9238270
  59.7096780  28.1951530  40.2594390  59.7900370  27.2479040  40.3711790
  60.6016530  28.5258410  40.3655050  73.0393960  36.2515710  47.6911800
  73.1641380  37.0746880  48.1635610  73.9059520  36.0406440  47.3435950
  60.5111490  38.3446920  47.3628930  61.2473970  37.7962380  47.6337500
  60.8952410  39.2102930  47.2234920  57.3956970  34.4120490  43.2370440
  56.4696750  34.6541630  43.2275850  57.8613400  35.2394750  43.1155190
  59.5169770  37.5292990  56.5514510  60.3182500  37.8505040  56.9649910
  59.0021590  37.1688570  57.2734420  63.6213800  37.5177230  39.1854500
  64.4142410  37.8066060  38.7336290  63.1018150  37.0869400  38.5066980
  68.3534400  33.6372860  56.4989920  67.7472560  33.6604460  55.7585670
  68.0488510  32.9055900  57.0357170  57.2367580  30.0166450  55.4950560
  57.7406600  29.4373730  56.0666790  56.4975000  30.3006680  56.0326930
  64.1391200  32.7380640  39.0496850  64.0341840  32.1232990  39.7758230
  63.9715420  32.2146530  38.2659860  64.2905520  31.4237440  55.0286080
  63.5251190  31.9922440  54.9440750  64.4721480  31.1313650  54.1354310
  71.4328870  33.1542770  55.5861100  72.1738340  33.4918530  55.0828560
  70.6701550  33.3234830  55.0330870  65.5596690  29.7829200  38.7981240
  66.0802350  29.0678220  38.4322390  66.2065090  30.4215070  39.0981750
  70.1074530  31.2057600  54.1216310  70.5215550  31.3602680  54.9706730
  69.1725530  31.3312820  54.2842090  70.5796700  28.5453760  56.1255460
  71.1617470  27.7906080  56.0375940  70.7558470  29.0761200  55.3486940
  64.4630210  22.2623750  51.4699800  64.0147510  22.2848010  50.6245350
  63.8295410  21.8642770  52.0670100  64.8689760  31.1578080  52.0912240
  65.2877870  32.0010810  51.9188480  63.9498390  31.2950120  51.8619020
  67.2053660  28.8894260  53.4750080  67.3249870  28.2935400  54.2144920
  68.0647660  28.9263950  53.0551380  69.5441560  29.4431450  52.0512590
  69.0176780  29.9674070  51.4477730  69.8872900  30.0758840  52.6822320
  61.9427950  26.8324820  38.4962300  61.7417010  25.9692180  38.8575640
  61.7720000  26.7458180  37.5583900  62.7197180  37.4631090  53.2069970
  62.1818270  38.1877150  52.8878670  62.9731140  36.9861430  52.4167310
  68.7915860  25.0481420  54.9658920  68.1031380  24.3862960  54.9008910
  69.5121880  24.6019690  55.4107380  69.4216260  21.6433050  41.0249180
  69.7018550  20.8000950  41.3808600  68.6481990  21.8756160  41.5387930
  60.7410750  23.9325440  38.4840180  61.0436650  23.9392870  37.5759330
  61.4805340  23.5823300  38.9807840  65.5759390  38.6982300  53.4656620
  65.5018090  39.6017440  53.7728990  64.6738230  38.3794200  53.4378690
  63.9595680  22.8760060  39.4696380  63.6117680  22.1984050  38.8898830
  64.1608450  22.4149570  40.2839770  66.1244720  37.8640810  41.0882980
  67.0195510  38.2025780  41.1101740  66.1562350  37.1420220  40.4607260
  59.7640880  33.2367860  39.3169980  60.2015750  33.7797530  39.9727560
  60.2488610  32.4114810  39.3266320  56.9786680  36.0256890  46.7690240
  57.3089690  35.1577950  46.5368880  57.4077680  36.2315410  47.5995200
  61.5748600  34.3565900  44.4292210  61.2744140  34.2330870  45.3296120
  61.4686090  33.4974490  44.0207940  57.4676890  36.8927480  49.5071870
  57.0307880  37.0728280  50.3396020  58.0354570  37.6502100  49.3653590
  73.1039070  36.3944480  53.7949180  72.5041060  36.4537040  53.0513100
  73.2332970  35.4549460  53.9246030  73.7996980  30.8809780  41.6353090
  74.5615890  31.4506430  41.7412780  73.8151350  30.3136980  42.4061400
  74.8056950  31.7359880  46.4795020  75.1765780  30.9527200  46.0730990
  75.4458880  32.4248980  46.3012320  71.7890710  33.1196460  51.8925340
  70.9750550  33.5493620  52.1551130  72.1964910  33.7314870  51.2794390
  73.8516150  31.1744150  38.7925610  74.1264990  32.0823030  38.6644830
  73.6626890  31.1106680  39.7287600  70.2491760  24.1989000  40.0879240
  70.6676640  24.0119980  39.2475900  69.9427820  23.3468050  40.3982170
  73.7481490  29.1113140  43.7855040  73.3725090  28.3441070  43.3536330
  73.0184610  29.4935840  44.2729970  73.1381110  28.2584660  53.4194560
  72.9067200  28.0297410  52.5192510  73.3985660  29.1784210  53.3739450
  71.5769180  23.4841090  56.1974260  72.4539360  23.4924490  56.5808260
  71.5890020  22.7471930  55.5866610  56.5139400  26.6146640  41.8086080
  55.6103480  26.8776840  41.6337740  56.9980020  26.8857810  41.0286040
  73.0232450  27.3370630  47.0862280  73.5469930  26.8433280  46.4552450
  73.6091870  27.4720990  47.8309850  73.2022170  27.4210500  50.6081830
  72.2524880  27.3874040  50.7226820  73.3835180  28.3310610  50.3731600
  59.0566610  25.6712180  39.7180460  59.7658310  25.2495400  39.2327740
  58.3406550  25.7387410  39.0863810  58.7040770  21.7251510  38.7583110
  59.4268900  22.2660450  39.0764330  58.9765290  21.4514930  37.8824650
  72.5132420  26.5943980  43.0254690  73.0091540  26.3614850  43.8103570
  72.3148490  25.7555820  42.6092330  58.3932960  20.9757700  48.6605730
  59.0409150  20.4255080  48.2200890  58.8134800  21.2300850  49.4821540
  73.9419580  25.2304930  45.5592370  73.8318860  25.0760970  46.4974640
  74.7027170  24.7025870  45.3167780  72.2885300  21.1699060  52.0175370
  72.9257520  21.7833200  52.3834560  72.4360190  21.2059720  51.0724600
  74.8309850  23.0612850  38.7998510  75.7559160  22.9294030  38.5916800
  74.8085640  23.1405670  39.7534960  74.9048340  23.8323510  41.4255220
  74.1099840  23.7668630  41.9548130  75.1091620  24.7674150  41.4140570
  58.1464960  21.1313370  51.4031050  57.7979780  21.5877190  52.1689230
  57.8152660  20.2370500  51.4853480  59.7529330  34.3032970  55.5684240
  59.7098960  33.9325880  56.4498700  59.8840340  35.2410540  55.7086060
  63.4535360  35.8592560  51.1693960  63.2126720  36.1267120  50.2824480
  64.3938000  36.0298290  51.2244820  74.7139520  37.8786940  51.9704600
  74.2197800  38.2755810  51.2531730  74.1052810  37.2536150  52.3641880
  58.8185600  20.6589570  54.6781820  59.3668590  20.4777620  53.9147930
  58.8840910  19.8683680  55.2138130  59.5917360  37.2495220  52.6882020
  58.9977680  37.1179920  53.4272060  59.5841200  36.4133360  52.2224120
  69.0372380  20.5427450  50.8912050  68.1632220  20.8762560  50.6884980
  68.9283130  20.0700630  51.7163920  69.9444360  22.7498320  52.2753770
  69.6157720  21.9350080  51.8955500  70.8926660  22.7068130  52.1519460
  72.3978970  38.5210360  49.2491340  71.9381940  39.2726170  48.8749360
  71.7691430  37.8016830  49.1906140  59.2229590  34.6153600  51.6390060
  58.4963650  33.9958890  51.5716010  59.2838740  35.0094210  50.7688140
  62.8274690  36.8298600  48.4239470  63.3439710  36.2185960  47.8987730
  63.4772070  37.3327380  48.9150480  65.5670190  37.7207090  49.2508450
  65.8548000  37.4661390  48.3741460  66.0793410  37.1684450  49.8414020
  66.7847200  21.4597290  49.8304960  66.0018990  21.9342790  50.1101720
  66.4910130  20.5552120  49.7218140  71.3368270  22.1620390  47.8754050
  71.7776360  22.1065490  47.0275650  71.0675860  23.0778400  47.9464230
  73.2006840  21.7935630  45.8862870  73.1395240  20.8496850  45.7393890
  73.9798870  21.9015720  46.4316330  57.5059590  37.9327990  44.8486820
  57.3381630  37.2998670  45.5468710  56.6394100  38.1387390  44.4981010
  58.1287610  21.7644770  42.3518680  58.8866970  21.8773650  41.7782710
  57.6664780  22.6013970  42.3062110  64.6701420  23.8784040  45.3420990
  63.8575930  23.5040930  45.0016870  65.1743060  23.1229120  45.6442180
  69.1726400  20.5426490  46.5804060  69.7755770  21.1146700  47.0552580
  68.4319390  21.1065930  46.3577960  72.3161000  20.9448050  41.8544340
  72.5111630  21.8431500  42.1211770  71.5290870  20.7135130  42.3477290
  59.1122290  36.6261220  42.2936960  58.5869910  37.0069250  41.5898920
  59.0366870  37.2511990  43.0146670  60.5012760  22.2908820  40.8920650
  61.0305520  21.5038620  40.7628600  61.1341080  22.9700010  41.1256180
  62.6950600  22.0283960  43.9466040  62.0653340  21.3271270  44.1136170
  62.1555740  22.7888090  43.7299200  65.6342550  38.6423190  56.6176650
  66.5609860  38.4067460  56.6612610  65.6192980  39.4695190  56.1362680
  62.8206160  21.3067940  56.3818530  62.5390430  21.8101540  55.6179350
  63.2025860  20.5089690  56.0160660  61.7115260  38.5743600  41.1686210
  62.4434080  38.2902880  40.6210100  61.9708930  38.3356880  42.0585590
  60.8730050  34.6908330  41.1732540  60.2438930  35.1593430  41.7218370
  60.9877880  33.8457550  41.6078730  68.3279770  28.7413990  27.3233740
  68.2473820  27.8268600  27.0525450  67.9144190  29.2381060  26.6173450
  66.4597810  30.5193010  29.2043010  65.6839910  30.0393450  29.4941580
  67.1110740  29.8398660  29.0299170  60.4763640  30.8312820  30.0818770
  59.6448520  30.5761530  30.4815280  61.0844620  30.9023590  30.8176690
  60.4564900  34.8652910  30.2776790  60.7592940  33.9750650  30.0987010
  61.2008490  35.4223130  30.0499040  58.8855590  25.7914710  23.8661160
  57.9972290  26.1330680  23.7641040  59.1696780  25.5915030  22.9741990
  56.8488600  28.3920360  29.7500860  57.4204710  27.6242560  29.7504500
  56.8490140  28.6909120  28.8407470  66.7068550  37.2111210  27.6046130
  66.0879990  37.6668710  27.0340570  67.5620330  37.3662670  27.2035830
  65.9006800  33.1950200  29.2113170  65.8315080  32.2540140  29.0502300
  66.6626660  33.2851610  29.7835740  58.0913470  23.8004720  31.5369790
  57.9116310  22.9030470  31.8172550  57.6893550  24.3476590  32.2116740
  66.9311970  26.0020580  29.4382100  67.3076790  25.1292460  29.3255770
  66.8331480  26.3379280  28.5472540  61.0616980  24.3746210  24.8999540
  61.1683730  25.2749940  25.2068300  60.1509340  24.3264180  24.6094190
  70.7136090  23.4971020  26.3710440  71.5345710  23.0067590  26.4135920
  70.7470170  24.0868680  27.1242280  58.7100140  26.2965220  30.1452130
  59.3910250  26.5603590  30.7639530  58.3948190  25.4566090  30.4790140
  62.9024710  27.3432580  29.2324720  63.4102930  27.8413550  29.8729740
  63.4337950  26.5667780  29.0564080  75.0035640  25.5137770  32.9354070
  74.2987810  25.9019480  32.4169180  75.2693560  26.2088060  33.5375000
  61.1860810  21.9831140  33.4988140  61.1879250  22.5003530  32.6934040
  60.3565120  21.5061320  33.4758070  67.5731900  32.0950450  24.9978040
  66.9549170  32.5599900  24.4340760  68.0855150  32.7877930  25.4147550
  62.4363660  31.6226320  31.6761640  62.1033040  32.2495240  32.3182710
  62.6130340  32.1488200  30.8963310  70.9497570  25.4371400  29.1437980
  70.2453140  25.7256290  29.7241090  71.3109730  26.2471510  28.7837540
  60.8676140  23.6941100  31.5058590  61.2092950  24.5383150  31.2112460
  59.9291950  23.8424840  31.6223930  61.6482760  33.5907120  33.4910820
  62.2656760  34.2658200  33.2095270  60.7875880  33.9995100  33.3998320
  56.9415100  32.7806980  22.3717670  56.5643080  33.2694080  21.6402570
  57.1988170  33.4532260  23.0024200  72.5660350  35.0546530  31.4065460
  71.8823870  35.7245640  31.3982130  73.1054640  35.2527180  30.6410320
  74.0184490  24.8826190  29.5347190  73.0709400  24.9165170  29.6662620
  74.3434480  25.6965140  29.9196550  64.5504030  21.1823370  27.8303180
  64.8579010  20.6270260  27.1138680  63.6204730  21.3167830  27.6476170
  71.3964510  33.6206880  25.2100810  71.2860840  32.6781210  25.3350230
  71.3932760  33.9822520  26.0963570  69.5004530  31.8020500  31.4493250
  69.9173320  31.5880610  30.6146710  70.2244350  32.0593290  32.0201870
  66.9384790  29.2472200  24.5663300  66.0114070  29.1809580  24.7951770
  67.0909610  30.1852330  24.4518540  66.9253870  25.5189200  21.5630460
  65.9857540  25.6803160  21.6482920  67.2437130  26.2374880  21.0166450
  73.4466630  30.2007720  31.5409490  72.6185260  30.2700810  31.0659620
  74.0417110  30.7862030  31.0725320  70.9682080  30.8092500  25.0698550
  70.3494500  30.4712050  24.4224850  70.9506530  30.1652260  25.7777740
  70.4108640  26.9877040  32.4864360  69.9979820  27.8130750  32.7404350
  69.6784590  26.4022080  32.2940720  62.5441430  29.7736940  27.3483030
  62.1398430  29.0614190  26.8528930  62.6304550  29.4290180  28.2371070
  63.0123130  33.4604500  29.5122240  62.7151420  32.8549970  28.8330020
  63.9622950  33.4981810  29.4011600  61.2570050  26.5480150  31.1282070
  61.8084640  26.6575490  30.3535320  61.7713560  26.9217750  31.8437300
  71.1008740  37.0336370  33.1745340  70.6239300  37.8408560  32.9817950
  70.4170530  36.3814700  33.3271550  62.1041560  33.1986190  36.1630040
  61.2070090  33.4226160  36.4103440  62.1294430  33.3221130  35.2141440
  69.1446780  30.0479310  22.0771300  69.5840060  29.2101740  21.9309120
  69.8575200  30.6808710  22.1635440  60.9312780  30.0699510  34.7387410
  60.7920550  30.9422310  35.1074810  60.0494140  29.7272320  34.5935350
  67.2542160  34.9875380  26.0452540  67.6938070  35.7299710  25.6307930
  67.1929050  35.2301950  26.9691500  62.7293130  36.0121210  36.9472560
  62.7008560  36.4164160  36.0800990  62.5658100  35.0831570  36.7844160
  72.7263920  21.3022120  20.3912340  72.4136580  21.3948950  21.2911410
  73.4876390  21.8803150  20.3409770  59.2446060  28.6681920  24.8489680
  59.1243660  29.3944010  24.2370950  58.9346950  27.8984830  24.3717590
  56.8831430  31.8397060  30.6558320  56.9611850  31.9745830  29.7114040
  57.4973110  31.1312950  30.8486440  58.1279060  33.5397250  27.0664500
  57.7207140  33.6811840  26.2118100  59.0192070  33.2557410  26.8635710
  74.0841200  33.9861160  35.4036740  74.2104260  33.7473040  34.4853920
  74.1262580  33.1545700  35.8758820  67.9457940  37.6889160  33.9731550
  68.4602610  37.5997170  34.7753980  67.1027020  38.0348860  34.2659460
  62.4000720  37.7543030  25.1787170  62.2243200  36.8378570  24.9654970
  61.5456460  38.1130320  25.4184970  69.6238470  35.4832060  21.9613550
  68.9303630  35.4809350  21.3015830  70.3661330  35.0591380  21.5307720
  73.9365210  26.0393620  36.3686480  73.3209480  26.5473290  35.8401940
  73.6161630  25.1391950  36.3112420  56.9390950  32.8811230  33.1952780
  57.1021990  32.4116590  32.3772150  57.4043400  32.3734790  33.8601620
  61.7109720  22.0116990  28.2313350  61.2677870  22.7926530  27.8997870
  62.2694710  22.3346880  28.9384290  65.9979530  24.8785510  33.8348670
  65.5358900  25.0868530  34.6468610  65.5957640  24.0644860  33.5319340
  70.9984040  26.0994460  34.9645330  70.1477630  25.8000210  35.2854400
  70.8385830  26.3436470  34.0529150  68.0933750  27.5996210  37.0644120
  68.4187160  26.7659960  36.7246350  68.8814080  28.1224730  37.2122450
  64.8268540  21.6327690  23.1119180  64.2022720  21.6287560  23.8372490
  64.7398660  20.7658650  22.7155150  63.7485620  22.5564320  30.0902950
  64.0457950  23.4627150  30.0094970  64.2971180  22.0683100  29.4762520
  61.5023940  27.1350560  25.9594600  61.2764860  26.9187730  26.8641220
  60.7216470  27.5679020  25.6140570  68.7321700  27.1413930  24.5585250
  68.1330590  27.8649730  24.3748870  69.2801310  27.0790710  23.7761700
  63.9423150  28.0336140  36.6254870  63.8466750  27.0930870  36.4755270
  64.7855130  28.2551210  36.2302940  67.3386570  25.7777470  26.5888530
  67.7316140  26.0949670  25.7757220  67.7003420  24.8989350  26.7033050
  59.0733690  24.4449810  34.7788650  58.6797080  25.2925020  34.9861430
  58.3852090  23.8076180  34.9697290  65.6478740  24.5284780  37.8485390
  64.9577060  24.3356980  38.4831480  66.3911040  24.8119420  38.3809690
  56.3750740  22.3678270  28.8118730  56.0863790  22.9381130  29.5243710
  57.1196500  21.8882720  29.1749960  56.5620970  26.3098390  20.0221450
  56.4795640  27.2529150  20.1636440  56.2104030  26.1673300  19.1433800
  67.9241710  28.3683220  30.6839310  67.1922830  28.8770030  31.0329410
  67.5266050  27.5513200  30.3828090  64.3619100  25.0437420  29.0891800
  64.3655160  24.6027370  28.2396340  65.2570220  25.3654750  29.1963620
  60.2121480  24.9263910  28.0486010  59.8721530  25.4039140  28.8053060
  59.4498800  24.4729030  27.6887110  64.4239250  26.0449500  22.0798560
  64.5452070  26.0035980  23.0284380  64.0387760  26.9073650  21.9245290
  68.3867620  23.8216900  30.0962250  68.4040360  24.2725550  30.9404100
  68.1383200  22.9222540  30.3095690  63.4360750  28.3550640  21.4781860
  62.8677650  27.9068890  20.8517770  64.1449750  28.7143420  20.9447010
  71.8138370  21.2349080  35.9348630  72.1384140  20.5038740  36.4606610
  71.8494880  20.9162720  35.0329620  58.5129930  32.2562660  35.3548590
  58.1284720  31.6156330  35.9531550  58.8242120  32.9598780  35.9243320
  64.6627070  29.1039200  30.8357210  65.0297200  28.6297770  31.5818550
  64.4732130  29.9780770  31.1765550  57.5267560  23.8482890  26.9650680
  57.2414480  23.4838560  27.8029300  57.4646420  23.1163350  26.3513820
  62.4526440  28.1447840  33.1541420  62.1483510  29.0239820  33.3791780
  63.4072900  28.2047630  33.1898860  60.9808230  32.3508830  23.7508270
  60.2070490  31.8106450  23.5906990  61.7102860  31.8315440  23.4126030
  71.7396210  31.3474190  29.5434660  72.4595330  31.8429480  29.1530770
  71.5378030  30.6692080  28.8988530  67.2006150  22.7412150  23.6864050
  66.3870760  22.2425320  23.6109360  67.0068100  23.5810400  23.2700400
  67.1215010  31.4183250  35.4303660  67.0552320  30.4978920  35.1761250
  66.4920150  31.5158690  36.1448300  69.9154540  27.1131800  21.9826210
  70.8034160  27.4249030  21.8077550  69.8859630  26.2404050  21.5906790
  61.0245630  32.0189210  27.3887080  61.5424300  31.2157470  27.3343970
  60.5729650  31.9568350  28.2303910  65.9115130  33.2855490  22.6614380
  66.2530830  34.0297720  22.1657700  65.0827840  33.5986610  23.0239210
  58.5090170  28.9850580  34.3012780  58.1505110  29.6504430  34.8886120
  58.2144730  28.1534130  34.6725400  61.7103290  29.4434820  37.1852330
  61.4103430  29.5892000  36.2880150  62.4814530  28.8840110  37.0925720
  67.0531740  34.2403820  35.1807460  67.0676280  33.3084780  34.9626370
  66.3456840  34.3263580  35.8197230  72.1868810  28.4243640  21.4506070
  72.1032530  28.8557860  20.6002510  72.9063000  28.8841990  21.8832890
  73.2642950  30.8811160  34.5276040  72.5391140  31.4739940  34.3305430
  73.7918410  30.8734700  33.7289410  73.2156060  35.2785900  24.1788200
  72.5732220  34.6241520  24.4531920  72.8286720  35.6840990  23.4028870
  68.7942540  32.6071330  28.0259890  69.1466360  32.0099460  27.3661260
  67.9104870  32.2815560  28.1968140  64.8805820  33.3669020  25.4330300
  65.5676950  33.9138230  25.8137890  64.0938240  33.9109750  25.4679910
  57.0198220  28.9841840  20.9247380  57.8893070  29.2666640  21.2083300
  56.5288540  29.7977710  20.8096190  64.1833030  30.3715050  25.0455660
  64.6395810  31.1820300  25.2715850  63.8321240  30.0538190  25.8774150
  66.4865640  35.8821390  32.2747960  67.1307860  36.0880770  32.9521380
  66.8495080  35.1209790  31.8218810  60.0844810  20.7152700  25.5178180
  59.9559440  20.7070600  26.4663100  59.2606830  21.0535790  25.1669190
  67.7597720  33.8853740  30.9925410  68.4019950  33.1846900  31.1057580
  68.2847070  34.6652180  30.8122300  71.6053440  34.1702360  20.7164550
  71.3791020  33.4532800  21.3089190  71.2149640  33.9214800  19.8786300
  69.5335340  34.6848640  34.1961470  69.8691580  35.2715330  34.8739390
  68.6135680  34.5541350  34.4259260  57.3869470  38.1969220  21.4909010
  57.7467110  38.7958560  20.8366280  57.2461810  38.7429110  22.2644040
  57.0838740  22.4743820  34.9784880  56.3697260  22.6740740  35.5837490
  57.5033780  21.6983390  35.3499680  71.1869690  32.0874300  22.3778710
  70.8991390  32.5486990  23.1656590  71.9821860  31.6272070  22.6462930
  57.3711330  36.4624080  35.9651410  57.4802450  35.5218820  35.8246800
  56.7191890  36.7278830  35.3165140  65.3623920  34.7339970  37.3649530
  65.0420790  34.0149210  37.9095220  64.6882280  35.4095040  37.4385590
  63.4038090  35.5800420  22.3082680  63.3948190  36.3130110  21.6927190
  62.4836450  35.3332000  22.4009640  59.0044730  30.8015310  23.0529440
  58.3972680  31.5414210  23.0624740  59.4794080  30.8914670  22.2267640
  68.5777520  24.9666130  32.7286330  68.9458340  24.1461340  33.0565900
  67.7175720  25.0268020  33.1441980  71.9439550  23.9223070  23.5373890
  71.3152710  24.0268740  22.8232120  71.4491470  24.1419850  24.3267770
  66.3897690  35.6428660  20.9707870  66.4909670  35.4392650  20.0409850
  65.4899430  35.3886940  21.1755650  63.9123580  26.2009020  24.9531770
  63.2039730  26.6695360  25.3945380  64.1968060  25.5431030  25.5876960
  65.5379510  27.6205720  32.9524300  66.0364760  28.0951540  33.6176150
  65.6802460  26.6969240  33.1594330  67.9439010  22.9259680  26.3927560
  67.8206790  22.9445810  25.4437070  68.8923570  22.9738620  26.5125960
  65.0315800  38.1614980  25.6655540  65.2857300  38.1236370  24.7434910
  64.0828280  38.0348310  25.6583790  62.1158600  24.5094100  22.3282480
  62.9649130  24.9464250  22.2622670  61.7489870  24.8214360  23.1554540
  72.7446370  23.8373680  33.7952690  72.2419970  24.5779080  34.1346500
  73.5603030  24.2257680  33.4789480  71.0368380  29.0806860  27.2414050
  70.0958520  29.0957090  27.4161740  71.3512450  28.2942820  27.6874350
  61.0150020  30.7626460  20.8018010  61.7813290  30.6507820  21.3643440
  61.0924710  30.0664430  20.1494780  59.7096780  28.1951530  21.4850900
  59.7900370  27.2479040  21.5968300  60.6016530  28.5258410  21.5911560
  60.5111490  38.3446920  28.5885440  61.2473970  37.7962380  28.8594010
  60.8952410  39.2102930  28.4491430  57.3956970  34.4120490  24.4626950
  56.4696750  34.6541630  24.4532360  57.8613400  35.2394750  24.3411700
  59.5169770  37.5292990  37.7771020  60.3182500  37.8505040  38.1906420
  59.0021590  37.1688570  38.4990930  63.6213800  37.5177230  20.4111010
  64.4142410  37.8066060  19.9592800  63.1018150  37.0869400  19.7323490
  68.3534400  33.6372860  37.7246430  67.7472560  33.6604460  36.9842180
  68.0488510  32.9055900  38.2613680  69.7834770  37.3653150  36.3355840
  70.7356520  37.2811170  36.2856080  69.6362990  38.0294860  37.0089630
  72.6743970  36.7447360  21.8347750  72.3885480  36.3312500  21.0201930
  72.4763520  37.6735070  21.7148270  57.2367580  30.0166450  36.7207070
  57.7406600  29.4373730  37.2923300  56.4975000  30.3006680  37.2583440
  64.1391200  32.7380640  20.2753360  64.0341840  32.1232990  21.0014740
  63.9715420  32.2146530  19.4916370  64.2905520  31.4237440  36.2542590
  63.5251190  31.9922440  36.1697260  64.4721480  31.1313650  35.3610820
  67.3793930  31.8000670  20.8795350  66.8304030  32.2469970  21.5238090
  68.0013190  31.2949920  21.4033020  71.4328870  33.1542770  36.8117610
  72.1738340  33.4918530  36.3085070  70.6701550  33.3234830  36.2587380
  59.2690660  28.1596040  37.6157140  59.3096000  27.8609910  38.5242370
  60.1236160  28.5603650  37.4564660  63.0469050  30.7591590  22.7760650
  63.4685470  30.5931460  23.6192040  63.1719890  29.9491820  22.2815790
  61.2096470  26.7388140  35.5831630  60.6792930  26.2479090  34.9554970
  61.8784540  27.1672340  35.0489560  65.5596690  29.7829200  20.0237750
  66.0802350  29.0678220  19.6578900  66.2065090  30.4215070  20.3238260
  70.1074530  31.2057600  35.3472820  70.5215550  31.3602680  36.1963240
  69.1725530  31.3312820  35.5098600  70.5796700  28.5453760  37.3511970
  71.1617470  27.7906080  37.2632450  70.7558470  29.0761200  36.5743450
  61.6968770  23.7050510  35.6628920  61.6025640  23.0871260  34.9379790
  61.1166160  24.4316800  35.4358830  64.4630210  22.2623750  32.6956310
  64.0147510  22.2848010  31.8501860  63.8295410  21.8642770  33.2926610
  64.8689760  31.1578080  33.3168750  65.2877870  32.0010810  33.1444990
  63.9498390  31.2950120  33.0875530  67.2053660  28.8894260  34.7006590
  67.3249870  28.2935400  35.4401430  68.0647660  28.9263950  34.2807890
  69.5441560  29.4431450  33.2769100  69.0176780  29.9674070  32.6734240
  69.8872900  30.0758840  33.9078830  61.9427950  26.8324820  19.7218810
  61.7417010  25.9692180  20.0832150  61.7720000  26.7458180  18.7840410
  62.7197180  37.4631090  34.4326480  62.1818270  38.1877150  34.1135180
  62.9731140  36.9861430  33.6423820  63.9722430  25.4315610  35.9582410
  64.5622120  25.1231460  36.6460230  63.1542670  24.9595360  36.1142310
  68.7915860  25.0481420  36.1915430  68.1031380  24.3862960  36.1265420
  69.5121880  24.6019690  36.6363890  69.4216260  21.6433050  22.2505690
  69.7018550  20.8000950  22.6065110  68.6481990  21.8756160  22.7644440
  60.7410750  23.9325440  19.7096690  61.0436650  23.9392870  18.8015840
  61.4805340  23.5823300  20.2064350  65.5759390  38.6982300  34.6913130
  65.5018090  39.6017440  34.9985500  64.6738230  38.3794200  34.6635200
  63.9595680  22.8760060  20.6952890  63.6117680  22.1984050  20.1155340
  64.1608450  22.4149570  21.5096280  66.1244720  37.8640810  22.3139490
  67.0195510  38.2025780  22.3358250  66.1562350  37.1420220  21.6863770
  59.7640880  33.2367860  20.5426490  60.2015750  33.7797530  21.1984070
  60.2488610  32.4114810  20.5522830  56.9786680  36.0256890  27.9946750
  57.3089690  35.1577950  27.7625390  57.4077680  36.2315410  28.8251710
  61.5748600  34.3565900  25.6548720  61.2744140  34.2330870  26.5552630
  61.4686090  33.4974490  25.2464450  57.4676890  36.8927480  30.7328380
  57.0307880  37.0728280  31.5652530  58.0354570  37.6502100  30.5910100
  73.1039070  36.3944480  35.0205690  72.5041060  36.4537040  34.2769610
  73.2332970  35.4549460  35.1502540  74.3440520  34.1362300  20.3575400
  73.5133480  34.2038950  20.8282630  74.5212350  35.0266420  20.0542260
  73.7996980  30.8809780  22.8609600  74.5615890  31.4506430  22.9669290
  73.8151350  30.3136980  23.6317910  57.3001320  29.4047710  27.0917260
  56.6450160  29.1359350  26.4476960  58.1379270  29.2952190  26.6419240
  74.8056950  31.7359880  27.7051530  75.1765780  30.9527200  27.2987500
  75.4458880  32.4248980  27.5268830  71.7890710  33.1196460  33.1181850
  70.9750550  33.5493620  33.3807640  72.1964910  33.7314870  32.5050900
  73.8516150  31.1744150  20.0182120  74.1264990  32.0823030  19.8901340
  73.6626890  31.1106680  20.9544110  70.2491760  24.1989000  21.3135750
  70.6676640  24.0119980  20.4732410  69.9427820  23.3468050  21.6238680
  73.7481490  29.1113140  25.0111550  73.3725090  28.3441070  24.5792840
  73.0184610  29.4935840  25.4986480  58.3377250  29.7900280  31.6320600
  58.7050290  29.7027680  32.5116620  57.7688070  29.0266830  31.5327460
  73.1381110  28.2584660  34.6451070  72.9067200  28.0297410  33.7449020
  73.3985660  29.1784210  34.5995960  57.8893250  26.7009370  35.5379020
  56.9949300  26.6676130  35.8772730  58.4290800  26.8996160  36.3030270
  71.5769180  23.4841090  37.4230770  72.4539360  23.4924490  37.8064770
  71.5890020  22.7471930  36.8123120  56.5139400  26.6146640  23.0342590
  55.6103480  26.8776840  22.8594250  56.9980020  26.8857810  22.2542550
  73.0232450  27.3370630  28.3118790  73.5469930  26.8433280  27.6808960
  73.6091870  27.4720990  29.0566360  73.2022170  27.4210500  31.8338340
  72.2524880  27.3874040  31.9483330  73.3835180  28.3310610  31.5988110
  59.0566610  25.6712180  20.9436970  59.7658310  25.2495400  20.4584250
  58.3406550  25.7387410  20.3120320  58.7040770  21.7251510  19.9839620
  59.4268900  22.2660450  20.3020840  58.9765290  21.4514930  19.1081160
  72.5132420  26.5943980  24.2511200  73.0091540  26.3614850  25.0360080
  72.3148490  25.7555820  23.8348840  58.3932960  20.9757700  29.8862240
  59.0409150  20.4255080  29.4457400  58.8134800  21.2300850  30.7078050
  73.9419580  25.2304930  26.7848880  73.8318860  25.0760970  27.7231150
  74.7027170  24.7025870  26.5424290  72.2885300  21.1699060  33.2431880
  72.9257520  21.7833200  33.6091070  72.4360190  21.2059720  32.2981110
  74.8309850  23.0612850  20.0255020  75.7559160  22.9294030  19.8173310
  74.8085640  23.1405670  20.9791470  74.9048340  23.8323510  22.6511730
  74.1099840  23.7668630  23.1804640  75.1091620  24.7674150  22.6397080
  58.1464960  21.1313370  32.6287560  57.7979780  21.5877190  33.3945740
  57.8152660  20.2370500  32.7109990  59.7529330  34.3032970  36.7940750
  59.7098960  33.9325880  37.6755210  59.8840340  35.2410540  36.9342570
  63.4535360  35.8592560  32.3950470  63.2126720  36.1267120  31.5080990
  64.3938000  36.0298290  32.4501330  65.6589780  22.3225250  36.1506980
  65.5978670  22.9147080  36.9002390  66.5990160  22.2151210  36.0057240
  68.2964340  21.9795310  35.7899270  68.9104750  22.2974600  35.1280350
  68.8413900  21.4943900  36.4095130  74.7139520  37.8786940  33.1961110
  74.2197800  38.2755810  32.4788240  74.1052810  37.2536150  33.5898390
  58.8185600  20.6589570  35.9038330  59.3668590  20.4777620  35.1404440
  58.8840910  19.8683680  36.4394640  59.5917360  37.2495220  33.9138530
  58.9977680  37.1179920  34.6528570  59.5841200  36.4133360  33.4480630
  69.0372380  20.5427450  32.1168560  68.1632220  20.8762560  31.9141490
  68.9283130  20.0700630  32.9420430  69.9444360  22.7498320  33.5010280
  69.6157720  21.9350080  33.1212010  70.8926660  22.7068130  33.3775970
  59.2229590  34.6153600  32.8646570  58.4963650  33.9958890  32.7972520
  59.2838740  35.0094210  31.9944650  62.8274690  36.8298600  29.6495980
  63.3439710  36.2185960  29.1244240  63.4772070  37.3327380  30.1406990
  65.5670190  37.7207090  30.4764960  65.8548000  37.4661390  29.5997970
  66.0793410  37.1684450  31.0670530  66.7847200  21.4597290  31.0561470
  66.0018990  21.9342790  31.3358230  66.4910130  20.5552120  30.9474650
  71.3368270  22.1620390  29.1010560  71.7776360  22.1065490  28.2532160
  71.0675860  23.0778400  29.1720740  73.2006840  21.7935630  27.1119380
  73.1395240  20.8496850  26.9650400  73.9798870  21.9015720  27.6572840
  58.1287610  21.7644770  23.5775190  58.8866970  21.8773650  23.0039220
  57.6664780  22.6013970  23.5318620  64.6701420  23.8784040  26.5677500
  63.8575930  23.5040930  26.2273380  65.1743060  23.1229120  26.8698690
  69.1726400  20.5426490  27.8060570  69.7755770  21.1146700  28.2809090
  68.4319390  21.1065930  27.5834470  72.3161000  20.9448050  23.0800850
  72.5111630  21.8431500  23.3468280  71.5290870  20.7135130  23.5733800
  59.1122290  36.6261220  23.5193470  58.5869910  37.0069250  22.8155430
  59.0366870  37.2511990  24.2403180  60.5012760  22.2908820  22.1177160
  61.0305520  21.5038620  21.9885110  61.1341080  22.9700010  22.3512690
  62.6950600  22.0283960  25.1722550  62.0653340  21.3271270  25.3392680
  62.1555740  22.7888090  24.9555710  65.6342550  38.6423190  37.8433160
  66.5609860  38.4067460  37.8869120  65.6192980  39.4695190  37.3619190
  62.8206160  21.3067940  37.6075040  62.5390430  21.8101540  36.8435860
  63.2025860  20.5089690  37.2417170  61.7115260  38.5743600  22.3942720
  62.4434080  38.2902880  21.8466610  61.9708930  38.3356880  23.2842100
  60.8730050  34.6908330  22.3989050  60.2438930  35.1593430  22.9474880
  60.9877880  33.8457550  22.8335240  69.4221620  20.7221520  38.1855510
  69.3087070  21.0416130  39.0807030  70.2391360  21.1234030  37.8892790
  68.3279770  28.7413990   8.5490250  68.2473820  27.8268600   8.2781960
  67.9144190  29.2381060   7.8429960  66.4597810  30.5193010  10.4299520
  65.6839910  30.0393450  10.7198090  67.1110740  29.8398660  10.2555680
  60.4763640  30.8312820  11.3075280  59.6448520  30.5761530  11.7071790
  61.0844620  30.9023590  12.0433200  70.4805240  34.9253200   9.2098650
  70.0186770  34.1540440   9.5385820  71.2930790  34.9519270   9.7151100
  60.4564900  34.8652910  11.5033300  60.7592940  33.9750650  11.3243520
  61.2008490  35.4223130  11.2755550  58.8855590  25.7914710   5.0917670
  57.9972290  26.1330680   4.9897550  59.1696780  25.5915030   4.1998500
  56.8488600  28.3920360  10.9757370  57.4204710  27.6242560  10.9761010
  56.8490140  28.6909120  10.0663980  66.7068550  37.2111210   8.8302640
  66.0879990  37.6668710   8.2597080  67.5620330  37.3662670   8.4292340
  65.9006800  33.1950200  10.4369680  65.8315080  32.2540140  10.2758810
  66.6626660  33.2851610  11.0092250  58.0913470  23.8004720  12.7626300
  57.9116310  22.9030470  13.0429060  57.6893550  24.3476590  13.4373250
  66.9311970  26.0020580  10.6638610  67.3076790  25.1292460  10.5512280
  66.8331480  26.3379280   9.7729050  61.0616980  24.3746210   6.1256050
  61.1683730  25.2749940   6.4324810  60.1509340  24.3264180   5.8350700
  70.7136090  23.4971020   7.5966950  71.5345710  23.0067590   7.6392430
  70.7470170  24.0868680   8.3498790  58.7100140  26.2965220  11.3708640
  59.3910250  26.5603590  11.9896040  58.3948190  25.4566090  11.7046650
  62.9024710  27.3432580  10.4581230  63.4102930  27.8413550  11.0986250
  63.4337950  26.5667780  10.2820590  75.0035640  25.5137770  14.1610580
  74.2987810  25.9019480  13.6425690  75.2693560  26.2088060  14.7631510
  61.1860810  21.9831140  14.7244650  61.1879250  22.5003530  13.9190550
  60.3565120  21.5061320  14.7014580  67.5731900  32.0950450   6.2234550
  66.9549170  32.5599900   5.6597270  68.0855150  32.7877930   6.6404060
  62.4363660  31.6226320  12.9018150  62.1033040  32.2495240  13.5439220
  62.6130340  32.1488200  12.1219820  70.9497570  25.4371400  10.3694490
  70.2453140  25.7256290  10.9497600  71.3109730  26.2471510  10.0094050
  60.8676140  23.6941100  12.7315100  61.2092950  24.5383150  12.4368970
  59.9291950  23.8424840  12.8480440  61.6482760  33.5907120  14.7167330
  62.2656760  34.2658200  14.4351780  60.7875880  33.9995100  14.6254830
  56.9415100  32.7806980   3.5974180  56.5643080  33.2694080   2.8659080
  57.1988170  33.4532260   4.2280710  72.5660350  35.0546530  12.6321970
  71.8823870  35.7245640  12.6238640  73.1054640  35.2527180  11.8666830
  74.0184490  24.8826190  10.7603700  73.0709400  24.9165170  10.8919130
  74.3434480  25.6965140  11.1453060  64.5504030  21.1823370   9.0559690
  64.8579010  20.6270260   8.3395190  63.6204730  21.3167830   8.8732680
  70.1019090  36.8990660  11.3467150  70.1146250  36.4952950  10.4789410
  69.5494310  37.6737950  11.2428580  71.3964510  33.6206880   6.4357320
  71.2860840  32.6781210   6.5606740  71.3932760  33.9822520   7.3220080
  69.5004530  31.8020500  12.6749760  69.9173320  31.5880610  11.8403220
  70.2244350  32.0593290  13.2458380  66.9384790  29.2472200   5.7919810
  66.0114070  29.1809580   6.0208280  67.0909610  30.1852330   5.6775050
  66.9253870  25.5189200   2.7886970  65.9857540  25.6803160   2.8739430
  67.2437130  26.2374880   2.2422960  73.4466630  30.2007720  12.7666000
  72.6185260  30.2700810  12.2916130  74.0417110  30.7862030  12.2981830
  70.9682080  30.8092500   6.2955060  70.3494500  30.4712050   5.6481360
  70.9506530  30.1652260   7.0034250  70.4108640  26.9877040  13.7120870
  69.9979820  27.8130750  13.9660860  69.6784590  26.4022080  13.5197230
  62.5441430  29.7736940   8.5739540  62.1398430  29.0614190   8.0785440
  62.6304550  29.4290180   9.4627580  63.0123130  33.4604500  10.7378750
  62.7151420  32.8549970  10.0586530  63.9622950  33.4981810  10.6268110
  61.2570050  26.5480150  12.3538580  61.8084640  26.6575490  11.5791830
  61.7713560  26.9217750  13.0693810  71.1008740  37.0336370  14.4001850
  70.6239300  37.8408560  14.2074460  70.4170530  36.3814700  14.5528060
  62.1041560  33.1986190  17.3886550  61.2070090  33.4226160  17.6359950
  62.1294430  33.3221130  16.4397950  69.1446780  30.0479310   3.3027810
  69.5840060  29.2101740   3.1565630  69.8575200  30.6808710   3.3891950
  60.9312780  30.0699510  15.9643920  60.7920550  30.9422310  16.3331320
  60.0494140  29.7272320  15.8191860  67.2542160  34.9875380   7.2709050
  67.6938070  35.7299710   6.8564440  67.1929050  35.2301950   8.1948010
  62.7293130  36.0121210  18.1729070  62.7008560  36.4164160  17.3057500
  62.5658100  35.0831570  18.0100670  59.2446060  28.6681920   6.0746190
  59.1243660  29.3944010   5.4627460  58.9346950  27.8984830   5.5974100
  74.6807950  36.7948310  19.4693240  75.1567670  37.2731200  20.1482320
  75.3015110  36.7265800  18.7438740  56.8831430  31.8397060  11.8814830
  56.9611850  31.9745830  10.9370550  57.4973110  31.1312950  12.0742950
  58.1279060  33.5397250   8.2921010  57.7207140  33.6811840   7.4374610
  59.0192070  33.2557410   8.0892220  74.0841200  33.9861160  16.6293250
  74.2104260  33.7473040  15.7110430  74.1262580  33.1545700  17.1015330
  67.9457940  37.6889160  15.1988060  68.4602610  37.5997170  16.0010490
  67.1027020  38.0348860  15.4915970  69.9212340  37.9744500   4.6272060
  69.7613480  37.6847440   5.5253890  69.7559050  37.1984630   4.0917290
  62.4000720  37.7543030   6.4043680  62.2243200  36.8378570   6.1911480
  61.5456460  38.1130320   6.6441480  69.6238470  35.4832060   3.1870060
  68.9303630  35.4809350   2.5272340  70.3661330  35.0591380   2.7564230
  69.1888400  37.1094770   7.2618550  69.6445350  36.3284150   7.5757170
  69.5280920  37.8201590   7.8059730  73.9365210  26.0393620  17.5942990
  73.3209480  26.5473290  17.0658450  73.6161630  25.1391950  17.5368930
  56.9390950  32.8811230  14.4209290  57.1021990  32.4116590  13.6028660
  57.4043400  32.3734790  15.0858130  61.7109720  22.0116990   9.4569860
  61.2677870  22.7926530   9.1254380  62.2694710  22.3346880  10.1640800
  65.9979530  24.8785510  15.0605180  65.5358900  25.0868530  15.8725120
  65.5957640  24.0644860  14.7575850  70.9984040  26.0994460  16.1901840
  70.1477630  25.8000210  16.5110910  70.8385830  26.3436470  15.2785660
  68.0933750  27.5996210  18.2900630  68.4187160  26.7659960  17.9502860
  68.8814080  28.1224730  18.4378960  64.8268540  21.6327690   4.3375690
  64.2022720  21.6287560   5.0629000  64.7398660  20.7658650   3.9411660
  63.7485620  22.5564320  11.3159460  64.0457950  23.4627150  11.2351480
  64.2971180  22.0683100  10.7019030  61.5023940  27.1350560   7.1851110
  61.2764860  26.9187730   8.0897730  60.7216470  27.5679020   6.8397080
  68.7321700  27.1413930   5.7841760  68.1330590  27.8649730   5.6005380
  69.2801310  27.0790710   5.0018210  63.9423150  28.0336140  17.8511380
  63.8466750  27.0930870  17.7011780  64.7855130  28.2551210  17.4559450
  67.3386570  25.7777470   7.8145040  67.7316140  26.0949670   7.0013730
  67.7003420  24.8989350   7.9289560  59.0733690  24.4449810  16.0045160
  58.6797080  25.2925020  16.2117940  58.3852090  23.8076180  16.1953800
  65.6478740  24.5284780  19.0741900  64.9577060  24.3356980  19.7087990
  66.3911040  24.8119420  19.6066200  56.3750740  22.3678270  10.0375240
  56.0863790  22.9381130  10.7500220  57.1196500  21.8882720  10.4006470
  67.9241710  28.3683220  11.9095820  67.1922830  28.8770030  12.2585920
  67.5266050  27.5513200  11.6084600  64.3619100  25.0437420  10.3148310
  64.3655160  24.6027370   9.4652850  65.2570220  25.3654750  10.4220130
  60.2121480  24.9263910   9.2742520  59.8721530  25.4039140  10.0309570
  59.4498800  24.4729030   8.9143620  64.4239250  26.0449500   3.3055070
  64.5452070  26.0035980   4.2540890  64.0387760  26.9073650   3.1501800
  68.3867620  23.8216900  11.3218760  68.4040360  24.2725550  12.1660610
  68.1383200  22.9222540  11.5352200  63.4360750  28.3550640   2.7038370
  62.8677650  27.9068890   2.0774280  64.1449750  28.7143420   2.1703520
  71.8138370  21.2349080  17.1605140  72.1384140  20.5038740  17.6863120
  71.8494880  20.9162720  16.2586130  58.5129930  32.2562660  16.5805100
  58.1284720  31.6156330  17.1788060  58.8242120  32.9598780  17.1499830
  64.6627070  29.1039200  12.0613720  65.0297200  28.6297770  12.8075060
  64.4732130  29.9780770  12.4022060  57.5267560  23.8482890   8.1907190
  57.2414480  23.4838560   9.0285810  57.4646420  23.1163350   7.5770330
  62.4526440  28.1447840  14.3797930  62.1483510  29.0239820  14.6048290
  63.4072900  28.2047630  14.4155370  60.9808230  32.3508830   4.9764780
  60.2070490  31.8106450   4.8163500  61.7102860  31.8315440   4.6382540
  71.7396210  31.3474190  10.7691170  72.4595330  31.8429480  10.3787280
  71.5378030  30.6692080  10.1245040  67.2006150  22.7412150   4.9120560
  66.3870760  22.2425320   4.8365870  67.0068100  23.5810400   4.4956910
  67.1215010  31.4183250  16.6560170  67.0552320  30.4978920  16.4017760
  66.4920150  31.5158690  17.3704810  69.9154540  27.1131800   3.2082720
  70.8034160  27.4249030   3.0334060  69.8859630  26.2404050   2.8163300
  61.0245630  32.0189210   8.6143590  61.5424300  31.2157470   8.5600480
  60.5729650  31.9568350   9.4560420  65.9115130  33.2855490   3.8870890
  66.2530830  34.0297720   3.3914210  65.0827840  33.5986610   4.2495720
  58.5090170  28.9850580  15.5269290  58.1505110  29.6504430  16.1142630
  58.2144730  28.1534130  15.8981910  61.7103290  29.4434820  18.4108840
  61.4103430  29.5892000  17.5136660  62.4814530  28.8840110  18.3182230
  67.0531740  34.2403820  16.4063970  67.0676280  33.3084780  16.1882880
  66.3456840  34.3263580  17.0453740  72.1868810  28.4243640   2.6762580
  72.1032530  28.8557860   1.8259020  72.9063000  28.8841990   3.1089400
  73.2642950  30.8811160  15.7532550  72.5391140  31.4739940  15.5561940
  73.7918410  30.8734700  14.9545920  73.2156060  35.2785900   5.4044710
  72.5732220  34.6241520   5.6788430  72.8286720  35.6840990   4.6285380
  68.7942540  32.6071330   9.2516400  69.1466360  32.0099460   8.5917770
  67.9104870  32.2815560   9.4224650  64.8805820  33.3669020   6.6586810
  65.5676950  33.9138230   7.0394400  64.0938240  33.9109750   6.6936420
  57.0198220  28.9841840   2.1503890  57.8893070  29.2666640   2.4339810
  56.5288540  29.7977710   2.0352700  64.1833030  30.3715050   6.2712170
  64.6395810  31.1820300   6.4972360  63.8321240  30.0538190   7.1030660
  66.4865640  35.8821390  13.5004470  67.1307860  36.0880770  14.1777890
  66.8495080  35.1209790  13.0475320  60.0844810  20.7152700   6.7434690
  59.9559440  20.7070600   7.6919610  59.2606830  21.0535790   6.3925700
  67.7597720  33.8853740  12.2181920  68.4019950  33.1846900  12.3314090
  68.2847070  34.6652180  12.0378810  69.5335340  34.6848640  15.4217980
  69.8691580  35.2715330  16.0995900  68.6135680  34.5541350  15.6515770
  57.3869470  38.1969220   2.7165520  57.7467110  38.7958560   2.0622790
  57.2461810  38.7429110   3.4900550  57.0838740  22.4743820  16.2041390
  56.3697260  22.6740740  16.8094000  57.5033780  21.6983390  16.5756190
  71.1869690  32.0874300   3.6035220  70.8991390  32.5486990   4.3913100
  71.9821860  31.6272070   3.8719440  57.3711330  36.4624080  17.1907920
  57.4802450  35.5218820  17.0503310  56.7191890  36.7278830  16.5421650
  65.3623920  34.7339970  18.5906040  65.0420790  34.0149210  19.1351730
  64.6882280  35.4095040  18.6642100  63.4038090  35.5800420   3.5339190
  63.3948190  36.3130110   2.9183700  62.4836450  35.3332000   3.6266150
  59.0044730  30.8015310   4.2785950  58.3972680  31.5414210   4.2881250
  59.4794080  30.8914670   3.4524150  68.5777520  24.9666130  13.9542840
  68.9458340  24.1461340  14.2822410  67.7175720  25.0268020  14.3698490
  71.9439550  23.9223070   4.7630400  71.3152710  24.0268740   4.0488630
  71.4491470  24.1419850   5.5524280  63.9123580  26.2009020   6.1788280
  63.2039730  26.6695360   6.6201890  64.1968060  25.5431030   6.8133470
  65.5379510  27.6205720  14.1780810  66.0364760  28.0951540  14.8432660
  65.6802460  26.6969240  14.3850840  67.9439010  22.9259680   7.6184070
  67.8206790  22.9445810   6.6693580  68.8923570  22.9738620   7.7382470
  65.0315800  38.1614980   6.8912050  65.2857300  38.1236370   5.9691420
  64.0828280  38.0348310   6.8840300  62.1158600  24.5094100   3.5538990
  62.9649130  24.9464250   3.4879180  61.7489870  24.8214360   4.3811050
  72.7446370  23.8373680  15.0209200  72.2419970  24.5779080  15.3603010
  73.5603030  24.2257680  14.7045990  71.0368380  29.0806860   8.4670560
  70.0958520  29.0957090   8.6418250  71.3512450  28.2942820   8.9130860
  59.7096780  28.1951530   2.7107410  59.7900370  27.2479040   2.8224810
  60.6016530  28.5258410   2.8168070  73.0393960  36.2515710  10.1424820
  73.1641380  37.0746880  10.6148630  73.9059520  36.0406440   9.7948970
  60.5111490  38.3446920   9.8141950  61.2473970  37.7962380  10.0850520
  60.8952410  39.2102930   9.6747940  57.3956970  34.4120490   5.6883460
  56.4696750  34.6541630   5.6788870  57.8613400  35.2394750   5.5668210
  59.5169770  37.5292990  19.0027530  60.3182500  37.8505040  19.4162930
  59.0021590  37.1688570  19.7247440  68.3534400  33.6372860  18.9502940
  67.7472560  33.6604460  18.2098690  68.0488510  32.9055900  19.4870190
  69.7834770  37.3653150  17.5612350  70.7356520  37.2811170  17.5112590
  69.6362990  38.0294860  18.2346140  72.6743970  36.7447360   3.0604260
  72.3885480  36.3312500   2.2458440  72.4763520  37.6735070   2.9404780
  57.2367580  30.0166450  17.9463580  57.7406600  29.4373730  18.5179810
  56.4975000  30.3006680  18.4839950  64.2905520  31.4237440  17.4799100
  63.5251190  31.9922440  17.3953770  64.4721480  31.1313650  16.5867330
  67.3793930  31.8000670   2.1051860  66.8304030  32.2469970   2.7494600
  68.0013190  31.2949920   2.6289530  71.4328870  33.1542770  18.0374120
  72.1738340  33.4918530  17.5341580  70.6701550  33.3234830  17.4843890
  59.2690660  28.1596040  18.8413650  59.3096000  27.8609910  19.7498880
  60.1236160  28.5603650  18.6821170  63.0469050  30.7591590   4.0017160
  63.4685470  30.5931460   4.8448550  63.1719890  29.9491820   3.5072300
  61.2096470  26.7388140  16.8088140  60.6792930  26.2479090  16.1811480
  61.8784540  27.1672340  16.2746070  70.1074530  31.2057600  16.5729330
  70.5215550  31.3602680  17.4219750  69.1725530  31.3312820  16.7355110
  70.5796700  28.5453760  18.5768480  71.1617470  27.7906080  18.4888960
  70.7558470  29.0761200  17.7999960  61.6968770  23.7050510  16.8885430
  61.6025640  23.0871260  16.1636300  61.1166160  24.4316800  16.6615340
  64.4630210  22.2623750  13.9212820  64.0147510  22.2848010  13.0758370
  63.8295410  21.8642770  14.5183120  64.8689760  31.1578080  14.5425260
  65.2877870  32.0010810  14.3701500  63.9498390  31.2950120  14.3132040
  67.2053660  28.8894260  15.9263100  67.3249870  28.2935400  16.6657940
  68.0647660  28.9263950  15.5064400  69.5441560  29.4431450  14.5025610
  69.0176780  29.9674070  13.8990750  69.8872900  30.0758840  15.1335340
  62.7197180  37.4631090  15.6582990  62.1818270  38.1877150  15.3391690
  62.9731140  36.9861430  14.8680330  63.9722430  25.4315610  17.1838920
  64.5622120  25.1231460  17.8716740  63.1542670  24.9595360  17.3398820
  68.7915860  25.0481420  17.4171940  68.1031380  24.3862960  17.3521930
  69.5121880  24.6019690  17.8620400  69.4216260  21.6433050   3.4762200
  69.7018550  20.8000950   3.8321620  68.6481990  21.8756160   3.9900950
  65.5759390  38.6982300  15.9169640  65.5018090  39.6017440  16.2242010
  64.6738230  38.3794200  15.8891710  66.1244720  37.8640810   3.5396000
  67.0195510  38.2025780   3.5614760  66.1562350  37.1420220   2.9120280
  59.7640880  33.2367860   1.7683000  60.2015750  33.7797530   2.4240580
  60.2488610  32.4114810   1.7779340  56.9786680  36.0256890   9.2203260
  57.3089690  35.1577950   8.9881900  57.4077680  36.2315410  10.0508220
  61.5748600  34.3565900   6.8805230  61.2744140  34.2330870   7.7809140
  61.4686090  33.4974490   6.4720960  57.4676890  36.8927480  11.9584890
  57.0307880  37.0728280  12.7909040  58.0354570  37.6502100  11.8166610
  73.1039070  36.3944480  16.2462200  72.5041060  36.4537040  15.5026120
  73.2332970  35.4549460  16.3759050  73.7996980  30.8809780   4.0866110
  74.5615890  31.4506430   4.1925800  73.8151350  30.3136980   4.8574420
  57.3001320  29.4047710   8.3173770  56.6450160  29.1359350   7.6733470
  58.1379270  29.2952190   7.8675750  74.8056950  31.7359880   8.9308040
  75.1765780  30.9527200   8.5244010  75.4458880  32.4248980   8.7525340
  71.7890710  33.1196460  14.3438360  70.9750550  33.5493620  14.6064150
  72.1964910  33.7314870  13.7307410  70.2491760  24.1989000   2.5392260
  70.6676640  24.0119980   1.6988920  69.9427820  23.3468050   2.8495190
  73.7481490  29.1113140   6.2368060  73.3725090  28.3441070   5.8049350
  73.0184610  29.4935840   6.7242990  58.3377250  29.7900280  12.8577110
  58.7050290  29.7027680  13.7373130  57.7688070  29.0266830  12.7583970
  73.1381110  28.2584660  15.8707580  72.9067200  28.0297410  14.9705530
  73.3985660  29.1784210  15.8252470  57.8893250  26.7009370  16.7635530
  56.9949300  26.6676130  17.1029240  58.4290800  26.8996160  17.5286780
  71.5769180  23.4841090  18.6487280  72.4539360  23.4924490  19.0321280
  71.5890020  22.7471930  18.0379630  56.5139400  26.6146640   4.2599100
  55.6103480  26.8776840   4.0850760  56.9980020  26.8857810   3.4799060
  73.0232450  27.3370630   9.5375300  73.5469930  26.8433280   8.9065470
  73.6091870  27.4720990  10.2822870  73.2022170  27.4210500  13.0594850
  72.2524880  27.3874040  13.1739840  73.3835180  28.3310610  12.8244620
  72.5132420  26.5943980   5.4767710  73.0091540  26.3614850   6.2616590
  72.3148490  25.7555820   5.0605350  58.3932960  20.9757700  11.1118750
  59.0409150  20.4255080  10.6713910  58.8134800  21.2300850  11.9334560
  73.9419580  25.2304930   8.0105390  73.8318860  25.0760970   8.9487660
  74.7027170  24.7025870   7.7680800  72.2885300  21.1699060  14.4688390
  72.9257520  21.7833200  14.8347580  72.4360190  21.2059720  13.5237620
  74.9048340  23.8323510   3.8768240  74.1099840  23.7668630   4.4061150
  75.1091620  24.7674150   3.8653590  71.8466760  37.8715060   7.8706630
  72.4425830  37.5499630   7.1941050  72.1044910  37.3986880   8.6619900
  58.1464960  21.1313370  13.8544070  57.7979780  21.5877190  14.6202250
  57.8152660  20.2370500  13.9366500  59.7529330  34.3032970  18.0197260
  59.7098960  33.9325880  18.9011720  59.8840340  35.2410540  18.1599080
  63.4535360  35.8592560  13.6206980  63.2126720  36.1267120  12.7337500
  64.3938000  36.0298290  13.6757840  65.6589780  22.3225250  17.3763490
  65.5978670  22.9147080  18.1258900  66.5990160  22.2151210  17.2313750
  68.2964340  21.9795310  17.0155780  68.9104750  22.2974600  16.3536860
  68.8413900  21.4943900  17.6351640  74.7139520  37.8786940  14.4217620
  74.2197800  38.2755810  13.7044750  74.1052810  37.2536150  14.8154900
  58.8185600  20.6589570  17.1294840  59.3668590  20.4777620  16.3660950
  58.8840910  19.8683680  17.6651150  59.5917360  37.2495220  15.1395040
  58.9977680  37.1179920  15.8785080  59.5841200  36.4133360  14.6737140
  69.0372380  20.5427450  13.3425070  68.1632220  20.8762560  13.1398000
  68.9283130  20.0700630  14.1676940  69.9444360  22.7498320  14.7266790
  69.6157720  21.9350080  14.3468520  70.8926660  22.7068130  14.6032480
  72.3978970  38.5210360  11.7004360  71.9381940  39.2726170  11.3262380
  71.7691430  37.8016830  11.6419160  59.2229590  34.6153600  14.0903080
  58.4963650  33.9958890  14.0229030  59.2838740  35.0094210  13.2201160
  62.8274690  36.8298600  10.8752490  63.3439710  36.2185960  10.3500750
  63.4772070  37.3327380  11.3663500  65.5670190  37.7207090  11.7021470
  65.8548000  37.4661390  10.8254480  66.0793410  37.1684450  12.2927040
  66.7847200  21.4597290  12.2817980  66.0018990  21.9342790  12.5614740
  66.4910130  20.5552120  12.1731160  71.3368270  22.1620390  10.3267070
  71.7776360  22.1065490   9.4788670  71.0675860  23.0778400  10.3977250
  73.2006840  21.7935630   8.3375890  73.1395240  20.8496850   8.1906910
  73.9798870  21.9015720   8.8829350  57.5059590  37.9327990   7.2999840
  57.3381630  37.2998670   7.9981730  56.6394100  38.1387390   6.9494030
  58.1287610  21.7644770   4.8031700  58.8866970  21.8773650   4.2295730
  57.6664780  22.6013970   4.7575130  64.6701420  23.8784040   7.7934010
  63.8575930  23.5040930   7.4529890  65.1743060  23.1229120   8.0955200
  69.1726400  20.5426490   9.0317080  69.7755770  21.1146700   9.5065600
  68.4319390  21.1065930   8.8090980  72.3161000  20.9448050   4.3057360
  72.5111630  21.8431500   4.5724790  71.5290870  20.7135130   4.7990310
  59.1122290  36.6261220   4.7449980  58.5869910  37.0069250   4.0411940
  59.0366870  37.2511990   5.4659690  60.5012760  22.2908820   3.3433670
  61.0305520  21.5038620   3.2141620  61.1341080  22.9700010   3.5769200
  62.6950600  22.0283960   6.3979060  62.0653340  21.3271270   6.5649190
  62.1555740  22.7888090   6.1812220  65.6342550  38.6423190  19.0689670
  66.5609860  38.4067460  19.1125630  65.6192980  39.4695190  18.5875700
  73.8687610  38.1848760   6.0663920  74.0439800  37.4986500   5.4224840
  73.1709180  38.7095810   5.6740590  62.8206160  21.3067940  18.8331550
  62.5390430  21.8101540  18.0692370  63.2025860  20.5089690  18.4673680
  61.7115260  38.5743600   3.6199230  62.4434080  38.2902880   3.0723120
  61.9708930  38.3356880   4.5098610  60.8730050  34.6908330   3.6245560
  60.2438930  35.1593430   4.1731390  60.9877880  33.8457550   4.0591750
  69.4221620  20.7221520  19.4112020  69.3087070  21.0416130  20.3063540
  70.2391360  21.1234030  19.1149300  72.2020110  37.8693050  18.8930710
  72.9945430  37.3742280  18.6856670  72.4953260  38.5483190  19.5006320
  68.3279770   9.9670500 139.9694680  68.2473820   9.0525110 139.6986390
  67.9144190  10.4637570 139.2634390  66.4597810  11.7449520 141.8503950
  65.6839910  11.2649960 142.1402520  67.1110740  11.0655170 141.6760110
  60.4763640  12.0569330 142.7279710  59.6448520  11.8018040 143.1276220
  61.0844620  12.1280100 143.4637630  70.4805240  16.1509710 140.6303080
  70.0186770  15.3796950 140.9590250  71.2930790  16.1775780 141.1355530
  60.4564900  16.0909420 142.9237730  60.7592940  15.2007160 142.7447950
  61.2008490  16.6479640 142.6959980  58.8855590   7.0171220 136.5122100
  57.9972290   7.3587190 136.4101980  59.1696780   6.8171540 135.6202930
  56.8488600   9.6176870 142.3961800  57.4204710   8.8499070 142.3965440
  56.8490140   9.9165630 141.4868410  66.7068550  18.4367720 140.2507070
  66.0879990  18.8925220 139.6801510  67.5620330  18.5919180 139.8496770
  65.9006800  14.4206710 141.8574110  65.8315080  13.4796650 141.6963240
  66.6626660  14.5108120 142.4296680  58.0913470   5.0261230 144.1830730
  57.9116310   4.1286980 144.4633490  57.6893550   5.5733100 144.8577680
  66.9311970   7.2277090 142.0843040  67.3076790   6.3548970 141.9716710
  66.8331480   7.5635790 141.1933480  61.0616980   5.6002720 137.5460480
  61.1683730   6.5006450 137.8529240  60.1509340   5.5520690 137.2555130
  70.7136090   4.7227530 139.0171380  71.5345710   4.2324100 139.0596860
  70.7470170   5.3125190 139.7703220  58.7100140   7.5221730 142.7913070
  59.3910250   7.7860100 143.4100470  58.3948190   6.6822600 143.1251080
  62.9024710   8.5689090 141.8785660  63.4102930   9.0670060 142.5190680
  63.4337950   7.7924290 141.7025020  75.0035640   6.7394280 145.5815010
  74.2987810   7.1275990 145.0630120  75.2693560   7.4344570 146.1835940
  61.1860810   3.2087650 146.1449080  61.1879250   3.7260040 145.3394980
  60.3565120   2.7317830 146.1219010  67.5731900  13.3206960 137.6438980
  66.9549170  13.7856410 137.0801700  68.0855150  14.0134440 138.0608490
  62.4363660  12.8482830 144.3222580  62.1033040  13.4751750 144.9643650
  62.6130340  13.3744710 143.5424250  70.9497570   6.6627910 141.7898920
  70.2453140   6.9512800 142.3702030  71.3109730   7.4728020 141.4298480
  60.8676140   4.9197610 144.1519530  61.2092950   5.7639660 143.8573400
  59.9291950   5.0681350 144.2684870  61.6482760  14.8163630 146.1371760
  62.2656760  15.4914710 145.8556210  60.7875880  15.2251610 146.0459260
  56.9415100  14.0063490 135.0178610  56.5643080  14.4950590 134.2863510
  57.1988170  14.6788770 135.6485140  72.5660350  16.2803040 144.0526400
  71.8823870  16.9502150 144.0443070  73.1054640  16.4783690 143.2871260
  74.0184490   6.1082700 142.1808130  73.0709400   6.1421680 142.3123560
  74.3434480   6.9221650 142.5657490  64.5504030   2.4079880 140.4764120
  64.8579010   1.8526770 139.7599620  63.6204730   2.5424340 140.2937110
  70.1019090  18.1247170 142.7671580  70.1146250  17.7209460 141.8993840
  69.5494310  18.8994460 142.6633010  71.3964510  14.8463390 137.8561750
  71.2860840  13.9037720 137.9811170  71.3932760  15.2079030 138.7424510
  69.5004530  13.0277010 144.0954190  69.9173320  12.8137120 143.2607650
  70.2244350  13.2849800 144.6662810  66.9384790  10.4728710 137.2124240
  66.0114070  10.4066090 137.4412710  67.0909610  11.4108840 137.0979480
  66.9253870   6.7445710 134.2091400  65.9857540   6.9059670 134.2943860
  67.2437130   7.4631390 133.6627390  73.4466630  11.4264230 144.1870430
  72.6185260  11.4957320 143.7120560  74.0417110  12.0118540 143.7186260
  70.9682080  12.0349010 137.7159490  70.3494500  11.6968560 137.0685790
  70.9506530  11.3908770 138.4238680  70.4108640   8.2133550 145.1325300
  69.9979820   9.0387260 145.3865290  69.6784590   7.6278590 144.9401660
  62.5441430  10.9993450 139.9943970  62.1398430  10.2870700 139.4989870
  62.6304550  10.6546690 140.8832010  63.0123130  14.6861010 142.1583180
  62.7151420  14.0806480 141.4790960  63.9622950  14.7238320 142.0472540
  61.2570050   7.7736660 143.7743010  61.8084640   7.8832000 142.9996260
  61.7713560   8.1474260 144.4898240  71.1008740  18.2592880 145.8206280
  70.6239300  19.0665070 145.6278890  70.4170530  17.6071210 145.9732490
  62.1041560  14.4242700 148.8090980  61.2070090  14.6482670 149.0564380
  62.1294430  14.5477640 147.8602380  69.1446780  11.2735820 134.7232240
  69.5840060  10.4358250 134.5770060  69.8575200  11.9065220 134.8096380
  60.9312780  11.2956020 147.3848350  60.7920550  12.1678820 147.7535750
  60.0494140  10.9528830 147.2396290  67.2542160  16.2131890 138.6913480
  67.6938070  16.9556220 138.2768870  67.1929050  16.4558460 139.6152440
  62.7293130  17.2377720 149.5933500  62.7008560  17.6420670 148.7261930
  62.5658100  16.3088080 149.4305100  72.7263920   2.5278630 133.0373280
  72.4136580   2.6205460 133.9372350  73.4876390   3.1059660 132.9870710
  59.2446060   9.8938430 137.4950620  59.1243660  10.6200520 136.8831890
  58.9346950   9.1241340 137.0178530  56.8831430  13.0653570 143.3019260
  56.9611850  13.2002340 142.3574980  57.4973110  12.3569460 143.4947380
  58.1279060  14.7653760 139.7125440  57.7207140  14.9068350 138.8579040
  59.0192070  14.4813920 139.5096650  74.0841200  15.2117670 148.0497680
  74.2104260  14.9729550 147.1314860  74.1262580  14.3802210 148.5219760
  67.9457940  18.9145670 146.6192490  68.4602610  18.8253680 147.4214920
  67.1027020  19.2605370 146.9120400  69.9212340  19.2001010 136.0476490
  69.7613480  18.9103950 136.9458320  69.7559050  18.4241140 135.5121720
  62.4000720  18.9799540 137.8248110  62.2243200  18.0635080 137.6115910
  61.5456460  19.3386830 138.0645910  69.6238470  16.7088570 134.6074490
  68.9303630  16.7065860 133.9476770  70.3661330  16.2847890 134.1768660
  69.1888400  18.3351280 138.6822980  69.6445350  17.5540660 138.9961600
  69.5280920  19.0458100 139.2264160  73.9365210   7.2650130 149.0147420
  73.3209480   7.7729800 148.4862880  73.6161630   6.3648460 148.9573360
  56.9390950  14.1067740 145.8413720  57.1021990  13.6373100 145.0233090
  57.4043400  13.5991300 146.5062560  61.7109720   3.2373500 140.8774290
  61.2677870   4.0183040 140.5458810  62.2694710   3.5603390 141.5845230
  65.9979530   6.1042020 146.4809610  65.5358900   6.3125040 147.2929550
  65.5957640   5.2901370 146.1780280  70.9984040   7.3250970 147.6106270
  70.1477630   7.0256720 147.9315340  70.8385830   7.5692980 146.6990090
  68.0933750   8.8252720 149.7105060  68.4187160   7.9916470 149.3707290
  68.8814080   9.3481240 149.8583390  64.8268540   2.8584200 135.7580120
  64.2022720   2.8544070 136.4833430  64.7398660   1.9915160 135.3616090
  63.7485620   3.7820830 142.7363890  64.0457950   4.6883660 142.6555910
  64.2971180   3.2939610 142.1223460  61.5023940   8.3607070 138.6055540
  61.2764860   8.1444240 139.5102160  60.7216470   8.7935530 138.2601510
  68.7321700   8.3670440 137.2046190  68.1330590   9.0906240 137.0209810
  69.2801310   8.3047220 136.4222640  63.9423150   9.2592650 149.2715810
  63.8466750   8.3187380 149.1216210  64.7855130   9.4807720 148.8763880
  67.3386570   7.0033980 139.2349470  67.7316140   7.3206180 138.4218160
  67.7003420   6.1245860 139.3493990  59.0733690   5.6706320 147.4249590
  58.6797080   6.5181530 147.6322370  58.3852090   5.0332690 147.6158230
  56.3750740   3.5934780 141.4579670  56.0863790   4.1637640 142.1704650
  57.1196500   3.1139230 141.8210900  56.5620970   7.5354900 132.6682390
  56.4795640   8.4785660 132.8097380  56.2104030   7.3929810 131.7894740
  67.9241710   9.5939730 143.3300250  67.1922830  10.1026540 143.6790350
  67.5266050   8.7769710 143.0289030  64.3619100   6.2693930 141.7352740
  64.3655160   5.8283880 140.8857280  65.2570220   6.5911260 141.8424560
  60.2121480   6.1520420 140.6946950  59.8721530   6.6295650 141.4514000
  59.4498800   5.6985540 140.3348050  64.4239250   7.2706010 134.7259500
  64.5452070   7.2292490 135.6745320  64.0387760   8.1330160 134.5706230
  68.3867620   5.0473410 142.7423190  68.4040360   5.4982060 143.5865040
  68.1383200   4.1479050 142.9556630  63.4360750   9.5807150 134.1242800
  62.8677650   9.1325400 133.4978710  64.1449750   9.9399930 133.5907950
  71.8138370   2.4605590 148.5809570  72.1384140   1.7295250 149.1067550
  71.8494880   2.1419230 147.6790560  58.5129930  13.4819170 148.0009530
  58.1284720  12.8412840 148.5992490  58.8242120  14.1855290 148.5704260
  64.6627070  10.3295710 143.4818150  65.0297200   9.8554280 144.2279490
  64.4732130  11.2037280 143.8226490  57.5267560   5.0739400 139.6111620
  57.2414480   4.7095070 140.4490240  57.4646420   4.3419860 138.9974760
  62.4526440   9.3704350 145.8002360  62.1483510  10.2496330 146.0252720
  63.4072900   9.4304140 145.8359800  60.9808230  13.5765340 136.3969210
  60.2070490  13.0362960 136.2367930  61.7102860  13.0571950 136.0586970
  71.7396210  12.5730700 142.1895600  72.4595330  13.0685990 141.7991710
  71.5378030  11.8948590 141.5449470  67.2006150   3.9668660 136.3324990
  66.3870760   3.4681830 136.2570300  67.0068100   4.8066910 135.9161340
  67.1215010  12.6439760 148.0764600  67.0552320  11.7235430 147.8222190
  66.4920150  12.7415200 148.7909240  69.9154540   8.3388310 134.6287150
  70.8034160   8.6505540 134.4538490  69.8859630   7.4660560 134.2367730
  61.0245630  13.2445720 140.0348020  61.5424300  12.4413980 139.9804910
  60.5729650  13.1824860 140.8764850  65.9115130  14.5112000 135.3075320
  66.2530830  15.2554230 134.8118640  65.0827840  14.8243120 135.6700150
  58.5090170  10.2107090 146.9473720  58.1505110  10.8760940 147.5347060
  58.2144730   9.3790640 147.3186340  61.7103290  10.6691330 149.8313270
  61.4103430  10.8148510 148.9341090  62.4814530  10.1096620 149.7386660
  67.0531740  15.4660330 147.8268400  67.0676280  14.5341290 147.6087310
  66.3456840  15.5520090 148.4658170  72.1868810   9.6500150 134.0967010
  72.1032530  10.0814370 133.2463450  72.9063000  10.1098500 134.5293830
  73.2642950  12.1067670 147.1736980  72.5391140  12.6996450 146.9766370
  73.7918410  12.0991210 146.3750350  73.2156060  16.5042410 136.8249140
  72.5732220  15.8498030 137.0992860  72.8286720  16.9097500 136.0489810
  68.7942540  13.8327840 140.6720830  69.1466360  13.2355970 140.0122200
  67.9104870  13.5072070 140.8429080  64.8805820  14.5925530 138.0791240
  65.5676950  15.1394740 138.4598830  64.0938240  15.1366260 138.1140850
  57.0198220  10.2098350 133.5708320  57.8893070  10.4923150 133.8544240
  56.5288540  11.0234220 133.4557130  64.1833030  11.5971560 137.6916600
  64.6395810  12.4076810 137.9176790  63.8321240  11.2794700 138.5235090
  66.4865640  17.1077900 144.9208900  67.1307860  17.3137280 145.5982320
  66.8495080  16.3466300 144.4679750  60.0844810   1.9409210 138.1639120
  59.9559440   1.9327110 139.1124040  59.2606830   2.2792300 137.8130130
  67.7597720  15.1110250 143.6386350  68.4019950  14.4103410 143.7518520
  68.2847070  15.8908690 143.4583240  71.6053440  15.3958870 133.3625490
  71.3791020  14.6789310 133.9550130  71.2149640  15.1471310 132.5247240
  69.5335340  15.9105150 146.8422410  69.8691580  16.4971840 147.5200330
  68.6135680  15.7797860 147.0720200  57.3869470  19.4225730 134.1369950
  57.7467110  20.0215070 133.4827220  57.2461810  19.9685620 134.9104980
  57.0838740   3.7000330 147.6245820  56.3697260   3.8997250 148.2298430
  57.5033780   2.9239900 147.9960620  71.1869690  13.3130810 135.0239650
  70.8991390  13.7743500 135.8117530  71.9821860  12.8528580 135.2923870
  57.3711330  17.6880590 148.6112350  57.4802450  16.7475330 148.4707740
  56.7191890  17.9535340 147.9626080  63.4038090  16.8056930 134.9543620
  63.3948190  17.5386620 134.3388130  62.4836450  16.5588510 135.0470580
  59.0044730  12.0271820 135.6990380  58.3972680  12.7670720 135.7085680
  59.4794080  12.1171180 134.8728580  68.5777520   6.1922640 145.3747270
  68.9458340   5.3717850 145.7026840  67.7175720   6.2524530 145.7902920
  71.9439550   5.1479580 136.1834830  71.3152710   5.2525250 135.4693060
  71.4491470   5.3676360 136.9728710  66.3897690  16.8685170 133.6168810
  66.4909670  16.6649160 132.6870790  65.4899430  16.6143450 133.8216590
  63.9123580   7.4265530 137.5992710  63.2039730   7.8951870 138.0406320
  64.1968060   6.7687540 138.2337900  65.5379510   8.8462230 145.5985240
  66.0364760   9.3208050 146.2637090  65.6802460   7.9225750 145.8055270
  67.9439010   4.1516190 139.0388500  67.8206790   4.1702320 138.0898010
  68.8923570   4.1995130 139.1586900  65.0315800  19.3871490 138.3116480
  65.2857300  19.3492880 137.3895850  64.0828280  19.2604820 138.3044730
  62.1158600   5.7350610 134.9743420  62.9649130   6.1720760 134.9083610
  61.7489870   6.0470870 135.8015480  72.7446370   5.0630190 146.4413630
  72.2419970   5.8035590 146.7807440  73.5603030   5.4514190 146.1250420
  71.0368380  10.3063370 139.8874990  70.0958520  10.3213600 140.0622680
  71.3512450   9.5199330 140.3335290  61.0150020  11.9882970 133.4478950
  61.7813290  11.8764330 134.0104380  61.0924710  11.2920940 132.7955720
  59.7096780   9.4208040 134.1311840  59.7900370   8.4735550 134.2429240
  60.6016530   9.7514920 134.2372500  73.0393960  17.4772220 141.5629250
  73.1641380  18.3003390 142.0353060  73.9059520  17.2662950 141.2153400
  60.5111490  19.5703430 141.2346380  61.2473970  19.0218890 141.5054950
  60.8952410  20.4359440 141.0952370  57.3956970  15.6377000 137.1087890
  56.4696750  15.8798140 137.0993300  57.8613400  16.4651260 136.9872640
  63.6213800  18.7433740 133.0571950  64.4142410  19.0322570 132.6053740
  63.1018150  18.3125910 132.3784430  69.7834770  18.5909660 148.9816780
  70.7356520  18.5067680 148.9317020  69.6362990  19.2551370 149.6550570
  72.6743970  17.9703870 134.4808690  72.3885480  17.5569010 133.6662870
  72.4763520  18.8991580 134.3609210  57.2367580  11.2422960 149.3668010
  57.7406600  10.6630240 149.9384240  56.4975000  11.5263190 149.9044380
  64.1391200  13.9637150 132.9214300  64.0341840  13.3489500 133.6475680
  63.9715420  13.4403040 132.1377310  64.2905520  12.6493950 148.9003530
  63.5251190  13.2178950 148.8158200  64.4721480  12.3570160 148.0071760
  67.3793930  13.0257180 133.5256290  66.8304030  13.4726480 134.1699030
  68.0013190  12.5206430 134.0493960  71.4328870  14.3799280 149.4578550
  72.1738340  14.7175040 148.9546010  70.6701550  14.5491340 148.9048320
  63.0469050  11.9848100 135.4221590  63.4685470  11.8187970 136.2652980
  63.1719890  11.1748330 134.9276730  61.2096470   7.9644650 148.2292570
  60.6792930   7.4735600 147.6015910  61.8784540   8.3928850 147.6950500
  65.5596690  11.0085710 132.6698690  66.0802350  10.2934730 132.3039840
  66.2065090  11.6471580 132.9699200  70.1074530  12.4314110 147.9933760
  70.5215550  12.5859190 148.8424180  69.1725530  12.5569330 148.1559540
  70.5796700   9.7710270 149.9972910  71.1617470   9.0162590 149.9093390
  70.7558470  10.3017710 149.2204390  61.6968770   4.9307020 148.3089860
  61.6025640   4.3127770 147.5840730  61.1166160   5.6573310 148.0819770
  64.4630210   3.4880260 145.3417250  64.0147510   3.5104520 144.4962800
  63.8295410   3.0899280 145.9387550  64.8689760  12.3834590 145.9629690
  65.2877870  13.2267320 145.7905930  63.9498390  12.5206630 145.7336470
  67.2053660  10.1150770 147.3467530  67.3249870   9.5191910 148.0862370
  68.0647660  10.1520460 146.9268830  69.5441560  10.6687960 145.9230040
  69.0176780  11.1930580 145.3195180  69.8872900  11.3015350 146.5539770
  61.9427950   8.0581330 132.3679750  61.7417010   7.1948690 132.7293090
  61.7720000   7.9714690 131.4301350  62.7197180  18.6887600 147.0787420
  62.1818270  19.4133660 146.7596120  62.9731140  18.2117940 146.2884760
  63.9722430   6.6572120 148.6043350  64.5622120   6.3487970 149.2921170
  63.1542670   6.1851870 148.7603250  68.7915860   6.2737930 148.8376370
  68.1031380   5.6119470 148.7726360  69.5121880   5.8276200 149.2824830
  69.4216260   2.8689560 134.8966630  69.7018550   2.0257460 135.2526050
  68.6481990   3.1012670 135.4105380  60.7410750   5.1581950 132.3557630
  61.0436650   5.1649380 131.4476780  61.4805340   4.8079810 132.8525290
  65.5759390  19.9238810 147.3374070  65.5018090  20.8273950 147.6446440
  64.6738230  19.6050710 147.3096140  63.9595680   4.1016570 133.3413830
  63.6117680   3.4240560 132.7616280  64.1608450   3.6406080 134.1557220
  66.1244720  19.0897320 134.9600430  67.0195510  19.4282290 134.9819190
  66.1562350  18.3676730 134.3324710  59.7640880  14.4624370 133.1887430
  60.2015750  15.0054040 133.8445010  60.2488610  13.6371320 133.1983770
  56.9786680  17.2513400 140.6407690  57.3089690  16.3834460 140.4086330
  57.4077680  17.4571920 141.4712650  61.5748600  15.5822410 138.3009660
  61.2744140  15.4587380 139.2013570  61.4686090  14.7231000 137.8925390
  57.4676890  18.1183990 143.3789320  57.0307880  18.2984790 144.2113470
  58.0354570  18.8758610 143.2371040  73.1039070  17.6200990 147.6666630
  72.5041060  17.6793550 146.9230550  73.2332970  16.6805970 147.7963480
  74.3440520  15.3618810 133.0036340  73.5133480  15.4295460 133.4743570
  74.5212350  16.2522930 132.7003200  73.7996980  12.1066290 135.5070540
  74.5615890  12.6762940 135.6130230  73.8151350  11.5393490 136.2778850
  57.3001320  10.6304220 139.7378200  56.6450160  10.3615860 139.0937900
  58.1379270  10.5208700 139.2880180  74.8056950  12.9616390 140.3512470
  75.1765780  12.1783710 139.9448440  75.4458880  13.6505490 140.1729770
  71.7890710  14.3452970 145.7642790  70.9750550  14.7750130 146.0268580
  72.1964910  14.9571380 145.1511840  73.8516150  12.4000660 132.6643060
  74.1264990  13.3079540 132.5362280  73.6626890  12.3363190 133.6005050
  70.2491760   5.4245510 133.9596690  70.6676640   5.2376490 133.1193350
  69.9427820   4.5724560 134.2699620  73.7481490  10.3369650 137.6572490
  73.3725090   9.5697580 137.2253780  73.0184610  10.7192350 138.1447420
  58.3377250  11.0156790 144.2781540  58.7050290  10.9284190 145.1577560
  57.7688070  10.2523340 144.1788400  73.1381110   9.4841170 147.2912010
  72.9067200   9.2553920 146.3909960  73.3985660  10.4040720 147.2456900
  57.8893250   7.9265880 148.1839960  56.9949300   7.8932640 148.5233670
  58.4290800   8.1252670 148.9491210  56.5139400   7.8403150 135.6803530
  55.6103480   8.1033350 135.5055190  56.9980020   8.1114320 134.9003490
  73.0232450   8.5627140 140.9579730  73.5469930   8.0689790 140.3269900
  73.6091870   8.6977500 141.7027300  73.2022170   8.6467010 144.4799280
  72.2524880   8.6130550 144.5944270  73.3835180   9.5567120 144.2449050
  59.0566610   6.8968690 133.5897910  59.7658310   6.4751910 133.1045190
  58.3406550   6.9643920 132.9581260  58.7040770   2.9508020 132.6300560
  59.4268900   3.4916960 132.9481780  58.9765290   2.6771440 131.7542100
  72.5132420   7.8200490 136.8972140  73.0091540   7.5871360 137.6821020
  72.3148490   6.9812330 136.4809780  58.3932960   2.2014210 142.5323180
  59.0409150   1.6511590 142.0918340  58.8134800   2.4557360 143.3538990
  73.9419580   6.4561440 139.4309820  73.8318860   6.3017480 140.3692090
  74.7027170   5.9282380 139.1885230  72.2885300   2.3955570 145.8892820
  72.9257520   3.0089710 146.2552010  72.4360190   2.4316230 144.9442050
  74.8309850   4.2869360 132.6715960  75.7559160   4.1550540 132.4634250
  74.8085640   4.3662180 133.6252410  74.9048340   5.0580020 135.2972670
  74.1099840   4.9925140 135.8265580  75.1091620   5.9930660 135.2858020
  71.8466760  19.0971570 139.2911060  72.4425830  18.7756140 138.6145480
  72.1044910  18.6243390 140.0824330  58.1464960   2.3569880 145.2748500
  57.7979780   2.8133700 146.0406680  57.8152660   1.4627010 145.3570930
  63.4535360  17.0849070 145.0411410  63.2126720  17.3523630 144.1541930
  64.3938000  17.2554800 145.0962270  65.6589780   3.5481760 148.7967920
  65.5978670   4.1403590 149.5463330  66.5990160   3.4407720 148.6518180
  68.2964340   3.2051820 148.4360210  68.9104750   3.5231110 147.7741290
  68.8413900   2.7200410 149.0556070  74.7139520  19.1043450 145.8422050
  74.2197800  19.5012320 145.1249180  74.1052810  18.4792660 146.2359330
  59.5917360  18.4751730 146.5599470  58.9977680  18.3436430 147.2989510
  59.5841200  17.6389870 146.0941570  69.9444360   3.9754830 146.1471220
  69.6157720   3.1606590 145.7672950  70.8926660   3.9324640 146.0236910
  72.3978970  19.7466870 143.1208790  71.9381940  20.4982680 142.7466810
  71.7691430  19.0273340 143.0623590  59.2229590  15.8410110 145.5107510
  58.4963650  15.2215400 145.4433460  59.2838740  16.2350720 144.6405590
  62.8274690  18.0555110 142.2956920  63.3439710  17.4442470 141.7705180
  63.4772070  18.5583890 142.7867930  65.5670190  18.9463600 143.1225900
  65.8548000  18.6917900 142.2458910  66.0793410  18.3940960 143.7131470
  66.7847200   2.6853800 143.7022410  66.0018990   3.1599300 143.9819170
  66.4910130   1.7808630 143.5935590  71.3368270   3.3876900 141.7471500
  71.7776360   3.3322000 140.8993100  71.0675860   4.3034910 141.8181680
  73.2006840   3.0192140 139.7580320  73.1395240   2.0753360 139.6111340
  73.9798870   3.1272230 140.3033780  57.5059590  19.1584500 138.7204270
  57.3381630  18.5255180 139.4186160  56.6394100  19.3643900 138.3698460
  58.1287610   2.9901280 136.2236130  58.8866970   3.1030160 135.6500160
  57.6664780   3.8270480 136.1779560  64.6701420   5.1040550 139.2138440
  63.8575930   4.7297440 138.8734320  65.1743060   4.3485630 139.5159630
  69.1726400   1.7683000 140.4521510  69.7755770   2.3403210 140.9270030
  68.4319390   2.3322440 140.2295410  72.3161000   2.1704560 135.7261790
  72.5111630   3.0688010 135.9929220  71.5290870   1.9391640 136.2194740
  59.1122290  17.8517730 136.1654410  58.5869910  18.2325760 135.4616370
  59.0366870  18.4768500 136.8864120  60.5012760   3.5165330 134.7638100
  61.0305520   2.7295130 134.6346050  61.1341080   4.1956520 134.9973630
  62.6950600   3.2540470 137.8183490  62.0653340   2.5527780 137.9853620
  62.1555740   4.0144600 137.6016650  73.8687610  19.4105270 137.4868350
  74.0439800  18.7243010 136.8429270  73.1709180  19.9352320 137.0945020
  61.7115260  19.8000110 135.0403660  62.4434080  19.5159390 134.4927550
  61.9708930  19.5613390 135.9303040  60.8730050  15.9164840 135.0449990
  60.2438930  16.3849940 135.5935820  60.9877880  15.0714060 135.4796180
  68.3279770   9.9670500 121.1951190  68.2473820   9.0525110 120.9242900
  67.9144190  10.4637570 120.4890900  66.4597810  11.7449520 123.0760460
  65.6839910  11.2649960 123.3659030  67.1110740  11.0655170 122.9016620
  60.4763640  12.0569330 123.9536220  59.6448520  11.8018040 124.3532730
  61.0844620  12.1280100 124.6894140  70.4805240  16.1509710 121.8559590
  70.0186770  15.3796950 122.1846760  71.2930790  16.1775780 122.3612040
  60.4564900  16.0909420 124.1494240  60.7592940  15.2007160 123.9704460
  61.2008490  16.6479640 123.9216490  58.8855590   7.0171220 117.7378610
  57.9972290   7.3587190 117.6358490  59.1696780   6.8171540 116.8459440
  56.8488600   9.6176870 123.6218310  57.4204710   8.8499070 123.6221950
  56.8490140   9.9165630 122.7124920  66.7068550  18.4367720 121.4763580
  66.0879990  18.8925220 120.9058020  67.5620330  18.5919180 121.0753280
  65.9006800  14.4206710 123.0830620  65.8315080  13.4796650 122.9219750
  66.6626660  14.5108120 123.6553190  58.0913470   5.0261230 125.4087240
  57.9116310   4.1286980 125.6890000  57.6893550   5.5733100 126.0834190
  66.9311970   7.2277090 123.3099550  67.3076790   6.3548970 123.1973220
  66.8331480   7.5635790 122.4189990  61.0616980   5.6002720 118.7716990
  61.1683730   6.5006450 119.0785750  60.1509340   5.5520690 118.4811640
  70.7136090   4.7227530 120.2427890  71.5345710   4.2324100 120.2853370
  70.7470170   5.3125190 120.9959730  58.7100140   7.5221730 124.0169580
  59.3910250   7.7860100 124.6356980  58.3948190   6.6822600 124.3507590
  62.9024710   8.5689090 123.1042170  63.4102930   9.0670060 123.7447190
  63.4337950   7.7924290 122.9281530  75.0035640   6.7394280 126.8071520
  74.2987810   7.1275990 126.2886630  75.2693560   7.4344570 127.4092450
  61.1860810   3.2087650 127.3705590  61.1879250   3.7260040 126.5651490
  60.3565120   2.7317830 127.3475520  67.5731900  13.3206960 118.8695490
  66.9549170  13.7856410 118.3058210  68.0855150  14.0134440 119.2865000
  62.4363660  12.8482830 125.5479090  62.1033040  13.4751750 126.1900160
  62.6130340  13.3744710 124.7680760  70.9497570   6.6627910 123.0155430
  70.2453140   6.9512800 123.5958540  71.3109730   7.4728020 122.6554990
  60.8676140   4.9197610 125.3776040  61.2092950   5.7639660 125.0829910
  59.9291950   5.0681350 125.4941380  61.6482760  14.8163630 127.3628270
  62.2656760  15.4914710 127.0812720  60.7875880  15.2251610 127.2715770
  56.9415100  14.0063490 116.2435120  56.5643080  14.4950590 115.5120020
  57.1988170  14.6788770 116.8741650  72.5660350  16.2803040 125.2782910
  71.8823870  16.9502150 125.2699580  73.1054640  16.4783690 124.5127770
  74.0184490   6.1082700 123.4064640  73.0709400   6.1421680 123.5380070
  74.3434480   6.9221650 123.7914000  64.5504030   2.4079880 121.7020630
  64.8579010   1.8526770 120.9856130  63.6204730   2.5424340 121.5193620
  70.1019090  18.1247170 123.9928090  70.1146250  17.7209460 123.1250350
  69.5494310  18.8994460 123.8889520  71.3964510  14.8463390 119.0818260
  71.2860840  13.9037720 119.2067680  71.3932760  15.2079030 119.9681020
  69.5004530  13.0277010 125.3210700  69.9173320  12.8137120 124.4864160
  70.2244350  13.2849800 125.8919320  66.9384790  10.4728710 118.4380750
  66.0114070  10.4066090 118.6669220  67.0909610  11.4108840 118.3235990
  66.9253870   6.7445710 115.4347910  65.9857540   6.9059670 115.5200370
  67.2437130   7.4631390 114.8883900  73.4466630  11.4264230 125.4126940
  72.6185260  11.4957320 124.9377070  74.0417110  12.0118540 124.9442770
  70.9682080  12.0349010 118.9416000  70.3494500  11.6968560 118.2942300
  70.9506530  11.3908770 119.6495190  70.4108640   8.2133550 126.3581810
  69.9979820   9.0387260 126.6121800  69.6784590   7.6278590 126.1658170
  62.5441430  10.9993450 121.2200480  62.1398430  10.2870700 120.7246380
  62.6304550  10.6546690 122.1088520  63.0123130  14.6861010 123.3839690
  62.7151420  14.0806480 122.7047470  63.9622950  14.7238320 123.2729050
  61.2570050   7.7736660 124.9999520  61.8084640   7.8832000 124.2252770
  61.7713560   8.1474260 125.7154750  71.1008740  18.2592880 127.0462790
  70.6239300  19.0665070 126.8535400  70.4170530  17.6071210 127.1989000
  62.1041560  14.4242700 130.0347490  61.2070090  14.6482670 130.2820890
  62.1294430  14.5477640 129.0858890  69.1446780  11.2735820 115.9488750
  69.5840060  10.4358250 115.8026570  69.8575200  11.9065220 116.0352890
  60.9312780  11.2956020 128.6104860  60.7920550  12.1678820 128.9792260
  60.0494140  10.9528830 128.4652800  67.2542160  16.2131890 119.9169990
  67.6938070  16.9556220 119.5025380  67.1929050  16.4558460 120.8408950
  62.7293130  17.2377720 130.8190010  62.7008560  17.6420670 129.9518440
  62.5658100  16.3088080 130.6561610  72.7263920   2.5278630 114.2629790
  72.4136580   2.6205460 115.1628860  73.4876390   3.1059660 114.2127220
  59.2446060   9.8938430 118.7207130  59.1243660  10.6200520 118.1088400
  58.9346950   9.1241340 118.2435040  74.6807950  18.0204820 132.1154180
  75.1567670  18.4987710 132.7943260  75.3015110  17.9522310 131.3899680
  56.8831430  13.0653570 124.5275770  56.9611850  13.2002340 123.5831490
  57.4973110  12.3569460 124.7203890  58.1279060  14.7653760 120.9381950
  57.7207140  14.9068350 120.0835550  59.0192070  14.4813920 120.7353160
  74.0841200  15.2117670 129.2754190  74.2104260  14.9729550 128.3571370
  74.1262580  14.3802210 129.7476270  67.9457940  18.9145670 127.8449000
  68.4602610  18.8253680 128.6471430  67.1027020  19.2605370 128.1376910
  69.9212340  19.2001010 117.2733000  69.7613480  18.9103950 118.1714830
  69.7559050  18.4241140 116.7378230  62.4000720  18.9799540 119.0504620
  62.2243200  18.0635080 118.8372420  61.5456460  19.3386830 119.2902420
  69.6238470  16.7088570 115.8331000  68.9303630  16.7065860 115.1733280
  70.3661330  16.2847890 115.4025170  69.1888400  18.3351280 119.9079490
  69.6445350  17.5540660 120.2218110  69.5280920  19.0458100 120.4520670
  73.9365210   7.2650130 130.2403930  73.3209480   7.7729800 129.7119390
  73.6161630   6.3648460 130.1829870  56.9390950  14.1067740 127.0670230
  57.1021990  13.6373100 126.2489600  57.4043400  13.5991300 127.7319070
  61.7109720   3.2373500 122.1030800  61.2677870   4.0183040 121.7715320
  62.2694710   3.5603390 122.8101740  65.9979530   6.1042020 127.7066120
  65.5358900   6.3125040 128.5186060  65.5957640   5.2901370 127.4036790
  70.9984040   7.3250970 128.8362780  70.1477630   7.0256720 129.1571850
  70.8385830   7.5692980 127.9246600  68.0933750   8.8252720 130.9361570
  68.4187160   7.9916470 130.5963800  68.8814080   9.3481240 131.0839900
  64.8268540   2.8584200 116.9836630  64.2022720   2.8544070 117.7089940
  64.7398660   1.9915160 116.5872600  63.7485620   3.7820830 123.9620400
  64.0457950   4.6883660 123.8812420  64.2971180   3.2939610 123.3479970
  61.5023940   8.3607070 119.8312050  61.2764860   8.1444240 120.7358670
  60.7216470   8.7935530 119.4858020  68.7321700   8.3670440 118.4302700
  68.1330590   9.0906240 118.2466320  69.2801310   8.3047220 117.6479150
  63.9423150   9.2592650 130.4972320  63.8466750   8.3187380 130.3472720
  64.7855130   9.4807720 130.1020390  67.3386570   7.0033980 120.4605980
  67.7316140   7.3206180 119.6474670  67.7003420   6.1245860 120.5750500
  59.0733690   5.6706320 128.6506100  58.6797080   6.5181530 128.8578880
  58.3852090   5.0332690 128.8414740  65.6478740   5.7541290 131.7202840
  64.9577060   5.5613490 132.3548930  66.3911040   6.0375930 132.2527140
  56.3750740   3.5934780 122.6836180  56.0863790   4.1637640 123.3961160
  57.1196500   3.1139230 123.0467410  56.5620970   7.5354900 113.8938900
  56.4795640   8.4785660 114.0353890  56.2104030   7.3929810 113.0151250
  67.9241710   9.5939730 124.5556760  67.1922830  10.1026540 124.9046860
  67.5266050   8.7769710 124.2545540  64.3619100   6.2693930 122.9609250
  64.3655160   5.8283880 122.1113790  65.2570220   6.5911260 123.0681070
  60.2121480   6.1520420 121.9203460  59.8721530   6.6295650 122.6770510
  59.4498800   5.6985540 121.5604560  64.4239250   7.2706010 115.9516010
  64.5452070   7.2292490 116.9001830  64.0387760   8.1330160 115.7962740
  68.3867620   5.0473410 123.9679700  68.4040360   5.4982060 124.8121550
  68.1383200   4.1479050 124.1813140  63.4360750   9.5807150 115.3499310
  62.8677650   9.1325400 114.7235220  64.1449750   9.9399930 114.8164460
  71.8138370   2.4605590 129.8066080  72.1384140   1.7295250 130.3324060
  71.8494880   2.1419230 128.9047070  58.5129930  13.4819170 129.2266040
  58.1284720  12.8412840 129.8249000  58.8242120  14.1855290 129.7960770
  64.6627070  10.3295710 124.7074660  65.0297200   9.8554280 125.4536000
  64.4732130  11.2037280 125.0483000  57.5267560   5.0739400 120.8368130
  57.2414480   4.7095070 121.6746750  57.4646420   4.3419860 120.2231270
  62.4526440   9.3704350 127.0258870  62.1483510  10.2496330 127.2509230
  63.4072900   9.4304140 127.0616310  60.9808230  13.5765340 117.6225720
  60.2070490  13.0362960 117.4624440  61.7102860  13.0571950 117.2843480
  71.7396210  12.5730700 123.4152110  72.4595330  13.0685990 123.0248220
  71.5378030  11.8948590 122.7705980  67.2006150   3.9668660 117.5581500
  66.3870760   3.4681830 117.4826810  67.0068100   4.8066910 117.1417850
  67.1215010  12.6439760 129.3021110  67.0552320  11.7235430 129.0478700
  66.4920150  12.7415200 130.0165750  69.9154540   8.3388310 115.8543660
  70.8034160   8.6505540 115.6795000  69.8859630   7.4660560 115.4624240
  61.0245630  13.2445720 121.2604530  61.5424300  12.4413980 121.2061420
  60.5729650  13.1824860 122.1021360  65.9115130  14.5112000 116.5331830
  66.2530830  15.2554230 116.0375150  65.0827840  14.8243120 116.8956660
  58.5090170  10.2107090 128.1730230  58.1505110  10.8760940 128.7603570
  58.2144730   9.3790640 128.5442850  61.7103290  10.6691330 131.0569780
  61.4103430  10.8148510 130.1597600  62.4814530  10.1096620 130.9643170
  67.0531740  15.4660330 129.0524910  67.0676280  14.5341290 128.8343820
  66.3456840  15.5520090 129.6914680  72.1868810   9.6500150 115.3223520
  72.1032530  10.0814370 114.4719960  72.9063000  10.1098500 115.7550340
  73.2642950  12.1067670 128.3993490  72.5391140  12.6996450 128.2022880
  73.7918410  12.0991210 127.6006860  73.2156060  16.5042410 118.0505650
  72.5732220  15.8498030 118.3249370  72.8286720  16.9097500 117.2746320
  68.7942540  13.8327840 121.8977340  69.1466360  13.2355970 121.2378710
  67.9104870  13.5072070 122.0685590  64.8805820  14.5925530 119.3047750
  65.5676950  15.1394740 119.6855340  64.0938240  15.1366260 119.3397360
  57.0198220  10.2098350 114.7964830  57.8893070  10.4923150 115.0800750
  56.5288540  11.0234220 114.6813640  64.1833030  11.5971560 118.9173110
  64.6395810  12.4076810 119.1433300  63.8321240  11.2794700 119.7491600
  66.4865640  17.1077900 126.1465410  67.1307860  17.3137280 126.8238830
  66.8495080  16.3466300 125.6936260  60.0844810   1.9409210 119.3895630
  59.9559440   1.9327110 120.3380550  59.2606830   2.2792300 119.0386640
  67.7597720  15.1110250 124.8642860  68.4019950  14.4103410 124.9775030
  68.2847070  15.8908690 124.6839750  71.6053440  15.3958870 114.5882000
  71.3791020  14.6789310 115.1806640  71.2149640  15.1471310 113.7503750
  69.5335340  15.9105150 128.0678920  69.8691580  16.4971840 128.7456840
  68.6135680  15.7797860 128.2976710  57.3869470  19.4225730 115.3626460
  57.7467110  20.0215070 114.7083730  57.2461810  19.9685620 116.1361490
  57.0838740   3.7000330 128.8502330  56.3697260   3.8997250 129.4554940
  57.5033780   2.9239900 129.2217130  71.1869690  13.3130810 116.2496160
  70.8991390  13.7743500 117.0374040  71.9821860  12.8528580 116.5180380
  57.3711330  17.6880590 129.8368860  57.4802450  16.7475330 129.6964250
  56.7191890  17.9535340 129.1882590  65.3623920  15.9596480 131.2366980
  65.0420790  15.2405720 131.7812670  64.6882280  16.6351550 131.3103040
  63.4038090  16.8056930 116.1800130  63.3948190  17.5386620 115.5644640
  62.4836450  16.5588510 116.2727090  59.0044730  12.0271820 116.9246890
  58.3972680  12.7670720 116.9342190  59.4794080  12.1171180 116.0985090
  68.5777520   6.1922640 126.6003780  68.9458340   5.3717850 126.9283350
  67.7175720   6.2524530 127.0159430  71.9439550   5.1479580 117.4091340
  71.3152710   5.2525250 116.6949570  71.4491470   5.3676360 118.1985220
  66.3897690  16.8685170 114.8425320  66.4909670  16.6649160 113.9127300
  65.4899430  16.6143450 115.0473100  63.9123580   7.4265530 118.8249220
  63.2039730   7.8951870 119.2662830  64.1968060   6.7687540 119.4594410
  65.5379510   8.8462230 126.8241750  66.0364760   9.3208050 127.4893600
  65.6802460   7.9225750 127.0311780  67.9439010   4.1516190 120.2645010
  67.8206790   4.1702320 119.3154520  68.8923570   4.1995130 120.3843410
  65.0315800  19.3871490 119.5372990  65.2857300  19.3492880 118.6152360
  64.0828280  19.2604820 119.5301240  62.1158600   5.7350610 116.1999930
  62.9649130   6.1720760 116.1340120  61.7489870   6.0470870 117.0271990
  72.7446370   5.0630190 127.6670140  72.2419970   5.8035590 128.0063950
  73.5603030   5.4514190 127.3506930  71.0368380  10.3063370 121.1131500
  70.0958520  10.3213600 121.2879190  71.3512450   9.5199330 121.5591800
  61.0150020  11.9882970 114.6735460  61.7813290  11.8764330 115.2360890
  61.0924710  11.2920940 114.0212230  59.7096780   9.4208040 115.3568350
  59.7900370   8.4735550 115.4685750  60.6016530   9.7514920 115.4629010
  73.0393960  17.4772220 122.7885760  73.1641380  18.3003390 123.2609570
  73.9059520  17.2662950 122.4409910  60.5111490  19.5703430 122.4602890
  61.2473970  19.0218890 122.7311460  60.8952410  20.4359440 122.3208880
  57.3956970  15.6377000 118.3344400  56.4696750  15.8798140 118.3249810
  57.8613400  16.4651260 118.2129150  59.5169770  18.7549500 131.6488470
  60.3182500  19.0761550 132.0623870  59.0021590  18.3945080 132.3708380
  63.6213800  18.7433740 114.2828460  64.4142410  19.0322570 113.8310250
  63.1018150  18.3125910 113.6040940  68.3534400  14.8629370 131.5963880
  67.7472560  14.8860970 130.8559630  68.0488510  14.1312410 132.1331130
  69.7834770  18.5909660 130.2073290  70.7356520  18.5067680 130.1573530
  69.6362990  19.2551370 130.8807080  72.6743970  17.9703870 115.7065200
  72.3885480  17.5569010 114.8919380  72.4763520  18.8991580 115.5865720
  57.2367580  11.2422960 130.5924520  57.7406600  10.6630240 131.1640750
  56.4975000  11.5263190 131.1300890  64.1391200  13.9637150 114.1470810
  64.0341840  13.3489500 114.8732190  63.9715420  13.4403040 113.3633820
  64.2905520  12.6493950 130.1260040  63.5251190  13.2178950 130.0414710
  64.4721480  12.3570160 129.2328270  67.3793930  13.0257180 114.7512800
  66.8304030  13.4726480 115.3955540  68.0013190  12.5206430 115.2750470
  71.4328870  14.3799280 130.6835060  72.1738340  14.7175040 130.1802520
  70.6701550  14.5491340 130.1304830  59.2690660   9.3852550 131.4874590
  59.3096000   9.0866420 132.3959820  60.1236160   9.7860160 131.3282110
  63.0469050  11.9848100 116.6478100  63.4685470  11.8187970 117.4909490
  63.1719890  11.1748330 116.1533240  61.2096470   7.9644650 129.4549080
  60.6792930   7.4735600 128.8272420  61.8784540   8.3928850 128.9207010
  65.5596690  11.0085710 113.8955200  66.0802350  10.2934730 113.5296350
  66.2065090  11.6471580 114.1955710  70.1074530  12.4314110 129.2190270
  70.5215550  12.5859190 130.0680690  69.1725530  12.5569330 129.3816050
  70.5796700   9.7710270 131.2229420  71.1617470   9.0162590 131.1349900
  70.7558470  10.3017710 130.4460900  61.6968770   4.9307020 129.5346370
  61.6025640   4.3127770 128.8097240  61.1166160   5.6573310 129.3076280
  64.4630210   3.4880260 126.5673760  64.0147510   3.5104520 125.7219310
  63.8295410   3.0899280 127.1644060  64.8689760  12.3834590 127.1886200
  65.2877870  13.2267320 127.0162440  63.9498390  12.5206630 126.9592980
  67.2053660  10.1150770 128.5724040  67.3249870   9.5191910 129.3118880
  68.0647660  10.1520460 128.1525340  69.5441560  10.6687960 127.1486550
  69.0176780  11.1930580 126.5451690  69.8872900  11.3015350 127.7796280
  61.9427950   8.0581330 113.5936260  61.7417010   7.1948690 113.9549600
  61.7720000   7.9714690 112.6557860  62.7197180  18.6887600 128.3043930
  62.1818270  19.4133660 127.9852630  62.9731140  18.2117940 127.5141270
  63.9722430   6.6572120 129.8299860  64.5622120   6.3487970 130.5177680
  63.1542670   6.1851870 129.9859760  68.7915860   6.2737930 130.0632880
  68.1031380   5.6119470 129.9982870  69.5121880   5.8276200 130.5081340
  69.4216260   2.8689560 116.1223140  69.7018550   2.0257460 116.4782560
  68.6481990   3.1012670 116.6361890  60.7410750   5.1581950 113.5814140
  61.0436650   5.1649380 112.6733290  61.4805340   4.8079810 114.0781800
  65.5759390  19.9238810 128.5630580  65.5018090  20.8273950 128.8702950
  64.6738230  19.6050710 128.5352650  63.9595680   4.1016570 114.5670340
  63.6117680   3.4240560 113.9872790  64.1608450   3.6406080 115.3813730
  66.1244720  19.0897320 116.1856940  67.0195510  19.4282290 116.2075700
  66.1562350  18.3676730 115.5581220  59.7640880  14.4624370 114.4143940
  60.2015750  15.0054040 115.0701520  60.2488610  13.6371320 114.4240280
  56.9786680  17.2513400 121.8664200  57.3089690  16.3834460 121.6342840
  57.4077680  17.4571920 122.6969160  61.5748600  15.5822410 119.5266170
  61.2744140  15.4587380 120.4270080  61.4686090  14.7231000 119.1181900
  57.4676890  18.1183990 124.6045830  57.0307880  18.2984790 125.4369980
  58.0354570  18.8758610 124.4627550  73.1039070  17.6200990 128.8923140
  72.5041060  17.6793550 128.1487060  73.2332970  16.6805970 129.0219990
  74.3440520  15.3618810 114.2292850  73.5133480  15.4295460 114.7000080
  74.5212350  16.2522930 113.9259710  73.7996980  12.1066290 116.7327050
  74.5615890  12.6762940 116.8386740  73.8151350  11.5393490 117.5035360
  57.3001320  10.6304220 120.9634710  56.6450160  10.3615860 120.3194410
  58.1379270  10.5208700 120.5136690  74.8056950  12.9616390 121.5768980
  75.1765780  12.1783710 121.1704950  75.4458880  13.6505490 121.3986280
  71.7890710  14.3452970 126.9899300  70.9750550  14.7750130 127.2525090
  72.1964910  14.9571380 126.3768350  73.8516150  12.4000660 113.8899570
  74.1264990  13.3079540 113.7618790  73.6626890  12.3363190 114.8261560
  70.2491760   5.4245510 115.1853200  70.6676640   5.2376490 114.3449860
  69.9427820   4.5724560 115.4956130  73.7481490  10.3369650 118.8829000
  73.3725090   9.5697580 118.4510290  73.0184610  10.7192350 119.3703930
  58.3377250  11.0156790 125.5038050  58.7050290  10.9284190 126.3834070
  57.7688070  10.2523340 125.4044910  73.1381110   9.4841170 128.5168520
  72.9067200   9.2553920 127.6166470  73.3985660  10.4040720 128.4713410
  57.8893250   7.9265880 129.4096470  56.9949300   7.8932640 129.7490180
  58.4290800   8.1252670 130.1747720  71.5769180   4.7097600 131.2948220
  72.4539360   4.7181000 131.6782220  71.5890020   3.9728440 130.6840570
  56.5139400   7.8403150 116.9060040  55.6103480   8.1033350 116.7311700
  56.9980020   8.1114320 116.1260000  73.0232450   8.5627140 122.1836240
  73.5469930   8.0689790 121.5526410  73.6091870   8.6977500 122.9283810
  73.2022170   8.6467010 125.7055790  72.2524880   8.6130550 125.8200780
  73.3835180   9.5567120 125.4705560  59.0566610   6.8968690 114.8154420
  59.7658310   6.4751910 114.3301700  58.3406550   6.9643920 114.1837770
  58.7040770   2.9508020 113.8557070  59.4268900   3.4916960 114.1738290
  58.9765290   2.6771440 112.9798610  72.5132420   7.8200490 118.1228650
  73.0091540   7.5871360 118.9077530  72.3148490   6.9812330 117.7066290
  58.3932960   2.2014210 123.7579690  59.0409150   1.6511590 123.3174850
  58.8134800   2.4557360 124.5795500  73.9419580   6.4561440 120.6566330
  73.8318860   6.3017480 121.5948600  74.7027170   5.9282380 120.4141740
  72.2885300   2.3955570 127.1149330  72.9257520   3.0089710 127.4808520
  72.4360190   2.4316230 126.1698560  74.8309850   4.2869360 113.8972470
  75.7559160   4.1550540 113.6890760  74.8085640   4.3662180 114.8508920
  74.9048340   5.0580020 116.5229180  74.1099840   4.9925140 117.0522090
  75.1091620   5.9930660 116.5114530  71.8466760  19.0971570 120.5167570
  72.4425830  18.7756140 119.8401990  72.1044910  18.6243390 121.3080840
  58.1464960   2.3569880 126.5005010  57.7979780   2.8133700 127.2663190
  57.8152660   1.4627010 126.5827440  59.7529330  15.5289480 130.6658200
  59.7098960  15.1582390 131.5472660  59.8840340  16.4667050 130.8060020
  63.4535360  17.0849070 126.2667920  63.2126720  17.3523630 125.3798440
  64.3938000  17.2554800 126.3218780  65.6589780   3.5481760 130.0224430
  65.5978670   4.1403590 130.7719840  66.5990160   3.4407720 129.8774690
  68.2964340   3.2051820 129.6616720  68.9104750   3.5231110 128.9997800
  68.8413900   2.7200410 130.2812580  74.7139520  19.1043450 127.0678560
  74.2197800  19.5012320 126.3505690  74.1052810  18.4792660 127.4615840
  59.5917360  18.4751730 127.7855980  58.9977680  18.3436430 128.5246020
  59.5841200  17.6389870 127.3198080  69.9444360   3.9754830 127.3727730
  69.6157720   3.1606590 126.9929460  70.8926660   3.9324640 127.2493420
  72.3978970  19.7466870 124.3465300  71.9381940  20.4982680 123.9723320
  71.7691430  19.0273340 124.2880100  59.2229590  15.8410110 126.7364020
  58.4963650  15.2215400 126.6689970  59.2838740  16.2350720 125.8662100
  62.8274690  18.0555110 123.5213430  63.3439710  17.4442470 122.9961690
  63.4772070  18.5583890 124.0124440  65.5670190  18.9463600 124.3482410
  65.8548000  18.6917900 123.4715420  66.0793410  18.3940960 124.9387980
  66.7847200   2.6853800 124.9278920  66.0018990   3.1599300 125.2075680
  66.4910130   1.7808630 124.8192100  71.3368270   3.3876900 122.9728010
  71.7776360   3.3322000 122.1249610  71.0675860   4.3034910 123.0438190
  73.2006840   3.0192140 120.9836830  73.1395240   2.0753360 120.8367850
  73.9798870   3.1272230 121.5290290  57.5059590  19.1584500 119.9460780
  57.3381630  18.5255180 120.6442670  56.6394100  19.3643900 119.5954970
  58.1287610   2.9901280 117.4492640  58.8866970   3.1030160 116.8756670
  57.6664780   3.8270480 117.4036070  64.6701420   5.1040550 120.4394950
  63.8575930   4.7297440 120.0990830  65.1743060   4.3485630 120.7416140
  69.1726400   1.7683000 121.6778020  69.7755770   2.3403210 122.1526540
  68.4319390   2.3322440 121.4551920  72.3161000   2.1704560 116.9518300
  72.5111630   3.0688010 117.2185730  71.5290870   1.9391640 117.4451250
  59.1122290  17.8517730 117.3910920  58.5869910  18.2325760 116.6872880
  59.0366870  18.4768500 118.1120630  60.5012760   3.5165330 115.9894610
  61.0305520   2.7295130 115.8602560  61.1341080   4.1956520 116.2230140
  62.6950600   3.2540470 119.0440000  62.0653340   2.5527780 119.2110130
  62.1555740   4.0144600 118.8273160  65.6342550  19.8679700 131.7150610
  66.5609860  19.6323970 131.7586570  65.6192980  20.6951700 131.2336640
  73.8687610  19.4105270 118.7124860  74.0439800  18.7243010 118.0685780
  73.1709180  19.9352320 118.3201530  62.8206160   2.5324450 131.4792490
  62.5390430   3.0358050 130.7153310  63.2025860   1.7346200 131.1134620
  61.7115260  19.8000110 116.2660170  62.4434080  19.5159390 115.7184060
  61.9708930  19.5613390 117.1559550  60.8730050  15.9164840 116.2706500
  60.2438930  16.3849940 116.8192330  60.9877880  15.0714060 116.7052690
  69.4221620   1.9478030 132.0572960  69.3087070   2.2672640 132.9524480
  70.2391360   2.3490540 131.7610240  72.2020110  19.0949560 131.5391650
  72.9945430  18.5998790 131.3317610  72.4953260  19.7739700 132.1467260
  68.3279770   9.9670500 102.4207700  68.2473820   9.0525110 102.1499410
  67.9144190  10.4637570 101.7147410  66.4597810  11.7449520 104.3016970
  65.6839910  11.2649960 104.5915540  67.1110740  11.0655170 104.1273130
  60.4763640  12.0569330 105.1792730  59.6448520  11.8018040 105.5789240
  61.0844620  12.1280100 105.9150650  70.4805240  16.1509710 103.0816100
  70.0186770  15.3796950 103.4103270  71.2930790  16.1775780 103.5868550
  60.4564900  16.0909420 105.3750750  60.7592940  15.2007160 105.1960970
  61.2008490  16.6479640 105.1473000  58.8855590   7.0171220  98.9635120
  57.9972290   7.3587190  98.8615000  59.1696780   6.8171540  98.0715950
  56.8488600   9.6176870 104.8474820  57.4204710   8.8499070 104.8478460
  56.8490140   9.9165630 103.9381430  66.7068550  18.4367720 102.7020090
  66.0879990  18.8925220 102.1314530  67.5620330  18.5919180 102.3009790
  65.9006800  14.4206710 104.3087130  65.8315080  13.4796650 104.1476260
  66.6626660  14.5108120 104.8809700  58.0913470   5.0261230 106.6343750
  57.9116310   4.1286980 106.9146510  57.6893550   5.5733100 107.3090700
  66.9311970   7.2277090 104.5356060  67.3076790   6.3548970 104.4229730
  66.8331480   7.5635790 103.6446500  61.0616980   5.6002720  99.9973500
  61.1683730   6.5006450 100.3042260  60.1509340   5.5520690  99.7068150
  70.7136090   4.7227530 101.4684400  71.5345710   4.2324100 101.5109880
  70.7470170   5.3125190 102.2216240  58.7100140   7.5221730 105.2426090
  59.3910250   7.7860100 105.8613490  58.3948190   6.6822600 105.5764100
  62.9024710   8.5689090 104.3298680  63.4102930   9.0670060 104.9703700
  63.4337950   7.7924290 104.1538040  75.0035640   6.7394280 108.0328030
  74.2987810   7.1275990 107.5143140  75.2693560   7.4344570 108.6348960
  61.1860810   3.2087650 108.5962100  61.1879250   3.7260040 107.7908000
  60.3565120   2.7317830 108.5732030  67.5731900  13.3206960 100.0952000
  66.9549170  13.7856410  99.5314720  68.0855150  14.0134440 100.5121510
  62.4363660  12.8482830 106.7735600  62.1033040  13.4751750 107.4156670
  62.6130340  13.3744710 105.9937270  70.9497570   6.6627910 104.2411940
  70.2453140   6.9512800 104.8215050  71.3109730   7.4728020 103.8811500
  60.8676140   4.9197610 106.6032550  61.2092950   5.7639660 106.3086420
  59.9291950   5.0681350 106.7197890  61.6482760  14.8163630 108.5884780
  62.2656760  15.4914710 108.3069230  60.7875880  15.2251610 108.4972280
  56.9415100  14.0063490  97.4691630  56.5643080  14.4950590  96.7376530
  57.1988170  14.6788770  98.0998160  72.5660350  16.2803040 106.5039420
  71.8823870  16.9502150 106.4956090  73.1054640  16.4783690 105.7384280
  74.0184490   6.1082700 104.6321150  73.0709400   6.1421680 104.7636580
  74.3434480   6.9221650 105.0170510  64.5504030   2.4079880 102.9277140
  64.8579010   1.8526770 102.2112640  63.6204730   2.5424340 102.7450130
  70.1019090  18.1247170 105.2184600  70.1146250  17.7209460 104.3506860
  69.5494310  18.8994460 105.1146030  71.3964510  14.8463390 100.3074770
  71.2860840  13.9037720 100.4324190  71.3932760  15.2079030 101.1937530
  69.5004530  13.0277010 106.5467210  69.9173320  12.8137120 105.7120670
  70.2244350  13.2849800 107.1175830  66.9384790  10.4728710  99.6637260
  66.0114070  10.4066090  99.8925730  67.0909610  11.4108840  99.5492500
  66.9253870   6.7445710  96.6604420  65.9857540   6.9059670  96.7456880
  67.2437130   7.4631390  96.1140410  73.4466630  11.4264230 106.6383450
  72.6185260  11.4957320 106.1633580  74.0417110  12.0118540 106.1699280
  70.9682080  12.0349010 100.1672510  70.3494500  11.6968560  99.5198810
  70.9506530  11.3908770 100.8751700  70.4108640   8.2133550 107.5838320
  69.9979820   9.0387260 107.8378310  69.6784590   7.6278590 107.3914680
  62.5441430  10.9993450 102.4456990  62.1398430  10.2870700 101.9502890
  62.6304550  10.6546690 103.3345030  63.0123130  14.6861010 104.6096200
  62.7151420  14.0806480 103.9303980  63.9622950  14.7238320 104.4985560
  61.2570050   7.7736660 106.2256030  61.8084640   7.8832000 105.4509280
  61.7713560   8.1474260 106.9411260  71.1008740  18.2592880 108.2719300
  70.6239300  19.0665070 108.0791910  70.4170530  17.6071210 108.4245510
  62.1041560  14.4242700 111.2604000  61.2070090  14.6482670 111.5077400
  62.1294430  14.5477640 110.3115400  69.1446780  11.2735820  97.1745260
  69.5840060  10.4358250  97.0283080  69.8575200  11.9065220  97.2609400
  60.9312780  11.2956020 109.8361370  60.7920550  12.1678820 110.2048770
  60.0494140  10.9528830 109.6909310  67.2542160  16.2131890 101.1426500
  67.6938070  16.9556220 100.7281890  67.1929050  16.4558460 102.0665460
  62.7293130  17.2377720 112.0446520  62.7008560  17.6420670 111.1774950
  62.5658100  16.3088080 111.8818120  72.7263920   2.5278630  95.4886300
  72.4136580   2.6205460  96.3885370  73.4876390   3.1059660  95.4383730
  59.2446060   9.8938430  99.9463640  59.1243660  10.6200520  99.3344910
  58.9346950   9.1241340  99.4691550  74.6807950  18.0204820 113.3410690
  75.1567670  18.4987710 114.0199770  75.3015110  17.9522310 112.6156190
  56.8831430  13.0653570 105.7532280  56.9611850  13.2002340 104.8088000
  57.4973110  12.3569460 105.9460400  58.1279060  14.7653760 102.1638460
  57.7207140  14.9068350 101.3092060  59.0192070  14.4813920 101.9609670
  74.0841200  15.2117670 110.5010700  74.2104260  14.9729550 109.5827880
  74.1262580  14.3802210 110.9732780  67.9457940  18.9145670 109.0705510
  68.4602610  18.8253680 109.8727940  67.1027020  19.2605370 109.3633420
  69.9212340  19.2001010  98.4989510  69.7613480  18.9103950  99.3971340
  69.7559050  18.4241140  97.9634740  62.4000720  18.9799540 100.2761130
  62.2243200  18.0635080 100.0628930  61.5456460  19.3386830 100.5158930
  69.6238470  16.7088570  97.0587510  68.9303630  16.7065860  96.3989790
  70.3661330  16.2847890  96.6281680  69.1888400  18.3351280 101.1336000
  69.6445350  17.5540660 101.4474620  69.5280920  19.0458100 101.6777180
  73.9365210   7.2650130 111.4660440  73.3209480   7.7729800 110.9375900
  73.6161630   6.3648460 111.4086380  56.9390950  14.1067740 108.2926740
  57.1021990  13.6373100 107.4746110  57.4043400  13.5991300 108.9575580
  61.7109720   3.2373500 103.3287310  61.2677870   4.0183040 102.9971830
  62.2694710   3.5603390 104.0358250  65.9979530   6.1042020 108.9322630
  65.5358900   6.3125040 109.7442570  65.5957640   5.2901370 108.6293300
  70.9984040   7.3250970 110.0619290  70.1477630   7.0256720 110.3828360
  70.8385830   7.5692980 109.1503110  68.0933750   8.8252720 112.1618080
  68.4187160   7.9916470 111.8220310  68.8814080   9.3481240 112.3096410
  64.8268540   2.8584200  98.2093140  64.2022720   2.8544070  98.9346450
  64.7398660   1.9915160  97.8129110  63.7485620   3.7820830 105.1876910
  64.0457950   4.6883660 105.1068930  64.2971180   3.2939610 104.5736480
  61.5023940   8.3607070 101.0568560  61.2764860   8.1444240 101.9615180
  60.7216470   8.7935530 100.7114530  68.7321700   8.3670440  99.6559210
  68.1330590   9.0906240  99.4722830  69.2801310   8.3047220  98.8735660
  63.9423150   9.2592650 111.7228830  63.8466750   8.3187380 111.5729230
  64.7855130   9.4807720 111.3276900  67.3386570   7.0033980 101.6862490
  67.7316140   7.3206180 100.8731180  67.7003420   6.1245860 101.8007010
  59.0733690   5.6706320 109.8762610  58.6797080   6.5181530 110.0835390
  58.3852090   5.0332690 110.0671250  65.6478740   5.7541290 112.9459350
  64.9577060   5.5613490 113.5805440  66.3911040   6.0375930 113.4783650
  56.3750740   3.5934780 103.9092690  56.0863790   4.1637640 104.6217670
  57.1196500   3.1139230 104.2723920  56.5620970   7.5354900  95.1195410
  56.4795640   8.4785660  95.2610400  56.2104030   7.3929810  94.2407760
  67.9241710   9.5939730 105.7813270  67.1922830  10.1026540 106.1303370
  67.5266050   8.7769710 105.4802050  64.3619100   6.2693930 104.1865760
  64.3655160   5.8283880 103.3370300  65.2570220   6.5911260 104.2937580
  60.2121480   6.1520420 103.1459970  59.8721530   6.6295650 103.9027020
  59.4498800   5.6985540 102.7861070  64.4239250   7.2706010  97.1772520
  64.5452070   7.2292490  98.1258340  64.0387760   8.1330160  97.0219250
  68.3867620   5.0473410 105.1936210  68.4040360   5.4982060 106.0378060
  68.1383200   4.1479050 105.4069650  63.4360750   9.5807150  96.5755820
  62.8677650   9.1325400  95.9491730  64.1449750   9.9399930  96.0420970
  71.8138370   2.4605590 111.0322590  72.1384140   1.7295250 111.5580570
  71.8494880   2.1419230 110.1303580  58.5129930  13.4819170 110.4522550
  58.1284720  12.8412840 111.0505510  58.8242120  14.1855290 111.0217280
  64.6627070  10.3295710 105.9331170  65.0297200   9.8554280 106.6792510
  64.4732130  11.2037280 106.2739510  57.5267560   5.0739400 102.0624640
  57.2414480   4.7095070 102.9003260  57.4646420   4.3419860 101.4487780
  62.4526440   9.3704350 108.2515380  62.1483510  10.2496330 108.4765740
  63.4072900   9.4304140 108.2872820  60.9808230  13.5765340  98.8482230
  60.2070490  13.0362960  98.6880950  61.7102860  13.0571950  98.5099990
  71.7396210  12.5730700 104.6408620  72.4595330  13.0685990 104.2504730
  71.5378030  11.8948590 103.9962490  67.2006150   3.9668660  98.7838010
  66.3870760   3.4681830  98.7083320  67.0068100   4.8066910  98.3674360
  67.1215010  12.6439760 110.5277620  67.0552320  11.7235430 110.2735210
  66.4920150  12.7415200 111.2422260  69.9154540   8.3388310  97.0800170
  70.8034160   8.6505540  96.9051510  69.8859630   7.4660560  96.6880750
  61.0245630  13.2445720 102.4861040  61.5424300  12.4413980 102.4317930
  60.5729650  13.1824860 103.3277870  65.9115130  14.5112000  97.7588340
  66.2530830  15.2554230  97.2631660  65.0827840  14.8243120  98.1213170
  58.5090170  10.2107090 109.3986740  58.1505110  10.8760940 109.9860080
  58.2144730   9.3790640 109.7699360  61.7103290  10.6691330 112.2826290
  61.4103430  10.8148510 111.3854110  62.4814530  10.1096620 112.1899680
  67.0531740  15.4660330 110.2781420  67.0676280  14.5341290 110.0600330
  66.3456840  15.5520090 110.9171190  72.1868810   9.6500150  96.5480030
  72.1032530  10.0814370  95.6976470  72.9063000  10.1098500  96.9806850
  73.2642950  12.1067670 109.6250000  72.5391140  12.6996450 109.4279390
  73.7918410  12.0991210 108.8263370  73.2156060  16.5042410  99.2762160
  72.5732220  15.8498030  99.5505880  72.8286720  16.9097500  98.5002830
  68.7942540  13.8327840 103.1233850  69.1466360  13.2355970 102.4635220
  67.9104870  13.5072070 103.2942100  64.8805820  14.5925530 100.5304260
  65.5676950  15.1394740 100.9111850  64.0938240  15.1366260 100.5653870
  57.0198220  10.2098350  96.0221340  57.8893070  10.4923150  96.3057260
  56.5288540  11.0234220  95.9070150  64.1833030  11.5971560 100.1429620
  64.6395810  12.4076810 100.3689810  63.8321240  11.2794700 100.9748110
  66.4865640  17.1077900 107.3721920  67.1307860  17.3137280 108.0495340
  66.8495080  16.3466300 106.9192770  60.0844810   1.9409210 100.6152140
  59.9559440   1.9327110 101.5637060  59.2606830   2.2792300 100.2643150
  67.7597720  15.1110250 106.0899370  68.4019950  14.4103410 106.2031540
  68.2847070  15.8908690 105.9096260  71.6053440  15.3958870  95.8138510
  71.3791020  14.6789310  96.4063150  71.2149640  15.1471310  94.9760260
  69.5335340  15.9105150 109.2935430  69.8691580  16.4971840 109.9713350
  68.6135680  15.7797860 109.5233220  57.3869470  19.4225730  96.5882970
  57.7467110  20.0215070  95.9340240  57.2461810  19.9685620  97.3618000
  57.0838740   3.7000330 110.0758840  56.3697260   3.8997250 110.6811450
  57.5033780   2.9239900 110.4473640  71.1869690  13.3130810  97.4752670
  70.8991390  13.7743500  98.2630550  71.9821860  12.8528580  97.7436890
  57.3711330  17.6880590 111.0625370  57.4802450  16.7475330 110.9220760
  56.7191890  17.9535340 110.4139100  65.3623920  15.9596480 112.4623490
  65.0420790  15.2405720 113.0069180  64.6882280  16.6351550 112.5359550
  63.4038090  16.8056930  97.4056640  63.3948190  17.5386620  96.7901150
  62.4836450  16.5588510  97.4983600  59.0044730  12.0271820  98.1503400
  58.3972680  12.7670720  98.1598700  59.4794080  12.1171180  97.3241600
  68.5777520   6.1922640 107.8260290  68.9458340   5.3717850 108.1539860
  67.7175720   6.2524530 108.2415940  71.9439550   5.1479580  98.6347850
  71.3152710   5.2525250  97.9206080  71.4491470   5.3676360  99.4241730
  66.3897690  16.8685170  96.0681830  66.4909670  16.6649160  95.1383810
  65.4899430  16.6143450  96.2729610  63.9123580   7.4265530 100.0505730
  63.2039730   7.8951870 100.4919340  64.1968060   6.7687540 100.6850920
  65.5379510   8.8462230 108.0498260  66.0364760   9.3208050 108.7150110
  65.6802460   7.9225750 108.2568290  67.9439010   4.1516190 101.4901520
  67.8206790   4.1702320 100.5411030  68.8923570   4.1995130 101.6099920
  65.0315800  19.3871490 100.7629500  65.2857300  19.3492880  99.8408870
  64.0828280  19.2604820 100.7557750  62.1158600   5.7350610  97.4256440
  62.9649130   6.1720760  97.3596630  61.7489870   6.0470870  98.2528500
  72.7446370   5.0630190 108.8926650  72.2419970   5.8035590 109.2320460
  73.5603030   5.4514190 108.5763440  71.0368380  10.3063370 102.3388010
  70.0958520  10.3213600 102.5135700  71.3512450   9.5199330 102.7848310
  61.0150020  11.9882970  95.8991970  61.7813290  11.8764330  96.4617400
  61.0924710  11.2920940  95.2468740  59.7096780   9.4208040  96.5824860
  59.7900370   8.4735550  96.6942260  60.6016530   9.7514920  96.6885520
  73.0393960  17.4772220 104.0142270  73.1641380  18.3003390 104.4866080
  73.9059520  17.2662950 103.6666420  60.5111490  19.5703430 103.6859400
  61.2473970  19.0218890 103.9567970  60.8952410  20.4359440 103.5465390
  57.3956970  15.6377000  99.5600910  56.4696750  15.8798140  99.5506320
  57.8613400  16.4651260  99.4385660  59.5169770  18.7549500 112.8744980
  60.3182500  19.0761550 113.2880380  59.0021590  18.3945080 113.5964890
  63.6213800  18.7433740  95.5084970  64.4142410  19.0322570  95.0566760
  63.1018150  18.3125910  94.8297450  68.3534400  14.8629370 112.8220390
  67.7472560  14.8860970 112.0816140  68.0488510  14.1312410 113.3587640
  69.7834770  18.5909660 111.4329800  70.7356520  18.5067680 111.3830040
  69.6362990  19.2551370 112.1063590  72.6743970  17.9703870  96.9321710
  72.3885480  17.5569010  96.1175890  72.4763520  18.8991580  96.8122230
  57.2367580  11.2422960 111.8181030  57.7406600  10.6630240 112.3897260
  56.4975000  11.5263190 112.3557400  64.1391200  13.9637150  95.3727320
  64.0341840  13.3489500  96.0988700  63.9715420  13.4403040  94.5890330
  64.2905520  12.6493950 111.3516550  63.5251190  13.2178950 111.2671220
  64.4721480  12.3570160 110.4584780  67.3793930  13.0257180  95.9769310
  66.8304030  13.4726480  96.6212050  68.0013190  12.5206430  96.5006980
  71.4328870  14.3799280 111.9091570  72.1738340  14.7175040 111.4059030
  70.6701550  14.5491340 111.3561340  59.2690660   9.3852550 112.7131100
  59.3096000   9.0866420 113.6216330  60.1236160   9.7860160 112.5538620
  63.0469050  11.9848100  97.8734610  63.4685470  11.8187970  98.7166000
  63.1719890  11.1748330  97.3789750  61.2096470   7.9644650 110.6805590
  60.6792930   7.4735600 110.0528930  61.8784540   8.3928850 110.1463520
  65.5596690  11.0085710  95.1211710  66.0802350  10.2934730  94.7552860
  66.2065090  11.6471580  95.4212220  70.1074530  12.4314110 110.4446780
  70.5215550  12.5859190 111.2937200  69.1725530  12.5569330 110.6072560
  70.5796700   9.7710270 112.4485930  71.1617470   9.0162590 112.3606410
  70.7558470  10.3017710 111.6717410  61.6968770   4.9307020 110.7602880
  61.6025640   4.3127770 110.0353750  61.1166160   5.6573310 110.5332790
  64.4630210   3.4880260 107.7930270  64.0147510   3.5104520 106.9475820
  63.8295410   3.0899280 108.3900570  64.8689760  12.3834590 108.4142710
  65.2877870  13.2267320 108.2418950  63.9498390  12.5206630 108.1849490
  67.2053660  10.1150770 109.7980550  67.3249870   9.5191910 110.5375390
  68.0647660  10.1520460 109.3781850  69.5441560  10.6687960 108.3743060
  69.0176780  11.1930580 107.7708200  69.8872900  11.3015350 109.0052790
  61.9427950   8.0581330  94.8192770  61.7417010   7.1948690  95.1806110
  61.7720000   7.9714690  93.8814370  62.7197180  18.6887600 109.5300440
  62.1818270  19.4133660 109.2109140  62.9731140  18.2117940 108.7397780
  63.9722430   6.6572120 111.0556370  64.5622120   6.3487970 111.7434190
  63.1542670   6.1851870 111.2116270  68.7915860   6.2737930 111.2889390
  68.1031380   5.6119470 111.2239380  69.5121880   5.8276200 111.7337850
  69.4216260   2.8689560  97.3479650  69.7018550   2.0257460  97.7039070
  68.6481990   3.1012670  97.8618400  60.7410750   5.1581950  94.8070650
  61.0436650   5.1649380  93.8989800  61.4805340   4.8079810  95.3038310
  65.5759390  19.9238810 109.7887090  65.5018090  20.8273950 110.0959460
  64.6738230  19.6050710 109.7609160  63.9595680   4.1016570  95.7926850
  63.6117680   3.4240560  95.2129300  64.1608450   3.6406080  96.6070240
  66.1244720  19.0897320  97.4113450  67.0195510  19.4282290  97.4332210
  66.1562350  18.3676730  96.7837730  59.7640880  14.4624370  95.6400450
  60.2015750  15.0054040  96.2958030  60.2488610  13.6371320  95.6496790
  56.9786680  17.2513400 103.0920710  57.3089690  16.3834460 102.8599350
  57.4077680  17.4571920 103.9225670  61.5748600  15.5822410 100.7522680
  61.2744140  15.4587380 101.6526590  61.4686090  14.7231000 100.3438410
  57.4676890  18.1183990 105.8302340  57.0307880  18.2984790 106.6626490
  58.0354570  18.8758610 105.6884060  73.1039070  17.6200990 110.1179650
  72.5041060  17.6793550 109.3743570  73.2332970  16.6805970 110.2476500
  74.3440520  15.3618810  95.4549360  73.5133480  15.4295460  95.9256590
  74.5212350  16.2522930  95.1516220  73.7996980  12.1066290  97.9583560
  74.5615890  12.6762940  98.0643250  73.8151350  11.5393490  98.7291870
  57.3001320  10.6304220 102.1891220  56.6450160  10.3615860 101.5450920
  58.1379270  10.5208700 101.7393200  74.8056950  12.9616390 102.8025490
  75.1765780  12.1783710 102.3961460  75.4458880  13.6505490 102.6242790
  71.7890710  14.3452970 108.2155810  70.9750550  14.7750130 108.4781600
  72.1964910  14.9571380 107.6024860  73.8516150  12.4000660  95.1156080
  74.1264990  13.3079540  94.9875300  73.6626890  12.3363190  96.0518070
  70.2491760   5.4245510  96.4109710  70.6676640   5.2376490  95.5706370
  69.9427820   4.5724560  96.7212640  73.7481490  10.3369650 100.1085510
  73.3725090   9.5697580  99.6766800  73.0184610  10.7192350 100.5960440
  58.3377250  11.0156790 106.7294560  58.7050290  10.9284190 107.6090580
  57.7688070  10.2523340 106.6301420  73.1381110   9.4841170 109.7425030
  72.9067200   9.2553920 108.8422980  73.3985660  10.4040720 109.6969920
  57.8893250   7.9265880 110.6352980  56.9949300   7.8932640 110.9746690
  58.4290800   8.1252670 111.4004230  71.5769180   4.7097600 112.5204730
  72.4539360   4.7181000 112.9038730  71.5890020   3.9728440 111.9097080
  56.5139400   7.8403150  98.1316550  55.6103480   8.1033350  97.9568210
  56.9980020   8.1114320  97.3516510  73.0232450   8.5627140 103.4092750
  73.5469930   8.0689790 102.7782920  73.6091870   8.6977500 104.1540320
  73.2022170   8.6467010 106.9312300  72.2524880   8.6130550 107.0457290
  73.3835180   9.5567120 106.6962070  59.0566610   6.8968690  96.0410930
  59.7658310   6.4751910  95.5558210  58.3406550   6.9643920  95.4094280
  58.7040770   2.9508020  95.0813580  59.4268900   3.4916960  95.3994800
  58.9765290   2.6771440  94.2055120  72.5132420   7.8200490  99.3485160
  73.0091540   7.5871360 100.1334040  72.3148490   6.9812330  98.9322800
  58.3932960   2.2014210 104.9836200  59.0409150   1.6511590 104.5431360
  58.8134800   2.4557360 105.8052010  73.9419580   6.4561440 101.8822840
  73.8318860   6.3017480 102.8205110  74.7027170   5.9282380 101.6398250
  72.2885300   2.3955570 108.3405840  72.9257520   3.0089710 108.7065030
  72.4360190   2.4316230 107.3955070  74.8309850   4.2869360  95.1228980
  75.7559160   4.1550540  94.9147270  74.8085640   4.3662180  96.0765430
  74.9048340   5.0580020  97.7485690  74.1099840   4.9925140  98.2778600
  75.1091620   5.9930660  97.7371040  71.8466760  19.0971570 101.7424080
  72.4425830  18.7756140 101.0658500  72.1044910  18.6243390 102.5337350
  58.1464960   2.3569880 107.7261520  57.7979780   2.8133700 108.4919700
  57.8152660   1.4627010 107.8083950  59.7529330  15.5289480 111.8914710
  59.7098960  15.1582390 112.7729170  59.8840340  16.4667050 112.0316530
  63.4535360  17.0849070 107.4924430  63.2126720  17.3523630 106.6054950
  64.3938000  17.2554800 107.5475290  65.6589780   3.5481760 111.2480940
  65.5978670   4.1403590 111.9976350  66.5990160   3.4407720 111.1031200
  68.2964340   3.2051820 110.8873230  68.9104750   3.5231110 110.2254310
  68.8413900   2.7200410 111.5069090  74.7139520  19.1043450 108.2935070
  74.2197800  19.5012320 107.5762200  74.1052810  18.4792660 108.6872350
  59.5917360  18.4751730 109.0112490  58.9977680  18.3436430 109.7502530
  59.5841200  17.6389870 108.5454590  69.9444360   3.9754830 108.5984240
  69.6157720   3.1606590 108.2185970  70.8926660   3.9324640 108.4749930
  72.3978970  19.7466870 105.5721810  71.9381940  20.4982680 105.1979830
  71.7691430  19.0273340 105.5136610  59.2229590  15.8410110 107.9620530
  58.4963650  15.2215400 107.8946480  59.2838740  16.2350720 107.0918610
  62.8274690  18.0555110 104.7469940  63.3439710  17.4442470 104.2218200
  63.4772070  18.5583890 105.2380950  65.5670190  18.9463600 105.5738920
  65.8548000  18.6917900 104.6971930  66.0793410  18.3940960 106.1644490
  66.7847200   2.6853800 106.1535430  66.0018990   3.1599300 106.4332190
  66.4910130   1.7808630 106.0448610  71.3368270   3.3876900 104.1984520
  71.7776360   3.3322000 103.3506120  71.0675860   4.3034910 104.2694700
  73.2006840   3.0192140 102.2093340  73.1395240   2.0753360 102.0624360
  73.9798870   3.1272230 102.7546800  57.5059590  19.1584500 101.1717290
  57.3381630  18.5255180 101.8699180  56.6394100  19.3643900 100.8211480
  58.1287610   2.9901280  98.6749150  58.8866970   3.1030160  98.1013180
  57.6664780   3.8270480  98.6292580  64.6701420   5.1040550 101.6651460
  63.8575930   4.7297440 101.3247340  65.1743060   4.3485630 101.9672650
  69.1726400   1.7683000 102.9034530  69.7755770   2.3403210 103.3783050
  68.4319390   2.3322440 102.6808430  72.3161000   2.1704560  98.1774810
  72.5111630   3.0688010  98.4442240  71.5290870   1.9391640  98.6707760
  59.1122290  17.8517730  98.6167430  58.5869910  18.2325760  97.9129390
  59.0366870  18.4768500  99.3377140  60.5012760   3.5165330  97.2151120
  61.0305520   2.7295130  97.0859070  61.1341080   4.1956520  97.4486650
  62.6950600   3.2540470 100.2696510  62.0653340   2.5527780 100.4366640
  62.1555740   4.0144600 100.0529670  65.6342550  19.8679700 112.9407120
  66.5609860  19.6323970 112.9843080  65.6192980  20.6951700 112.4593150
  73.8687610  19.4105270  99.9381370  74.0439800  18.7243010  99.2942290
  73.1709180  19.9352320  99.5458040  62.8206160   2.5324450 112.7049000
  62.5390430   3.0358050 111.9409820  63.2025860   1.7346200 112.3391130
  61.7115260  19.8000110  97.4916680  62.4434080  19.5159390  96.9440570
  61.9708930  19.5613390  98.3816060  60.8730050  15.9164840  97.4963010
  60.2438930  16.3849940  98.0448840  60.9877880  15.0714060  97.9309200
  69.4221620   1.9478030 113.2829470  69.3087070   2.2672640 114.1780990
  70.2391360   2.3490540 112.9866750  72.2020110  19.0949560 112.7648160
  72.9945430  18.5998790 112.5574120  72.4953260  19.7739700 113.3723770
  68.3279770   9.9670500  83.6464210  68.2473820   9.0525110  83.3755920
  67.9144190  10.4637570  82.9403920  66.4597810  11.7449520  85.5273480
  65.6839910  11.2649960  85.8172050  67.1110740  11.0655170  85.3529640
  60.4763640  12.0569330  86.4049240  59.6448520  11.8018040  86.8045750
  61.0844620  12.1280100  87.1407160  70.4805240  16.1509710  84.3072610
  70.0186770  15.3796950  84.6359780  71.2930790  16.1775780  84.8125060
  60.4564900  16.0909420  86.6007260  60.7592940  15.2007160  86.4217480
  61.2008490  16.6479640  86.3729510  58.8855590   7.0171220  80.1891630
  57.9972290   7.3587190  80.0871510  59.1696780   6.8171540  79.2972460
  56.8488600   9.6176870  86.0731330  57.4204710   8.8499070  86.0734970
  56.8490140   9.9165630  85.1637940  66.7068550  18.4367720  83.9276600
  66.0879990  18.8925220  83.3571040  67.5620330  18.5919180  83.5266300
  65.9006800  14.4206710  85.5343640  65.8315080  13.4796650  85.3732770
  66.6626660  14.5108120  86.1066210  58.0913470   5.0261230  87.8600260
  57.9116310   4.1286980  88.1403020  57.6893550   5.5733100  88.5347210
  66.9311970   7.2277090  85.7612570  67.3076790   6.3548970  85.6486240
  66.8331480   7.5635790  84.8703010  61.0616980   5.6002720  81.2230010
  61.1683730   6.5006450  81.5298770  60.1509340   5.5520690  80.9324660
  70.7136090   4.7227530  82.6940910  71.5345710   4.2324100  82.7366390
  70.7470170   5.3125190  83.4472750  58.7100140   7.5221730  86.4682600
  59.3910250   7.7860100  87.0870000  58.3948190   6.6822600  86.8020610
  62.9024710   8.5689090  85.5555190  63.4102930   9.0670060  86.1960210
  63.4337950   7.7924290  85.3794550  75.0035640   6.7394280  89.2584540
  74.2987810   7.1275990  88.7399650  75.2693560   7.4344570  89.8605470
  61.1860810   3.2087650  89.8218610  61.1879250   3.7260040  89.0164510
  60.3565120   2.7317830  89.7988540  67.5731900  13.3206960  81.3208510
  66.9549170  13.7856410  80.7571230  68.0855150  14.0134440  81.7378020
  62.4363660  12.8482830  87.9992110  62.1033040  13.4751750  88.6413180
  62.6130340  13.3744710  87.2193780  70.9497570   6.6627910  85.4668450
  70.2453140   6.9512800  86.0471560  71.3109730   7.4728020  85.1068010
  60.8676140   4.9197610  87.8289060  61.2092950   5.7639660  87.5342930
  59.9291950   5.0681350  87.9454400  61.6482760  14.8163630  89.8141290
  62.2656760  15.4914710  89.5325740  60.7875880  15.2251610  89.7228790
  56.9415100  14.0063490  78.6948140  56.5643080  14.4950590  77.9633040
  57.1988170  14.6788770  79.3254670  72.5660350  16.2803040  87.7295930
  71.8823870  16.9502150  87.7212600  73.1054640  16.4783690  86.9640790
  74.0184490   6.1082700  85.8577660  73.0709400   6.1421680  85.9893090
  74.3434480   6.9221650  86.2427020  64.5504030   2.4079880  84.1533650
  64.8579010   1.8526770  83.4369150  63.6204730   2.5424340  83.9706640
  70.1019090  18.1247170  86.4441110  70.1146250  17.7209460  85.5763370
  69.5494310  18.8994460  86.3402540  69.5004530  13.0277010  87.7723720
  69.9173320  12.8137120  86.9377180  70.2244350  13.2849800  88.3432340
  66.9384790  10.4728710  80.8893770  66.0114070  10.4066090  81.1182240
  67.0909610  11.4108840  80.7749010  66.9253870   6.7445710  77.8860930
  65.9857540   6.9059670  77.9713390  67.2437130   7.4631390  77.3396920
  73.4466630  11.4264230  87.8639960  72.6185260  11.4957320  87.3890090
  74.0417110  12.0118540  87.3955790  70.4108640   8.2133550  88.8094830
  69.9979820   9.0387260  89.0634820  69.6784590   7.6278590  88.6171190
  62.5441430  10.9993450  83.6713500  62.1398430  10.2870700  83.1759400
  62.6304550  10.6546690  84.5601540  63.0123130  14.6861010  85.8352710
  62.7151420  14.0806480  85.1560490  63.9622950  14.7238320  85.7242070
  61.2570050   7.7736660  87.4512540  61.8084640   7.8832000  86.6765790
  61.7713560   8.1474260  88.1667770  71.1008740  18.2592880  89.4975810
  70.6239300  19.0665070  89.3048420  70.4170530  17.6071210  89.6502020
  62.1041560  14.4242700  92.4860510  61.2070090  14.6482670  92.7333910
  62.1294430  14.5477640  91.5371910  69.1446780  11.2735820  78.4001770
  69.5840060  10.4358250  78.2539590  69.8575200  11.9065220  78.4865910
  60.9312780  11.2956020  91.0617880  60.7920550  12.1678820  91.4305280
  60.0494140  10.9528830  90.9165820  67.2542160  16.2131890  82.3683010
  67.6938070  16.9556220  81.9538400  67.1929050  16.4558460  83.2921970
  62.7293130  17.2377720  93.2703030  62.7008560  17.6420670  92.4031460
  62.5658100  16.3088080  93.1074630  72.7263920   2.5278630  76.7142810
  72.4136580   2.6205460  77.6141880  73.4876390   3.1059660  76.6640240
  59.2446060   9.8938430  81.1720150  59.1243660  10.6200520  80.5601420
  58.9346950   9.1241340  80.6948060  56.8831430  13.0653570  86.9788790
  56.9611850  13.2002340  86.0344510  57.4973110  12.3569460  87.1716910
  58.1279060  14.7653760  83.3894970  57.7207140  14.9068350  82.5348570
  59.0192070  14.4813920  83.1866180  67.9457940  18.9145670  90.2962020
  68.4602610  18.8253680  91.0984450  67.1027020  19.2605370  90.5889930
  69.9212340  19.2001010  79.7246020  69.7613480  18.9103950  80.6227850
  69.7559050  18.4241140  79.1891250  62.4000720  18.9799540  81.5017640
  62.2243200  18.0635080  81.2885440  61.5456460  19.3386830  81.7415440
  69.1888400  18.3351280  82.3592510  69.6445350  17.5540660  82.6731130
  69.5280920  19.0458100  82.9033690  73.9365210   7.2650130  92.6916950
  73.3209480   7.7729800  92.1632410  73.6161630   6.3648460  92.6342890
  56.9390950  14.1067740  89.5183250  57.1021990  13.6373100  88.7002620
  57.4043400  13.5991300  90.1832090  61.7109720   3.2373500  84.5543820
  61.2677870   4.0183040  84.2228340  62.2694710   3.5603390  85.2614760
  65.9979530   6.1042020  90.1579140  65.5358900   6.3125040  90.9699080
  65.5957640   5.2901370  89.8549810  70.9984040   7.3250970  91.2875800
  70.1477630   7.0256720  91.6084870  70.8385830   7.5692980  90.3759620
  68.0933750   8.8252720  93.3874590  68.4187160   7.9916470  93.0476820
  68.8814080   9.3481240  93.5352920  64.8268540   2.8584200  79.4349650
  64.2022720   2.8544070  80.1602960  64.7398660   1.9915160  79.0385620
  63.7485620   3.7820830  86.4133420  64.0457950   4.6883660  86.3325440
  64.2971180   3.2939610  85.7992990  61.5023940   8.3607070  82.2825070
  61.2764860   8.1444240  83.1871690  60.7216470   8.7935530  81.9371040
  68.7321700   8.3670440  80.8815720  68.1330590   9.0906240  80.6979340
  69.2801310   8.3047220  80.0992170  63.9423150   9.2592650  92.9485340
  63.8466750   8.3187380  92.7985740  64.7855130   9.4807720  92.5533410
  67.3386570   7.0033980  82.9119000  67.7316140   7.3206180  82.0987690
  67.7003420   6.1245860  83.0263520  59.0733690   5.6706320  91.1019120
  58.6797080   6.5181530  91.3091900  58.3852090   5.0332690  91.2927760
  65.6478740   5.7541290  94.1715860  64.9577060   5.5613490  94.8061950
  66.3911040   6.0375930  94.7040160  56.3750740   3.5934780  85.1349200
  56.0863790   4.1637640  85.8474180  57.1196500   3.1139230  85.4980430
  56.5620970   7.5354900  76.3451920  56.4795640   8.4785660  76.4866910
  56.2104030   7.3929810  75.4664270  67.9241710   9.5939730  87.0069780
  67.1922830  10.1026540  87.3559880  67.5266050   8.7769710  86.7058560
  64.3619100   6.2693930  85.4122270  64.3655160   5.8283880  84.5626810
  65.2570220   6.5911260  85.5194090  60.2121480   6.1520420  84.3716480
  59.8721530   6.6295650  85.1283530  59.4498800   5.6985540  84.0117580
  64.4239250   7.2706010  78.4029030  64.5452070   7.2292490  79.3514850
  64.0387760   8.1330160  78.2475760  68.3867620   5.0473410  86.4192720
  68.4040360   5.4982060  87.2634570  68.1383200   4.1479050  86.6326160
  63.4360750   9.5807150  77.8012330  62.8677650   9.1325400  77.1748240
  64.1449750   9.9399930  77.2677480  71.8138370   2.4605590  92.2579100
  72.1384140   1.7295250  92.7837080  71.8494880   2.1419230  91.3560090
  58.5129930  13.4819170  91.6779060  58.1284720  12.8412840  92.2762020
  58.8242120  14.1855290  92.2473790  64.6627070  10.3295710  87.1587680
  65.0297200   9.8554280  87.9049020  64.4732130  11.2037280  87.4996020
  57.5267560   5.0739400  83.2881150  57.2414480   4.7095070  84.1259770
  57.4646420   4.3419860  82.6744290  62.4526440   9.3704350  89.4771890
  62.1483510  10.2496330  89.7022250  63.4072900   9.4304140  89.5129330
  60.9808230  13.5765340  80.0738740  60.2070490  13.0362960  79.9137460
  61.7102860  13.0571950  79.7356500  71.7396210  12.5730700  85.8665130
  72.4595330  13.0685990  85.4761240  71.5378030  11.8948590  85.2219000
  67.2006150   3.9668660  80.0094520  66.3870760   3.4681830  79.9339830
  67.0068100   4.8066910  79.5930870  67.1215010  12.6439760  91.7534130
  67.0552320  11.7235430  91.4991720  66.4920150  12.7415200  92.4678770
  69.9154540   8.3388310  78.3056680  70.8034160   8.6505540  78.1308020
  69.8859630   7.4660560  77.9137260  61.0245630  13.2445720  83.7117550
  61.5424300  12.4413980  83.6574440  60.5729650  13.1824860  84.5534380
  65.9115130  14.5112000  78.9844850  66.2530830  15.2554230  78.4888170
  65.0827840  14.8243120  79.3469680  58.5090170  10.2107090  90.6243250
  58.1505110  10.8760940  91.2116590  58.2144730   9.3790640  90.9955870
  61.7103290  10.6691330  93.5082800  61.4103430  10.8148510  92.6110620
  62.4814530  10.1096620  93.4156190  67.0531740  15.4660330  91.5037930
  67.0676280  14.5341290  91.2856840  66.3456840  15.5520090  92.1427700
  72.1868810   9.6500150  77.7736540  72.1032530  10.0814370  76.9232980
  72.9063000  10.1098500  78.2063360  73.2642950  12.1067670  90.8506510
  72.5391140  12.6996450  90.6535900  73.7918410  12.0991210  90.0519880
  68.7942540  13.8327840  84.3490360  69.1466360  13.2355970  83.6891730
  67.9104870  13.5072070  84.5198610  64.8805820  14.5925530  81.7560770
  65.5676950  15.1394740  82.1368360  64.0938240  15.1366260  81.7910380
  57.0198220  10.2098350  77.2477850  57.8893070  10.4923150  77.5313770
  56.5288540  11.0234220  77.1326660  64.1833030  11.5971560  81.3686130
  64.6395810  12.4076810  81.5946320  63.8321240  11.2794700  82.2004620
  66.4865640  17.1077900  88.5978430  67.1307860  17.3137280  89.2751850
  66.8495080  16.3466300  88.1449280  60.0844810   1.9409210  81.8408650
  59.9559440   1.9327110  82.7893570  59.2606830   2.2792300  81.4899660
  67.7597720  15.1110250  87.3155880  68.4019950  14.4103410  87.4288050
  68.2847070  15.8908690  87.1352770  69.5335340  15.9105150  90.5191940
  69.8691580  16.4971840  91.1969860  68.6135680  15.7797860  90.7489730
  57.0838740   3.7000330  91.3015350  56.3697260   3.8997250  91.9067960
  57.5033780   2.9239900  91.6730150  57.3711330  17.6880590  92.2881880
  57.4802450  16.7475330  92.1477270  56.7191890  17.9535340  91.6395610
  65.3623920  15.9596480  93.6880000  65.0420790  15.2405720  94.2325690
  64.6882280  16.6351550  93.7616060  63.4038090  16.8056930  78.6313150
  63.3948190  17.5386620  78.0157660  62.4836450  16.5588510  78.7240110
  59.0044730  12.0271820  79.3759910  58.3972680  12.7670720  79.3855210
  59.4794080  12.1171180  78.5498110  68.5777520   6.1922640  89.0516800
  68.9458340   5.3717850  89.3796370  67.7175720   6.2524530  89.4672450
  71.9439550   5.1479580  79.8604360  71.3152710   5.2525250  79.1462590
  71.4491470   5.3676360  80.6498240  66.3897690  16.8685170  77.2938340
  66.4909670  16.6649160  76.3640320  65.4899430  16.6143450  77.4986120
  63.9123580   7.4265530  81.2762240  63.2039730   7.8951870  81.7175850
  64.1968060   6.7687540  81.9107430  65.5379510   8.8462230  89.2754770
  66.0364760   9.3208050  89.9406620  65.6802460   7.9225750  89.4824800
  67.9439010   4.1516190  82.7158030  67.8206790   4.1702320  81.7667540
  68.8923570   4.1995130  82.8356430  65.0315800  19.3871490  81.9886010
  65.2857300  19.3492880  81.0665380  64.0828280  19.2604820  81.9814260
  62.1158600   5.7350610  78.6512950  62.9649130   6.1720760  78.5853140
  61.7489870   6.0470870  79.4785010  72.7446370   5.0630190  90.1183160
  72.2419970   5.8035590  90.4576970  73.5603030   5.4514190  89.8019950
  71.0368380  10.3063370  83.5644520  70.0958520  10.3213600  83.7392210
  71.3512450   9.5199330  84.0104820  61.0150020  11.9882970  77.1248480
  61.7813290  11.8764330  77.6873910  61.0924710  11.2920940  76.4725250
  59.7096780   9.4208040  77.8081370  59.7900370   8.4735550  77.9198770
  60.6016530   9.7514920  77.9142030  73.0393960  17.4772220  85.2398780
  73.1641380  18.3003390  85.7122590  73.9059520  17.2662950  84.8922930
  57.3956970  15.6377000  80.7857420  56.4696750  15.8798140  80.7762830
  57.8613400  16.4651260  80.6642170  59.5169770  18.7549500  94.1001490
  60.3182500  19.0761550  94.5136890  59.0021590  18.3945080  94.8221400
  63.6213800  18.7433740  76.7341480  64.4142410  19.0322570  76.2823270
  63.1018150  18.3125910  76.0553960  68.3534400  14.8629370  94.0476900
  67.7472560  14.8860970  93.3072650  68.0488510  14.1312410  94.5844150
  69.7834770  18.5909660  92.6586310  70.7356520  18.5067680  92.6086550
  69.6362990  19.2551370  93.3320100  57.2367580  11.2422960  93.0437540
  57.7406600  10.6630240  93.6153770  56.4975000  11.5263190  93.5813910
  64.1391200  13.9637150  76.5983830  64.0341840  13.3489500  77.3245210
  63.9715420  13.4403040  75.8146840  64.2905520  12.6493950  92.5773060
  63.5251190  13.2178950  92.4927730  64.4721480  12.3570160  91.6841290
  67.3793930  13.0257180  77.2025820  66.8304030  13.4726480  77.8468560
  68.0013190  12.5206430  77.7263490  71.4328870  14.3799280  93.1348080
  72.1738340  14.7175040  92.6315540  70.6701550  14.5491340  92.5817850
  59.2690660   9.3852550  93.9387610  59.3096000   9.0866420  94.8472840
  60.1236160   9.7860160  93.7795130  63.0469050  11.9848100  79.0991120
  63.4685470  11.8187970  79.9422510  63.1719890  11.1748330  78.6046260
  61.2096470   7.9644650  91.9062100  60.6792930   7.4735600  91.2785440
  61.8784540   8.3928850  91.3720030  65.5596690  11.0085710  76.3468220
  66.0802350  10.2934730  75.9809370  66.2065090  11.6471580  76.6468730
  70.1074530  12.4314110  91.6703290  70.5215550  12.5859190  92.5193710
  69.1725530  12.5569330  91.8329070  70.5796700   9.7710270  93.6742440
  71.1617470   9.0162590  93.5862920  70.7558470  10.3017710  92.8973920
  61.6968770   4.9307020  91.9859390  61.6025640   4.3127770  91.2610260
  61.1166160   5.6573310  91.7589300  64.4630210   3.4880260  89.0186780
  64.0147510   3.5104520  88.1732330  63.8295410   3.0899280  89.6157080
  64.8689760  12.3834590  89.6399220  65.2877870  13.2267320  89.4675460
  63.9498390  12.5206630  89.4106000  67.2053660  10.1150770  91.0237060
  67.3249870   9.5191910  91.7631900  68.0647660  10.1520460  90.6038360
  69.5441560  10.6687960  89.5999570  69.0176780  11.1930580  88.9964710
  69.8872900  11.3015350  90.2309300  61.9427950   8.0581330  76.0449280
  61.7417010   7.1948690  76.4062620  61.7720000   7.9714690  75.1070880
  62.7197180  18.6887600  90.7556950  62.1818270  19.4133660  90.4365650
  62.9731140  18.2117940  89.9654290  63.9722430   6.6572120  92.2812880
  64.5622120   6.3487970  92.9690700  63.1542670   6.1851870  92.4372780
  68.7915860   6.2737930  92.5145900  68.1031380   5.6119470  92.4495890
  69.5121880   5.8276200  92.9594360  69.4216260   2.8689560  78.5736160
  69.7018550   2.0257460  78.9295580  68.6481990   3.1012670  79.0874910
  60.7410750   5.1581950  76.0327160  61.0436650   5.1649380  75.1246310
  61.4805340   4.8079810  76.5294820  65.5759390  19.9238810  91.0143600
  65.5018090  20.8273950  91.3215970  64.6738230  19.6050710  90.9865670
  63.9595680   4.1016570  77.0183360  63.6117680   3.4240560  76.4385810
  64.1608450   3.6406080  77.8326750  66.1244720  19.0897320  78.6369960
  67.0195510  19.4282290  78.6588720  66.1562350  18.3676730  78.0094240
  59.7640880  14.4624370  76.8656960  60.2015750  15.0054040  77.5214540
  60.2488610  13.6371320  76.8753300  56.9786680  17.2513400  84.3177220
  57.3089690  16.3834460  84.0855860  57.4077680  17.4571920  85.1482180
  61.5748600  15.5822410  81.9779190  61.2744140  15.4587380  82.8783100
  61.4686090  14.7231000  81.5694920  57.4676890  18.1183990  87.0558850
  57.0307880  18.2984790  87.8883000  58.0354570  18.8758610  86.9140570
  73.1039070  17.6200990  91.3436160  72.5041060  17.6793550  90.6000080
  73.2332970  16.6805970  91.4733010  57.3001320  10.6304220  83.4147730
  56.6450160  10.3615860  82.7707430  58.1379270  10.5208700  82.9649710
  74.8056950  12.9616390  84.0282000  75.1765780  12.1783710  83.6217970
  75.4458880  13.6505490  83.8499300  71.7890710  14.3452970  89.4412320
  70.9750550  14.7750130  89.7038110  72.1964910  14.9571380  88.8281370
  70.2491760   5.4245510  77.6366220  70.6676640   5.2376490  76.7962880
  69.9427820   4.5724560  77.9469150  58.3377250  11.0156790  87.9551070
  58.7050290  10.9284190  88.8347090  57.7688070  10.2523340  87.8557930
  73.1381110   9.4841170  90.9681540  72.9067200   9.2553920  90.0679490
  73.3985660  10.4040720  90.9226430  57.8893250   7.9265880  91.8609490
  56.9949300   7.8932640  92.2003200  58.4290800   8.1252670  92.6260740
  71.5769180   4.7097600  93.7461240  72.4539360   4.7181000  94.1295240
  71.5890020   3.9728440  93.1353590  56.5139400   7.8403150  79.3573060
  55.6103480   8.1033350  79.1824720  56.9980020   8.1114320  78.5773020
  73.0232450   8.5627140  84.6349260  73.5469930   8.0689790  84.0039430
  73.6091870   8.6977500  85.3796830  73.2022170   8.6467010  88.1568810
  72.2524880   8.6130550  88.2713800  73.3835180   9.5567120  87.9218580
  59.0566610   6.8968690  77.2667440  59.7658310   6.4751910  76.7814720
  58.3406550   6.9643920  76.6350790  58.7040770   2.9508020  76.3070090
  59.4268900   3.4916960  76.6251310  58.9765290   2.6771440  75.4311630
  72.5132420   7.8200490  80.5741670  73.0091540   7.5871360  81.3590550
  72.3148490   6.9812330  80.1579310  58.3932960   2.2014210  86.2092710
  59.0409150   1.6511590  85.7687870  58.8134800   2.4557360  87.0308520
  73.9419580   6.4561440  83.1079350  73.8318860   6.3017480  84.0461620
  74.7027170   5.9282380  82.8654760  72.2885300   2.3955570  89.5662350
  72.9257520   3.0089710  89.9321540  72.4360190   2.4316230  88.6211580
  74.8309850   4.2869360  76.3485490  75.7559160   4.1550540  76.1403780
  74.8085640   4.3662180  77.3021940  74.9048340   5.0580020  78.9742200
  74.1099840   4.9925140  79.5035110  75.1091620   5.9930660  78.9627550
  71.8466760  19.0971570  82.9680590  72.4425830  18.7756140  82.2915010
  72.1044910  18.6243390  83.7593860  58.1464960   2.3569880  88.9518030
  57.7979780   2.8133700  89.7176210  57.8152660   1.4627010  89.0340460
  59.7529330  15.5289480  93.1171220  59.7098960  15.1582390  93.9985680
  59.8840340  16.4667050  93.2573040  63.4535360  17.0849070  88.7180940
  63.2126720  17.3523630  87.8311460  64.3938000  17.2554800  88.7731800
  65.6589780   3.5481760  92.4737450  65.5978670   4.1403590  93.2232860
  66.5990160   3.4407720  92.3287710  68.2964340   3.2051820  92.1129740
  68.9104750   3.5231110  91.4510820  68.8413900   2.7200410  92.7325600
  59.5917360  18.4751730  90.2369000  58.9977680  18.3436430  90.9759040
  59.5841200  17.6389870  89.7711100  69.9444360   3.9754830  89.8240750
  69.6157720   3.1606590  89.4442480  70.8926660   3.9324640  89.7006440
  72.3978970  19.7466870  86.7978320  71.9381940  20.4982680  86.4236340
  71.7691430  19.0273340  86.7393120  59.2229590  15.8410110  89.1877040
  58.4963650  15.2215400  89.1202990  59.2838740  16.2350720  88.3175120
  62.8274690  18.0555110  85.9726450  63.3439710  17.4442470  85.4474710
  63.4772070  18.5583890  86.4637460  65.5670190  18.9463600  86.7995430
  65.8548000  18.6917900  85.9228440  66.0793410  18.3940960  87.3901000
  66.7847200   2.6853800  87.3791940  66.0018990   3.1599300  87.6588700
  66.4910130   1.7808630  87.2705120  71.3368270   3.3876900  85.4241030
  71.7776360   3.3322000  84.5762630  71.0675860   4.3034910  85.4951210
  73.2006840   3.0192140  83.4349850  73.1395240   2.0753360  83.2880870
  73.9798870   3.1272230  83.9803310  57.5059590  19.1584500  82.3973800
  57.3381630  18.5255180  83.0955690  56.6394100  19.3643900  82.0467990
  58.1287610   2.9901280  79.9005660  58.8866970   3.1030160  79.3269690
  57.6664780   3.8270480  79.8549090  64.6701420   5.1040550  82.8907970
  63.8575930   4.7297440  82.5503850  65.1743060   4.3485630  83.1929160
  69.1726400   1.7683000  84.1291040  69.7755770   2.3403210  84.6039560
  68.4319390   2.3322440  83.9064940  72.3161000   2.1704560  79.4031320
  72.5111630   3.0688010  79.6698750  71.5290870   1.9391640  79.8964270
  59.1122290  17.8517730  79.8423940  58.5869910  18.2325760  79.1385900
  59.0366870  18.4768500  80.5633650  60.5012760   3.5165330  78.4407630
  61.0305520   2.7295130  78.3115580  61.1341080   4.1956520  78.6743160
  62.6950600   3.2540470  81.4953020  62.0653340   2.5527780  81.6623150
  62.1555740   4.0144600  81.2786180  65.6342550  19.8679700  94.1663630
  66.5609860  19.6323970  94.2099590  65.6192980  20.6951700  93.6849660
  73.8687610  19.4105270  81.1637880  74.0439800  18.7243010  80.5198800
  73.1709180  19.9352320  80.7714550  62.8206160   2.5324450  93.9305510
  62.5390430   3.0358050  93.1666330  63.2025860   1.7346200  93.5647640
  61.7115260  19.8000110  78.7173190  62.4434080  19.5159390  78.1697080
  61.9708930  19.5613390  79.6072570  60.8730050  15.9164840  78.7219520
  60.2438930  16.3849940  79.2705350  60.9877880  15.0714060  79.1565710
  69.4221620   1.9478030  94.5085980  69.3087070   2.2672640  95.4037500
  70.2391360   2.3490540  94.2123260  68.3279770   9.9670500  64.8720720
  68.2473820   9.0525110  64.6012430  67.9144190  10.4637570  64.1660430
  66.4597810  11.7449520  66.7529990  65.6839910  11.2649960  67.0428560
  67.1110740  11.0655170  66.5786150  58.8855590   7.0171220  61.4148140
  57.9972290   7.3587190  61.3128020  59.1696780   6.8171540  60.5228970
  56.8488600   9.6176870  67.2987840  57.4204710   8.8499070  67.2991480
  56.8490140   9.9165630  66.3894450  66.7068550  18.4367720  65.1533110
  66.0879990  18.8925220  64.5827550  67.5620330  18.5919180  64.7522810
  65.9006800  14.4206710  66.7600150  65.8315080  13.4796650  66.5989280
  66.6626660  14.5108120  67.3322720  58.0913470   5.0261230  69.0856770
  57.9116310   4.1286980  69.3659530  57.6893550   5.5733100  69.7603720
  66.9311970   7.2277090  66.9869080  67.3076790   6.3548970  66.8742750
  66.8331480   7.5635790  66.0959520  61.0616980   5.6002720  62.4486520
  61.1683730   6.5006450  62.7555280  60.1509340   5.5520690  62.1581170
  70.7136090   4.7227530  63.9197420  71.5345710   4.2324100  63.9622900
  70.7470170   5.3125190  64.6729260  58.7100140   7.5221730  67.6939110
  59.3910250   7.7860100  68.3126510  58.3948190   6.6822600  68.0277120
  62.9024710   8.5689090  66.7811700  63.4102930   9.0670060  67.4216720
  63.4337950   7.7924290  66.6051060  75.0035640   6.7394280  70.4841050
  74.2987810   7.1275990  69.9656160  75.2693560   7.4344570  71.0861980
  61.1860810   3.2087650  71.0475120  61.1879250   3.7260040  70.2421020
  60.3565120   2.7317830  71.0245050  67.5731900  13.3206960  62.5465020
  66.9549170  13.7856410  61.9827740  68.0855150  14.0134440  62.9634530
  70.9497570   6.6627910  66.6924960  70.2453140   6.9512800  67.2728070
  71.3109730   7.4728020  66.3324520  60.8676140   4.9197610  69.0545570
  61.2092950   5.7639660  68.7599440  59.9291950   5.0681350  69.1710910
  56.9415100  14.0063490  59.9204650  56.5643080  14.4950590  59.1889550
  57.1988170  14.6788770  60.5511180  72.5660350  16.2803040  68.9552440
  71.8823870  16.9502150  68.9469110  73.1054640  16.4783690  68.1897300
  74.0184490   6.1082700  67.0834170  73.0709400   6.1421680  67.2149600
  74.3434480   6.9221650  67.4683530  64.5504030   2.4079880  65.3790160
  64.8579010   1.8526770  64.6625660  63.6204730   2.5424340  65.1963150
  69.5004530  13.0277010  68.9980230  69.9173320  12.8137120  68.1633690
  70.2244350  13.2849800  69.5688850  66.9384790  10.4728710  62.1150280
  66.0114070  10.4066090  62.3438750  67.0909610  11.4108840  62.0005520
  66.9253870   6.7445710  59.1117440  65.9857540   6.9059670  59.1969900
  67.2437130   7.4631390  58.5653430  73.4466630  11.4264230  69.0896470
  72.6185260  11.4957320  68.6146600  74.0417110  12.0118540  68.6212300
  70.9682080  12.0349010  62.6185530  70.3494500  11.6968560  61.9711830
  70.9506530  11.3908770  63.3264720  70.4108640   8.2133550  70.0351340
  69.9979820   9.0387260  70.2891330  69.6784590   7.6278590  69.8427700
  62.5441430  10.9993450  64.8970010  62.1398430  10.2870700  64.4015910
  62.6304550  10.6546690  65.7858050  61.2570050   7.7736660  68.6769050
  61.8084640   7.8832000  67.9022300  61.7713560   8.1474260  69.3924280
  71.1008740  18.2592880  70.7232320  70.6239300  19.0665070  70.5304930
  70.4170530  17.6071210  70.8758530  62.1041560  14.4242700  73.7117020
  61.2070090  14.6482670  73.9590420  62.1294430  14.5477640  72.7628420
  69.1446780  11.2735820  59.6258280  69.5840060  10.4358250  59.4796100
  69.8575200  11.9065220  59.7122420  60.9312780  11.2956020  72.2874390
  60.7920550  12.1678820  72.6561790  60.0494140  10.9528830  72.1422330
  67.2542160  16.2131890  63.5939520  67.6938070  16.9556220  63.1794910
  67.1929050  16.4558460  64.5178480  62.7293130  17.2377720  74.4959540
  62.7008560  17.6420670  73.6287970  62.5658100  16.3088080  74.3331140
  72.7263920   2.5278630  57.9399320  72.4136580   2.6205460  58.8398390
  73.4876390   3.1059660  57.8896750  59.2446060   9.8938430  62.3976660
  59.1243660  10.6200520  61.7857930  58.9346950   9.1241340  61.9204570
  74.6807950  18.0204820  75.7923710  75.1567670  18.4987710  76.4712790
  75.3015110  17.9522310  75.0669210  74.0841200  15.2117670  72.9523720
  74.2104260  14.9729550  72.0340900  74.1262580  14.3802210  73.4245800
  67.9457940  18.9145670  71.5218530  68.4602610  18.8253680  72.3240960
  67.1027020  19.2605370  71.8146440  69.9212340  19.2001010  60.9502530
  69.7613480  18.9103950  61.8484360  69.7559050  18.4241140  60.4147760
  62.4000720  18.9799540  62.7274150  62.2243200  18.0635080  62.5141950
  61.5456460  19.3386830  62.9671950  69.6238470  16.7088570  59.5100530
  68.9303630  16.7065860  58.8502810  70.3661330  16.2847890  59.0794700
  73.9365210   7.2650130  73.9173460  73.3209480   7.7729800  73.3888920
  73.6161630   6.3648460  73.8599400  61.7109720   3.2373500  65.7800330
  61.2677870   4.0183040  65.4484850  62.2694710   3.5603390  66.4871270
  65.9979530   6.1042020  71.3835650  65.5358900   6.3125040  72.1955590
  65.5957640   5.2901370  71.0806320  70.9984040   7.3250970  72.5132310
  70.1477630   7.0256720  72.8341380  70.8385830   7.5692980  71.6016130
  68.0933750   8.8252720  74.6131100  68.4187160   7.9916470  74.2733330
  68.8814080   9.3481240  74.7609430  64.8268540   2.8584200  60.6606160
  64.2022720   2.8544070  61.3859470  64.7398660   1.9915160  60.2642130
  63.7485620   3.7820830  67.6389930  64.0457950   4.6883660  67.5581950
  64.2971180   3.2939610  67.0249500  61.5023940   8.3607070  63.5081580
  61.2764860   8.1444240  64.4128200  60.7216470   8.7935530  63.1627550
  68.7321700   8.3670440  62.1072230  68.1330590   9.0906240  61.9235850
  69.2801310   8.3047220  61.3248680  63.9423150   9.2592650  74.1741850
  63.8466750   8.3187380  74.0242250  64.7855130   9.4807720  73.7789920
  67.3386570   7.0033980  64.1375510  67.7316140   7.3206180  63.3244200
  67.7003420   6.1245860  64.2520030  59.0733690   5.6706320  72.3275630
  58.6797080   6.5181530  72.5348410  58.3852090   5.0332690  72.5184270
  65.6478740   5.7541290  75.3972370  64.9577060   5.5613490  76.0318460
  66.3911040   6.0375930  75.9296670  56.3750740   3.5934780  66.3605710
  56.0863790   4.1637640  67.0730690  57.1196500   3.1139230  66.7236940
  56.5620970   7.5354900  57.5708430  56.4795640   8.4785660  57.7123420
  56.2104030   7.3929810  56.6920780  67.9241710   9.5939730  68.2326290
  67.1922830  10.1026540  68.5816390  67.5266050   8.7769710  67.9315070
  64.3619100   6.2693930  66.6378780  64.3655160   5.8283880  65.7883320
  65.2570220   6.5911260  66.7450600  60.2121480   6.1520420  65.5972990
  59.8721530   6.6295650  66.3540040  59.4498800   5.6985540  65.2374090
  64.4239250   7.2706010  59.6285540  64.5452070   7.2292490  60.5771360
  64.0387760   8.1330160  59.4732270  68.3867620   5.0473410  67.6449230
  68.4040360   5.4982060  68.4891080  68.1383200   4.1479050  67.8582670
  63.4360750   9.5807150  59.0268840  62.8677650   9.1325400  58.4004750
  64.1449750   9.9399930  58.4933990  71.8138370   2.4605590  73.4835610
  72.1384140   1.7295250  74.0093590  71.8494880   2.1419230  72.5816600
  64.6627070  10.3295710  68.3844190  65.0297200   9.8554280  69.1305530
  64.4732130  11.2037280  68.7252530  57.5267560   5.0739400  64.5137660
  57.2414480   4.7095070  65.3516280  57.4646420   4.3419860  63.9000800
  62.4526440   9.3704350  70.7028400  62.1483510  10.2496330  70.9278760
  63.4072900   9.4304140  70.7385840  60.9808230  13.5765340  61.2995250
  60.2070490  13.0362960  61.1393970  61.7102860  13.0571950  60.9613010
  71.7396210  12.5730700  67.0921640  72.4595330  13.0685990  66.7017750
  71.5378030  11.8948590  66.4475510  67.2006150   3.9668660  61.2351030
  66.3870760   3.4681830  61.1596340  67.0068100   4.8066910  60.8187380
  67.1215010  12.6439760  72.9790640  67.0552320  11.7235430  72.7248230
  66.4920150  12.7415200  73.6935280  69.9154540   8.3388310  59.5313190
  70.8034160   8.6505540  59.3564530  69.8859630   7.4660560  59.1393770
  61.0245630  13.2445720  64.9374060  61.5424300  12.4413980  64.8830950
  60.5729650  13.1824860  65.7790890  65.9115130  14.5112000  60.2101360
  66.2530830  15.2554230  59.7144680  65.0827840  14.8243120  60.5726190
  58.5090170  10.2107090  71.8499760  58.1505110  10.8760940  72.4373100
  58.2144730   9.3790640  72.2212380  61.7103290  10.6691330  74.7339310
  61.4103430  10.8148510  73.8367130  62.4814530  10.1096620  74.6412700
  67.0531740  15.4660330  72.7294440  67.0676280  14.5341290  72.5113350
  66.3456840  15.5520090  73.3684210  72.1868810   9.6500150  58.9993050
  72.1032530  10.0814370  58.1489490  72.9063000  10.1098500  59.4319870
  73.2642950  12.1067670  72.0763020  72.5391140  12.6996450  71.8792410
  73.7918410  12.0991210  71.2776390  68.7942540  13.8327840  65.5746870
  69.1466360  13.2355970  64.9148240  67.9104870  13.5072070  65.7455120
  64.8805820  14.5925530  62.9817280  65.5676950  15.1394740  63.3624870
  64.0938240  15.1366260  63.0166890  57.0198220  10.2098350  58.4734360
  57.8893070  10.4923150  58.7570280  56.5288540  11.0234220  58.3583170
  64.1833030  11.5971560  62.5942640  64.6395810  12.4076810  62.8202830
  63.8321240  11.2794700  63.4261130  66.4865640  17.1077900  69.8234940
  67.1307860  17.3137280  70.5008360  66.8495080  16.3466300  69.3705790
  60.0844810   1.9409210  63.0665160  59.9559440   1.9327110  64.0150080
  59.2606830   2.2792300  62.7156170  67.7597720  15.1110250  68.5412390
  68.4019950  14.4103410  68.6544560  68.2847070  15.8908690  68.3609280
  71.6053440  15.3958870  58.2651530  71.3791020  14.6789310  58.8576170
  71.2149640  15.1471310  57.4273280  69.5335340  15.9105150  71.7448450
  69.8691580  16.4971840  72.4226370  68.6135680  15.7797860  71.9746240
  57.3869470  19.4225730  59.0395990  57.7467110  20.0215070  58.3853260
  57.2461810  19.9685620  59.8131020  57.0838740   3.7000330  72.5271860
  56.3697260   3.8997250  73.1324470  57.5033780   2.9239900  72.8986660
  71.1869690  13.3130810  59.9265690  70.8991390  13.7743500  60.7143570
  71.9821860  12.8528580  60.1949910  57.3711330  17.6880590  73.5138390
  57.4802450  16.7475330  73.3733780  56.7191890  17.9535340  72.8652120
  65.3623920  15.9596480  74.9136510  65.0420790  15.2405720  75.4582200
  64.6882280  16.6351550  74.9872570  63.4038090  16.8056930  59.8569660
  63.3948190  17.5386620  59.2414170  62.4836450  16.5588510  59.9496620
  59.0044730  12.0271820  60.6016420  58.3972680  12.7670720  60.6111720
  59.4794080  12.1171180  59.7754620  68.5777520   6.1922640  70.2773310
  68.9458340   5.3717850  70.6052880  67.7175720   6.2524530  70.6928960
  71.9439550   5.1479580  61.0860870  71.3152710   5.2525250  60.3719100
  71.4491470   5.3676360  61.8754750  66.3897690  16.8685170  58.5194850
  66.4909670  16.6649160  57.5896830  65.4899430  16.6143450  58.7242630
  63.9123580   7.4265530  62.5018750  63.2039730   7.8951870  62.9432360
  64.1968060   6.7687540  63.1363940  65.5379510   8.8462230  70.5011280
  66.0364760   9.3208050  71.1663130  65.6802460   7.9225750  70.7081310
  67.9439010   4.1516190  63.9414540  67.8206790   4.1702320  62.9924050
  68.8923570   4.1995130  64.0612940  65.0315800  19.3871490  63.2142520
  65.2857300  19.3492880  62.2921890  64.0828280  19.2604820  63.2070770
  62.1158600   5.7350610  59.8769460  62.9649130   6.1720760  59.8109650
  61.7489870   6.0470870  60.7041520  72.7446370   5.0630190  71.3439670
  72.2419970   5.8035590  71.6833480  73.5603030   5.4514190  71.0276460
  71.0368380  10.3063370  64.7901030  70.0958520  10.3213600  64.9648720
  71.3512450   9.5199330  65.2361330  61.0150020  11.9882970  58.3504990
  61.7813290  11.8764330  58.9130420  61.0924710  11.2920940  57.6981760
  59.7096780   9.4208040  59.0337880  59.7900370   8.4735550  59.1455280
  60.6016530   9.7514920  59.1398540  60.5111490  19.5703430  66.1372420
  61.2473970  19.0218890  66.4080990  60.8952410  20.4359440  65.9978410
  59.5169770  18.7549500  75.3258000  60.3182500  19.0761550  75.7393400
  59.0021590  18.3945080  76.0477910  63.6213800  18.7433740  57.9597990
  64.4142410  19.0322570  57.5079780  63.1018150  18.3125910  57.2810470
  68.3534400  14.8629370  75.2733410  67.7472560  14.8860970  74.5329160
  68.0488510  14.1312410  75.8100660  69.7834770  18.5909660  73.8842820
  70.7356520  18.5067680  73.8343060  69.6362990  19.2551370  74.5576610
  72.6743970  17.9703870  59.3834730  72.3885480  17.5569010  58.5688910
  72.4763520  18.8991580  59.2635250  57.2367580  11.2422960  74.2694050
  57.7406600  10.6630240  74.8410280  56.4975000  11.5263190  74.8070420
  64.1391200  13.9637150  57.8240340  64.0341840  13.3489500  58.5501720
  63.9715420  13.4403040  57.0403350  64.2905520  12.6493950  73.8029570
  63.5251190  13.2178950  73.7184240  64.4721480  12.3570160  72.9097800
  67.3793930  13.0257180  58.4282330  66.8304030  13.4726480  59.0725070
  68.0013190  12.5206430  58.9520000  71.4328870  14.3799280  74.3604590
  72.1738340  14.7175040  73.8572050  70.6701550  14.5491340  73.8074360
  59.2690660   9.3852550  75.1644120  59.3096000   9.0866420  76.0729350
  60.1236160   9.7860160  75.0051640  63.0469050  11.9848100  60.3247630
  63.4685470  11.8187970  61.1679020  63.1719890  11.1748330  59.8302770
  61.2096470   7.9644650  73.1318610  60.6792930   7.4735600  72.5041950
  61.8784540   8.3928850  72.5976540  65.5596690  11.0085710  57.5724730
  66.0802350  10.2934730  57.2065880  66.2065090  11.6471580  57.8725240
  70.1074530  12.4314110  72.8959800  70.5215550  12.5859190  73.7450220
  69.1725530  12.5569330  73.0585580  70.5796700   9.7710270  74.8998950
  71.1617470   9.0162590  74.8119430  70.7558470  10.3017710  74.1230430
  61.6968770   4.9307020  73.2115900  61.6025640   4.3127770  72.4866770
  61.1166160   5.6573310  72.9845810  64.4630210   3.4880260  70.2443290
  64.0147510   3.5104520  69.3988840  63.8295410   3.0899280  70.8413590
  64.8689760  12.3834590  70.8655730  65.2877870  13.2267320  70.6931970
  63.9498390  12.5206630  70.6362510  67.2053660  10.1150770  72.2493570
  67.3249870   9.5191910  72.9888410  68.0647660  10.1520460  71.8294870
  69.5441560  10.6687960  70.8256080  69.0176780  11.1930580  70.2221220
  69.8872900  11.3015350  71.4565810  61.9427950   8.0581330  57.2705790
  61.7417010   7.1948690  57.6319130  61.7720000   7.9714690  56.3327390
  63.9722430   6.6572120  73.5069390  64.5622120   6.3487970  74.1947210
  63.1542670   6.1851870  73.6629290  68.7915860   6.2737930  73.7402410
  68.1031380   5.6119470  73.6752400  69.5121880   5.8276200  74.1850870
  69.4216260   2.8689560  59.7992670  69.7018550   2.0257460  60.1552090
  68.6481990   3.1012670  60.3131420  60.7410750   5.1581950  57.2583670
  61.0436650   5.1649380  56.3502820  61.4805340   4.8079810  57.7551330
  65.5759390  19.9238810  72.2400110  65.5018090  20.8273950  72.5472480
  64.6738230  19.6050710  72.2122180  63.9595680   4.1016570  58.2439870
  63.6117680   3.4240560  57.6642320  64.1608450   3.6406080  59.0583260
  66.1244720  19.0897320  59.8626470  67.0195510  19.4282290  59.8845230
  66.1562350  18.3676730  59.2350750  59.7640880  14.4624370  58.0913470
  60.2015750  15.0054040  58.7471050  60.2488610  13.6371320  58.1009810
  61.5748600  15.5822410  63.2035700  61.2744140  15.4587380  64.1039610
  61.4686090  14.7231000  62.7951430  73.1039070  17.6200990  72.5692670
  72.5041060  17.6793550  71.8256590  73.2332970  16.6805970  72.6989520
  74.3440520  15.3618810  57.9062380  73.5133480  15.4295460  58.3769610
  74.5212350  16.2522930  57.6029240  73.7996980  12.1066290  60.4096580
  74.5615890  12.6762940  60.5156270  73.8151350  11.5393490  61.1804890
  57.3001320  10.6304220  64.6404240  56.6450160  10.3615860  63.9963940
  58.1379270  10.5208700  64.1906220  74.8056950  12.9616390  65.2538510
  75.1765780  12.1783710  64.8474480  75.4458880  13.6505490  65.0755810
  71.7890710  14.3452970  70.6668830  70.9750550  14.7750130  70.9294620
  72.1964910  14.9571380  70.0537880  73.8516150  12.4000660  57.5669100
  74.1264990  13.3079540  57.4388320  73.6626890  12.3363190  58.5031090
  70.2491760   5.4245510  58.8622730  70.6676640   5.2376490  58.0219390
  69.9427820   4.5724560  59.1725660  73.7481490  10.3369650  62.5598530
  73.3725090   9.5697580  62.1279820  73.0184610  10.7192350  63.0473460
  58.3377250  11.0156790  69.1807580  58.7050290  10.9284190  70.0603600
  57.7688070  10.2523340  69.0814440  73.1381110   9.4841170  72.1938050
  72.9067200   9.2553920  71.2936000  73.3985660  10.4040720  72.1482940
  57.8893250   7.9265880  73.0866000  56.9949300   7.8932640  73.4259710
  58.4290800   8.1252670  73.8517250  71.5769180   4.7097600  74.9717750
  72.4539360   4.7181000  75.3551750  71.5890020   3.9728440  74.3610100
  56.5139400   7.8403150  60.5829570  55.6103480   8.1033350  60.4081230
  56.9980020   8.1114320  59.8029530  73.0232450   8.5627140  65.8605770
  73.5469930   8.0689790  65.2295940  73.6091870   8.6977500  66.6053340
  73.2022170   8.6467010  69.3825320  72.2524880   8.6130550  69.4970310
  73.3835180   9.5567120  69.1475090  59.0566610   6.8968690  58.4923950
  59.7658310   6.4751910  58.0071230  58.3406550   6.9643920  57.8607300
  58.7040770   2.9508020  57.5326600  59.4268900   3.4916960  57.8507820
  58.9765290   2.6771440  56.6568140  72.5132420   7.8200490  61.7998180
  73.0091540   7.5871360  62.5847060  72.3148490   6.9812330  61.3835820
  58.3932960   2.2014210  67.4349220  59.0409150   1.6511590  66.9944380
  58.8134800   2.4557360  68.2565030  73.9419580   6.4561440  64.3335860
  73.8318860   6.3017480  65.2718130  74.7027170   5.9282380  64.0911270
  72.2885300   2.3955570  70.7918860  72.9257520   3.0089710  71.1578050
  72.4360190   2.4316230  69.8468090  74.8309850   4.2869360  57.5742000
  75.7559160   4.1550540  57.3660290  74.8085640   4.3662180  58.5278450
  74.9048340   5.0580020  60.1998710  74.1099840   4.9925140  60.7291620
  75.1091620   5.9930660  60.1884060  58.1464960   2.3569880  70.1774540
  57.7979780   2.8133700  70.9432720  57.8152660   1.4627010  70.2596970
  59.7529330  15.5289480  74.3427730  59.7098960  15.1582390  75.2242190
  59.8840340  16.4667050  74.4829550  65.6589780   3.5481760  73.6993960
  65.5978670   4.1403590  74.4489370  66.5990160   3.4407720  73.5544220
  68.2964340   3.2051820  73.3386250  68.9104750   3.5231110  72.6767330
  68.8413900   2.7200410  73.9582110  74.7139520  19.1043450  70.7448090
  74.2197800  19.5012320  70.0275220  74.1052810  18.4792660  71.1385370
  69.9444360   3.9754830  71.0497260  69.6157720   3.1606590  70.6698990
  70.8926660   3.9324640  70.9262950  62.8274690  18.0555110  67.1982960
  63.3439710  17.4442470  66.6731220  63.4772070  18.5583890  67.6893970
  65.5670190  18.9463600  68.0251940  65.8548000  18.6917900  67.1484950
  66.0793410  18.3940960  68.6157510  66.7847200   2.6853800  68.6048450
  66.0018990   3.1599300  68.8845210  66.4910130   1.7808630  68.4961630
  71.3368270   3.3876900  66.6497540  71.7776360   3.3322000  65.8019140
  71.0675860   4.3034910  66.7207720  73.2006840   3.0192140  64.6606360
  73.1395240   2.0753360  64.5137380  73.9798870   3.1272230  65.2059820
  58.1287610   2.9901280  61.1262170  58.8866970   3.1030160  60.5526200
  57.6664780   3.8270480  61.0805600  64.6701420   5.1040550  64.1164480
  63.8575930   4.7297440  63.7760360  65.1743060   4.3485630  64.4185670
  69.1726400   1.7683000  65.3547550  69.7755770   2.3403210  65.8296070
  68.4319390   2.3322440  65.1321450  72.3161000   2.1704560  60.6287830
  72.5111630   3.0688010  60.8955260  71.5290870   1.9391640  61.1220780
  60.5012760   3.5165330  59.6664140  61.0305520   2.7295130  59.5372090
  61.1341080   4.1956520  59.8999670  62.6950600   3.2540470  62.7209530
  62.0653340   2.5527780  62.8879660  62.1555740   4.0144600  62.5042690
  62.8206160   2.5324450  75.1562020  62.5390430   3.0358050  74.3922840
  63.2025860   1.7346200  74.7904150  61.7115260  19.8000110  59.9429700
  62.4434080  19.5159390  59.3953590  61.9708930  19.5613390  60.8329080
  60.8730050  15.9164840  59.9476030  60.2438930  16.3849940  60.4961860
  60.9877880  15.0714060  60.3822220  69.4221620   1.9478030  75.7342490
  69.3087070   2.2672640  76.6294010  70.2391360   2.3490540  75.4379770
  72.2020110  19.0949560  75.2161180  72.9945430  18.5998790  75.0087140
  72.4953260  19.7739700  75.8236790  68.3279770   9.9670500  46.0977230
  68.2473820   9.0525110  45.8268940  67.9144190  10.4637570  45.3916940
  66.4597810  11.7449520  47.9786500  65.6839910  11.2649960  48.2685070
  67.1110740  11.0655170  47.8042660  60.4763640  12.0569330  48.8562260
  59.6448520  11.8018040  49.2558770  61.0844620  12.1280100  49.5920180
  70.4805240  16.1509710  46.7585630  70.0186770  15.3796950  47.0872800
  71.2930790  16.1775780  47.2638080  60.4564900  16.0909420  49.0520280
  60.7592940  15.2007160  48.8730500  61.2008490  16.6479640  48.8242530
  58.8855590   7.0171220  42.6404650  57.9972290   7.3587190  42.5384530
  59.1696780   6.8171540  41.7485480  56.8488600   9.6176870  48.5244350
  57.4204710   8.8499070  48.5247990  56.8490140   9.9165630  47.6150960
  66.7068550  18.4367720  46.3789620  66.0879990  18.8925220  45.8084060
  67.5620330  18.5919180  45.9779320  65.9006800  14.4206710  47.9856660
  65.8315080  13.4796650  47.8245790  66.6626660  14.5108120  48.5579230
  58.0913470   5.0261230  50.3113280  57.9116310   4.1286980  50.5916040
  57.6893550   5.5733100  50.9860230  66.9311970   7.2277090  48.2125590
  67.3076790   6.3548970  48.0999260  66.8331480   7.5635790  47.3216030
  61.0616980   5.6002720  43.6743030  61.1683730   6.5006450  43.9811790
  60.1509340   5.5520690  43.3837680  70.7136090   4.7227530  45.1453930
  71.5345710   4.2324100  45.1879410  70.7470170   5.3125190  45.8985770
  58.7100140   7.5221730  48.9195620  59.3910250   7.7860100  49.5383020
  58.3948190   6.6822600  49.2533630  62.9024710   8.5689090  48.0068210
  63.4102930   9.0670060  48.6473230  63.4337950   7.7924290  47.8307570
  75.0035640   6.7394280  51.7097560  74.2987810   7.1275990  51.1912670
  75.2693560   7.4344570  52.3118490  61.1860810   3.2087650  52.2731630
  61.1879250   3.7260040  51.4677530  60.3565120   2.7317830  52.2501560
  67.5731900  13.3206960  43.7721530  66.9549170  13.7856410  43.2084250
  68.0855150  14.0134440  44.1891040  62.4363660  12.8482830  50.4505130
  62.1033040  13.4751750  51.0926200  62.6130340  13.3744710  49.6706800
  70.9497570   6.6627910  47.9181470  70.2453140   6.9512800  48.4984580
  71.3109730   7.4728020  47.5581030  60.8676140   4.9197610  50.2802080
  61.2092950   5.7639660  49.9855950  59.9291950   5.0681350  50.3967420
  61.6482760  14.8163630  52.2654310  62.2656760  15.4914710  51.9838760
  60.7875880  15.2251610  52.1741810  56.9415100  14.0063490  41.1461160
  56.5643080  14.4950590  40.4146060  57.1988170  14.6788770  41.7767690
  72.5660350  16.2803040  50.1808950  71.8823870  16.9502150  50.1725620
  73.1054640  16.4783690  49.4153810  74.0184490   6.1082700  48.3090680
  73.0709400   6.1421680  48.4406110  74.3434480   6.9221650  48.6940040
  64.5504030   2.4079880  46.6046670  64.8579010   1.8526770  45.8882170
  63.6204730   2.5424340  46.4219660  70.1019090  18.1247170  48.8954130
  70.1146250  17.7209460  48.0276390  69.5494310  18.8994460  48.7915560
  71.3964510  14.8463390  43.9844300  71.2860840  13.9037720  44.1093720
  71.3932760  15.2079030  44.8707060  69.5004530  13.0277010  50.2236740
  69.9173320  12.8137120  49.3890200  70.2244350  13.2849800  50.7945360
  66.9384790  10.4728710  43.3406790  66.0114070  10.4066090  43.5695260
  67.0909610  11.4108840  43.2262030  66.9253870   6.7445710  40.3373950
  65.9857540   6.9059670  40.4226410  67.2437130   7.4631390  39.7909940
  73.4466630  11.4264230  50.3152980  72.6185260  11.4957320  49.8403110
  74.0417110  12.0118540  49.8468810  70.9682080  12.0349010  43.8442040
  70.3494500  11.6968560  43.1968340  70.9506530  11.3908770  44.5521230
  70.4108640   8.2133550  51.2607850  69.9979820   9.0387260  51.5147840
  69.6784590   7.6278590  51.0684210  62.5441430  10.9993450  46.1226520
  62.1398430  10.2870700  45.6272420  62.6304550  10.6546690  47.0114560
  63.0123130  14.6861010  48.2865730  62.7151420  14.0806480  47.6073510
  63.9622950  14.7238320  48.1755090  61.2570050   7.7736660  49.9025560
  61.8084640   7.8832000  49.1278810  61.7713560   8.1474260  50.6180790
  71.1008740  18.2592880  51.9488830  70.6239300  19.0665070  51.7561440
  70.4170530  17.6071210  52.1015040  62.1041560  14.4242700  54.9373530
  61.2070090  14.6482670  55.1846930  62.1294430  14.5477640  53.9884930
  69.1446780  11.2735820  40.8514790  69.5840060  10.4358250  40.7052610
  69.8575200  11.9065220  40.9378930  60.9312780  11.2956020  53.5130900
  60.7920550  12.1678820  53.8818300  60.0494140  10.9528830  53.3678840
  67.2542160  16.2131890  44.8196030  67.6938070  16.9556220  44.4051420
  67.1929050  16.4558460  45.7434990  62.7293130  17.2377720  55.7216050
  62.7008560  17.6420670  54.8544480  62.5658100  16.3088080  55.5587650
  72.7263920   2.5278630  39.1655830  72.4136580   2.6205460  40.0654900
  73.4876390   3.1059660  39.1153260  59.2446060   9.8938430  43.6233170
  59.1243660  10.6200520  43.0114440  58.9346950   9.1241340  43.1461080
  74.6807950  18.0204820  57.0180220  75.1567670  18.4987710  57.6969300
  75.3015110  17.9522310  56.2925720  56.8831430  13.0653570  49.4301810
  56.9611850  13.2002340  48.4857530  57.4973110  12.3569460  49.6229930
  58.1279060  14.7653760  45.8407990  57.7207140  14.9068350  44.9861590
  59.0192070  14.4813920  45.6379200  74.0841200  15.2117670  54.1780230
  74.2104260  14.9729550  53.2597410  74.1262580  14.3802210  54.6502310
  69.9212340  19.2001010  42.1759040  69.7613480  18.9103950  43.0740870
  69.7559050  18.4241140  41.6404270  62.4000720  18.9799540  43.9530660
  62.2243200  18.0635080  43.7398460  61.5456460  19.3386830  44.1928460
  69.6238470  16.7088570  40.7357040  68.9303630  16.7065860  40.0759320
  70.3661330  16.2847890  40.3051210  69.1888400  18.3351280  44.8105530
  69.6445350  17.5540660  45.1244150  69.5280920  19.0458100  45.3546710
  73.9365210   7.2650130  55.1429970  73.3209480   7.7729800  54.6145430
  73.6161630   6.3648460  55.0855910  56.9390950  14.1067740  51.9696270
  57.1021990  13.6373100  51.1515640  57.4043400  13.5991300  52.6345110
  61.7109720   3.2373500  47.0056840  61.2677870   4.0183040  46.6741360
  62.2694710   3.5603390  47.7127780  65.9979530   6.1042020  52.6092160
  65.5358900   6.3125040  53.4212100  65.5957640   5.2901370  52.3062830
  70.9984040   7.3250970  53.7388820  70.1477630   7.0256720  54.0597890
  70.8385830   7.5692980  52.8272640  68.0933750   8.8252720  55.8387610
  68.4187160   7.9916470  55.4989840  68.8814080   9.3481240  55.9865940
  64.8268540   2.8584200  41.8862670  64.2022720   2.8544070  42.6115980
  64.7398660   1.9915160  41.4898640  63.7485620   3.7820830  48.8646440
  64.0457950   4.6883660  48.7838460  64.2971180   3.2939610  48.2506010
  61.5023940   8.3607070  44.7338090  61.2764860   8.1444240  45.6384710
  60.7216470   8.7935530  44.3884060  68.7321700   8.3670440  43.3328740
  68.1330590   9.0906240  43.1492360  69.2801310   8.3047220  42.5505190
  63.9423150   9.2592650  55.3998360  63.8466750   8.3187380  55.2498760
  64.7855130   9.4807720  55.0046430  67.3386570   7.0033980  45.3632020
  67.7316140   7.3206180  44.5500710  67.7003420   6.1245860  45.4776540
  59.0733690   5.6706320  53.5532140  58.6797080   6.5181530  53.7604920
  58.3852090   5.0332690  53.7440780  65.6478740   5.7541290  56.6228880
  64.9577060   5.5613490  57.2574970  66.3911040   6.0375930  57.1553180
  56.3750740   3.5934780  47.5862220  56.0863790   4.1637640  48.2987200
  57.1196500   3.1139230  47.9493450  56.5620970   7.5354900  38.7964940
  56.4795640   8.4785660  38.9379930  56.2104030   7.3929810  37.9177290
  67.9241710   9.5939730  49.4582800  67.1922830  10.1026540  49.8072900
  67.5266050   8.7769710  49.1571580  64.3619100   6.2693930  47.8635290
  64.3655160   5.8283880  47.0139830  65.2570220   6.5911260  47.9707110
  60.2121480   6.1520420  46.8229500  59.8721530   6.6295650  47.5796550
  59.4498800   5.6985540  46.4630600  64.4239250   7.2706010  40.8542050
  64.5452070   7.2292490  41.8027870  64.0387760   8.1330160  40.6988780
  68.3867620   5.0473410  48.8705740  68.4040360   5.4982060  49.7147590
  68.1383200   4.1479050  49.0839180  63.4360750   9.5807150  40.2525350
  62.8677650   9.1325400  39.6261260  64.1449750   9.9399930  39.7190500
  71.8138370   2.4605590  54.7092120  72.1384140   1.7295250  55.2350100
  71.8494880   2.1419230  53.8073110  58.5129930  13.4819170  54.1292080
  58.1284720  12.8412840  54.7275040  58.8242120  14.1855290  54.6986810
  64.6627070  10.3295710  49.6100700  65.0297200   9.8554280  50.3562040
  64.4732130  11.2037280  49.9509040  57.5267560   5.0739400  45.7394170
  57.2414480   4.7095070  46.5772790  57.4646420   4.3419860  45.1257310
  62.4526440   9.3704350  51.9284910  62.1483510  10.2496330  52.1535270
  63.4072900   9.4304140  51.9642350  60.9808230  13.5765340  42.5251760
  60.2070490  13.0362960  42.3650480  61.7102860  13.0571950  42.1869520
  71.7396210  12.5730700  48.3178150  72.4595330  13.0685990  47.9274260
  71.5378030  11.8948590  47.6732020  67.2006150   3.9668660  42.4607540
  66.3870760   3.4681830  42.3852850  67.0068100   4.8066910  42.0443890
  67.1215010  12.6439760  54.2047150  67.0552320  11.7235430  53.9504740
  66.4920150  12.7415200  54.9191790  69.9154540   8.3388310  40.7569700
  70.8034160   8.6505540  40.5821040  69.8859630   7.4660560  40.3650280
  61.0245630  13.2445720  46.1630570  61.5424300  12.4413980  46.1087460
  60.5729650  13.1824860  47.0047400  65.9115130  14.5112000  41.4357870
  66.2530830  15.2554230  40.9401190  65.0827840  14.8243120  41.7982700
  58.5090170  10.2107090  53.0756270  58.1505110  10.8760940  53.6629610
  58.2144730   9.3790640  53.4468890  61.7103290  10.6691330  55.9595820
  61.4103430  10.8148510  55.0623640  62.4814530  10.1096620  55.8669210
  72.1868810   9.6500150  40.2249560  72.1032530  10.0814370  39.3746000
  72.9063000  10.1098500  40.6576380  73.2642950  12.1067670  53.3019530
  72.5391140  12.6996450  53.1048920  73.7918410  12.0991210  52.5032900
  73.2156060  16.5042410  42.9531690  72.5732220  15.8498030  43.2275410
  72.8286720  16.9097500  42.1772360  68.7942540  13.8327840  46.8003380
  69.1466360  13.2355970  46.1404750  67.9104870  13.5072070  46.9711630
  64.8805820  14.5925530  44.2073790  65.5676950  15.1394740  44.5881380
  64.0938240  15.1366260  44.2423400  57.0198220  10.2098350  39.6990870
  57.8893070  10.4923150  39.9826790  56.5288540  11.0234220  39.5839680
  64.1833030  11.5971560  43.8199150  64.6395810  12.4076810  44.0459340
  63.8321240  11.2794700  44.6517640  60.0844810   1.9409210  44.2921670
  59.9559440   1.9327110  45.2406590  59.2606830   2.2792300  43.9412680
  67.7597720  15.1110250  49.7668900  68.4019950  14.4103410  49.8801070
  68.2847070  15.8908690  49.5865790  71.6053440  15.3958870  39.4908040
  71.3791020  14.6789310  40.0832680  71.2149640  15.1471310  38.6529790
  69.5335340  15.9105150  52.9704960  69.8691580  16.4971840  53.6482880
  68.6135680  15.7797860  53.2002750  57.3869470  19.4225730  40.2652500
  57.7467110  20.0215070  39.6109770  57.2461810  19.9685620  41.0387530
  57.0838740   3.7000330  53.7528370  56.3697260   3.8997250  54.3580980
  57.5033780   2.9239900  54.1243170  71.1869690  13.3130810  41.1522200
  70.8991390  13.7743500  41.9400080  71.9821860  12.8528580  41.4206420
  57.3711330  17.6880590  54.7394900  57.4802450  16.7475330  54.5990290
  56.7191890  17.9535340  54.0908630  63.4038090  16.8056930  41.0826170
  63.3948190  17.5386620  40.4670680  62.4836450  16.5588510  41.1753130
  59.0044730  12.0271820  41.8272930  58.3972680  12.7670720  41.8368230
  59.4794080  12.1171180  41.0011130  68.5777520   6.1922640  51.5029820
  68.9458340   5.3717850  51.8309390  67.7175720   6.2524530  51.9185470
  71.9439550   5.1479580  42.3117380  71.3152710   5.2525250  41.5975610
  71.4491470   5.3676360  43.1011260  66.3897690  16.8685170  39.7451360
  66.4909670  16.6649160  38.8153340  65.4899430  16.6143450  39.9499140
  63.9123580   7.4265530  43.7275260  63.2039730   7.8951870  44.1688870
  64.1968060   6.7687540  44.3620450  65.5379510   8.8462230  51.7267790
  66.0364760   9.3208050  52.3919640  65.6802460   7.9225750  51.9337820
  67.9439010   4.1516190  45.1671050  67.8206790   4.1702320  44.2180560
  68.8923570   4.1995130  45.2869450  65.0315800  19.3871490  44.4399030
  65.2857300  19.3492880  43.5178400  64.0828280  19.2604820  44.4327280
  62.1158600   5.7350610  41.1025970  62.9649130   6.1720760  41.0366160
  61.7489870   6.0470870  41.9298030  72.7446370   5.0630190  52.5696180
  72.2419970   5.8035590  52.9089990  73.5603030   5.4514190  52.2532970
  71.0368380  10.3063370  46.0157540  70.0958520  10.3213600  46.1905230
  71.3512450   9.5199330  46.4617840  61.0150020  11.9882970  39.5761500
  61.7813290  11.8764330  40.1386930  61.0924710  11.2920940  38.9238270
  59.7096780   9.4208040  40.2594390  59.7900370   8.4735550  40.3711790
  60.6016530   9.7514920  40.3655050  73.0393960  17.4772220  47.6911800
  73.1641380  18.3003390  48.1635610  73.9059520  17.2662950  47.3435950
  60.5111490  19.5703430  47.3628930  61.2473970  19.0218890  47.6337500
  60.8952410  20.4359440  47.2234920  57.3956970  15.6377000  43.2370440
  56.4696750  15.8798140  43.2275850  57.8613400  16.4651260  43.1155190
  59.5169770  18.7549500  56.5514510  60.3182500  19.0761550  56.9649910
  59.0021590  18.3945080  57.2734420  63.6213800  18.7433740  39.1854500
  64.4142410  19.0322570  38.7336290  63.1018150  18.3125910  38.5066980
  68.3534400  14.8629370  56.4989920  67.7472560  14.8860970  55.7585670
  68.0488510  14.1312410  57.0357170  72.6743970  17.9703870  40.6091240
  72.3885480  17.5569010  39.7945420  72.4763520  18.8991580  40.4891760
  57.2367580  11.2422960  55.4950560  57.7406600  10.6630240  56.0666790
  56.4975000  11.5263190  56.0326930  64.1391200  13.9637150  39.0496850
  64.0341840  13.3489500  39.7758230  63.9715420  13.4403040  38.2659860
  64.2905520  12.6493950  55.0286080  63.5251190  13.2178950  54.9440750
  64.4721480  12.3570160  54.1354310  67.3793930  13.0257180  39.6538840
  66.8304030  13.4726480  40.2981580  68.0013190  12.5206430  40.1776510
  71.4328870  14.3799280  55.5861100  72.1738340  14.7175040  55.0828560
  70.6701550  14.5491340  55.0330870  59.2690660   9.3852550  56.3900630
  59.3096000   9.0866420  57.2985860  60.1236160   9.7860160  56.2308150
  63.0469050  11.9848100  41.5504140  63.4685470  11.8187970  42.3935530
  63.1719890  11.1748330  41.0559280  61.2096470   7.9644650  54.3575120
  60.6792930   7.4735600  53.7298460  61.8784540   8.3928850  53.8233050
  65.5596690  11.0085710  38.7981240  66.0802350  10.2934730  38.4322390
  66.2065090  11.6471580  39.0981750  70.1074530  12.4314110  54.1216310
  70.5215550  12.5859190  54.9706730  69.1725530  12.5569330  54.2842090
  70.5796700   9.7710270  56.1255460  71.1617470   9.0162590  56.0375940
  70.7558470  10.3017710  55.3486940  61.6968770   4.9307020  54.4372410
  61.6025640   4.3127770  53.7123280  61.1166160   5.6573310  54.2102320
  64.4630210   3.4880260  51.4699800  64.0147510   3.5104520  50.6245350
  63.8295410   3.0899280  52.0670100  64.8689760  12.3834590  52.0912240
  65.2877870  13.2267320  51.9188480  63.9498390  12.5206630  51.8619020
  67.2053660  10.1150770  53.4750080  67.3249870   9.5191910  54.2144920
  68.0647660  10.1520460  53.0551380  69.5441560  10.6687960  52.0512590
  69.0176780  11.1930580  51.4477730  69.8872900  11.3015350  52.6822320
  61.9427950   8.0581330  38.4962300  61.7417010   7.1948690  38.8575640
  61.7720000   7.9714690  37.5583900  63.9722430   6.6572120  54.7325900
  64.5622120   6.3487970  55.4203720  63.1542670   6.1851870  54.8885800
  68.7915860   6.2737930  54.9658920  68.1031380   5.6119470  54.9008910
  69.5121880   5.8276200  55.4107380  69.4216260   2.8689560  41.0249180
  69.7018550   2.0257460  41.3808600  68.6481990   3.1012670  41.5387930
  60.7410750   5.1581950  38.4840180  61.0436650   5.1649380  37.5759330
  61.4805340   4.8079810  38.9807840  63.9595680   4.1016570  39.4696380
  63.6117680   3.4240560  38.8898830  64.1608450   3.6406080  40.2839770
  66.1244720  19.0897320  41.0882980  67.0195510  19.4282290  41.1101740
  66.1562350  18.3676730  40.4607260  59.7640880  14.4624370  39.3169980
  60.2015750  15.0054040  39.9727560  60.2488610  13.6371320  39.3266320
  56.9786680  17.2513400  46.7690240  57.3089690  16.3834460  46.5368880
  57.4077680  17.4571920  47.5995200  61.5748600  15.5822410  44.4292210
  61.2744140  15.4587380  45.3296120  61.4686090  14.7231000  44.0207940
  57.4676890  18.1183990  49.5071870  57.0307880  18.2984790  50.3396020
  58.0354570  18.8758610  49.3653590  73.1039070  17.6200990  53.7949180
  72.5041060  17.6793550  53.0513100  73.2332970  16.6805970  53.9246030
  74.3440520  15.3618810  39.1318890  73.5133480  15.4295460  39.6026120
  74.5212350  16.2522930  38.8285750  73.7996980  12.1066290  41.6353090
  74.5615890  12.6762940  41.7412780  73.8151350  11.5393490  42.4061400
  57.3001320  10.6304220  45.8660750  56.6450160  10.3615860  45.2220450
  58.1379270  10.5208700  45.4162730  74.8056950  12.9616390  46.4795020
  75.1765780  12.1783710  46.0730990  75.4458880  13.6505490  46.3012320
  71.7890710  14.3452970  51.8925340  70.9750550  14.7750130  52.1551130
  72.1964910  14.9571380  51.2794390  73.8516150  12.4000660  38.7925610
  74.1264990  13.3079540  38.6644830  73.6626890  12.3363190  39.7287600
  70.2491760   5.4245510  40.0879240  70.6676640   5.2376490  39.2475900
  69.9427820   4.5724560  40.3982170  73.7481490  10.3369650  43.7855040
  73.3725090   9.5697580  43.3536330  73.0184610  10.7192350  44.2729970
  58.3377250  11.0156790  50.4064090  58.7050290  10.9284190  51.2860110
  57.7688070  10.2523340  50.3070950  73.1381110   9.4841170  53.4194560
  72.9067200   9.2553920  52.5192510  73.3985660  10.4040720  53.3739450
  57.8893250   7.9265880  54.3122510  56.9949300   7.8932640  54.6516220
  58.4290800   8.1252670  55.0773760  71.5769180   4.7097600  56.1974260
  72.4539360   4.7181000  56.5808260  71.5890020   3.9728440  55.5866610
  56.5139400   7.8403150  41.8086080  55.6103480   8.1033350  41.6337740
  56.9980020   8.1114320  41.0286040  73.0232450   8.5627140  47.0862280
  73.5469930   8.0689790  46.4552450  73.6091870   8.6977500  47.8309850
  73.2022170   8.6467010  50.6081830  72.2524880   8.6130550  50.7226820
  73.3835180   9.5567120  50.3731600  59.0566610   6.8968690  39.7180460
  59.7658310   6.4751910  39.2327740  58.3406550   6.9643920  39.0863810
  58.7040770   2.9508020  38.7583110  59.4268900   3.4916960  39.0764330
  58.9765290   2.6771440  37.8824650  72.5132420   7.8200490  43.0254690
  73.0091540   7.5871360  43.8103570  72.3148490   6.9812330  42.6092330
  58.3932960   2.2014210  48.6605730  59.0409150   1.6511590  48.2200890
  58.8134800   2.4557360  49.4821540  73.9419580   6.4561440  45.5592370
  73.8318860   6.3017480  46.4974640  74.7027170   5.9282380  45.3167780
  72.2885300   2.3955570  52.0175370  72.9257520   3.0089710  52.3834560
  72.4360190   2.4316230  51.0724600  74.8309850   4.2869360  38.7998510
  75.7559160   4.1550540  38.5916800  74.8085640   4.3662180  39.7534960
  74.9048340   5.0580020  41.4255220  74.1099840   4.9925140  41.9548130
  75.1091620   5.9930660  41.4140570  71.8466760  19.0971570  45.4193610
  72.4425830  18.7756140  44.7428030  72.1044910  18.6243390  46.2106880
  58.1464960   2.3569880  51.4031050  57.7979780   2.8133700  52.1689230
  57.8152660   1.4627010  51.4853480  59.7529330  15.5289480  55.5684240
  59.7098960  15.1582390  56.4498700  59.8840340  16.4667050  55.7086060
  63.4535360  17.0849070  51.1693960  63.2126720  17.3523630  50.2824480
  64.3938000  17.2554800  51.2244820  65.6589780   3.5481760  54.9250470
  65.5978670   4.1403590  55.6745880  66.5990160   3.4407720  54.7800730
  68.2964340   3.2051820  54.5642760  68.9104750   3.5231110  53.9023840
  68.8413900   2.7200410  55.1838620  74.7139520  19.1043450  51.9704600
  74.2197800  19.5012320  51.2531730  74.1052810  18.4792660  52.3641880
  59.5917360  18.4751730  52.6882020  58.9977680  18.3436430  53.4272060
  59.5841200  17.6389870  52.2224120  69.9444360   3.9754830  52.2753770
  69.6157720   3.1606590  51.8955500  70.8926660   3.9324640  52.1519460
  72.3978970  19.7466870  49.2491340  71.9381940  20.4982680  48.8749360
  71.7691430  19.0273340  49.1906140  59.2229590  15.8410110  51.6390060
  58.4963650  15.2215400  51.5716010  59.2838740  16.2350720  50.7688140
  62.8274690  18.0555110  48.4239470  63.3439710  17.4442470  47.8987730
  63.4772070  18.5583890  48.9150480  65.5670190  18.9463600  49.2508450
  65.8548000  18.6917900  48.3741460  66.0793410  18.3940960  49.8414020
  66.7847200   2.6853800  49.8304960  66.0018990   3.1599300  50.1101720
  66.4910130   1.7808630  49.7218140  71.3368270   3.3876900  47.8754050
  71.7776360   3.3322000  47.0275650  71.0675860   4.3034910  47.9464230
  73.2006840   3.0192140  45.8862870  73.1395240   2.0753360  45.7393890
  73.9798870   3.1272230  46.4316330  57.5059590  19.1584500  44.8486820
  57.3381630  18.5255180  45.5468710  56.6394100  19.3643900  44.4981010
  58.1287610   2.9901280  42.3518680  58.8866970   3.1030160  41.7782710
  57.6664780   3.8270480  42.3062110  64.6701420   5.1040550  45.3420990
  63.8575930   4.7297440  45.0016870  65.1743060   4.3485630  45.6442180
  69.1726400   1.7683000  46.5804060  69.7755770   2.3403210  47.0552580
  68.4319390   2.3322440  46.3577960  72.3161000   2.1704560  41.8544340
  72.5111630   3.0688010  42.1211770  71.5290870   1.9391640  42.3477290
  59.1122290  17.8517730  42.2936960  58.5869910  18.2325760  41.5898920
  59.0366870  18.4768500  43.0146670  60.5012760   3.5165330  40.8920650
  61.0305520   2.7295130  40.7628600  61.1341080   4.1956520  41.1256180
  62.6950600   3.2540470  43.9466040  62.0653340   2.5527780  44.1136170
  62.1555740   4.0144600  43.7299200  73.8687610  19.4105270  43.6150900
  74.0439800  18.7243010  42.9711820  73.1709180  19.9352320  43.2227570
  62.8206160   2.5324450  56.3818530  62.5390430   3.0358050  55.6179350
  63.2025860   1.7346200  56.0160660  61.7115260  19.8000110  41.1686210
  62.4434080  19.5159390  40.6210100  61.9708930  19.5613390  42.0585590
  60.8730050  15.9164840  41.1732540  60.2438930  16.3849940  41.7218370
  60.9877880  15.0714060  41.6078730  69.4221620   1.9478030  56.9599000
  69.3087070   2.2672640  57.8550520  70.2391360   2.3490540  56.6636280
  72.2020110  19.0949560  56.4417690  72.9945430  18.5998790  56.2343650
  72.4953260  19.7739700  57.0493300  68.3279770   9.9670500  27.3233740
  68.2473820   9.0525110  27.0525450  67.9144190  10.4637570  26.6173450
  66.4597810  11.7449520  29.2043010  65.6839910  11.2649960  29.4941580
  67.1110740  11.0655170  29.0299170  60.4763640  12.0569330  30.0818770
  59.6448520  11.8018040  30.4815280  61.0844620  12.1280100  30.8176690
  70.4805240  16.1509710  27.9842140  70.0186770  15.3796950  28.3129310
  71.2930790  16.1775780  28.4894590  60.4564900  16.0909420  30.2776790
  60.7592940  15.2007160  30.0987010  61.2008490  16.6479640  30.0499040
  58.8855590   7.0171220  23.8661160  57.9972290   7.3587190  23.7641040
  59.1696780   6.8171540  22.9741990  56.8488600   9.6176870  29.7500860
  57.4204710   8.8499070  29.7504500  56.8490140   9.9165630  28.8407470
  66.7068550  18.4367720  27.6046130  66.0879990  18.8925220  27.0340570
  67.5620330  18.5919180  27.2035830  65.9006800  14.4206710  29.2113170
  65.8315080  13.4796650  29.0502300  66.6626660  14.5108120  29.7835740
  58.0913470   5.0261230  31.5369790  57.9116310   4.1286980  31.8172550
  57.6893550   5.5733100  32.2116740  66.9311970   7.2277090  29.4382100
  67.3076790   6.3548970  29.3255770  66.8331480   7.5635790  28.5472540
  61.0616980   5.6002720  24.8999540  61.1683730   6.5006450  25.2068300
  60.1509340   5.5520690  24.6094190  70.7136090   4.7227530  26.3710440
  71.5345710   4.2324100  26.4135920  70.7470170   5.3125190  27.1242280
  58.7100140   7.5221730  30.1452130  59.3910250   7.7860100  30.7639530
  58.3948190   6.6822600  30.4790140  62.9024710   8.5689090  29.2324720
  63.4102930   9.0670060  29.8729740  63.4337950   7.7924290  29.0564080
  75.0035640   6.7394280  32.9354070  74.2987810   7.1275990  32.4169180
  75.2693560   7.4344570  33.5375000  61.1860810   3.2087650  33.4988140
  61.1879250   3.7260040  32.6934040  60.3565120   2.7317830  33.4758070
  67.5731900  13.3206960  24.9978040  66.9549170  13.7856410  24.4340760
  68.0855150  14.0134440  25.4147550  62.4363660  12.8482830  31.6761640
  62.1033040  13.4751750  32.3182710  62.6130340  13.3744710  30.8963310
  70.9497570   6.6627910  29.1437980  70.2453140   6.9512800  29.7241090
  71.3109730   7.4728020  28.7837540  60.8676140   4.9197610  31.5058590
  61.2092950   5.7639660  31.2112460  59.9291950   5.0681350  31.6223930
  61.6482760  14.8163630  33.4910820  62.2656760  15.4914710  33.2095270
  60.7875880  15.2251610  33.3998320  56.9415100  14.0063490  22.3717670
  56.5643080  14.4950590  21.6402570  57.1988170  14.6788770  23.0024200
  72.5660350  16.2803040  31.4065460  71.8823870  16.9502150  31.3982130
  73.1054640  16.4783690  30.6410320  74.0184490   6.1082700  29.5347190
  73.0709400   6.1421680  29.6662620  74.3434480   6.9221650  29.9196550
  64.5504030   2.4079880  27.8303180  64.8579010   1.8526770  27.1138680
  63.6204730   2.5424340  27.6476170  70.1019090  18.1247170  30.1210640
  70.1146250  17.7209460  29.2532900  69.5494310  18.8994460  30.0172070
  71.3964510  14.8463390  25.2100810  71.2860840  13.9037720  25.3350230
  71.3932760  15.2079030  26.0963570  69.5004530  13.0277010  31.4493250
  69.9173320  12.8137120  30.6146710  70.2244350  13.2849800  32.0201870
  66.9384790  10.4728710  24.5663300  66.0114070  10.4066090  24.7951770
  67.0909610  11.4108840  24.4518540  66.9253870   6.7445710  21.5630460
  65.9857540   6.9059670  21.6482920  67.2437130   7.4631390  21.0166450
  73.4466630  11.4264230  31.5409490  72.6185260  11.4957320  31.0659620
  74.0417110  12.0118540  31.0725320  70.9682080  12.0349010  25.0698550
  70.3494500  11.6968560  24.4224850  70.9506530  11.3908770  25.7777740
  70.4108640   8.2133550  32.4864360  69.9979820   9.0387260  32.7404350
  69.6784590   7.6278590  32.2940720  62.5441430  10.9993450  27.3483030
  62.1398430  10.2870700  26.8528930  62.6304550  10.6546690  28.2371070
  63.0123130  14.6861010  29.5122240  62.7151420  14.0806480  28.8330020
  63.9622950  14.7238320  29.4011600  61.2570050   7.7736660  31.1282070
  61.8084640   7.8832000  30.3535320  61.7713560   8.1474260  31.8437300
  71.1008740  18.2592880  33.1745340  70.6239300  19.0665070  32.9817950
  70.4170530  17.6071210  33.3271550  62.1041560  14.4242700  36.1630040
  61.2070090  14.6482670  36.4103440  62.1294430  14.5477640  35.2141440
  69.1446780  11.2735820  22.0771300  69.5840060  10.4358250  21.9309120
  69.8575200  11.9065220  22.1635440  60.9312780  11.2956020  34.7387410
  60.7920550  12.1678820  35.1074810  60.0494140  10.9528830  34.5935350
  67.2542160  16.2131890  26.0452540  67.6938070  16.9556220  25.6307930
  67.1929050  16.4558460  26.9691500  62.7293130  17.2377720  36.9472560
  62.7008560  17.6420670  36.0800990  62.5658100  16.3088080  36.7844160
  72.7263920   2.5278630  20.3912340  72.4136580   2.6205460  21.2911410
  73.4876390   3.1059660  20.3409770  59.2446060   9.8938430  24.8489680
  59.1243660  10.6200520  24.2370950  58.9346950   9.1241340  24.3717590
  74.6807950  18.0204820  38.2436730  75.1567670  18.4987710  38.9225810
  75.3015110  17.9522310  37.5182230  56.8831430  13.0653570  30.6558320
  56.9611850  13.2002340  29.7114040  57.4973110  12.3569460  30.8486440
  58.1279060  14.7653760  27.0664500  57.7207140  14.9068350  26.2118100
  59.0192070  14.4813920  26.8635710  74.0841200  15.2117670  35.4036740
  74.2104260  14.9729550  34.4853920  74.1262580  14.3802210  35.8758820
  67.9457940  18.9145670  33.9731550  68.4602610  18.8253680  34.7753980
  67.1027020  19.2605370  34.2659460  69.9212340  19.2001010  23.4015550
  69.7613480  18.9103950  24.2997380  69.7559050  18.4241140  22.8660780
  62.4000720  18.9799540  25.1787170  62.2243200  18.0635080  24.9654970
  61.5456460  19.3386830  25.4184970  69.6238470  16.7088570  21.9613550
  68.9303630  16.7065860  21.3015830  70.3661330  16.2847890  21.5307720
  69.1888400  18.3351280  26.0362040  69.6445350  17.5540660  26.3500660
  69.5280920  19.0458100  26.5803220  73.9365210   7.2650130  36.3686480
  73.3209480   7.7729800  35.8401940  73.6161630   6.3648460  36.3112420
  56.9390950  14.1067740  33.1952780  57.1021990  13.6373100  32.3772150
  57.4043400  13.5991300  33.8601620  61.7109720   3.2373500  28.2313350
  61.2677870   4.0183040  27.8997870  62.2694710   3.5603390  28.9384290
  65.9979530   6.1042020  33.8348670  65.5358900   6.3125040  34.6468610
  65.5957640   5.2901370  33.5319340  70.9984040   7.3250970  34.9645330
  70.1477630   7.0256720  35.2854400  70.8385830   7.5692980  34.0529150
  68.0933750   8.8252720  37.0644120  68.4187160   7.9916470  36.7246350
  68.8814080   9.3481240  37.2122450  64.8268540   2.8584200  23.1119180
  64.2022720   2.8544070  23.8372490  64.7398660   1.9915160  22.7155150
  63.7485620   3.7820830  30.0902950  64.0457950   4.6883660  30.0094970
  64.2971180   3.2939610  29.4762520  61.5023940   8.3607070  25.9594600
  61.2764860   8.1444240  26.8641220  60.7216470   8.7935530  25.6140570
  68.7321700   8.3670440  24.5585250  68.1330590   9.0906240  24.3748870
  69.2801310   8.3047220  23.7761700  63.9423150   9.2592650  36.6254870
  63.8466750   8.3187380  36.4755270  64.7855130   9.4807720  36.2302940
  67.3386570   7.0033980  26.5888530  67.7316140   7.3206180  25.7757220
  67.7003420   6.1245860  26.7033050  59.0733690   5.6706320  34.7788650
  58.6797080   6.5181530  34.9861430  58.3852090   5.0332690  34.9697290
  65.6478740   5.7541290  37.8485390  64.9577060   5.5613490  38.4831480
  66.3911040   6.0375930  38.3809690  56.3750740   3.5934780  28.8118730
  56.0863790   4.1637640  29.5243710  57.1196500   3.1139230  29.1749960
  56.5620970   7.5354900  20.0221450  56.4795640   8.4785660  20.1636440
  56.2104030   7.3929810  19.1433800  67.9241710   9.5939730  30.6839310
  67.1922830  10.1026540  31.0329410  67.5266050   8.7769710  30.3828090
  64.3619100   6.2693930  29.0891800  64.3655160   5.8283880  28.2396340
  65.2570220   6.5911260  29.1963620  60.2121480   6.1520420  28.0486010
  59.8721530   6.6295650  28.8053060  59.4498800   5.6985540  27.6887110
  64.4239250   7.2706010  22.0798560  64.5452070   7.2292490  23.0284380
  64.0387760   8.1330160  21.9245290  68.3867620   5.0473410  30.0962250
  68.4040360   5.4982060  30.9404100  68.1383200   4.1479050  30.3095690
  63.4360750   9.5807150  21.4781860  62.8677650   9.1325400  20.8517770
  64.1449750   9.9399930  20.9447010  71.8138370   2.4605590  35.9348630
  72.1384140   1.7295250  36.4606610  71.8494880   2.1419230  35.0329620
  58.5129930  13.4819170  35.3548590  58.1284720  12.8412840  35.9531550
  58.8242120  14.1855290  35.9243320  64.6627070  10.3295710  30.8357210
  65.0297200   9.8554280  31.5818550  64.4732130  11.2037280  31.1765550
  57.5267560   5.0739400  26.9650680  57.2414480   4.7095070  27.8029300
  57.4646420   4.3419860  26.3513820  62.4526440   9.3704350  33.1541420
  62.1483510  10.2496330  33.3791780  63.4072900   9.4304140  33.1898860
  60.9808230  13.5765340  23.7508270  60.2070490  13.0362960  23.5906990
  61.7102860  13.0571950  23.4126030  71.7396210  12.5730700  29.5434660
  72.4595330  13.0685990  29.1530770  71.5378030  11.8948590  28.8988530
  67.2006150   3.9668660  23.6864050  66.3870760   3.4681830  23.6109360
  67.0068100   4.8066910  23.2700400  67.1215010  12.6439760  35.4303660
  67.0552320  11.7235430  35.1761250  66.4920150  12.7415200  36.1448300
  69.9154540   8.3388310  21.9826210  70.8034160   8.6505540  21.8077550
  69.8859630   7.4660560  21.5906790  61.0245630  13.2445720  27.3887080
  61.5424300  12.4413980  27.3343970  60.5729650  13.1824860  28.2303910
  65.9115130  14.5112000  22.6614380  66.2530830  15.2554230  22.1657700
  65.0827840  14.8243120  23.0239210  58.5090170  10.2107090  34.3012780
  58.1505110  10.8760940  34.8886120  58.2144730   9.3790640  34.6725400
  61.7103290  10.6691330  37.1852330  61.4103430  10.8148510  36.2880150
  62.4814530  10.1096620  37.0925720  67.0531740  15.4660330  35.1807460
  67.0676280  14.5341290  34.9626370  66.3456840  15.5520090  35.8197230
  72.1868810   9.6500150  21.4506070  72.1032530  10.0814370  20.6002510
  72.9063000  10.1098500  21.8832890  73.2642950  12.1067670  34.5276040
  72.5391140  12.6996450  34.3305430  73.7918410  12.0991210  33.7289410
  73.2156060  16.5042410  24.1788200  72.5732220  15.8498030  24.4531920
  72.8286720  16.9097500  23.4028870  68.7942540  13.8327840  28.0259890
  69.1466360  13.2355970  27.3661260  67.9104870  13.5072070  28.1968140
  64.8805820  14.5925530  25.4330300  65.5676950  15.1394740  25.8137890
  64.0938240  15.1366260  25.4679910  57.0198220  10.2098350  20.9247380
  57.8893070  10.4923150  21.2083300  56.5288540  11.0234220  20.8096190
  64.1833030  11.5971560  25.0455660  64.6395810  12.4076810  25.2715850
  63.8321240  11.2794700  25.8774150  66.4865640  17.1077900  32.2747960
  67.1307860  17.3137280  32.9521380  66.8495080  16.3466300  31.8218810
  60.0844810   1.9409210  25.5178180  59.9559440   1.9327110  26.4663100
  59.2606830   2.2792300  25.1669190  67.7597720  15.1110250  30.9925410
  68.4019950  14.4103410  31.1057580  68.2847070  15.8908690  30.8122300
  71.6053440  15.3958870  20.7164550  71.3791020  14.6789310  21.3089190
  71.2149640  15.1471310  19.8786300  69.5335340  15.9105150  34.1961470
  69.8691580  16.4971840  34.8739390  68.6135680  15.7797860  34.4259260
  57.3869470  19.4225730  21.4909010  57.7467110  20.0215070  20.8366280
  57.2461810  19.9685620  22.2644040  57.0838740   3.7000330  34.9784880
  56.3697260   3.8997250  35.5837490  57.5033780   2.9239900  35.3499680
  71.1869690  13.3130810  22.3778710  70.8991390  13.7743500  23.1656590
  71.9821860  12.8528580  22.6462930  57.3711330  17.6880590  35.9651410
  57.4802450  16.7475330  35.8246800  56.7191890  17.9535340  35.3165140
  65.3623920  15.9596480  37.3649530  65.0420790  15.2405720  37.9095220
  64.6882280  16.6351550  37.4385590  63.4038090  16.8056930  22.3082680
  63.3948190  17.5386620  21.6927190  62.4836450  16.5588510  22.4009640
  59.0044730  12.0271820  23.0529440  58.3972680  12.7670720  23.0624740
  59.4794080  12.1171180  22.2267640  68.5777520   6.1922640  32.7286330
  68.9458340   5.3717850  33.0565900  67.7175720   6.2524530  33.1441980
  71.9439550   5.1479580  23.5373890  71.3152710   5.2525250  22.8232120
  71.4491470   5.3676360  24.3267770  66.3897690  16.8685170  20.9707870
  66.4909670  16.6649160  20.0409850  65.4899430  16.6143450  21.1755650
  63.9123580   7.4265530  24.9531770  63.2039730   7.8951870  25.3945380
  64.1968060   6.7687540  25.5876960  65.5379510   8.8462230  32.9524300
  66.0364760   9.3208050  33.6176150  65.6802460   7.9225750  33.1594330
  67.9439010   4.1516190  26.3927560  67.8206790   4.1702320  25.4437070
  68.8923570   4.1995130  26.5125960  65.0315800  19.3871490  25.6655540
  65.2857300  19.3492880  24.7434910  64.0828280  19.2604820  25.6583790
  62.1158600   5.7350610  22.3282480  62.9649130   6.1720760  22.2622670
  61.7489870   6.0470870  23.1554540  72.7446370   5.0630190  33.7952690
  72.2419970   5.8035590  34.1346500  73.5603030   5.4514190  33.4789480
  71.0368380  10.3063370  27.2414050  70.0958520  10.3213600  27.4161740
  71.3512450   9.5199330  27.6874350  61.0150020  11.9882970  20.8018010
  61.7813290  11.8764330  21.3643440  61.0924710  11.2920940  20.1494780
  59.7096780   9.4208040  21.4850900  59.7900370   8.4735550  21.5968300
  60.6016530   9.7514920  21.5911560  73.0393960  17.4772220  28.9168310
  73.1641380  18.3003390  29.3892120  73.9059520  17.2662950  28.5692460
  60.5111490  19.5703430  28.5885440  61.2473970  19.0218890  28.8594010
  60.8952410  20.4359440  28.4491430  57.3956970  15.6377000  24.4626950
  56.4696750  15.8798140  24.4532360  57.8613400  16.4651260  24.3411700
  59.5169770  18.7549500  37.7771020  60.3182500  19.0761550  38.1906420
  59.0021590  18.3945080  38.4990930  63.6213800  18.7433740  20.4111010
  64.4142410  19.0322570  19.9592800  63.1018150  18.3125910  19.7323490
  68.3534400  14.8629370  37.7246430  67.7472560  14.8860970  36.9842180
  68.0488510  14.1312410  38.2613680  69.7834770  18.5909660  36.3355840
  70.7356520  18.5067680  36.2856080  69.6362990  19.2551370  37.0089630
  72.6743970  17.9703870  21.8347750  72.3885480  17.5569010  21.0201930
  72.4763520  18.8991580  21.7148270  57.2367580  11.2422960  36.7207070
  57.7406600  10.6630240  37.2923300  56.4975000  11.5263190  37.2583440
  64.1391200  13.9637150  20.2753360  64.0341840  13.3489500  21.0014740
  63.9715420  13.4403040  19.4916370  64.2905520  12.6493950  36.2542590
  63.5251190  13.2178950  36.1697260  64.4721480  12.3570160  35.3610820
  67.3793930  13.0257180  20.8795350  66.8304030  13.4726480  21.5238090
  68.0013190  12.5206430  21.4033020  71.4328870  14.3799280  36.8117610
  72.1738340  14.7175040  36.3085070  70.6701550  14.5491340  36.2587380
  59.2690660   9.3852550  37.6157140  59.3096000   9.0866420  38.5242370
  60.1236160   9.7860160  37.4564660  63.0469050  11.9848100  22.7760650
  63.4685470  11.8187970  23.6192040  63.1719890  11.1748330  22.2815790
  61.2096470   7.9644650  35.5831630  60.6792930   7.4735600  34.9554970
  61.8784540   8.3928850  35.0489560  65.5596690  11.0085710  20.0237750
  66.0802350  10.2934730  19.6578900  66.2065090  11.6471580  20.3238260
  70.1074530  12.4314110  35.3472820  70.5215550  12.5859190  36.1963240
  69.1725530  12.5569330  35.5098600  70.5796700   9.7710270  37.3511970
  71.1617470   9.0162590  37.2632450  70.7558470  10.3017710  36.5743450
  61.6968770   4.9307020  35.6628920  61.6025640   4.3127770  34.9379790
  61.1166160   5.6573310  35.4358830  64.4630210   3.4880260  32.6956310
  64.0147510   3.5104520  31.8501860  63.8295410   3.0899280  33.2926610
  64.8689760  12.3834590  33.3168750  65.2877870  13.2267320  33.1444990
  63.9498390  12.5206630  33.0875530  67.2053660  10.1150770  34.7006590
  67.3249870   9.5191910  35.4401430  68.0647660  10.1520460  34.2807890
  69.5441560  10.6687960  33.2769100  69.0176780  11.1930580  32.6734240
  69.8872900  11.3015350  33.9078830  61.9427950   8.0581330  19.7218810
  61.7417010   7.1948690  20.0832150  61.7720000   7.9714690  18.7840410
  62.7197180  18.6887600  34.4326480  62.1818270  19.4133660  34.1135180
  62.9731140  18.2117940  33.6423820  63.9722430   6.6572120  35.9582410
  64.5622120   6.3487970  36.6460230  63.1542670   6.1851870  36.1142310
  68.7915860   6.2737930  36.1915430  68.1031380   5.6119470  36.1265420
  69.5121880   5.8276200  36.6363890  69.4216260   2.8689560  22.2505690
  69.7018550   2.0257460  22.6065110  68.6481990   3.1012670  22.7644440
  60.7410750   5.1581950  19.7096690  61.0436650   5.1649380  18.8015840
  61.4805340   4.8079810  20.2064350  65.5759390  19.9238810  34.6913130
  65.5018090  20.8273950  34.9985500  64.6738230  19.6050710  34.6635200
  63.9595680   4.1016570  20.6952890  63.6117680   3.4240560  20.1155340
  64.1608450   3.6406080  21.5096280  66.1244720  19.0897320  22.3139490
  67.0195510  19.4282290  22.3358250  66.1562350  18.3676730  21.6863770
  59.7640880  14.4624370  20.5426490  60.2015750  15.0054040  21.1984070
  60.2488610  13.6371320  20.5522830  56.9786680  17.2513400  27.9946750
  57.3089690  16.3834460  27.7625390  57.4077680  17.4571920  28.8251710
  61.5748600  15.5822410  25.6548720  61.2744140  15.4587380  26.5552630
  61.4686090  14.7231000  25.2464450  57.4676890  18.1183990  30.7328380
  57.0307880  18.2984790  31.5652530  58.0354570  18.8758610  30.5910100
  73.1039070  17.6200990  35.0205690  72.5041060  17.6793550  34.2769610
  73.2332970  16.6805970  35.1502540  74.3440520  15.3618810  20.3575400
  73.5133480  15.4295460  20.8282630  74.5212350  16.2522930  20.0542260
  73.7996980  12.1066290  22.8609600  74.5615890  12.6762940  22.9669290
  73.8151350  11.5393490  23.6317910  57.3001320  10.6304220  27.0917260
  56.6450160  10.3615860  26.4476960  58.1379270  10.5208700  26.6419240
  74.8056950  12.9616390  27.7051530  75.1765780  12.1783710  27.2987500
  75.4458880  13.6505490  27.5268830  71.7890710  14.3452970  33.1181850
  70.9750550  14.7750130  33.3807640  72.1964910  14.9571380  32.5050900
  73.8516150  12.4000660  20.0182120  74.1264990  13.3079540  19.8901340
  73.6626890  12.3363190  20.9544110  70.2491760   5.4245510  21.3135750
  70.6676640   5.2376490  20.4732410  69.9427820   4.5724560  21.6238680
  73.7481490  10.3369650  25.0111550  73.3725090   9.5697580  24.5792840
  73.0184610  10.7192350  25.4986480  58.3377250  11.0156790  31.6320600
  58.7050290  10.9284190  32.5116620  57.7688070  10.2523340  31.5327460
  73.1381110   9.4841170  34.6451070  72.9067200   9.2553920  33.7449020
  73.3985660  10.4040720  34.5995960  57.8893250   7.9265880  35.5379020
  56.9949300   7.8932640  35.8772730  58.4290800   8.1252670  36.3030270
  71.5769180   4.7097600  37.4230770  72.4539360   4.7181000  37.8064770
  71.5890020   3.9728440  36.8123120  56.5139400   7.8403150  23.0342590
  55.6103480   8.1033350  22.8594250  56.9980020   8.1114320  22.2542550
  73.0232450   8.5627140  28.3118790  73.5469930   8.0689790  27.6808960
  73.6091870   8.6977500  29.0566360  73.2022170   8.6467010  31.8338340
  72.2524880   8.6130550  31.9483330  73.3835180   9.5567120  31.5988110
  59.0566610   6.8968690  20.9436970  59.7658310   6.4751910  20.4584250
  58.3406550   6.9643920  20.3120320  58.7040770   2.9508020  19.9839620
  59.4268900   3.4916960  20.3020840  58.9765290   2.6771440  19.1081160
  72.5132420   7.8200490  24.2511200  73.0091540   7.5871360  25.0360080
  72.3148490   6.9812330  23.8348840  58.3932960   2.2014210  29.8862240
  59.0409150   1.6511590  29.4457400  58.8134800   2.4557360  30.7078050
  73.9419580   6.4561440  26.7848880  73.8318860   6.3017480  27.7231150
  74.7027170   5.9282380  26.5424290  72.2885300   2.3955570  33.2431880
  72.9257520   3.0089710  33.6091070  72.4360190   2.4316230  32.2981110
  74.8309850   4.2869360  20.0255020  75.7559160   4.1550540  19.8173310
  74.8085640   4.3662180  20.9791470  74.9048340   5.0580020  22.6511730
  74.1099840   4.9925140  23.1804640  75.1091620   5.9930660  22.6397080
  71.8466760  19.0971570  26.6450120  72.4425830  18.7756140  25.9684540
  72.1044910  18.6243390  27.4363390  58.1464960   2.3569880  32.6287560
  57.7979780   2.8133700  33.3945740  57.8152660   1.4627010  32.7109990
  59.7529330  15.5289480  36.7940750  59.7098960  15.1582390  37.6755210
  59.8840340  16.4667050  36.9342570  63.4535360  17.0849070  32.3950470
  63.2126720  17.3523630  31.5080990  64.3938000  17.2554800  32.4501330
  65.6589780   3.5481760  36.1506980  65.5978670   4.1403590  36.9002390
  66.5990160   3.4407720  36.0057240  68.2964340   3.2051820  35.7899270
  68.9104750   3.5231110  35.1280350  68.8413900   2.7200410  36.4095130
  74.7139520  19.1043450  33.1961110  74.2197800  19.5012320  32.4788240
  74.1052810  18.4792660  33.5898390  59.5917360  18.4751730  33.9138530
  58.9977680  18.3436430  34.6528570  59.5841200  17.6389870  33.4480630
  69.9444360   3.9754830  33.5010280  69.6157720   3.1606590  33.1212010
  70.8926660   3.9324640  33.3775970  72.3978970  19.7466870  30.4747850
  71.9381940  20.4982680  30.1005870  71.7691430  19.0273340  30.4162650
  59.2229590  15.8410110  32.8646570  58.4963650  15.2215400  32.7972520
  59.2838740  16.2350720  31.9944650  62.8274690  18.0555110  29.6495980
  63.3439710  17.4442470  29.1244240  63.4772070  18.5583890  30.1406990
  65.5670190  18.9463600  30.4764960  65.8548000  18.6917900  29.5997970
  66.0793410  18.3940960  31.0670530  66.7847200   2.6853800  31.0561470
  66.0018990   3.1599300  31.3358230  66.4910130   1.7808630  30.9474650
  71.3368270   3.3876900  29.1010560  71.7776360   3.3322000  28.2532160
  71.0675860   4.3034910  29.1720740  73.2006840   3.0192140  27.1119380
  73.1395240   2.0753360  26.9650400  73.9798870   3.1272230  27.6572840
  57.5059590  19.1584500  26.0743330  57.3381630  18.5255180  26.7725220
  56.6394100  19.3643900  25.7237520  58.1287610   2.9901280  23.5775190
  58.8866970   3.1030160  23.0039220  57.6664780   3.8270480  23.5318620
  64.6701420   5.1040550  26.5677500  63.8575930   4.7297440  26.2273380
  65.1743060   4.3485630  26.8698690  69.1726400   1.7683000  27.8060570
  69.7755770   2.3403210  28.2809090  68.4319390   2.3322440  27.5834470
  72.3161000   2.1704560  23.0800850  72.5111630   3.0688010  23.3468280
  71.5290870   1.9391640  23.5733800  59.1122290  17.8517730  23.5193470
  58.5869910  18.2325760  22.8155430  59.0366870  18.4768500  24.2403180
  60.5012760   3.5165330  22.1177160  61.0305520   2.7295130  21.9885110
  61.1341080   4.1956520  22.3512690  62.6950600   3.2540470  25.1722550
  62.0653340   2.5527780  25.3392680  62.1555740   4.0144600  24.9555710
  65.6342550  19.8679700  37.8433160  66.5609860  19.6323970  37.8869120
  65.6192980  20.6951700  37.3619190  73.8687610  19.4105270  24.8407410
  74.0439800  18.7243010  24.1968330  73.1709180  19.9352320  24.4484080
  62.8206160   2.5324450  37.6075040  62.5390430   3.0358050  36.8435860
  63.2025860   1.7346200  37.2417170  61.7115260  19.8000110  22.3942720
  62.4434080  19.5159390  21.8466610  61.9708930  19.5613390  23.2842100
  60.8730050  15.9164840  22.3989050  60.2438930  16.3849940  22.9474880
  60.9877880  15.0714060  22.8335240  69.4221620   1.9478030  38.1855510
  69.3087070   2.2672640  39.0807030  70.2391360   2.3490540  37.8892790
  72.2020110  19.0949560  37.6674200  72.9945430  18.5998790  37.4600160
  72.4953260  19.7739700  38.2749810  68.3279770   9.9670500   8.5490250
  68.2473820   9.0525110   8.2781960  67.9144190  10.4637570   7.8429960
  66.4597810  11.7449520  10.4299520  65.6839910  11.2649960  10.7198090
  67.1110740  11.0655170  10.2555680  60.4763640  12.0569330  11.3075280
  59.6448520  11.8018040  11.7071790  61.0844620  12.1280100  12.0433200
  70.4805240  16.1509710   9.2098650  70.0186770  15.3796950   9.5385820
  71.2930790  16.1775780   9.7151100  60.4564900  16.0909420  11.5033300
  60.7592940  15.2007160  11.3243520  61.2008490  16.6479640  11.2755550
  58.8855590   7.0171220   5.0917670  57.9972290   7.3587190   4.9897550
  59.1696780   6.8171540   4.1998500  56.8488600   9.6176870  10.9757370
  57.4204710   8.8499070  10.9761010  56.8490140   9.9165630  10.0663980
  66.7068550  18.4367720   8.8302640  66.0879990  18.8925220   8.2597080
  67.5620330  18.5919180   8.4292340  65.9006800  14.4206710  10.4369680
  65.8315080  13.4796650  10.2758810  66.6626660  14.5108120  11.0092250
  58.0913470   5.0261230  12.7626300  57.9116310   4.1286980  13.0429060
  57.6893550   5.5733100  13.4373250  66.9311970   7.2277090  10.6638610
  67.3076790   6.3548970  10.5512280  66.8331480   7.5635790   9.7729050
  61.0616980   5.6002720   6.1256050  61.1683730   6.5006450   6.4324810
  60.1509340   5.5520690   5.8350700  70.7136090   4.7227530   7.5966950
  71.5345710   4.2324100   7.6392430  70.7470170   5.3125190   8.3498790
  58.7100140   7.5221730  11.3708640  59.3910250   7.7860100  11.9896040
  58.3948190   6.6822600  11.7046650  62.9024710   8.5689090  10.4581230
  63.4102930   9.0670060  11.0986250  63.4337950   7.7924290  10.2820590
  75.0035640   6.7394280  14.1610580  74.2987810   7.1275990  13.6425690
  75.2693560   7.4344570  14.7631510  61.1860810   3.2087650  14.7244650
  61.1879250   3.7260040  13.9190550  60.3565120   2.7317830  14.7014580
  67.5731900  13.3206960   6.2234550  66.9549170  13.7856410   5.6597270
  68.0855150  14.0134440   6.6404060  62.4363660  12.8482830  12.9018150
  62.1033040  13.4751750  13.5439220  62.6130340  13.3744710  12.1219820
  70.9497570   6.6627910  10.3694490  70.2453140   6.9512800  10.9497600
  71.3109730   7.4728020  10.0094050  60.8676140   4.9197610  12.7315100
  61.2092950   5.7639660  12.4368970  59.9291950   5.0681350  12.8480440
  61.6482760  14.8163630  14.7167330  62.2656760  15.4914710  14.4351780
  60.7875880  15.2251610  14.6254830  56.9415100  14.0063490   3.5974180
  56.5643080  14.4950590   2.8659080  57.1988170  14.6788770   4.2280710
  72.5660350  16.2803040  12.6321970  71.8823870  16.9502150  12.6238640
  73.1054640  16.4783690  11.8666830  74.0184490   6.1082700  10.7603700
  73.0709400   6.1421680  10.8919130  74.3434480   6.9221650  11.1453060
  64.5504030   2.4079880   9.0559690  64.8579010   1.8526770   8.3395190
  63.6204730   2.5424340   8.8732680  70.1019090  18.1247170  11.3467150
  70.1146250  17.7209460  10.4789410  69.5494310  18.8994460  11.2428580
  71.3964510  14.8463390   6.4357320  71.2860840  13.9037720   6.5606740
  71.3932760  15.2079030   7.3220080  69.5004530  13.0277010  12.6749760
  69.9173320  12.8137120  11.8403220  70.2244350  13.2849800  13.2458380
  66.9384790  10.4728710   5.7919810  66.0114070  10.4066090   6.0208280
  67.0909610  11.4108840   5.6775050  66.9253870   6.7445710   2.7886970
  65.9857540   6.9059670   2.8739430  67.2437130   7.4631390   2.2422960
  73.4466630  11.4264230  12.7666000  72.6185260  11.4957320  12.2916130
  74.0417110  12.0118540  12.2981830  70.9682080  12.0349010   6.2955060
  70.3494500  11.6968560   5.6481360  70.9506530  11.3908770   7.0034250
  70.4108640   8.2133550  13.7120870  69.9979820   9.0387260  13.9660860
  69.6784590   7.6278590  13.5197230  62.5441430  10.9993450   8.5739540
  62.1398430  10.2870700   8.0785440  62.6304550  10.6546690   9.4627580
  63.0123130  14.6861010  10.7378750  62.7151420  14.0806480  10.0586530
  63.9622950  14.7238320  10.6268110  61.2570050   7.7736660  12.3538580
  61.8084640   7.8832000  11.5791830  61.7713560   8.1474260  13.0693810
  71.1008740  18.2592880  14.4001850  70.6239300  19.0665070  14.2074460
  70.4170530  17.6071210  14.5528060  62.1041560  14.4242700  17.3886550
  61.2070090  14.6482670  17.6359950  62.1294430  14.5477640  16.4397950
  69.1446780  11.2735820   3.3027810  69.5840060  10.4358250   3.1565630
  69.8575200  11.9065220   3.3891950  60.9312780  11.2956020  15.9643920
  60.7920550  12.1678820  16.3331320  60.0494140  10.9528830  15.8191860
  67.2542160  16.2131890   7.2709050  67.6938070  16.9556220   6.8564440
  67.1929050  16.4558460   8.1948010  62.7293130  17.2377720  18.1729070
  62.7008560  17.6420670  17.3057500  62.5658100  16.3088080  18.0100670
  59.2446060   9.8938430   6.0746190  59.1243660  10.6200520   5.4627460
  58.9346950   9.1241340   5.5974100  74.6807950  18.0204820  19.4693240
  75.1567670  18.4987710  20.1482320  75.3015110  17.9522310  18.7438740
  56.8831430  13.0653570  11.8814830  56.9611850  13.2002340  10.9370550
  57.4973110  12.3569460  12.0742950  58.1279060  14.7653760   8.2921010
  57.7207140  14.9068350   7.4374610  59.0192070  14.4813920   8.0892220
  74.0841200  15.2117670  16.6293250  74.2104260  14.9729550  15.7110430
  74.1262580  14.3802210  17.1015330  67.9457940  18.9145670  15.1988060
  68.4602610  18.8253680  16.0010490  67.1027020  19.2605370  15.4915970
  69.9212340  19.2001010   4.6272060  69.7613480  18.9103950   5.5253890
  69.7559050  18.4241140   4.0917290  62.4000720  18.9799540   6.4043680
  62.2243200  18.0635080   6.1911480  61.5456460  19.3386830   6.6441480
  69.6238470  16.7088570   3.1870060  68.9303630  16.7065860   2.5272340
  70.3661330  16.2847890   2.7564230  69.1888400  18.3351280   7.2618550
  69.6445350  17.5540660   7.5757170  69.5280920  19.0458100   7.8059730
  73.9365210   7.2650130  17.5942990  73.3209480   7.7729800  17.0658450
  73.6161630   6.3648460  17.5368930  56.9390950  14.1067740  14.4209290
  57.1021990  13.6373100  13.6028660  57.4043400  13.5991300  15.0858130
  61.7109720   3.2373500   9.4569860  61.2677870   4.0183040   9.1254380
  62.2694710   3.5603390  10.1640800  65.9979530   6.1042020  15.0605180
  65.5358900   6.3125040  15.8725120  65.5957640   5.2901370  14.7575850
  70.9984040   7.3250970  16.1901840  70.1477630   7.0256720  16.5110910
  70.8385830   7.5692980  15.2785660  68.0933750   8.8252720  18.2900630
  68.4187160   7.9916470  17.9502860  68.8814080   9.3481240  18.4378960
  64.8268540   2.8584200   4.3375690  64.2022720   2.8544070   5.0629000
  64.7398660   1.9915160   3.9411660  63.7485620   3.7820830  11.3159460
  64.0457950   4.6883660  11.2351480  64.2971180   3.2939610  10.7019030
  61.5023940   8.3607070   7.1851110  61.2764860   8.1444240   8.0897730
  60.7216470   8.7935530   6.8397080  68.7321700   8.3670440   5.7841760
  68.1330590   9.0906240   5.6005380  69.2801310   8.3047220   5.0018210
  63.9423150   9.2592650  17.8511380  63.8466750   8.3187380  17.7011780
  64.7855130   9.4807720  17.4559450  67.3386570   7.0033980   7.8145040
  67.7316140   7.3206180   7.0013730  67.7003420   6.1245860   7.9289560
  59.0733690   5.6706320  16.0045160  58.6797080   6.5181530  16.2117940
  58.3852090   5.0332690  16.1953800  65.6478740   5.7541290  19.0741900
  64.9577060   5.5613490  19.7087990  66.3911040   6.0375930  19.6066200
  56.3750740   3.5934780  10.0375240  56.0863790   4.1637640  10.7500220
  57.1196500   3.1139230  10.4006470  67.9241710   9.5939730  11.9095820
  67.1922830  10.1026540  12.2585920  67.5266050   8.7769710  11.6084600
  64.3619100   6.2693930  10.3148310  64.3655160   5.8283880   9.4652850
  65.2570220   6.5911260  10.4220130  60.2121480   6.1520420   9.2742520
  59.8721530   6.6295650  10.0309570  59.4498800   5.6985540   8.9143620
  64.4239250   7.2706010   3.3055070  64.5452070   7.2292490   4.2540890
  64.0387760   8.1330160   3.1501800  68.3867620   5.0473410  11.3218760
  68.4040360   5.4982060  12.1660610  68.1383200   4.1479050  11.5352200
  63.4360750   9.5807150   2.7038370  62.8677650   9.1325400   2.0774280
  64.1449750   9.9399930   2.1703520  71.8138370   2.4605590  17.1605140
  72.1384140   1.7295250  17.6863120  71.8494880   2.1419230  16.2586130
  58.5129930  13.4819170  16.5805100  58.1284720  12.8412840  17.1788060
  58.8242120  14.1855290  17.1499830  64.6627070  10.3295710  12.0613720
  65.0297200   9.8554280  12.8075060  64.4732130  11.2037280  12.4022060
  57.5267560   5.0739400   8.1907190  57.2414480   4.7095070   9.0285810
  57.4646420   4.3419860   7.5770330  62.4526440   9.3704350  14.3797930
  62.1483510  10.2496330  14.6048290  63.4072900   9.4304140  14.4155370
  60.9808230  13.5765340   4.9764780  60.2070490  13.0362960   4.8163500
  61.7102860  13.0571950   4.6382540  71.7396210  12.5730700  10.7691170
  72.4595330  13.0685990  10.3787280  71.5378030  11.8948590  10.1245040
  67.2006150   3.9668660   4.9120560  66.3870760   3.4681830   4.8365870
  67.0068100   4.8066910   4.4956910  67.1215010  12.6439760  16.6560170
  67.0552320  11.7235430  16.4017760  66.4920150  12.7415200  17.3704810
  69.9154540   8.3388310   3.2082720  70.8034160   8.6505540   3.0334060
  69.8859630   7.4660560   2.8163300  61.0245630  13.2445720   8.6143590
  61.5424300  12.4413980   8.5600480  60.5729650  13.1824860   9.4560420
  65.9115130  14.5112000   3.8870890  66.2530830  15.2554230   3.3914210
  65.0827840  14.8243120   4.2495720  58.5090170  10.2107090  15.5269290
  58.1505110  10.8760940  16.1142630  58.2144730   9.3790640  15.8981910
  61.7103290  10.6691330  18.4108840  61.4103430  10.8148510  17.5136660
  62.4814530  10.1096620  18.3182230  67.0531740  15.4660330  16.4063970
  67.0676280  14.5341290  16.1882880  66.3456840  15.5520090  17.0453740
  72.1868810   9.6500150   2.6762580  72.1032530  10.0814370   1.8259020
  72.9063000  10.1098500   3.1089400  73.2642950  12.1067670  15.7532550
  72.5391140  12.6996450  15.5561940  73.7918410  12.0991210  14.9545920
  73.2156060  16.5042410   5.4044710  72.5732220  15.8498030   5.6788430
  72.8286720  16.9097500   4.6285380  68.7942540  13.8327840   9.2516400
  69.1466360  13.2355970   8.5917770  67.9104870  13.5072070   9.4224650
  64.8805820  14.5925530   6.6586810  65.5676950  15.1394740   7.0394400
  64.0938240  15.1366260   6.6936420  57.0198220  10.2098350   2.1503890
  57.8893070  10.4923150   2.4339810  56.5288540  11.0234220   2.0352700
  64.1833030  11.5971560   6.2712170  64.6395810  12.4076810   6.4972360
  63.8321240  11.2794700   7.1030660  66.4865640  17.1077900  13.5004470
  67.1307860  17.3137280  14.1777890  66.8495080  16.3466300  13.0475320
  60.0844810   1.9409210   6.7434690  59.9559440   1.9327110   7.6919610
  59.2606830   2.2792300   6.3925700  67.7597720  15.1110250  12.2181920
  68.4019950  14.4103410  12.3314090  68.2847070  15.8908690  12.0378810
  69.5335340  15.9105150  15.4217980  69.8691580  16.4971840  16.0995900
  68.6135680  15.7797860  15.6515770  57.3869470  19.4225730   2.7165520
  57.7467110  20.0215070   2.0622790  57.2461810  19.9685620   3.4900550
  57.0838740   3.7000330  16.2041390  56.3697260   3.8997250  16.8094000
  57.5033780   2.9239900  16.5756190  71.1869690  13.3130810   3.6035220
  70.8991390  13.7743500   4.3913100  71.9821860  12.8528580   3.8719440
  57.3711330  17.6880590  17.1907920  57.4802450  16.7475330  17.0503310
  56.7191890  17.9535340  16.5421650  65.3623920  15.9596480  18.5906040
  65.0420790  15.2405720  19.1351730  64.6882280  16.6351550  18.6642100
  63.4038090  16.8056930   3.5339190  63.3948190  17.5386620   2.9183700
  62.4836450  16.5588510   3.6266150  59.0044730  12.0271820   4.2785950
  58.3972680  12.7670720   4.2881250  59.4794080  12.1171180   3.4524150
  68.5777520   6.1922640  13.9542840  68.9458340   5.3717850  14.2822410
  67.7175720   6.2524530  14.3698490  71.9439550   5.1479580   4.7630400
  71.3152710   5.2525250   4.0488630  71.4491470   5.3676360   5.5524280
  63.9123580   7.4265530   6.1788280  63.2039730   7.8951870   6.6201890
  64.1968060   6.7687540   6.8133470  65.5379510   8.8462230  14.1780810
  66.0364760   9.3208050  14.8432660  65.6802460   7.9225750  14.3850840
  67.9439010   4.1516190   7.6184070  67.8206790   4.1702320   6.6693580
  68.8923570   4.1995130   7.7382470  65.0315800  19.3871490   6.8912050
  65.2857300  19.3492880   5.9691420  64.0828280  19.2604820   6.8840300
  62.1158600   5.7350610   3.5538990  62.9649130   6.1720760   3.4879180
  61.7489870   6.0470870   4.3811050  72.7446370   5.0630190  15.0209200
  72.2419970   5.8035590  15.3603010  73.5603030   5.4514190  14.7045990
  71.0368380  10.3063370   8.4670560  70.0958520  10.3213600   8.6418250
  71.3512450   9.5199330   8.9130860  59.7096780   9.4208040   2.7107410
  59.7900370   8.4735550   2.8224810  60.6016530   9.7514920   2.8168070
  73.0393960  17.4772220  10.1424820  73.1641380  18.3003390  10.6148630
  73.9059520  17.2662950   9.7948970  60.5111490  19.5703430   9.8141950
  61.2473970  19.0218890  10.0850520  60.8952410  20.4359440   9.6747940
  57.3956970  15.6377000   5.6883460  56.4696750  15.8798140   5.6788870
  57.8613400  16.4651260   5.5668210  59.5169770  18.7549500  19.0027530
  60.3182500  19.0761550  19.4162930  59.0021590  18.3945080  19.7247440
  68.3534400  14.8629370  18.9502940  67.7472560  14.8860970  18.2098690
  68.0488510  14.1312410  19.4870190  69.7834770  18.5909660  17.5612350
  70.7356520  18.5067680  17.5112590  69.6362990  19.2551370  18.2346140
  72.6743970  17.9703870   3.0604260  72.3885480  17.5569010   2.2458440
  72.4763520  18.8991580   2.9404780  57.2367580  11.2422960  17.9463580
  57.7406600  10.6630240  18.5179810  56.4975000  11.5263190  18.4839950
  64.2905520  12.6493950  17.4799100  63.5251190  13.2178950  17.3953770
  64.4721480  12.3570160  16.5867330  67.3793930  13.0257180   2.1051860
  66.8304030  13.4726480   2.7494600  68.0013190  12.5206430   2.6289530
  71.4328870  14.3799280  18.0374120  72.1738340  14.7175040  17.5341580
  70.6701550  14.5491340  17.4843890  59.2690660   9.3852550  18.8413650
  59.3096000   9.0866420  19.7498880  60.1236160   9.7860160  18.6821170
  63.0469050  11.9848100   4.0017160  63.4685470  11.8187970   4.8448550
  63.1719890  11.1748330   3.5072300  61.2096470   7.9644650  16.8088140
  60.6792930   7.4735600  16.1811480  61.8784540   8.3928850  16.2746070
  70.1074530  12.4314110  16.5729330  70.5215550  12.5859190  17.4219750
  69.1725530  12.5569330  16.7355110  70.5796700   9.7710270  18.5768480
  71.1617470   9.0162590  18.4888960  70.7558470  10.3017710  17.7999960
  61.6968770   4.9307020  16.8885430  61.6025640   4.3127770  16.1636300
  61.1166160   5.6573310  16.6615340  64.4630210   3.4880260  13.9212820
  64.0147510   3.5104520  13.0758370  63.8295410   3.0899280  14.5183120
  64.8689760  12.3834590  14.5425260  65.2877870  13.2267320  14.3701500
  63.9498390  12.5206630  14.3132040  67.2053660  10.1150770  15.9263100
  67.3249870   9.5191910  16.6657940  68.0647660  10.1520460  15.5064400
  69.5441560  10.6687960  14.5025610  69.0176780  11.1930580  13.8990750
  69.8872900  11.3015350  15.1335340  62.7197180  18.6887600  15.6582990
  62.1818270  19.4133660  15.3391690  62.9731140  18.2117940  14.8680330
  63.9722430   6.6572120  17.1838920  64.5622120   6.3487970  17.8716740
  63.1542670   6.1851870  17.3398820  68.7915860   6.2737930  17.4171940
  68.1031380   5.6119470  17.3521930  69.5121880   5.8276200  17.8620400
  69.4216260   2.8689560   3.4762200  69.7018550   2.0257460   3.8321620
  68.6481990   3.1012670   3.9900950  65.5759390  19.9238810  15.9169640
  65.5018090  20.8273950  16.2242010  64.6738230  19.6050710  15.8891710
  66.1244720  19.0897320   3.5396000  67.0195510  19.4282290   3.5614760
  66.1562350  18.3676730   2.9120280  59.7640880  14.4624370   1.7683000
  60.2015750  15.0054040   2.4240580  60.2488610  13.6371320   1.7779340
  56.9786680  17.2513400   9.2203260  57.3089690  16.3834460   8.9881900
  57.4077680  17.4571920  10.0508220  61.5748600  15.5822410   6.8805230
  61.2744140  15.4587380   7.7809140  61.4686090  14.7231000   6.4720960
  57.4676890  18.1183990  11.9584890  57.0307880  18.2984790  12.7909040
  58.0354570  18.8758610  11.8166610  73.1039070  17.6200990  16.2462200
  72.5041060  17.6793550  15.5026120  73.2332970  16.6805970  16.3759050
  73.7996980  12.1066290   4.0866110  74.5615890  12.6762940   4.1925800
  73.8151350  11.5393490   4.8574420  57.3001320  10.6304220   8.3173770
  56.6450160  10.3615860   7.6733470  58.1379270  10.5208700   7.8675750
  74.8056950  12.9616390   8.9308040  75.1765780  12.1783710   8.5244010
  75.4458880  13.6505490   8.7525340  71.7890710  14.3452970  14.3438360
  70.9750550  14.7750130  14.6064150  72.1964910  14.9571380  13.7307410
  70.2491760   5.4245510   2.5392260  70.6676640   5.2376490   1.6988920
  69.9427820   4.5724560   2.8495190  73.7481490  10.3369650   6.2368060
  73.3725090   9.5697580   5.8049350  73.0184610  10.7192350   6.7242990
  58.3377250  11.0156790  12.8577110  58.7050290  10.9284190  13.7373130
  57.7688070  10.2523340  12.7583970  73.1381110   9.4841170  15.8707580
  72.9067200   9.2553920  14.9705530  73.3985660  10.4040720  15.8252470
  57.8893250   7.9265880  16.7635530  56.9949300   7.8932640  17.1029240
  58.4290800   8.1252670  17.5286780  71.5769180   4.7097600  18.6487280
  72.4539360   4.7181000  19.0321280  71.5890020   3.9728440  18.0379630
  56.5139400   7.8403150   4.2599100  55.6103480   8.1033350   4.0850760
  56.9980020   8.1114320   3.4799060  73.0232450   8.5627140   9.5375300
  73.5469930   8.0689790   8.9065470  73.6091870   8.6977500  10.2822870
  73.2022170   8.6467010  13.0594850  72.2524880   8.6130550  13.1739840
  73.3835180   9.5567120  12.8244620  72.5132420   7.8200490   5.4767710
  73.0091540   7.5871360   6.2616590  72.3148490   6.9812330   5.0605350
  58.3932960   2.2014210  11.1118750  59.0409150   1.6511590  10.6713910
  58.8134800   2.4557360  11.9334560  73.9419580   6.4561440   8.0105390
  73.8318860   6.3017480   8.9487660  74.7027170   5.9282380   7.7680800
  72.2885300   2.3955570  14.4688390  72.9257520   3.0089710  14.8347580
  72.4360190   2.4316230  13.5237620  74.9048340   5.0580020   3.8768240
  74.1099840   4.9925140   4.4061150  75.1091620   5.9930660   3.8653590
  71.8466760  19.0971570   7.8706630  72.4425830  18.7756140   7.1941050
  72.1044910  18.6243390   8.6619900  58.1464960   2.3569880  13.8544070
  57.7979780   2.8133700  14.6202250  57.8152660   1.4627010  13.9366500
  59.7529330  15.5289480  18.0197260  59.7098960  15.1582390  18.9011720
  59.8840340  16.4667050  18.1599080  63.4535360  17.0849070  13.6206980
  63.2126720  17.3523630  12.7337500  64.3938000  17.2554800  13.6757840
  65.6589780   3.5481760  17.3763490  65.5978670   4.1403590  18.1258900
  66.5990160   3.4407720  17.2313750  68.2964340   3.2051820  17.0155780
  68.9104750   3.5231110  16.3536860  68.8413900   2.7200410  17.6351640
  74.7139520  19.1043450  14.4217620  74.2197800  19.5012320  13.7044750
  74.1052810  18.4792660  14.8154900  59.5917360  18.4751730  15.1395040
  58.9977680  18.3436430  15.8785080  59.5841200  17.6389870  14.6737140
  69.9444360   3.9754830  14.7266790  69.6157720   3.1606590  14.3468520
  70.8926660   3.9324640  14.6032480  72.3978970  19.7466870  11.7004360
  71.9381940  20.4982680  11.3262380  71.7691430  19.0273340  11.6419160
  59.2229590  15.8410110  14.0903080  58.4963650  15.2215400  14.0229030
  59.2838740  16.2350720  13.2201160  62.8274690  18.0555110  10.8752490
  63.3439710  17.4442470  10.3500750  63.4772070  18.5583890  11.3663500
  65.5670190  18.9463600  11.7021470  65.8548000  18.6917900  10.8254480
  66.0793410  18.3940960  12.2927040  66.7847200   2.6853800  12.2817980
  66.0018990   3.1599300  12.5614740  66.4910130   1.7808630  12.1731160
  71.3368270   3.3876900  10.3267070  71.7776360   3.3322000   9.4788670
  71.0675860   4.3034910  10.3977250  73.2006840   3.0192140   8.3375890
  73.1395240   2.0753360   8.1906910  73.9798870   3.1272230   8.8829350
  57.5059590  19.1584500   7.2999840  57.3381630  18.5255180   7.9981730
  56.6394100  19.3643900   6.9494030  58.1287610   2.9901280   4.8031700
  58.8866970   3.1030160   4.2295730  57.6664780   3.8270480   4.7575130
  64.6701420   5.1040550   7.7934010  63.8575930   4.7297440   7.4529890
  65.1743060   4.3485630   8.0955200  69.1726400   1.7683000   9.0317080
  69.7755770   2.3403210   9.5065600  68.4319390   2.3322440   8.8090980
  72.3161000   2.1704560   4.3057360  72.5111630   3.0688010   4.5724790
  71.5290870   1.9391640   4.7990310  59.1122290  17.8517730   4.7449980
  58.5869910  18.2325760   4.0411940  59.0366870  18.4768500   5.4659690
  60.5012760   3.5165330   3.3433670  61.0305520   2.7295130   3.2141620
  61.1341080   4.1956520   3.5769200  62.6950600   3.2540470   6.3979060
  62.0653340   2.5527780   6.5649190  62.1555740   4.0144600   6.1812220
  65.6342550  19.8679700  19.0689670  66.5609860  19.6323970  19.1125630
  65.6192980  20.6951700  18.5875700  73.8687610  19.4105270   6.0663920
  74.0439800  18.7243010   5.4224840  73.1709180  19.9352320   5.6740590
  62.8206160   2.5324450  18.8331550  62.5390430   3.0358050  18.0692370
  63.2025860   1.7346200  18.4673680  61.7115260  19.8000110   3.6199230
  62.4434080  19.5159390   3.0723120  61.9708930  19.5613390   4.5098610
  60.8730050  15.9164840   3.6245560  60.2438930  16.3849940   4.1731390
  60.9877880  15.0714060   4.0591750  69.4221620   1.9478030  19.4112020
  69.3087070   2.2672640  20.3063540  70.2391360   2.3490540  19.1149300
  72.2020110  19.0949560  18.8930710  72.9945430  18.5998790  18.6856670
  72.4953260  19.7739700  19.5006320  49.5536280 141.3874930 139.9694680
  49.4730330 140.4729540 139.6986390  49.1400700 141.8842000 139.2634390
  47.6854320 143.1653950 141.8503950  46.9096420 142.6854390 142.1402520
  48.3367250 142.4859600 141.6760110  41.7020150 143.4773760 142.7279710
  40.8705030 143.2222470 143.1276220  42.3101130 143.5484530 143.4637630
  51.7061750 147.5714140 140.6303080  51.2443280 146.8001380 140.9590250
  52.5187300 147.5980210 141.1355530  41.6821410 147.5113850 142.9237730
  41.9849450 146.6211590 142.7447950  42.4265000 148.0684070 142.6959980
  40.1112100 138.4375650 136.5122100  39.2228800 138.7791620 136.4101980
  40.3953290 138.2375970 135.6202930  38.0745110 141.0381300 142.3961800
  38.6461220 140.2703500 142.3965440  38.0746650 141.3370060 141.4868410
  47.9325060 149.8572150 140.2507070  47.3136500 150.3129650 139.6801510
  48.7876840 150.0123610 139.8496770  47.1263310 145.8411140 141.8574110
  47.0571590 144.9001080 141.6963240  47.8883170 145.9312550 142.4296680
  39.3169980 136.4465660 144.1830730  39.1372820 135.5491410 144.4633490
  38.9150060 136.9937530 144.8577680  48.1568480 138.6481520 142.0843040
  48.5333300 137.7753400 141.9716710  48.0587990 138.9840220 141.1933480
  42.2873490 137.0207150 137.5460480  42.3940240 137.9210880 137.8529240
  41.3765850 136.9725120 137.2555130  51.9392600 136.1431960 139.0171380
  52.7602220 135.6528530 139.0596860  51.9726680 136.7329620 139.7703220
  39.9356650 138.9426160 142.7913070  40.6166760 139.2064530 143.4100470
  39.6204700 138.1027030 143.1251080  44.1281220 139.9893520 141.8785660
  44.6359440 140.4874490 142.5190680  44.6594460 139.2128720 141.7025020
  56.2292150 138.1598710 145.5815010  55.5244320 138.5480420 145.0630120
  56.4950070 138.8549000 146.1835940  42.4117320 134.6292080 146.1449080
  42.4135760 135.1464470 145.3394980  41.5821630 134.1522260 146.1219010
  48.7988410 144.7411390 137.6438980  48.1805680 145.2060840 137.0801700
  49.3111660 145.4338870 138.0608490  43.6620170 144.2687260 144.3222580
  43.3289550 144.8956180 144.9643650  43.8386850 144.7949140 143.5424250
  52.1754080 138.0832340 141.7898920  51.4709650 138.3717230 142.3702030
  52.5366240 138.8932450 141.4298480  42.0932650 136.3402040 144.1519530
  42.4349460 137.1844090 143.8573400  41.1548460 136.4885780 144.2684870
  42.8739270 146.2368060 146.1371760  43.4913270 146.9119140 145.8556210
  42.0132390 146.6456040 146.0459260  38.1671610 145.4267920 135.0178610
  37.7899590 145.9155020 134.2863510  38.4244680 146.0993200 135.6485140
  53.7916860 147.7007470 144.0526400  53.1080380 148.3706580 144.0443070
  54.3311150 147.8988120 143.2871260  55.2441000 137.5287130 142.1808130
  54.2965910 137.5626110 142.3123560  55.5690990 138.3426080 142.5657490
  45.7760540 133.8284310 140.4764120  46.0835520 133.2731200 139.7599620
  44.8461240 133.9628770 140.2937110  51.3275600 149.5451600 142.7671580
  51.3402760 149.1413890 141.8993840  50.7750820 150.3198890 142.6633010
  52.6221020 146.2667820 137.8561750  52.5117350 145.3242150 137.9811170
  52.6189270 146.6283460 138.7424510  50.7261040 144.4481440 144.0954190
  51.1429830 144.2341550 143.2607650  51.4500860 144.7054230 144.6662810
  48.1641300 141.8933140 137.2124240  47.2370580 141.8270520 137.4412710
  48.3166120 142.8313270 137.0979480  48.1510380 138.1650140 134.2091400
  47.2114050 138.3264100 134.2943860  48.4693640 138.8835820 133.6627390
  54.6723140 142.8468660 144.1870430  53.8441770 142.9161750 143.7120560
  55.2673620 143.4322970 143.7186260  52.1938590 143.4553440 137.7159490
  51.5751010 143.1172990 137.0685790  52.1763040 142.8113200 138.4238680
  51.6365150 139.6337980 145.1325300  51.2236330 140.4591690 145.3865290
  50.9041100 139.0483020 144.9401660  43.7697940 142.4197880 139.9943970
  43.3654940 141.7075130 139.4989870  43.8561060 142.0751120 140.8832010
  44.2379640 146.1065440 142.1583180  43.9407930 145.5010910 141.4790960
  45.1879460 146.1442750 142.0472540  42.4826560 139.1941090 143.7743010
  43.0341150 139.3036430 142.9996260  42.9970070 139.5678690 144.4898240
  52.3265250 149.6797310 145.8206280  51.8495810 150.4869500 145.6278890
  51.6427040 149.0275640 145.9732490  43.3298070 145.8447130 148.8090980
  42.4326600 146.0687100 149.0564380  43.3550940 145.9682070 147.8602380
  50.3703290 142.6940250 134.7232240  50.8096570 141.8562680 134.5770060
  51.0831710 143.3269650 134.8096380  42.1569290 142.7160450 147.3848350
  42.0177060 143.5883250 147.7535750  41.2750650 142.3733260 147.2396290
  48.4798670 147.6336320 138.6913480  48.9194580 148.3760650 138.2768870
  48.4185560 147.8762890 139.6152440  43.9549640 148.6582150 149.5933500
  43.9265070 149.0625100 148.7261930  43.7914610 147.7292510 149.4305100
  53.9520430 133.9483060 133.0373280  53.6393090 134.0409890 133.9372350
  54.7132900 134.5264090 132.9870710  40.4702570 141.3142860 137.4950620
  40.3500170 142.0404950 136.8831890  40.1603460 140.5445770 137.0178530
  38.1087940 144.4858000 143.3019260  38.1868360 144.6206770 142.3574980
  38.7229620 143.7773890 143.4947380  39.3535570 146.1858190 139.7125440
  38.9463650 146.3272780 138.8579040  40.2448580 145.9018350 139.5096650
  55.3097710 146.6322100 148.0497680  55.4360770 146.3933980 147.1314860
  55.3519090 145.8006640 148.5219760  49.1714450 150.3350100 146.6192490
  49.6859120 150.2458110 147.4214920  48.3283530 150.6809800 146.9120400
  51.1468850 150.6205440 136.0476490  50.9869990 150.3308380 136.9458320
  50.9815560 149.8445570 135.5121720  43.6257230 150.4003970 137.8248110
  43.4499710 149.4839510 137.6115910  42.7712970 150.7591260 138.0645910
  50.8494980 148.1293000 134.6074490  50.1560140 148.1270290 133.9476770
  51.5917840 147.7052320 134.1768660  50.4144910 149.7555710 138.6822980
  50.8701860 148.9745090 138.9961600  50.7537430 150.4662530 139.2264160
  55.1621720 138.6854560 149.0147420  54.5465990 139.1934230 148.4862880
  54.8418140 137.7852890 148.9573360  38.1647460 145.5272170 145.8413720
  38.3278500 145.0577530 145.0233090  38.6299910 145.0195730 146.5062560
  42.9366230 134.6577930 140.8774290  42.4934380 135.4387470 140.5458810
  43.4951220 134.9807820 141.5845230  47.2236040 137.5246450 146.4809610
  46.7615410 137.7329470 147.2929550  46.8214150 136.7105800 146.1780280
  52.2240550 138.7455400 147.6106270  51.3734140 138.4461150 147.9315340
  52.0642340 138.9897410 146.6990090  49.3190260 140.2457150 149.7105060
  49.6443670 139.4120900 149.3707290  50.1070590 140.7685670 149.8583390
  46.0525050 134.2788630 135.7580120  45.4279230 134.2748500 136.4833430
  45.9655170 133.4119590 135.3616090  44.9742130 135.2025260 142.7363890
  45.2714460 136.1088090 142.6555910  45.5227690 134.7144040 142.1223460
  42.7280450 139.7811500 138.6055540  42.5021370 139.5648670 139.5102160
  41.9472980 140.2139960 138.2601510  49.9578210 139.7874870 137.2046190
  49.3587100 140.5110670 137.0209810  50.5057820 139.7251650 136.4222640
  45.1679660 140.6797080 149.2715810  45.0723260 139.7391810 149.1216210
  46.0111640 140.9012150 148.8763880  48.5643080 138.4238410 139.2349470
  48.9572650 138.7410610 138.4218160  48.9259930 137.5450290 139.3493990
  40.2990200 137.0910750 147.4249590  39.9053590 137.9385960 147.6322370
  39.6108600 136.4537120 147.6158230  37.6007250 135.0139210 141.4579670
  37.3120300 135.5842070 142.1704650  38.3453010 134.5343660 141.8210900
  37.7877480 138.9559330 132.6682390  37.7052150 139.8990090 132.8097380
  37.4360540 138.8134240 131.7894740  49.1498220 141.0144160 143.3300250
  48.4179340 141.5230970 143.6790350  48.7522560 140.1974140 143.0289030
  45.5875610 137.6898360 141.7352740  45.5911670 137.2488310 140.8857280
  46.4826730 138.0115690 141.8424560  41.4377990 137.5724850 140.6946950
  41.0978040 138.0500080 141.4514000  40.6755310 137.1189970 140.3348050
  45.6495760 138.6910440 134.7259500  45.7708580 138.6496920 135.6745320
  45.2644270 139.5534590 134.5706230  49.6124130 136.4677840 142.7423190
  49.6296870 136.9186490 143.5865040  49.3639710 135.5683480 142.9556630
  44.6617260 141.0011580 134.1242800  44.0934160 140.5529830 133.4978710
  45.3706260 141.3604360 133.5907950  53.0394880 133.8810020 148.5809570
  53.3640650 133.1499680 149.1067550  53.0751390 133.5623660 147.6790560
  39.7386440 144.9023600 148.0009530  39.3541230 144.2617270 148.5992490
  40.0498630 145.6059720 148.5704260  45.8883580 141.7500140 143.4818150
  46.2553710 141.2758710 144.2279490  45.6988640 142.6241710 143.8226490
  38.7524070 136.4943830 139.6111620  38.4670990 136.1299500 140.4490240
  38.6902930 135.7624290 138.9974760  43.6782950 140.7908780 145.8002360
  43.3740020 141.6700760 146.0252720  44.6329410 140.8508570 145.8359800
  42.2064740 144.9969770 136.3969210  41.4327000 144.4567390 136.2367930
  42.9359370 144.4776380 136.0586970  52.9652720 143.9935130 142.1895600
  53.6851840 144.4890420 141.7991710  52.7634540 143.3153020 141.5449470
  48.4262660 135.3873090 136.3324990  47.6127270 134.8886260 136.2570300
  48.2324610 136.2271340 135.9161340  48.3471520 144.0644190 148.0764600
  48.2808830 143.1439860 147.8222190  47.7176660 144.1619630 148.7909240
  51.1411050 139.7592740 134.6287150  52.0290670 140.0709970 134.4538490
  51.1116140 138.8864990 134.2367730  42.2502140 144.6650150 140.0348020
  42.7680810 143.8618410 139.9804910  41.7986160 144.6029290 140.8764850
  47.1371640 145.9316430 135.3075320  47.4787340 146.6758660 134.8118640
  46.3084350 146.2447550 135.6700150  39.7346680 141.6311520 146.9473720
  39.3761620 142.2965370 147.5347060  39.4401240 140.7995070 147.3186340
  42.9359800 142.0895760 149.8313270  42.6359940 142.2352940 148.9341090
  43.7071040 141.5301050 149.7386660  48.2788250 146.8864760 147.8268400
  48.2932790 145.9545720 147.6087310  47.5713350 146.9724520 148.4658170
  53.4125320 141.0704580 134.0967010  53.3289040 141.5018800 133.2463450
  54.1319510 141.5302930 134.5293830  54.4899460 143.5272100 147.1736980
  53.7647650 144.1200880 146.9766370  55.0174920 143.5195640 146.3750350
  54.4412570 147.9246840 136.8249140  53.7988730 147.2702460 137.0992860
  54.0543230 148.3301930 136.0489810  50.0199050 145.2532270 140.6720830
  50.3722870 144.6560400 140.0122200  49.1361380 144.9276500 140.8429080
  46.1062330 146.0129960 138.0791240  46.7933460 146.5599170 138.4598830
  45.3194750 146.5570690 138.1140850  38.2454730 141.6302780 133.5708320
  39.1149580 141.9127580 133.8544240  37.7545050 142.4438650 133.4557130
  45.4089540 143.0175990 137.6916600  45.8652320 143.8281240 137.9176790
  45.0577750 142.6999130 138.5235090  47.7122150 148.5282330 144.9208900
  48.3564370 148.7341710 145.5982320  48.0751590 147.7670730 144.4679750
  41.3101320 133.3613640 138.1639120  41.1815950 133.3531540 139.1124040
  40.4863340 133.6996730 137.8130130  48.9854230 146.5314680 143.6386350
  49.6276460 145.8307840 143.7518520  49.5103580 147.3113120 143.4583240
  52.8309950 146.8163300 133.3625490  52.6047530 146.0993740 133.9550130
  52.4406150 146.5675740 132.5247240  50.7591850 147.3309580 146.8422410
  51.0948090 147.9176270 147.5200330  49.8392190 147.2002290 147.0720200
  38.6125980 150.8430160 134.1369950  38.9723620 151.4419500 133.4827220
  38.4718320 151.3890050 134.9104980  38.3095250 135.1204760 147.6245820
  37.5953770 135.3201680 148.2298430  38.7290290 134.3444330 147.9960620
  52.4126200 144.7335240 135.0239650  52.1247900 145.1947930 135.8117530
  53.2078370 144.2733010 135.2923870  38.5967840 149.1085020 148.6112350
  38.7058960 148.1679760 148.4707740  37.9448400 149.3739770 147.9626080
  44.6294600 148.2261360 134.9543620  44.6204700 148.9591050 134.3388130
  43.7092960 147.9792940 135.0470580  40.2301240 143.4476250 135.6990380
  39.6229190 144.1875150 135.7085680  40.7050590 143.5375610 134.8728580
  49.8034030 137.6127070 145.3747270  50.1714850 136.7922280 145.7026840
  48.9432230 137.6728960 145.7902920  53.1696060 136.5684010 136.1834830
  52.5409220 136.6729680 135.4693060  52.6747980 136.7880790 136.9728710
  47.6154200 148.2889600 133.6168810  47.7166180 148.0853590 132.6870790
  46.7155940 148.0347880 133.8216590  45.1380090 138.8469960 137.5992710
  44.4296240 139.3156300 138.0406320  45.4224570 138.1891970 138.2337900
  46.7636020 140.2666660 145.5985240  47.2621270 140.7412480 146.2637090
  46.9058970 139.3430180 145.8055270  49.1695520 135.5720620 139.0388500
  49.0463300 135.5906750 138.0898010  50.1180080 135.6199560 139.1586900
  46.2572310 150.8075920 138.3116480  46.5113810 150.7697310 137.3895850
  45.3084790 150.6809250 138.3044730  43.3415110 137.1555040 134.9743420
  44.1905640 137.5925190 134.9083610  42.9746380 137.4675300 135.8015480
  53.9702880 136.4834620 146.4413630  53.4676480 137.2240020 146.7807440
  54.7859540 136.8718620 146.1250420  52.2624890 141.7267800 139.8874990
  51.3215030 141.7418030 140.0622680  52.5768960 140.9403760 140.3335290
  42.2406530 143.4087400 133.4478950  43.0069800 143.2968760 134.0104380
  42.3181220 142.7125370 132.7955720  40.9353290 140.8412470 134.1311840
  41.0156880 139.8939980 134.2429240  41.8273040 141.1719350 134.2372500
  54.2650470 148.8976650 141.5629250  54.3897890 149.7207820 142.0353060
  55.1316030 148.6867380 141.2153400  38.6213480 147.0581430 137.1087890
  37.6953260 147.3002570 137.0993300  39.0869910 147.8855690 136.9872640
  44.8470310 150.1638170 133.0571950  45.6398920 150.4527000 132.6053740
  44.3274660 149.7330340 132.3784430  51.0091280 150.0114090 148.9816780
  51.9613030 149.9272110 148.9317020  50.8619500 150.6755800 149.6550570
  53.9000480 149.3908300 134.4808690  53.6141990 148.9773440 133.6662870
  53.7020030 150.3196010 134.3609210  38.4624090 142.6627390 149.3668010
  38.9663110 142.0834670 149.9384240  37.7231510 142.9467620 149.9044380
  45.3647710 145.3841580 132.9214300  45.2598350 144.7693930 133.6475680
  45.1971930 144.8607470 132.1377310  45.5162030 144.0698380 148.9003530
  44.7507700 144.6383380 148.8158200  45.6977990 143.7774590 148.0071760
  48.6050440 144.4461610 133.5256290  48.0560540 144.8930910 134.1699030
  49.2269700 143.9410860 134.0493960  52.6585380 145.8003710 149.4578550
  53.3994850 146.1379470 148.9546010  51.8958060 145.9695770 148.9048320
  44.2725560 143.4052530 135.4221590  44.6941980 143.2392400 136.2652980
  44.3976400 142.5952760 134.9276730  42.4352980 139.3849080 148.2292570
  41.9049440 138.8940030 147.6015910  43.1041050 139.8133280 147.6950500
  46.7853200 142.4290140 132.6698690  47.3058860 141.7139160 132.3039840
  47.4321600 143.0676010 132.9699200  51.3331040 143.8518540 147.9933760
  51.7472060 144.0063620 148.8424180  50.3982040 143.9773760 148.1559540
  51.8053210 141.1914700 149.9972910  52.3873980 140.4367020 149.9093390
  51.9814980 141.7222140 149.2204390  42.9225280 136.3511450 148.3089860
  42.8282150 135.7332200 147.5840730  42.3422670 137.0777740 148.0819770
  45.6886720 134.9084690 145.3417250  45.2404020 134.9308950 144.4962800
  45.0551920 134.5103710 145.9387550  46.0946270 143.8039020 145.9629690
  46.5134380 144.6471750 145.7905930  45.1754900 143.9411060 145.7336470
  48.4310170 141.5355200 147.3467530  48.5506380 140.9396340 148.0862370
  49.2904170 141.5724890 146.9268830  50.7698070 142.0892390 145.9230040
  50.2433290 142.6135010 145.3195180  51.1129410 142.7219780 146.5539770
  43.1684460 139.4785760 132.3679750  42.9673520 138.6153120 132.7293090
  42.9976510 139.3919120 131.4301350  43.9453690 150.1092030 147.0787420
  43.4074780 150.8338090 146.7596120  44.1987650 149.6322370 146.2884760
  45.1978940 138.0776550 148.6043350  45.7878630 137.7692400 149.2921170
  44.3799180 137.6056300 148.7603250  50.0172370 137.6942360 148.8376370
  49.3287890 137.0323900 148.7726360  50.7378390 137.2480630 149.2824830
  50.6472770 134.2893990 134.8966630  50.9275060 133.4461890 135.2526050
  49.8738500 134.5217100 135.4105380  41.9667260 136.5786380 132.3557630
  42.2693160 136.5853810 131.4476780  42.7061850 136.2284240 132.8525290
  45.1852190 135.5221000 133.3413830  44.8374190 134.8444990 132.7616280
  45.3864960 135.0610510 134.1557220  47.3501230 150.5101750 134.9600430
  48.2452020 150.8486720 134.9819190  47.3818860 149.7881160 134.3324710
  40.9897390 145.8828800 133.1887430  41.4272260 146.4258470 133.8445010
  41.4745120 145.0575750 133.1983770  38.2043190 148.6717830 140.6407690
  38.5346200 147.8038890 140.4086330  38.6334190 148.8776350 141.4712650
  42.8005110 147.0026840 138.3009660  42.5000650 146.8791810 139.2013570
  42.6942600 146.1435430 137.8925390  38.6933400 149.5388420 143.3789320
  38.2564390 149.7189220 144.2113470  39.2611080 150.2963040 143.2371040
  54.3295580 149.0405420 147.6666630  53.7297570 149.0997980 146.9230550
  54.4589480 148.1010400 147.7963480  55.5697030 146.7823240 133.0036340
  54.7389990 146.8499890 133.4743570  55.7468860 147.6727360 132.7003200
  55.0253490 143.5270720 135.5070540  55.7872400 144.0967370 135.6130230
  55.0407860 142.9597920 136.2778850  38.5257830 142.0508650 139.7378200
  37.8706670 141.7820290 139.0937900  39.3635780 141.9413130 139.2880180
  56.0313460 144.3820820 140.3512470  56.4022290 143.5988140 139.9448440
  56.6715390 145.0709920 140.1729770  53.0147220 145.7657400 145.7642790
  52.2007060 146.1954560 146.0268580  53.4221420 146.3775810 145.1511840
  55.0772660 143.8205090 132.6643060  55.3521500 144.7283970 132.5362280
  54.8883400 143.7567620 133.6005050  51.4748270 136.8449940 133.9596690
  51.8933150 136.6580920 133.1193350  51.1684330 135.9928990 134.2699620
  54.9738000 141.7574080 137.6572490  54.5981600 140.9902010 137.2253780
  54.2441120 142.1396780 138.1447420  39.5633760 142.4361220 144.2781540
  39.9306800 142.3488620 145.1577560  38.9944580 141.6727770 144.1788400
  54.3637620 140.9045600 147.2912010  54.1323710 140.6758350 146.3909960
  54.6242170 141.8245150 147.2456900  39.1149760 139.3470310 148.1839960
  38.2205810 139.3137070 148.5233670  39.6547310 139.5457100 148.9491210
  37.7395910 139.2607580 135.6803530  36.8359990 139.5237780 135.5055190
  38.2236530 139.5318750 134.9003490  54.2488960 139.9831570 140.9579730
  54.7726440 139.4894220 140.3269900  54.8348380 140.1181930 141.7027300
  54.4278680 140.0671440 144.4799280  53.4781390 140.0334980 144.5944270
  54.6091690 140.9771550 144.2449050  40.2823120 138.3173120 133.5897910
  40.9914820 137.8956340 133.1045190  39.5663060 138.3848350 132.9581260
  39.9297280 134.3712450 132.6300560  40.6525410 134.9121390 132.9481780
  40.2021800 134.0975870 131.7542100  53.7388930 139.2404920 136.8972140
  54.2348050 139.0075790 137.6821020  53.5405000 138.4016760 136.4809780
  39.6189470 133.6218640 142.5323180  40.2665660 133.0716020 142.0918340
  40.0391310 133.8761790 143.3538990  55.1676090 137.8765870 139.4309820
  55.0575370 137.7221910 140.3692090  55.9283680 137.3486810 139.1885230
  53.5141810 133.8160000 145.8892820  54.1514030 134.4294140 146.2552010
  53.6616700 133.8520660 144.9442050  56.0566360 135.7073790 132.6715960
  56.9815670 135.5754970 132.4634250  56.0342150 135.7866610 133.6252410
  56.1304850 136.4784450 135.2972670  55.3356350 136.4129570 135.8265580
  56.3348130 137.4135090 135.2858020  53.0723270 150.5176000 139.2911060
  53.6682340 150.1960570 138.6145480  53.3301420 150.0447820 140.0824330
  39.3721470 133.7774310 145.2748500  39.0236290 134.2338130 146.0406680
  39.0409170 132.8831440 145.3570930  44.6791870 148.5053500 145.0411410
  44.4383230 148.7728060 144.1541930  45.6194510 148.6759230 145.0962270
  46.8846290 134.9686190 148.7967920  46.8235180 135.5608020 149.5463330
  47.8246670 134.8612150 148.6518180  49.5220850 134.6256250 148.4360210
  50.1361260 134.9435540 147.7741290  50.0670410 134.1404840 149.0556070
  55.9396030 150.5247880 145.8422050  55.4454310 150.9216750 145.1249180
  55.3309320 149.8997090 146.2359330  40.0442110 133.3050510 148.5499270
  40.5925100 133.1238560 147.7865380  40.1097420 132.5144620 149.0855580
  40.8173870 149.8956160 146.5599470  40.2234190 149.7640860 147.2989510
  40.8097710 149.0594300 146.0941570  50.2628890 133.1888390 144.7629500
  49.3888730 133.5223500 144.5602430  50.1539640 132.7161570 145.5881370
  51.1700870 135.3959260 146.1471220  50.8414230 134.5811020 145.7672950
  52.1183170 135.3529070 146.0236910  40.4486100 147.2614540 145.5107510
  39.7220160 146.6419830 145.4433460  40.5095250 147.6555150 144.6405590
  44.0531200 149.4759540 142.2956920  44.5696220 148.8646900 141.7705180
  44.7028580 149.9788320 142.7867930  46.7926700 150.3668030 143.1225900
  47.0804510 150.1122330 142.2458910  47.3049920 149.8145390 143.7131470
  48.0103710 134.1058230 143.7022410  47.2275500 134.5803730 143.9819170
  47.7166640 133.2013060 143.5935590  52.5624780 134.8081330 141.7471500
  53.0032870 134.7526430 140.8993100  52.2932370 135.7239340 141.8181680
  54.4263350 134.4396570 139.7580320  54.3651750 133.4957790 139.6111340
  55.2055380 134.5476660 140.3033780  38.7316100 150.5788930 138.7204270
  38.5638140 149.9459610 139.4186160  37.8650610 150.7848330 138.3698460
  39.3544120 134.4105710 136.2236130  40.1123480 134.5234590 135.6500160
  38.8921290 135.2474910 136.1779560  45.8957930 136.5244980 139.2138440
  45.0832440 136.1501870 138.8734320  46.3999570 135.7690060 139.5159630
  50.3982910 133.1887430 140.4521510  51.0012280 133.7607640 140.9270030
  49.6575900 133.7526870 140.2295410  53.5417510 133.5908990 135.7261790
  53.7368140 134.4892440 135.9929220  52.7547380 133.3596070 136.2194740
  40.3378800 149.2722160 136.1654410  39.8126420 149.6530190 135.4616370
  40.2623380 149.8972930 136.8864120  41.7269270 134.9369760 134.7638100
  42.2562030 134.1499560 134.6346050  42.3597590 135.6160950 134.9973630
  43.9207110 134.6744900 137.8183490  43.2909850 133.9732210 137.9853620
  43.3812250 135.4349030 137.6016650  55.0944120 150.8309700 137.4868350
  55.2696310 150.1447440 136.8429270  54.3965690 151.3556750 137.0945020
  42.9371770 151.2204540 135.0403660  43.6690590 150.9363820 134.4927550
  43.1965440 150.9817820 135.9303040  42.0986560 147.3369270 135.0449990
  41.4695440 147.8054370 135.5935820  42.2134390 146.4918490 135.4796180
  49.5536280 141.3874930 121.1951190  49.4730330 140.4729540 120.9242900
  49.1400700 141.8842000 120.4890900  47.6854320 143.1653950 123.0760460
  46.9096420 142.6854390 123.3659030  48.3367250 142.4859600 122.9016620
  41.7020150 143.4773760 123.9536220  40.8705030 143.2222470 124.3532730
  42.3101130 143.5484530 124.6894140  51.7061750 147.5714140 121.8559590
  51.2443280 146.8001380 122.1846760  52.5187300 147.5980210 122.3612040
  41.6821410 147.5113850 124.1494240  41.9849450 146.6211590 123.9704460
  42.4265000 148.0684070 123.9216490  40.1112100 138.4375650 117.7378610
  39.2228800 138.7791620 117.6358490  40.3953290 138.2375970 116.8459440
  38.0745110 141.0381300 123.6218310  38.6461220 140.2703500 123.6221950
  38.0746650 141.3370060 122.7124920  47.9325060 149.8572150 121.4763580
  47.3136500 150.3129650 120.9058020  48.7876840 150.0123610 121.0753280
  47.1263310 145.8411140 123.0830620  47.0571590 144.9001080 122.9219750
  47.8883170 145.9312550 123.6553190  39.3169980 136.4465660 125.4087240
  39.1372820 135.5491410 125.6890000  38.9150060 136.9937530 126.0834190
  48.1568480 138.6481520 123.3099550  48.5333300 137.7753400 123.1973220
  48.0587990 138.9840220 122.4189990  42.2873490 137.0207150 118.7716990
  42.3940240 137.9210880 119.0785750  41.3765850 136.9725120 118.4811640
  51.9392600 136.1431960 120.2427890  52.7602220 135.6528530 120.2853370
  51.9726680 136.7329620 120.9959730  39.9356650 138.9426160 124.0169580
  40.6166760 139.2064530 124.6356980  39.6204700 138.1027030 124.3507590
  44.1281220 139.9893520 123.1042170  44.6359440 140.4874490 123.7447190
  44.6594460 139.2128720 122.9281530  56.2292150 138.1598710 126.8071520
  55.5244320 138.5480420 126.2886630  56.4950070 138.8549000 127.4092450
  42.4117320 134.6292080 127.3705590  42.4135760 135.1464470 126.5651490
  41.5821630 134.1522260 127.3475520  48.7988410 144.7411390 118.8695490
  48.1805680 145.2060840 118.3058210  49.3111660 145.4338870 119.2865000
  43.6620170 144.2687260 125.5479090  43.3289550 144.8956180 126.1900160
  43.8386850 144.7949140 124.7680760  52.1754080 138.0832340 123.0155430
  51.4709650 138.3717230 123.5958540  52.5366240 138.8932450 122.6554990
  42.0932650 136.3402040 125.3776040  42.4349460 137.1844090 125.0829910
  41.1548460 136.4885780 125.4941380  42.8739270 146.2368060 127.3628270
  43.4913270 146.9119140 127.0812720  42.0132390 146.6456040 127.2715770
  38.1671610 145.4267920 116.2435120  37.7899590 145.9155020 115.5120020
  38.4244680 146.0993200 116.8741650  53.7916860 147.7007470 125.2782910
  53.1080380 148.3706580 125.2699580  54.3311150 147.8988120 124.5127770
  55.2441000 137.5287130 123.4064640  54.2965910 137.5626110 123.5380070
  55.5690990 138.3426080 123.7914000  45.7760540 133.8284310 121.7020630
  46.0835520 133.2731200 120.9856130  44.8461240 133.9628770 121.5193620
  51.3275600 149.5451600 123.9928090  51.3402760 149.1413890 123.1250350
  50.7750820 150.3198890 123.8889520  52.6221020 146.2667820 119.0818260
  52.5117350 145.3242150 119.2067680  52.6189270 146.6283460 119.9681020
  50.7261040 144.4481440 125.3210700  51.1429830 144.2341550 124.4864160
  51.4500860 144.7054230 125.8919320  48.1641300 141.8933140 118.4380750
  47.2370580 141.8270520 118.6669220  48.3166120 142.8313270 118.3235990
  48.1510380 138.1650140 115.4347910  47.2114050 138.3264100 115.5200370
  48.4693640 138.8835820 114.8883900  54.6723140 142.8468660 125.4126940
  53.8441770 142.9161750 124.9377070  55.2673620 143.4322970 124.9442770
  52.1938590 143.4553440 118.9416000  51.5751010 143.1172990 118.2942300
  52.1763040 142.8113200 119.6495190  51.6365150 139.6337980 126.3581810
  51.2236330 140.4591690 126.6121800  50.9041100 139.0483020 126.1658170
  43.7697940 142.4197880 121.2200480  43.3654940 141.7075130 120.7246380
  43.8561060 142.0751120 122.1088520  44.2379640 146.1065440 123.3839690
  43.9407930 145.5010910 122.7047470  45.1879460 146.1442750 123.2729050
  42.4826560 139.1941090 124.9999520  43.0341150 139.3036430 124.2252770
  42.9970070 139.5678690 125.7154750  52.3265250 149.6797310 127.0462790
  51.8495810 150.4869500 126.8535400  51.6427040 149.0275640 127.1989000
  43.3298070 145.8447130 130.0347490  42.4326600 146.0687100 130.2820890
  43.3550940 145.9682070 129.0858890  50.3703290 142.6940250 115.9488750
  50.8096570 141.8562680 115.8026570  51.0831710 143.3269650 116.0352890
  42.1569290 142.7160450 128.6104860  42.0177060 143.5883250 128.9792260
  41.2750650 142.3733260 128.4652800  48.4798670 147.6336320 119.9169990
  48.9194580 148.3760650 119.5025380  48.4185560 147.8762890 120.8408950
  43.9549640 148.6582150 130.8190010  43.9265070 149.0625100 129.9518440
  43.7914610 147.7292510 130.6561610  53.9520430 133.9483060 114.2629790
  53.6393090 134.0409890 115.1628860  54.7132900 134.5264090 114.2127220
  40.4702570 141.3142860 118.7207130  40.3500170 142.0404950 118.1088400
  40.1603460 140.5445770 118.2435040  55.9064460 149.4409250 132.1154180
  56.3824180 149.9192140 132.7943260  56.5271620 149.3726740 131.3899680
  38.1087940 144.4858000 124.5275770  38.1868360 144.6206770 123.5831490
  38.7229620 143.7773890 124.7203890  39.3535570 146.1858190 120.9381950
  38.9463650 146.3272780 120.0835550  40.2448580 145.9018350 120.7353160
  55.3097710 146.6322100 129.2754190  55.4360770 146.3933980 128.3571370
  55.3519090 145.8006640 129.7476270  49.1714450 150.3350100 127.8449000
  49.6859120 150.2458110 128.6471430  48.3283530 150.6809800 128.1376910
  51.1468850 150.6205440 117.2733000  50.9869990 150.3308380 118.1714830
  50.9815560 149.8445570 116.7378230  43.6257230 150.4003970 119.0504620
  43.4499710 149.4839510 118.8372420  42.7712970 150.7591260 119.2902420
  50.8494980 148.1293000 115.8331000  50.1560140 148.1270290 115.1733280
  51.5917840 147.7052320 115.4025170  50.4144910 149.7555710 119.9079490
  50.8701860 148.9745090 120.2218110  50.7537430 150.4662530 120.4520670
  55.1621720 138.6854560 130.2403930  54.5465990 139.1934230 129.7119390
  54.8418140 137.7852890 130.1829870  38.1647460 145.5272170 127.0670230
  38.3278500 145.0577530 126.2489600  38.6299910 145.0195730 127.7319070
  42.9366230 134.6577930 122.1030800  42.4934380 135.4387470 121.7715320
  43.4951220 134.9807820 122.8101740  47.2236040 137.5246450 127.7066120
  46.7615410 137.7329470 128.5186060  46.8214150 136.7105800 127.4036790
  52.2240550 138.7455400 128.8362780  51.3734140 138.4461150 129.1571850
  52.0642340 138.9897410 127.9246600  49.3190260 140.2457150 130.9361570
  49.6443670 139.4120900 130.5963800  50.1070590 140.7685670 131.0839900
  46.0525050 134.2788630 116.9836630  45.4279230 134.2748500 117.7089940
  45.9655170 133.4119590 116.5872600  44.9742130 135.2025260 123.9620400
  45.2714460 136.1088090 123.8812420  45.5227690 134.7144040 123.3479970
  42.7280450 139.7811500 119.8312050  42.5021370 139.5648670 120.7358670
  41.9472980 140.2139960 119.4858020  49.9578210 139.7874870 118.4302700
  49.3587100 140.5110670 118.2466320  50.5057820 139.7251650 117.6479150
  45.1679660 140.6797080 130.4972320  45.0723260 139.7391810 130.3472720
  46.0111640 140.9012150 130.1020390  48.5643080 138.4238410 120.4605980
  48.9572650 138.7410610 119.6474670  48.9259930 137.5450290 120.5750500
  40.2990200 137.0910750 128.6506100  39.9053590 137.9385960 128.8578880
  39.6108600 136.4537120 128.8414740  46.8735250 137.1745720 131.7202840
  46.1833570 136.9817920 132.3548930  47.6167550 137.4580360 132.2527140
  37.6007250 135.0139210 122.6836180  37.3120300 135.5842070 123.3961160
  38.3453010 134.5343660 123.0467410  37.7877480 138.9559330 113.8938900
  37.7052150 139.8990090 114.0353890  37.4360540 138.8134240 113.0151250
  49.1498220 141.0144160 124.5556760  48.4179340 141.5230970 124.9046860
  48.7522560 140.1974140 124.2545540  45.5875610 137.6898360 122.9609250
  45.5911670 137.2488310 122.1113790  46.4826730 138.0115690 123.0681070
  41.4377990 137.5724850 121.9203460  41.0978040 138.0500080 122.6770510
  40.6755310 137.1189970 121.5604560  45.6495760 138.6910440 115.9516010
  45.7708580 138.6496920 116.9001830  45.2644270 139.5534590 115.7962740
  49.6124130 136.4677840 123.9679700  49.6296870 136.9186490 124.8121550
  49.3639710 135.5683480 124.1813140  44.6617260 141.0011580 115.3499310
  44.0934160 140.5529830 114.7235220  45.3706260 141.3604360 114.8164460
  53.0394880 133.8810020 129.8066080  53.3640650 133.1499680 130.3324060
  53.0751390 133.5623660 128.9047070  39.7386440 144.9023600 129.2266040
  39.3541230 144.2617270 129.8249000  40.0498630 145.6059720 129.7960770
  45.8883580 141.7500140 124.7074660  46.2553710 141.2758710 125.4536000
  45.6988640 142.6241710 125.0483000  38.7524070 136.4943830 120.8368130
  38.4670990 136.1299500 121.6746750  38.6902930 135.7624290 120.2231270
  43.6782950 140.7908780 127.0258870  43.3740020 141.6700760 127.2509230
  44.6329410 140.8508570 127.0616310  42.2064740 144.9969770 117.6225720
  41.4327000 144.4567390 117.4624440  42.9359370 144.4776380 117.2843480
  52.9652720 143.9935130 123.4152110  53.6851840 144.4890420 123.0248220
  52.7634540 143.3153020 122.7705980  48.4262660 135.3873090 117.5581500
  47.6127270 134.8886260 117.4826810  48.2324610 136.2271340 117.1417850
  48.3471520 144.0644190 129.3021110  48.2808830 143.1439860 129.0478700
  47.7176660 144.1619630 130.0165750  51.1411050 139.7592740 115.8543660
  52.0290670 140.0709970 115.6795000  51.1116140 138.8864990 115.4624240
  42.2502140 144.6650150 121.2604530  42.7680810 143.8618410 121.2061420
  41.7986160 144.6029290 122.1021360  47.1371640 145.9316430 116.5331830
  47.4787340 146.6758660 116.0375150  46.3084350 146.2447550 116.8956660
  39.7346680 141.6311520 128.1730230  39.3761620 142.2965370 128.7603570
  39.4401240 140.7995070 128.5442850  42.9359800 142.0895760 131.0569780
  42.6359940 142.2352940 130.1597600  43.7071040 141.5301050 130.9643170
  48.2788250 146.8864760 129.0524910  48.2932790 145.9545720 128.8343820
  47.5713350 146.9724520 129.6914680  53.4125320 141.0704580 115.3223520
  53.3289040 141.5018800 114.4719960  54.1319510 141.5302930 115.7550340
  54.4899460 143.5272100 128.3993490  53.7647650 144.1200880 128.2022880
  55.0174920 143.5195640 127.6006860  54.4412570 147.9246840 118.0505650
  53.7988730 147.2702460 118.3249370  54.0543230 148.3301930 117.2746320
  50.0199050 145.2532270 121.8977340  50.3722870 144.6560400 121.2378710
  49.1361380 144.9276500 122.0685590  46.1062330 146.0129960 119.3047750
  46.7933460 146.5599170 119.6855340  45.3194750 146.5570690 119.3397360
  38.2454730 141.6302780 114.7964830  39.1149580 141.9127580 115.0800750
  37.7545050 142.4438650 114.6813640  45.4089540 143.0175990 118.9173110
  45.8652320 143.8281240 119.1433300  45.0577750 142.6999130 119.7491600
  47.7122150 148.5282330 126.1465410  48.3564370 148.7341710 126.8238830
  48.0751590 147.7670730 125.6936260  41.3101320 133.3613640 119.3895630
  41.1815950 133.3531540 120.3380550  40.4863340 133.6996730 119.0386640
  48.9854230 146.5314680 124.8642860  49.6276460 145.8307840 124.9775030
  49.5103580 147.3113120 124.6839750  52.8309950 146.8163300 114.5882000
  52.6047530 146.0993740 115.1806640  52.4406150 146.5675740 113.7503750
  50.7591850 147.3309580 128.0678920  51.0948090 147.9176270 128.7456840
  49.8392190 147.2002290 128.2976710  38.6125980 150.8430160 115.3626460
  38.9723620 151.4419500 114.7083730  38.4718320 151.3890050 116.1361490
  38.3095250 135.1204760 128.8502330  37.5953770 135.3201680 129.4554940
  38.7290290 134.3444330 129.2217130  52.4126200 144.7335240 116.2496160
  52.1247900 145.1947930 117.0374040  53.2078370 144.2733010 116.5180380
  38.5967840 149.1085020 129.8368860  38.7058960 148.1679760 129.6964250
  37.9448400 149.3739770 129.1882590  46.5880430 147.3800910 131.2366980
  46.2677300 146.6610150 131.7812670  45.9138790 148.0555980 131.3103040
  44.6294600 148.2261360 116.1800130  44.6204700 148.9591050 115.5644640
  43.7092960 147.9792940 116.2727090  40.2301240 143.4476250 116.9246890
  39.6229190 144.1875150 116.9342190  40.7050590 143.5375610 116.0985090
  49.8034030 137.6127070 126.6003780  50.1714850 136.7922280 126.9283350
  48.9432230 137.6728960 127.0159430  53.1696060 136.5684010 117.4091340
  52.5409220 136.6729680 116.6949570  52.6747980 136.7880790 118.1985220
  47.6154200 148.2889600 114.8425320  47.7166180 148.0853590 113.9127300
  46.7155940 148.0347880 115.0473100  45.1380090 138.8469960 118.8249220
  44.4296240 139.3156300 119.2662830  45.4224570 138.1891970 119.4594410
  46.7636020 140.2666660 126.8241750  47.2621270 140.7412480 127.4893600
  46.9058970 139.3430180 127.0311780  49.1695520 135.5720620 120.2645010
  49.0463300 135.5906750 119.3154520  50.1180080 135.6199560 120.3843410
  46.2572310 150.8075920 119.5372990  46.5113810 150.7697310 118.6152360
  45.3084790 150.6809250 119.5301240  43.3415110 137.1555040 116.1999930
  44.1905640 137.5925190 116.1340120  42.9746380 137.4675300 117.0271990
  53.9702880 136.4834620 127.6670140  53.4676480 137.2240020 128.0063950
  54.7859540 136.8718620 127.3506930  52.2624890 141.7267800 121.1131500
  51.3215030 141.7418030 121.2879190  52.5768960 140.9403760 121.5591800
  42.2406530 143.4087400 114.6735460  43.0069800 143.2968760 115.2360890
  42.3181220 142.7125370 114.0212230  40.9353290 140.8412470 115.3568350
  41.0156880 139.8939980 115.4685750  41.8273040 141.1719350 115.4629010
  54.2650470 148.8976650 122.7885760  54.3897890 149.7207820 123.2609570
  55.1316030 148.6867380 122.4409910  38.6213480 147.0581430 118.3344400
  37.6953260 147.3002570 118.3249810  39.0869910 147.8855690 118.2129150
  40.7426280 150.1753930 131.6488470  41.5439010 150.4965980 132.0623870
  40.2278100 149.8149510 132.3708380  44.8470310 150.1638170 114.2828460
  45.6398920 150.4527000 113.8310250  44.3274660 149.7330340 113.6040940
  49.5790910 146.2833800 131.5963880  48.9729070 146.3065400 130.8559630
  49.2745020 145.5516840 132.1331130  51.0091280 150.0114090 130.2073290
  51.9613030 149.9272110 130.1573530  50.8619500 150.6755800 130.8807080
  53.9000480 149.3908300 115.7065200  53.6141990 148.9773440 114.8919380
  53.7020030 150.3196010 115.5865720  38.4624090 142.6627390 130.5924520
  38.9663110 142.0834670 131.1640750  37.7231510 142.9467620 131.1300890
  45.3647710 145.3841580 114.1470810  45.2598350 144.7693930 114.8732190
  45.1971930 144.8607470 113.3633820  45.5162030 144.0698380 130.1260040
  44.7507700 144.6383380 130.0414710  45.6977990 143.7774590 129.2328270
  48.6050440 144.4461610 114.7512800  48.0560540 144.8930910 115.3955540
  49.2269700 143.9410860 115.2750470  52.6585380 145.8003710 130.6835060
  53.3994850 146.1379470 130.1802520  51.8958060 145.9695770 130.1304830
  40.4947170 140.8056980 131.4874590  40.5352510 140.5070850 132.3959820
  41.3492670 141.2064590 131.3282110  44.2725560 143.4052530 116.6478100
  44.6941980 143.2392400 117.4909490  44.3976400 142.5952760 116.1533240
  42.4352980 139.3849080 129.4549080  41.9049440 138.8940030 128.8272420
  43.1041050 139.8133280 128.9207010  46.7853200 142.4290140 113.8955200
  47.3058860 141.7139160 113.5296350  47.4321600 143.0676010 114.1955710
  51.3331040 143.8518540 129.2190270  51.7472060 144.0063620 130.0680690
  50.3982040 143.9773760 129.3816050  51.8053210 141.1914700 131.2229420
  52.3873980 140.4367020 131.1349900  51.9814980 141.7222140 130.4460900
  42.9225280 136.3511450 129.5346370  42.8282150 135.7332200 128.8097240
  42.3422670 137.0777740 129.3076280  45.6886720 134.9084690 126.5673760
  45.2404020 134.9308950 125.7219310  45.0551920 134.5103710 127.1644060
  46.0946270 143.8039020 127.1886200  46.5134380 144.6471750 127.0162440
  45.1754900 143.9411060 126.9592980  48.4310170 141.5355200 128.5724040
  48.5506380 140.9396340 129.3118880  49.2904170 141.5724890 128.1525340
  50.7698070 142.0892390 127.1486550  50.2433290 142.6135010 126.5451690
  51.1129410 142.7219780 127.7796280  43.1684460 139.4785760 113.5936260
  42.9673520 138.6153120 113.9549600  42.9976510 139.3919120 112.6557860
  43.9453690 150.1092030 128.3043930  43.4074780 150.8338090 127.9852630
  44.1987650 149.6322370 127.5141270  45.1978940 138.0776550 129.8299860
  45.7878630 137.7692400 130.5177680  44.3799180 137.6056300 129.9859760
  50.0172370 137.6942360 130.0632880  49.3287890 137.0323900 129.9982870
  50.7378390 137.2480630 130.5081340  50.6472770 134.2893990 116.1223140
  50.9275060 133.4461890 116.4782560  49.8738500 134.5217100 116.6361890
  41.9667260 136.5786380 113.5814140  42.2693160 136.5853810 112.6733290
  42.7061850 136.2284240 114.0781800  45.1852190 135.5221000 114.5670340
  44.8374190 134.8444990 113.9872790  45.3864960 135.0610510 115.3813730
  47.3501230 150.5101750 116.1856940  48.2452020 150.8486720 116.2075700
  47.3818860 149.7881160 115.5581220  40.9897390 145.8828800 114.4143940
  41.4272260 146.4258470 115.0701520  41.4745120 145.0575750 114.4240280
  38.2043190 148.6717830 121.8664200  38.5346200 147.8038890 121.6342840
  38.6334190 148.8776350 122.6969160  42.8005110 147.0026840 119.5266170
  42.5000650 146.8791810 120.4270080  42.6942600 146.1435430 119.1181900
  38.6933400 149.5388420 124.6045830  38.2564390 149.7189220 125.4369980
  39.2611080 150.2963040 124.4627550  54.3295580 149.0405420 128.8923140
  53.7297570 149.0997980 128.1487060  54.4589480 148.1010400 129.0219990
  55.5697030 146.7823240 114.2292850  54.7389990 146.8499890 114.7000080
  55.7468860 147.6727360 113.9259710  55.0253490 143.5270720 116.7327050
  55.7872400 144.0967370 116.8386740  55.0407860 142.9597920 117.5035360
  38.5257830 142.0508650 120.9634710  37.8706670 141.7820290 120.3194410
  39.3635780 141.9413130 120.5136690  56.0313460 144.3820820 121.5768980
  56.4022290 143.5988140 121.1704950  56.6715390 145.0709920 121.3986280
  53.0147220 145.7657400 126.9899300  52.2007060 146.1954560 127.2525090
  53.4221420 146.3775810 126.3768350  55.0772660 143.8205090 113.8899570
  55.3521500 144.7283970 113.7618790  54.8883400 143.7567620 114.8261560
  51.4748270 136.8449940 115.1853200  51.8933150 136.6580920 114.3449860
  51.1684330 135.9928990 115.4956130  54.9738000 141.7574080 118.8829000
  54.5981600 140.9902010 118.4510290  54.2441120 142.1396780 119.3703930
  39.5633760 142.4361220 125.5038050  39.9306800 142.3488620 126.3834070
  38.9944580 141.6727770 125.4044910  54.3637620 140.9045600 128.5168520
  54.1323710 140.6758350 127.6166470  54.6242170 141.8245150 128.4713410
  39.1149760 139.3470310 129.4096470  38.2205810 139.3137070 129.7490180
  39.6547310 139.5457100 130.1747720  52.8025690 136.1302030 131.2948220
  53.6795870 136.1385430 131.6782220  52.8146530 135.3932870 130.6840570
  37.7395910 139.2607580 116.9060040  36.8359990 139.5237780 116.7311700
  38.2236530 139.5318750 116.1260000  54.2488960 139.9831570 122.1836240
  54.7726440 139.4894220 121.5526410  54.8348380 140.1181930 122.9283810
  54.4278680 140.0671440 125.7055790  53.4781390 140.0334980 125.8200780
  54.6091690 140.9771550 125.4705560  40.2823120 138.3173120 114.8154420
  40.9914820 137.8956340 114.3301700  39.5663060 138.3848350 114.1837770
  39.9297280 134.3712450 113.8557070  40.6525410 134.9121390 114.1738290
  40.2021800 134.0975870 112.9798610  53.7388930 139.2404920 118.1228650
  54.2348050 139.0075790 118.9077530  53.5405000 138.4016760 117.7066290
  39.6189470 133.6218640 123.7579690  40.2665660 133.0716020 123.3174850
  40.0391310 133.8761790 124.5795500  55.1676090 137.8765870 120.6566330
  55.0575370 137.7221910 121.5948600  55.9283680 137.3486810 120.4141740
  53.5141810 133.8160000 127.1149330  54.1514030 134.4294140 127.4808520
  53.6616700 133.8520660 126.1698560  56.0566360 135.7073790 113.8972470
  56.9815670 135.5754970 113.6890760  56.0342150 135.7866610 114.8508920
  56.1304850 136.4784450 116.5229180  55.3356350 136.4129570 117.0522090
  56.3348130 137.4135090 116.5114530  53.0723270 150.5176000 120.5167570
  53.6682340 150.1960570 119.8401990  53.3301420 150.0447820 121.3080840
  39.3721470 133.7774310 126.5005010  39.0236290 134.2338130 127.2663190
  39.0409170 132.8831440 126.5827440  40.9785840 146.9493910 130.6658200
  40.9355470 146.5786820 131.5472660  41.1096850 147.8871480 130.8060020
  44.6791870 148.5053500 126.2667920  44.4383230 148.7728060 125.3798440
  45.6194510 148.6759230 126.3218780  46.8846290 134.9686190 130.0224430
  46.8235180 135.5608020 130.7719840  47.8246670 134.8612150 129.8774690
  49.5220850 134.6256250 129.6616720  50.1361260 134.9435540 128.9997800
  50.0670410 134.1404840 130.2812580  55.9396030 150.5247880 127.0678560
  55.4454310 150.9216750 126.3505690  55.3309320 149.8997090 127.4615840
  40.0442110 133.3050510 129.7755780  40.5925100 133.1238560 129.0121890
  40.1097420 132.5144620 130.3112090  40.8173870 149.8956160 127.7855980
  40.2234190 149.7640860 128.5246020  40.8097710 149.0594300 127.3198080
  50.2628890 133.1888390 125.9886010  49.3888730 133.5223500 125.7858940
  50.1539640 132.7161570 126.8137880  51.1700870 135.3959260 127.3727730
  50.8414230 134.5811020 126.9929460  52.1183170 135.3529070 127.2493420
  40.4486100 147.2614540 126.7364020  39.7220160 146.6419830 126.6689970
  40.5095250 147.6555150 125.8662100  44.0531200 149.4759540 123.5213430
  44.5696220 148.8646900 122.9961690  44.7028580 149.9788320 124.0124440
  46.7926700 150.3668030 124.3482410  47.0804510 150.1122330 123.4715420
  47.3049920 149.8145390 124.9387980  48.0103710 134.1058230 124.9278920
  47.2275500 134.5803730 125.2075680  47.7166640 133.2013060 124.8192100
  52.5624780 134.8081330 122.9728010  53.0032870 134.7526430 122.1249610
  52.2932370 135.7239340 123.0438190  54.4263350 134.4396570 120.9836830
  54.3651750 133.4957790 120.8367850  55.2055380 134.5476660 121.5290290
  38.7316100 150.5788930 119.9460780  38.5638140 149.9459610 120.6442670
  37.8650610 150.7848330 119.5954970  39.3544120 134.4105710 117.4492640
  40.1123480 134.5234590 116.8756670  38.8921290 135.2474910 117.4036070
  45.8957930 136.5244980 120.4394950  45.0832440 136.1501870 120.0990830
  46.3999570 135.7690060 120.7416140  50.3982910 133.1887430 121.6778020
  51.0012280 133.7607640 122.1526540  49.6575900 133.7526870 121.4551920
  53.5417510 133.5908990 116.9518300  53.7368140 134.4892440 117.2185730
  52.7547380 133.3596070 117.4451250  40.3378800 149.2722160 117.3910920
  39.8126420 149.6530190 116.6872880  40.2623380 149.8972930 118.1120630
  41.7269270 134.9369760 115.9894610  42.2562030 134.1499560 115.8602560
  42.3597590 135.6160950 116.2230140  43.9207110 134.6744900 119.0440000
  43.2909850 133.9732210 119.2110130  43.3812250 135.4349030 118.8273160
  55.0944120 150.8309700 118.7124860  55.2696310 150.1447440 118.0685780
  54.3965690 151.3556750 118.3201530  44.0462670 133.9528880 131.4792490
  43.7646940 134.4562480 130.7153310  44.4282370 133.1550630 131.1134620
  42.9371770 151.2204540 116.2660170  43.6690590 150.9363820 115.7184060
  43.1965440 150.9817820 117.1559550  42.0986560 147.3369270 116.2706500
  41.4695440 147.8054370 116.8192330  42.2134390 146.4918490 116.7052690
  50.6478130 133.3682460 132.0572960  50.5343580 133.6877070 132.9524480
  51.4647870 133.7694970 131.7610240  53.4276620 150.5153990 131.5391650
  54.2201940 150.0203220 131.3317610  53.7209770 151.1944130 132.1467260
  49.5536280 141.3874930 102.4207700  49.4730330 140.4729540 102.1499410
  49.1400700 141.8842000 101.7147410  47.6854320 143.1653950 104.3016970
  46.9096420 142.6854390 104.5915540  48.3367250 142.4859600 104.1273130
  41.7020150 143.4773760 105.1792730  40.8705030 143.2222470 105.5789240
  42.3101130 143.5484530 105.9150650  51.7061750 147.5714140 103.0816100
  51.2443280 146.8001380 103.4103270  52.5187300 147.5980210 103.5868550
  41.6821410 147.5113850 105.3750750  41.9849450 146.6211590 105.1960970
  42.4265000 148.0684070 105.1473000  40.1112100 138.4375650  98.9635120
  39.2228800 138.7791620  98.8615000  40.3953290 138.2375970  98.0715950
  38.0745110 141.0381300 104.8474820  38.6461220 140.2703500 104.8478460
  38.0746650 141.3370060 103.9381430  47.9325060 149.8572150 102.7020090
  47.3136500 150.3129650 102.1314530  48.7876840 150.0123610 102.3009790
  47.1263310 145.8411140 104.3087130  47.0571590 144.9001080 104.1476260
  47.8883170 145.9312550 104.8809700  39.3169980 136.4465660 106.6343750
  39.1372820 135.5491410 106.9146510  38.9150060 136.9937530 107.3090700
  48.1568480 138.6481520 104.5356060  48.5333300 137.7753400 104.4229730
  48.0587990 138.9840220 103.6446500  42.2873490 137.0207150  99.9973500
  42.3940240 137.9210880 100.3042260  41.3765850 136.9725120  99.7068150
  51.9392600 136.1431960 101.4684400  52.7602220 135.6528530 101.5109880
  51.9726680 136.7329620 102.2216240  39.9356650 138.9426160 105.2426090
  40.6166760 139.2064530 105.8613490  39.6204700 138.1027030 105.5764100
  44.1281220 139.9893520 104.3298680  44.6359440 140.4874490 104.9703700
  44.6594460 139.2128720 104.1538040  56.2292150 138.1598710 108.0328030
  55.5244320 138.5480420 107.5143140  56.4950070 138.8549000 108.6348960
  42.4117320 134.6292080 108.5962100  42.4135760 135.1464470 107.7908000
  41.5821630 134.1522260 108.5732030  48.7988410 144.7411390 100.0952000
  48.1805680 145.2060840  99.5314720  49.3111660 145.4338870 100.5121510
  43.6620170 144.2687260 106.7735600  43.3289550 144.8956180 107.4156670
  43.8386850 144.7949140 105.9937270  52.1754080 138.0832340 104.2411940
  51.4709650 138.3717230 104.8215050  52.5366240 138.8932450 103.8811500
  42.0932650 136.3402040 106.6032550  42.4349460 137.1844090 106.3086420
  41.1548460 136.4885780 106.7197890  42.8739270 146.2368060 108.5884780
  43.4913270 146.9119140 108.3069230  42.0132390 146.6456040 108.4972280
  38.1671610 145.4267920  97.4691630  37.7899590 145.9155020  96.7376530
  38.4244680 146.0993200  98.0998160  53.7916860 147.7007470 106.5039420
  53.1080380 148.3706580 106.4956090  54.3311150 147.8988120 105.7384280
  55.2441000 137.5287130 104.6321150  54.2965910 137.5626110 104.7636580
  55.5690990 138.3426080 105.0170510  45.7760540 133.8284310 102.9277140
  46.0835520 133.2731200 102.2112640  44.8461240 133.9628770 102.7450130
  51.3275600 149.5451600 105.2184600  51.3402760 149.1413890 104.3506860
  50.7750820 150.3198890 105.1146030  52.6221020 146.2667820 100.3074770
  52.5117350 145.3242150 100.4324190  52.6189270 146.6283460 101.1937530
  50.7261040 144.4481440 106.5467210  51.1429830 144.2341550 105.7120670
  51.4500860 144.7054230 107.1175830  48.1641300 141.8933140  99.6637260
  47.2370580 141.8270520  99.8925730  48.3166120 142.8313270  99.5492500
  48.1510380 138.1650140  96.6604420  47.2114050 138.3264100  96.7456880
  48.4693640 138.8835820  96.1140410  54.6723140 142.8468660 106.6383450
  53.8441770 142.9161750 106.1633580  55.2673620 143.4322970 106.1699280
  52.1938590 143.4553440 100.1672510  51.5751010 143.1172990  99.5198810
  52.1763040 142.8113200 100.8751700  51.6365150 139.6337980 107.5838320
  51.2236330 140.4591690 107.8378310  50.9041100 139.0483020 107.3914680
  43.7697940 142.4197880 102.4456990  43.3654940 141.7075130 101.9502890
  43.8561060 142.0751120 103.3345030  44.2379640 146.1065440 104.6096200
  43.9407930 145.5010910 103.9303980  45.1879460 146.1442750 104.4985560
  42.4826560 139.1941090 106.2256030  43.0341150 139.3036430 105.4509280
  42.9970070 139.5678690 106.9411260  52.3265250 149.6797310 108.2719300
  51.8495810 150.4869500 108.0791910  51.6427040 149.0275640 108.4245510
  43.3298070 145.8447130 111.2604000  42.4326600 146.0687100 111.5077400
  43.3550940 145.9682070 110.3115400  50.3703290 142.6940250  97.1745260
  50.8096570 141.8562680  97.0283080  51.0831710 143.3269650  97.2609400
  42.1569290 142.7160450 109.8361370  42.0177060 143.5883250 110.2048770
  41.2750650 142.3733260 109.6909310  48.4798670 147.6336320 101.1426500
  48.9194580 148.3760650 100.7281890  48.4185560 147.8762890 102.0665460
  43.9549640 148.6582150 112.0446520  43.9265070 149.0625100 111.1774950
  43.7914610 147.7292510 111.8818120  53.9520430 133.9483060  95.4886300
  53.6393090 134.0409890  96.3885370  54.7132900 134.5264090  95.4383730
  40.4702570 141.3142860  99.9463640  40.3500170 142.0404950  99.3344910
  40.1603460 140.5445770  99.4691550  55.9064460 149.4409250 113.3410690
  56.3824180 149.9192140 114.0199770  56.5271620 149.3726740 112.6156190
  38.1087940 144.4858000 105.7532280  38.1868360 144.6206770 104.8088000
  38.7229620 143.7773890 105.9460400  39.3535570 146.1858190 102.1638460
  38.9463650 146.3272780 101.3092060  40.2448580 145.9018350 101.9609670
  55.3097710 146.6322100 110.5010700  55.4360770 146.3933980 109.5827880
  55.3519090 145.8006640 110.9732780  49.1714450 150.3350100 109.0705510
  49.6859120 150.2458110 109.8727940  48.3283530 150.6809800 109.3633420
  51.1468850 150.6205440  98.4989510  50.9869990 150.3308380  99.3971340
  50.9815560 149.8445570  97.9634740  43.6257230 150.4003970 100.2761130
  43.4499710 149.4839510 100.0628930  42.7712970 150.7591260 100.5158930
  50.8494980 148.1293000  97.0587510  50.1560140 148.1270290  96.3989790
  51.5917840 147.7052320  96.6281680  50.4144910 149.7555710 101.1336000
  50.8701860 148.9745090 101.4474620  50.7537430 150.4662530 101.6777180
  55.1621720 138.6854560 111.4660440  54.5465990 139.1934230 110.9375900
  54.8418140 137.7852890 111.4086380  38.1647460 145.5272170 108.2926740
  38.3278500 145.0577530 107.4746110  38.6299910 145.0195730 108.9575580
  42.9366230 134.6577930 103.3287310  42.4934380 135.4387470 102.9971830
  43.4951220 134.9807820 104.0358250  47.2236040 137.5246450 108.9322630
  46.7615410 137.7329470 109.7442570  46.8214150 136.7105800 108.6293300
  52.2240550 138.7455400 110.0619290  51.3734140 138.4461150 110.3828360
  52.0642340 138.9897410 109.1503110  49.3190260 140.2457150 112.1618080
  49.6443670 139.4120900 111.8220310  50.1070590 140.7685670 112.3096410
  46.0525050 134.2788630  98.2093140  45.4279230 134.2748500  98.9346450
  45.9655170 133.4119590  97.8129110  44.9742130 135.2025260 105.1876910
  45.2714460 136.1088090 105.1068930  45.5227690 134.7144040 104.5736480
  42.7280450 139.7811500 101.0568560  42.5021370 139.5648670 101.9615180
  41.9472980 140.2139960 100.7114530  49.9578210 139.7874870  99.6559210
  49.3587100 140.5110670  99.4722830  50.5057820 139.7251650  98.8735660
  45.1679660 140.6797080 111.7228830  45.0723260 139.7391810 111.5729230
  46.0111640 140.9012150 111.3276900  48.5643080 138.4238410 101.6862490
  48.9572650 138.7410610 100.8731180  48.9259930 137.5450290 101.8007010
  40.2990200 137.0910750 109.8762610  39.9053590 137.9385960 110.0835390
  39.6108600 136.4537120 110.0671250  46.8735250 137.1745720 112.9459350
  46.1833570 136.9817920 113.5805440  47.6167550 137.4580360 113.4783650
  37.6007250 135.0139210 103.9092690  37.3120300 135.5842070 104.6217670
  38.3453010 134.5343660 104.2723920  37.7877480 138.9559330  95.1195410
  37.7052150 139.8990090  95.2610400  37.4360540 138.8134240  94.2407760
  49.1498220 141.0144160 105.7813270  48.4179340 141.5230970 106.1303370
  48.7522560 140.1974140 105.4802050  45.5875610 137.6898360 104.1865760
  45.5911670 137.2488310 103.3370300  46.4826730 138.0115690 104.2937580
  41.4377990 137.5724850 103.1459970  41.0978040 138.0500080 103.9027020
  40.6755310 137.1189970 102.7861070  45.6495760 138.6910440  97.1772520
  45.7708580 138.6496920  98.1258340  45.2644270 139.5534590  97.0219250
  49.6124130 136.4677840 105.1936210  49.6296870 136.9186490 106.0378060
  49.3639710 135.5683480 105.4069650  44.6617260 141.0011580  96.5755820
  44.0934160 140.5529830  95.9491730  45.3706260 141.3604360  96.0420970
  53.0394880 133.8810020 111.0322590  53.3640650 133.1499680 111.5580570
  53.0751390 133.5623660 110.1303580  39.7386440 144.9023600 110.4522550
  39.3541230 144.2617270 111.0505510  40.0498630 145.6059720 111.0217280
  45.8883580 141.7500140 105.9331170  46.2553710 141.2758710 106.6792510
  45.6988640 142.6241710 106.2739510  38.7524070 136.4943830 102.0624640
  38.4670990 136.1299500 102.9003260  38.6902930 135.7624290 101.4487780
  43.6782950 140.7908780 108.2515380  43.3740020 141.6700760 108.4765740
  44.6329410 140.8508570 108.2872820  42.2064740 144.9969770  98.8482230
  41.4327000 144.4567390  98.6880950  42.9359370 144.4776380  98.5099990
  52.9652720 143.9935130 104.6408620  53.6851840 144.4890420 104.2504730
  52.7634540 143.3153020 103.9962490  48.4262660 135.3873090  98.7838010
  47.6127270 134.8886260  98.7083320  48.2324610 136.2271340  98.3674360
  48.3471520 144.0644190 110.5277620  48.2808830 143.1439860 110.2735210
  47.7176660 144.1619630 111.2422260  51.1411050 139.7592740  97.0800170
  52.0290670 140.0709970  96.9051510  51.1116140 138.8864990  96.6880750
  42.2502140 144.6650150 102.4861040  42.7680810 143.8618410 102.4317930
  41.7986160 144.6029290 103.3277870  47.1371640 145.9316430  97.7588340
  47.4787340 146.6758660  97.2631660  46.3084350 146.2447550  98.1213170
  39.7346680 141.6311520 109.3986740  39.3761620 142.2965370 109.9860080
  39.4401240 140.7995070 109.7699360  42.9359800 142.0895760 112.2826290
  42.6359940 142.2352940 111.3854110  43.7071040 141.5301050 112.1899680
  48.2788250 146.8864760 110.2781420  48.2932790 145.9545720 110.0600330
  47.5713350 146.9724520 110.9171190  53.4125320 141.0704580  96.5480030
  53.3289040 141.5018800  95.6976470  54.1319510 141.5302930  96.9806850
  54.4899460 143.5272100 109.6250000  53.7647650 144.1200880 109.4279390
  55.0174920 143.5195640 108.8263370  54.4412570 147.9246840  99.2762160
  53.7988730 147.2702460  99.5505880  54.0543230 148.3301930  98.5002830
  50.0199050 145.2532270 103.1233850  50.3722870 144.6560400 102.4635220
  49.1361380 144.9276500 103.2942100  46.1062330 146.0129960 100.5304260
  46.7933460 146.5599170 100.9111850  45.3194750 146.5570690 100.5653870
  38.2454730 141.6302780  96.0221340  39.1149580 141.9127580  96.3057260
  37.7545050 142.4438650  95.9070150  45.4089540 143.0175990 100.1429620
  45.8652320 143.8281240 100.3689810  45.0577750 142.6999130 100.9748110
  47.7122150 148.5282330 107.3721920  48.3564370 148.7341710 108.0495340
  48.0751590 147.7670730 106.9192770  41.3101320 133.3613640 100.6152140
  41.1815950 133.3531540 101.5637060  40.4863340 133.6996730 100.2643150
  48.9854230 146.5314680 106.0899370  49.6276460 145.8307840 106.2031540
  49.5103580 147.3113120 105.9096260  52.8309950 146.8163300  95.8138510
  52.6047530 146.0993740  96.4063150  52.4406150 146.5675740  94.9760260
  50.7591850 147.3309580 109.2935430  51.0948090 147.9176270 109.9713350
  49.8392190 147.2002290 109.5233220  38.6125980 150.8430160  96.5882970
  38.9723620 151.4419500  95.9340240  38.4718320 151.3890050  97.3618000
  38.3095250 135.1204760 110.0758840  37.5953770 135.3201680 110.6811450
  38.7290290 134.3444330 110.4473640  52.4126200 144.7335240  97.4752670
  52.1247900 145.1947930  98.2630550  53.2078370 144.2733010  97.7436890
  38.5967840 149.1085020 111.0625370  38.7058960 148.1679760 110.9220760
  37.9448400 149.3739770 110.4139100  46.5880430 147.3800910 112.4623490
  46.2677300 146.6610150 113.0069180  45.9138790 148.0555980 112.5359550
  44.6294600 148.2261360  97.4056640  44.6204700 148.9591050  96.7901150
  43.7092960 147.9792940  97.4983600  40.2301240 143.4476250  98.1503400
  39.6229190 144.1875150  98.1598700  40.7050590 143.5375610  97.3241600
  49.8034030 137.6127070 107.8260290  50.1714850 136.7922280 108.1539860
  48.9432230 137.6728960 108.2415940  53.1696060 136.5684010  98.6347850
  52.5409220 136.6729680  97.9206080  52.6747980 136.7880790  99.4241730
  47.6154200 148.2889600  96.0681830  47.7166180 148.0853590  95.1383810
  46.7155940 148.0347880  96.2729610  45.1380090 138.8469960 100.0505730
  44.4296240 139.3156300 100.4919340  45.4224570 138.1891970 100.6850920
  46.7636020 140.2666660 108.0498260  47.2621270 140.7412480 108.7150110
  46.9058970 139.3430180 108.2568290  49.1695520 135.5720620 101.4901520
  49.0463300 135.5906750 100.5411030  50.1180080 135.6199560 101.6099920
  46.2572310 150.8075920 100.7629500  46.5113810 150.7697310  99.8408870
  45.3084790 150.6809250 100.7557750  43.3415110 137.1555040  97.4256440
  44.1905640 137.5925190  97.3596630  42.9746380 137.4675300  98.2528500
  53.9702880 136.4834620 108.8926650  53.4676480 137.2240020 109.2320460
  54.7859540 136.8718620 108.5763440  52.2624890 141.7267800 102.3388010
  51.3215030 141.7418030 102.5135700  52.5768960 140.9403760 102.7848310
  42.2406530 143.4087400  95.8991970  43.0069800 143.2968760  96.4617400
  42.3181220 142.7125370  95.2468740  40.9353290 140.8412470  96.5824860
  41.0156880 139.8939980  96.6942260  41.8273040 141.1719350  96.6885520
  54.2650470 148.8976650 104.0142270  54.3897890 149.7207820 104.4866080
  55.1316030 148.6867380 103.6666420  38.6213480 147.0581430  99.5600910
  37.6953260 147.3002570  99.5506320  39.0869910 147.8855690  99.4385660
  40.7426280 150.1753930 112.8744980  41.5439010 150.4965980 113.2880380
  40.2278100 149.8149510 113.5964890  44.8470310 150.1638170  95.5084970
  45.6398920 150.4527000  95.0566760  44.3274660 149.7330340  94.8297450
  49.5790910 146.2833800 112.8220390  48.9729070 146.3065400 112.0816140
  49.2745020 145.5516840 113.3587640  51.0091280 150.0114090 111.4329800
  51.9613030 149.9272110 111.3830040  50.8619500 150.6755800 112.1063590
  53.9000480 149.3908300  96.9321710  53.6141990 148.9773440  96.1175890
  53.7020030 150.3196010  96.8122230  38.4624090 142.6627390 111.8181030
  38.9663110 142.0834670 112.3897260  37.7231510 142.9467620 112.3557400
  45.3647710 145.3841580  95.3727320  45.2598350 144.7693930  96.0988700
  45.1971930 144.8607470  94.5890330  45.5162030 144.0698380 111.3516550
  44.7507700 144.6383380 111.2671220  45.6977990 143.7774590 110.4584780
  48.6050440 144.4461610  95.9769310  48.0560540 144.8930910  96.6212050
  49.2269700 143.9410860  96.5006980  52.6585380 145.8003710 111.9091570
  53.3994850 146.1379470 111.4059030  51.8958060 145.9695770 111.3561340
  40.4947170 140.8056980 112.7131100  40.5352510 140.5070850 113.6216330
  41.3492670 141.2064590 112.5538620  44.2725560 143.4052530  97.8734610
  44.6941980 143.2392400  98.7166000  44.3976400 142.5952760  97.3789750
  42.4352980 139.3849080 110.6805590  41.9049440 138.8940030 110.0528930
  43.1041050 139.8133280 110.1463520  46.7853200 142.4290140  95.1211710
  47.3058860 141.7139160  94.7552860  47.4321600 143.0676010  95.4212220
  51.3331040 143.8518540 110.4446780  51.7472060 144.0063620 111.2937200
  50.3982040 143.9773760 110.6072560  51.8053210 141.1914700 112.4485930
  52.3873980 140.4367020 112.3606410  51.9814980 141.7222140 111.6717410
  42.9225280 136.3511450 110.7602880  42.8282150 135.7332200 110.0353750
  42.3422670 137.0777740 110.5332790  45.6886720 134.9084690 107.7930270
  45.2404020 134.9308950 106.9475820  45.0551920 134.5103710 108.3900570
  46.0946270 143.8039020 108.4142710  46.5134380 144.6471750 108.2418950
  45.1754900 143.9411060 108.1849490  48.4310170 141.5355200 109.7980550
  48.5506380 140.9396340 110.5375390  49.2904170 141.5724890 109.3781850
  50.7698070 142.0892390 108.3743060  50.2433290 142.6135010 107.7708200
  51.1129410 142.7219780 109.0052790  43.1684460 139.4785760  94.8192770
  42.9673520 138.6153120  95.1806110  42.9976510 139.3919120  93.8814370
  43.9453690 150.1092030 109.5300440  43.4074780 150.8338090 109.2109140
  44.1987650 149.6322370 108.7397780  45.1978940 138.0776550 111.0556370
  45.7878630 137.7692400 111.7434190  44.3799180 137.6056300 111.2116270
  50.0172370 137.6942360 111.2889390  49.3287890 137.0323900 111.2239380
  50.7378390 137.2480630 111.7337850  50.6472770 134.2893990  97.3479650
  50.9275060 133.4461890  97.7039070  49.8738500 134.5217100  97.8618400
  41.9667260 136.5786380  94.8070650  42.2693160 136.5853810  93.8989800
  42.7061850 136.2284240  95.3038310  45.1852190 135.5221000  95.7926850
  44.8374190 134.8444990  95.2129300  45.3864960 135.0610510  96.6070240
  47.3501230 150.5101750  97.4113450  48.2452020 150.8486720  97.4332210
  47.3818860 149.7881160  96.7837730  40.9897390 145.8828800  95.6400450
  41.4272260 146.4258470  96.2958030  41.4745120 145.0575750  95.6496790
  38.2043190 148.6717830 103.0920710  38.5346200 147.8038890 102.8599350
  38.6334190 148.8776350 103.9225670  42.8005110 147.0026840 100.7522680
  42.5000650 146.8791810 101.6526590  42.6942600 146.1435430 100.3438410
  38.6933400 149.5388420 105.8302340  38.2564390 149.7189220 106.6626490
  39.2611080 150.2963040 105.6884060  54.3295580 149.0405420 110.1179650
  53.7297570 149.0997980 109.3743570  54.4589480 148.1010400 110.2476500
  55.5697030 146.7823240  95.4549360  54.7389990 146.8499890  95.9256590
  55.7468860 147.6727360  95.1516220  55.0253490 143.5270720  97.9583560
  55.7872400 144.0967370  98.0643250  55.0407860 142.9597920  98.7291870
  38.5257830 142.0508650 102.1891220  37.8706670 141.7820290 101.5450920
  39.3635780 141.9413130 101.7393200  56.0313460 144.3820820 102.8025490
  56.4022290 143.5988140 102.3961460  56.6715390 145.0709920 102.6242790
  53.0147220 145.7657400 108.2155810  52.2007060 146.1954560 108.4781600
  53.4221420 146.3775810 107.6024860  55.0772660 143.8205090  95.1156080
  55.3521500 144.7283970  94.9875300  54.8883400 143.7567620  96.0518070
  51.4748270 136.8449940  96.4109710  51.8933150 136.6580920  95.5706370
  51.1684330 135.9928990  96.7212640  54.9738000 141.7574080 100.1085510
  54.5981600 140.9902010  99.6766800  54.2441120 142.1396780 100.5960440
  39.5633760 142.4361220 106.7294560  39.9306800 142.3488620 107.6090580
  38.9944580 141.6727770 106.6301420  54.3637620 140.9045600 109.7425030
  54.1323710 140.6758350 108.8422980  54.6242170 141.8245150 109.6969920
  39.1149760 139.3470310 110.6352980  38.2205810 139.3137070 110.9746690
  39.6547310 139.5457100 111.4004230  52.8025690 136.1302030 112.5204730
  53.6795870 136.1385430 112.9038730  52.8146530 135.3932870 111.9097080
  37.7395910 139.2607580  98.1316550  36.8359990 139.5237780  97.9568210
  38.2236530 139.5318750  97.3516510  54.2488960 139.9831570 103.4092750
  54.7726440 139.4894220 102.7782920  54.8348380 140.1181930 104.1540320
  54.4278680 140.0671440 106.9312300  53.4781390 140.0334980 107.0457290
  54.6091690 140.9771550 106.6962070  40.2823120 138.3173120  96.0410930
  40.9914820 137.8956340  95.5558210  39.5663060 138.3848350  95.4094280
  39.9297280 134.3712450  95.0813580  40.6525410 134.9121390  95.3994800
  40.2021800 134.0975870  94.2055120  53.7388930 139.2404920  99.3485160
  54.2348050 139.0075790 100.1334040  53.5405000 138.4016760  98.9322800
  39.6189470 133.6218640 104.9836200  40.2665660 133.0716020 104.5431360
  40.0391310 133.8761790 105.8052010  55.1676090 137.8765870 101.8822840
  55.0575370 137.7221910 102.8205110  55.9283680 137.3486810 101.6398250
  53.5141810 133.8160000 108.3405840  54.1514030 134.4294140 108.7065030
  53.6616700 133.8520660 107.3955070  56.0566360 135.7073790  95.1228980
  56.9815670 135.5754970  94.9147270  56.0342150 135.7866610  96.0765430
  56.1304850 136.4784450  97.7485690  55.3356350 136.4129570  98.2778600
  56.3348130 137.4135090  97.7371040  53.0723270 150.5176000 101.7424080
  53.6682340 150.1960570 101.0658500  53.3301420 150.0447820 102.5337350
  39.3721470 133.7774310 107.7261520  39.0236290 134.2338130 108.4919700
  39.0409170 132.8831440 107.8083950  40.9785840 146.9493910 111.8914710
  40.9355470 146.5786820 112.7729170  41.1096850 147.8871480 112.0316530
  44.6791870 148.5053500 107.4924430  44.4383230 148.7728060 106.6054950
  45.6194510 148.6759230 107.5475290  46.8846290 134.9686190 111.2480940
  46.8235180 135.5608020 111.9976350  47.8246670 134.8612150 111.1031200
  49.5220850 134.6256250 110.8873230  50.1361260 134.9435540 110.2254310
  50.0670410 134.1404840 111.5069090  55.9396030 150.5247880 108.2935070
  55.4454310 150.9216750 107.5762200  55.3309320 149.8997090 108.6872350
  40.0442110 133.3050510 111.0012290  40.5925100 133.1238560 110.2378400
  40.1097420 132.5144620 111.5368600  40.8173870 149.8956160 109.0112490
  40.2234190 149.7640860 109.7502530  40.8097710 149.0594300 108.5454590
  50.2628890 133.1888390 107.2142520  49.3888730 133.5223500 107.0115450
  50.1539640 132.7161570 108.0394390  51.1700870 135.3959260 108.5984240
  50.8414230 134.5811020 108.2185970  52.1183170 135.3529070 108.4749930
  40.4486100 147.2614540 107.9620530  39.7220160 146.6419830 107.8946480
  40.5095250 147.6555150 107.0918610  44.0531200 149.4759540 104.7469940
  44.5696220 148.8646900 104.2218200  44.7028580 149.9788320 105.2380950
  46.7926700 150.3668030 105.5738920  47.0804510 150.1122330 104.6971930
  47.3049920 149.8145390 106.1644490  48.0103710 134.1058230 106.1535430
  47.2275500 134.5803730 106.4332190  47.7166640 133.2013060 106.0448610
  52.5624780 134.8081330 104.1984520  53.0032870 134.7526430 103.3506120
  52.2932370 135.7239340 104.2694700  54.4263350 134.4396570 102.2093340
  54.3651750 133.4957790 102.0624360  55.2055380 134.5476660 102.7546800
  38.7316100 150.5788930 101.1717290  38.5638140 149.9459610 101.8699180
  37.8650610 150.7848330 100.8211480  39.3544120 134.4105710  98.6749150
  40.1123480 134.5234590  98.1013180  38.8921290 135.2474910  98.6292580
  45.8957930 136.5244980 101.6651460  45.0832440 136.1501870 101.3247340
  46.3999570 135.7690060 101.9672650  50.3982910 133.1887430 102.9034530
  51.0012280 133.7607640 103.3783050  49.6575900 133.7526870 102.6808430
  53.5417510 133.5908990  98.1774810  53.7368140 134.4892440  98.4442240
  52.7547380 133.3596070  98.6707760  40.3378800 149.2722160  98.6167430
  39.8126420 149.6530190  97.9129390  40.2623380 149.8972930  99.3377140
  41.7269270 134.9369760  97.2151120  42.2562030 134.1499560  97.0859070
  42.3597590 135.6160950  97.4486650  43.9207110 134.6744900 100.2696510
  43.2909850 133.9732210 100.4366640  43.3812250 135.4349030 100.0529670
  55.0944120 150.8309700  99.9381370  55.2696310 150.1447440  99.2942290
  54.3965690 151.3556750  99.5458040  44.0462670 133.9528880 112.7049000
  43.7646940 134.4562480 111.9409820  44.4282370 133.1550630 112.3391130
  42.9371770 151.2204540  97.4916680  43.6690590 150.9363820  96.9440570
  43.1965440 150.9817820  98.3816060  42.0986560 147.3369270  97.4963010
  41.4695440 147.8054370  98.0448840  42.2134390 146.4918490  97.9309200
  50.6478130 133.3682460 113.2829470  50.5343580 133.6877070 114.1780990
  51.4647870 133.7694970 112.9866750  53.4276620 150.5153990 112.7648160
  54.2201940 150.0203220 112.5574120  53.7209770 151.1944130 113.3723770
  49.5536280 141.3874930  83.6464210  49.4730330 140.4729540  83.3755920
  49.1400700 141.8842000  82.9403920  47.6854320 143.1653950  85.5273480
  46.9096420 142.6854390  85.8172050  48.3367250 142.4859600  85.3529640
  41.7020150 143.4773760  86.4049240  40.8705030 143.2222470  86.8045750
  42.3101130 143.5484530  87.1407160  51.7061750 147.5714140  84.3072610
  51.2443280 146.8001380  84.6359780  52.5187300 147.5980210  84.8125060
  41.6821410 147.5113850  86.6007260  41.9849450 146.6211590  86.4217480
  42.4265000 148.0684070  86.3729510  40.1112100 138.4375650  80.1891630
  39.2228800 138.7791620  80.0871510  40.3953290 138.2375970  79.2972460
  38.0745110 141.0381300  86.0731330  38.6461220 140.2703500  86.0734970
  38.0746650 141.3370060  85.1637940  47.9325060 149.8572150  83.9276600
  47.3136500 150.3129650  83.3571040  48.7876840 150.0123610  83.5266300
  47.1263310 145.8411140  85.5343640  47.0571590 144.9001080  85.3732770
  47.8883170 145.9312550  86.1066210  39.3169980 136.4465660  87.8600260
  39.1372820 135.5491410  88.1403020  38.9150060 136.9937530  88.5347210
  48.1568480 138.6481520  85.7612570  48.5333300 137.7753400  85.6486240
  48.0587990 138.9840220  84.8703010  42.2873490 137.0207150  81.2230010
  42.3940240 137.9210880  81.5298770  41.3765850 136.9725120  80.9324660
  51.9392600 136.1431960  82.6940910  52.7602220 135.6528530  82.7366390
  51.9726680 136.7329620  83.4472750  39.9356650 138.9426160  86.4682600
  40.6166760 139.2064530  87.0870000  39.6204700 138.1027030  86.8020610
  44.1281220 139.9893520  85.5555190  44.6359440 140.4874490  86.1960210
  44.6594460 139.2128720  85.3794550  56.2292150 138.1598710  89.2584540
  55.5244320 138.5480420  88.7399650  56.4950070 138.8549000  89.8605470
  42.4117320 134.6292080  89.8218610  42.4135760 135.1464470  89.0164510
  41.5821630 134.1522260  89.7988540  48.7988410 144.7411390  81.3208510
  48.1805680 145.2060840  80.7571230  49.3111660 145.4338870  81.7378020
  43.6620170 144.2687260  87.9992110  43.3289550 144.8956180  88.6413180
  43.8386850 144.7949140  87.2193780  52.1754080 138.0832340  85.4668450
  51.4709650 138.3717230  86.0471560  52.5366240 138.8932450  85.1068010
  42.0932650 136.3402040  87.8289060  42.4349460 137.1844090  87.5342930
  41.1548460 136.4885780  87.9454400  42.8739270 146.2368060  89.8141290
  43.4913270 146.9119140  89.5325740  42.0132390 146.6456040  89.7228790
  38.1671610 145.4267920  78.6948140  37.7899590 145.9155020  77.9633040
  38.4244680 146.0993200  79.3254670  53.7916860 147.7007470  87.7295930
  53.1080380 148.3706580  87.7212600  54.3311150 147.8988120  86.9640790
  55.2441000 137.5287130  85.8577660  54.2965910 137.5626110  85.9893090
  55.5690990 138.3426080  86.2427020  45.7760540 133.8284310  84.1533650
  46.0835520 133.2731200  83.4369150  44.8461240 133.9628770  83.9706640
  51.3275600 149.5451600  86.4441110  51.3402760 149.1413890  85.5763370
  50.7750820 150.3198890  86.3402540  52.6221020 146.2667820  81.5331280
  52.5117350 145.3242150  81.6580700  52.6189270 146.6283460  82.4194040
  50.7261040 144.4481440  87.7723720  51.1429830 144.2341550  86.9377180
  51.4500860 144.7054230  88.3432340  48.1641300 141.8933140  80.8893770
  47.2370580 141.8270520  81.1182240  48.3166120 142.8313270  80.7749010
  48.1510380 138.1650140  77.8860930  47.2114050 138.3264100  77.9713390
  48.4693640 138.8835820  77.3396920  54.6723140 142.8468660  87.8639960
  53.8441770 142.9161750  87.3890090  55.2673620 143.4322970  87.3955790
  52.1938590 143.4553440  81.3929020  51.5751010 143.1172990  80.7455320
  52.1763040 142.8113200  82.1008210  51.6365150 139.6337980  88.8094830
  51.2236330 140.4591690  89.0634820  50.9041100 139.0483020  88.6171190
  43.7697940 142.4197880  83.6713500  43.3654940 141.7075130  83.1759400
  43.8561060 142.0751120  84.5601540  44.2379640 146.1065440  85.8352710
  43.9407930 145.5010910  85.1560490  45.1879460 146.1442750  85.7242070
  42.4826560 139.1941090  87.4512540  43.0341150 139.3036430  86.6765790
  42.9970070 139.5678690  88.1667770  52.3265250 149.6797310  89.4975810
  51.8495810 150.4869500  89.3048420  51.6427040 149.0275640  89.6502020
  43.3298070 145.8447130  92.4860510  42.4326600 146.0687100  92.7333910
  43.3550940 145.9682070  91.5371910  50.3703290 142.6940250  78.4001770
  50.8096570 141.8562680  78.2539590  51.0831710 143.3269650  78.4865910
  42.1569290 142.7160450  91.0617880  42.0177060 143.5883250  91.4305280
  41.2750650 142.3733260  90.9165820  48.4798670 147.6336320  82.3683010
  48.9194580 148.3760650  81.9538400  48.4185560 147.8762890  83.2921970
  43.9549640 148.6582150  93.2703030  43.9265070 149.0625100  92.4031460
  43.7914610 147.7292510  93.1074630  53.9520430 133.9483060  76.7142810
  53.6393090 134.0409890  77.6141880  54.7132900 134.5264090  76.6640240
  40.4702570 141.3142860  81.1720150  40.3500170 142.0404950  80.5601420
  40.1603460 140.5445770  80.6948060  55.9064460 149.4409250  94.5667200
  56.3824180 149.9192140  95.2456280  56.5271620 149.3726740  93.8412700
  38.1087940 144.4858000  86.9788790  38.1868360 144.6206770  86.0344510
  38.7229620 143.7773890  87.1716910  39.3535570 146.1858190  83.3894970
  38.9463650 146.3272780  82.5348570  40.2448580 145.9018350  83.1866180
  55.3097710 146.6322100  91.7267210  55.4360770 146.3933980  90.8084390
  55.3519090 145.8006640  92.1989290  49.1714450 150.3350100  90.2962020
  49.6859120 150.2458110  91.0984450  48.3283530 150.6809800  90.5889930
  51.1468850 150.6205440  79.7246020  50.9869990 150.3308380  80.6227850
  50.9815560 149.8445570  79.1891250  43.6257230 150.4003970  81.5017640
  43.4499710 149.4839510  81.2885440  42.7712970 150.7591260  81.7415440
  50.8494980 148.1293000  78.2844020  50.1560140 148.1270290  77.6246300
  51.5917840 147.7052320  77.8538190  50.4144910 149.7555710  82.3592510
  50.8701860 148.9745090  82.6731130  50.7537430 150.4662530  82.9033690
  55.1621720 138.6854560  92.6916950  54.5465990 139.1934230  92.1632410
  54.8418140 137.7852890  92.6342890  38.1647460 145.5272170  89.5183250
  38.3278500 145.0577530  88.7002620  38.6299910 145.0195730  90.1832090
  42.9366230 134.6577930  84.5543820  42.4934380 135.4387470  84.2228340
  43.4951220 134.9807820  85.2614760  47.2236040 137.5246450  90.1579140
  46.7615410 137.7329470  90.9699080  46.8214150 136.7105800  89.8549810
  52.2240550 138.7455400  91.2875800  51.3734140 138.4461150  91.6084870
  52.0642340 138.9897410  90.3759620  49.3190260 140.2457150  93.3874590
  49.6443670 139.4120900  93.0476820  50.1070590 140.7685670  93.5352920
  46.0525050 134.2788630  79.4349650  45.4279230 134.2748500  80.1602960
  45.9655170 133.4119590  79.0385620  44.9742130 135.2025260  86.4133420
  45.2714460 136.1088090  86.3325440  45.5227690 134.7144040  85.7992990
  42.7280450 139.7811500  82.2825070  42.5021370 139.5648670  83.1871690
  41.9472980 140.2139960  81.9371040  49.9578210 139.7874870  80.8815720
  49.3587100 140.5110670  80.6979340  50.5057820 139.7251650  80.0992170
  45.1679660 140.6797080  92.9485340  45.0723260 139.7391810  92.7985740
  46.0111640 140.9012150  92.5533410  48.5643080 138.4238410  82.9119000
  48.9572650 138.7410610  82.0987690  48.9259930 137.5450290  83.0263520
  40.2990200 137.0910750  91.1019120  39.9053590 137.9385960  91.3091900
  39.6108600 136.4537120  91.2927760  46.8735250 137.1745720  94.1715860
  46.1833570 136.9817920  94.8061950  47.6167550 137.4580360  94.7040160
  37.6007250 135.0139210  85.1349200  37.3120300 135.5842070  85.8474180
  38.3453010 134.5343660  85.4980430  37.7877480 138.9559330  76.3451920
  37.7052150 139.8990090  76.4866910  37.4360540 138.8134240  75.4664270
  49.1498220 141.0144160  87.0069780  48.4179340 141.5230970  87.3559880
  48.7522560 140.1974140  86.7058560  45.5875610 137.6898360  85.4122270
  45.5911670 137.2488310  84.5626810  46.4826730 138.0115690  85.5194090
  41.4377990 137.5724850  84.3716480  41.0978040 138.0500080  85.1283530
  40.6755310 137.1189970  84.0117580  45.6495760 138.6910440  78.4029030
  45.7708580 138.6496920  79.3514850  45.2644270 139.5534590  78.2475760
  49.6124130 136.4677840  86.4192720  49.6296870 136.9186490  87.2634570
  49.3639710 135.5683480  86.6326160  44.6617260 141.0011580  77.8012330
  44.0934160 140.5529830  77.1748240  45.3706260 141.3604360  77.2677480
  53.0394880 133.8810020  92.2579100  53.3640650 133.1499680  92.7837080
  53.0751390 133.5623660  91.3560090  39.7386440 144.9023600  91.6779060
  39.3541230 144.2617270  92.2762020  40.0498630 145.6059720  92.2473790
  45.8883580 141.7500140  87.1587680  46.2553710 141.2758710  87.9049020
  45.6988640 142.6241710  87.4996020  38.7524070 136.4943830  83.2881150
  38.4670990 136.1299500  84.1259770  38.6902930 135.7624290  82.6744290
  43.6782950 140.7908780  89.4771890  43.3740020 141.6700760  89.7022250
  44.6329410 140.8508570  89.5129330  42.2064740 144.9969770  80.0738740
  41.4327000 144.4567390  79.9137460  42.9359370 144.4776380  79.7356500
  52.9652720 143.9935130  85.8665130  53.6851840 144.4890420  85.4761240
  52.7634540 143.3153020  85.2219000  48.4262660 135.3873090  80.0094520
  47.6127270 134.8886260  79.9339830  48.2324610 136.2271340  79.5930870
  48.3471520 144.0644190  91.7534130  48.2808830 143.1439860  91.4991720
  47.7176660 144.1619630  92.4678770  51.1411050 139.7592740  78.3056680
  52.0290670 140.0709970  78.1308020  51.1116140 138.8864990  77.9137260
  42.2502140 144.6650150  83.7117550  42.7680810 143.8618410  83.6574440
  41.7986160 144.6029290  84.5534380  47.1371640 145.9316430  78.9844850
  47.4787340 146.6758660  78.4888170  46.3084350 146.2447550  79.3469680
  39.7346680 141.6311520  90.6243250  39.3761620 142.2965370  91.2116590
  39.4401240 140.7995070  90.9955870  42.9359800 142.0895760  93.5082800
  42.6359940 142.2352940  92.6110620  43.7071040 141.5301050  93.4156190
  48.2788250 146.8864760  91.5037930  48.2932790 145.9545720  91.2856840
  47.5713350 146.9724520  92.1427700  53.4125320 141.0704580  77.7736540
  53.3289040 141.5018800  76.9232980  54.1319510 141.5302930  78.2063360
  54.4899460 143.5272100  90.8506510  53.7647650 144.1200880  90.6535900
  55.0174920 143.5195640  90.0519880  54.4412570 147.9246840  80.5018670
  53.7988730 147.2702460  80.7762390  54.0543230 148.3301930  79.7259340
  50.0199050 145.2532270  84.3490360  50.3722870 144.6560400  83.6891730
  49.1361380 144.9276500  84.5198610  46.1062330 146.0129960  81.7560770
  46.7933460 146.5599170  82.1368360  45.3194750 146.5570690  81.7910380
  38.2454730 141.6302780  77.2477850  39.1149580 141.9127580  77.5313770
  37.7545050 142.4438650  77.1326660  45.4089540 143.0175990  81.3686130
  45.8652320 143.8281240  81.5946320  45.0577750 142.6999130  82.2004620
  47.7122150 148.5282330  88.5978430  48.3564370 148.7341710  89.2751850
  48.0751590 147.7670730  88.1449280  41.3101320 133.3613640  81.8408650
  41.1815950 133.3531540  82.7893570  40.4863340 133.6996730  81.4899660
  48.9854230 146.5314680  87.3155880  49.6276460 145.8307840  87.4288050
  49.5103580 147.3113120  87.1352770  52.8309950 146.8163300  77.0395020
  52.6047530 146.0993740  77.6319660  52.4406150 146.5675740  76.2016770
  50.7591850 147.3309580  90.5191940  51.0948090 147.9176270  91.1969860
  49.8392190 147.2002290  90.7489730  38.6125980 150.8430160  77.8139480
  38.9723620 151.4419500  77.1596750  38.4718320 151.3890050  78.5874510
  38.3095250 135.1204760  91.3015350  37.5953770 135.3201680  91.9067960
  38.7290290 134.3444330  91.6730150  52.4126200 144.7335240  78.7009180
  52.1247900 145.1947930  79.4887060  53.2078370 144.2733010  78.9693400
  38.5967840 149.1085020  92.2881880  38.7058960 148.1679760  92.1477270
  37.9448400 149.3739770  91.6395610  46.5880430 147.3800910  93.6880000
  46.2677300 146.6610150  94.2325690  45.9138790 148.0555980  93.7616060
  44.6294600 148.2261360  78.6313150  44.6204700 148.9591050  78.0157660
  43.7092960 147.9792940  78.7240110  40.2301240 143.4476250  79.3759910
  39.6229190 144.1875150  79.3855210  40.7050590 143.5375610  78.5498110
  49.8034030 137.6127070  89.0516800  50.1714850 136.7922280  89.3796370
  48.9432230 137.6728960  89.4672450  53.1696060 136.5684010  79.8604360
  52.5409220 136.6729680  79.1462590  52.6747980 136.7880790  80.6498240
  47.6154200 148.2889600  77.2938340  47.7166180 148.0853590  76.3640320
  46.7155940 148.0347880  77.4986120  45.1380090 138.8469960  81.2762240
  44.4296240 139.3156300  81.7175850  45.4224570 138.1891970  81.9107430
  46.7636020 140.2666660  89.2754770  47.2621270 140.7412480  89.9406620
  46.9058970 139.3430180  89.4824800  49.1695520 135.5720620  82.7158030
  49.0463300 135.5906750  81.7667540  50.1180080 135.6199560  82.8356430
  46.2572310 150.8075920  81.9886010  46.5113810 150.7697310  81.0665380
  45.3084790 150.6809250  81.9814260  43.3415110 137.1555040  78.6512950
  44.1905640 137.5925190  78.5853140  42.9746380 137.4675300  79.4785010
  53.9702880 136.4834620  90.1183160  53.4676480 137.2240020  90.4576970
  54.7859540 136.8718620  89.8019950  52.2624890 141.7267800  83.5644520
  51.3215030 141.7418030  83.7392210  52.5768960 140.9403760  84.0104820
  42.2406530 143.4087400  77.1248480  43.0069800 143.2968760  77.6873910
  42.3181220 142.7125370  76.4725250  40.9353290 140.8412470  77.8081370
  41.0156880 139.8939980  77.9198770  41.8273040 141.1719350  77.9142030
  54.2650470 148.8976650  85.2398780  54.3897890 149.7207820  85.7122590
  55.1316030 148.6867380  84.8922930  38.6213480 147.0581430  80.7857420
  37.6953260 147.3002570  80.7762830  39.0869910 147.8855690  80.6642170
  40.7426280 150.1753930  94.1001490  41.5439010 150.4965980  94.5136890
  40.2278100 149.8149510  94.8221400  44.8470310 150.1638170  76.7341480
  45.6398920 150.4527000  76.2823270  44.3274660 149.7330340  76.0553960
  49.5790910 146.2833800  94.0476900  48.9729070 146.3065400  93.3072650
  49.2745020 145.5516840  94.5844150  51.0091280 150.0114090  92.6586310
  51.9613030 149.9272110  92.6086550  50.8619500 150.6755800  93.3320100
  53.9000480 149.3908300  78.1578220  53.6141990 148.9773440  77.3432400
  53.7020030 150.3196010  78.0378740  38.4624090 142.6627390  93.0437540
  38.9663110 142.0834670  93.6153770  37.7231510 142.9467620  93.5813910
  45.3647710 145.3841580  76.5983830  45.2598350 144.7693930  77.3245210
  45.1971930 144.8607470  75.8146840  45.5162030 144.0698380  92.5773060
  44.7507700 144.6383380  92.4927730  45.6977990 143.7774590  91.6841290
  48.6050440 144.4461610  77.2025820  48.0560540 144.8930910  77.8468560
  49.2269700 143.9410860  77.7263490  52.6585380 145.8003710  93.1348080
  53.3994850 146.1379470  92.6315540  51.8958060 145.9695770  92.5817850
  40.4947170 140.8056980  93.9387610  40.5352510 140.5070850  94.8472840
  41.3492670 141.2064590  93.7795130  44.2725560 143.4052530  79.0991120
  44.6941980 143.2392400  79.9422510  44.3976400 142.5952760  78.6046260
  42.4352980 139.3849080  91.9062100  41.9049440 138.8940030  91.2785440
  43.1041050 139.8133280  91.3720030  46.7853200 142.4290140  76.3468220
  47.3058860 141.7139160  75.9809370  47.4321600 143.0676010  76.6468730
  51.3331040 143.8518540  91.6703290  51.7472060 144.0063620  92.5193710
  50.3982040 143.9773760  91.8329070  51.8053210 141.1914700  93.6742440
  52.3873980 140.4367020  93.5862920  51.9814980 141.7222140  92.8973920
  42.9225280 136.3511450  91.9859390  42.8282150 135.7332200  91.2610260
  42.3422670 137.0777740  91.7589300  45.6886720 134.9084690  89.0186780
  45.2404020 134.9308950  88.1732330  45.0551920 134.5103710  89.6157080
  46.0946270 143.8039020  89.6399220  46.5134380 144.6471750  89.4675460
  45.1754900 143.9411060  89.4106000  48.4310170 141.5355200  91.0237060
  48.5506380 140.9396340  91.7631900  49.2904170 141.5724890  90.6038360
  50.7698070 142.0892390  89.5999570  50.2433290 142.6135010  88.9964710
  51.1129410 142.7219780  90.2309300  43.1684460 139.4785760  76.0449280
  42.9673520 138.6153120  76.4062620  42.9976510 139.3919120  75.1070880
  43.9453690 150.1092030  90.7556950  43.4074780 150.8338090  90.4365650
  44.1987650 149.6322370  89.9654290  45.1978940 138.0776550  92.2812880
  45.7878630 137.7692400  92.9690700  44.3799180 137.6056300  92.4372780
  50.0172370 137.6942360  92.5145900  49.3287890 137.0323900  92.4495890
  50.7378390 137.2480630  92.9594360  50.6472770 134.2893990  78.5736160
  50.9275060 133.4461890  78.9295580  49.8738500 134.5217100  79.0874910
  41.9667260 136.5786380  76.0327160  42.2693160 136.5853810  75.1246310
  42.7061850 136.2284240  76.5294820  45.1852190 135.5221000  77.0183360
  44.8374190 134.8444990  76.4385810  45.3864960 135.0610510  77.8326750
  47.3501230 150.5101750  78.6369960  48.2452020 150.8486720  78.6588720
  47.3818860 149.7881160  78.0094240  40.9897390 145.8828800  76.8656960
  41.4272260 146.4258470  77.5214540  41.4745120 145.0575750  76.8753300
  38.2043190 148.6717830  84.3177220  38.5346200 147.8038890  84.0855860
  38.6334190 148.8776350  85.1482180  42.8005110 147.0026840  81.9779190
  42.5000650 146.8791810  82.8783100  42.6942600 146.1435430  81.5694920
  38.6933400 149.5388420  87.0558850  38.2564390 149.7189220  87.8883000
  39.2611080 150.2963040  86.9140570  54.3295580 149.0405420  91.3436160
  53.7297570 149.0997980  90.6000080  54.4589480 148.1010400  91.4733010
  55.5697030 146.7823240  76.6805870  54.7389990 146.8499890  77.1513100
  55.7468860 147.6727360  76.3772730  55.0253490 143.5270720  79.1840070
  55.7872400 144.0967370  79.2899760  55.0407860 142.9597920  79.9548380
  38.5257830 142.0508650  83.4147730  37.8706670 141.7820290  82.7707430
  39.3635780 141.9413130  82.9649710  56.0313460 144.3820820  84.0282000
  56.4022290 143.5988140  83.6217970  56.6715390 145.0709920  83.8499300
  53.0147220 145.7657400  89.4412320  52.2007060 146.1954560  89.7038110
  53.4221420 146.3775810  88.8281370  55.0772660 143.8205090  76.3412590
  55.3521500 144.7283970  76.2131810  54.8883400 143.7567620  77.2774580
  51.4748270 136.8449940  77.6366220  51.8933150 136.6580920  76.7962880
  51.1684330 135.9928990  77.9469150  54.9738000 141.7574080  81.3342020
  54.5981600 140.9902010  80.9023310  54.2441120 142.1396780  81.8216950
  39.5633760 142.4361220  87.9551070  39.9306800 142.3488620  88.8347090
  38.9944580 141.6727770  87.8557930  54.3637620 140.9045600  90.9681540
  54.1323710 140.6758350  90.0679490  54.6242170 141.8245150  90.9226430
  39.1149760 139.3470310  91.8609490  38.2205810 139.3137070  92.2003200
  39.6547310 139.5457100  92.6260740  52.8025690 136.1302030  93.7461240
  53.6795870 136.1385430  94.1295240  52.8146530 135.3932870  93.1353590
  37.7395910 139.2607580  79.3573060  36.8359990 139.5237780  79.1824720
  38.2236530 139.5318750  78.5773020  54.2488960 139.9831570  84.6349260
  54.7726440 139.4894220  84.0039430  54.8348380 140.1181930  85.3796830
  54.4278680 140.0671440  88.1568810  53.4781390 140.0334980  88.2713800
  54.6091690 140.9771550  87.9218580  40.2823120 138.3173120  77.2667440
  40.9914820 137.8956340  76.7814720  39.5663060 138.3848350  76.6350790
  39.9297280 134.3712450  76.3070090  40.6525410 134.9121390  76.6251310
  40.2021800 134.0975870  75.4311630  53.7388930 139.2404920  80.5741670
  54.2348050 139.0075790  81.3590550  53.5405000 138.4016760  80.1579310
  39.6189470 133.6218640  86.2092710  40.2665660 133.0716020  85.7687870
  40.0391310 133.8761790  87.0308520  55.1676090 137.8765870  83.1079350
  55.0575370 137.7221910  84.0461620  55.9283680 137.3486810  82.8654760
  53.5141810 133.8160000  89.5662350  54.1514030 134.4294140  89.9321540
  53.6616700 133.8520660  88.6211580  56.0566360 135.7073790  76.3485490
  56.9815670 135.5754970  76.1403780  56.0342150 135.7866610  77.3021940
  56.1304850 136.4784450  78.9742200  55.3356350 136.4129570  79.5035110
  56.3348130 137.4135090  78.9627550  53.0723270 150.5176000  82.9680590
  53.6682340 150.1960570  82.2915010  53.3301420 150.0447820  83.7593860
  39.3721470 133.7774310  88.9518030  39.0236290 134.2338130  89.7176210
  39.0409170 132.8831440  89.0340460  40.9785840 146.9493910  93.1171220
  40.9355470 146.5786820  93.9985680  41.1096850 147.8871480  93.2573040
  44.6791870 148.5053500  88.7180940  44.4383230 148.7728060  87.8311460
  45.6194510 148.6759230  88.7731800  46.8846290 134.9686190  92.4737450
  46.8235180 135.5608020  93.2232860  47.8246670 134.8612150  92.3287710
  49.5220850 134.6256250  92.1129740  50.1361260 134.9435540  91.4510820
  50.0670410 134.1404840  92.7325600  55.9396030 150.5247880  89.5191580
  55.4454310 150.9216750  88.8018710  55.3309320 149.8997090  89.9128860
  40.0442110 133.3050510  92.2268800  40.5925100 133.1238560  91.4634910
  40.1097420 132.5144620  92.7625110  40.8173870 149.8956160  90.2369000
  40.2234190 149.7640860  90.9759040  40.8097710 149.0594300  89.7711100
  50.2628890 133.1888390  88.4399030  49.3888730 133.5223500  88.2371960
  50.1539640 132.7161570  89.2650900  51.1700870 135.3959260  89.8240750
  50.8414230 134.5811020  89.4442480  52.1183170 135.3529070  89.7006440
  40.4486100 147.2614540  89.1877040  39.7220160 146.6419830  89.1202990
  40.5095250 147.6555150  88.3175120  44.0531200 149.4759540  85.9726450
  44.5696220 148.8646900  85.4474710  44.7028580 149.9788320  86.4637460
  46.7926700 150.3668030  86.7995430  47.0804510 150.1122330  85.9228440
  47.3049920 149.8145390  87.3901000  48.0103710 134.1058230  87.3791940
  47.2275500 134.5803730  87.6588700  47.7166640 133.2013060  87.2705120
  52.5624780 134.8081330  85.4241030  53.0032870 134.7526430  84.5762630
  52.2932370 135.7239340  85.4951210  54.4263350 134.4396570  83.4349850
  54.3651750 133.4957790  83.2880870  55.2055380 134.5476660  83.9803310
  38.7316100 150.5788930  82.3973800  38.5638140 149.9459610  83.0955690
  37.8650610 150.7848330  82.0467990  39.3544120 134.4105710  79.9005660
  40.1123480 134.5234590  79.3269690  38.8921290 135.2474910  79.8549090
  45.8957930 136.5244980  82.8907970  45.0832440 136.1501870  82.5503850
  46.3999570 135.7690060  83.1929160  50.3982910 133.1887430  84.1291040
  51.0012280 133.7607640  84.6039560  49.6575900 133.7526870  83.9064940
  53.5417510 133.5908990  79.4031320  53.7368140 134.4892440  79.6698750
  52.7547380 133.3596070  79.8964270  40.3378800 149.2722160  79.8423940
  39.8126420 149.6530190  79.1385900  40.2623380 149.8972930  80.5633650
  41.7269270 134.9369760  78.4407630  42.2562030 134.1499560  78.3115580
  42.3597590 135.6160950  78.6743160  43.9207110 134.6744900  81.4953020
  43.2909850 133.9732210  81.6623150  43.3812250 135.4349030  81.2786180
  55.0944120 150.8309700  81.1637880  55.2696310 150.1447440  80.5198800
  54.3965690 151.3556750  80.7714550  44.0462670 133.9528880  93.9305510
  43.7646940 134.4562480  93.1666330  44.4282370 133.1550630  93.5647640
  42.9371770 151.2204540  78.7173190  43.6690590 150.9363820  78.1697080
  43.1965440 150.9817820  79.6072570  42.0986560 147.3369270  78.7219520
  41.4695440 147.8054370  79.2705350  42.2134390 146.4918490  79.1565710
  50.6478130 133.3682460  94.5085980  50.5343580 133.6877070  95.4037500
  51.4647870 133.7694970  94.2123260  53.4276620 150.5153990  93.9904670
  54.2201940 150.0203220  93.7830630  53.7209770 151.1944130  94.5980280
  49.5536280 141.3874930  64.8720720  49.4730330 140.4729540  64.6012430
  49.1400700 141.8842000  64.1660430  47.6854320 143.1653950  66.7529990
  46.9096420 142.6854390  67.0428560  48.3367250 142.4859600  66.5786150
  41.7020150 143.4773760  67.6305750  40.8705030 143.2222470  68.0302260
  42.3101130 143.5484530  68.3663670  51.7061750 147.5714140  65.5329120
  51.2443280 146.8001380  65.8616290  52.5187300 147.5980210  66.0381570
  41.6821410 147.5113850  67.8263770  41.9849450 146.6211590  67.6473990
  42.4265000 148.0684070  67.5986020  40.1112100 138.4375650  61.4148140
  39.2228800 138.7791620  61.3128020  40.3953290 138.2375970  60.5228970
  38.0745110 141.0381300  67.2987840  38.6461220 140.2703500  67.2991480
  38.0746650 141.3370060  66.3894450  47.9325060 149.8572150  65.1533110
  47.3136500 150.3129650  64.5827550  48.7876840 150.0123610  64.7522810
  47.1263310 145.8411140  66.7600150  47.0571590 144.9001080  66.5989280
  47.8883170 145.9312550  67.3322720  39.3169980 136.4465660  69.0856770
  39.1372820 135.5491410  69.3659530  38.9150060 136.9937530  69.7603720
  48.1568480 138.6481520  66.9869080  48.5333300 137.7753400  66.8742750
  48.0587990 138.9840220  66.0959520  42.2873490 137.0207150  62.4486520
  42.3940240 137.9210880  62.7555280  41.3765850 136.9725120  62.1581170
  51.9392600 136.1431960  63.9197420  52.7602220 135.6528530  63.9622900
  51.9726680 136.7329620  64.6729260  39.9356650 138.9426160  67.6939110
  40.6166760 139.2064530  68.3126510  39.6204700 138.1027030  68.0277120
  44.1281220 139.9893520  66.7811700  44.6359440 140.4874490  67.4216720
  44.6594460 139.2128720  66.6051060  56.2292150 138.1598710  70.4841050
  55.5244320 138.5480420  69.9656160  56.4950070 138.8549000  71.0861980
  42.4117320 134.6292080  71.0475120  42.4135760 135.1464470  70.2421020
  41.5821630 134.1522260  71.0245050  48.7988410 144.7411390  62.5465020
  48.1805680 145.2060840  61.9827740  49.3111660 145.4338870  62.9634530
  43.6620170 144.2687260  69.2248620  43.3289550 144.8956180  69.8669690
  43.8386850 144.7949140  68.4450290  52.1754080 138.0832340  66.6924960
  51.4709650 138.3717230  67.2728070  52.5366240 138.8932450  66.3324520
  42.0932650 136.3402040  69.0545570  42.4349460 137.1844090  68.7599440
  41.1548460 136.4885780  69.1710910  42.8739270 146.2368060  71.0397800
  43.4913270 146.9119140  70.7582250  42.0132390 146.6456040  70.9485300
  38.1671610 145.4267920  59.9204650  37.7899590 145.9155020  59.1889550
  38.4244680 146.0993200  60.5511180  53.7916860 147.7007470  68.9552440
  53.1080380 148.3706580  68.9469110  54.3311150 147.8988120  68.1897300
  55.2441000 137.5287130  67.0834170  54.2965910 137.5626110  67.2149600
  55.5690990 138.3426080  67.4683530  45.7760540 133.8284310  65.3790160
  46.0835520 133.2731200  64.6625660  44.8461240 133.9628770  65.1963150
  51.3275600 149.5451600  67.6697620  51.3402760 149.1413890  66.8019880
  50.7750820 150.3198890  67.5659050  52.6221020 146.2667820  62.7587790
  52.5117350 145.3242150  62.8837210  52.6189270 146.6283460  63.6450550
  50.7261040 144.4481440  68.9980230  51.1429830 144.2341550  68.1633690
  51.4500860 144.7054230  69.5688850  48.1641300 141.8933140  62.1150280
  47.2370580 141.8270520  62.3438750  48.3166120 142.8313270  62.0005520
  48.1510380 138.1650140  59.1117440  47.2114050 138.3264100  59.1969900
  48.4693640 138.8835820  58.5653430  54.6723140 142.8468660  69.0896470
  53.8441770 142.9161750  68.6146600  55.2673620 143.4322970  68.6212300
  52.1938590 143.4553440  62.6185530  51.5751010 143.1172990  61.9711830
  52.1763040 142.8113200  63.3264720  51.6365150 139.6337980  70.0351340
  51.2236330 140.4591690  70.2891330  50.9041100 139.0483020  69.8427700
  43.7697940 142.4197880  64.8970010  43.3654940 141.7075130  64.4015910
  43.8561060 142.0751120  65.7858050  44.2379640 146.1065440  67.0609220
  43.9407930 145.5010910  66.3817000  45.1879460 146.1442750  66.9498580
  42.4826560 139.1941090  68.6769050  43.0341150 139.3036430  67.9022300
  42.9970070 139.5678690  69.3924280  52.3265250 149.6797310  70.7232320
  51.8495810 150.4869500  70.5304930  51.6427040 149.0275640  70.8758530
  43.3298070 145.8447130  73.7117020  42.4326600 146.0687100  73.9590420
  43.3550940 145.9682070  72.7628420  50.3703290 142.6940250  59.6258280
  50.8096570 141.8562680  59.4796100  51.0831710 143.3269650  59.7122420
  42.1569290 142.7160450  72.2874390  42.0177060 143.5883250  72.6561790
  41.2750650 142.3733260  72.1422330  48.4798670 147.6336320  63.5939520
  48.9194580 148.3760650  63.1794910  48.4185560 147.8762890  64.5178480
  43.9549640 148.6582150  74.4959540  43.9265070 149.0625100  73.6287970
  43.7914610 147.7292510  74.3331140  53.9520430 133.9483060  57.9399320
  53.6393090 134.0409890  58.8398390  54.7132900 134.5264090  57.8896750
  40.4702570 141.3142860  62.3976660  40.3500170 142.0404950  61.7857930
  40.1603460 140.5445770  61.9204570  55.9064460 149.4409250  75.7923710
  56.3824180 149.9192140  76.4712790  56.5271620 149.3726740  75.0669210
  38.1087940 144.4858000  68.2045300  38.1868360 144.6206770  67.2601020
  38.7229620 143.7773890  68.3973420  39.3535570 146.1858190  64.6151480
  38.9463650 146.3272780  63.7605080  40.2448580 145.9018350  64.4122690
  55.3097710 146.6322100  72.9523720  55.4360770 146.3933980  72.0340900
  55.3519090 145.8006640  73.4245800  49.1714450 150.3350100  71.5218530
  49.6859120 150.2458110  72.3240960  48.3283530 150.6809800  71.8146440
  51.1468850 150.6205440  60.9502530  50.9869990 150.3308380  61.8484360
  50.9815560 149.8445570  60.4147760  43.6257230 150.4003970  62.7274150
  43.4499710 149.4839510  62.5141950  42.7712970 150.7591260  62.9671950
  50.8494980 148.1293000  59.5100530  50.1560140 148.1270290  58.8502810
  51.5917840 147.7052320  59.0794700  50.4144910 149.7555710  63.5849020
  50.8701860 148.9745090  63.8987640  50.7537430 150.4662530  64.1290200
  55.1621720 138.6854560  73.9173460  54.5465990 139.1934230  73.3888920
  54.8418140 137.7852890  73.8599400  38.1647460 145.5272170  70.7439760
  38.3278500 145.0577530  69.9259130  38.6299910 145.0195730  71.4088600
  42.9366230 134.6577930  65.7800330  42.4934380 135.4387470  65.4484850
  43.4951220 134.9807820  66.4871270  47.2236040 137.5246450  71.3835650
  46.7615410 137.7329470  72.1955590  46.8214150 136.7105800  71.0806320
  52.2240550 138.7455400  72.5132310  51.3734140 138.4461150  72.8341380
  52.0642340 138.9897410  71.6016130  49.3190260 140.2457150  74.6131100
  49.6443670 139.4120900  74.2733330  50.1070590 140.7685670  74.7609430
  46.0525050 134.2788630  60.6606160  45.4279230 134.2748500  61.3859470
  45.9655170 133.4119590  60.2642130  44.9742130 135.2025260  67.6389930
  45.2714460 136.1088090  67.5581950  45.5227690 134.7144040  67.0249500
  42.7280450 139.7811500  63.5081580  42.5021370 139.5648670  64.4128200
  41.9472980 140.2139960  63.1627550  49.9578210 139.7874870  62.1072230
  49.3587100 140.5110670  61.9235850  50.5057820 139.7251650  61.3248680
  45.1679660 140.6797080  74.1741850  45.0723260 139.7391810  74.0242250
  46.0111640 140.9012150  73.7789920  48.5643080 138.4238410  64.1375510
  48.9572650 138.7410610  63.3244200  48.9259930 137.5450290  64.2520030
  40.2990200 137.0910750  72.3275630  39.9053590 137.9385960  72.5348410
  39.6108600 136.4537120  72.5184270  46.8735250 137.1745720  75.3972370
  46.1833570 136.9817920  76.0318460  47.6167550 137.4580360  75.9296670
  37.6007250 135.0139210  66.3605710  37.3120300 135.5842070  67.0730690
  38.3453010 134.5343660  66.7236940  37.7877480 138.9559330  57.5708430
  37.7052150 139.8990090  57.7123420  37.4360540 138.8134240  56.6920780
  49.1498220 141.0144160  68.2326290  48.4179340 141.5230970  68.5816390
  48.7522560 140.1974140  67.9315070  45.5875610 137.6898360  66.6378780
  45.5911670 137.2488310  65.7883320  46.4826730 138.0115690  66.7450600
  41.4377990 137.5724850  65.5972990  41.0978040 138.0500080  66.3540040
  40.6755310 137.1189970  65.2374090  45.6495760 138.6910440  59.6285540
  45.7708580 138.6496920  60.5771360  45.2644270 139.5534590  59.4732270
  49.6124130 136.4677840  67.6449230  49.6296870 136.9186490  68.4891080
  49.3639710 135.5683480  67.8582670  44.6617260 141.0011580  59.0268840
  44.0934160 140.5529830  58.4004750  45.3706260 141.3604360  58.4933990
  53.0394880 133.8810020  73.4835610  53.3640650 133.1499680  74.0093590
  53.0751390 133.5623660  72.5816600  39.7386440 144.9023600  72.9035570
  39.3541230 144.2617270  73.5018530  40.0498630 145.6059720  73.4730300
  45.8883580 141.7500140  68.3844190  46.2553710 141.2758710  69.1305530
  45.6988640 142.6241710  68.7252530  38.7524070 136.4943830  64.5137660
  38.4670990 136.1299500  65.3516280  38.6902930 135.7624290  63.9000800
  43.6782950 140.7908780  70.7028400  43.3740020 141.6700760  70.9278760
  44.6329410 140.8508570  70.7385840  42.2064740 144.9969770  61.2995250
  41.4327000 144.4567390  61.1393970  42.9359370 144.4776380  60.9613010
  52.9652720 143.9935130  67.0921640  53.6851840 144.4890420  66.7017750
  52.7634540 143.3153020  66.4475510  48.4262660 135.3873090  61.2351030
  47.6127270 134.8886260  61.1596340  48.2324610 136.2271340  60.8187380
  48.3471520 144.0644190  72.9790640  48.2808830 143.1439860  72.7248230
  47.7176660 144.1619630  73.6935280  51.1411050 139.7592740  59.5313190
  52.0290670 140.0709970  59.3564530  51.1116140 138.8864990  59.1393770
  42.2502140 144.6650150  64.9374060  42.7680810 143.8618410  64.8830950
  41.7986160 144.6029290  65.7790890  47.1371640 145.9316430  60.2101360
  47.4787340 146.6758660  59.7144680  46.3084350 146.2447550  60.5726190
  39.7346680 141.6311520  71.8499760  39.3761620 142.2965370  72.4373100
  39.4401240 140.7995070  72.2212380  42.9359800 142.0895760  74.7339310
  42.6359940 142.2352940  73.8367130  43.7071040 141.5301050  74.6412700
  48.2788250 146.8864760  72.7294440  48.2932790 145.9545720  72.5113350
  47.5713350 146.9724520  73.3684210  53.4125320 141.0704580  58.9993050
  53.3289040 141.5018800  58.1489490  54.1319510 141.5302930  59.4319870
  54.4899460 143.5272100  72.0763020  53.7647650 144.1200880  71.8792410
  55.0174920 143.5195640  71.2776390  54.4412570 147.9246840  61.7275180
  53.7988730 147.2702460  62.0018900  54.0543230 148.3301930  60.9515850
  50.0199050 145.2532270  65.5746870  50.3722870 144.6560400  64.9148240
  49.1361380 144.9276500  65.7455120  46.1062330 146.0129960  62.9817280
  46.7933460 146.5599170  63.3624870  45.3194750 146.5570690  63.0166890
  38.2454730 141.6302780  58.4734360  39.1149580 141.9127580  58.7570280
  37.7545050 142.4438650  58.3583170  45.4089540 143.0175990  62.5942640
  45.8652320 143.8281240  62.8202830  45.0577750 142.6999130  63.4261130
  47.7122150 148.5282330  69.8234940  48.3564370 148.7341710  70.5008360
  48.0751590 147.7670730  69.3705790  41.3101320 133.3613640  63.0665160
  41.1815950 133.3531540  64.0150080  40.4863340 133.6996730  62.7156170
  48.9854230 146.5314680  68.5412390  49.6276460 145.8307840  68.6544560
  49.5103580 147.3113120  68.3609280  52.8309950 146.8163300  58.2651530
  52.6047530 146.0993740  58.8576170  52.4406150 146.5675740  57.4273280
  50.7591850 147.3309580  71.7448450  51.0948090 147.9176270  72.4226370
  49.8392190 147.2002290  71.9746240  38.6125980 150.8430160  59.0395990
  38.9723620 151.4419500  58.3853260  38.4718320 151.3890050  59.8131020
  38.3095250 135.1204760  72.5271860  37.5953770 135.3201680  73.1324470
  38.7290290 134.3444330  72.8986660  52.4126200 144.7335240  59.9265690
  52.1247900 145.1947930  60.7143570  53.2078370 144.2733010  60.1949910
  38.5967840 149.1085020  73.5138390  38.7058960 148.1679760  73.3733780
  37.9448400 149.3739770  72.8652120  46.5880430 147.3800910  74.9136510
  46.2677300 146.6610150  75.4582200  45.9138790 148.0555980  74.9872570
  44.6294600 148.2261360  59.8569660  44.6204700 148.9591050  59.2414170
  43.7092960 147.9792940  59.9496620  40.2301240 143.4476250  60.6016420
  39.6229190 144.1875150  60.6111720  40.7050590 143.5375610  59.7754620
  49.8034030 137.6127070  70.2773310  50.1714850 136.7922280  70.6052880
  48.9432230 137.6728960  70.6928960  53.1696060 136.5684010  61.0860870
  52.5409220 136.6729680  60.3719100  52.6747980 136.7880790  61.8754750
  47.6154200 148.2889600  58.5194850  47.7166180 148.0853590  57.5896830
  46.7155940 148.0347880  58.7242630  45.1380090 138.8469960  62.5018750
  44.4296240 139.3156300  62.9432360  45.4224570 138.1891970  63.1363940
  46.7636020 140.2666660  70.5011280  47.2621270 140.7412480  71.1663130
  46.9058970 139.3430180  70.7081310  49.1695520 135.5720620  63.9414540
  49.0463300 135.5906750  62.9924050  50.1180080 135.6199560  64.0612940
  46.2572310 150.8075920  63.2142520  46.5113810 150.7697310  62.2921890
  45.3084790 150.6809250  63.2070770  43.3415110 137.1555040  59.8769460
  44.1905640 137.5925190  59.8109650  42.9746380 137.4675300  60.7041520
  53.9702880 136.4834620  71.3439670  53.4676480 137.2240020  71.6833480
  54.7859540 136.8718620  71.0276460  52.2624890 141.7267800  64.7901030
  51.3215030 141.7418030  64.9648720  52.5768960 140.9403760  65.2361330
  42.2406530 143.4087400  58.3504990  43.0069800 143.2968760  58.9130420
  42.3181220 142.7125370  57.6981760  40.9353290 140.8412470  59.0337880
  41.0156880 139.8939980  59.1455280  41.8273040 141.1719350  59.1398540
  54.2650470 148.8976650  66.4655290  54.3897890 149.7207820  66.9379100
  55.1316030 148.6867380  66.1179440  38.6213480 147.0581430  62.0113930
  37.6953260 147.3002570  62.0019340  39.0869910 147.8855690  61.8898680
  40.7426280 150.1753930  75.3258000  41.5439010 150.4965980  75.7393400
  40.2278100 149.8149510  76.0477910  44.8470310 150.1638170  57.9597990
  45.6398920 150.4527000  57.5079780  44.3274660 149.7330340  57.2810470
  49.5790910 146.2833800  75.2733410  48.9729070 146.3065400  74.5329160
  49.2745020 145.5516840  75.8100660  51.0091280 150.0114090  73.8842820
  51.9613030 149.9272110  73.8343060  50.8619500 150.6755800  74.5576610
  53.9000480 149.3908300  59.3834730  53.6141990 148.9773440  58.5688910
  53.7020030 150.3196010  59.2635250  38.4624090 142.6627390  74.2694050
  38.9663110 142.0834670  74.8410280  37.7231510 142.9467620  74.8070420
  45.3647710 145.3841580  57.8240340  45.2598350 144.7693930  58.5501720
  45.1971930 144.8607470  57.0403350  45.5162030 144.0698380  73.8029570
  44.7507700 144.6383380  73.7184240  45.6977990 143.7774590  72.9097800
  48.6050440 144.4461610  58.4282330  48.0560540 144.8930910  59.0725070
  49.2269700 143.9410860  58.9520000  52.6585380 145.8003710  74.3604590
  53.3994850 146.1379470  73.8572050  51.8958060 145.9695770  73.8074360
  40.4947170 140.8056980  75.1644120  40.5352510 140.5070850  76.0729350
  41.3492670 141.2064590  75.0051640  44.2725560 143.4052530  60.3247630
  44.6941980 143.2392400  61.1679020  44.3976400 142.5952760  59.8302770
  42.4352980 139.3849080  73.1318610  41.9049440 138.8940030  72.5041950
  43.1041050 139.8133280  72.5976540  46.7853200 142.4290140  57.5724730
  47.3058860 141.7139160  57.2065880  47.4321600 143.0676010  57.8725240
  51.3331040 143.8518540  72.8959800  51.7472060 144.0063620  73.7450220
  50.3982040 143.9773760  73.0585580  51.8053210 141.1914700  74.8998950
  52.3873980 140.4367020  74.8119430  51.9814980 141.7222140  74.1230430
  42.9225280 136.3511450  73.2115900  42.8282150 135.7332200  72.4866770
  42.3422670 137.0777740  72.9845810  45.6886720 134.9084690  70.2443290
  45.2404020 134.9308950  69.3988840  45.0551920 134.5103710  70.8413590
  46.0946270 143.8039020  70.8655730  46.5134380 144.6471750  70.6931970
  45.1754900 143.9411060  70.6362510  48.4310170 141.5355200  72.2493570
  48.5506380 140.9396340  72.9888410  49.2904170 141.5724890  71.8294870
  50.7698070 142.0892390  70.8256080  50.2433290 142.6135010  70.2221220
  51.1129410 142.7219780  71.4565810  43.1684460 139.4785760  57.2705790
  42.9673520 138.6153120  57.6319130  42.9976510 139.3919120  56.3327390
  43.9453690 150.1092030  71.9813460  43.4074780 150.8338090  71.6622160
  44.1987650 149.6322370  71.1910800  45.1978940 138.0776550  73.5069390
  45.7878630 137.7692400  74.1947210  44.3799180 137.6056300  73.6629290
  50.0172370 137.6942360  73.7402410  49.3287890 137.0323900  73.6752400
  50.7378390 137.2480630  74.1850870  50.6472770 134.2893990  59.7992670
  50.9275060 133.4461890  60.1552090  49.8738500 134.5217100  60.3131420
  41.9667260 136.5786380  57.2583670  42.2693160 136.5853810  56.3502820
  42.7061850 136.2284240  57.7551330  45.1852190 135.5221000  58.2439870
  44.8374190 134.8444990  57.6642320  45.3864960 135.0610510  59.0583260
  47.3501230 150.5101750  59.8626470  48.2452020 150.8486720  59.8845230
  47.3818860 149.7881160  59.2350750  40.9897390 145.8828800  58.0913470
  41.4272260 146.4258470  58.7471050  41.4745120 145.0575750  58.1009810
  38.2043190 148.6717830  65.5433730  38.5346200 147.8038890  65.3112370
  38.6334190 148.8776350  66.3738690  42.8005110 147.0026840  63.2035700
  42.5000650 146.8791810  64.1039610  42.6942600 146.1435430  62.7951430
  38.6933400 149.5388420  68.2815360  38.2564390 149.7189220  69.1139510
  39.2611080 150.2963040  68.1397080  54.3295580 149.0405420  72.5692670
  53.7297570 149.0997980  71.8256590  54.4589480 148.1010400  72.6989520
  55.5697030 146.7823240  57.9062380  54.7389990 146.8499890  58.3769610
  55.7468860 147.6727360  57.6029240  55.0253490 143.5270720  60.4096580
  55.7872400 144.0967370  60.5156270  55.0407860 142.9597920  61.1804890
  38.5257830 142.0508650  64.6404240  37.8706670 141.7820290  63.9963940
  39.3635780 141.9413130  64.1906220  56.0313460 144.3820820  65.2538510
  56.4022290 143.5988140  64.8474480  56.6715390 145.0709920  65.0755810
  53.0147220 145.7657400  70.6668830  52.2007060 146.1954560  70.9294620
  53.4221420 146.3775810  70.0537880  55.0772660 143.8205090  57.5669100
  55.3521500 144.7283970  57.4388320  54.8883400 143.7567620  58.5031090
  51.4748270 136.8449940  58.8622730  51.8933150 136.6580920  58.0219390
  51.1684330 135.9928990  59.1725660  54.9738000 141.7574080  62.5598530
  54.5981600 140.9902010  62.1279820  54.2441120 142.1396780  63.0473460
  39.5633760 142.4361220  69.1807580  39.9306800 142.3488620  70.0603600
  38.9944580 141.6727770  69.0814440  54.3637620 140.9045600  72.1938050
  54.1323710 140.6758350  71.2936000  54.6242170 141.8245150  72.1482940
  39.1149760 139.3470310  73.0866000  38.2205810 139.3137070  73.4259710
  39.6547310 139.5457100  73.8517250  52.8025690 136.1302030  74.9717750
  53.6795870 136.1385430  75.3551750  52.8146530 135.3932870  74.3610100
  37.7395910 139.2607580  60.5829570  36.8359990 139.5237780  60.4081230
  38.2236530 139.5318750  59.8029530  54.2488960 139.9831570  65.8605770
  54.7726440 139.4894220  65.2295940  54.8348380 140.1181930  66.6053340
  54.4278680 140.0671440  69.3825320  53.4781390 140.0334980  69.4970310
  54.6091690 140.9771550  69.1475090  40.2823120 138.3173120  58.4923950
  40.9914820 137.8956340  58.0071230  39.5663060 138.3848350  57.8607300
  39.9297280 134.3712450  57.5326600  40.6525410 134.9121390  57.8507820
  40.2021800 134.0975870  56.6568140  53.7388930 139.2404920  61.7998180
  54.2348050 139.0075790  62.5847060  53.5405000 138.4016760  61.3835820
  39.6189470 133.6218640  67.4349220  40.2665660 133.0716020  66.9944380
  40.0391310 133.8761790  68.2565030  55.1676090 137.8765870  64.3335860
  55.0575370 137.7221910  65.2718130  55.9283680 137.3486810  64.0911270
  53.5141810 133.8160000  70.7918860  54.1514030 134.4294140  71.1578050
  53.6616700 133.8520660  69.8468090  56.0566360 135.7073790  57.5742000
  56.9815670 135.5754970  57.3660290  56.0342150 135.7866610  58.5278450
  56.1304850 136.4784450  60.1998710  55.3356350 136.4129570  60.7291620
  56.3348130 137.4135090  60.1884060  53.0723270 150.5176000  64.1937100
  53.6682340 150.1960570  63.5171520  53.3301420 150.0447820  64.9850370
  39.3721470 133.7774310  70.1774540  39.0236290 134.2338130  70.9432720
  39.0409170 132.8831440  70.2596970  40.9785840 146.9493910  74.3427730
  40.9355470 146.5786820  75.2242190  41.1096850 147.8871480  74.4829550
  44.6791870 148.5053500  69.9437450  44.4383230 148.7728060  69.0567970
  45.6194510 148.6759230  69.9988310  46.8846290 134.9686190  73.6993960
  46.8235180 135.5608020  74.4489370  47.8246670 134.8612150  73.5544220
  49.5220850 134.6256250  73.3386250  50.1361260 134.9435540  72.6767330
  50.0670410 134.1404840  73.9582110  55.9396030 150.5247880  70.7448090
  55.4454310 150.9216750  70.0275220  55.3309320 149.8997090  71.1385370
  40.0442110 133.3050510  73.4525310  40.5925100 133.1238560  72.6891420
  40.1097420 132.5144620  73.9881620  40.8173870 149.8956160  71.4625510
  40.2234190 149.7640860  72.2015550  40.8097710 149.0594300  70.9967610
  50.2628890 133.1888390  69.6655540  49.3888730 133.5223500  69.4628470
  50.1539640 132.7161570  70.4907410  51.1700870 135.3959260  71.0497260
  50.8414230 134.5811020  70.6698990  52.1183170 135.3529070  70.9262950
  40.4486100 147.2614540  70.4133550  39.7220160 146.6419830  70.3459500
  40.5095250 147.6555150  69.5431630  44.0531200 149.4759540  67.1982960
  44.5696220 148.8646900  66.6731220  44.7028580 149.9788320  67.6893970
  46.7926700 150.3668030  68.0251940  47.0804510 150.1122330  67.1484950
  47.3049920 149.8145390  68.6157510  48.0103710 134.1058230  68.6048450
  47.2275500 134.5803730  68.8845210  47.7166640 133.2013060  68.4961630
  52.5624780 134.8081330  66.6497540  53.0032870 134.7526430  65.8019140
  52.2932370 135.7239340  66.7207720  54.4263350 134.4396570  64.6606360
  54.3651750 133.4957790  64.5137380  55.2055380 134.5476660  65.2059820
  38.7316100 150.5788930  63.6230310  38.5638140 149.9459610  64.3212200
  37.8650610 150.7848330  63.2724500  39.3544120 134.4105710  61.1262170
  40.1123480 134.5234590  60.5526200  38.8921290 135.2474910  61.0805600
  45.8957930 136.5244980  64.1164480  45.0832440 136.1501870  63.7760360
  46.3999570 135.7690060  64.4185670  50.3982910 133.1887430  65.3547550
  51.0012280 133.7607640  65.8296070  49.6575900 133.7526870  65.1321450
  53.5417510 133.5908990  60.6287830  53.7368140 134.4892440  60.8955260
  52.7547380 133.3596070  61.1220780  40.3378800 149.2722160  61.0680450
  39.8126420 149.6530190  60.3642410  40.2623380 149.8972930  61.7890160
  41.7269270 134.9369760  59.6664140  42.2562030 134.1499560  59.5372090
  42.3597590 135.6160950  59.8999670  43.9207110 134.6744900  62.7209530
  43.2909850 133.9732210  62.8879660  43.3812250 135.4349030  62.5042690
  55.0944120 150.8309700  62.3894390  55.2696310 150.1447440  61.7455310
  54.3965690 151.3556750  61.9971060  44.0462670 133.9528880  75.1562020
  43.7646940 134.4562480  74.3922840  44.4282370 133.1550630  74.7904150
  42.9371770 151.2204540  59.9429700  43.6690590 150.9363820  59.3953590
  43.1965440 150.9817820  60.8329080  42.0986560 147.3369270  59.9476030
  41.4695440 147.8054370  60.4961860  42.2134390 146.4918490  60.3822220
  50.6478130 133.3682460  75.7342490  50.5343580 133.6877070  76.6294010
  51.4647870 133.7694970  75.4379770  53.4276620 150.5153990  75.2161180
  54.2201940 150.0203220  75.0087140  53.7209770 151.1944130  75.8236790
  49.5536280 141.3874930  46.0977230  49.4730330 140.4729540  45.8268940
  49.1400700 141.8842000  45.3916940  47.6854320 143.1653950  47.9786500
  46.9096420 142.6854390  48.2685070  48.3367250 142.4859600  47.8042660
  41.7020150 143.4773760  48.8562260  40.8705030 143.2222470  49.2558770
  42.3101130 143.5484530  49.5920180  51.7061750 147.5714140  46.7585630
  51.2443280 146.8001380  47.0872800  52.5187300 147.5980210  47.2638080
  41.6821410 147.5113850  49.0520280  41.9849450 146.6211590  48.8730500
  42.4265000 148.0684070  48.8242530  40.1112100 138.4375650  42.6404650
  39.2228800 138.7791620  42.5384530  40.3953290 138.2375970  41.7485480
  38.0745110 141.0381300  48.5244350  38.6461220 140.2703500  48.5247990
  38.0746650 141.3370060  47.6150960  47.9325060 149.8572150  46.3789620
  47.3136500 150.3129650  45.8084060  48.7876840 150.0123610  45.9779320
  47.1263310 145.8411140  47.9856660  47.0571590 144.9001080  47.8245790
  47.8883170 145.9312550  48.5579230  39.3169980 136.4465660  50.3113280
  39.1372820 135.5491410  50.5916040  38.9150060 136.9937530  50.9860230
  48.1568480 138.6481520  48.2125590  48.5333300 137.7753400  48.0999260
  48.0587990 138.9840220  47.3216030  42.2873490 137.0207150  43.6743030
  42.3940240 137.9210880  43.9811790  41.3765850 136.9725120  43.3837680
  51.9392600 136.1431960  45.1453930  52.7602220 135.6528530  45.1879410
  51.9726680 136.7329620  45.8985770  39.9356650 138.9426160  48.9195620
  40.6166760 139.2064530  49.5383020  39.6204700 138.1027030  49.2533630
  44.1281220 139.9893520  48.0068210  44.6359440 140.4874490  48.6473230
  44.6594460 139.2128720  47.8307570  56.2292150 138.1598710  51.7097560
  55.5244320 138.5480420  51.1912670  56.4950070 138.8549000  52.3118490
  42.4117320 134.6292080  52.2731630  42.4135760 135.1464470  51.4677530
  41.5821630 134.1522260  52.2501560  48.7988410 144.7411390  43.7721530
  48.1805680 145.2060840  43.2084250  49.3111660 145.4338870  44.1891040
  43.6620170 144.2687260  50.4505130  43.3289550 144.8956180  51.0926200
  43.8386850 144.7949140  49.6706800  52.1754080 138.0832340  47.9181470
  51.4709650 138.3717230  48.4984580  52.5366240 138.8932450  47.5581030
  42.0932650 136.3402040  50.2802080  42.4349460 137.1844090  49.9855950
  41.1548460 136.4885780  50.3967420  42.8739270 146.2368060  52.2654310
  43.4913270 146.9119140  51.9838760  42.0132390 146.6456040  52.1741810
  38.1671610 145.4267920  41.1461160  37.7899590 145.9155020  40.4146060
  38.4244680 146.0993200  41.7767690  53.7916860 147.7007470  50.1808950
  53.1080380 148.3706580  50.1725620  54.3311150 147.8988120  49.4153810
  55.2441000 137.5287130  48.3090680  54.2965910 137.5626110  48.4406110
  55.5690990 138.3426080  48.6940040  45.7760540 133.8284310  46.6046670
  46.0835520 133.2731200  45.8882170  44.8461240 133.9628770  46.4219660
  51.3275600 149.5451600  48.8954130  51.3402760 149.1413890  48.0276390
  50.7750820 150.3198890  48.7915560  52.6221020 146.2667820  43.9844300
  52.5117350 145.3242150  44.1093720  52.6189270 146.6283460  44.8707060
  50.7261040 144.4481440  50.2236740  51.1429830 144.2341550  49.3890200
  51.4500860 144.7054230  50.7945360  48.1641300 141.8933140  43.3406790
  47.2370580 141.8270520  43.5695260  48.3166120 142.8313270  43.2262030
  48.1510380 138.1650140  40.3373950  47.2114050 138.3264100  40.4226410
  48.4693640 138.8835820  39.7909940  54.6723140 142.8468660  50.3152980
  53.8441770 142.9161750  49.8403110  55.2673620 143.4322970  49.8468810
  52.1938590 143.4553440  43.8442040  51.5751010 143.1172990  43.1968340
  52.1763040 142.8113200  44.5521230  51.6365150 139.6337980  51.2607850
  51.2236330 140.4591690  51.5147840  50.9041100 139.0483020  51.0684210
  43.7697940 142.4197880  46.1226520  43.3654940 141.7075130  45.6272420
  43.8561060 142.0751120  47.0114560  44.2379640 146.1065440  48.2865730
  43.9407930 145.5010910  47.6073510  45.1879460 146.1442750  48.1755090
  42.4826560 139.1941090  49.9025560  43.0341150 139.3036430  49.1278810
  42.9970070 139.5678690  50.6180790  52.3265250 149.6797310  51.9488830
  51.8495810 150.4869500  51.7561440  51.6427040 149.0275640  52.1015040
  43.3298070 145.8447130  54.9373530  42.4326600 146.0687100  55.1846930
  43.3550940 145.9682070  53.9884930  50.3703290 142.6940250  40.8514790
  50.8096570 141.8562680  40.7052610  51.0831710 143.3269650  40.9378930
  42.1569290 142.7160450  53.5130900  42.0177060 143.5883250  53.8818300
  41.2750650 142.3733260  53.3678840  48.4798670 147.6336320  44.8196030
  48.9194580 148.3760650  44.4051420  48.4185560 147.8762890  45.7434990
  43.9549640 148.6582150  55.7216050  43.9265070 149.0625100  54.8544480
  43.7914610 147.7292510  55.5587650  53.9520430 133.9483060  39.1655830
  53.6393090 134.0409890  40.0654900  54.7132900 134.5264090  39.1153260
  40.4702570 141.3142860  43.6233170  40.3500170 142.0404950  43.0114440
  40.1603460 140.5445770  43.1461080  55.9064460 149.4409250  57.0180220
  56.3824180 149.9192140  57.6969300  56.5271620 149.3726740  56.2925720
  38.1087940 144.4858000  49.4301810  38.1868360 144.6206770  48.4857530
  38.7229620 143.7773890  49.6229930  39.3535570 146.1858190  45.8407990
  38.9463650 146.3272780  44.9861590  40.2448580 145.9018350  45.6379200
  55.3097710 146.6322100  54.1780230  55.4360770 146.3933980  53.2597410
  55.3519090 145.8006640  54.6502310  49.1714450 150.3350100  52.7475040
  49.6859120 150.2458110  53.5497470  48.3283530 150.6809800  53.0402950
  51.1468850 150.6205440  42.1759040  50.9869990 150.3308380  43.0740870
  50.9815560 149.8445570  41.6404270  43.6257230 150.4003970  43.9530660
  43.4499710 149.4839510  43.7398460  42.7712970 150.7591260  44.1928460
  50.8494980 148.1293000  40.7357040  50.1560140 148.1270290  40.0759320
  51.5917840 147.7052320  40.3051210  50.4144910 149.7555710  44.8105530
  50.8701860 148.9745090  45.1244150  50.7537430 150.4662530  45.3546710
  55.1621720 138.6854560  55.1429970  54.5465990 139.1934230  54.6145430
  54.8418140 137.7852890  55.0855910  38.1647460 145.5272170  51.9696270
  38.3278500 145.0577530  51.1515640  38.6299910 145.0195730  52.6345110
  42.9366230 134.6577930  47.0056840  42.4934380 135.4387470  46.6741360
  43.4951220 134.9807820  47.7127780  47.2236040 137.5246450  52.6092160
  46.7615410 137.7329470  53.4212100  46.8214150 136.7105800  52.3062830
  52.2240550 138.7455400  53.7388820  51.3734140 138.4461150  54.0597890
  52.0642340 138.9897410  52.8272640  49.3190260 140.2457150  55.8387610
  49.6443670 139.4120900  55.4989840  50.1070590 140.7685670  55.9865940
  46.0525050 134.2788630  41.8862670  45.4279230 134.2748500  42.6115980
  45.9655170 133.4119590  41.4898640  44.9742130 135.2025260  48.8646440
  45.2714460 136.1088090  48.7838460  45.5227690 134.7144040  48.2506010
  42.7280450 139.7811500  44.7338090  42.5021370 139.5648670  45.6384710
  41.9472980 140.2139960  44.3884060  49.9578210 139.7874870  43.3328740
  49.3587100 140.5110670  43.1492360  50.5057820 139.7251650  42.5505190
  45.1679660 140.6797080  55.3998360  45.0723260 139.7391810  55.2498760
  46.0111640 140.9012150  55.0046430  48.5643080 138.4238410  45.3632020
  48.9572650 138.7410610  44.5500710  48.9259930 137.5450290  45.4776540
  40.2990200 137.0910750  53.5532140  39.9053590 137.9385960  53.7604920
  39.6108600 136.4537120  53.7440780  46.8735250 137.1745720  56.6228880
  46.1833570 136.9817920  57.2574970  47.6167550 137.4580360  57.1553180
  37.6007250 135.0139210  47.5862220  37.3120300 135.5842070  48.2987200
  38.3453010 134.5343660  47.9493450  37.7877480 138.9559330  38.7964940
  37.7052150 139.8990090  38.9379930  37.4360540 138.8134240  37.9177290
  49.1498220 141.0144160  49.4582800  48.4179340 141.5230970  49.8072900
  48.7522560 140.1974140  49.1571580  45.5875610 137.6898360  47.8635290
  45.5911670 137.2488310  47.0139830  46.4826730 138.0115690  47.9707110
  41.4377990 137.5724850  46.8229500  41.0978040 138.0500080  47.5796550
  40.6755310 137.1189970  46.4630600  45.6495760 138.6910440  40.8542050
  45.7708580 138.6496920  41.8027870  45.2644270 139.5534590  40.6988780
  49.6124130 136.4677840  48.8705740  49.6296870 136.9186490  49.7147590
  49.3639710 135.5683480  49.0839180  44.6617260 141.0011580  40.2525350
  44.0934160 140.5529830  39.6261260  45.3706260 141.3604360  39.7190500
  53.0394880 133.8810020  54.7092120  53.3640650 133.1499680  55.2350100
  53.0751390 133.5623660  53.8073110  39.7386440 144.9023600  54.1292080
  39.3541230 144.2617270  54.7275040  40.0498630 145.6059720  54.6986810
  45.8883580 141.7500140  49.6100700  46.2553710 141.2758710  50.3562040
  45.6988640 142.6241710  49.9509040  38.7524070 136.4943830  45.7394170
  38.4670990 136.1299500  46.5772790  38.6902930 135.7624290  45.1257310
  43.6782950 140.7908780  51.9284910  43.3740020 141.6700760  52.1535270
  44.6329410 140.8508570  51.9642350  42.2064740 144.9969770  42.5251760
  41.4327000 144.4567390  42.3650480  42.9359370 144.4776380  42.1869520
  52.9652720 143.9935130  48.3178150  53.6851840 144.4890420  47.9274260
  52.7634540 143.3153020  47.6732020  48.4262660 135.3873090  42.4607540
  47.6127270 134.8886260  42.3852850  48.2324610 136.2271340  42.0443890
  48.3471520 144.0644190  54.2047150  48.2808830 143.1439860  53.9504740
  47.7176660 144.1619630  54.9191790  51.1411050 139.7592740  40.7569700
  52.0290670 140.0709970  40.5821040  51.1116140 138.8864990  40.3650280
  42.2502140 144.6650150  46.1630570  42.7680810 143.8618410  46.1087460
  41.7986160 144.6029290  47.0047400  47.1371640 145.9316430  41.4357870
  47.4787340 146.6758660  40.9401190  46.3084350 146.2447550  41.7982700
  39.7346680 141.6311520  53.0756270  39.3761620 142.2965370  53.6629610
  39.4401240 140.7995070  53.4468890  42.9359800 142.0895760  55.9595820
  42.6359940 142.2352940  55.0623640  43.7071040 141.5301050  55.8669210
  48.2788250 146.8864760  53.9550950  48.2932790 145.9545720  53.7369860
  47.5713350 146.9724520  54.5940720  53.4125320 141.0704580  40.2249560
  53.3289040 141.5018800  39.3746000  54.1319510 141.5302930  40.6576380
  54.4899460 143.5272100  53.3019530  53.7647650 144.1200880  53.1048920
  55.0174920 143.5195640  52.5032900  54.4412570 147.9246840  42.9531690
  53.7988730 147.2702460  43.2275410  54.0543230 148.3301930  42.1772360
  50.0199050 145.2532270  46.8003380  50.3722870 144.6560400  46.1404750
  49.1361380 144.9276500  46.9711630  46.1062330 146.0129960  44.2073790
  46.7933460 146.5599170  44.5881380  45.3194750 146.5570690  44.2423400
  38.2454730 141.6302780  39.6990870  39.1149580 141.9127580  39.9826790
  37.7545050 142.4438650  39.5839680  45.4089540 143.0175990  43.8199150
  45.8652320 143.8281240  44.0459340  45.0577750 142.6999130  44.6517640
  47.7122150 148.5282330  51.0491450  48.3564370 148.7341710  51.7264870
  48.0751590 147.7670730  50.5962300  41.3101320 133.3613640  44.2921670
  41.1815950 133.3531540  45.2406590  40.4863340 133.6996730  43.9412680
  48.9854230 146.5314680  49.7668900  49.6276460 145.8307840  49.8801070
  49.5103580 147.3113120  49.5865790  52.8309950 146.8163300  39.4908040
  52.6047530 146.0993740  40.0832680  52.4406150 146.5675740  38.6529790
  50.7591850 147.3309580  52.9704960  51.0948090 147.9176270  53.6482880
  49.8392190 147.2002290  53.2002750  38.6125980 150.8430160  40.2652500
  38.9723620 151.4419500  39.6109770  38.4718320 151.3890050  41.0387530
  38.3095250 135.1204760  53.7528370  37.5953770 135.3201680  54.3580980
  38.7290290 134.3444330  54.1243170  52.4126200 144.7335240  41.1522200
  52.1247900 145.1947930  41.9400080  53.2078370 144.2733010  41.4206420
  38.5967840 149.1085020  54.7394900  38.7058960 148.1679760  54.5990290
  37.9448400 149.3739770  54.0908630  46.5880430 147.3800910  56.1393020
  46.2677300 146.6610150  56.6838710  45.9138790 148.0555980  56.2129080
  44.6294600 148.2261360  41.0826170  44.6204700 148.9591050  40.4670680
  43.7092960 147.9792940  41.1753130  40.2301240 143.4476250  41.8272930
  39.6229190 144.1875150  41.8368230  40.7050590 143.5375610  41.0011130
  49.8034030 137.6127070  51.5029820  50.1714850 136.7922280  51.8309390
  48.9432230 137.6728960  51.9185470  53.1696060 136.5684010  42.3117380
  52.5409220 136.6729680  41.5975610  52.6747980 136.7880790  43.1011260
  47.6154200 148.2889600  39.7451360  47.7166180 148.0853590  38.8153340
  46.7155940 148.0347880  39.9499140  45.1380090 138.8469960  43.7275260
  44.4296240 139.3156300  44.1688870  45.4224570 138.1891970  44.3620450
  46.7636020 140.2666660  51.7267790  47.2621270 140.7412480  52.3919640
  46.9058970 139.3430180  51.9337820  49.1695520 135.5720620  45.1671050
  49.0463300 135.5906750  44.2180560  50.1180080 135.6199560  45.2869450
  46.2572310 150.8075920  44.4399030  46.5113810 150.7697310  43.5178400
  45.3084790 150.6809250  44.4327280  43.3415110 137.1555040  41.1025970
  44.1905640 137.5925190  41.0366160  42.9746380 137.4675300  41.9298030
  53.9702880 136.4834620  52.5696180  53.4676480 137.2240020  52.9089990
  54.7859540 136.8718620  52.2532970  52.2624890 141.7267800  46.0157540
  51.3215030 141.7418030  46.1905230  52.5768960 140.9403760  46.4617840
  42.2406530 143.4087400  39.5761500  43.0069800 143.2968760  40.1386930
  42.3181220 142.7125370  38.9238270  40.9353290 140.8412470  40.2594390
  41.0156880 139.8939980  40.3711790  41.8273040 141.1719350  40.3655050
  54.2650470 148.8976650  47.6911800  54.3897890 149.7207820  48.1635610
  55.1316030 148.6867380  47.3435950  38.6213480 147.0581430  43.2370440
  37.6953260 147.3002570  43.2275850  39.0869910 147.8855690  43.1155190
  40.7426280 150.1753930  56.5514510  41.5439010 150.4965980  56.9649910
  40.2278100 149.8149510  57.2734420  44.8470310 150.1638170  39.1854500
  45.6398920 150.4527000  38.7336290  44.3274660 149.7330340  38.5066980
  49.5790910 146.2833800  56.4989920  48.9729070 146.3065400  55.7585670
  49.2745020 145.5516840  57.0357170  51.0091280 150.0114090  55.1099330
  51.9613030 149.9272110  55.0599570  50.8619500 150.6755800  55.7833120
  53.9000480 149.3908300  40.6091240  53.6141990 148.9773440  39.7945420
  53.7020030 150.3196010  40.4891760  38.4624090 142.6627390  55.4950560
  38.9663110 142.0834670  56.0666790  37.7231510 142.9467620  56.0326930
  45.3647710 145.3841580  39.0496850  45.2598350 144.7693930  39.7758230
  45.1971930 144.8607470  38.2659860  45.5162030 144.0698380  55.0286080
  44.7507700 144.6383380  54.9440750  45.6977990 143.7774590  54.1354310
  48.6050440 144.4461610  39.6538840  48.0560540 144.8930910  40.2981580
  49.2269700 143.9410860  40.1776510  52.6585380 145.8003710  55.5861100
  53.3994850 146.1379470  55.0828560  51.8958060 145.9695770  55.0330870
  40.4947170 140.8056980  56.3900630  40.5352510 140.5070850  57.2985860
  41.3492670 141.2064590  56.2308150  44.2725560 143.4052530  41.5504140
  44.6941980 143.2392400  42.3935530  44.3976400 142.5952760  41.0559280
  42.4352980 139.3849080  54.3575120  41.9049440 138.8940030  53.7298460
  43.1041050 139.8133280  53.8233050  46.7853200 142.4290140  38.7981240
  47.3058860 141.7139160  38.4322390  47.4321600 143.0676010  39.0981750
  51.3331040 143.8518540  54.1216310  51.7472060 144.0063620  54.9706730
  50.3982040 143.9773760  54.2842090  51.8053210 141.1914700  56.1255460
  52.3873980 140.4367020  56.0375940  51.9814980 141.7222140  55.3486940
  42.9225280 136.3511450  54.4372410  42.8282150 135.7332200  53.7123280
  42.3422670 137.0777740  54.2102320  45.6886720 134.9084690  51.4699800
  45.2404020 134.9308950  50.6245350  45.0551920 134.5103710  52.0670100
  46.0946270 143.8039020  52.0912240  46.5134380 144.6471750  51.9188480
  45.1754900 143.9411060  51.8619020  48.4310170 141.5355200  53.4750080
  48.5506380 140.9396340  54.2144920  49.2904170 141.5724890  53.0551380
  50.7698070 142.0892390  52.0512590  50.2433290 142.6135010  51.4477730
  51.1129410 142.7219780  52.6822320  43.1684460 139.4785760  38.4962300
  42.9673520 138.6153120  38.8575640  42.9976510 139.3919120  37.5583900
  43.9453690 150.1092030  53.2069970  43.4074780 150.8338090  52.8878670
  44.1987650 149.6322370  52.4167310  45.1978940 138.0776550  54.7325900
  45.7878630 137.7692400  55.4203720  44.3799180 137.6056300  54.8885800
  50.0172370 137.6942360  54.9658920  49.3287890 137.0323900  54.9008910
  50.7378390 137.2480630  55.4107380  50.6472770 134.2893990  41.0249180
  50.9275060 133.4461890  41.3808600  49.8738500 134.5217100  41.5387930
  41.9667260 136.5786380  38.4840180  42.2693160 136.5853810  37.5759330
  42.7061850 136.2284240  38.9807840  45.1852190 135.5221000  39.4696380
  44.8374190 134.8444990  38.8898830  45.3864960 135.0610510  40.2839770
  47.3501230 150.5101750  41.0882980  48.2452020 150.8486720  41.1101740
  47.3818860 149.7881160  40.4607260  40.9897390 145.8828800  39.3169980
  41.4272260 146.4258470  39.9727560  41.4745120 145.0575750  39.3266320
  38.2043190 148.6717830  46.7690240  38.5346200 147.8038890  46.5368880
  38.6334190 148.8776350  47.5995200  42.8005110 147.0026840  44.4292210
  42.5000650 146.8791810  45.3296120  42.6942600 146.1435430  44.0207940
  38.6933400 149.5388420  49.5071870  38.2564390 149.7189220  50.3396020
  39.2611080 150.2963040  49.3653590  54.3295580 149.0405420  53.7949180
  53.7297570 149.0997980  53.0513100  54.4589480 148.1010400  53.9246030
  55.5697030 146.7823240  39.1318890  54.7389990 146.8499890  39.6026120
  55.7468860 147.6727360  38.8285750  55.0253490 143.5270720  41.6353090
  55.7872400 144.0967370  41.7412780  55.0407860 142.9597920  42.4061400
  38.5257830 142.0508650  45.8660750  37.8706670 141.7820290  45.2220450
  39.3635780 141.9413130  45.4162730  56.0313460 144.3820820  46.4795020
  56.4022290 143.5988140  46.0730990  56.6715390 145.0709920  46.3012320
  53.0147220 145.7657400  51.8925340  52.2007060 146.1954560  52.1551130
  53.4221420 146.3775810  51.2794390  55.0772660 143.8205090  38.7925610
  55.3521500 144.7283970  38.6644830  54.8883400 143.7567620  39.7287600
  51.4748270 136.8449940  40.0879240  51.8933150 136.6580920  39.2475900
  51.1684330 135.9928990  40.3982170  54.9738000 141.7574080  43.7855040
  54.5981600 140.9902010  43.3536330  54.2441120 142.1396780  44.2729970
  39.5633760 142.4361220  50.4064090  39.9306800 142.3488620  51.2860110
  38.9944580 141.6727770  50.3070950  54.3637620 140.9045600  53.4194560
  54.1323710 140.6758350  52.5192510  54.6242170 141.8245150  53.3739450
  39.1149760 139.3470310  54.3122510  38.2205810 139.3137070  54.6516220
  39.6547310 139.5457100  55.0773760  52.8025690 136.1302030  56.1974260
  53.6795870 136.1385430  56.5808260  52.8146530 135.3932870  55.5866610
  37.7395910 139.2607580  41.8086080  36.8359990 139.5237780  41.6337740
  38.2236530 139.5318750  41.0286040  54.2488960 139.9831570  47.0862280
  54.7726440 139.4894220  46.4552450  54.8348380 140.1181930  47.8309850
  54.4278680 140.0671440  50.6081830  53.4781390 140.0334980  50.7226820
  54.6091690 140.9771550  50.3731600  40.2823120 138.3173120  39.7180460
  40.9914820 137.8956340  39.2327740  39.5663060 138.3848350  39.0863810
  39.9297280 134.3712450  38.7583110  40.6525410 134.9121390  39.0764330
  40.2021800 134.0975870  37.8824650  53.7388930 139.2404920  43.0254690
  54.2348050 139.0075790  43.8103570  53.5405000 138.4016760  42.6092330
  39.6189470 133.6218640  48.6605730  40.2665660 133.0716020  48.2200890
  40.0391310 133.8761790  49.4821540  55.1676090 137.8765870  45.5592370
  55.0575370 137.7221910  46.4974640  55.9283680 137.3486810  45.3167780
  53.5141810 133.8160000  52.0175370  54.1514030 134.4294140  52.3834560
  53.6616700 133.8520660  51.0724600  56.0566360 135.7073790  38.7998510
  56.9815670 135.5754970  38.5916800  56.0342150 135.7866610  39.7534960
  56.1304850 136.4784450  41.4255220  55.3356350 136.4129570  41.9548130
  56.3348130 137.4135090  41.4140570  53.0723270 150.5176000  45.4193610
  53.6682340 150.1960570  44.7428030  53.3301420 150.0447820  46.2106880
  39.3721470 133.7774310  51.4031050  39.0236290 134.2338130  52.1689230
  39.0409170 132.8831440  51.4853480  40.9785840 146.9493910  55.5684240
  40.9355470 146.5786820  56.4498700  41.1096850 147.8871480  55.7086060
  44.6791870 148.5053500  51.1693960  44.4383230 148.7728060  50.2824480
  45.6194510 148.6759230  51.2244820  46.8846290 134.9686190  54.9250470
  46.8235180 135.5608020  55.6745880  47.8246670 134.8612150  54.7800730
  49.5220850 134.6256250  54.5642760  50.1361260 134.9435540  53.9023840
  50.0670410 134.1404840  55.1838620  55.9396030 150.5247880  51.9704600
  55.4454310 150.9216750  51.2531730  55.3309320 149.8997090  52.3641880
  40.0442110 133.3050510  54.6781820  40.5925100 133.1238560  53.9147930
  40.1097420 132.5144620  55.2138130  40.8173870 149.8956160  52.6882020
  40.2234190 149.7640860  53.4272060  40.8097710 149.0594300  52.2224120
  50.2628890 133.1888390  50.8912050  49.3888730 133.5223500  50.6884980
  50.1539640 132.7161570  51.7163920  51.1700870 135.3959260  52.2753770
  50.8414230 134.5811020  51.8955500  52.1183170 135.3529070  52.1519460
  40.4486100 147.2614540  51.6390060  39.7220160 146.6419830  51.5716010
  40.5095250 147.6555150  50.7688140  44.0531200 149.4759540  48.4239470
  44.5696220 148.8646900  47.8987730  44.7028580 149.9788320  48.9150480
  46.7926700 150.3668030  49.2508450  47.0804510 150.1122330  48.3741460
  47.3049920 149.8145390  49.8414020  48.0103710 134.1058230  49.8304960
  47.2275500 134.5803730  50.1101720  47.7166640 133.2013060  49.7218140
  52.5624780 134.8081330  47.8754050  53.0032870 134.7526430  47.0275650
  52.2932370 135.7239340  47.9464230  54.4263350 134.4396570  45.8862870
  54.3651750 133.4957790  45.7393890  55.2055380 134.5476660  46.4316330
  38.7316100 150.5788930  44.8486820  38.5638140 149.9459610  45.5468710
  37.8650610 150.7848330  44.4981010  39.3544120 134.4105710  42.3518680
  40.1123480 134.5234590  41.7782710  38.8921290 135.2474910  42.3062110
  45.8957930 136.5244980  45.3420990  45.0832440 136.1501870  45.0016870
  46.3999570 135.7690060  45.6442180  50.3982910 133.1887430  46.5804060
  51.0012280 133.7607640  47.0552580  49.6575900 133.7526870  46.3577960
  53.5417510 133.5908990  41.8544340  53.7368140 134.4892440  42.1211770
  52.7547380 133.3596070  42.3477290  40.3378800 149.2722160  42.2936960
  39.8126420 149.6530190  41.5898920  40.2623380 149.8972930  43.0146670
  41.7269270 134.9369760  40.8920650  42.2562030 134.1499560  40.7628600
  42.3597590 135.6160950  41.1256180  43.9207110 134.6744900  43.9466040
  43.2909850 133.9732210  44.1136170  43.3812250 135.4349030  43.7299200
  55.0944120 150.8309700  43.6150900  55.2696310 150.1447440  42.9711820
  54.3965690 151.3556750  43.2227570  44.0462670 133.9528880  56.3818530
  43.7646940 134.4562480  55.6179350  44.4282370 133.1550630  56.0160660
  42.9371770 151.2204540  41.1686210  43.6690590 150.9363820  40.6210100
  43.1965440 150.9817820  42.0585590  42.0986560 147.3369270  41.1732540
  41.4695440 147.8054370  41.7218370  42.2134390 146.4918490  41.6078730
  50.6478130 133.3682460  56.9599000  50.5343580 133.6877070  57.8550520
  51.4647870 133.7694970  56.6636280  53.4276620 150.5153990  56.4417690
  54.2201940 150.0203220  56.2343650  53.7209770 151.1944130  57.0493300
  49.5536280 141.3874930  27.3233740  49.4730330 140.4729540  27.0525450
  49.1400700 141.8842000  26.6173450  47.6854320 143.1653950  29.2043010
  46.9096420 142.6854390  29.4941580  48.3367250 142.4859600  29.0299170
  41.7020150 143.4773760  30.0818770  40.8705030 143.2222470  30.4815280
  42.3101130 143.5484530  30.8176690  51.7061750 147.5714140  27.9842140
  51.2443280 146.8001380  28.3129310  52.5187300 147.5980210  28.4894590
  41.6821410 147.5113850  30.2776790  41.9849450 146.6211590  30.0987010
  42.4265000 148.0684070  30.0499040  40.1112100 138.4375650  23.8661160
  39.2228800 138.7791620  23.7641040  40.3953290 138.2375970  22.9741990
  38.0745110 141.0381300  29.7500860  38.6461220 140.2703500  29.7504500
  38.0746650 141.3370060  28.8407470  47.9325060 149.8572150  27.6046130
  47.3136500 150.3129650  27.0340570  48.7876840 150.0123610  27.2035830
  47.1263310 145.8411140  29.2113170  47.0571590 144.9001080  29.0502300
  47.8883170 145.9312550  29.7835740  39.3169980 136.4465660  31.5369790
  39.1372820 135.5491410  31.8172550  38.9150060 136.9937530  32.2116740
  48.1568480 138.6481520  29.4382100  48.5333300 137.7753400  29.3255770
  48.0587990 138.9840220  28.5472540  42.2873490 137.0207150  24.8999540
  42.3940240 137.9210880  25.2068300  41.3765850 136.9725120  24.6094190
  51.9392600 136.1431960  26.3710440  52.7602220 135.6528530  26.4135920
  51.9726680 136.7329620  27.1242280  39.9356650 138.9426160  30.1452130
  40.6166760 139.2064530  30.7639530  39.6204700 138.1027030  30.4790140
  44.1281220 139.9893520  29.2324720  44.6359440 140.4874490  29.8729740
  44.6594460 139.2128720  29.0564080  56.2292150 138.1598710  32.9354070
  55.5244320 138.5480420  32.4169180  56.4950070 138.8549000  33.5375000
  42.4117320 134.6292080  33.4988140  42.4135760 135.1464470  32.6934040
  41.5821630 134.1522260  33.4758070  48.7988410 144.7411390  24.9978040
  48.1805680 145.2060840  24.4340760  49.3111660 145.4338870  25.4147550
  43.6620170 144.2687260  31.6761640  43.3289550 144.8956180  32.3182710
  43.8386850 144.7949140  30.8963310  52.1754080 138.0832340  29.1437980
  51.4709650 138.3717230  29.7241090  52.5366240 138.8932450  28.7837540
  42.0932650 136.3402040  31.5058590  42.4349460 137.1844090  31.2112460
  41.1548460 136.4885780  31.6223930  42.8739270 146.2368060  33.4910820
  43.4913270 146.9119140  33.2095270  42.0132390 146.6456040  33.3998320
  38.1671610 145.4267920  22.3717670  37.7899590 145.9155020  21.6402570
  38.4244680 146.0993200  23.0024200  53.7916860 147.7007470  31.4065460
  53.1080380 148.3706580  31.3982130  54.3311150 147.8988120  30.6410320
  55.2441000 137.5287130  29.5347190  54.2965910 137.5626110  29.6662620
  55.5690990 138.3426080  29.9196550  45.7760540 133.8284310  27.8303180
  46.0835520 133.2731200  27.1138680  44.8461240 133.9628770  27.6476170
  51.3275600 149.5451600  30.1210640  51.3402760 149.1413890  29.2532900
  50.7750820 150.3198890  30.0172070  52.6221020 146.2667820  25.2100810
  52.5117350 145.3242150  25.3350230  52.6189270 146.6283460  26.0963570
  50.7261040 144.4481440  31.4493250  51.1429830 144.2341550  30.6146710
  51.4500860 144.7054230  32.0201870  48.1641300 141.8933140  24.5663300
  47.2370580 141.8270520  24.7951770  48.3166120 142.8313270  24.4518540
  48.1510380 138.1650140  21.5630460  47.2114050 138.3264100  21.6482920
  48.4693640 138.8835820  21.0166450  54.6723140 142.8468660  31.5409490
  53.8441770 142.9161750  31.0659620  55.2673620 143.4322970  31.0725320
  52.1938590 143.4553440  25.0698550  51.5751010 143.1172990  24.4224850
  52.1763040 142.8113200  25.7777740  51.6365150 139.6337980  32.4864360
  51.2236330 140.4591690  32.7404350  50.9041100 139.0483020  32.2940720
  43.7697940 142.4197880  27.3483030  43.3654940 141.7075130  26.8528930
  43.8561060 142.0751120  28.2371070  44.2379640 146.1065440  29.5122240
  43.9407930 145.5010910  28.8330020  45.1879460 146.1442750  29.4011600
  42.4826560 139.1941090  31.1282070  43.0341150 139.3036430  30.3535320
  42.9970070 139.5678690  31.8437300  52.3265250 149.6797310  33.1745340
  51.8495810 150.4869500  32.9817950  51.6427040 149.0275640  33.3271550
  43.3298070 145.8447130  36.1630040  42.4326600 146.0687100  36.4103440
  43.3550940 145.9682070  35.2141440  50.3703290 142.6940250  22.0771300
  50.8096570 141.8562680  21.9309120  51.0831710 143.3269650  22.1635440
  42.1569290 142.7160450  34.7387410  42.0177060 143.5883250  35.1074810
  41.2750650 142.3733260  34.5935350  48.4798670 147.6336320  26.0452540
  48.9194580 148.3760650  25.6307930  48.4185560 147.8762890  26.9691500
  43.9549640 148.6582150  36.9472560  43.9265070 149.0625100  36.0800990
  43.7914610 147.7292510  36.7844160  53.9520430 133.9483060  20.3912340
  53.6393090 134.0409890  21.2911410  54.7132900 134.5264090  20.3409770
  40.4702570 141.3142860  24.8489680  40.3500170 142.0404950  24.2370950
  40.1603460 140.5445770  24.3717590  55.9064460 149.4409250  38.2436730
  56.3824180 149.9192140  38.9225810  56.5271620 149.3726740  37.5182230
  38.1087940 144.4858000  30.6558320  38.1868360 144.6206770  29.7114040
  38.7229620 143.7773890  30.8486440  39.3535570 146.1858190  27.0664500
  38.9463650 146.3272780  26.2118100  40.2448580 145.9018350  26.8635710
  55.3097710 146.6322100  35.4036740  55.4360770 146.3933980  34.4853920
  55.3519090 145.8006640  35.8758820  49.1714450 150.3350100  33.9731550
  49.6859120 150.2458110  34.7753980  48.3283530 150.6809800  34.2659460
  51.1468850 150.6205440  23.4015550  50.9869990 150.3308380  24.2997380
  50.9815560 149.8445570  22.8660780  43.6257230 150.4003970  25.1787170
  43.4499710 149.4839510  24.9654970  42.7712970 150.7591260  25.4184970
  50.8494980 148.1293000  21.9613550  50.1560140 148.1270290  21.3015830
  51.5917840 147.7052320  21.5307720  50.4144910 149.7555710  26.0362040
  50.8701860 148.9745090  26.3500660  50.7537430 150.4662530  26.5803220
  55.1621720 138.6854560  36.3686480  54.5465990 139.1934230  35.8401940
  54.8418140 137.7852890  36.3112420  38.1647460 145.5272170  33.1952780
  38.3278500 145.0577530  32.3772150  38.6299910 145.0195730  33.8601620
  42.9366230 134.6577930  28.2313350  42.4934380 135.4387470  27.8997870
  43.4951220 134.9807820  28.9384290  47.2236040 137.5246450  33.8348670
  46.7615410 137.7329470  34.6468610  46.8214150 136.7105800  33.5319340
  52.2240550 138.7455400  34.9645330  51.3734140 138.4461150  35.2854400
  52.0642340 138.9897410  34.0529150  49.3190260 140.2457150  37.0644120
  49.6443670 139.4120900  36.7246350  50.1070590 140.7685670  37.2122450
  46.0525050 134.2788630  23.1119180  45.4279230 134.2748500  23.8372490
  45.9655170 133.4119590  22.7155150  44.9742130 135.2025260  30.0902950
  45.2714460 136.1088090  30.0094970  45.5227690 134.7144040  29.4762520
  42.7280450 139.7811500  25.9594600  42.5021370 139.5648670  26.8641220
  41.9472980 140.2139960  25.6140570  49.9578210 139.7874870  24.5585250
  49.3587100 140.5110670  24.3748870  50.5057820 139.7251650  23.7761700
  45.1679660 140.6797080  36.6254870  45.0723260 139.7391810  36.4755270
  46.0111640 140.9012150  36.2302940  48.5643080 138.4238410  26.5888530
  48.9572650 138.7410610  25.7757220  48.9259930 137.5450290  26.7033050
  40.2990200 137.0910750  34.7788650  39.9053590 137.9385960  34.9861430
  39.6108600 136.4537120  34.9697290  46.8735250 137.1745720  37.8485390
  46.1833570 136.9817920  38.4831480  47.6167550 137.4580360  38.3809690
  37.6007250 135.0139210  28.8118730  37.3120300 135.5842070  29.5243710
  38.3453010 134.5343660  29.1749960  37.7877480 138.9559330  20.0221450
  37.7052150 139.8990090  20.1636440  37.4360540 138.8134240  19.1433800
  49.1498220 141.0144160  30.6839310  48.4179340 141.5230970  31.0329410
  48.7522560 140.1974140  30.3828090  45.5875610 137.6898360  29.0891800
  45.5911670 137.2488310  28.2396340  46.4826730 138.0115690  29.1963620
  41.4377990 137.5724850  28.0486010  41.0978040 138.0500080  28.8053060
  40.6755310 137.1189970  27.6887110  45.6495760 138.6910440  22.0798560
  45.7708580 138.6496920  23.0284380  45.2644270 139.5534590  21.9245290
  49.6124130 136.4677840  30.0962250  49.6296870 136.9186490  30.9404100
  49.3639710 135.5683480  30.3095690  44.6617260 141.0011580  21.4781860
  44.0934160 140.5529830  20.8517770  45.3706260 141.3604360  20.9447010
  53.0394880 133.8810020  35.9348630  53.3640650 133.1499680  36.4606610
  53.0751390 133.5623660  35.0329620  39.7386440 144.9023600  35.3548590
  39.3541230 144.2617270  35.9531550  40.0498630 145.6059720  35.9243320
  45.8883580 141.7500140  30.8357210  46.2553710 141.2758710  31.5818550
  45.6988640 142.6241710  31.1765550  38.7524070 136.4943830  26.9650680
  38.4670990 136.1299500  27.8029300  38.6902930 135.7624290  26.3513820
  43.6782950 140.7908780  33.1541420  43.3740020 141.6700760  33.3791780
  44.6329410 140.8508570  33.1898860  42.2064740 144.9969770  23.7508270
  41.4327000 144.4567390  23.5906990  42.9359370 144.4776380  23.4126030
  52.9652720 143.9935130  29.5434660  53.6851840 144.4890420  29.1530770
  52.7634540 143.3153020  28.8988530  48.4262660 135.3873090  23.6864050
  47.6127270 134.8886260  23.6109360  48.2324610 136.2271340  23.2700400
  48.3471520 144.0644190  35.4303660  48.2808830 143.1439860  35.1761250
  47.7176660 144.1619630  36.1448300  51.1411050 139.7592740  21.9826210
  52.0290670 140.0709970  21.8077550  51.1116140 138.8864990  21.5906790
  42.2502140 144.6650150  27.3887080  42.7680810 143.8618410  27.3343970
  41.7986160 144.6029290  28.2303910  47.1371640 145.9316430  22.6614380
  47.4787340 146.6758660  22.1657700  46.3084350 146.2447550  23.0239210
  39.7346680 141.6311520  34.3012780  39.3761620 142.2965370  34.8886120
  39.4401240 140.7995070  34.6725400  42.9359800 142.0895760  37.1852330
  42.6359940 142.2352940  36.2880150  43.7071040 141.5301050  37.0925720
  48.2788250 146.8864760  35.1807460  48.2932790 145.9545720  34.9626370
  47.5713350 146.9724520  35.8197230  53.4125320 141.0704580  21.4506070
  53.3289040 141.5018800  20.6002510  54.1319510 141.5302930  21.8832890
  54.4899460 143.5272100  34.5276040  53.7647650 144.1200880  34.3305430
  55.0174920 143.5195640  33.7289410  54.4412570 147.9246840  24.1788200
  53.7988730 147.2702460  24.4531920  54.0543230 148.3301930  23.4028870
  50.0199050 145.2532270  28.0259890  50.3722870 144.6560400  27.3661260
  49.1361380 144.9276500  28.1968140  46.1062330 146.0129960  25.4330300
  46.7933460 146.5599170  25.8137890  45.3194750 146.5570690  25.4679910
  38.2454730 141.6302780  20.9247380  39.1149580 141.9127580  21.2083300
  37.7545050 142.4438650  20.8096190  45.4089540 143.0175990  25.0455660
  45.8652320 143.8281240  25.2715850  45.0577750 142.6999130  25.8774150
  47.7122150 148.5282330  32.2747960  48.3564370 148.7341710  32.9521380
  48.0751590 147.7670730  31.8218810  41.3101320 133.3613640  25.5178180
  41.1815950 133.3531540  26.4663100  40.4863340 133.6996730  25.1669190
  48.9854230 146.5314680  30.9925410  49.6276460 145.8307840  31.1057580
  49.5103580 147.3113120  30.8122300  52.8309950 146.8163300  20.7164550
  52.6047530 146.0993740  21.3089190  52.4406150 146.5675740  19.8786300
  50.7591850 147.3309580  34.1961470  51.0948090 147.9176270  34.8739390
  49.8392190 147.2002290  34.4259260  38.6125980 150.8430160  21.4909010
  38.9723620 151.4419500  20.8366280  38.4718320 151.3890050  22.2644040
  38.3095250 135.1204760  34.9784880  37.5953770 135.3201680  35.5837490
  38.7290290 134.3444330  35.3499680  52.4126200 144.7335240  22.3778710
  52.1247900 145.1947930  23.1656590  53.2078370 144.2733010  22.6462930
  38.5967840 149.1085020  35.9651410  38.7058960 148.1679760  35.8246800
  37.9448400 149.3739770  35.3165140  46.5880430 147.3800910  37.3649530
  46.2677300 146.6610150  37.9095220  45.9138790 148.0555980  37.4385590
  44.6294600 148.2261360  22.3082680  44.6204700 148.9591050  21.6927190
  43.7092960 147.9792940  22.4009640  40.2301240 143.4476250  23.0529440
  39.6229190 144.1875150  23.0624740  40.7050590 143.5375610  22.2267640
  49.8034030 137.6127070  32.7286330  50.1714850 136.7922280  33.0565900
  48.9432230 137.6728960  33.1441980  53.1696060 136.5684010  23.5373890
  52.5409220 136.6729680  22.8232120  52.6747980 136.7880790  24.3267770
  47.6154200 148.2889600  20.9707870  47.7166180 148.0853590  20.0409850
  46.7155940 148.0347880  21.1755650  45.1380090 138.8469960  24.9531770
  44.4296240 139.3156300  25.3945380  45.4224570 138.1891970  25.5876960
  46.7636020 140.2666660  32.9524300  47.2621270 140.7412480  33.6176150
  46.9058970 139.3430180  33.1594330  49.1695520 135.5720620  26.3927560
  49.0463300 135.5906750  25.4437070  50.1180080 135.6199560  26.5125960
  46.2572310 150.8075920  25.6655540  46.5113810 150.7697310  24.7434910
  45.3084790 150.6809250  25.6583790  43.3415110 137.1555040  22.3282480
  44.1905640 137.5925190  22.2622670  42.9746380 137.4675300  23.1554540
  53.9702880 136.4834620  33.7952690  53.4676480 137.2240020  34.1346500
  54.7859540 136.8718620  33.4789480  52.2624890 141.7267800  27.2414050
  51.3215030 141.7418030  27.4161740  52.5768960 140.9403760  27.6874350
  42.2406530 143.4087400  20.8018010  43.0069800 143.2968760  21.3643440
  42.3181220 142.7125370  20.1494780  40.9353290 140.8412470  21.4850900
  41.0156880 139.8939980  21.5968300  41.8273040 141.1719350  21.5911560
  54.2650470 148.8976650  28.9168310  54.3897890 149.7207820  29.3892120
  55.1316030 148.6867380  28.5692460  38.6213480 147.0581430  24.4626950
  37.6953260 147.3002570  24.4532360  39.0869910 147.8855690  24.3411700
  40.7426280 150.1753930  37.7771020  41.5439010 150.4965980  38.1906420
  40.2278100 149.8149510  38.4990930  44.8470310 150.1638170  20.4111010
  45.6398920 150.4527000  19.9592800  44.3274660 149.7330340  19.7323490
  49.5790910 146.2833800  37.7246430  48.9729070 146.3065400  36.9842180
  49.2745020 145.5516840  38.2613680  51.0091280 150.0114090  36.3355840
  51.9613030 149.9272110  36.2856080  50.8619500 150.6755800  37.0089630
  53.9000480 149.3908300  21.8347750  53.6141990 148.9773440  21.0201930
  53.7020030 150.3196010  21.7148270  38.4624090 142.6627390  36.7207070
  38.9663110 142.0834670  37.2923300  37.7231510 142.9467620  37.2583440
  45.3647710 145.3841580  20.2753360  45.2598350 144.7693930  21.0014740
  45.1971930 144.8607470  19.4916370  45.5162030 144.0698380  36.2542590
  44.7507700 144.6383380  36.1697260  45.6977990 143.7774590  35.3610820
  48.6050440 144.4461610  20.8795350  48.0560540 144.8930910  21.5238090
  49.2269700 143.9410860  21.4033020  52.6585380 145.8003710  36.8117610
  53.3994850 146.1379470  36.3085070  51.8958060 145.9695770  36.2587380
  40.4947170 140.8056980  37.6157140  40.5352510 140.5070850  38.5242370
  41.3492670 141.2064590  37.4564660  44.2725560 143.4052530  22.7760650
  44.6941980 143.2392400  23.6192040  44.3976400 142.5952760  22.2815790
  42.4352980 139.3849080  35.5831630  41.9049440 138.8940030  34.9554970
  43.1041050 139.8133280  35.0489560  46.7853200 142.4290140  20.0237750
  47.3058860 141.7139160  19.6578900  47.4321600 143.0676010  20.3238260
  51.3331040 143.8518540  35.3472820  51.7472060 144.0063620  36.1963240
  50.3982040 143.9773760  35.5098600  51.8053210 141.1914700  37.3511970
  52.3873980 140.4367020  37.2632450  51.9814980 141.7222140  36.5743450
  42.9225280 136.3511450  35.6628920  42.8282150 135.7332200  34.9379790
  42.3422670 137.0777740  35.4358830  45.6886720 134.9084690  32.6956310
  45.2404020 134.9308950  31.8501860  45.0551920 134.5103710  33.2926610
  46.0946270 143.8039020  33.3168750  46.5134380 144.6471750  33.1444990
  45.1754900 143.9411060  33.0875530  48.4310170 141.5355200  34.7006590
  48.5506380 140.9396340  35.4401430  49.2904170 141.5724890  34.2807890
  50.7698070 142.0892390  33.2769100  50.2433290 142.6135010  32.6734240
  51.1129410 142.7219780  33.9078830  43.1684460 139.4785760  19.7218810
  42.9673520 138.6153120  20.0832150  42.9976510 139.3919120  18.7840410
  43.9453690 150.1092030  34.4326480  43.4074780 150.8338090  34.1135180
  44.1987650 149.6322370  33.6423820  45.1978940 138.0776550  35.9582410
  45.7878630 137.7692400  36.6460230  44.3799180 137.6056300  36.1142310
  50.0172370 137.6942360  36.1915430  49.3287890 137.0323900  36.1265420
  50.7378390 137.2480630  36.6363890  50.6472770 134.2893990  22.2505690
  50.9275060 133.4461890  22.6065110  49.8738500 134.5217100  22.7644440
  41.9667260 136.5786380  19.7096690  42.2693160 136.5853810  18.8015840
  42.7061850 136.2284240  20.2064350  45.1852190 135.5221000  20.6952890
  44.8374190 134.8444990  20.1155340  45.3864960 135.0610510  21.5096280
  47.3501230 150.5101750  22.3139490  48.2452020 150.8486720  22.3358250
  47.3818860 149.7881160  21.6863770  40.9897390 145.8828800  20.5426490
  41.4272260 146.4258470  21.1984070  41.4745120 145.0575750  20.5522830
  38.2043190 148.6717830  27.9946750  38.5346200 147.8038890  27.7625390
  38.6334190 148.8776350  28.8251710  42.8005110 147.0026840  25.6548720
  42.5000650 146.8791810  26.5552630  42.6942600 146.1435430  25.2464450
  38.6933400 149.5388420  30.7328380  38.2564390 149.7189220  31.5652530
  39.2611080 150.2963040  30.5910100  54.3295580 149.0405420  35.0205690
  53.7297570 149.0997980  34.2769610  54.4589480 148.1010400  35.1502540
  55.5697030 146.7823240  20.3575400  54.7389990 146.8499890  20.8282630
  55.7468860 147.6727360  20.0542260  55.0253490 143.5270720  22.8609600
  55.7872400 144.0967370  22.9669290  55.0407860 142.9597920  23.6317910
  38.5257830 142.0508650  27.0917260  37.8706670 141.7820290  26.4476960
  39.3635780 141.9413130  26.6419240  56.0313460 144.3820820  27.7051530
  56.4022290 143.5988140  27.2987500  56.6715390 145.0709920  27.5268830
  53.0147220 145.7657400  33.1181850  52.2007060 146.1954560  33.3807640
  53.4221420 146.3775810  32.5050900  55.0772660 143.8205090  20.0182120
  55.3521500 144.7283970  19.8901340  54.8883400 143.7567620  20.9544110
  51.4748270 136.8449940  21.3135750  51.8933150 136.6580920  20.4732410
  51.1684330 135.9928990  21.6238680  54.9738000 141.7574080  25.0111550
  54.5981600 140.9902010  24.5792840  54.2441120 142.1396780  25.4986480
  39.5633760 142.4361220  31.6320600  39.9306800 142.3488620  32.5116620
  38.9944580 141.6727770  31.5327460  54.3637620 140.9045600  34.6451070
  54.1323710 140.6758350  33.7449020  54.6242170 141.8245150  34.5995960
  39.1149760 139.3470310  35.5379020  38.2205810 139.3137070  35.8772730
  39.6547310 139.5457100  36.3030270  52.8025690 136.1302030  37.4230770
  53.6795870 136.1385430  37.8064770  52.8146530 135.3932870  36.8123120
  37.7395910 139.2607580  23.0342590  36.8359990 139.5237780  22.8594250
  38.2236530 139.5318750  22.2542550  54.2488960 139.9831570  28.3118790
  54.7726440 139.4894220  27.6808960  54.8348380 140.1181930  29.0566360
  54.4278680 140.0671440  31.8338340  53.4781390 140.0334980  31.9483330
  54.6091690 140.9771550  31.5988110  40.2823120 138.3173120  20.9436970
  40.9914820 137.8956340  20.4584250  39.5663060 138.3848350  20.3120320
  39.9297280 134.3712450  19.9839620  40.6525410 134.9121390  20.3020840
  40.2021800 134.0975870  19.1081160  53.7388930 139.2404920  24.2511200
  54.2348050 139.0075790  25.0360080  53.5405000 138.4016760  23.8348840
  39.6189470 133.6218640  29.8862240  40.2665660 133.0716020  29.4457400
  40.0391310 133.8761790  30.7078050  55.1676090 137.8765870  26.7848880
  55.0575370 137.7221910  27.7231150  55.9283680 137.3486810  26.5424290
  53.5141810 133.8160000  33.2431880  54.1514030 134.4294140  33.6091070
  53.6616700 133.8520660  32.2981110  56.0566360 135.7073790  20.0255020
  56.9815670 135.5754970  19.8173310  56.0342150 135.7866610  20.9791470
  56.1304850 136.4784450  22.6511730  55.3356350 136.4129570  23.1804640
  56.3348130 137.4135090  22.6397080  53.0723270 150.5176000  26.6450120
  53.6682340 150.1960570  25.9684540  53.3301420 150.0447820  27.4363390
  39.3721470 133.7774310  32.6287560  39.0236290 134.2338130  33.3945740
  39.0409170 132.8831440  32.7109990  40.9785840 146.9493910  36.7940750
  40.9355470 146.5786820  37.6755210  41.1096850 147.8871480  36.9342570
  44.6791870 148.5053500  32.3950470  44.4383230 148.7728060  31.5080990
  45.6194510 148.6759230  32.4501330  46.8846290 134.9686190  36.1506980
  46.8235180 135.5608020  36.9002390  47.8246670 134.8612150  36.0057240
  49.5220850 134.6256250  35.7899270  50.1361260 134.9435540  35.1280350
  50.0670410 134.1404840  36.4095130  55.9396030 150.5247880  33.1961110
  55.4454310 150.9216750  32.4788240  55.3309320 149.8997090  33.5898390
  40.0442110 133.3050510  35.9038330  40.5925100 133.1238560  35.1404440
  40.1097420 132.5144620  36.4394640  40.8173870 149.8956160  33.9138530
  40.2234190 149.7640860  34.6528570  40.8097710 149.0594300  33.4480630
  50.2628890 133.1888390  32.1168560  49.3888730 133.5223500  31.9141490
  50.1539640 132.7161570  32.9420430  51.1700870 135.3959260  33.5010280
  50.8414230 134.5811020  33.1212010  52.1183170 135.3529070  33.3775970
  40.4486100 147.2614540  32.8646570  39.7220160 146.6419830  32.7972520
  40.5095250 147.6555150  31.9944650  44.0531200 149.4759540  29.6495980
  44.5696220 148.8646900  29.1244240  44.7028580 149.9788320  30.1406990
  46.7926700 150.3668030  30.4764960  47.0804510 150.1122330  29.5997970
  47.3049920 149.8145390  31.0670530  48.0103710 134.1058230  31.0561470
  47.2275500 134.5803730  31.3358230  47.7166640 133.2013060  30.9474650
  52.5624780 134.8081330  29.1010560  53.0032870 134.7526430  28.2532160
  52.2932370 135.7239340  29.1720740  54.4263350 134.4396570  27.1119380
  54.3651750 133.4957790  26.9650400  55.2055380 134.5476660  27.6572840
  38.7316100 150.5788930  26.0743330  38.5638140 149.9459610  26.7725220
  37.8650610 150.7848330  25.7237520  39.3544120 134.4105710  23.5775190
  40.1123480 134.5234590  23.0039220  38.8921290 135.2474910  23.5318620
  45.8957930 136.5244980  26.5677500  45.0832440 136.1501870  26.2273380
  46.3999570 135.7690060  26.8698690  50.3982910 133.1887430  27.8060570
  51.0012280 133.7607640  28.2809090  49.6575900 133.7526870  27.5834470
  53.5417510 133.5908990  23.0800850  53.7368140 134.4892440  23.3468280
  52.7547380 133.3596070  23.5733800  40.3378800 149.2722160  23.5193470
  39.8126420 149.6530190  22.8155430  40.2623380 149.8972930  24.2403180
  41.7269270 134.9369760  22.1177160  42.2562030 134.1499560  21.9885110
  42.3597590 135.6160950  22.3512690  43.9207110 134.6744900  25.1722550
  43.2909850 133.9732210  25.3392680  43.3812250 135.4349030  24.9555710
  55.0944120 150.8309700  24.8407410  55.2696310 150.1447440  24.1968330
  54.3965690 151.3556750  24.4484080  44.0462670 133.9528880  37.6075040
  43.7646940 134.4562480  36.8435860  44.4282370 133.1550630  37.2417170
  42.9371770 151.2204540  22.3942720  43.6690590 150.9363820  21.8466610
  43.1965440 150.9817820  23.2842100  42.0986560 147.3369270  22.3989050
  41.4695440 147.8054370  22.9474880  42.2134390 146.4918490  22.8335240
  50.6478130 133.3682460  38.1855510  50.5343580 133.6877070  39.0807030
  51.4647870 133.7694970  37.8892790  53.4276620 150.5153990  37.6674200
  54.2201940 150.0203220  37.4600160  53.7209770 151.1944130  38.2749810
  49.5536280 141.3874930   8.5490250  49.4730330 140.4729540   8.2781960
  49.1400700 141.8842000   7.8429960  47.6854320 143.1653950  10.4299520
  46.9096420 142.6854390  10.7198090  48.3367250 142.4859600  10.2555680
  41.7020150 143.4773760  11.3075280  40.8705030 143.2222470  11.7071790
  42.3101130 143.5484530  12.0433200  51.7061750 147.5714140   9.2098650
  51.2443280 146.8001380   9.5385820  52.5187300 147.5980210   9.7151100
  41.6821410 147.5113850  11.5033300  41.9849450 146.6211590  11.3243520
  42.4265000 148.0684070  11.2755550  40.1112100 138.4375650   5.0917670
  39.2228800 138.7791620   4.9897550  40.3953290 138.2375970   4.1998500
  38.0745110 141.0381300  10.9757370  38.6461220 140.2703500  10.9761010
  38.0746650 141.3370060  10.0663980  47.9325060 149.8572150   8.8302640
  47.3136500 150.3129650   8.2597080  48.7876840 150.0123610   8.4292340
  47.1263310 145.8411140  10.4369680  47.0571590 144.9001080  10.2758810
  47.8883170 145.9312550  11.0092250  39.3169980 136.4465660  12.7626300
  39.1372820 135.5491410  13.0429060  38.9150060 136.9937530  13.4373250
  48.1568480 138.6481520  10.6638610  48.5333300 137.7753400  10.5512280
  48.0587990 138.9840220   9.7729050  42.2873490 137.0207150   6.1256050
  42.3940240 137.9210880   6.4324810  41.3765850 136.9725120   5.8350700
  51.9392600 136.1431960   7.5966950  52.7602220 135.6528530   7.6392430
  51.9726680 136.7329620   8.3498790  39.9356650 138.9426160  11.3708640
  40.6166760 139.2064530  11.9896040  39.6204700 138.1027030  11.7046650
  44.1281220 139.9893520  10.4581230  44.6359440 140.4874490  11.0986250
  44.6594460 139.2128720  10.2820590  56.2292150 138.1598710  14.1610580
  55.5244320 138.5480420  13.6425690  56.4950070 138.8549000  14.7631510
  42.4117320 134.6292080  14.7244650  42.4135760 135.1464470  13.9190550
  41.5821630 134.1522260  14.7014580  48.7988410 144.7411390   6.2234550
  48.1805680 145.2060840   5.6597270  49.3111660 145.4338870   6.6404060
  43.6620170 144.2687260  12.9018150  43.3289550 144.8956180  13.5439220
  43.8386850 144.7949140  12.1219820  52.1754080 138.0832340  10.3694490
  51.4709650 138.3717230  10.9497600  52.5366240 138.8932450  10.0094050
  42.0932650 136.3402040  12.7315100  42.4349460 137.1844090  12.4368970
  41.1548460 136.4885780  12.8480440  42.8739270 146.2368060  14.7167330
  43.4913270 146.9119140  14.4351780  42.0132390 146.6456040  14.6254830
  38.1671610 145.4267920   3.5974180  37.7899590 145.9155020   2.8659080
  38.4244680 146.0993200   4.2280710  53.7916860 147.7007470  12.6321970
  53.1080380 148.3706580  12.6238640  54.3311150 147.8988120  11.8666830
  55.2441000 137.5287130  10.7603700  54.2965910 137.5626110  10.8919130
  55.5690990 138.3426080  11.1453060  45.7760540 133.8284310   9.0559690
  46.0835520 133.2731200   8.3395190  44.8461240 133.9628770   8.8732680
  51.3275600 149.5451600  11.3467150  51.3402760 149.1413890  10.4789410
  50.7750820 150.3198890  11.2428580  52.6221020 146.2667820   6.4357320
  52.5117350 145.3242150   6.5606740  52.6189270 146.6283460   7.3220080
  50.7261040 144.4481440  12.6749760  51.1429830 144.2341550  11.8403220
  51.4500860 144.7054230  13.2458380  48.1641300 141.8933140   5.7919810
  47.2370580 141.8270520   6.0208280  48.3166120 142.8313270   5.6775050
  48.1510380 138.1650140   2.7886970  47.2114050 138.3264100   2.8739430
  48.4693640 138.8835820   2.2422960  54.6723140 142.8468660  12.7666000
  53.8441770 142.9161750  12.2916130  55.2673620 143.4322970  12.2981830
  52.1938590 143.4553440   6.2955060  51.5751010 143.1172990   5.6481360
  52.1763040 142.8113200   7.0034250  51.6365150 139.6337980  13.7120870
  51.2236330 140.4591690  13.9660860  50.9041100 139.0483020  13.5197230
  43.7697940 142.4197880   8.5739540  43.3654940 141.7075130   8.0785440
  43.8561060 142.0751120   9.4627580  44.2379640 146.1065440  10.7378750
  43.9407930 145.5010910  10.0586530  45.1879460 146.1442750  10.6268110
  42.4826560 139.1941090  12.3538580  43.0341150 139.3036430  11.5791830
  42.9970070 139.5678690  13.0693810  52.3265250 149.6797310  14.4001850
  51.8495810 150.4869500  14.2074460  51.6427040 149.0275640  14.5528060
  43.3298070 145.8447130  17.3886550  42.4326600 146.0687100  17.6359950
  43.3550940 145.9682070  16.4397950  50.3703290 142.6940250   3.3027810
  50.8096570 141.8562680   3.1565630  51.0831710 143.3269650   3.3891950
  42.1569290 142.7160450  15.9643920  42.0177060 143.5883250  16.3331320
  41.2750650 142.3733260  15.8191860  48.4798670 147.6336320   7.2709050
  48.9194580 148.3760650   6.8564440  48.4185560 147.8762890   8.1948010
  43.9549640 148.6582150  18.1729070  43.9265070 149.0625100  17.3057500
  43.7914610 147.7292510  18.0100670  40.4702570 141.3142860   6.0746190
  40.3500170 142.0404950   5.4627460  40.1603460 140.5445770   5.5974100
  55.9064460 149.4409250  19.4693240  56.3824180 149.9192140  20.1482320
  56.5271620 149.3726740  18.7438740  38.1087940 144.4858000  11.8814830
  38.1868360 144.6206770  10.9370550  38.7229620 143.7773890  12.0742950
  39.3535570 146.1858190   8.2921010  38.9463650 146.3272780   7.4374610
  40.2448580 145.9018350   8.0892220  55.3097710 146.6322100  16.6293250
  55.4360770 146.3933980  15.7110430  55.3519090 145.8006640  17.1015330
  49.1714450 150.3350100  15.1988060  49.6859120 150.2458110  16.0010490
  48.3283530 150.6809800  15.4915970  51.1468850 150.6205440   4.6272060
  50.9869990 150.3308380   5.5253890  50.9815560 149.8445570   4.0917290
  43.6257230 150.4003970   6.4043680  43.4499710 149.4839510   6.1911480
  42.7712970 150.7591260   6.6441480  50.8494980 148.1293000   3.1870060
  50.1560140 148.1270290   2.5272340  51.5917840 147.7052320   2.7564230
  50.4144910 149.7555710   7.2618550  50.8701860 148.9745090   7.5757170
  50.7537430 150.4662530   7.8059730  55.1621720 138.6854560  17.5942990
  54.5465990 139.1934230  17.0658450  54.8418140 137.7852890  17.5368930
  38.1647460 145.5272170  14.4209290  38.3278500 145.0577530  13.6028660
  38.6299910 145.0195730  15.0858130  42.9366230 134.6577930   9.4569860
  42.4934380 135.4387470   9.1254380  43.4951220 134.9807820  10.1640800
  47.2236040 137.5246450  15.0605180  46.7615410 137.7329470  15.8725120
  46.8214150 136.7105800  14.7575850  52.2240550 138.7455400  16.1901840
  51.3734140 138.4461150  16.5110910  52.0642340 138.9897410  15.2785660
  49.3190260 140.2457150  18.2900630  49.6443670 139.4120900  17.9502860
  50.1070590 140.7685670  18.4378960  46.0525050 134.2788630   4.3375690
  45.4279230 134.2748500   5.0629000  45.9655170 133.4119590   3.9411660
  44.9742130 135.2025260  11.3159460  45.2714460 136.1088090  11.2351480
  45.5227690 134.7144040  10.7019030  42.7280450 139.7811500   7.1851110
  42.5021370 139.5648670   8.0897730  41.9472980 140.2139960   6.8397080
  49.9578210 139.7874870   5.7841760  49.3587100 140.5110670   5.6005380
  50.5057820 139.7251650   5.0018210  45.1679660 140.6797080  17.8511380
  45.0723260 139.7391810  17.7011780  46.0111640 140.9012150  17.4559450
  48.5643080 138.4238410   7.8145040  48.9572650 138.7410610   7.0013730
  48.9259930 137.5450290   7.9289560  40.2990200 137.0910750  16.0045160
  39.9053590 137.9385960  16.2117940  39.6108600 136.4537120  16.1953800
  46.8735250 137.1745720  19.0741900  46.1833570 136.9817920  19.7087990
  47.6167550 137.4580360  19.6066200  37.6007250 135.0139210  10.0375240
  37.3120300 135.5842070  10.7500220  38.3453010 134.5343660  10.4006470
  49.1498220 141.0144160  11.9095820  48.4179340 141.5230970  12.2585920
  48.7522560 140.1974140  11.6084600  45.5875610 137.6898360  10.3148310
  45.5911670 137.2488310   9.4652850  46.4826730 138.0115690  10.4220130
  41.4377990 137.5724850   9.2742520  41.0978040 138.0500080  10.0309570
  40.6755310 137.1189970   8.9143620  45.6495760 138.6910440   3.3055070
  45.7708580 138.6496920   4.2540890  45.2644270 139.5534590   3.1501800
  49.6124130 136.4677840  11.3218760  49.6296870 136.9186490  12.1660610
  49.3639710 135.5683480  11.5352200  44.6617260 141.0011580   2.7038370
  44.0934160 140.5529830   2.0774280  45.3706260 141.3604360   2.1703520
  53.0394880 133.8810020  17.1605140  53.3640650 133.1499680  17.6863120
  53.0751390 133.5623660  16.2586130  39.7386440 144.9023600  16.5805100
  39.3541230 144.2617270  17.1788060  40.0498630 145.6059720  17.1499830
  45.8883580 141.7500140  12.0613720  46.2553710 141.2758710  12.8075060
  45.6988640 142.6241710  12.4022060  38.7524070 136.4943830   8.1907190
  38.4670990 136.1299500   9.0285810  38.6902930 135.7624290   7.5770330
  43.6782950 140.7908780  14.3797930  43.3740020 141.6700760  14.6048290
  44.6329410 140.8508570  14.4155370  42.2064740 144.9969770   4.9764780
  41.4327000 144.4567390   4.8163500  42.9359370 144.4776380   4.6382540
  52.9652720 143.9935130  10.7691170  53.6851840 144.4890420  10.3787280
  52.7634540 143.3153020  10.1245040  48.4262660 135.3873090   4.9120560
  47.6127270 134.8886260   4.8365870  48.2324610 136.2271340   4.4956910
  48.3471520 144.0644190  16.6560170  48.2808830 143.1439860  16.4017760
  47.7176660 144.1619630  17.3704810  51.1411050 139.7592740   3.2082720
  52.0290670 140.0709970   3.0334060  51.1116140 138.8864990   2.8163300
  42.2502140 144.6650150   8.6143590  42.7680810 143.8618410   8.5600480
  41.7986160 144.6029290   9.4560420  47.1371640 145.9316430   3.8870890
  47.4787340 146.6758660   3.3914210  46.3084350 146.2447550   4.2495720
  39.7346680 141.6311520  15.5269290  39.3761620 142.2965370  16.1142630
  39.4401240 140.7995070  15.8981910  42.9359800 142.0895760  18.4108840
  42.6359940 142.2352940  17.5136660  43.7071040 141.5301050  18.3182230
  48.2788250 146.8864760  16.4063970  48.2932790 145.9545720  16.1882880
  47.5713350 146.9724520  17.0453740  53.4125320 141.0704580   2.6762580
  53.3289040 141.5018800   1.8259020  54.1319510 141.5302930   3.1089400
  54.4899460 143.5272100  15.7532550  53.7647650 144.1200880  15.5561940
  55.0174920 143.5195640  14.9545920  54.4412570 147.9246840   5.4044710
  53.7988730 147.2702460   5.6788430  54.0543230 148.3301930   4.6285380
  50.0199050 145.2532270   9.2516400  50.3722870 144.6560400   8.5917770
  49.1361380 144.9276500   9.4224650  46.1062330 146.0129960   6.6586810
  46.7933460 146.5599170   7.0394400  45.3194750 146.5570690   6.6936420
  38.2454730 141.6302780   2.1503890  39.1149580 141.9127580   2.4339810
  37.7545050 142.4438650   2.0352700  45.4089540 143.0175990   6.2712170
  45.8652320 143.8281240   6.4972360  45.0577750 142.6999130   7.1030660
  47.7122150 148.5282330  13.5004470  48.3564370 148.7341710  14.1777890
  48.0751590 147.7670730  13.0475320  41.3101320 133.3613640   6.7434690
  41.1815950 133.3531540   7.6919610  40.4863340 133.6996730   6.3925700
  48.9854230 146.5314680  12.2181920  49.6276460 145.8307840  12.3314090
  49.5103580 147.3113120  12.0378810  50.7591850 147.3309580  15.4217980
  51.0948090 147.9176270  16.0995900  49.8392190 147.2002290  15.6515770
  38.6125980 150.8430160   2.7165520  38.9723620 151.4419500   2.0622790
  38.4718320 151.3890050   3.4900550  38.3095250 135.1204760  16.2041390
  37.5953770 135.3201680  16.8094000  38.7290290 134.3444330  16.5756190
  52.4126200 144.7335240   3.6035220  52.1247900 145.1947930   4.3913100
  53.2078370 144.2733010   3.8719440  38.5967840 149.1085020  17.1907920
  38.7058960 148.1679760  17.0503310  37.9448400 149.3739770  16.5421650
  46.5880430 147.3800910  18.5906040  46.2677300 146.6610150  19.1351730
  45.9138790 148.0555980  18.6642100  44.6294600 148.2261360   3.5339190
  44.6204700 148.9591050   2.9183700  43.7092960 147.9792940   3.6266150
  40.2301240 143.4476250   4.2785950  39.6229190 144.1875150   4.2881250
  40.7050590 143.5375610   3.4524150  49.8034030 137.6127070  13.9542840
  50.1714850 136.7922280  14.2822410  48.9432230 137.6728960  14.3698490
  53.1696060 136.5684010   4.7630400  52.5409220 136.6729680   4.0488630
  52.6747980 136.7880790   5.5524280  45.1380090 138.8469960   6.1788280
  44.4296240 139.3156300   6.6201890  45.4224570 138.1891970   6.8133470
  46.7636020 140.2666660  14.1780810  47.2621270 140.7412480  14.8432660
  46.9058970 139.3430180  14.3850840  49.1695520 135.5720620   7.6184070
  49.0463300 135.5906750   6.6693580  50.1180080 135.6199560   7.7382470
  46.2572310 150.8075920   6.8912050  46.5113810 150.7697310   5.9691420
  45.3084790 150.6809250   6.8840300  43.3415110 137.1555040   3.5538990
  44.1905640 137.5925190   3.4879180  42.9746380 137.4675300   4.3811050
  53.9702880 136.4834620  15.0209200  53.4676480 137.2240020  15.3603010
  54.7859540 136.8718620  14.7045990  52.2624890 141.7267800   8.4670560
  51.3215030 141.7418030   8.6418250  52.5768960 140.9403760   8.9130860
  40.9353290 140.8412470   2.7107410  41.0156880 139.8939980   2.8224810
  41.8273040 141.1719350   2.8168070  54.2650470 148.8976650  10.1424820
  54.3897890 149.7207820  10.6148630  55.1316030 148.6867380   9.7948970
  38.6213480 147.0581430   5.6883460  37.6953260 147.3002570   5.6788870
  39.0869910 147.8855690   5.5668210  40.7426280 150.1753930  19.0027530
  41.5439010 150.4965980  19.4162930  40.2278100 149.8149510  19.7247440
  49.5790910 146.2833800  18.9502940  48.9729070 146.3065400  18.2098690
  49.2745020 145.5516840  19.4870190  51.0091280 150.0114090  17.5612350
  51.9613030 149.9272110  17.5112590  50.8619500 150.6755800  18.2346140
  53.9000480 149.3908300   3.0604260  53.6141990 148.9773440   2.2458440
  53.7020030 150.3196010   2.9404780  38.4624090 142.6627390  17.9463580
  38.9663110 142.0834670  18.5179810  37.7231510 142.9467620  18.4839950
  45.5162030 144.0698380  17.4799100  44.7507700 144.6383380  17.3953770
  45.6977990 143.7774590  16.5867330  48.6050440 144.4461610   2.1051860
  48.0560540 144.8930910   2.7494600  49.2269700 143.9410860   2.6289530
  52.6585380 145.8003710  18.0374120  53.3994850 146.1379470  17.5341580
  51.8958060 145.9695770  17.4843890  40.4947170 140.8056980  18.8413650
  40.5352510 140.5070850  19.7498880  41.3492670 141.2064590  18.6821170
  44.2725560 143.4052530   4.0017160  44.6941980 143.2392400   4.8448550
  44.3976400 142.5952760   3.5072300  42.4352980 139.3849080  16.8088140
  41.9049440 138.8940030  16.1811480  43.1041050 139.8133280  16.2746070
  51.3331040 143.8518540  16.5729330  51.7472060 144.0063620  17.4219750
  50.3982040 143.9773760  16.7355110  51.8053210 141.1914700  18.5768480
  52.3873980 140.4367020  18.4888960  51.9814980 141.7222140  17.7999960
  42.9225280 136.3511450  16.8885430  42.8282150 135.7332200  16.1636300
  42.3422670 137.0777740  16.6615340  45.6886720 134.9084690  13.9212820
  45.2404020 134.9308950  13.0758370  45.0551920 134.5103710  14.5183120
  46.0946270 143.8039020  14.5425260  46.5134380 144.6471750  14.3701500
  45.1754900 143.9411060  14.3132040  48.4310170 141.5355200  15.9263100
  48.5506380 140.9396340  16.6657940  49.2904170 141.5724890  15.5064400
  50.7698070 142.0892390  14.5025610  50.2433290 142.6135010  13.8990750
  51.1129410 142.7219780  15.1335340  43.9453690 150.1092030  15.6582990
  43.4074780 150.8338090  15.3391690  44.1987650 149.6322370  14.8680330
  45.1978940 138.0776550  17.1838920  45.7878630 137.7692400  17.8716740
  44.3799180 137.6056300  17.3398820  50.0172370 137.6942360  17.4171940
  49.3287890 137.0323900  17.3521930  50.7378390 137.2480630  17.8620400
  50.6472770 134.2893990   3.4762200  50.9275060 133.4461890   3.8321620
  49.8738500 134.5217100   3.9900950  47.3501230 150.5101750   3.5396000
  48.2452020 150.8486720   3.5614760  47.3818860 149.7881160   2.9120280
  40.9897390 145.8828800   1.7683000  41.4272260 146.4258470   2.4240580
  41.4745120 145.0575750   1.7779340  38.2043190 148.6717830   9.2203260
  38.5346200 147.8038890   8.9881900  38.6334190 148.8776350  10.0508220
  42.8005110 147.0026840   6.8805230  42.5000650 146.8791810   7.7809140
  42.6942600 146.1435430   6.4720960  38.6933400 149.5388420  11.9584890
  38.2564390 149.7189220  12.7909040  39.2611080 150.2963040  11.8166610
  54.3295580 149.0405420  16.2462200  53.7297570 149.0997980  15.5026120
  54.4589480 148.1010400  16.3759050  55.0253490 143.5270720   4.0866110
  55.7872400 144.0967370   4.1925800  55.0407860 142.9597920   4.8574420
  38.5257830 142.0508650   8.3173770  37.8706670 141.7820290   7.6733470
  39.3635780 141.9413130   7.8675750  56.0313460 144.3820820   8.9308040
  56.4022290 143.5988140   8.5244010  56.6715390 145.0709920   8.7525340
  53.0147220 145.7657400  14.3438360  52.2007060 146.1954560  14.6064150
  53.4221420 146.3775810  13.7307410  51.4748270 136.8449940   2.5392260
  51.8933150 136.6580920   1.6988920  51.1684330 135.9928990   2.8495190
  54.9738000 141.7574080   6.2368060  54.5981600 140.9902010   5.8049350
  54.2441120 142.1396780   6.7242990  39.5633760 142.4361220  12.8577110
  39.9306800 142.3488620  13.7373130  38.9944580 141.6727770  12.7583970
  54.3637620 140.9045600  15.8707580  54.1323710 140.6758350  14.9705530
  54.6242170 141.8245150  15.8252470  39.1149760 139.3470310  16.7635530
  38.2205810 139.3137070  17.1029240  39.6547310 139.5457100  17.5286780
  52.8025690 136.1302030  18.6487280  53.6795870 136.1385430  19.0321280
  52.8146530 135.3932870  18.0379630  37.7395910 139.2607580   4.2599100
  36.8359990 139.5237780   4.0850760  38.2236530 139.5318750   3.4799060
  54.2488960 139.9831570   9.5375300  54.7726440 139.4894220   8.9065470
  54.8348380 140.1181930  10.2822870  54.4278680 140.0671440  13.0594850
  53.4781390 140.0334980  13.1739840  54.6091690 140.9771550  12.8244620
  53.7388930 139.2404920   5.4767710  54.2348050 139.0075790   6.2616590
  53.5405000 138.4016760   5.0605350  39.6189470 133.6218640  11.1118750
  40.2665660 133.0716020  10.6713910  40.0391310 133.8761790  11.9334560
  55.1676090 137.8765870   8.0105390  55.0575370 137.7221910   8.9487660
  55.9283680 137.3486810   7.7680800  53.5141810 133.8160000  14.4688390
  54.1514030 134.4294140  14.8347580  53.6616700 133.8520660  13.5237620
  56.1304850 136.4784450   3.8768240  55.3356350 136.4129570   4.4061150
  56.3348130 137.4135090   3.8653590  53.0723270 150.5176000   7.8706630
  53.6682340 150.1960570   7.1941050  53.3301420 150.0447820   8.6619900
  39.3721470 133.7774310  13.8544070  39.0236290 134.2338130  14.6202250
  39.0409170 132.8831440  13.9366500  40.9785840 146.9493910  18.0197260
  40.9355470 146.5786820  18.9011720  41.1096850 147.8871480  18.1599080
  44.6791870 148.5053500  13.6206980  44.4383230 148.7728060  12.7337500
  45.6194510 148.6759230  13.6757840  46.8846290 134.9686190  17.3763490
  46.8235180 135.5608020  18.1258900  47.8246670 134.8612150  17.2313750
  49.5220850 134.6256250  17.0155780  50.1361260 134.9435540  16.3536860
  50.0670410 134.1404840  17.6351640  55.9396030 150.5247880  14.4217620
  55.4454310 150.9216750  13.7044750  55.3309320 149.8997090  14.8154900
  40.0442110 133.3050510  17.1294840  40.5925100 133.1238560  16.3660950
  40.1097420 132.5144620  17.6651150  40.8173870 149.8956160  15.1395040
  40.2234190 149.7640860  15.8785080  40.8097710 149.0594300  14.6737140
  50.2628890 133.1888390  13.3425070  49.3888730 133.5223500  13.1398000
  50.1539640 132.7161570  14.1676940  51.1700870 135.3959260  14.7266790
  50.8414230 134.5811020  14.3468520  52.1183170 135.3529070  14.6032480
  40.4486100 147.2614540  14.0903080  39.7220160 146.6419830  14.0229030
  40.5095250 147.6555150  13.2201160  44.0531200 149.4759540  10.8752490
  44.5696220 148.8646900  10.3500750  44.7028580 149.9788320  11.3663500
  46.7926700 150.3668030  11.7021470  47.0804510 150.1122330  10.8254480
  47.3049920 149.8145390  12.2927040  48.0103710 134.1058230  12.2817980
  47.2275500 134.5803730  12.5614740  47.7166640 133.2013060  12.1731160
  52.5624780 134.8081330  10.3267070  53.0032870 134.7526430   9.4788670
  52.2932370 135.7239340  10.3977250  54.4263350 134.4396570   8.3375890
  54.3651750 133.4957790   8.1906910  55.2055380 134.5476660   8.8829350
  38.7316100 150.5788930   7.2999840  38.5638140 149.9459610   7.9981730
  37.8650610 150.7848330   6.9494030  39.3544120 134.4105710   4.8031700
  40.1123480 134.5234590   4.2295730  38.8921290 135.2474910   4.7575130
  45.8957930 136.5244980   7.7934010  45.0832440 136.1501870   7.4529890
  46.3999570 135.7690060   8.0955200  50.3982910 133.1887430   9.0317080
  51.0012280 133.7607640   9.5065600  49.6575900 133.7526870   8.8090980
  53.5417510 133.5908990   4.3057360  53.7368140 134.4892440   4.5724790
  52.7547380 133.3596070   4.7990310  40.3378800 149.2722160   4.7449980
  39.8126420 149.6530190   4.0411940  40.2623380 149.8972930   5.4659690
  41.7269270 134.9369760   3.3433670  42.2562030 134.1499560   3.2141620
  42.3597590 135.6160950   3.5769200  43.9207110 134.6744900   6.3979060
  43.2909850 133.9732210   6.5649190  43.3812250 135.4349030   6.1812220
  55.0944120 150.8309700   6.0663920  55.2696310 150.1447440   5.4224840
  54.3965690 151.3556750   5.6740590  44.0462670 133.9528880  18.8331550
  43.7646940 134.4562480  18.0692370  44.4282370 133.1550630  18.4673680
  42.9371770 151.2204540   3.6199230  43.6690590 150.9363820   3.0723120
  43.1965440 150.9817820   4.5098610  42.0986560 147.3369270   3.6245560
  41.4695440 147.8054370   4.1731390  42.2134390 146.4918490   4.0591750
  50.6478130 133.3682460  19.4112020  50.5343580 133.6877070  20.3063540
  51.4647870 133.7694970  19.1149300  53.4276620 150.5153990  18.8930710
  54.2201940 150.0203220  18.6856670  53.7209770 151.1944130  19.5006320
  49.5536280 122.6131440 139.9694680  49.4730330 121.6986050 139.6986390
  49.1400700 123.1098510 139.2634390  47.6854320 124.3910460 141.8503950
  46.9096420 123.9110900 142.1402520  48.3367250 123.7116110 141.6760110
  41.7020150 124.7030270 142.7279710  40.8705030 124.4478980 143.1276220
  42.3101130 124.7741040 143.4637630  51.7061750 128.7970650 140.6303080
  51.2443280 128.0257890 140.9590250  52.5187300 128.8236720 141.1355530
  41.6821410 128.7370360 142.9237730  41.9849450 127.8468100 142.7447950
  42.4265000 129.2940580 142.6959980  40.1112100 119.6632160 136.5122100
  39.2228800 120.0048130 136.4101980  40.3953290 119.4632480 135.6202930
  38.0745110 122.2637810 142.3961800  38.6461220 121.4960010 142.3965440
  38.0746650 122.5626570 141.4868410  47.9325060 131.0828660 140.2507070
  47.3136500 131.5386160 139.6801510  48.7876840 131.2380120 139.8496770
  47.1263310 127.0667650 141.8574110  47.0571590 126.1257590 141.6963240
  47.8883170 127.1569060 142.4296680  39.3169980 117.6722170 144.1830730
  39.1372820 116.7747920 144.4633490  38.9150060 118.2194040 144.8577680
  48.1568480 119.8738030 142.0843040  48.5333300 119.0009910 141.9716710
  48.0587990 120.2096730 141.1933480  42.2873490 118.2463660 137.5460480
  42.3940240 119.1467390 137.8529240  41.3765850 118.1981630 137.2555130
  51.9392600 117.3688470 139.0171380  52.7602220 116.8785040 139.0596860
  51.9726680 117.9586130 139.7703220  39.9356650 120.1682670 142.7913070
  40.6166760 120.4321040 143.4100470  39.6204700 119.3283540 143.1251080
  44.1281220 121.2150030 141.8785660  44.6359440 121.7131000 142.5190680
  44.6594460 120.4385230 141.7025020  56.2292150 119.3855220 145.5815010
  55.5244320 119.7736930 145.0630120  56.4950070 120.0805510 146.1835940
  42.4117320 115.8548590 146.1449080  42.4135760 116.3720980 145.3394980
  41.5821630 115.3778770 146.1219010  48.7988410 125.9667900 137.6438980
  48.1805680 126.4317350 137.0801700  49.3111660 126.6595380 138.0608490
  43.6620170 125.4943770 144.3222580  43.3289550 126.1212690 144.9643650
  43.8386850 126.0205650 143.5424250  52.1754080 119.3088850 141.7898920
  51.4709650 119.5973740 142.3702030  52.5366240 120.1188960 141.4298480
  42.0932650 117.5658550 144.1519530  42.4349460 118.4100600 143.8573400
  41.1548460 117.7142290 144.2684870  42.8739270 127.4624570 146.1371760
  43.4913270 128.1375650 145.8556210  42.0132390 127.8712550 146.0459260
  38.1671610 126.6524430 135.0178610  37.7899590 127.1411530 134.2863510
  38.4244680 127.3249710 135.6485140  53.7916860 128.9263980 144.0526400
  53.1080380 129.5963090 144.0443070  54.3311150 129.1244630 143.2871260
  55.2441000 118.7543640 142.1808130  54.2965910 118.7882620 142.3123560
  55.5690990 119.5682590 142.5657490  45.7760540 115.0540820 140.4764120
  46.0835520 114.4987710 139.7599620  44.8461240 115.1885280 140.2937110
  51.3275600 130.7708110 142.7671580  51.3402760 130.3670400 141.8993840
  50.7750820 131.5455400 142.6633010  52.6221020 127.4924330 137.8561750
  52.5117350 126.5498660 137.9811170  52.6189270 127.8539970 138.7424510
  50.7261040 125.6737950 144.0954190  51.1429830 125.4598060 143.2607650
  51.4500860 125.9310740 144.6662810  48.1641300 123.1189650 137.2124240
  47.2370580 123.0527030 137.4412710  48.3166120 124.0569780 137.0979480
  48.1510380 119.3906650 134.2091400  47.2114050 119.5520610 134.2943860
  48.4693640 120.1092330 133.6627390  54.6723140 124.0725170 144.1870430
  53.8441770 124.1418260 143.7120560  55.2673620 124.6579480 143.7186260
  52.1938590 124.6809950 137.7159490  51.5751010 124.3429500 137.0685790
  52.1763040 124.0369710 138.4238680  51.6365150 120.8594490 145.1325300
  51.2236330 121.6848200 145.3865290  50.9041100 120.2739530 144.9401660
  43.7697940 123.6454390 139.9943970  43.3654940 122.9331640 139.4989870
  43.8561060 123.3007630 140.8832010  44.2379640 127.3321950 142.1583180
  43.9407930 126.7267420 141.4790960  45.1879460 127.3699260 142.0472540
  42.4826560 120.4197600 143.7743010  43.0341150 120.5292940 142.9996260
  42.9970070 120.7935200 144.4898240  52.3265250 130.9053820 145.8206280
  51.8495810 131.7126010 145.6278890  51.6427040 130.2532150 145.9732490
  43.3298070 127.0703640 148.8090980  42.4326600 127.2943610 149.0564380
  43.3550940 127.1938580 147.8602380  50.3703290 123.9196760 134.7232240
  50.8096570 123.0819190 134.5770060  51.0831710 124.5526160 134.8096380
  42.1569290 123.9416960 147.3848350  42.0177060 124.8139760 147.7535750
  41.2750650 123.5989770 147.2396290  48.4798670 128.8592830 138.6913480
  48.9194580 129.6017160 138.2768870  48.4185560 129.1019400 139.6152440
  43.9549640 129.8838660 149.5933500  43.9265070 130.2881610 148.7261930
  43.7914610 128.9549020 149.4305100  53.9520430 115.1739570 133.0373280
  53.6393090 115.2666400 133.9372350  54.7132900 115.7520600 132.9870710
  40.4702570 122.5399370 137.4950620  40.3500170 123.2661460 136.8831890
  40.1603460 121.7702280 137.0178530  38.1087940 125.7114510 143.3019260
  38.1868360 125.8463280 142.3574980  38.7229620 125.0030400 143.4947380
  39.3535570 127.4114700 139.7125440  38.9463650 127.5529290 138.8579040
  40.2448580 127.1274860 139.5096650  55.3097710 127.8578610 148.0497680
  55.4360770 127.6190490 147.1314860  55.3519090 127.0263150 148.5219760
  49.1714450 131.5606610 146.6192490  49.6859120 131.4714620 147.4214920
  48.3283530 131.9066310 146.9120400  51.1468850 131.8461950 136.0476490
  50.9869990 131.5564890 136.9458320  50.9815560 131.0702080 135.5121720
  43.6257230 131.6260480 137.8248110  43.4499710 130.7096020 137.6115910
  42.7712970 131.9847770 138.0645910  50.8494980 129.3549510 134.6074490
  50.1560140 129.3526800 133.9476770  51.5917840 128.9308830 134.1768660
  50.4144910 130.9812220 138.6822980  50.8701860 130.2001600 138.9961600
  50.7537430 131.6919040 139.2264160  55.1621720 119.9111070 149.0147420
  54.5465990 120.4190740 148.4862880  54.8418140 119.0109400 148.9573360
  38.1647460 126.7528680 145.8413720  38.3278500 126.2834040 145.0233090
  38.6299910 126.2452240 146.5062560  42.9366230 115.8834440 140.8774290
  42.4934380 116.6643980 140.5458810  43.4951220 116.2064330 141.5845230
  47.2236040 118.7502960 146.4809610  46.7615410 118.9585980 147.2929550
  46.8214150 117.9362310 146.1780280  52.2240550 119.9711910 147.6106270
  51.3734140 119.6717660 147.9315340  52.0642340 120.2153920 146.6990090
  49.3190260 121.4713660 149.7105060  49.6443670 120.6377410 149.3707290
  50.1070590 121.9942180 149.8583390  46.0525050 115.5045140 135.7580120
  45.4279230 115.5005010 136.4833430  45.9655170 114.6376100 135.3616090
  44.9742130 116.4281770 142.7363890  45.2714460 117.3344600 142.6555910
  45.5227690 115.9400550 142.1223460  42.7280450 121.0068010 138.6055540
  42.5021370 120.7905180 139.5102160  41.9472980 121.4396470 138.2601510
  49.9578210 121.0131380 137.2046190  49.3587100 121.7367180 137.0209810
  50.5057820 120.9508160 136.4222640  45.1679660 121.9053590 149.2715810
  45.0723260 120.9648320 149.1216210  46.0111640 122.1268660 148.8763880
  48.5643080 119.6494920 139.2349470  48.9572650 119.9667120 138.4218160
  48.9259930 118.7706800 139.3493990  40.2990200 118.3167260 147.4249590
  39.9053590 119.1642470 147.6322370  39.6108600 117.6793630 147.6158230
  37.6007250 116.2395720 141.4579670  37.3120300 116.8098580 142.1704650
  38.3453010 115.7600170 141.8210900  37.7877480 120.1815840 132.6682390
  37.7052150 121.1246600 132.8097380  37.4360540 120.0390750 131.7894740
  49.1498220 122.2400670 143.3300250  48.4179340 122.7487480 143.6790350
  48.7522560 121.4230650 143.0289030  45.5875610 118.9154870 141.7352740
  45.5911670 118.4744820 140.8857280  46.4826730 119.2372200 141.8424560
  41.4377990 118.7981360 140.6946950  41.0978040 119.2756590 141.4514000
  40.6755310 118.3446480 140.3348050  45.6495760 119.9166950 134.7259500
  45.7708580 119.8753430 135.6745320  45.2644270 120.7791100 134.5706230
  49.6124130 117.6934350 142.7423190  49.6296870 118.1443000 143.5865040
  49.3639710 116.7939990 142.9556630  44.6617260 122.2268090 134.1242800
  44.0934160 121.7786340 133.4978710  45.3706260 122.5860870 133.5907950
  53.0394880 115.1066530 148.5809570  53.3640650 114.3756190 149.1067550
  53.0751390 114.7880170 147.6790560  39.7386440 126.1280110 148.0009530
  39.3541230 125.4873780 148.5992490  40.0498630 126.8316230 148.5704260
  45.8883580 122.9756650 143.4818150  46.2553710 122.5015220 144.2279490
  45.6988640 123.8498220 143.8226490  38.7524070 117.7200340 139.6111620
  38.4670990 117.3556010 140.4490240  38.6902930 116.9880800 138.9974760
  43.6782950 122.0165290 145.8002360  43.3740020 122.8957270 146.0252720
  44.6329410 122.0765080 145.8359800  42.2064740 126.2226280 136.3969210
  41.4327000 125.6823900 136.2367930  42.9359370 125.7032890 136.0586970
  52.9652720 125.2191640 142.1895600  53.6851840 125.7146930 141.7991710
  52.7634540 124.5409530 141.5449470  48.4262660 116.6129600 136.3324990
  47.6127270 116.1142770 136.2570300  48.2324610 117.4527850 135.9161340
  48.3471520 125.2900700 148.0764600  48.2808830 124.3696370 147.8222190
  47.7176660 125.3876140 148.7909240  51.1411050 120.9849250 134.6287150
  52.0290670 121.2966480 134.4538490  51.1116140 120.1121500 134.2367730
  42.2502140 125.8906660 140.0348020  42.7680810 125.0874920 139.9804910
  41.7986160 125.8285800 140.8764850  47.1371640 127.1572940 135.3075320
  47.4787340 127.9015170 134.8118640  46.3084350 127.4704060 135.6700150
  39.7346680 122.8568030 146.9473720  39.3761620 123.5221880 147.5347060
  39.4401240 122.0251580 147.3186340  42.9359800 123.3152270 149.8313270
  42.6359940 123.4609450 148.9341090  43.7071040 122.7557560 149.7386660
  48.2788250 128.1121270 147.8268400  48.2932790 127.1802230 147.6087310
  47.5713350 128.1981030 148.4658170  53.4125320 122.2961090 134.0967010
  53.3289040 122.7275310 133.2463450  54.1319510 122.7559440 134.5293830
  54.4899460 124.7528610 147.1736980  53.7647650 125.3457390 146.9766370
  55.0174920 124.7452150 146.3750350  54.4412570 129.1503350 136.8249140
  53.7988730 128.4958970 137.0992860  54.0543230 129.5558440 136.0489810
  50.0199050 126.4788780 140.6720830  50.3722870 125.8816910 140.0122200
  49.1361380 126.1533010 140.8429080  46.1062330 127.2386470 138.0791240
  46.7933460 127.7855680 138.4598830  45.3194750 127.7827200 138.1140850
  38.2454730 122.8559290 133.5708320  39.1149580 123.1384090 133.8544240
  37.7545050 123.6695160 133.4557130  45.4089540 124.2432500 137.6916600
  45.8652320 125.0537750 137.9176790  45.0577750 123.9255640 138.5235090
  47.7122150 129.7538840 144.9208900  48.3564370 129.9598220 145.5982320
  48.0751590 128.9927240 144.4679750  41.3101320 114.5870150 138.1639120
  41.1815950 114.5788050 139.1124040  40.4863340 114.9253240 137.8130130
  48.9854230 127.7571190 143.6386350  49.6276460 127.0564350 143.7518520
  49.5103580 128.5369630 143.4583240  52.8309950 128.0419810 133.3625490
  52.6047530 127.3250250 133.9550130  52.4406150 127.7932250 132.5247240
  50.7591850 128.5566090 146.8422410  51.0948090 129.1432780 147.5200330
  49.8392190 128.4258800 147.0720200  38.6125980 132.0686670 134.1369950
  38.9723620 132.6676010 133.4827220  38.4718320 132.6146560 134.9104980
  38.3095250 116.3461270 147.6245820  37.5953770 116.5458190 148.2298430
  38.7290290 115.5700840 147.9960620  52.4126200 125.9591750 135.0239650
  52.1247900 126.4204440 135.8117530  53.2078370 125.4989520 135.2923870
  38.5967840 130.3341530 148.6112350  38.7058960 129.3936270 148.4707740
  37.9448400 130.5996280 147.9626080  44.6294600 129.4517870 134.9543620
  44.6204700 130.1847560 134.3388130  43.7092960 129.2049450 135.0470580
  40.2301240 124.6732760 135.6990380  39.6229190 125.4131660 135.7085680
  40.7050590 124.7632120 134.8728580  49.8034030 118.8383580 145.3747270
  50.1714850 118.0178790 145.7026840  48.9432230 118.8985470 145.7902920
  53.1696060 117.7940520 136.1834830  52.5409220 117.8986190 135.4693060
  52.6747980 118.0137300 136.9728710  47.6154200 129.5146110 133.6168810
  47.7166180 129.3110100 132.6870790  46.7155940 129.2604390 133.8216590
  45.1380090 120.0726470 137.5992710  44.4296240 120.5412810 138.0406320
  45.4224570 119.4148480 138.2337900  46.7636020 121.4923170 145.5985240
  47.2621270 121.9668990 146.2637090  46.9058970 120.5686690 145.8055270
  49.1695520 116.7977130 139.0388500  49.0463300 116.8163260 138.0898010
  50.1180080 116.8456070 139.1586900  46.2572310 132.0332430 138.3116480
  46.5113810 131.9953820 137.3895850  45.3084790 131.9065760 138.3044730
  43.3415110 118.3811550 134.9743420  44.1905640 118.8181700 134.9083610
  42.9746380 118.6931810 135.8015480  53.9702880 117.7091130 146.4413630
  53.4676480 118.4496530 146.7807440  54.7859540 118.0975130 146.1250420
  52.2624890 122.9524310 139.8874990  51.3215030 122.9674540 140.0622680
  52.5768960 122.1660270 140.3335290  42.2406530 124.6343910 133.4478950
  43.0069800 124.5225270 134.0104380  42.3181220 123.9381880 132.7955720
  40.9353290 122.0668980 134.1311840  41.0156880 121.1196490 134.2429240
  41.8273040 122.3975860 134.2372500  54.2650470 130.1233160 141.5629250
  54.3897890 130.9464330 142.0353060  55.1316030 129.9123890 141.2153400
  41.7368000 132.2164370 141.2346380  42.4730480 131.6679830 141.5054950
  42.1208920 133.0820380 141.0952370  38.6213480 128.2837940 137.1087890
  37.6953260 128.5259080 137.0993300  39.0869910 129.1112200 136.9872640
  44.8470310 131.3894680 133.0571950  45.6398920 131.6783510 132.6053740
  44.3274660 130.9586850 132.3784430  51.0091280 131.2370600 148.9816780
  51.9613030 131.1528620 148.9317020  50.8619500 131.9012310 149.6550570
  53.9000480 130.6164810 134.4808690  53.6141990 130.2029950 133.6662870
  53.7020030 131.5452520 134.3609210  38.4624090 123.8883900 149.3668010
  38.9663110 123.3091180 149.9384240  37.7231510 124.1724130 149.9044380
  45.3647710 126.6098090 132.9214300  45.2598350 125.9950440 133.6475680
  45.1971930 126.0863980 132.1377310  45.5162030 125.2954890 148.9003530
  44.7507700 125.8639890 148.8158200  45.6977990 125.0031100 148.0071760
  48.6050440 125.6718120 133.5256290  48.0560540 126.1187420 134.1699030
  49.2269700 125.1667370 134.0493960  52.6585380 127.0260220 149.4578550
  53.3994850 127.3635980 148.9546010  51.8958060 127.1952280 148.9048320
  44.2725560 124.6309040 135.4221590  44.6941980 124.4648910 136.2652980
  44.3976400 123.8209270 134.9276730  42.4352980 120.6105590 148.2292570
  41.9049440 120.1196540 147.6015910  43.1041050 121.0389790 147.6950500
  46.7853200 123.6546650 132.6698690  47.3058860 122.9395670 132.3039840
  47.4321600 124.2932520 132.9699200  51.3331040 125.0775050 147.9933760
  51.7472060 125.2320130 148.8424180  50.3982040 125.2030270 148.1559540
  51.8053210 122.4171210 149.9972910  52.3873980 121.6623530 149.9093390
  51.9814980 122.9478650 149.2204390  42.9225280 117.5767960 148.3089860
  42.8282150 116.9588710 147.5840730  42.3422670 118.3034250 148.0819770
  45.6886720 116.1341200 145.3417250  45.2404020 116.1565460 144.4962800
  45.0551920 115.7360220 145.9387550  46.0946270 125.0295530 145.9629690
  46.5134380 125.8728260 145.7905930  45.1754900 125.1667570 145.7336470
  48.4310170 122.7611710 147.3467530  48.5506380 122.1652850 148.0862370
  49.2904170 122.7981400 146.9268830  50.7698070 123.3148900 145.9230040
  50.2433290 123.8391520 145.3195180  51.1129410 123.9476290 146.5539770
  43.1684460 120.7042270 132.3679750  42.9673520 119.8409630 132.7293090
  42.9976510 120.6175630 131.4301350  43.9453690 131.3348540 147.0787420
  43.4074780 132.0594600 146.7596120  44.1987650 130.8578880 146.2884760
  45.1978940 119.3033060 148.6043350  45.7878630 118.9948910 149.2921170
  44.3799180 118.8312810 148.7603250  50.0172370 118.9198870 148.8376370
  49.3287890 118.2580410 148.7726360  50.7378390 118.4737140 149.2824830
  50.6472770 115.5150500 134.8966630  50.9275060 114.6718400 135.2526050
  49.8738500 115.7473610 135.4105380  41.9667260 117.8042890 132.3557630
  42.2693160 117.8110320 131.4476780  42.7061850 117.4540750 132.8525290
  46.8015900 132.5699750 147.3374070  46.7274600 133.4734890 147.6446440
  45.8994740 132.2511650 147.3096140  45.1852190 116.7477510 133.3413830
  44.8374190 116.0701500 132.7616280  45.3864960 116.2867020 134.1557220
  47.3501230 131.7358260 134.9600430  48.2452020 132.0743230 134.9819190
  47.3818860 131.0137670 134.3324710  40.9897390 127.1085310 133.1887430
  41.4272260 127.6514980 133.8445010  41.4745120 126.2832260 133.1983770
  38.2043190 129.8974340 140.6407690  38.5346200 129.0295400 140.4086330
  38.6334190 130.1032860 141.4712650  42.8005110 128.2283350 138.3009660
  42.5000650 128.1048320 139.2013570  42.6942600 127.3691940 137.8925390
  38.6933400 130.7644930 143.3789320  38.2564390 130.9445730 144.2113470
  39.2611080 131.5219550 143.2371040  54.3295580 130.2661930 147.6666630
  53.7297570 130.3254490 146.9230550  54.4589480 129.3266910 147.7963480
  55.5697030 128.0079750 133.0036340  54.7389990 128.0756400 133.4743570
  55.7468860 128.8983870 132.7003200  55.0253490 124.7527230 135.5070540
  55.7872400 125.3223880 135.6130230  55.0407860 124.1854430 136.2778850
  38.5257830 123.2765160 139.7378200  37.8706670 123.0076800 139.0937900
  39.3635780 123.1669640 139.2880180  56.0313460 125.6077330 140.3512470
  56.4022290 124.8244650 139.9448440  56.6715390 126.2966430 140.1729770
  53.0147220 126.9913910 145.7642790  52.2007060 127.4211070 146.0268580
  53.4221420 127.6032320 145.1511840  55.0772660 125.0461600 132.6643060
  55.3521500 125.9540480 132.5362280  54.8883400 124.9824130 133.6005050
  51.4748270 118.0706450 133.9596690  51.8933150 117.8837430 133.1193350
  51.1684330 117.2185500 134.2699620  54.9738000 122.9830590 137.6572490
  54.5981600 122.2158520 137.2253780  54.2441120 123.3653290 138.1447420
  39.5633760 123.6617730 144.2781540  39.9306800 123.5745130 145.1577560
  38.9944580 122.8984280 144.1788400  54.3637620 122.1302110 147.2912010
  54.1323710 121.9014860 146.3909960  54.6242170 123.0501660 147.2456900
  39.1149760 120.5726820 148.1839960  38.2205810 120.5393580 148.5233670
  39.6547310 120.7713610 148.9491210  37.7395910 120.4864090 135.6803530
  36.8359990 120.7494290 135.5055190  38.2236530 120.7575260 134.9003490
  54.2488960 121.2088080 140.9579730  54.7726440 120.7150730 140.3269900
  54.8348380 121.3438440 141.7027300  54.4278680 121.2927950 144.4799280
  53.4781390 121.2591490 144.5944270  54.6091690 122.2028060 144.2449050
  40.2823120 119.5429630 133.5897910  40.9914820 119.1212850 133.1045190
  39.5663060 119.6104860 132.9581260  39.9297280 115.5968960 132.6300560
  40.6525410 116.1377900 132.9481780  40.2021800 115.3232380 131.7542100
  53.7388930 120.4661430 136.8972140  54.2348050 120.2332300 137.6821020
  53.5405000 119.6273270 136.4809780  39.6189470 114.8475150 142.5323180
  40.2665660 114.2972530 142.0918340  40.0391310 115.1018300 143.3538990
  55.1676090 119.1022380 139.4309820  55.0575370 118.9478420 140.3692090
  55.9283680 118.5743320 139.1885230  53.5141810 115.0416510 145.8892820
  54.1514030 115.6550650 146.2552010  53.6616700 115.0777170 144.9442050
  56.0566360 116.9330300 132.6715960  56.9815670 116.8011480 132.4634250
  56.0342150 117.0123120 133.6252410  56.1304850 117.7040960 135.2972670
  55.3356350 117.6386080 135.8265580  56.3348130 118.6391600 135.2858020
  53.0723270 131.7432510 139.2911060  53.6682340 131.4217080 138.6145480
  53.3301420 131.2704330 140.0824330  39.3721470 115.0030820 145.2748500
  39.0236290 115.4594640 146.0406680  39.0409170 114.1087950 145.3570930
  44.6791870 129.7310010 145.0411410  44.4383230 129.9984570 144.1541930
  45.6194510 129.9015740 145.0962270  46.8846290 116.1942700 148.7967920
  46.8235180 116.7864530 149.5463330  47.8246670 116.0868660 148.6518180
  49.5220850 115.8512760 148.4360210  50.1361260 116.1692050 147.7741290
  50.0670410 115.3661350 149.0556070  55.9396030 131.7504390 145.8422050
  55.4454310 132.1473260 145.1249180  55.3309320 131.1253600 146.2359330
  40.0442110 114.5307020 148.5499270  40.5925100 114.3495070 147.7865380
  40.1097420 113.7401130 149.0855580  40.8173870 131.1212670 146.5599470
  40.2234190 130.9897370 147.2989510  40.8097710 130.2850810 146.0941570
  50.2628890 114.4144900 144.7629500  49.3888730 114.7480010 144.5602430
  50.1539640 113.9418080 145.5881370  51.1700870 116.6215770 146.1471220
  50.8414230 115.8067530 145.7672950  52.1183170 116.5785580 146.0236910
  53.6235480 132.3927810 143.1208790  53.1638450 133.1443620 142.7466810
  52.9947940 131.6734280 143.0623590  40.4486100 128.4871050 145.5107510
  39.7220160 127.8676340 145.4433460  40.5095250 128.8811660 144.6405590
  44.0531200 130.7016050 142.2956920  44.5696220 130.0903410 141.7705180
  44.7028580 131.2044830 142.7867930  46.7926700 131.5924540 143.1225900
  47.0804510 131.3378840 142.2458910  47.3049920 131.0401900 143.7131470
  48.0103710 115.3314740 143.7022410  47.2275500 115.8060240 143.9819170
  47.7166640 114.4269570 143.5935590  52.5624780 116.0337840 141.7471500
  53.0032870 115.9782940 140.8993100  52.2932370 116.9495850 141.8181680
  54.4263350 115.6653080 139.7580320  54.3651750 114.7214300 139.6111340
  55.2055380 115.7733170 140.3033780  38.7316100 131.8045440 138.7204270
  38.5638140 131.1716120 139.4186160  37.8650610 132.0104840 138.3698460
  39.3544120 115.6362220 136.2236130  40.1123480 115.7491100 135.6500160
  38.8921290 116.4731420 136.1779560  45.8957930 117.7501490 139.2138440
  45.0832440 117.3758380 138.8734320  46.3999570 116.9946570 139.5159630
  50.3982910 114.4143940 140.4521510  51.0012280 114.9864150 140.9270030
  49.6575900 114.9783380 140.2295410  53.5417510 114.8165500 135.7261790
  53.7368140 115.7148950 135.9929220  52.7547380 114.5852580 136.2194740
  40.3378800 130.4978670 136.1654410  39.8126420 130.8786700 135.4616370
  40.2623380 131.1229440 136.8864120  41.7269270 116.1626270 134.7638100
  42.2562030 115.3756070 134.6346050  42.3597590 116.8417460 134.9973630
  43.9207110 115.9001410 137.8183490  43.2909850 115.1988720 137.9853620
  43.3812250 116.6605540 137.6016650  55.0944120 132.0566210 137.4868350
  55.2696310 131.3703950 136.8429270  54.3965690 132.5813260 137.0945020
  42.9371770 132.4461050 135.0403660  43.6690590 132.1620330 134.4927550
  43.1965440 132.2074330 135.9303040  42.0986560 128.5625780 135.0449990
  41.4695440 129.0310880 135.5935820  42.2134390 127.7175000 135.4796180
  49.5536280 122.6131440 121.1951190  49.4730330 121.6986050 120.9242900
  49.1400700 123.1098510 120.4890900  47.6854320 124.3910460 123.0760460
  46.9096420 123.9110900 123.3659030  48.3367250 123.7116110 122.9016620
  41.7020150 124.7030270 123.9536220  40.8705030 124.4478980 124.3532730
  42.3101130 124.7741040 124.6894140  51.7061750 128.7970650 121.8559590
  51.2443280 128.0257890 122.1846760  52.5187300 128.8236720 122.3612040
  41.6821410 128.7370360 124.1494240  41.9849450 127.8468100 123.9704460
  42.4265000 129.2940580 123.9216490  40.1112100 119.6632160 117.7378610
  39.2228800 120.0048130 117.6358490  40.3953290 119.4632480 116.8459440
  38.0745110 122.2637810 123.6218310  38.6461220 121.4960010 123.6221950
  38.0746650 122.5626570 122.7124920  47.9325060 131.0828660 121.4763580
  47.3136500 131.5386160 120.9058020  48.7876840 131.2380120 121.0753280
  47.1263310 127.0667650 123.0830620  47.0571590 126.1257590 122.9219750
  47.8883170 127.1569060 123.6553190  39.3169980 117.6722170 125.4087240
  39.1372820 116.7747920 125.6890000  38.9150060 118.2194040 126.0834190
  48.1568480 119.8738030 123.3099550  48.5333300 119.0009910 123.1973220
  48.0587990 120.2096730 122.4189990  42.2873490 118.2463660 118.7716990
  42.3940240 119.1467390 119.0785750  41.3765850 118.1981630 118.4811640
  39.9356650 120.1682670 124.0169580  40.6166760 120.4321040 124.6356980
  39.6204700 119.3283540 124.3507590  44.1281220 121.2150030 123.1042170
  44.6359440 121.7131000 123.7447190  44.6594460 120.4385230 122.9281530
  56.2292150 119.3855220 126.8071520  55.5244320 119.7736930 126.2886630
  56.4950070 120.0805510 127.4092450  42.4117320 115.8548590 127.3705590
  42.4135760 116.3720980 126.5651490  41.5821630 115.3778770 127.3475520
  48.7988410 125.9667900 118.8695490  48.1805680 126.4317350 118.3058210
  49.3111660 126.6595380 119.2865000  43.6620170 125.4943770 125.5479090
  43.3289550 126.1212690 126.1900160  43.8386850 126.0205650 124.7680760
  52.1754080 119.3088850 123.0155430  51.4709650 119.5973740 123.5958540
  52.5366240 120.1188960 122.6554990  42.0932650 117.5658550 125.3776040
  42.4349460 118.4100600 125.0829910  41.1548460 117.7142290 125.4941380
  42.8739270 127.4624570 127.3628270  43.4913270 128.1375650 127.0812720
  42.0132390 127.8712550 127.2715770  38.1671610 126.6524430 116.2435120
  37.7899590 127.1411530 115.5120020  38.4244680 127.3249710 116.8741650
  53.7916860 128.9263980 125.2782910  53.1080380 129.5963090 125.2699580
  54.3311150 129.1244630 124.5127770  55.2441000 118.7543640 123.4064640
  54.2965910 118.7882620 123.5380070  55.5690990 119.5682590 123.7914000
  45.7760540 115.0540820 121.7020630  46.0835520 114.4987710 120.9856130
  44.8461240 115.1885280 121.5193620  51.3275600 130.7708110 123.9928090
  51.3402760 130.3670400 123.1250350  50.7750820 131.5455400 123.8889520
  52.6221020 127.4924330 119.0818260  52.5117350 126.5498660 119.2067680
  52.6189270 127.8539970 119.9681020  50.7261040 125.6737950 125.3210700
  51.1429830 125.4598060 124.4864160  51.4500860 125.9310740 125.8919320
  48.1641300 123.1189650 118.4380750  47.2370580 123.0527030 118.6669220
  48.3166120 124.0569780 118.3235990  48.1510380 119.3906650 115.4347910
  47.2114050 119.5520610 115.5200370  48.4693640 120.1092330 114.8883900
  54.6723140 124.0725170 125.4126940  53.8441770 124.1418260 124.9377070
  55.2673620 124.6579480 124.9442770  52.1938590 124.6809950 118.9416000
  51.5751010 124.3429500 118.2942300  52.1763040 124.0369710 119.6495190
  51.6365150 120.8594490 126.3581810  51.2236330 121.6848200 126.6121800
  50.9041100 120.2739530 126.1658170  43.7697940 123.6454390 121.2200480
  43.3654940 122.9331640 120.7246380  43.8561060 123.3007630 122.1088520
  44.2379640 127.3321950 123.3839690  43.9407930 126.7267420 122.7047470
  45.1879460 127.3699260 123.2729050  42.4826560 120.4197600 124.9999520
  43.0341150 120.5292940 124.2252770  42.9970070 120.7935200 125.7154750
  52.3265250 130.9053820 127.0462790  51.8495810 131.7126010 126.8535400
  51.6427040 130.2532150 127.1989000  43.3298070 127.0703640 130.0347490
  42.4326600 127.2943610 130.2820890  43.3550940 127.1938580 129.0858890
  50.3703290 123.9196760 115.9488750  50.8096570 123.0819190 115.8026570
  51.0831710 124.5526160 116.0352890  42.1569290 123.9416960 128.6104860
  42.0177060 124.8139760 128.9792260  41.2750650 123.5989770 128.4652800
  48.4798670 128.8592830 119.9169990  48.9194580 129.6017160 119.5025380
  48.4185560 129.1019400 120.8408950  43.9549640 129.8838660 130.8190010
  43.9265070 130.2881610 129.9518440  43.7914610 128.9549020 130.6561610
  40.4702570 122.5399370 118.7207130  40.3500170 123.2661460 118.1088400
  40.1603460 121.7702280 118.2435040  55.9064460 130.6665760 132.1154180
  56.3824180 131.1448650 132.7943260  56.5271620 130.5983250 131.3899680
  38.1087940 125.7114510 124.5275770  38.1868360 125.8463280 123.5831490
  38.7229620 125.0030400 124.7203890  39.3535570 127.4114700 120.9381950
  38.9463650 127.5529290 120.0835550  40.2448580 127.1274860 120.7353160
  55.3097710 127.8578610 129.2754190  55.4360770 127.6190490 128.3571370
  55.3519090 127.0263150 129.7476270  49.1714450 131.5606610 127.8449000
  49.6859120 131.4714620 128.6471430  48.3283530 131.9066310 128.1376910
  51.1468850 131.8461950 117.2733000  50.9869990 131.5564890 118.1714830
  50.9815560 131.0702080 116.7378230  43.6257230 131.6260480 119.0504620
  43.4499710 130.7096020 118.8372420  42.7712970 131.9847770 119.2902420
  50.8494980 129.3549510 115.8331000  50.1560140 129.3526800 115.1733280
  51.5917840 128.9308830 115.4025170  50.4144910 130.9812220 119.9079490
  50.8701860 130.2001600 120.2218110  50.7537430 131.6919040 120.4520670
  55.1621720 119.9111070 130.2403930  54.5465990 120.4190740 129.7119390
  54.8418140 119.0109400 130.1829870  38.1647460 126.7528680 127.0670230
  38.3278500 126.2834040 126.2489600  38.6299910 126.2452240 127.7319070
  42.9366230 115.8834440 122.1030800  42.4934380 116.6643980 121.7715320
  43.4951220 116.2064330 122.8101740  47.2236040 118.7502960 127.7066120
  46.7615410 118.9585980 128.5186060  46.8214150 117.9362310 127.4036790
  52.2240550 119.9711910 128.8362780  51.3734140 119.6717660 129.1571850
  52.0642340 120.2153920 127.9246600  49.3190260 121.4713660 130.9361570
  49.6443670 120.6377410 130.5963800  50.1070590 121.9942180 131.0839900
  46.0525050 115.5045140 116.9836630  45.4279230 115.5005010 117.7089940
  45.9655170 114.6376100 116.5872600  44.9742130 116.4281770 123.9620400
  45.2714460 117.3344600 123.8812420  45.5227690 115.9400550 123.3479970
  42.7280450 121.0068010 119.8312050  42.5021370 120.7905180 120.7358670
  41.9472980 121.4396470 119.4858020  49.9578210 121.0131380 118.4302700
  49.3587100 121.7367180 118.2466320  50.5057820 120.9508160 117.6479150
  45.1679660 121.9053590 130.4972320  45.0723260 120.9648320 130.3472720
  46.0111640 122.1268660 130.1020390  48.5643080 119.6494920 120.4605980
  48.9572650 119.9667120 119.6474670  48.9259930 118.7706800 120.5750500
  40.2990200 118.3167260 128.6506100  39.9053590 119.1642470 128.8578880
  39.6108600 117.6793630 128.8414740  46.8735250 118.4002230 131.7202840
  46.1833570 118.2074430 132.3548930  47.6167550 118.6836870 132.2527140
  37.6007250 116.2395720 122.6836180  37.3120300 116.8098580 123.3961160
  38.3453010 115.7600170 123.0467410  37.7877480 120.1815840 113.8938900
  37.7052150 121.1246600 114.0353890  37.4360540 120.0390750 113.0151250
  49.1498220 122.2400670 124.5556760  48.4179340 122.7487480 124.9046860
  48.7522560 121.4230650 124.2545540  45.5875610 118.9154870 122.9609250
  45.5911670 118.4744820 122.1113790  46.4826730 119.2372200 123.0681070
  41.4377990 118.7981360 121.9203460  41.0978040 119.2756590 122.6770510
  40.6755310 118.3446480 121.5604560  45.6495760 119.9166950 115.9516010
  45.7708580 119.8753430 116.9001830  45.2644270 120.7791100 115.7962740
  49.6124130 117.6934350 123.9679700  49.6296870 118.1443000 124.8121550
  49.3639710 116.7939990 124.1813140  44.6617260 122.2268090 115.3499310
  44.0934160 121.7786340 114.7235220  45.3706260 122.5860870 114.8164460
  53.0394880 115.1066530 129.8066080  53.3640650 114.3756190 130.3324060
  53.0751390 114.7880170 128.9047070  39.7386440 126.1280110 129.2266040
  39.3541230 125.4873780 129.8249000  40.0498630 126.8316230 129.7960770
  45.8883580 122.9756650 124.7074660  46.2553710 122.5015220 125.4536000
  45.6988640 123.8498220 125.0483000  38.7524070 117.7200340 120.8368130
  38.4670990 117.3556010 121.6746750  38.6902930 116.9880800 120.2231270
  43.6782950 122.0165290 127.0258870  43.3740020 122.8957270 127.2509230
  44.6329410 122.0765080 127.0616310  42.2064740 126.2226280 117.6225720
  41.4327000 125.6823900 117.4624440  42.9359370 125.7032890 117.2843480
  52.9652720 125.2191640 123.4152110  53.6851840 125.7146930 123.0248220
  52.7634540 124.5409530 122.7705980  48.4262660 116.6129600 117.5581500
  47.6127270 116.1142770 117.4826810  48.2324610 117.4527850 117.1417850
  48.3471520 125.2900700 129.3021110  48.2808830 124.3696370 129.0478700
  47.7176660 125.3876140 130.0165750  51.1411050 120.9849250 115.8543660
  52.0290670 121.2966480 115.6795000  51.1116140 120.1121500 115.4624240
  42.2502140 125.8906660 121.2604530  42.7680810 125.0874920 121.2061420
  41.7986160 125.8285800 122.1021360  47.1371640 127.1572940 116.5331830
  47.4787340 127.9015170 116.0375150  46.3084350 127.4704060 116.8956660
  39.7346680 122.8568030 128.1730230  39.3761620 123.5221880 128.7603570
  39.4401240 122.0251580 128.5442850  42.9359800 123.3152270 131.0569780
  42.6359940 123.4609450 130.1597600  43.7071040 122.7557560 130.9643170
  48.2788250 128.1121270 129.0524910  48.2932790 127.1802230 128.8343820
  47.5713350 128.1981030 129.6914680  53.4125320 122.2961090 115.3223520
  53.3289040 122.7275310 114.4719960  54.1319510 122.7559440 115.7550340
  54.4899460 124.7528610 128.3993490  53.7647650 125.3457390 128.2022880
  55.0174920 124.7452150 127.6006860  54.4412570 129.1503350 118.0505650
  53.7988730 128.4958970 118.3249370  54.0543230 129.5558440 117.2746320
  50.0199050 126.4788780 121.8977340  50.3722870 125.8816910 121.2378710
  49.1361380 126.1533010 122.0685590  46.1062330 127.2386470 119.3047750
  46.7933460 127.7855680 119.6855340  45.3194750 127.7827200 119.3397360
  38.2454730 122.8559290 114.7964830  39.1149580 123.1384090 115.0800750
  37.7545050 123.6695160 114.6813640  45.4089540 124.2432500 118.9173110
  45.8652320 125.0537750 119.1433300  45.0577750 123.9255640 119.7491600
  47.7122150 129.7538840 126.1465410  48.3564370 129.9598220 126.8238830
  48.0751590 128.9927240 125.6936260  41.3101320 114.5870150 119.3895630
  41.1815950 114.5788050 120.3380550  40.4863340 114.9253240 119.0386640
  48.9854230 127.7571190 124.8642860  49.6276460 127.0564350 124.9775030
  49.5103580 128.5369630 124.6839750  52.8309950 128.0419810 114.5882000
  52.6047530 127.3250250 115.1806640  52.4406150 127.7932250 113.7503750
  50.7591850 128.5566090 128.0678920  51.0948090 129.1432780 128.7456840
  49.8392190 128.4258800 128.2976710  38.6125980 132.0686670 115.3626460
  38.9723620 132.6676010 114.7083730  38.4718320 132.6146560 116.1361490
  38.3095250 116.3461270 128.8502330  37.5953770 116.5458190 129.4554940
  38.7290290 115.5700840 129.2217130  52.4126200 125.9591750 116.2496160
  52.1247900 126.4204440 117.0374040  53.2078370 125.4989520 116.5180380
  38.5967840 130.3341530 129.8368860  38.7058960 129.3936270 129.6964250
  37.9448400 130.5996280 129.1882590  46.5880430 128.6057420 131.2366980
  46.2677300 127.8866660 131.7812670  45.9138790 129.2812490 131.3103040
  44.6294600 129.4517870 116.1800130  44.6204700 130.1847560 115.5644640
  43.7092960 129.2049450 116.2727090  40.2301240 124.6732760 116.9246890
  39.6229190 125.4131660 116.9342190  40.7050590 124.7632120 116.0985090
  49.8034030 118.8383580 126.6003780  50.1714850 118.0178790 126.9283350
  48.9432230 118.8985470 127.0159430  47.6154200 129.5146110 114.8425320
  47.7166180 129.3110100 113.9127300  46.7155940 129.2604390 115.0473100
  45.1380090 120.0726470 118.8249220  44.4296240 120.5412810 119.2662830
  45.4224570 119.4148480 119.4594410  46.7636020 121.4923170 126.8241750
  47.2621270 121.9668990 127.4893600  46.9058970 120.5686690 127.0311780
  49.1695520 116.7977130 120.2645010  49.0463300 116.8163260 119.3154520
  50.1180080 116.8456070 120.3843410  46.2572310 132.0332430 119.5372990
  46.5113810 131.9953820 118.6152360  45.3084790 131.9065760 119.5301240
  43.3415110 118.3811550 116.1999930  44.1905640 118.8181700 116.1340120
  42.9746380 118.6931810 117.0271990  53.9702880 117.7091130 127.6670140
  53.4676480 118.4496530 128.0063950  54.7859540 118.0975130 127.3506930
  52.2624890 122.9524310 121.1131500  51.3215030 122.9674540 121.2879190
  52.5768960 122.1660270 121.5591800  42.2406530 124.6343910 114.6735460
  43.0069800 124.5225270 115.2360890  42.3181220 123.9381880 114.0212230
  40.9353290 122.0668980 115.3568350  41.0156880 121.1196490 115.4685750
  41.8273040 122.3975860 115.4629010  54.2650470 130.1233160 122.7885760
  54.3897890 130.9464330 123.2609570  55.1316030 129.9123890 122.4409910
  41.7368000 132.2164370 122.4602890  42.4730480 131.6679830 122.7311460
  42.1208920 133.0820380 122.3208880  38.6213480 128.2837940 118.3344400
  37.6953260 128.5259080 118.3249810  39.0869910 129.1112200 118.2129150
  40.7426280 131.4010440 131.6488470  41.5439010 131.7222490 132.0623870
  40.2278100 131.0406020 132.3708380  44.8470310 131.3894680 114.2828460
  45.6398920 131.6783510 113.8310250  44.3274660 130.9586850 113.6040940
  49.5790910 127.5090310 131.5963880  48.9729070 127.5321910 130.8559630
  49.2745020 126.7773350 132.1331130  51.0091280 131.2370600 130.2073290
  51.9613030 131.1528620 130.1573530  50.8619500 131.9012310 130.8807080
  53.9000480 130.6164810 115.7065200  53.6141990 130.2029950 114.8919380
  53.7020030 131.5452520 115.5865720  38.4624090 123.8883900 130.5924520
  38.9663110 123.3091180 131.1640750  37.7231510 124.1724130 131.1300890
  45.3647710 126.6098090 114.1470810  45.2598350 125.9950440 114.8732190
  45.1971930 126.0863980 113.3633820  45.5162030 125.2954890 130.1260040
  44.7507700 125.8639890 130.0414710  45.6977990 125.0031100 129.2328270
  48.6050440 125.6718120 114.7512800  48.0560540 126.1187420 115.3955540
  49.2269700 125.1667370 115.2750470  52.6585380 127.0260220 130.6835060
  53.3994850 127.3635980 130.1802520  51.8958060 127.1952280 130.1304830
  40.4947170 122.0313490 131.4874590  40.5352510 121.7327360 132.3959820
  41.3492670 122.4321100 131.3282110  44.2725560 124.6309040 116.6478100
  44.6941980 124.4648910 117.4909490  44.3976400 123.8209270 116.1533240
  42.4352980 120.6105590 129.4549080  41.9049440 120.1196540 128.8272420
  43.1041050 121.0389790 128.9207010  46.7853200 123.6546650 113.8955200
  47.3058860 122.9395670 113.5296350  47.4321600 124.2932520 114.1955710
  51.3331040 125.0775050 129.2190270  51.7472060 125.2320130 130.0680690
  50.3982040 125.2030270 129.3816050  51.8053210 122.4171210 131.2229420
  52.3873980 121.6623530 131.1349900  51.9814980 122.9478650 130.4460900
  42.9225280 117.5767960 129.5346370  42.8282150 116.9588710 128.8097240
  42.3422670 118.3034250 129.3076280  45.6886720 116.1341200 126.5673760
  45.2404020 116.1565460 125.7219310  45.0551920 115.7360220 127.1644060
  46.0946270 125.0295530 127.1886200  46.5134380 125.8728260 127.0162440
  45.1754900 125.1667570 126.9592980  48.4310170 122.7611710 128.5724040
  48.5506380 122.1652850 129.3118880  49.2904170 122.7981400 128.1525340
  50.7698070 123.3148900 127.1486550  50.2433290 123.8391520 126.5451690
  51.1129410 123.9476290 127.7796280  43.1684460 120.7042270 113.5936260
  42.9673520 119.8409630 113.9549600  42.9976510 120.6175630 112.6557860
  43.9453690 131.3348540 128.3043930  43.4074780 132.0594600 127.9852630
  44.1987650 130.8578880 127.5141270  45.1978940 119.3033060 129.8299860
  45.7878630 118.9948910 130.5177680  44.3799180 118.8312810 129.9859760
  50.0172370 118.9198870 130.0632880  49.3287890 118.2580410 129.9982870
  50.7378390 118.4737140 130.5081340  50.6472770 115.5150500 116.1223140
  50.9275060 114.6718400 116.4782560  49.8738500 115.7473610 116.6361890
  41.9667260 117.8042890 113.5814140  42.2693160 117.8110320 112.6733290
  42.7061850 117.4540750 114.0781800  46.8015900 132.5699750 128.5630580
  46.7274600 133.4734890 128.8702950  45.8994740 132.2511650 128.5352650
  45.1852190 116.7477510 114.5670340  44.8374190 116.0701500 113.9872790
  45.3864960 116.2867020 115.3813730  47.3501230 131.7358260 116.1856940
  48.2452020 132.0743230 116.2075700  47.3818860 131.0137670 115.5581220
  40.9897390 127.1085310 114.4143940  41.4272260 127.6514980 115.0701520
  41.4745120 126.2832260 114.4240280  38.2043190 129.8974340 121.8664200
  38.5346200 129.0295400 121.6342840  38.6334190 130.1032860 122.6969160
  42.8005110 128.2283350 119.5266170  42.5000650 128.1048320 120.4270080
  42.6942600 127.3691940 119.1181900  38.6933400 130.7644930 124.6045830
  38.2564390 130.9445730 125.4369980  39.2611080 131.5219550 124.4627550
  54.3295580 130.2661930 128.8923140  53.7297570 130.3254490 128.1487060
  54.4589480 129.3266910 129.0219990  55.5697030 128.0079750 114.2292850
  54.7389990 128.0756400 114.7000080  55.7468860 128.8983870 113.9259710
  55.0253490 124.7527230 116.7327050  55.7872400 125.3223880 116.8386740
  55.0407860 124.1854430 117.5035360  38.5257830 123.2765160 120.9634710
  37.8706670 123.0076800 120.3194410  39.3635780 123.1669640 120.5136690
  56.0313460 125.6077330 121.5768980  56.4022290 124.8244650 121.1704950
  56.6715390 126.2966430 121.3986280  53.0147220 126.9913910 126.9899300
  52.2007060 127.4211070 127.2525090  53.4221420 127.6032320 126.3768350
  55.0772660 125.0461600 113.8899570  55.3521500 125.9540480 113.7618790
  54.8883400 124.9824130 114.8261560  51.4748270 118.0706450 115.1853200
  51.8933150 117.8837430 114.3449860  51.1684330 117.2185500 115.4956130
  39.5633760 123.6617730 125.5038050  39.9306800 123.5745130 126.3834070
  38.9944580 122.8984280 125.4044910  54.3637620 122.1302110 128.5168520
  54.1323710 121.9014860 127.6166470  54.6242170 123.0501660 128.4713410
  39.1149760 120.5726820 129.4096470  38.2205810 120.5393580 129.7490180
  39.6547310 120.7713610 130.1747720  52.8025690 117.3558540 131.2948220
  53.6795870 117.3641940 131.6782220  52.8146530 116.6189380 130.6840570
  37.7395910 120.4864090 116.9060040  36.8359990 120.7494290 116.7311700
  38.2236530 120.7575260 116.1260000  54.2488960 121.2088080 122.1836240
  54.7726440 120.7150730 121.5526410  54.8348380 121.3438440 122.9283810
  54.4278680 121.2927950 125.7055790  53.4781390 121.2591490 125.8200780
  54.6091690 122.2028060 125.4705560  40.2823120 119.5429630 114.8154420
  40.9914820 119.1212850 114.3301700  39.5663060 119.6104860 114.1837770
  39.9297280 115.5968960 113.8557070  40.6525410 116.1377900 114.1738290
  40.2021800 115.3232380 112.9798610  39.6189470 114.8475150 123.7579690
  40.2665660 114.2972530 123.3174850  40.0391310 115.1018300 124.5795500
  53.5141810 115.0416510 127.1149330  54.1514030 115.6550650 127.4808520
  53.6616700 115.0777170 126.1698560  53.0723270 131.7432510 120.5167570
  53.6682340 131.4217080 119.8401990  53.3301420 131.2704330 121.3080840
  39.3721470 115.0030820 126.5005010  39.0236290 115.4594640 127.2663190
  39.0409170 114.1087950 126.5827440  40.9785840 128.1750420 130.6658200
  40.9355470 127.8043330 131.5472660  41.1096850 129.1127990 130.8060020
  44.6791870 129.7310010 126.2667920  44.4383230 129.9984570 125.3798440
  45.6194510 129.9015740 126.3218780  46.8846290 116.1942700 130.0224430
  46.8235180 116.7864530 130.7719840  47.8246670 116.0868660 129.8774690
  49.5220850 115.8512760 129.6616720  50.1361260 116.1692050 128.9997800
  50.0670410 115.3661350 130.2812580  55.9396030 131.7504390 127.0678560
  55.4454310 132.1473260 126.3505690  55.3309320 131.1253600 127.4615840
  40.0442110 114.5307020 129.7755780  40.5925100 114.3495070 129.0121890
  40.1097420 113.7401130 130.3112090  40.8173870 131.1212670 127.7855980
  40.2234190 130.9897370 128.5246020  40.8097710 130.2850810 127.3198080
  50.2628890 114.4144900 125.9886010  49.3888730 114.7480010 125.7858940
  50.1539640 113.9418080 126.8137880  51.1700870 116.6215770 127.3727730
  50.8414230 115.8067530 126.9929460  52.1183170 116.5785580 127.2493420
  53.6235480 132.3927810 124.3465300  53.1638450 133.1443620 123.9723320
  52.9947940 131.6734280 124.2880100  40.4486100 128.4871050 126.7364020
  39.7220160 127.8676340 126.6689970  40.5095250 128.8811660 125.8662100
  44.0531200 130.7016050 123.5213430  44.5696220 130.0903410 122.9961690
  44.7028580 131.2044830 124.0124440  46.7926700 131.5924540 124.3482410
  47.0804510 131.3378840 123.4715420  47.3049920 131.0401900 124.9387980
  48.0103710 115.3314740 124.9278920  47.2275500 115.8060240 125.2075680
  47.7166640 114.4269570 124.8192100  52.5624780 116.0337840 122.9728010
  53.0032870 115.9782940 122.1249610  52.2932370 116.9495850 123.0438190
  38.7316100 131.8045440 119.9460780  38.5638140 131.1716120 120.6442670
  37.8650610 132.0104840 119.5954970  39.3544120 115.6362220 117.4492640
  40.1123480 115.7491100 116.8756670  38.8921290 116.4731420 117.4036070
  45.8957930 117.7501490 120.4394950  45.0832440 117.3758380 120.0990830
  46.3999570 116.9946570 120.7416140  50.3982910 114.4143940 121.6778020
  51.0012280 114.9864150 122.1526540  49.6575900 114.9783380 121.4551920
  40.3378800 130.4978670 117.3910920  39.8126420 130.8786700 116.6872880
  40.2623380 131.1229440 118.1120630  41.7269270 116.1626270 115.9894610
  42.2562030 115.3756070 115.8602560  42.3597590 116.8417460 116.2230140
  43.9207110 115.9001410 119.0440000  43.2909850 115.1988720 119.2110130
  43.3812250 116.6605540 118.8273160  46.8599060 132.5140640 131.7150610
  47.7866370 132.2784910 131.7586570  46.8449490 133.3412640 131.2336640
  55.0944120 132.0566210 118.7124860  55.2696310 131.3703950 118.0685780
  54.3965690 132.5813260 118.3201530  44.0462670 115.1785390 131.4792490
  43.7646940 115.6818990 130.7153310  44.4282370 114.3807140 131.1134620
  42.9371770 132.4461050 116.2660170  43.6690590 132.1620330 115.7184060
  43.1965440 132.2074330 117.1559550  42.0986560 128.5625780 116.2706500
  41.4695440 129.0310880 116.8192330  42.2134390 127.7175000 116.7052690
  50.6478130 114.5938970 132.0572960  50.5343580 114.9133580 132.9524480
  51.4647870 114.9951480 131.7610240  53.4276620 131.7410500 131.5391650
  54.2201940 131.2459730 131.3317610  53.7209770 132.4200640 132.1467260
  41.7020150 124.7030270 105.1792730  40.8705030 124.4478980 105.5789240
  42.3101130 124.7741040 105.9150650  51.7061750 128.7970650 103.0816100
  51.2443280 128.0257890 103.4103270  52.5187300 128.8236720 103.5868550
  41.6821410 128.7370360 105.3750750  41.9849450 127.8468100 105.1960970
  42.4265000 129.2940580 105.1473000  38.0745110 122.2637810 104.8474820
  38.6461220 121.4960010 104.8478460  38.0746650 122.5626570 103.9381430
  47.9325060 131.0828660 102.7020090  47.3136500 131.5386160 102.1314530
  48.7876840 131.2380120 102.3009790  47.1263310 127.0667650 104.3087130
  47.0571590 126.1257590 104.1476260  47.8883170 127.1569060 104.8809700
  39.3169980 117.6722170 106.6343750  39.1372820 116.7747920 106.9146510
  38.9150060 118.2194040 107.3090700  39.9356650 120.1682670 105.2426090
  40.6166760 120.4321040 105.8613490  39.6204700 119.3283540 105.5764100
  56.2292150 119.3855220 108.0328030  55.5244320 119.7736930 107.5143140
  56.4950070 120.0805510 108.6348960  42.4117320 115.8548590 108.5962100
  42.4135760 116.3720980 107.7908000  41.5821630 115.3778770 108.5732030
  48.7988410 125.9667900 100.0952000  48.1805680 126.4317350  99.5314720
  49.3111660 126.6595380 100.5121510  43.6620170 125.4943770 106.7735600
  43.3289550 126.1212690 107.4156670  43.8386850 126.0205650 105.9937270
  52.1754080 119.3088850 104.2411940  51.4709650 119.5973740 104.8215050
  52.5366240 120.1188960 103.8811500  42.0932650 117.5658550 106.6032550
  42.4349460 118.4100600 106.3086420  41.1548460 117.7142290 106.7197890
  42.8739270 127.4624570 108.5884780  43.4913270 128.1375650 108.3069230
  42.0132390 127.8712550 108.4972280  38.1671610 126.6524430  97.4691630
  37.7899590 127.1411530  96.7376530  38.4244680 127.3249710  98.0998160
  53.7916860 128.9263980 106.5039420  53.1080380 129.5963090 106.4956090
  54.3311150 129.1244630 105.7384280  55.2441000 118.7543640 104.6321150
  54.2965910 118.7882620 104.7636580  55.5690990 119.5682590 105.0170510
  51.3275600 130.7708110 105.2184600  51.3402760 130.3670400 104.3506860
  50.7750820 131.5455400 105.1146030  52.6221020 127.4924330 100.3074770
  52.5117350 126.5498660 100.4324190  52.6189270 127.8539970 101.1937530
  48.1641300 123.1189650  99.6637260  47.2370580 123.0527030  99.8925730
  48.3166120 124.0569780  99.5492500  48.1510380 119.3906650  96.6604420
  47.2114050 119.5520610  96.7456880  48.4693640 120.1092330  96.1140410
  52.1938590 124.6809950 100.1672510  51.5751010 124.3429500  99.5198810
  52.1763040 124.0369710 100.8751700  44.2379640 127.3321950 104.6096200
  43.9407930 126.7267420 103.9303980  45.1879460 127.3699260 104.4985560
  42.4826560 120.4197600 106.2256030  43.0341150 120.5292940 105.4509280
  42.9970070 120.7935200 106.9411260  52.3265250 130.9053820 108.2719300
  51.8495810 131.7126010 108.0791910  51.6427040 130.2532150 108.4245510
  43.3298070 127.0703640 111.2604000  42.4326600 127.2943610 111.5077400
  43.3550940 127.1938580 110.3115400  50.3703290 123.9196760  97.1745260
  50.8096570 123.0819190  97.0283080  51.0831710 124.5526160  97.2609400
  42.1569290 123.9416960 109.8361370  42.0177060 124.8139760 110.2048770
  41.2750650 123.5989770 109.6909310  48.4798670 128.8592830 101.1426500
  48.9194580 129.6017160 100.7281890  48.4185560 129.1019400 102.0665460
  43.9549640 129.8838660 112.0446520  43.9265070 130.2881610 111.1774950
  43.7914610 128.9549020 111.8818120  55.9064460 130.6665760 113.3410690
  56.3824180 131.1448650 114.0199770  56.5271620 130.5983250 112.6156190
  38.1087940 125.7114510 105.7532280  38.1868360 125.8463280 104.8088000
  38.7229620 125.0030400 105.9460400  39.3535570 127.4114700 102.1638460
  38.9463650 127.5529290 101.3092060  40.2448580 127.1274860 101.9609670
  55.3097710 127.8578610 110.5010700  55.4360770 127.6190490 109.5827880
  55.3519090 127.0263150 110.9732780  49.1714450 131.5606610 109.0705510
  49.6859120 131.4714620 109.8727940  48.3283530 131.9066310 109.3633420
  51.1468850 131.8461950  98.4989510  50.9869990 131.5564890  99.3971340
  50.9815560 131.0702080  97.9634740  43.6257230 131.6260480 100.2761130
  43.4499710 130.7096020 100.0628930  42.7712970 131.9847770 100.5158930
  50.8494980 129.3549510  97.0587510  50.1560140 129.3526800  96.3989790
  51.5917840 128.9308830  96.6281680  50.4144910 130.9812220 101.1336000
  50.8701860 130.2001600 101.4474620  50.7537430 131.6919040 101.6777180
  55.1621720 119.9111070 111.4660440  54.5465990 120.4190740 110.9375900
  54.8418140 119.0109400 111.4086380  38.1647460 126.7528680 108.2926740
  38.3278500 126.2834040 107.4746110  38.6299910 126.2452240 108.9575580
  47.2236040 118.7502960 108.9322630  46.7615410 118.9585980 109.7442570
  46.8214150 117.9362310 108.6293300  49.3190260 121.4713660 112.1618080
  49.6443670 120.6377410 111.8220310  50.1070590 121.9942180 112.3096410
  46.0525050 115.5045140  98.2093140  45.4279230 115.5005010  98.9346450
  45.9655170 114.6376100  97.8129110  49.9578210 121.0131380  99.6559210
  49.3587100 121.7367180  99.4722830  50.5057820 120.9508160  98.8735660
  45.1679660 121.9053590 111.7228830  45.0723260 120.9648320 111.5729230
  46.0111640 122.1268660 111.3276900  40.2990200 118.3167260 109.8762610
  39.9053590 119.1642470 110.0835390  39.6108600 117.6793630 110.0671250
  46.8735250 118.4002230 112.9459350  46.1833570 118.2074430 113.5805440
  47.6167550 118.6836870 113.4783650  37.6007250 116.2395720 103.9092690
  37.3120300 116.8098580 104.6217670  38.3453010 115.7600170 104.2723920
  37.7877480 120.1815840  95.1195410  37.7052150 121.1246600  95.2610400
  37.4360540 120.0390750  94.2407760  41.4377990 118.7981360 103.1459970
  41.0978040 119.2756590 103.9027020  40.6755310 118.3446480 102.7861070
  53.0394880 115.1066530 111.0322590  53.3640650 114.3756190 111.5580570
  53.0751390 114.7880170 110.1303580  39.7386440 126.1280110 110.4522550
  39.3541230 125.4873780 111.0505510  40.0498630 126.8316230 111.0217280
  38.7524070 117.7200340 102.0624640  38.4670990 117.3556010 102.9003260
  38.6902930 116.9880800 101.4487780  43.6782950 122.0165290 108.2515380
  43.3740020 122.8957270 108.4765740  44.6329410 122.0765080 108.2872820
  42.2064740 126.2226280  98.8482230  41.4327000 125.6823900  98.6880950
  42.9359370 125.7032890  98.5099990  48.3471520 125.2900700 110.5277620
  48.2808830 124.3696370 110.2735210  47.7176660 125.3876140 111.2422260
  51.1411050 120.9849250  97.0800170  52.0290670 121.2966480  96.9051510
  51.1116140 120.1121500  96.6880750  42.2502140 125.8906660 102.4861040
  42.7680810 125.0874920 102.4317930  41.7986160 125.8285800 103.3277870
  47.1371640 127.1572940  97.7588340  47.4787340 127.9015170  97.2631660
  46.3084350 127.4704060  98.1213170  39.7346680 122.8568030 109.3986740
  39.3761620 123.5221880 109.9860080  39.4401240 122.0251580 109.7699360
  42.9359800 123.3152270 112.2826290  42.6359940 123.4609450 111.3854110
  43.7071040 122.7557560 112.1899680  48.2788250 128.1121270 110.2781420
  48.2932790 127.1802230 110.0600330  47.5713350 128.1981030 110.9171190
  53.4125320 122.2961090  96.5480030  53.3289040 122.7275310  95.6976470
  54.1319510 122.7559440  96.9806850  54.4412570 129.1503350  99.2762160
  53.7988730 128.4958970  99.5505880  54.0543230 129.5558440  98.5002830
  50.0199050 126.4788780 103.1233850  50.3722870 125.8816910 102.4635220
  49.1361380 126.1533010 103.2942100  46.1062330 127.2386470 100.5304260
  46.7933460 127.7855680 100.9111850  45.3194750 127.7827200 100.5653870
  38.2454730 122.8559290  96.0221340  39.1149580 123.1384090  96.3057260
  37.7545050 123.6695160  95.9070150  45.4089540 124.2432500 100.1429620
  45.8652320 125.0537750 100.3689810  45.0577750 123.9255640 100.9748110
  47.7122150 129.7538840 107.3721920  48.3564370 129.9598220 108.0495340
  48.0751590 128.9927240 106.9192770  41.3101320 114.5870150 100.6152140
  41.1815950 114.5788050 101.5637060  40.4863340 114.9253240 100.2643150
  48.9854230 127.7571190 106.0899370  49.6276460 127.0564350 106.2031540
  49.5103580 128.5369630 105.9096260  52.8309950 128.0419810  95.8138510
  52.6047530 127.3250250  96.4063150  52.4406150 127.7932250  94.9760260
  50.7591850 128.5566090 109.2935430  51.0948090 129.1432780 109.9713350
  49.8392190 128.4258800 109.5233220  38.6125980 132.0686670  96.5882970
  38.9723620 132.6676010  95.9340240  38.4718320 132.6146560  97.3618000
  38.3095250 116.3461270 110.0758840  37.5953770 116.5458190 110.6811450
  38.7290290 115.5700840 110.4473640  52.4126200 125.9591750  97.4752670
  52.1247900 126.4204440  98.2630550  53.2078370 125.4989520  97.7436890
  38.5967840 130.3341530 111.0625370  38.7058960 129.3936270 110.9220760
  37.9448400 130.5996280 110.4139100  46.5880430 128.6057420 112.4623490
  46.2677300 127.8866660 113.0069180  45.9138790 129.2812490 112.5359550
  44.6294600 129.4517870  97.4056640  44.6204700 130.1847560  96.7901150
  43.7092960 129.2049450  97.4983600  49.8034030 118.8383580 107.8260290
  50.1714850 118.0178790 108.1539860  48.9432230 118.8985470 108.2415940
  47.6154200 129.5146110  96.0681830  47.7166180 129.3110100  95.1383810
  46.7155940 129.2604390  96.2729610  46.7636020 121.4923170 108.0498260
  47.2621270 121.9668990 108.7150110  46.9058970 120.5686690 108.2568290
  49.1695520 116.7977130 101.4901520  49.0463300 116.8163260 100.5411030
  50.1180080 116.8456070 101.6099920  46.2572310 132.0332430 100.7629500
  46.5113810 131.9953820  99.8408870  45.3084790 131.9065760 100.7557750
  53.9702880 117.7091130 108.8926650  53.4676480 118.4496530 109.2320460
  54.7859540 118.0975130 108.5763440  52.2624890 122.9524310 102.3388010
  51.3215030 122.9674540 102.5135700  52.5768960 122.1660270 102.7848310
  54.2650470 130.1233160 104.0142270  54.3897890 130.9464330 104.4866080
  55.1316030 129.9123890 103.6666420  41.7368000 132.2164370 103.6859400
  42.4730480 131.6679830 103.9567970  42.1208920 133.0820380 103.5465390
  38.6213480 128.2837940  99.5600910  37.6953260 128.5259080  99.5506320
  39.0869910 129.1112200  99.4385660  40.7426280 131.4010440 112.8744980
  41.5439010 131.7222490 113.2880380  40.2278100 131.0406020 113.5964890
  44.8470310 131.3894680  95.5084970  45.6398920 131.6783510  95.0566760
  44.3274660 130.9586850  94.8297450  49.5790910 127.5090310 112.8220390
  48.9729070 127.5321910 112.0816140  49.2745020 126.7773350 113.3587640
  51.0091280 131.2370600 111.4329800  51.9613030 131.1528620 111.3830040
  50.8619500 131.9012310 112.1063590  53.9000480 130.6164810  96.9321710
  53.6141990 130.2029950  96.1175890  53.7020030 131.5452520  96.8122230
  38.4624090 123.8883900 111.8181030  38.9663110 123.3091180 112.3897260
  37.7231510 124.1724130 112.3557400  45.3647710 126.6098090  95.3727320
  45.2598350 125.9950440  96.0988700  45.1971930 126.0863980  94.5890330
  45.5162030 125.2954890 111.3516550  44.7507700 125.8639890 111.2671220
  45.6977990 125.0031100 110.4584780  52.6585380 127.0260220 111.9091570
  53.3994850 127.3635980 111.4059030  51.8958060 127.1952280 111.3561340
  40.4947170 122.0313490 112.7131100  40.5352510 121.7327360 113.6216330
  41.3492670 122.4321100 112.5538620  42.4352980 120.6105590 110.6805590
  41.9049440 120.1196540 110.0528930  43.1041050 121.0389790 110.1463520
  42.9225280 117.5767960 110.7602880  42.8282150 116.9588710 110.0353750
  42.3422670 118.3034250 110.5332790  45.6886720 116.1341200 107.7930270
  45.2404020 116.1565460 106.9475820  45.0551920 115.7360220 108.3900570
  46.0946270 125.0295530 108.4142710  46.5134380 125.8728260 108.2418950
  45.1754900 125.1667570 108.1849490  48.4310170 122.7611710 109.7980550
  48.5506380 122.1652850 110.5375390  49.2904170 122.7981400 109.3781850
  43.9453690 131.3348540 109.5300440  43.4074780 132.0594600 109.2109140
  44.1987650 130.8578880 108.7397780  45.1978940 119.3033060 111.0556370
  45.7878630 118.9948910 111.7434190  44.3799180 118.8312810 111.2116270
  50.0172370 118.9198870 111.2889390  49.3287890 118.2580410 111.2239380
  50.7378390 118.4737140 111.7337850  41.9667260 117.8042890  94.8070650
  42.2693160 117.8110320  93.8989800  42.7061850 117.4540750  95.3038310
  46.8015900 132.5699750 109.7887090  46.7274600 133.4734890 110.0959460
  45.8994740 132.2511650 109.7609160  45.1852190 116.7477510  95.7926850
  44.8374190 116.0701500  95.2129300  45.3864960 116.2867020  96.6070240
  47.3501230 131.7358260  97.4113450  48.2452020 132.0743230  97.4332210
  47.3818860 131.0137670  96.7837730  40.9897390 127.1085310  95.6400450
  41.4272260 127.6514980  96.2958030  41.4745120 126.2832260  95.6496790
  38.2043190 129.8974340 103.0920710  38.5346200 129.0295400 102.8599350
  38.6334190 130.1032860 103.9225670  42.8005110 128.2283350 100.7522680
  42.5000650 128.1048320 101.6526590  42.6942600 127.3691940 100.3438410
  38.6933400 130.7644930 105.8302340  38.2564390 130.9445730 106.6626490
  39.2611080 131.5219550 105.6884060  54.3295580 130.2661930 110.1179650
  53.7297570 130.3254490 109.3743570  54.4589480 129.3266910 110.2476500
  55.5697030 128.0079750  95.4549360  54.7389990 128.0756400  95.9256590
  55.7468860 128.8983870  95.1516220  55.0253490 124.7527230  97.9583560
  55.7872400 125.3223880  98.0643250  55.0407860 124.1854430  98.7291870
  38.5257830 123.2765160 102.1891220  37.8706670 123.0076800 101.5450920
  39.3635780 123.1669640 101.7393200  55.0772660 125.0461600  95.1156080
  55.3521500 125.9540480  94.9875300  54.8883400 124.9824130  96.0518070
  39.5633760 123.6617730 106.7294560  39.9306800 123.5745130 107.6090580
  38.9944580 122.8984280 106.6301420  39.1149760 120.5726820 110.6352980
  38.2205810 120.5393580 110.9746690  39.6547310 120.7713610 111.4004230
  52.8025690 117.3558540 112.5204730  53.6795870 117.3641940 112.9038730
  52.8146530 116.6189380 111.9097080  37.7395910 120.4864090  98.1316550
  36.8359990 120.7494290  97.9568210  38.2236530 120.7575260  97.3516510
  54.2488960 121.2088080 103.4092750  54.7726440 120.7150730 102.7782920
  54.8348380 121.3438440 104.1540320  39.9297280 115.5968960  95.0813580
  40.6525410 116.1377900  95.3994800  40.2021800 115.3232380  94.2055120
  39.6189470 114.8475150 104.9836200  40.2665660 114.2972530 104.5431360
  40.0391310 115.1018300 105.8052010  55.1676090 119.1022380 101.8822840
  55.0575370 118.9478420 102.8205110  55.9283680 118.5743320 101.6398250
  53.5141810 115.0416510 108.3405840  54.1514030 115.6550650 108.7065030
  53.6616700 115.0777170 107.3955070  53.0723270 131.7432510 101.7424080
  53.6682340 131.4217080 101.0658500  53.3301420 131.2704330 102.5337350
  39.3721470 115.0030820 107.7261520  39.0236290 115.4594640 108.4919700
  39.0409170 114.1087950 107.8083950  40.9785840 128.1750420 111.8914710
  40.9355470 127.8043330 112.7729170  41.1096850 129.1127990 112.0316530
  44.6791870 129.7310010 107.4924430  44.4383230 129.9984570 106.6054950
  45.6194510 129.9015740 107.5475290  46.8846290 116.1942700 111.2480940
  46.8235180 116.7864530 111.9976350  47.8246670 116.0868660 111.1031200
  49.5220850 115.8512760 110.8873230  50.1361260 116.1692050 110.2254310
  50.0670410 115.3661350 111.5069090  55.9396030 131.7504390 108.2935070
  55.4454310 132.1473260 107.5762200  55.3309320 131.1253600 108.6872350
  40.0442110 114.5307020 111.0012290  40.5925100 114.3495070 110.2378400
  40.1097420 113.7401130 111.5368600  40.8173870 131.1212670 109.0112490
  40.2234190 130.9897370 109.7502530  40.8097710 130.2850810 108.5454590
  50.2628890 114.4144900 107.2142520  49.3888730 114.7480010 107.0115450
  50.1539640 113.9418080 108.0394390  51.1700870 116.6215770 108.5984240
  50.8414230 115.8067530 108.2185970  52.1183170 116.5785580 108.4749930
  53.6235480 132.3927810 105.5721810  53.1638450 133.1443620 105.1979830
  52.9947940 131.6734280 105.5136610  40.4486100 128.4871050 107.9620530
  39.7220160 127.8676340 107.8946480  40.5095250 128.8811660 107.0918610
  44.0531200 130.7016050 104.7469940  44.5696220 130.0903410 104.2218200
  44.7028580 131.2044830 105.2380950  46.7926700 131.5924540 105.5738920
  47.0804510 131.3378840 104.6971930  47.3049920 131.0401900 106.1644490
  52.5624780 116.0337840 104.1984520  53.0032870 115.9782940 103.3506120
  52.2932370 116.9495850 104.2694700  54.4263350 115.6653080 102.2093340
  54.3651750 114.7214300 102.0624360  55.2055380 115.7733170 102.7546800
  38.7316100 131.8045440 101.1717290  38.5638140 131.1716120 101.8699180
  37.8650610 132.0104840 100.8211480  39.3544120 115.6362220  98.6749150
  40.1123480 115.7491100  98.1013180  38.8921290 116.4731420  98.6292580
  50.3982910 114.4143940 102.9034530  51.0012280 114.9864150 103.3783050
  49.6575900 114.9783380 102.6808430  40.3378800 130.4978670  98.6167430
  39.8126420 130.8786700  97.9129390  40.2623380 131.1229440  99.3377140
  41.7269270 116.1626270  97.2151120  42.2562030 115.3756070  97.0859070
  42.3597590 116.8417460  97.4486650  46.8599060 132.5140640 112.9407120
  47.7866370 132.2784910 112.9843080  46.8449490 133.3412640 112.4593150
  55.0944120 132.0566210  99.9381370  55.2696310 131.3703950  99.2942290
  54.3965690 132.5813260  99.5458040  44.0462670 115.1785390 112.7049000
  43.7646940 115.6818990 111.9409820  44.4282370 114.3807140 112.3391130
  42.9371770 132.4461050  97.4916680  43.6690590 132.1620330  96.9440570
  43.1965440 132.2074330  98.3816060  42.0986560 128.5625780  97.4963010
  41.4695440 129.0310880  98.0448840  42.2134390 127.7175000  97.9309200
  50.6478130 114.5938970 113.2829470  50.5343580 114.9133580 114.1780990
  51.4647870 114.9951480 112.9866750  53.4276620 131.7410500 112.7648160
  54.2201940 131.2459730 112.5574120  53.7209770 132.4200640 113.3723770
  47.6854320 124.3910460  85.5273480  46.9096420 123.9110900  85.8172050
  48.3367250 123.7116110  85.3529640  41.7020150 124.7030270  86.4049240
  40.8705030 124.4478980  86.8045750  42.3101130 124.7741040  87.1407160
  51.7061750 128.7970650  84.3072610  51.2443280 128.0257890  84.6359780
  52.5187300 128.8236720  84.8125060  41.6821410 128.7370360  86.6007260
  41.9849450 127.8468100  86.4217480  42.4265000 129.2940580  86.3729510
  38.0745110 122.2637810  86.0731330  38.6461220 121.4960010  86.0734970
  38.0746650 122.5626570  85.1637940  47.9325060 131.0828660  83.9276600
  47.3136500 131.5386160  83.3571040  48.7876840 131.2380120  83.5266300
  47.1263310 127.0667650  85.5343640  47.0571590 126.1257590  85.3732770
  47.8883170 127.1569060  86.1066210  39.3169980 117.6722170  87.8600260
  39.1372820 116.7747920  88.1403020  38.9150060 118.2194040  88.5347210
  42.2873490 118.2463660  81.2230010  42.3940240 119.1467390  81.5298770
  41.3765850 118.1981630  80.9324660  39.9356650 120.1682670  86.4682600
  40.6166760 120.4321040  87.0870000  39.6204700 119.3283540  86.8020610
  44.1281220 121.2150030  85.5555190  44.6359440 121.7131000  86.1960210
  44.6594460 120.4385230  85.3794550  43.6620170 125.4943770  87.9992110
  43.3289550 126.1212690  88.6413180  43.8386850 126.0205650  87.2193780
  52.1754080 119.3088850  85.4668450  51.4709650 119.5973740  86.0471560
  52.5366240 120.1188960  85.1068010  42.8739270 127.4624570  89.8141290
  43.4913270 128.1375650  89.5325740  42.0132390 127.8712550  89.7228790
  38.1671610 126.6524430  78.6948140  37.7899590 127.1411530  77.9633040
  38.4244680 127.3249710  79.3254670  53.7916860 128.9263980  87.7295930
  53.1080380 129.5963090  87.7212600  54.3311150 129.1244630  86.9640790
  55.2441000 118.7543640  85.8577660  54.2965910 118.7882620  85.9893090
  55.5690990 119.5682590  86.2427020  45.7760540 115.0540820  84.1533650
  46.0835520 114.4987710  83.4369150  44.8461240 115.1885280  83.9706640
  51.3275600 130.7708110  86.4441110  51.3402760 130.3670400  85.5763370
  50.7750820 131.5455400  86.3402540  50.7261040 125.6737950  87.7723720
  51.1429830 125.4598060  86.9377180  51.4500860 125.9310740  88.3432340
  48.1510380 119.3906650  77.8860930  47.2114050 119.5520610  77.9713390
  48.4693640 120.1092330  77.3396920  51.6365150 120.8594490  88.8094830
  51.2236330 121.6848200  89.0634820  50.9041100 120.2739530  88.6171190
  43.7697940 123.6454390  83.6713500  43.3654940 122.9331640  83.1759400
  43.8561060 123.3007630  84.5601540  44.2379640 127.3321950  85.8352710
  43.9407930 126.7267420  85.1560490  45.1879460 127.3699260  85.7242070
  42.4826560 120.4197600  87.4512540  43.0341150 120.5292940  86.6765790
  42.9970070 120.7935200  88.1667770  52.3265250 130.9053820  89.4975810
  51.8495810 131.7126010  89.3048420  51.6427040 130.2532150  89.6502020
  43.3298070 127.0703640  92.4860510  42.4326600 127.2943610  92.7333910
  43.3550940 127.1938580  91.5371910  42.1569290 123.9416960  91.0617880
  42.0177060 124.8139760  91.4305280  41.2750650 123.5989770  90.9165820
  43.9549640 129.8838660  93.2703030  43.9265070 130.2881610  92.4031460
  43.7914610 128.9549020  93.1074630  53.9520430 115.1739570  76.7142810
  53.6393090 115.2666400  77.6141880  54.7132900 115.7520600  76.6640240
  38.1087940 125.7114510  86.9788790  38.1868360 125.8463280  86.0344510
  38.7229620 125.0030400  87.1716910  39.3535570 127.4114700  83.3894970
  38.9463650 127.5529290  82.5348570  40.2448580 127.1274860  83.1866180
  49.1714450 131.5606610  90.2962020  49.6859120 131.4714620  91.0984450
  48.3283530 131.9066310  90.5889930  51.1468850 131.8461950  79.7246020
  50.9869990 131.5564890  80.6227850  50.9815560 131.0702080  79.1891250
  43.6257230 131.6260480  81.5017640  43.4499710 130.7096020  81.2885440
  42.7712970 131.9847770  81.7415440  50.4144910 130.9812220  82.3592510
  50.8701860 130.2001600  82.6731130  50.7537430 131.6919040  82.9033690
  38.1647460 126.7528680  89.5183250  38.3278500 126.2834040  88.7002620
  38.6299910 126.2452240  90.1832090  47.2236040 118.7502960  90.1579140
  46.7615410 118.9585980  90.9699080  46.8214150 117.9362310  89.8549810
  49.3190260 121.4713660  93.3874590  49.6443670 120.6377410  93.0476820
  50.1070590 121.9942180  93.5352920  46.0525050 115.5045140  79.4349650
  45.4279230 115.5005010  80.1602960  45.9655170 114.6376100  79.0385620
  42.7280450 121.0068010  82.2825070  42.5021370 120.7905180  83.1871690
  41.9472980 121.4396470  81.9371040  45.1679660 121.9053590  92.9485340
  45.0723260 120.9648320  92.7985740  46.0111640 122.1268660  92.5533410
  40.2990200 118.3167260  91.1019120  39.9053590 119.1642470  91.3091900
  39.6108600 117.6793630  91.2927760  46.8735250 118.4002230  94.1715860
  46.1833570 118.2074430  94.8061950  47.6167550 118.6836870  94.7040160
  49.1498220 122.2400670  87.0069780  48.4179340 122.7487480  87.3559880
  48.7522560 121.4230650  86.7058560  45.5875610 118.9154870  85.4122270
  45.5911670 118.4744820  84.5626810  46.4826730 119.2372200  85.5194090
  41.4377990 118.7981360  84.3716480  41.0978040 119.2756590  85.1283530
  40.6755310 118.3446480  84.0117580  45.6495760 119.9166950  78.4029030
  45.7708580 119.8753430  79.3514850  45.2644270 120.7791100  78.2475760
  49.6124130 117.6934350  86.4192720  49.6296870 118.1443000  87.2634570
  49.3639710 116.7939990  86.6326160  44.6617260 122.2268090  77.8012330
  44.0934160 121.7786340  77.1748240  45.3706260 122.5860870  77.2677480
  39.7386440 126.1280110  91.6779060  39.3541230 125.4873780  92.2762020
  40.0498630 126.8316230  92.2473790  45.8883580 122.9756650  87.1587680
  46.2553710 122.5015220  87.9049020  45.6988640 123.8498220  87.4996020
  43.6782950 122.0165290  89.4771890  43.3740020 122.8957270  89.7022250
  44.6329410 122.0765080  89.5129330  42.2064740 126.2226280  80.0738740
  41.4327000 125.6823900  79.9137460  42.9359370 125.7032890  79.7356500
  42.2502140 125.8906660  83.7117550  42.7680810 125.0874920  83.6574440
  41.7986160 125.8285800  84.5534380  39.7346680 122.8568030  90.6243250
  39.3761620 123.5221880  91.2116590  39.4401240 122.0251580  90.9955870
  42.9359800 123.3152270  93.5082800  42.6359940 123.4609450  92.6110620
  43.7071040 122.7557560  93.4156190  53.4125320 122.2961090  77.7736540
  53.3289040 122.7275310  76.9232980  54.1319510 122.7559440  78.2063360
  46.1062330 127.2386470  81.7560770  46.7933460 127.7855680  82.1368360
  45.3194750 127.7827200  81.7910380  45.4089540 124.2432500  81.3686130
  45.8652320 125.0537750  81.5946320  45.0577750 123.9255640  82.2004620
  47.7122150 129.7538840  88.5978430  48.3564370 129.9598220  89.2751850
  48.0751590 128.9927240  88.1449280  41.3101320 114.5870150  81.8408650
  41.1815950 114.5788050  82.7893570  40.4863340 114.9253240  81.4899660
  48.9854230 127.7571190  87.3155880  49.6276460 127.0564350  87.4288050
  49.5103580 128.5369630  87.1352770  38.6125980 132.0686670  77.8139480
  38.9723620 132.6676010  77.1596750  38.4718320 132.6146560  78.5874510
  38.3095250 116.3461270  91.3015350  37.5953770 116.5458190  91.9067960
  38.7290290 115.5700840  91.6730150  38.5967840 130.3341530  92.2881880
  38.7058960 129.3936270  92.1477270  37.9448400 130.5996280  91.6395610
  49.8034030 118.8383580  89.0516800  50.1714850 118.0178790  89.3796370
  48.9432230 118.8985470  89.4672450  45.1380090 120.0726470  81.2762240
  44.4296240 120.5412810  81.7175850  45.4224570 119.4148480  81.9107430
  46.7636020 121.4923170  89.2754770  47.2621270 121.9668990  89.9406620
  46.9058970 120.5686690  89.4824800  46.2572310 132.0332430  81.9886010
  46.5113810 131.9953820  81.0665380  45.3084790 131.9065760  81.9814260
  43.3415110 118.3811550  78.6512950  44.1905640 118.8181700  78.5853140
  42.9746380 118.6931810  79.4785010  53.9702880 117.7091130  90.1183160
  53.4676480 118.4496530  90.4576970  54.7859540 118.0975130  89.8019950
  54.2650470 130.1233160  85.2398780  54.3897890 130.9464330  85.7122590
  55.1316030 129.9123890  84.8922930  41.7368000 132.2164370  84.9115910
  42.4730480 131.6679830  85.1824480  42.1208920 133.0820380  84.7721900
  38.6213480 128.2837940  80.7857420  37.6953260 128.5259080  80.7762830
  39.0869910 129.1112200  80.6642170  40.7426280 131.4010440  94.1001490
  41.5439010 131.7222490  94.5136890  40.2278100 131.0406020  94.8221400
  51.0091280 131.2370600  92.6586310  51.9613030 131.1528620  92.6086550
  50.8619500 131.9012310  93.3320100  53.9000480 130.6164810  78.1578220
  53.6141990 130.2029950  77.3432400  53.7020030 131.5452520  78.0378740
  38.4624090 123.8883900  93.0437540  38.9663110 123.3091180  93.6153770
  37.7231510 124.1724130  93.5813910  44.2725560 124.6309040  79.0991120
  44.6941980 124.4648910  79.9422510  44.3976400 123.8209270  78.6046260
  42.4352980 120.6105590  91.9062100  41.9049440 120.1196540  91.2785440
  43.1041050 121.0389790  91.3720030  46.7853200 123.6546650  76.3468220
  47.3058860 122.9395670  75.9809370  47.4321600 124.2932520  76.6468730
  51.8053210 122.4171210  93.6742440  52.3873980 121.6623530  93.5862920
  51.9814980 122.9478650  92.8973920  42.9225280 117.5767960  91.9859390
  42.8282150 116.9588710  91.2610260  42.3422670 118.3034250  91.7589300
  46.0946270 125.0295530  89.6399220  46.5134380 125.8728260  89.4675460
  45.1754900 125.1667570  89.4106000  43.9453690 131.3348540  90.7556950
  43.4074780 132.0594600  90.4365650  44.1987650 130.8578880  89.9654290
  45.1978940 119.3033060  92.2812880  45.7878630 118.9948910  92.9690700
  44.3799180 118.8312810  92.4372780  46.8015900 132.5699750  91.0143600
  46.7274600 133.4734890  91.3215970  45.8994740 132.2511650  90.9865670
  45.1852190 116.7477510  77.0183360  44.8374190 116.0701500  76.4385810
  45.3864960 116.2867020  77.8326750  40.9897390 127.1085310  76.8656960
  41.4272260 127.6514980  77.5214540  41.4745120 126.2832260  76.8753300
  38.2043190 129.8974340  84.3177220  38.5346200 129.0295400  84.0855860
  38.6334190 130.1032860  85.1482180  42.8005110 128.2283350  81.9779190
  42.5000650 128.1048320  82.8783100  42.6942600 127.3691940  81.5694920
  38.6933400 130.7644930  87.0558850  38.2564390 130.9445730  87.8883000
  39.2611080 131.5219550  86.9140570  55.5697030 128.0079750  76.6805870
  54.7389990 128.0756400  77.1513100  55.7468860 128.8983870  76.3772730
  55.0253490 124.7527230  79.1840070  55.7872400 125.3223880  79.2899760
  55.0407860 124.1854430  79.9548380  38.5257830 123.2765160  83.4147730
  37.8706670 123.0076800  82.7707430  39.3635780 123.1669640  82.9649710
  55.0772660 125.0461600  76.3412590  55.3521500 125.9540480  76.2131810
  54.8883400 124.9824130  77.2774580  51.4748270 118.0706450  77.6366220
  51.8933150 117.8837430  76.7962880  51.1684330 117.2185500  77.9469150
  39.5633760 123.6617730  87.9551070  39.9306800 123.5745130  88.8347090
  38.9944580 122.8984280  87.8557930  54.3637620 122.1302110  90.9681540
  54.1323710 121.9014860  90.0679490  54.6242170 123.0501660  90.9226430
  39.1149760 120.5726820  91.8609490  38.2205810 120.5393580  92.2003200
  39.6547310 120.7713610  92.6260740  39.9297280 115.5968960  76.3070090
  40.6525410 116.1377900  76.6251310  40.2021800 115.3232380  75.4311630
  53.5141810 115.0416510  89.5662350  54.1514030 115.6550650  89.9321540
  53.6616700 115.0777170  88.6211580  56.0566360 116.9330300  76.3485490
  56.9815670 116.8011480  76.1403780  56.0342150 117.0123120  77.3021940
  53.0723270 131.7432510  82.9680590  53.6682340 131.4217080  82.2915010
  53.3301420 131.2704330  83.7593860  39.3721470 115.0030820  88.9518030
  39.0236290 115.4594640  89.7176210  39.0409170 114.1087950  89.0340460
  40.9785840 128.1750420  93.1171220  40.9355470 127.8043330  93.9985680
  41.1096850 129.1127990  93.2573040  44.6791870 129.7310010  88.7180940
  44.4383230 129.9984570  87.8311460  45.6194510 129.9015740  88.7731800
  40.0442110 114.5307020  92.2268800  40.5925100 114.3495070  91.4634910
  40.1097420 113.7401130  92.7625110  40.8173870 131.1212670  90.2369000
  40.2234190 130.9897370  90.9759040  40.8097710 130.2850810  89.7711100
  53.6235480 132.3927810  86.7978320  53.1638450 133.1443620  86.4236340
  52.9947940 131.6734280  86.7393120  40.4486100 128.4871050  89.1877040
  39.7220160 127.8676340  89.1202990  40.5095250 128.8811660  88.3175120
  44.0531200 130.7016050  85.9726450  44.5696220 130.0903410  85.4474710
  44.7028580 131.2044830  86.4637460  46.7926700 131.5924540  86.7995430
  47.0804510 131.3378840  85.9228440  47.3049920 131.0401900  87.3901000
  48.0103710 115.3314740  87.3791940  47.2275500 115.8060240  87.6588700
  47.7166640 114.4269570  87.2705120  38.7316100 131.8045440  82.3973800
  38.5638140 131.1716120  83.0955690  37.8650610 132.0104840  82.0467990
  39.3544120 115.6362220  79.9005660  40.1123480 115.7491100  79.3269690
  38.8921290 116.4731420  79.8549090  45.8957930 117.7501490  82.8907970
  45.0832440 117.3758380  82.5503850  46.3999570 116.9946570  83.1929160
  40.3378800 130.4978670  79.8423940  39.8126420 130.8786700  79.1385900
  40.2623380 131.1229440  80.5633650  41.7269270 116.1626270  78.4407630
  42.2562030 115.3756070  78.3115580  42.3597590 116.8417460  78.6743160
  43.9207110 115.9001410  81.4953020  43.2909850 115.1988720  81.6623150
  43.3812250 116.6605540  81.2786180  46.8599060 132.5140640  94.1663630
  47.7866370 132.2784910  94.2099590  46.8449490 133.3412640  93.6849660
  55.0944120 132.0566210  81.1637880  55.2696310 131.3703950  80.5198800
  54.3965690 132.5813260  80.7714550  44.0462670 115.1785390  93.9305510
  43.7646940 115.6818990  93.1666330  44.4282370 114.3807140  93.5647640
  42.9371770 132.4461050  78.7173190  43.6690590 132.1620330  78.1697080
  43.1965440 132.2074330  79.6072570  42.0986560 128.5625780  78.7219520
  41.4695440 129.0310880  79.2705350  42.2134390 127.7175000  79.1565710
  53.4276620 131.7410500  93.9904670  54.2201940 131.2459730  93.7830630
  53.7209770 132.4200640  94.5980280  49.5536280 122.6131440  64.8720720
  49.4730330 121.6986050  64.6012430  49.1400700 123.1098510  64.1660430
  47.6854320 124.3910460  66.7529990  46.9096420 123.9110900  67.0428560
  48.3367250 123.7116110  66.5786150  51.7061750 128.7970650  65.5329120
  51.2443280 128.0257890  65.8616290  52.5187300 128.8236720  66.0381570
  40.1112100 119.6632160  61.4148140  39.2228800 120.0048130  61.3128020
  40.3953290 119.4632480  60.5228970  47.9325060 131.0828660  65.1533110
  47.3136500 131.5386160  64.5827550  48.7876840 131.2380120  64.7522810
  48.1568480 119.8738030  66.9869080  48.5333300 119.0009910  66.8742750
  48.0587990 120.2096730  66.0959520  42.2873490 118.2463660  62.4486520
  42.3940240 119.1467390  62.7555280  41.3765850 118.1981630  62.1581170
  51.9392600 117.3688470  63.9197420  52.7602220 116.8785040  63.9622900
  51.9726680 117.9586130  64.6729260  44.1281220 121.2150030  66.7811700
  44.6359440 121.7131000  67.4216720  44.6594460 120.4385230  66.6051060
  42.4117320 115.8548590  71.0475120  42.4135760 116.3720980  70.2421020
  41.5821630 115.3778770  71.0245050  48.7988410 125.9667900  62.5465020
  48.1805680 126.4317350  61.9827740  49.3111660 126.6595380  62.9634530
  52.1754080 119.3088850  66.6924960  51.4709650 119.5973740  67.2728070
  52.5366240 120.1188960  66.3324520  38.1671610 126.6524430  59.9204650
  37.7899590 127.1411530  59.1889550  38.4244680 127.3249710  60.5511180
  53.7916860 128.9263980  68.9552440  53.1080380 129.5963090  68.9469110
  54.3311150 129.1244630  68.1897300  45.7760540 115.0540820  65.3790160
  46.0835520 114.4987710  64.6625660  44.8461240 115.1885280  65.1963150
  51.3275600 130.7708110  67.6697620  51.3402760 130.3670400  66.8019880
  50.7750820 131.5455400  67.5659050  52.6221020 127.4924330  62.7587790
  52.5117350 126.5498660  62.8837210  52.6189270 127.8539970  63.6450550
  50.7261040 125.6737950  68.9980230  51.1429830 125.4598060  68.1633690
  51.4500860 125.9310740  69.5688850  48.1641300 123.1189650  62.1150280
  47.2370580 123.0527030  62.3438750  48.3166120 124.0569780  62.0005520
  48.1510380 119.3906650  59.1117440  47.2114050 119.5520610  59.1969900
  48.4693640 120.1092330  58.5653430  52.1938590 124.6809950  62.6185530
  51.5751010 124.3429500  61.9711830  52.1763040 124.0369710  63.3264720
  51.6365150 120.8594490  70.0351340  51.2236330 121.6848200  70.2891330
  50.9041100 120.2739530  69.8427700  42.4826560 120.4197600  68.6769050
  43.0341150 120.5292940  67.9022300  42.9970070 120.7935200  69.3924280
  52.3265250 130.9053820  70.7232320  51.8495810 131.7126010  70.5304930
  51.6427040 130.2532150  70.8758530  43.3298070 127.0703640  73.7117020
  42.4326600 127.2943610  73.9590420  43.3550940 127.1938580  72.7628420
  50.3703290 123.9196760  59.6258280  50.8096570 123.0819190  59.4796100
  51.0831710 124.5526160  59.7122420  42.1569290 123.9416960  72.2874390
  42.0177060 124.8139760  72.6561790  41.2750650 123.5989770  72.1422330
  48.4798670 128.8592830  63.5939520  48.9194580 129.6017160  63.1794910
  48.4185560 129.1019400  64.5178480  53.9520430 115.1739570  57.9399320
  53.6393090 115.2666400  58.8398390  54.7132900 115.7520600  57.8896750
  40.4702570 122.5399370  62.3976660  40.3500170 123.2661460  61.7857930
  40.1603460 121.7702280  61.9204570  38.1087940 125.7114510  68.2045300
  38.1868360 125.8463280  67.2601020  38.7229620 125.0030400  68.3973420
  39.3535570 127.4114700  64.6151480  38.9463650 127.5529290  63.7605080
  40.2448580 127.1274860  64.4122690  51.1468850 131.8461950  60.9502530
  50.9869990 131.5564890  61.8484360  50.9815560 131.0702080  60.4147760
  43.6257230 131.6260480  62.7274150  43.4499710 130.7096020  62.5141950
  42.7712970 131.9847770  62.9671950  50.8494980 129.3549510  59.5100530
  50.1560140 129.3526800  58.8502810  51.5917840 128.9308830  59.0794700
  50.4144910 130.9812220  63.5849020  50.8701860 130.2001600  63.8987640
  50.7537430 131.6919040  64.1290200  55.1621720 119.9111070  73.9173460
  54.5465990 120.4190740  73.3888920  54.8418140 119.0109400  73.8599400
  38.1647460 126.7528680  70.7439760  38.3278500 126.2834040  69.9259130
  38.6299910 126.2452240  71.4088600  42.9366230 115.8834440  65.7800330
  42.4934380 116.6643980  65.4484850  43.4951220 116.2064330  66.4871270
  47.2236040 118.7502960  71.3835650  46.7615410 118.9585980  72.1955590
  46.8214150 117.9362310  71.0806320  52.2240550 119.9711910  72.5132310
  51.3734140 119.6717660  72.8341380  52.0642340 120.2153920  71.6016130
  49.3190260 121.4713660  74.6131100  49.6443670 120.6377410  74.2733330
  50.1070590 121.9942180  74.7609430  44.9742130 116.4281770  67.6389930
  45.2714460 117.3344600  67.5581950  45.5227690 115.9400550  67.0249500
  49.9578210 121.0131380  62.1072230  49.3587100 121.7367180  61.9235850
  50.5057820 120.9508160  61.3248680  45.1679660 121.9053590  74.1741850
  45.0723260 120.9648320  74.0242250  46.0111640 122.1268660  73.7789920
  48.5643080 119.6494920  64.1375510  48.9572650 119.9667120  63.3244200
  48.9259930 118.7706800  64.2520030  46.8735250 118.4002230  75.3972370
  46.1833570 118.2074430  76.0318460  47.6167550 118.6836870  75.9296670
  49.1498220 122.2400670  68.2326290  48.4179340 122.7487480  68.5816390
  48.7522560 121.4230650  67.9315070  45.5875610 118.9154870  66.6378780
  45.5911670 118.4744820  65.7883320  46.4826730 119.2372200  66.7450600
  45.6495760 119.9166950  59.6285540  45.7708580 119.8753430  60.5771360
  45.2644270 120.7791100  59.4732270  49.6124130 117.6934350  67.6449230
  49.6296870 118.1443000  68.4891080  49.3639710 116.7939990  67.8582670
  44.6617260 122.2268090  59.0268840  44.0934160 121.7786340  58.4004750
  45.3706260 122.5860870  58.4933990  53.0394880 115.1066530  73.4835610
  53.3640650 114.3756190  74.0093590  53.0751390 114.7880170  72.5816600
  39.7386440 126.1280110  72.9035570  39.3541230 125.4873780  73.5018530
  40.0498630 126.8316230  73.4730300  43.6782950 122.0165290  70.7028400
  43.3740020 122.8957270  70.9278760  44.6329410 122.0765080  70.7385840
  42.2064740 126.2226280  61.2995250  41.4327000 125.6823900  61.1393970
  42.9359370 125.7032890  60.9613010  48.4262660 116.6129600  61.2351030
  47.6127270 116.1142770  61.1596340  48.2324610 117.4527850  60.8187380
  48.3471520 125.2900700  72.9790640  48.2808830 124.3696370  72.7248230
  47.7176660 125.3876140  73.6935280  47.1371640 127.1572940  60.2101360
  47.4787340 127.9015170  59.7144680  46.3084350 127.4704060  60.5726190
  42.9359800 123.3152270  74.7339310  42.6359940 123.4609450  73.8367130
  43.7071040 122.7557560  74.6412700  54.4412570 129.1503350  61.7275180
  53.7988730 128.4958970  62.0018900  54.0543230 129.5558440  60.9515850
  50.0199050 126.4788780  65.5746870  50.3722870 125.8816910  64.9148240
  49.1361380 126.1533010  65.7455120  38.2454730 122.8559290  58.4734360
  39.1149580 123.1384090  58.7570280  37.7545050 123.6695160  58.3583170
  45.4089540 124.2432500  62.5942640  45.8652320 125.0537750  62.8202830
  45.0577750 123.9255640  63.4261130  52.8309950 128.0419810  58.2651530
  52.6047530 127.3250250  58.8576170  52.4406150 127.7932250  57.4273280
  50.7591850 128.5566090  71.7448450  51.0948090 129.1432780  72.4226370
  49.8392190 128.4258800  71.9746240  38.6125980 132.0686670  59.0395990
  38.9723620 132.6676010  58.3853260  38.4718320 132.6146560  59.8131020
  52.4126200 125.9591750  59.9265690  52.1247900 126.4204440  60.7143570
  53.2078370 125.4989520  60.1949910  38.5967840 130.3341530  73.5138390
  38.7058960 129.3936270  73.3733780  37.9448400 130.5996280  72.8652120
  44.6294600 129.4517870  59.8569660  44.6204700 130.1847560  59.2414170
  43.7092960 129.2049450  59.9496620  40.2301240 124.6732760  60.6016420
  39.6229190 125.4131660  60.6111720  40.7050590 124.7632120  59.7754620
  49.8034030 118.8383580  70.2773310  50.1714850 118.0178790  70.6052880
  48.9432230 118.8985470  70.6928960  53.1696060 117.7940520  61.0860870
  52.5409220 117.8986190  60.3719100  52.6747980 118.0137300  61.8754750
  47.6154200 129.5146110  58.5194850  47.7166180 129.3110100  57.5896830
  46.7155940 129.2604390  58.7242630  45.1380090 120.0726470  62.5018750
  44.4296240 120.5412810  62.9432360  45.4224570 119.4148480  63.1363940
  46.7636020 121.4923170  70.5011280  47.2621270 121.9668990  71.1663130
  46.9058970 120.5686690  70.7081310  49.1695520 116.7977130  63.9414540
  49.0463300 116.8163260  62.9924050  50.1180080 116.8456070  64.0612940
  46.2572310 132.0332430  63.2142520  46.5113810 131.9953820  62.2921890
  45.3084790 131.9065760  63.2070770  53.9702880 117.7091130  71.3439670
  53.4676480 118.4496530  71.6833480  54.7859540 118.0975130  71.0276460
  52.2624890 122.9524310  64.7901030  51.3215030 122.9674540  64.9648720
  52.5768960 122.1660270  65.2361330  42.2406530 124.6343910  58.3504990
  43.0069800 124.5225270  58.9130420  42.3181220 123.9381880  57.6981760
  40.9353290 122.0668980  59.0337880  41.0156880 121.1196490  59.1455280
  41.8273040 122.3975860  59.1398540  54.2650470 130.1233160  66.4655290
  54.3897890 130.9464330  66.9379100  55.1316030 129.9123890  66.1179440
  41.7368000 132.2164370  66.1372420  42.4730480 131.6679830  66.4080990
  42.1208920 133.0820380  65.9978410  38.6213480 128.2837940  62.0113930
  37.6953260 128.5259080  62.0019340  39.0869910 129.1112200  61.8898680
  40.7426280 131.4010440  75.3258000  41.5439010 131.7222490  75.7393400
  40.2278100 131.0406020  76.0477910  44.8470310 131.3894680  57.9597990
  45.6398920 131.6783510  57.5079780  44.3274660 130.9586850  57.2810470
  53.9000480 130.6164810  59.3834730  53.6141990 130.2029950  58.5688910
  53.7020030 131.5452520  59.2635250  38.4624090 123.8883900  74.2694050
  38.9663110 123.3091180  74.8410280  37.7231510 124.1724130  74.8070420
  45.3647710 126.6098090  57.8240340  45.2598350 125.9950440  58.5501720
  45.1971930 126.0863980  57.0403350  45.5162030 125.2954890  73.8029570
  44.7507700 125.8639890  73.7184240  45.6977990 125.0031100  72.9097800
  48.6050440 125.6718120  58.4282330  48.0560540 126.1187420  59.0725070
  49.2269700 125.1667370  58.9520000  52.6585380 127.0260220  74.3604590
  53.3994850 127.3635980  73.8572050  51.8958060 127.1952280  73.8074360
  44.2725560 124.6309040  60.3247630  44.6941980 124.4648910  61.1679020
  44.3976400 123.8209270  59.8302770  46.7853200 123.6546650  57.5724730
  47.3058860 122.9395670  57.2065880  47.4321600 124.2932520  57.8725240
  51.3331040 125.0775050  72.8959800  51.7472060 125.2320130  73.7450220
  50.3982040 125.2030270  73.0585580  51.8053210 122.4171210  74.8998950
  52.3873980 121.6623530  74.8119430  51.9814980 122.9478650  74.1230430
  42.9225280 117.5767960  73.2115900  42.8282150 116.9588710  72.4866770
  42.3422670 118.3034250  72.9845810  45.6886720 116.1341200  70.2443290
  45.2404020 116.1565460  69.3988840  45.0551920 115.7360220  70.8413590
  48.4310170 122.7611710  72.2493570  48.5506380 122.1652850  72.9888410
  49.2904170 122.7981400  71.8294870  50.7698070 123.3148900  70.8256080
  50.2433290 123.8391520  70.2221220  51.1129410 123.9476290  71.4565810
  43.9453690 131.3348540  71.9813460  43.4074780 132.0594600  71.6622160
  44.1987650 130.8578880  71.1910800  45.1978940 119.3033060  73.5069390
  45.7878630 118.9948910  74.1947210  44.3799180 118.8312810  73.6629290
  50.0172370 118.9198870  73.7402410  49.3287890 118.2580410  73.6752400
  50.7378390 118.4737140  74.1850870  50.6472770 115.5150500  59.7992670
  50.9275060 114.6718400  60.1552090  49.8738500 115.7473610  60.3131420
  47.3501230 131.7358260  59.8626470  48.2452020 132.0743230  59.8845230
  47.3818860 131.0137670  59.2350750  40.9897390 127.1085310  58.0913470
  41.4272260 127.6514980  58.7471050  41.4745120 126.2832260  58.1009810
  38.2043190 129.8974340  65.5433730  38.5346200 129.0295400  65.3112370
  38.6334190 130.1032860  66.3738690  38.6933400 130.7644930  68.2815360
  38.2564390 130.9445730  69.1139510  39.2611080 131.5219550  68.1397080
  54.3295580 130.2661930  72.5692670  53.7297570 130.3254490  71.8256590
  54.4589480 129.3266910  72.6989520  55.5697030 128.0079750  57.9062380
  54.7389990 128.0756400  58.3769610  55.7468860 128.8983870  57.6029240
  55.0253490 124.7527230  60.4096580  55.7872400 125.3223880  60.5156270
  55.0407860 124.1854430  61.1804890  56.0313460 125.6077330  65.2538510
  56.4022290 124.8244650  64.8474480  56.6715390 126.2966430  65.0755810
  53.0147220 126.9913910  70.6668830  52.2007060 127.4211070  70.9294620
  53.4221420 127.6032320  70.0537880  54.9738000 122.9830590  62.5598530
  54.5981600 122.2158520  62.1279820  54.2441120 123.3653290  63.0473460
  52.8025690 117.3558540  74.9717750  53.6795870 117.3641940  75.3551750
  52.8146530 116.6189380  74.3610100  37.7395910 120.4864090  60.5829570
  36.8359990 120.7494290  60.4081230  38.2236530 120.7575260  59.8029530
  40.2823120 119.5429630  58.4923950  40.9914820 119.1212850  58.0071230
  39.5663060 119.6104860  57.8607300  53.7388930 120.4661430  61.7998180
  54.2348050 120.2332300  62.5847060  53.5405000 119.6273270  61.3835820
  39.6189470 114.8475150  67.4349220  40.2665660 114.2972530  66.9944380
  40.0391310 115.1018300  68.2565030  55.1676090 119.1022380  64.3335860
  55.0575370 118.9478420  65.2718130  55.9283680 118.5743320  64.0911270
  53.5141810 115.0416510  70.7918860  54.1514030 115.6550650  71.1578050
  53.6616700 115.0777170  69.8468090  56.0566360 116.9330300  57.5742000
  56.9815670 116.8011480  57.3660290  56.0342150 117.0123120  58.5278450
  53.0723270 131.7432510  64.1937100  53.6682340 131.4217080  63.5171520
  53.3301420 131.2704330  64.9850370  39.3721470 115.0030820  70.1774540
  39.0236290 115.4594640  70.9432720  39.0409170 114.1087950  70.2596970
  40.9785840 128.1750420  74.3427730  40.9355470 127.8043330  75.2242190
  41.1096850 129.1127990  74.4829550  46.8846290 116.1942700  73.6993960
  46.8235180 116.7864530  74.4489370  47.8246670 116.0868660  73.5544220
  49.5220850 115.8512760  73.3386250  50.1361260 116.1692050  72.6767330
  50.0670410 115.3661350  73.9582110  55.9396030 131.7504390  70.7448090
  55.4454310 132.1473260  70.0275220  55.3309320 131.1253600  71.1385370
  40.0442110 114.5307020  73.4525310  40.5925100 114.3495070  72.6891420
  40.1097420 113.7401130  73.9881620  40.8173870 131.1212670  71.4625510
  40.2234190 130.9897370  72.2015550  40.8097710 130.2850810  70.9967610
  50.2628890 114.4144900  69.6655540  49.3888730 114.7480010  69.4628470
  50.1539640 113.9418080  70.4907410  51.1700870 116.6215770  71.0497260
  50.8414230 115.8067530  70.6698990  52.1183170 116.5785580  70.9262950
  53.6235480 132.3927810  68.0234830  53.1638450 133.1443620  67.6492850
  52.9947940 131.6734280  67.9649630  48.0103710 115.3314740  68.6048450
  47.2275500 115.8060240  68.8845210  47.7166640 114.4269570  68.4961630
  52.5624780 116.0337840  66.6497540  53.0032870 115.9782940  65.8019140
  52.2932370 116.9495850  66.7207720  38.7316100 131.8045440  63.6230310
  38.5638140 131.1716120  64.3212200  37.8650610 132.0104840  63.2724500
  45.8957930 117.7501490  64.1164480  45.0832440 117.3758380  63.7760360
  46.3999570 116.9946570  64.4185670  50.3982910 114.4143940  65.3547550
  51.0012280 114.9864150  65.8296070  49.6575900 114.9783380  65.1321450
  53.5417510 114.8165500  60.6287830  53.7368140 115.7148950  60.8955260
  52.7547380 114.5852580  61.1220780  40.3378800 130.4978670  61.0680450
  39.8126420 130.8786700  60.3642410  40.2623380 131.1229440  61.7890160
  55.0944120 132.0566210  62.3894390  55.2696310 131.3703950  61.7455310
  54.3965690 132.5813260  61.9971060  44.0462670 115.1785390  75.1562020
  43.7646940 115.6818990  74.3922840  44.4282370 114.3807140  74.7904150
  42.9371770 132.4461050  59.9429700  43.6690590 132.1620330  59.3953590
  43.1965440 132.2074330  60.8329080  42.0986560 128.5625780  59.9476030
  41.4695440 129.0310880  60.4961860  42.2134390 127.7175000  60.3822220
  50.6478130 114.5938970  75.7342490  50.5343580 114.9133580  76.6294010
  51.4647870 114.9951480  75.4379770  53.4276620 131.7410500  75.2161180
  54.2201940 131.2459730  75.0087140  53.7209770 132.4200640  75.8236790
  49.5536280 122.6131440  46.0977230  49.4730330 121.6986050  45.8268940
  49.1400700 123.1098510  45.3916940  47.6854320 124.3910460  47.9786500
  46.9096420 123.9110900  48.2685070  48.3367250 123.7116110  47.8042660
  41.7020150 124.7030270  48.8562260  40.8705030 124.4478980  49.2558770
  42.3101130 124.7741040  49.5920180  41.6821410 128.7370360  49.0520280
  41.9849450 127.8468100  48.8730500  42.4265000 129.2940580  48.8242530
  38.0745110 122.2637810  48.5244350  38.6461220 121.4960010  48.5247990
  38.0746650 122.5626570  47.6150960  47.9325060 131.0828660  46.3789620
  47.3136500 131.5386160  45.8084060  48.7876840 131.2380120  45.9779320
  47.1263310 127.0667650  47.9856660  47.0571590 126.1257590  47.8245790
  47.8883170 127.1569060  48.5579230  48.1568480 119.8738030  48.2125590
  48.5333300 119.0009910  48.0999260  48.0587990 120.2096730  47.3216030
  39.9356650 120.1682670  48.9195620  40.6166760 120.4321040  49.5383020
  39.6204700 119.3283540  49.2533630  44.1281220 121.2150030  48.0068210
  44.6359440 121.7131000  48.6473230  44.6594460 120.4385230  47.8307570
  56.2292150 119.3855220  51.7097560  55.5244320 119.7736930  51.1912670
  56.4950070 120.0805510  52.3118490  42.4117320 115.8548590  52.2731630
  42.4135760 116.3720980  51.4677530  41.5821630 115.3778770  52.2501560
  48.7988410 125.9667900  43.7721530  48.1805680 126.4317350  43.2084250
  49.3111660 126.6595380  44.1891040  43.6620170 125.4943770  50.4505130
  43.3289550 126.1212690  51.0926200  43.8386850 126.0205650  49.6706800
  42.0932650 117.5658550  50.2802080  42.4349460 118.4100600  49.9855950
  41.1548460 117.7142290  50.3967420  42.8739270 127.4624570  52.2654310
  43.4913270 128.1375650  51.9838760  42.0132390 127.8712550  52.1741810
  38.1671610 126.6524430  41.1461160  37.7899590 127.1411530  40.4146060
  38.4244680 127.3249710  41.7767690  51.3275600 130.7708110  48.8954130
  51.3402760 130.3670400  48.0276390  50.7750820 131.5455400  48.7915560
  50.7261040 125.6737950  50.2236740  51.1429830 125.4598060  49.3890200
  51.4500860 125.9310740  50.7945360  54.6723140 124.0725170  50.3152980
  53.8441770 124.1418260  49.8403110  55.2673620 124.6579480  49.8468810
  51.6365150 120.8594490  51.2607850  51.2236330 121.6848200  51.5147840
  50.9041100 120.2739530  51.0684210  43.7697940 123.6454390  46.1226520
  43.3654940 122.9331640  45.6272420  43.8561060 123.3007630  47.0114560
  44.2379640 127.3321950  48.2865730  43.9407930 126.7267420  47.6073510
  45.1879460 127.3699260  48.1755090  52.3265250 130.9053820  51.9488830
  51.8495810 131.7126010  51.7561440  51.6427040 130.2532150  52.1015040
  43.3298070 127.0703640  54.9373530  42.4326600 127.2943610  55.1846930
  43.3550940 127.1938580  53.9884930  50.3703290 123.9196760  40.8514790
  50.8096570 123.0819190  40.7052610  51.0831710 124.5526160  40.9378930
  48.4798670 128.8592830  44.8196030  48.9194580 129.6017160  44.4051420
  48.4185560 129.1019400  45.7434990  43.9549640 129.8838660  55.7216050
  43.9265070 130.2881610  54.8544480  43.7914610 128.9549020  55.5587650
  53.9520430 115.1739570  39.1655830  53.6393090 115.2666400  40.0654900
  54.7132900 115.7520600  39.1153260  40.4702570 122.5399370  43.6233170
  40.3500170 123.2661460  43.0114440  40.1603460 121.7702280  43.1461080
  55.9064460 130.6665760  57.0180220  56.3824180 131.1448650  57.6969300
  56.5271620 130.5983250  56.2925720  38.1087940 125.7114510  49.4301810
  38.1868360 125.8463280  48.4857530  38.7229620 125.0030400  49.6229930
  39.3535570 127.4114700  45.8407990  38.9463650 127.5529290  44.9861590
  40.2448580 127.1274860  45.6379200  55.3097710 127.8578610  54.1780230
  55.4360770 127.6190490  53.2597410  55.3519090 127.0263150  54.6502310
  49.1714450 131.5606610  52.7475040  49.6859120 131.4714620  53.5497470
  48.3283530 131.9066310  53.0402950  51.1468850 131.8461950  42.1759040
  50.9869990 131.5564890  43.0740870  50.9815560 131.0702080  41.6404270
  43.6257230 131.6260480  43.9530660  43.4499710 130.7096020  43.7398460
  42.7712970 131.9847770  44.1928460  50.8494980 129.3549510  40.7357040
  50.1560140 129.3526800  40.0759320  51.5917840 128.9308830  40.3051210
  50.4144910 130.9812220  44.8105530  50.8701860 130.2001600  45.1244150
  50.7537430 131.6919040  45.3546710  38.1647460 126.7528680  51.9696270
  38.3278500 126.2834040  51.1515640  38.6299910 126.2452240  52.6345110
  46.0525050 115.5045140  41.8862670  45.4279230 115.5005010  42.6115980
  45.9655170 114.6376100  41.4898640  49.9578210 121.0131380  43.3328740
  49.3587100 121.7367180  43.1492360  50.5057820 120.9508160  42.5505190
  48.5643080 119.6494920  45.3632020  48.9572650 119.9667120  44.5500710
  48.9259930 118.7706800  45.4776540  37.6007250 116.2395720  47.5862220
  37.3120300 116.8098580  48.2987200  38.3453010 115.7600170  47.9493450
  37.7877480 120.1815840  38.7964940  37.7052150 121.1246600  38.9379930
  37.4360540 120.0390750  37.9177290  49.1498220 122.2400670  49.4582800
  48.4179340 122.7487480  49.8072900  48.7522560 121.4230650  49.1571580
  49.6124130 117.6934350  48.8705740  49.6296870 118.1443000  49.7147590
  49.3639710 116.7939990  49.0839180  53.0394880 115.1066530  54.7092120
  53.3640650 114.3756190  55.2350100  53.0751390 114.7880170  53.8073110
  45.8883580 122.9756650  49.6100700  46.2553710 122.5015220  50.3562040
  45.6988640 123.8498220  49.9509040  42.2064740 126.2226280  42.5251760
  41.4327000 125.6823900  42.3650480  42.9359370 125.7032890  42.1869520
  48.4262660 116.6129600  42.4607540  47.6127270 116.1142770  42.3852850
  48.2324610 117.4527850  42.0443890  48.3471520 125.2900700  54.2047150
  48.2808830 124.3696370  53.9504740  47.7176660 125.3876140  54.9191790
  51.1411050 120.9849250  40.7569700  52.0290670 121.2966480  40.5821040
  51.1116140 120.1121500  40.3650280  42.2502140 125.8906660  46.1630570
  42.7680810 125.0874920  46.1087460  41.7986160 125.8285800  47.0047400
  47.1371640 127.1572940  41.4357870  47.4787340 127.9015170  40.9401190
  46.3084350 127.4704060  41.7982700  48.2788250 128.1121270  53.9550950
  48.2932790 127.1802230  53.7369860  47.5713350 128.1981030  54.5940720
  53.4125320 122.2961090  40.2249560  53.3289040 122.7275310  39.3746000
  54.1319510 122.7559440  40.6576380  46.1062330 127.2386470  44.2073790
  46.7933460 127.7855680  44.5881380  45.3194750 127.7827200  44.2423400
  38.2454730 122.8559290  39.6990870  39.1149580 123.1384090  39.9826790
  37.7545050 123.6695160  39.5839680  47.7122150 129.7538840  51.0491450
  48.3564370 129.9598220  51.7264870  48.0751590 128.9927240  50.5962300
  48.9854230 127.7571190  49.7668900  49.6276460 127.0564350  49.8801070
  49.5103580 128.5369630  49.5865790  52.8309950 128.0419810  39.4908040
  52.6047530 127.3250250  40.0832680  52.4406150 127.7932250  38.6529790
  50.7591850 128.5566090  52.9704960  51.0948090 129.1432780  53.6482880
  49.8392190 128.4258800  53.2002750  38.6125980 132.0686670  40.2652500
  38.9723620 132.6676010  39.6109770  38.4718320 132.6146560  41.0387530
  52.4126200 125.9591750  41.1522200  52.1247900 126.4204440  41.9400080
  53.2078370 125.4989520  41.4206420  38.5967840 130.3341530  54.7394900
  38.7058960 129.3936270  54.5990290  37.9448400 130.5996280  54.0908630
  46.5880430 128.6057420  56.1393020  46.2677300 127.8866660  56.6838710
  45.9138790 129.2812490  56.2129080  44.6294600 129.4517870  41.0826170
  44.6204700 130.1847560  40.4670680  43.7092960 129.2049450  41.1753130
  40.2301240 124.6732760  41.8272930  39.6229190 125.4131660  41.8368230
  40.7050590 124.7632120  41.0011130  49.8034030 118.8383580  51.5029820
  50.1714850 118.0178790  51.8309390  48.9432230 118.8985470  51.9185470
  53.1696060 117.7940520  42.3117380  52.5409220 117.8986190  41.5975610
  52.6747980 118.0137300  43.1011260  47.6154200 129.5146110  39.7451360
  47.7166180 129.3110100  38.8153340  46.7155940 129.2604390  39.9499140
  49.1695520 116.7977130  45.1671050  49.0463300 116.8163260  44.2180560
  50.1180080 116.8456070  45.2869450  46.2572310 132.0332430  44.4399030
  46.5113810 131.9953820  43.5178400  45.3084790 131.9065760  44.4327280
  53.9702880 117.7091130  52.5696180  53.4676480 118.4496530  52.9089990
  54.7859540 118.0975130  52.2532970  42.2406530 124.6343910  39.5761500
  43.0069800 124.5225270  40.1386930  42.3181220 123.9381880  38.9238270
  40.9353290 122.0668980  40.2594390  41.0156880 121.1196490  40.3711790
  41.8273040 122.3975860  40.3655050  54.2650470 130.1233160  47.6911800
  54.3897890 130.9464330  48.1635610  55.1316030 129.9123890  47.3435950
  41.7368000 132.2164370  47.3628930  42.4730480 131.6679830  47.6337500
  42.1208920 133.0820380  47.2234920  38.6213480 128.2837940  43.2370440
  37.6953260 128.5259080  43.2275850  39.0869910 129.1112200  43.1155190
  40.7426280 131.4010440  56.5514510  41.5439010 131.7222490  56.9649910
  40.2278100 131.0406020  57.2734420  44.8470310 131.3894680  39.1854500
  45.6398920 131.6783510  38.7336290  44.3274660 130.9586850  38.5066980
  49.5790910 127.5090310  56.4989920  48.9729070 127.5321910  55.7585670
  49.2745020 126.7773350  57.0357170  51.0091280 131.2370600  55.1099330
  51.9613030 131.1528620  55.0599570  50.8619500 131.9012310  55.7833120
  53.9000480 130.6164810  40.6091240  53.6141990 130.2029950  39.7945420
  53.7020030 131.5452520  40.4891760  45.3647710 126.6098090  39.0496850
  45.2598350 125.9950440  39.7758230  45.1971930 126.0863980  38.2659860
  45.5162030 125.2954890  55.0286080  44.7507700 125.8639890  54.9440750
  45.6977990 125.0031100  54.1354310  48.6050440 125.6718120  39.6538840
  48.0560540 126.1187420  40.2981580  49.2269700 125.1667370  40.1776510
  52.6585380 127.0260220  55.5861100  53.3994850 127.3635980  55.0828560
  51.8958060 127.1952280  55.0330870  51.3331040 125.0775050  54.1216310
  51.7472060 125.2320130  54.9706730  50.3982040 125.2030270  54.2842090
  45.6886720 116.1341200  51.4699800  45.2404020 116.1565460  50.6245350
  45.0551920 115.7360220  52.0670100  46.0946270 125.0295530  52.0912240
  46.5134380 125.8728260  51.9188480  45.1754900 125.1667570  51.8619020
  48.4310170 122.7611710  53.4750080  48.5506380 122.1652850  54.2144920
  49.2904170 122.7981400  53.0551380  50.7698070 123.3148900  52.0512590
  50.2433290 123.8391520  51.4477730  51.1129410 123.9476290  52.6822320
  43.1684460 120.7042270  38.4962300  42.9673520 119.8409630  38.8575640
  42.9976510 120.6175630  37.5583900  43.9453690 131.3348540  53.2069970
  43.4074780 132.0594600  52.8878670  44.1987650 130.8578880  52.4167310
  50.0172370 118.9198870  54.9658920  49.3287890 118.2580410  54.9008910
  50.7378390 118.4737140  55.4107380  50.6472770 115.5150500  41.0249180
  50.9275060 114.6718400  41.3808600  49.8738500 115.7473610  41.5387930
  41.9667260 117.8042890  38.4840180  42.2693160 117.8110320  37.5759330
  42.7061850 117.4540750  38.9807840  46.8015900 132.5699750  53.4656620
  46.7274600 133.4734890  53.7728990  45.8994740 132.2511650  53.4378690
  45.1852190 116.7477510  39.4696380  44.8374190 116.0701500  38.8898830
  45.3864960 116.2867020  40.2839770  47.3501230 131.7358260  41.0882980
  48.2452020 132.0743230  41.1101740  47.3818860 131.0137670  40.4607260
  40.9897390 127.1085310  39.3169980  41.4272260 127.6514980  39.9727560
  41.4745120 126.2832260  39.3266320  38.2043190 129.8974340  46.7690240
  38.5346200 129.0295400  46.5368880  38.6334190 130.1032860  47.5995200
  42.8005110 128.2283350  44.4292210  42.5000650 128.1048320  45.3296120
  42.6942600 127.3691940  44.0207940  38.6933400 130.7644930  49.5071870
  38.2564390 130.9445730  50.3396020  39.2611080 131.5219550  49.3653590
  54.3295580 130.2661930  53.7949180  53.7297570 130.3254490  53.0513100
  54.4589480 129.3266910  53.9246030  55.5697030 128.0079750  39.1318890
  54.7389990 128.0756400  39.6026120  55.7468860 128.8983870  38.8285750
  55.0253490 124.7527230  41.6353090  55.7872400 125.3223880  41.7412780
  55.0407860 124.1854430  42.4061400  38.5257830 123.2765160  45.8660750
  37.8706670 123.0076800  45.2220450  39.3635780 123.1669640  45.4162730
  53.0147220 126.9913910  51.8925340  52.2007060 127.4211070  52.1551130
  53.4221420 127.6032320  51.2794390  55.0772660 125.0461600  38.7925610
  55.3521500 125.9540480  38.6644830  54.8883400 124.9824130  39.7287600
  51.4748270 118.0706450  40.0879240  51.8933150 117.8837430  39.2475900
  51.1684330 117.2185500  40.3982170  52.8025690 117.3558540  56.1974260
  53.6795870 117.3641940  56.5808260  52.8146530 116.6189380  55.5866610
  37.7395910 120.4864090  41.8086080  36.8359990 120.7494290  41.6337740
  38.2236530 120.7575260  41.0286040  54.4278680 121.2927950  50.6081830
  53.4781390 121.2591490  50.7226820  54.6091690 122.2028060  50.3731600
  40.2823120 119.5429630  39.7180460  40.9914820 119.1212850  39.2327740
  39.5663060 119.6104860  39.0863810  39.9297280 115.5968960  38.7583110
  40.6525410 116.1377900  39.0764330  40.2021800 115.3232380  37.8824650
  39.6189470 114.8475150  48.6605730  40.2665660 114.2972530  48.2200890
  40.0391310 115.1018300  49.4821540  53.5141810 115.0416510  52.0175370
  54.1514030 115.6550650  52.3834560  53.6616700 115.0777170  51.0724600
  56.0566360 116.9330300  38.7998510  56.9815670 116.8011480  38.5916800
  56.0342150 117.0123120  39.7534960  53.0723270 131.7432510  45.4193610
  53.6682340 131.4217080  44.7428030  53.3301420 131.2704330  46.2106880
  39.3721470 115.0030820  51.4031050  39.0236290 115.4594640  52.1689230
  39.0409170 114.1087950  51.4853480  40.9785840 128.1750420  55.5684240
  40.9355470 127.8043330  56.4498700  41.1096850 129.1127990  55.7086060
  44.6791870 129.7310010  51.1693960  44.4383230 129.9984570  50.2824480
  45.6194510 129.9015740  51.2244820  49.5220850 115.8512760  54.5642760
  50.1361260 116.1692050  53.9023840  50.0670410 115.3661350  55.1838620
  40.0442110 114.5307020  54.6781820  40.5925100 114.3495070  53.9147930
  40.1097420 113.7401130  55.2138130  40.8173870 131.1212670  52.6882020
  40.2234190 130.9897370  53.4272060  40.8097710 130.2850810  52.2224120
  50.2628890 114.4144900  50.8912050  49.3888730 114.7480010  50.6884980
  50.1539640 113.9418080  51.7163920  51.1700870 116.6215770  52.2753770
  50.8414230 115.8067530  51.8955500  52.1183170 116.5785580  52.1519460
  53.6235480 132.3927810  49.2491340  53.1638450 133.1443620  48.8749360
  52.9947940 131.6734280  49.1906140  40.4486100 128.4871050  51.6390060
  39.7220160 127.8676340  51.5716010  40.5095250 128.8811660  50.7688140
  44.0531200 130.7016050  48.4239470  44.5696220 130.0903410  47.8987730
  44.7028580 131.2044830  48.9150480  46.7926700 131.5924540  49.2508450
  47.0804510 131.3378840  48.3741460  47.3049920 131.0401900  49.8414020
  48.0103710 115.3314740  49.8304960  47.2275500 115.8060240  50.1101720
  47.7166640 114.4269570  49.7218140  38.7316100 131.8045440  44.8486820
  38.5638140 131.1716120  45.5468710  37.8650610 132.0104840  44.4981010
  50.3982910 114.4143940  46.5804060  51.0012280 114.9864150  47.0552580
  49.6575900 114.9783380  46.3577960  53.5417510 114.8165500  41.8544340
  53.7368140 115.7148950  42.1211770  52.7547380 114.5852580  42.3477290
  40.3378800 130.4978670  42.2936960  39.8126420 130.8786700  41.5898920
  40.2623380 131.1229440  43.0146670  46.8599060 132.5140640  56.6176650
  47.7866370 132.2784910  56.6612610  46.8449490 133.3412640  56.1362680
  42.9371770 132.4461050  41.1686210  43.6690590 132.1620330  40.6210100
  43.1965440 132.2074330  42.0585590  42.0986560 128.5625780  41.1732540
  41.4695440 129.0310880  41.7218370  42.2134390 127.7175000  41.6078730
  50.6478130 114.5938970  56.9599000  50.5343580 114.9133580  57.8550520
  51.4647870 114.9951480  56.6636280  53.4276620 131.7410500  56.4417690
  54.2201940 131.2459730  56.2343650  53.7209770 132.4200640  57.0493300
  49.5536280 122.6131440  27.3233740  49.4730330 121.6986050  27.0525450
  49.1400700 123.1098510  26.6173450  47.6854320 124.3910460  29.2043010
  46.9096420 123.9110900  29.4941580  48.3367250 123.7116110  29.0299170
  41.7020150 124.7030270  30.0818770  40.8705030 124.4478980  30.4815280
  42.3101130 124.7741040  30.8176690  51.7061750 128.7970650  27.9842140
  51.2443280 128.0257890  28.3129310  52.5187300 128.8236720  28.4894590
  41.6821410 128.7370360  30.2776790  41.9849450 127.8468100  30.0987010
  42.4265000 129.2940580  30.0499040  40.1112100 119.6632160  23.8661160
  39.2228800 120.0048130  23.7641040  40.3953290 119.4632480  22.9741990
  38.0745110 122.2637810  29.7500860  38.6461220 121.4960010  29.7504500
  38.0746650 122.5626570  28.8407470  47.9325060 131.0828660  27.6046130
  47.3136500 131.5386160  27.0340570  48.7876840 131.2380120  27.2035830
  47.1263310 127.0667650  29.2113170  47.0571590 126.1257590  29.0502300
  47.8883170 127.1569060  29.7835740  39.3169980 117.6722170  31.5369790
  39.1372820 116.7747920  31.8172550  38.9150060 118.2194040  32.2116740
  48.1568480 119.8738030  29.4382100  48.5333300 119.0009910  29.3255770
  48.0587990 120.2096730  28.5472540  42.2873490 118.2463660  24.8999540
  42.3940240 119.1467390  25.2068300  41.3765850 118.1981630  24.6094190
  51.9392600 117.3688470  26.3710440  52.7602220 116.8785040  26.4135920
  51.9726680 117.9586130  27.1242280  39.9356650 120.1682670  30.1452130
  40.6166760 120.4321040  30.7639530  39.6204700 119.3283540  30.4790140
  44.1281220 121.2150030  29.2324720  44.6359440 121.7131000  29.8729740
  44.6594460 120.4385230  29.0564080  56.2292150 119.3855220  32.9354070
  55.5244320 119.7736930  32.4169180  56.4950070 120.0805510  33.5375000
  42.4117320 115.8548590  33.4988140  42.4135760 116.3720980  32.6934040
  41.5821630 115.3778770  33.4758070  48.7988410 125.9667900  24.9978040
  48.1805680 126.4317350  24.4340760  49.3111660 126.6595380  25.4147550
  43.6620170 125.4943770  31.6761640  43.3289550 126.1212690  32.3182710
  43.8386850 126.0205650  30.8963310  52.1754080 119.3088850  29.1437980
  51.4709650 119.5973740  29.7241090  52.5366240 120.1188960  28.7837540
  42.0932650 117.5658550  31.5058590  42.4349460 118.4100600  31.2112460
  41.1548460 117.7142290  31.6223930  42.8739270 127.4624570  33.4910820
  43.4913270 128.1375650  33.2095270  42.0132390 127.8712550  33.3998320
  38.1671610 126.6524430  22.3717670  37.7899590 127.1411530  21.6402570
  38.4244680 127.3249710  23.0024200  53.7916860 128.9263980  31.4065460
  53.1080380 129.5963090  31.3982130  54.3311150 129.1244630  30.6410320
  55.2441000 118.7543640  29.5347190  54.2965910 118.7882620  29.6662620
  55.5690990 119.5682590  29.9196550  45.7760540 115.0540820  27.8303180
  46.0835520 114.4987710  27.1138680  44.8461240 115.1885280  27.6476170
  51.3275600 130.7708110  30.1210640  51.3402760 130.3670400  29.2532900
  50.7750820 131.5455400  30.0172070  52.6221020 127.4924330  25.2100810
  52.5117350 126.5498660  25.3350230  52.6189270 127.8539970  26.0963570
  50.7261040 125.6737950  31.4493250  51.1429830 125.4598060  30.6146710
  51.4500860 125.9310740  32.0201870  48.1641300 123.1189650  24.5663300
  47.2370580 123.0527030  24.7951770  48.3166120 124.0569780  24.4518540
  48.1510380 119.3906650  21.5630460  47.2114050 119.5520610  21.6482920
  48.4693640 120.1092330  21.0166450  54.6723140 124.0725170  31.5409490
  53.8441770 124.1418260  31.0659620  55.2673620 124.6579480  31.0725320
  52.1938590 124.6809950  25.0698550  51.5751010 124.3429500  24.4224850
  52.1763040 124.0369710  25.7777740  51.6365150 120.8594490  32.4864360
  51.2236330 121.6848200  32.7404350  50.9041100 120.2739530  32.2940720
  43.7697940 123.6454390  27.3483030  43.3654940 122.9331640  26.8528930
  43.8561060 123.3007630  28.2371070  44.2379640 127.3321950  29.5122240
  43.9407930 126.7267420  28.8330020  45.1879460 127.3699260  29.4011600
  42.4826560 120.4197600  31.1282070  43.0341150 120.5292940  30.3535320
  42.9970070 120.7935200  31.8437300  52.3265250 130.9053820  33.1745340
  51.8495810 131.7126010  32.9817950  51.6427040 130.2532150  33.3271550
  43.3298070 127.0703640  36.1630040  42.4326600 127.2943610  36.4103440
  43.3550940 127.1938580  35.2141440  50.3703290 123.9196760  22.0771300
  50.8096570 123.0819190  21.9309120  51.0831710 124.5526160  22.1635440
  42.1569290 123.9416960  34.7387410  42.0177060 124.8139760  35.1074810
  41.2750650 123.5989770  34.5935350  48.4798670 128.8592830  26.0452540
  48.9194580 129.6017160  25.6307930  48.4185560 129.1019400  26.9691500
  43.9549640 129.8838660  36.9472560  43.9265070 130.2881610  36.0800990
  43.7914610 128.9549020  36.7844160  53.9520430 115.1739570  20.3912340
  53.6393090 115.2666400  21.2911410  54.7132900 115.7520600  20.3409770
  40.4702570 122.5399370  24.8489680  40.3500170 123.2661460  24.2370950
  40.1603460 121.7702280  24.3717590  55.9064460 130.6665760  38.2436730
  56.3824180 131.1448650  38.9225810  56.5271620 130.5983250  37.5182230
  38.1087940 125.7114510  30.6558320  38.1868360 125.8463280  29.7114040
  38.7229620 125.0030400  30.8486440  39.3535570 127.4114700  27.0664500
  38.9463650 127.5529290  26.2118100  40.2448580 127.1274860  26.8635710
  55.3097710 127.8578610  35.4036740  55.4360770 127.6190490  34.4853920
  55.3519090 127.0263150  35.8758820  49.1714450 131.5606610  33.9731550
  49.6859120 131.4714620  34.7753980  48.3283530 131.9066310  34.2659460
  51.1468850 131.8461950  23.4015550  50.9869990 131.5564890  24.2997380
  50.9815560 131.0702080  22.8660780  43.6257230 131.6260480  25.1787170
  43.4499710 130.7096020  24.9654970  42.7712970 131.9847770  25.4184970
  50.8494980 129.3549510  21.9613550  50.1560140 129.3526800  21.3015830
  51.5917840 128.9308830  21.5307720  50.4144910 130.9812220  26.0362040
  50.8701860 130.2001600  26.3500660  50.7537430 131.6919040  26.5803220
  55.1621720 119.9111070  36.3686480  54.5465990 120.4190740  35.8401940
  54.8418140 119.0109400  36.3112420  38.1647460 126.7528680  33.1952780
  38.3278500 126.2834040  32.3772150  38.6299910 126.2452240  33.8601620
  42.9366230 115.8834440  28.2313350  42.4934380 116.6643980  27.8997870
  43.4951220 116.2064330  28.9384290  47.2236040 118.7502960  33.8348670
  46.7615410 118.9585980  34.6468610  46.8214150 117.9362310  33.5319340
  52.2240550 119.9711910  34.9645330  51.3734140 119.6717660  35.2854400
  52.0642340 120.2153920  34.0529150  49.3190260 121.4713660  37.0644120
  49.6443670 120.6377410  36.7246350  50.1070590 121.9942180  37.2122450
  46.0525050 115.5045140  23.1119180  45.4279230 115.5005010  23.8372490
  45.9655170 114.6376100  22.7155150  44.9742130 116.4281770  30.0902950
  45.2714460 117.3344600  30.0094970  45.5227690 115.9400550  29.4762520
  42.7280450 121.0068010  25.9594600  42.5021370 120.7905180  26.8641220
  41.9472980 121.4396470  25.6140570  49.9578210 121.0131380  24.5585250
  49.3587100 121.7367180  24.3748870  50.5057820 120.9508160  23.7761700
  45.1679660 121.9053590  36.6254870  45.0723260 120.9648320  36.4755270
  46.0111640 122.1268660  36.2302940  48.5643080 119.6494920  26.5888530
  48.9572650 119.9667120  25.7757220  48.9259930 118.7706800  26.7033050
  40.2990200 118.3167260  34.7788650  39.9053590 119.1642470  34.9861430
  39.6108600 117.6793630  34.9697290  46.8735250 118.4002230  37.8485390
  46.1833570 118.2074430  38.4831480  47.6167550 118.6836870  38.3809690
  37.6007250 116.2395720  28.8118730  37.3120300 116.8098580  29.5243710
  38.3453010 115.7600170  29.1749960  37.7877480 120.1815840  20.0221450
  37.7052150 121.1246600  20.1636440  37.4360540 120.0390750  19.1433800
  49.1498220 122.2400670  30.6839310  48.4179340 122.7487480  31.0329410
  48.7522560 121.4230650  30.3828090  45.5875610 118.9154870  29.0891800
  45.5911670 118.4744820  28.2396340  46.4826730 119.2372200  29.1963620
  41.4377990 118.7981360  28.0486010  41.0978040 119.2756590  28.8053060
  40.6755310 118.3446480  27.6887110  45.6495760 119.9166950  22.0798560
  45.7708580 119.8753430  23.0284380  45.2644270 120.7791100  21.9245290
  49.6124130 117.6934350  30.0962250  49.6296870 118.1443000  30.9404100
  49.3639710 116.7939990  30.3095690  44.6617260 122.2268090  21.4781860
  44.0934160 121.7786340  20.8517770  45.3706260 122.5860870  20.9447010
  53.0394880 115.1066530  35.9348630  53.3640650 114.3756190  36.4606610
  53.0751390 114.7880170  35.0329620  39.7386440 126.1280110  35.3548590
  39.3541230 125.4873780  35.9531550  40.0498630 126.8316230  35.9243320
  45.8883580 122.9756650  30.8357210  46.2553710 122.5015220  31.5818550
  45.6988640 123.8498220  31.1765550  38.7524070 117.7200340  26.9650680
  38.4670990 117.3556010  27.8029300  38.6902930 116.9880800  26.3513820
  43.6782950 122.0165290  33.1541420  43.3740020 122.8957270  33.3791780
  44.6329410 122.0765080  33.1898860  42.2064740 126.2226280  23.7508270
  41.4327000 125.6823900  23.5906990  42.9359370 125.7032890  23.4126030
  52.9652720 125.2191640  29.5434660  53.6851840 125.7146930  29.1530770
  52.7634540 124.5409530  28.8988530  48.4262660 116.6129600  23.6864050
  47.6127270 116.1142770  23.6109360  48.2324610 117.4527850  23.2700400
  48.3471520 125.2900700  35.4303660  48.2808830 124.3696370  35.1761250
  47.7176660 125.3876140  36.1448300  51.1411050 120.9849250  21.9826210
  52.0290670 121.2966480  21.8077550  51.1116140 120.1121500  21.5906790
  42.2502140 125.8906660  27.3887080  42.7680810 125.0874920  27.3343970
  41.7986160 125.8285800  28.2303910  47.1371640 127.1572940  22.6614380
  47.4787340 127.9015170  22.1657700  46.3084350 127.4704060  23.0239210
  39.7346680 122.8568030  34.3012780  39.3761620 123.5221880  34.8886120
  39.4401240 122.0251580  34.6725400  42.9359800 123.3152270  37.1852330
  42.6359940 123.4609450  36.2880150  43.7071040 122.7557560  37.0925720
  48.2788250 128.1121270  35.1807460  48.2932790 127.1802230  34.9626370
  47.5713350 128.1981030  35.8197230  53.4125320 122.2961090  21.4506070
  53.3289040 122.7275310  20.6002510  54.1319510 122.7559440  21.8832890
  54.4899460 124.7528610  34.5276040  53.7647650 125.3457390  34.3305430
  55.0174920 124.7452150  33.7289410  54.4412570 129.1503350  24.1788200
  53.7988730 128.4958970  24.4531920  54.0543230 129.5558440  23.4028870
  50.0199050 126.4788780  28.0259890  50.3722870 125.8816910  27.3661260
  49.1361380 126.1533010  28.1968140  46.1062330 127.2386470  25.4330300
  46.7933460 127.7855680  25.8137890  45.3194750 127.7827200  25.4679910
  38.2454730 122.8559290  20.9247380  39.1149580 123.1384090  21.2083300
  37.7545050 123.6695160  20.8096190  45.4089540 124.2432500  25.0455660
  45.8652320 125.0537750  25.2715850  45.0577750 123.9255640  25.8774150
  47.7122150 129.7538840  32.2747960  48.3564370 129.9598220  32.9521380
  48.0751590 128.9927240  31.8218810  41.3101320 114.5870150  25.5178180
  41.1815950 114.5788050  26.4663100  40.4863340 114.9253240  25.1669190
  48.9854230 127.7571190  30.9925410  49.6276460 127.0564350  31.1057580
  49.5103580 128.5369630  30.8122300  52.8309950 128.0419810  20.7164550
  52.6047530 127.3250250  21.3089190  52.4406150 127.7932250  19.8786300
  50.7591850 128.5566090  34.1961470  51.0948090 129.1432780  34.8739390
  49.8392190 128.4258800  34.4259260  38.6125980 132.0686670  21.4909010
  38.9723620 132.6676010  20.8366280  38.4718320 132.6146560  22.2644040
  38.3095250 116.3461270  34.9784880  37.5953770 116.5458190  35.5837490
  38.7290290 115.5700840  35.3499680  52.4126200 125.9591750  22.3778710
  52.1247900 126.4204440  23.1656590  53.2078370 125.4989520  22.6462930
  38.5967840 130.3341530  35.9651410  38.7058960 129.3936270  35.8246800
  37.9448400 130.5996280  35.3165140  46.5880430 128.6057420  37.3649530
  46.2677300 127.8866660  37.9095220  45.9138790 129.2812490  37.4385590
  44.6294600 129.4517870  22.3082680  44.6204700 130.1847560  21.6927190
  43.7092960 129.2049450  22.4009640  40.2301240 124.6732760  23.0529440
  39.6229190 125.4131660  23.0624740  40.7050590 124.7632120  22.2267640
  49.8034030 118.8383580  32.7286330  50.1714850 118.0178790  33.0565900
  48.9432230 118.8985470  33.1441980  53.1696060 117.7940520  23.5373890
  52.5409220 117.8986190  22.8232120  52.6747980 118.0137300  24.3267770
  47.6154200 129.5146110  20.9707870  47.7166180 129.3110100  20.0409850
  46.7155940 129.2604390  21.1755650  45.1380090 120.0726470  24.9531770
  44.4296240 120.5412810  25.3945380  45.4224570 119.4148480  25.5876960
  46.7636020 121.4923170  32.9524300  47.2621270 121.9668990  33.6176150
  46.9058970 120.5686690  33.1594330  49.1695520 116.7977130  26.3927560
  49.0463300 116.8163260  25.4437070  50.1180080 116.8456070  26.5125960
  46.2572310 132.0332430  25.6655540  46.5113810 131.9953820  24.7434910
  45.3084790 131.9065760  25.6583790  43.3415110 118.3811550  22.3282480
  44.1905640 118.8181700  22.2622670  42.9746380 118.6931810  23.1554540
  53.9702880 117.7091130  33.7952690  53.4676480 118.4496530  34.1346500
  54.7859540 118.0975130  33.4789480  52.2624890 122.9524310  27.2414050
  51.3215030 122.9674540  27.4161740  52.5768960 122.1660270  27.6874350
  42.2406530 124.6343910  20.8018010  43.0069800 124.5225270  21.3643440
  42.3181220 123.9381880  20.1494780  40.9353290 122.0668980  21.4850900
  41.0156880 121.1196490  21.5968300  41.8273040 122.3975860  21.5911560
  54.2650470 130.1233160  28.9168310  54.3897890 130.9464330  29.3892120
  55.1316030 129.9123890  28.5692460  41.7368000 132.2164370  28.5885440
  42.4730480 131.6679830  28.8594010  42.1208920 133.0820380  28.4491430
  38.6213480 128.2837940  24.4626950  37.6953260 128.5259080  24.4532360
  39.0869910 129.1112200  24.3411700  40.7426280 131.4010440  37.7771020
  41.5439010 131.7222490  38.1906420  40.2278100 131.0406020  38.4990930
  44.8470310 131.3894680  20.4111010  45.6398920 131.6783510  19.9592800
  44.3274660 130.9586850  19.7323490  49.5790910 127.5090310  37.7246430
  48.9729070 127.5321910  36.9842180  49.2745020 126.7773350  38.2613680
  51.0091280 131.2370600  36.3355840  51.9613030 131.1528620  36.2856080
  50.8619500 131.9012310  37.0089630  53.9000480 130.6164810  21.8347750
  53.6141990 130.2029950  21.0201930  53.7020030 131.5452520  21.7148270
  38.4624090 123.8883900  36.7207070  38.9663110 123.3091180  37.2923300
  37.7231510 124.1724130  37.2583440  45.3647710 126.6098090  20.2753360
  45.2598350 125.9950440  21.0014740  45.1971930 126.0863980  19.4916370
  45.5162030 125.2954890  36.2542590  44.7507700 125.8639890  36.1697260
  45.6977990 125.0031100  35.3610820  48.6050440 125.6718120  20.8795350
  48.0560540 126.1187420  21.5238090  49.2269700 125.1667370  21.4033020
  52.6585380 127.0260220  36.8117610  53.3994850 127.3635980  36.3085070
  51.8958060 127.1952280  36.2587380  40.4947170 122.0313490  37.6157140
  40.5352510 121.7327360  38.5242370  41.3492670 122.4321100  37.4564660
  44.2725560 124.6309040  22.7760650  44.6941980 124.4648910  23.6192040
  44.3976400 123.8209270  22.2815790  42.4352980 120.6105590  35.5831630
  41.9049440 120.1196540  34.9554970  43.1041050 121.0389790  35.0489560
  46.7853200 123.6546650  20.0237750  47.3058860 122.9395670  19.6578900
  47.4321600 124.2932520  20.3238260  51.3331040 125.0775050  35.3472820
  51.7472060 125.2320130  36.1963240  50.3982040 125.2030270  35.5098600
  51.8053210 122.4171210  37.3511970  52.3873980 121.6623530  37.2632450
  51.9814980 122.9478650  36.5743450  42.9225280 117.5767960  35.6628920
  42.8282150 116.9588710  34.9379790  42.3422670 118.3034250  35.4358830
  45.6886720 116.1341200  32.6956310  45.2404020 116.1565460  31.8501860
  45.0551920 115.7360220  33.2926610  46.0946270 125.0295530  33.3168750
  46.5134380 125.8728260  33.1444990  45.1754900 125.1667570  33.0875530
  48.4310170 122.7611710  34.7006590  48.5506380 122.1652850  35.4401430
  49.2904170 122.7981400  34.2807890  50.7698070 123.3148900  33.2769100
  50.2433290 123.8391520  32.6734240  51.1129410 123.9476290  33.9078830
  43.1684460 120.7042270  19.7218810  42.9673520 119.8409630  20.0832150
  42.9976510 120.6175630  18.7840410  43.9453690 131.3348540  34.4326480
  43.4074780 132.0594600  34.1135180  44.1987650 130.8578880  33.6423820
  45.1978940 119.3033060  35.9582410  45.7878630 118.9948910  36.6460230
  44.3799180 118.8312810  36.1142310  50.0172370 118.9198870  36.1915430
  49.3287890 118.2580410  36.1265420  50.7378390 118.4737140  36.6363890
  50.6472770 115.5150500  22.2505690  50.9275060 114.6718400  22.6065110
  49.8738500 115.7473610  22.7644440  41.9667260 117.8042890  19.7096690
  42.2693160 117.8110320  18.8015840  42.7061850 117.4540750  20.2064350
  46.8015900 132.5699750  34.6913130  46.7274600 133.4734890  34.9985500
  45.8994740 132.2511650  34.6635200  45.1852190 116.7477510  20.6952890
  44.8374190 116.0701500  20.1155340  45.3864960 116.2867020  21.5096280
  47.3501230 131.7358260  22.3139490  48.2452020 132.0743230  22.3358250
  47.3818860 131.0137670  21.6863770  40.9897390 127.1085310  20.5426490
  41.4272260 127.6514980  21.1984070  41.4745120 126.2832260  20.5522830
  38.2043190 129.8974340  27.9946750  38.5346200 129.0295400  27.7625390
  38.6334190 130.1032860  28.8251710  42.8005110 128.2283350  25.6548720
  42.5000650 128.1048320  26.5552630  42.6942600 127.3691940  25.2464450
  38.6933400 130.7644930  30.7328380  38.2564390 130.9445730  31.5652530
  39.2611080 131.5219550  30.5910100  54.3295580 130.2661930  35.0205690
  53.7297570 130.3254490  34.2769610  54.4589480 129.3266910  35.1502540
  55.5697030 128.0079750  20.3575400  54.7389990 128.0756400  20.8282630
  55.7468860 128.8983870  20.0542260  55.0253490 124.7527230  22.8609600
  55.7872400 125.3223880  22.9669290  55.0407860 124.1854430  23.6317910
  38.5257830 123.2765160  27.0917260  37.8706670 123.0076800  26.4476960
  39.3635780 123.1669640  26.6419240  56.0313460 125.6077330  27.7051530
  56.4022290 124.8244650  27.2987500  56.6715390 126.2966430  27.5268830
  53.0147220 126.9913910  33.1181850  52.2007060 127.4211070  33.3807640
  53.4221420 127.6032320  32.5050900  55.0772660 125.0461600  20.0182120
  55.3521500 125.9540480  19.8901340  54.8883400 124.9824130  20.9544110
  51.4748270 118.0706450  21.3135750  51.8933150 117.8837430  20.4732410
  51.1684330 117.2185500  21.6238680  54.9738000 122.9830590  25.0111550
  54.5981600 122.2158520  24.5792840  54.2441120 123.3653290  25.4986480
  39.5633760 123.6617730  31.6320600  39.9306800 123.5745130  32.5116620
  38.9944580 122.8984280  31.5327460  54.3637620 122.1302110  34.6451070
  54.1323710 121.9014860  33.7449020  54.6242170 123.0501660  34.5995960
  39.1149760 120.5726820  35.5379020  38.2205810 120.5393580  35.8772730
  39.6547310 120.7713610  36.3030270  52.8025690 117.3558540  37.4230770
  53.6795870 117.3641940  37.8064770  52.8146530 116.6189380  36.8123120
  37.7395910 120.4864090  23.0342590  36.8359990 120.7494290  22.8594250
  38.2236530 120.7575260  22.2542550  54.2488960 121.2088080  28.3118790
  54.7726440 120.7150730  27.6808960  54.8348380 121.3438440  29.0566360
  54.4278680 121.2927950  31.8338340  53.4781390 121.2591490  31.9483330
  54.6091690 122.2028060  31.5988110  40.2823120 119.5429630  20.9436970
  40.9914820 119.1212850  20.4584250  39.5663060 119.6104860  20.3120320
  39.9297280 115.5968960  19.9839620  40.6525410 116.1377900  20.3020840
  40.2021800 115.3232380  19.1081160  53.7388930 120.4661430  24.2511200
  54.2348050 120.2332300  25.0360080  53.5405000 119.6273270  23.8348840
  39.6189470 114.8475150  29.8862240  40.2665660 114.2972530  29.4457400
  40.0391310 115.1018300  30.7078050  55.1676090 119.1022380  26.7848880
  55.0575370 118.9478420  27.7231150  55.9283680 118.5743320  26.5424290
  53.5141810 115.0416510  33.2431880  54.1514030 115.6550650  33.6091070
  53.6616700 115.0777170  32.2981110  56.0566360 116.9330300  20.0255020
  56.9815670 116.8011480  19.8173310  56.0342150 117.0123120  20.9791470
  56.1304850 117.7040960  22.6511730  55.3356350 117.6386080  23.1804640
  56.3348130 118.6391600  22.6397080  53.0723270 131.7432510  26.6450120
  53.6682340 131.4217080  25.9684540  53.3301420 131.2704330  27.4363390
  39.3721470 115.0030820  32.6287560  39.0236290 115.4594640  33.3945740
  39.0409170 114.1087950  32.7109990  40.9785840 128.1750420  36.7940750
  40.9355470 127.8043330  37.6755210  41.1096850 129.1127990  36.9342570
  44.6791870 129.7310010  32.3950470  44.4383230 129.9984570  31.5080990
  45.6194510 129.9015740  32.4501330  46.8846290 116.1942700  36.1506980
  46.8235180 116.7864530  36.9002390  47.8246670 116.0868660  36.0057240
  49.5220850 115.8512760  35.7899270  50.1361260 116.1692050  35.1280350
  50.0670410 115.3661350  36.4095130  55.9396030 131.7504390  33.1961110
  55.4454310 132.1473260  32.4788240  55.3309320 131.1253600  33.5898390
  40.0442110 114.5307020  35.9038330  40.5925100 114.3495070  35.1404440
  40.1097420 113.7401130  36.4394640  40.8173870 131.1212670  33.9138530
  40.2234190 130.9897370  34.6528570  40.8097710 130.2850810  33.4480630
  50.2628890 114.4144900  32.1168560  49.3888730 114.7480010  31.9141490
  50.1539640 113.9418080  32.9420430  51.1700870 116.6215770  33.5010280
  50.8414230 115.8067530  33.1212010  52.1183170 116.5785580  33.3775970
  53.6235480 132.3927810  30.4747850  53.1638450 133.1443620  30.1005870
  52.9947940 131.6734280  30.4162650  40.4486100 128.4871050  32.8646570
  39.7220160 127.8676340  32.7972520  40.5095250 128.8811660  31.9944650
  44.0531200 130.7016050  29.6495980  44.5696220 130.0903410  29.1244240
  44.7028580 131.2044830  30.1406990  46.7926700 131.5924540  30.4764960
  47.0804510 131.3378840  29.5997970  47.3049920 131.0401900  31.0670530
  48.0103710 115.3314740  31.0561470  47.2275500 115.8060240  31.3358230
  47.7166640 114.4269570  30.9474650  52.5624780 116.0337840  29.1010560
  53.0032870 115.9782940  28.2532160  52.2932370 116.9495850  29.1720740
  54.4263350 115.6653080  27.1119380  54.3651750 114.7214300  26.9650400
  55.2055380 115.7733170  27.6572840  38.7316100 131.8045440  26.0743330
  38.5638140 131.1716120  26.7725220  37.8650610 132.0104840  25.7237520
  39.3544120 115.6362220  23.5775190  40.1123480 115.7491100  23.0039220
  38.8921290 116.4731420  23.5318620  45.8957930 117.7501490  26.5677500
  45.0832440 117.3758380  26.2273380  46.3999570 116.9946570  26.8698690
  50.3982910 114.4143940  27.8060570  51.0012280 114.9864150  28.2809090
  49.6575900 114.9783380  27.5834470  53.5417510 114.8165500  23.0800850
  53.7368140 115.7148950  23.3468280  52.7547380 114.5852580  23.5733800
  40.3378800 130.4978670  23.5193470  39.8126420 130.8786700  22.8155430
  40.2623380 131.1229440  24.2403180  41.7269270 116.1626270  22.1177160
  42.2562030 115.3756070  21.9885110  42.3597590 116.8417460  22.3512690
  43.9207110 115.9001410  25.1722550  43.2909850 115.1988720  25.3392680
  43.3812250 116.6605540  24.9555710  46.8599060 132.5140640  37.8433160
  47.7866370 132.2784910  37.8869120  46.8449490 133.3412640  37.3619190
  55.0944120 132.0566210  24.8407410  55.2696310 131.3703950  24.1968330
  54.3965690 132.5813260  24.4484080  44.0462670 115.1785390  37.6075040
  43.7646940 115.6818990  36.8435860  44.4282370 114.3807140  37.2417170
  42.9371770 132.4461050  22.3942720  43.6690590 132.1620330  21.8466610
  43.1965440 132.2074330  23.2842100  42.0986560 128.5625780  22.3989050
  41.4695440 129.0310880  22.9474880  42.2134390 127.7175000  22.8335240
  50.6478130 114.5938970  38.1855510  50.5343580 114.9133580  39.0807030
  51.4647870 114.9951480  37.8892790  53.4276620 131.7410500  37.6674200
  54.2201940 131.2459730  37.4600160  53.7209770 132.4200640  38.2749810
  49.5536280 122.6131440   8.5490250  49.4730330 121.6986050   8.2781960
  49.1400700 123.1098510   7.8429960  47.6854320 124.3910460  10.4299520
  46.9096420 123.9110900  10.7198090  48.3367250 123.7116110  10.2555680
  41.7020150 124.7030270  11.3075280  40.8705030 124.4478980  11.7071790
  42.3101130 124.7741040  12.0433200  51.7061750 128.7970650   9.2098650
  51.2443280 128.0257890   9.5385820  52.5187300 128.8236720   9.7151100
  41.6821410 128.7370360  11.5033300  41.9849450 127.8468100  11.3243520
  42.4265000 129.2940580  11.2755550  40.1112100 119.6632160   5.0917670
  39.2228800 120.0048130   4.9897550  40.3953290 119.4632480   4.1998500
  38.0745110 122.2637810  10.9757370  38.6461220 121.4960010  10.9761010
  38.0746650 122.5626570  10.0663980  47.9325060 131.0828660   8.8302640
  47.3136500 131.5386160   8.2597080  48.7876840 131.2380120   8.4292340
  47.1263310 127.0667650  10.4369680  47.0571590 126.1257590  10.2758810
  47.8883170 127.1569060  11.0092250  39.3169980 117.6722170  12.7626300
  39.1372820 116.7747920  13.0429060  38.9150060 118.2194040  13.4373250
  48.1568480 119.8738030  10.6638610  48.5333300 119.0009910  10.5512280
  48.0587990 120.2096730   9.7729050  42.2873490 118.2463660   6.1256050
  42.3940240 119.1467390   6.4324810  41.3765850 118.1981630   5.8350700
  51.9392600 117.3688470   7.5966950  52.7602220 116.8785040   7.6392430
  51.9726680 117.9586130   8.3498790  39.9356650 120.1682670  11.3708640
  40.6166760 120.4321040  11.9896040  39.6204700 119.3283540  11.7046650
  44.1281220 121.2150030  10.4581230  44.6359440 121.7131000  11.0986250
  44.6594460 120.4385230  10.2820590  56.2292150 119.3855220  14.1610580
  55.5244320 119.7736930  13.6425690  56.4950070 120.0805510  14.7631510
  42.4117320 115.8548590  14.7244650  42.4135760 116.3720980  13.9190550
  41.5821630 115.3778770  14.7014580  48.7988410 125.9667900   6.2234550
  48.1805680 126.4317350   5.6597270  49.3111660 126.6595380   6.6404060
  43.6620170 125.4943770  12.9018150  43.3289550 126.1212690  13.5439220
  43.8386850 126.0205650  12.1219820  52.1754080 119.3088850  10.3694490
  51.4709650 119.5973740  10.9497600  52.5366240 120.1188960  10.0094050
  42.0932650 117.5658550  12.7315100  42.4349460 118.4100600  12.4368970
  41.1548460 117.7142290  12.8480440  42.8739270 127.4624570  14.7167330
  43.4913270 128.1375650  14.4351780  42.0132390 127.8712550  14.6254830
  38.1671610 126.6524430   3.5974180  37.7899590 127.1411530   2.8659080
  38.4244680 127.3249710   4.2280710  53.7916860 128.9263980  12.6321970
  53.1080380 129.5963090  12.6238640  54.3311150 129.1244630  11.8666830
  55.2441000 118.7543640  10.7603700  54.2965910 118.7882620  10.8919130
  55.5690990 119.5682590  11.1453060  45.7760540 115.0540820   9.0559690
  46.0835520 114.4987710   8.3395190  44.8461240 115.1885280   8.8732680
  51.3275600 130.7708110  11.3467150  51.3402760 130.3670400  10.4789410
  50.7750820 131.5455400  11.2428580  52.6221020 127.4924330   6.4357320
  52.5117350 126.5498660   6.5606740  52.6189270 127.8539970   7.3220080
  50.7261040 125.6737950  12.6749760  51.1429830 125.4598060  11.8403220
  51.4500860 125.9310740  13.2458380  48.1641300 123.1189650   5.7919810
  47.2370580 123.0527030   6.0208280  48.3166120 124.0569780   5.6775050
  48.1510380 119.3906650   2.7886970  47.2114050 119.5520610   2.8739430
  48.4693640 120.1092330   2.2422960  54.6723140 124.0725170  12.7666000
  53.8441770 124.1418260  12.2916130  55.2673620 124.6579480  12.2981830
  52.1938590 124.6809950   6.2955060  51.5751010 124.3429500   5.6481360
  52.1763040 124.0369710   7.0034250  51.6365150 120.8594490  13.7120870
  51.2236330 121.6848200  13.9660860  50.9041100 120.2739530  13.5197230
  43.7697940 123.6454390   8.5739540  43.3654940 122.9331640   8.0785440
  43.8561060 123.3007630   9.4627580  44.2379640 127.3321950  10.7378750
  43.9407930 126.7267420  10.0586530  45.1879460 127.3699260  10.6268110
  42.4826560 120.4197600  12.3538580  43.0341150 120.5292940  11.5791830
  42.9970070 120.7935200  13.0693810  52.3265250 130.9053820  14.4001850
  51.8495810 131.7126010  14.2074460  51.6427040 130.2532150  14.5528060
  43.3298070 127.0703640  17.3886550  42.4326600 127.2943610  17.6359950
  43.3550940 127.1938580  16.4397950  50.3703290 123.9196760   3.3027810
  50.8096570 123.0819190   3.1565630  51.0831710 124.5526160   3.3891950
  42.1569290 123.9416960  15.9643920  42.0177060 124.8139760  16.3331320
  41.2750650 123.5989770  15.8191860  48.4798670 128.8592830   7.2709050
  48.9194580 129.6017160   6.8564440  48.4185560 129.1019400   8.1948010
  43.9549640 129.8838660  18.1729070  43.9265070 130.2881610  17.3057500
  43.7914610 128.9549020  18.0100670  40.4702570 122.5399370   6.0746190
  40.3500170 123.2661460   5.4627460  40.1603460 121.7702280   5.5974100
  55.9064460 130.6665760  19.4693240  56.3824180 131.1448650  20.1482320
  56.5271620 130.5983250  18.7438740  38.1087940 125.7114510  11.8814830
  38.1868360 125.8463280  10.9370550  38.7229620 125.0030400  12.0742950
  39.3535570 127.4114700   8.2921010  38.9463650 127.5529290   7.4374610
  40.2448580 127.1274860   8.0892220  55.3097710 127.8578610  16.6293250
  55.4360770 127.6190490  15.7110430  55.3519090 127.0263150  17.1015330
  49.1714450 131.5606610  15.1988060  49.6859120 131.4714620  16.0010490
  48.3283530 131.9066310  15.4915970  51.1468850 131.8461950   4.6272060
  50.9869990 131.5564890   5.5253890  50.9815560 131.0702080   4.0917290
  43.6257230 131.6260480   6.4043680  43.4499710 130.7096020   6.1911480
  42.7712970 131.9847770   6.6441480  50.8494980 129.3549510   3.1870060
  50.1560140 129.3526800   2.5272340  51.5917840 128.9308830   2.7564230
  50.4144910 130.9812220   7.2618550  50.8701860 130.2001600   7.5757170
  50.7537430 131.6919040   7.8059730  55.1621720 119.9111070  17.5942990
  54.5465990 120.4190740  17.0658450  54.8418140 119.0109400  17.5368930
  38.1647460 126.7528680  14.4209290  38.3278500 126.2834040  13.6028660
  38.6299910 126.2452240  15.0858130  42.9366230 115.8834440   9.4569860
  42.4934380 116.6643980   9.1254380  43.4951220 116.2064330  10.1640800
  47.2236040 118.7502960  15.0605180  46.7615410 118.9585980  15.8725120
  46.8214150 117.9362310  14.7575850  52.2240550 119.9711910  16.1901840
  51.3734140 119.6717660  16.5110910  52.0642340 120.2153920  15.2785660
  49.3190260 121.4713660  18.2900630  49.6443670 120.6377410  17.9502860
  50.1070590 121.9942180  18.4378960  46.0525050 115.5045140   4.3375690
  45.4279230 115.5005010   5.0629000  45.9655170 114.6376100   3.9411660
  44.9742130 116.4281770  11.3159460  45.2714460 117.3344600  11.2351480
  45.5227690 115.9400550  10.7019030  42.7280450 121.0068010   7.1851110
  42.5021370 120.7905180   8.0897730  41.9472980 121.4396470   6.8397080
  49.9578210 121.0131380   5.7841760  49.3587100 121.7367180   5.6005380
  50.5057820 120.9508160   5.0018210  45.1679660 121.9053590  17.8511380
  45.0723260 120.9648320  17.7011780  46.0111640 122.1268660  17.4559450
  48.5643080 119.6494920   7.8145040  48.9572650 119.9667120   7.0013730
  48.9259930 118.7706800   7.9289560  40.2990200 118.3167260  16.0045160
  39.9053590 119.1642470  16.2117940  39.6108600 117.6793630  16.1953800
  46.8735250 118.4002230  19.0741900  46.1833570 118.2074430  19.7087990
  47.6167550 118.6836870  19.6066200  37.6007250 116.2395720  10.0375240
  37.3120300 116.8098580  10.7500220  38.3453010 115.7600170  10.4006470
  49.1498220 122.2400670  11.9095820  48.4179340 122.7487480  12.2585920
  48.7522560 121.4230650  11.6084600  45.5875610 118.9154870  10.3148310
  45.5911670 118.4744820   9.4652850  46.4826730 119.2372200  10.4220130
  41.4377990 118.7981360   9.2742520  41.0978040 119.2756590  10.0309570
  40.6755310 118.3446480   8.9143620  45.6495760 119.9166950   3.3055070
  45.7708580 119.8753430   4.2540890  45.2644270 120.7791100   3.1501800
  49.6124130 117.6934350  11.3218760  49.6296870 118.1443000  12.1660610
  49.3639710 116.7939990  11.5352200  44.6617260 122.2268090   2.7038370
  44.0934160 121.7786340   2.0774280  45.3706260 122.5860870   2.1703520
  53.0394880 115.1066530  17.1605140  53.3640650 114.3756190  17.6863120
  53.0751390 114.7880170  16.2586130  39.7386440 126.1280110  16.5805100
  39.3541230 125.4873780  17.1788060  40.0498630 126.8316230  17.1499830
  45.8883580 122.9756650  12.0613720  46.2553710 122.5015220  12.8075060
  45.6988640 123.8498220  12.4022060  38.7524070 117.7200340   8.1907190
  38.4670990 117.3556010   9.0285810  38.6902930 116.9880800   7.5770330
  43.6782950 122.0165290  14.3797930  43.3740020 122.8957270  14.6048290
  44.6329410 122.0765080  14.4155370  42.2064740 126.2226280   4.9764780
  41.4327000 125.6823900   4.8163500  42.9359370 125.7032890   4.6382540
  52.9652720 125.2191640  10.7691170  53.6851840 125.7146930  10.3787280
  52.7634540 124.5409530  10.1245040  48.4262660 116.6129600   4.9120560
  47.6127270 116.1142770   4.8365870  48.2324610 117.4527850   4.4956910
  48.3471520 125.2900700  16.6560170  48.2808830 124.3696370  16.4017760
  47.7176660 125.3876140  17.3704810  51.1411050 120.9849250   3.2082720
  52.0290670 121.2966480   3.0334060  51.1116140 120.1121500   2.8163300
  42.2502140 125.8906660   8.6143590  42.7680810 125.0874920   8.5600480
  41.7986160 125.8285800   9.4560420  47.1371640 127.1572940   3.8870890
  47.4787340 127.9015170   3.3914210  46.3084350 127.4704060   4.2495720
  39.7346680 122.8568030  15.5269290  39.3761620 123.5221880  16.1142630
  39.4401240 122.0251580  15.8981910  42.9359800 123.3152270  18.4108840
  42.6359940 123.4609450  17.5136660  43.7071040 122.7557560  18.3182230
  48.2788250 128.1121270  16.4063970  48.2932790 127.1802230  16.1882880
  47.5713350 128.1981030  17.0453740  53.4125320 122.2961090   2.6762580
  53.3289040 122.7275310   1.8259020  54.1319510 122.7559440   3.1089400
  54.4899460 124.7528610  15.7532550  53.7647650 125.3457390  15.5561940
  55.0174920 124.7452150  14.9545920  54.4412570 129.1503350   5.4044710
  53.7988730 128.4958970   5.6788430  54.0543230 129.5558440   4.6285380
  50.0199050 126.4788780   9.2516400  50.3722870 125.8816910   8.5917770
  49.1361380 126.1533010   9.4224650  46.1062330 127.2386470   6.6586810
  46.7933460 127.7855680   7.0394400  45.3194750 127.7827200   6.6936420
  38.2454730 122.8559290   2.1503890  39.1149580 123.1384090   2.4339810
  37.7545050 123.6695160   2.0352700  45.4089540 124.2432500   6.2712170
  45.8652320 125.0537750   6.4972360  45.0577750 123.9255640   7.1030660
  47.7122150 129.7538840  13.5004470  48.3564370 129.9598220  14.1777890
  48.0751590 128.9927240  13.0475320  41.3101320 114.5870150   6.7434690
  41.1815950 114.5788050   7.6919610  40.4863340 114.9253240   6.3925700
  48.9854230 127.7571190  12.2181920  49.6276460 127.0564350  12.3314090
  49.5103580 128.5369630  12.0378810  50.7591850 128.5566090  15.4217980
  51.0948090 129.1432780  16.0995900  49.8392190 128.4258800  15.6515770
  38.6125980 132.0686670   2.7165520  38.9723620 132.6676010   2.0622790
  38.4718320 132.6146560   3.4900550  38.3095250 116.3461270  16.2041390
  37.5953770 116.5458190  16.8094000  38.7290290 115.5700840  16.5756190
  52.4126200 125.9591750   3.6035220  52.1247900 126.4204440   4.3913100
  53.2078370 125.4989520   3.8719440  38.5967840 130.3341530  17.1907920
  38.7058960 129.3936270  17.0503310  37.9448400 130.5996280  16.5421650
  46.5880430 128.6057420  18.5906040  46.2677300 127.8866660  19.1351730
  45.9138790 129.2812490  18.6642100  44.6294600 129.4517870   3.5339190
  44.6204700 130.1847560   2.9183700  43.7092960 129.2049450   3.6266150
  40.2301240 124.6732760   4.2785950  39.6229190 125.4131660   4.2881250
  40.7050590 124.7632120   3.4524150  49.8034030 118.8383580  13.9542840
  50.1714850 118.0178790  14.2822410  48.9432230 118.8985470  14.3698490
  53.1696060 117.7940520   4.7630400  52.5409220 117.8986190   4.0488630
  52.6747980 118.0137300   5.5524280  45.1380090 120.0726470   6.1788280
  44.4296240 120.5412810   6.6201890  45.4224570 119.4148480   6.8133470
  46.7636020 121.4923170  14.1780810  47.2621270 121.9668990  14.8432660
  46.9058970 120.5686690  14.3850840  49.1695520 116.7977130   7.6184070
  49.0463300 116.8163260   6.6693580  50.1180080 116.8456070   7.7382470
  46.2572310 132.0332430   6.8912050  46.5113810 131.9953820   5.9691420
  45.3084790 131.9065760   6.8840300  43.3415110 118.3811550   3.5538990
  44.1905640 118.8181700   3.4879180  42.9746380 118.6931810   4.3811050
  53.9702880 117.7091130  15.0209200  53.4676480 118.4496530  15.3603010
  54.7859540 118.0975130  14.7045990  52.2624890 122.9524310   8.4670560
  51.3215030 122.9674540   8.6418250  52.5768960 122.1660270   8.9130860
  40.9353290 122.0668980   2.7107410  41.0156880 121.1196490   2.8224810
  41.8273040 122.3975860   2.8168070  54.2650470 130.1233160  10.1424820
  54.3897890 130.9464330  10.6148630  55.1316030 129.9123890   9.7948970
  41.7368000 132.2164370   9.8141950  42.4730480 131.6679830  10.0850520
  42.1208920 133.0820380   9.6747940  38.6213480 128.2837940   5.6883460
  37.6953260 128.5259080   5.6788870  39.0869910 129.1112200   5.5668210
  40.7426280 131.4010440  19.0027530  41.5439010 131.7222490  19.4162930
  40.2278100 131.0406020  19.7247440  49.5790910 127.5090310  18.9502940
  48.9729070 127.5321910  18.2098690  49.2745020 126.7773350  19.4870190
  51.0091280 131.2370600  17.5612350  51.9613030 131.1528620  17.5112590
  50.8619500 131.9012310  18.2346140  53.9000480 130.6164810   3.0604260
  53.6141990 130.2029950   2.2458440  53.7020030 131.5452520   2.9404780
  38.4624090 123.8883900  17.9463580  38.9663110 123.3091180  18.5179810
  37.7231510 124.1724130  18.4839950  45.5162030 125.2954890  17.4799100
  44.7507700 125.8639890  17.3953770  45.6977990 125.0031100  16.5867330
  48.6050440 125.6718120   2.1051860  48.0560540 126.1187420   2.7494600
  49.2269700 125.1667370   2.6289530  52.6585380 127.0260220  18.0374120
  53.3994850 127.3635980  17.5341580  51.8958060 127.1952280  17.4843890
  40.4947170 122.0313490  18.8413650  40.5352510 121.7327360  19.7498880
  41.3492670 122.4321100  18.6821170  44.2725560 124.6309040   4.0017160
  44.6941980 124.4648910   4.8448550  44.3976400 123.8209270   3.5072300
  42.4352980 120.6105590  16.8088140  41.9049440 120.1196540  16.1811480
  43.1041050 121.0389790  16.2746070  51.3331040 125.0775050  16.5729330
  51.7472060 125.2320130  17.4219750  50.3982040 125.2030270  16.7355110
  51.8053210 122.4171210  18.5768480  52.3873980 121.6623530  18.4888960
  51.9814980 122.9478650  17.7999960  42.9225280 117.5767960  16.8885430
  42.8282150 116.9588710  16.1636300  42.3422670 118.3034250  16.6615340
  45.6886720 116.1341200  13.9212820  45.2404020 116.1565460  13.0758370
  45.0551920 115.7360220  14.5183120  46.0946270 125.0295530  14.5425260
  46.5134380 125.8728260  14.3701500  45.1754900 125.1667570  14.3132040
  48.4310170 122.7611710  15.9263100  48.5506380 122.1652850  16.6657940
  49.2904170 122.7981400  15.5064400  50.7698070 123.3148900  14.5025610
  50.2433290 123.8391520  13.8990750  51.1129410 123.9476290  15.1335340
  43.9453690 131.3348540  15.6582990  43.4074780 132.0594600  15.3391690
  44.1987650 130.8578880  14.8680330  45.1978940 119.3033060  17.1838920
  45.7878630 118.9948910  17.8716740  44.3799180 118.8312810  17.3398820
  50.0172370 118.9198870  17.4171940  49.3287890 118.2580410  17.3521930
  50.7378390 118.4737140  17.8620400  50.6472770 115.5150500   3.4762200
  50.9275060 114.6718400   3.8321620  49.8738500 115.7473610   3.9900950
  46.8015900 132.5699750  15.9169640  46.7274600 133.4734890  16.2242010
  45.8994740 132.2511650  15.8891710  47.3501230 131.7358260   3.5396000
  48.2452020 132.0743230   3.5614760  47.3818860 131.0137670   2.9120280
  40.9897390 127.1085310   1.7683000  41.4272260 127.6514980   2.4240580
  41.4745120 126.2832260   1.7779340  38.2043190 129.8974340   9.2203260
  38.5346200 129.0295400   8.9881900  38.6334190 130.1032860  10.0508220
  42.8005110 128.2283350   6.8805230  42.5000650 128.1048320   7.7809140
  42.6942600 127.3691940   6.4720960  38.6933400 130.7644930  11.9584890
  38.2564390 130.9445730  12.7909040  39.2611080 131.5219550  11.8166610
  54.3295580 130.2661930  16.2462200  53.7297570 130.3254490  15.5026120
  54.4589480 129.3266910  16.3759050  55.0253490 124.7527230   4.0866110
  55.7872400 125.3223880   4.1925800  55.0407860 124.1854430   4.8574420
  38.5257830 123.2765160   8.3173770  37.8706670 123.0076800   7.6733470
  39.3635780 123.1669640   7.8675750  56.0313460 125.6077330   8.9308040
  56.4022290 124.8244650   8.5244010  56.6715390 126.2966430   8.7525340
  53.0147220 126.9913910  14.3438360  52.2007060 127.4211070  14.6064150
  53.4221420 127.6032320  13.7307410  51.4748270 118.0706450   2.5392260
  51.8933150 117.8837430   1.6988920  51.1684330 117.2185500   2.8495190
  54.9738000 122.9830590   6.2368060  54.5981600 122.2158520   5.8049350
  54.2441120 123.3653290   6.7242990  39.5633760 123.6617730  12.8577110
  39.9306800 123.5745130  13.7373130  38.9944580 122.8984280  12.7583970
  54.3637620 122.1302110  15.8707580  54.1323710 121.9014860  14.9705530
  54.6242170 123.0501660  15.8252470  39.1149760 120.5726820  16.7635530
  38.2205810 120.5393580  17.1029240  39.6547310 120.7713610  17.5286780
  52.8025690 117.3558540  18.6487280  53.6795870 117.3641940  19.0321280
  52.8146530 116.6189380  18.0379630  37.7395910 120.4864090   4.2599100
  36.8359990 120.7494290   4.0850760  38.2236530 120.7575260   3.4799060
  54.2488960 121.2088080   9.5375300  54.7726440 120.7150730   8.9065470
  54.8348380 121.3438440  10.2822870  54.4278680 121.2927950  13.0594850
  53.4781390 121.2591490  13.1739840  54.6091690 122.2028060  12.8244620
  53.7388930 120.4661430   5.4767710  54.2348050 120.2332300   6.2616590
  53.5405000 119.6273270   5.0605350  39.6189470 114.8475150  11.1118750
  40.2665660 114.2972530  10.6713910  40.0391310 115.1018300  11.9334560
  55.1676090 119.1022380   8.0105390  55.0575370 118.9478420   8.9487660
  55.9283680 118.5743320   7.7680800  53.5141810 115.0416510  14.4688390
  54.1514030 115.6550650  14.8347580  53.6616700 115.0777170  13.5237620
  56.1304850 117.7040960   3.8768240  55.3356350 117.6386080   4.4061150
  56.3348130 118.6391600   3.8653590  53.0723270 131.7432510   7.8706630
  53.6682340 131.4217080   7.1941050  53.3301420 131.2704330   8.6619900
  39.3721470 115.0030820  13.8544070  39.0236290 115.4594640  14.6202250
  39.0409170 114.1087950  13.9366500  40.9785840 128.1750420  18.0197260
  40.9355470 127.8043330  18.9011720  41.1096850 129.1127990  18.1599080
  44.6791870 129.7310010  13.6206980  44.4383230 129.9984570  12.7337500
  45.6194510 129.9015740  13.6757840  46.8846290 116.1942700  17.3763490
  46.8235180 116.7864530  18.1258900  47.8246670 116.0868660  17.2313750
  49.5220850 115.8512760  17.0155780  50.1361260 116.1692050  16.3536860
  50.0670410 115.3661350  17.6351640  55.9396030 131.7504390  14.4217620
  55.4454310 132.1473260  13.7044750  55.3309320 131.1253600  14.8154900
  40.0442110 114.5307020  17.1294840  40.5925100 114.3495070  16.3660950
  40.1097420 113.7401130  17.6651150  40.8173870 131.1212670  15.1395040
  40.2234190 130.9897370  15.8785080  40.8097710 130.2850810  14.6737140
  50.2628890 114.4144900  13.3425070  49.3888730 114.7480010  13.1398000
  50.1539640 113.9418080  14.1676940  51.1700870 116.6215770  14.7266790
  50.8414230 115.8067530  14.3468520  52.1183170 116.5785580  14.6032480
  53.6235480 132.3927810  11.7004360  53.1638450 133.1443620  11.3262380
  52.9947940 131.6734280  11.6419160  40.4486100 128.4871050  14.0903080
  39.7220160 127.8676340  14.0229030  40.5095250 128.8811660  13.2201160
  44.0531200 130.7016050  10.8752490  44.5696220 130.0903410  10.3500750
  44.7028580 131.2044830  11.3663500  46.7926700 131.5924540  11.7021470
  47.0804510 131.3378840  10.8254480  47.3049920 131.0401900  12.2927040
  48.0103710 115.3314740  12.2817980  47.2275500 115.8060240  12.5614740
  47.7166640 114.4269570  12.1731160  52.5624780 116.0337840  10.3267070
  53.0032870 115.9782940   9.4788670  52.2932370 116.9495850  10.3977250
  54.4263350 115.6653080   8.3375890  54.3651750 114.7214300   8.1906910
  55.2055380 115.7733170   8.8829350  38.7316100 131.8045440   7.2999840
  38.5638140 131.1716120   7.9981730  37.8650610 132.0104840   6.9494030
  39.3544120 115.6362220   4.8031700  40.1123480 115.7491100   4.2295730
  38.8921290 116.4731420   4.7575130  45.8957930 117.7501490   7.7934010
  45.0832440 117.3758380   7.4529890  46.3999570 116.9946570   8.0955200
  50.3982910 114.4143940   9.0317080  51.0012280 114.9864150   9.5065600
  49.6575900 114.9783380   8.8090980  53.5417510 114.8165500   4.3057360
  53.7368140 115.7148950   4.5724790  52.7547380 114.5852580   4.7990310
  40.3378800 130.4978670   4.7449980  39.8126420 130.8786700   4.0411940
  40.2623380 131.1229440   5.4659690  41.7269270 116.1626270   3.3433670
  42.2562030 115.3756070   3.2141620  42.3597590 116.8417460   3.5769200
  43.9207110 115.9001410   6.3979060  43.2909850 115.1988720   6.5649190
  43.3812250 116.6605540   6.1812220  46.8599060 132.5140640  19.0689670
  47.7866370 132.2784910  19.1125630  46.8449490 133.3412640  18.5875700
  55.0944120 132.0566210   6.0663920  55.2696310 131.3703950   5.4224840
  54.3965690 132.5813260   5.6740590  44.0462670 115.1785390  18.8331550
  43.7646940 115.6818990  18.0692370  44.4282370 114.3807140  18.4673680
  42.9371770 132.4461050   3.6199230  43.6690590 132.1620330   3.0723120
  43.1965440 132.2074330   4.5098610  42.0986560 128.5625780   3.6245560
  41.4695440 129.0310880   4.1731390  42.2134390 127.7175000   4.0591750
  50.6478130 114.5938970  19.4112020  50.5343580 114.9133580  20.3063540
  51.4647870 114.9951480  19.1149300  53.4276620 131.7410500  18.8930710
  54.2201940 131.2459730  18.6856670  53.7209770 132.4200640  19.5006320
  49.5536280 103.8387950 139.9694680  49.4730330 102.9242560 139.6986390
  49.1400700 104.3355020 139.2634390  47.6854320 105.6166970 141.8503950
  46.9096420 105.1367410 142.1402520  48.3367250 104.9372620 141.6760110
  41.7020150 105.9286780 142.7279710  40.8705030 105.6735490 143.1276220
  42.3101130 105.9997550 143.4637630  51.7061750 110.0227160 140.6303080
  51.2443280 109.2514400 140.9590250  52.5187300 110.0493230 141.1355530
  41.6821410 109.9626870 142.9237730  41.9849450 109.0724610 142.7447950
  42.4265000 110.5197090 142.6959980  40.1112100 100.8888670 136.5122100
  39.2228800 101.2304640 136.4101980  40.3953290 100.6888990 135.6202930
  38.0745110 103.4894320 142.3961800  38.6461220 102.7216520 142.3965440
  38.0746650 103.7883080 141.4868410  47.9325060 112.3085170 140.2507070
  47.3136500 112.7642670 139.6801510  48.7876840 112.4636630 139.8496770
  47.1263310 108.2924160 141.8574110  47.0571590 107.3514100 141.6963240
  47.8883170 108.3825570 142.4296680  39.3169980  98.8978680 144.1830730
  39.1372820  98.0004430 144.4633490  38.9150060  99.4450550 144.8577680
  48.1568480 101.0994540 142.0843040  48.5333300 100.2266420 141.9716710
  48.0587990 101.4353240 141.1933480  42.2873490  99.4720170 137.5460480
  42.3940240 100.3723900 137.8529240  41.3765850  99.4238140 137.2555130
  51.9392600  98.5944980 139.0171380  52.7602220  98.1041550 139.0596860
  51.9726680  99.1842640 139.7703220  39.9356650 101.3939180 142.7913070
  40.6166760 101.6577550 143.4100470  39.6204700 100.5540050 143.1251080
  44.1281220 102.4406540 141.8785660  44.6359440 102.9387510 142.5190680
  44.6594460 101.6641740 141.7025020  56.2292150 100.6111730 145.5815010
  55.5244320 100.9993440 145.0630120  56.4950070 101.3062020 146.1835940
  42.4117320  97.0805100 146.1449080  42.4135760  97.5977490 145.3394980
  41.5821630  96.6035280 146.1219010  48.7988410 107.1924410 137.6438980
  48.1805680 107.6573860 137.0801700  49.3111660 107.8851890 138.0608490
  43.6620170 106.7200280 144.3222580  43.3289550 107.3469200 144.9643650
  43.8386850 107.2462160 143.5424250  52.1754080 100.5345360 141.7898920
  51.4709650 100.8230250 142.3702030  52.5366240 101.3445470 141.4298480
  42.0932650  98.7915060 144.1519530  42.4349460  99.6357110 143.8573400
  41.1548460  98.9398800 144.2684870  42.8739270 108.6881080 146.1371760
  43.4913270 109.3632160 145.8556210  42.0132390 109.0969060 146.0459260
  38.1671610 107.8780940 135.0178610  37.7899590 108.3668040 134.2863510
  38.4244680 108.5506220 135.6485140  53.7916860 110.1520490 144.0526400
  53.1080380 110.8219600 144.0443070  54.3311150 110.3501140 143.2871260
  55.2441000  99.9800150 142.1808130  54.2965910 100.0139130 142.3123560
  55.5690990 100.7939100 142.5657490  45.7760540  96.2797330 140.4764120
  46.0835520  95.7244220 139.7599620  44.8461240  96.4141790 140.2937110
  51.3275600 111.9964620 142.7671580  51.3402760 111.5926910 141.8993840
  50.7750820 112.7711910 142.6633010  52.6221020 108.7180840 137.8561750
  52.5117350 107.7755170 137.9811170  52.6189270 109.0796480 138.7424510
  50.7261040 106.8994460 144.0954190  51.1429830 106.6854570 143.2607650
  51.4500860 107.1567250 144.6662810  48.1641300 104.3446160 137.2124240
  47.2370580 104.2783540 137.4412710  48.3166120 105.2826290 137.0979480
  48.1510380 100.6163160 134.2091400  47.2114050 100.7777120 134.2943860
  48.4693640 101.3348840 133.6627390  54.6723140 105.2981680 144.1870430
  53.8441770 105.3674770 143.7120560  55.2673620 105.8835990 143.7186260
  52.1938590 105.9066460 137.7159490  51.5751010 105.5686010 137.0685790
  52.1763040 105.2626220 138.4238680  51.6365150 102.0851000 145.1325300
  51.2236330 102.9104710 145.3865290  50.9041100 101.4996040 144.9401660
  43.7697940 104.8710900 139.9943970  43.3654940 104.1588150 139.4989870
  43.8561060 104.5264140 140.8832010  44.2379640 108.5578460 142.1583180
  43.9407930 107.9523930 141.4790960  45.1879460 108.5955770 142.0472540
  42.4826560 101.6454110 143.7743010  43.0341150 101.7549450 142.9996260
  42.9970070 102.0191710 144.4898240  52.3265250 112.1310330 145.8206280
  51.8495810 112.9382520 145.6278890  51.6427040 111.4788660 145.9732490
  43.3298070 108.2960150 148.8090980  42.4326600 108.5200120 149.0564380
  43.3550940 108.4195090 147.8602380  50.3703290 105.1453270 134.7232240
  50.8096570 104.3075700 134.5770060  51.0831710 105.7782670 134.8096380
  42.1569290 105.1673470 147.3848350  42.0177060 106.0396270 147.7535750
  41.2750650 104.8246280 147.2396290  48.4798670 110.0849340 138.6913480
  48.9194580 110.8273670 138.2768870  48.4185560 110.3275910 139.6152440
  43.9549640 111.1095170 149.5933500  43.9265070 111.5138120 148.7261930
  43.7914610 110.1805530 149.4305100  53.9520430  96.3996080 133.0373280
  53.6393090  96.4922910 133.9372350  54.7132900  96.9777110 132.9870710
  40.4702570 103.7655880 137.4950620  40.3500170 104.4917970 136.8831890
  40.1603460 102.9958790 137.0178530  38.1087940 106.9371020 143.3019260
  38.1868360 107.0719790 142.3574980  38.7229620 106.2286910 143.4947380
  39.3535570 108.6371210 139.7125440  38.9463650 108.7785800 138.8579040
  40.2448580 108.3531370 139.5096650  55.3097710 109.0835120 148.0497680
  55.4360770 108.8447000 147.1314860  55.3519090 108.2519660 148.5219760
  49.1714450 112.7863120 146.6192490  49.6859120 112.6971130 147.4214920
  48.3283530 113.1322820 146.9120400  51.1468850 113.0718460 136.0476490
  50.9869990 112.7821400 136.9458320  50.9815560 112.2958590 135.5121720
  43.6257230 112.8516990 137.8248110  43.4499710 111.9352530 137.6115910
  42.7712970 113.2104280 138.0645910  50.8494980 110.5806020 134.6074490
  50.1560140 110.5783310 133.9476770  51.5917840 110.1565340 134.1768660
  50.4144910 112.2068730 138.6822980  50.8701860 111.4258110 138.9961600
  50.7537430 112.9175550 139.2264160  55.1621720 101.1367580 149.0147420
  54.5465990 101.6447250 148.4862880  54.8418140 100.2365910 148.9573360
  38.1647460 107.9785190 145.8413720  38.3278500 107.5090550 145.0233090
  38.6299910 107.4708750 146.5062560  42.9366230  97.1090950 140.8774290
  42.4934380  97.8900490 140.5458810  43.4951220  97.4320840 141.5845230
  47.2236040  99.9759470 146.4809610  46.7615410 100.1842490 147.2929550
  46.8214150  99.1618820 146.1780280  52.2240550 101.1968420 147.6106270
  51.3734140 100.8974170 147.9315340  52.0642340 101.4410430 146.6990090
  49.3190260 102.6970170 149.7105060  49.6443670 101.8633920 149.3707290
  50.1070590 103.2198690 149.8583390  46.0525050  96.7301650 135.7580120
  45.4279230  96.7261520 136.4833430  45.9655170  95.8632610 135.3616090
  44.9742130  97.6538280 142.7363890  45.2714460  98.5601110 142.6555910
  45.5227690  97.1657060 142.1223460  42.7280450 102.2324520 138.6055540
  42.5021370 102.0161690 139.5102160  41.9472980 102.6652980 138.2601510
  49.9578210 102.2387890 137.2046190  49.3587100 102.9623690 137.0209810
  50.5057820 102.1764670 136.4222640  45.1679660 103.1310100 149.2715810
  45.0723260 102.1904830 149.1216210  46.0111640 103.3525170 148.8763880
  48.5643080 100.8751430 139.2349470  48.9572650 101.1923630 138.4218160
  48.9259930  99.9963310 139.3493990  40.2990200  99.5423770 147.4249590
  39.9053590 100.3898980 147.6322370  39.6108600  98.9050140 147.6158230
  37.6007250  97.4652230 141.4579670  37.3120300  98.0355090 142.1704650
  38.3453010  96.9856680 141.8210900  37.7877480 101.4072350 132.6682390
  37.7052150 102.3503110 132.8097380  37.4360540 101.2647260 131.7894740
  49.1498220 103.4657180 143.3300250  48.4179340 103.9743990 143.6790350
  48.7522560 102.6487160 143.0289030  45.5875610 100.1411380 141.7352740
  45.5911670  99.7001330 140.8857280  46.4826730 100.4628710 141.8424560
  41.4377990 100.0237870 140.6946950  41.0978040 100.5013100 141.4514000
  40.6755310  99.5702990 140.3348050  45.6495760 101.1423460 134.7259500
  45.7708580 101.1009940 135.6745320  45.2644270 102.0047610 134.5706230
  49.6124130  98.9190860 142.7423190  49.6296870  99.3699510 143.5865040
  49.3639710  98.0196500 142.9556630  44.6617260 103.4524600 134.1242800
  44.0934160 103.0042850 133.4978710  45.3706260 103.8117380 133.5907950
  53.0394880  96.3323040 148.5809570  53.3640650  95.6012700 149.1067550
  53.0751390  96.0136680 147.6790560  39.7386440 107.3536620 148.0009530
  39.3541230 106.7130290 148.5992490  40.0498630 108.0572740 148.5704260
  45.8883580 104.2013160 143.4818150  46.2553710 103.7271730 144.2279490
  45.6988640 105.0754730 143.8226490  38.7524070  98.9456850 139.6111620
  38.4670990  98.5812520 140.4490240  38.6902930  98.2137310 138.9974760
  43.6782950 103.2421800 145.8002360  43.3740020 104.1213780 146.0252720
  44.6329410 103.3021590 145.8359800  42.2064740 107.4482790 136.3969210
  41.4327000 106.9080410 136.2367930  42.9359370 106.9289400 136.0586970
  52.9652720 106.4448150 142.1895600  53.6851840 106.9403440 141.7991710
  52.7634540 105.7666040 141.5449470  48.4262660  97.8386110 136.3324990
  47.6127270  97.3399280 136.2570300  48.2324610  98.6784360 135.9161340
  48.3471520 106.5157210 148.0764600  48.2808830 105.5952880 147.8222190
  47.7176660 106.6132650 148.7909240  51.1411050 102.2105760 134.6287150
  52.0290670 102.5222990 134.4538490  51.1116140 101.3378010 134.2367730
  42.2502140 107.1163170 140.0348020  42.7680810 106.3131430 139.9804910
  41.7986160 107.0542310 140.8764850  47.1371640 108.3829450 135.3075320
  47.4787340 109.1271680 134.8118640  46.3084350 108.6960570 135.6700150
  39.7346680 104.0824540 146.9473720  39.3761620 104.7478390 147.5347060
  39.4401240 103.2508090 147.3186340  42.9359800 104.5408780 149.8313270
  42.6359940 104.6865960 148.9341090  43.7071040 103.9814070 149.7386660
  48.2788250 109.3377780 147.8268400  48.2932790 108.4058740 147.6087310
  47.5713350 109.4237540 148.4658170  53.4125320 103.5217600 134.0967010
  53.3289040 103.9531820 133.2463450  54.1319510 103.9815950 134.5293830
  54.4899460 105.9785120 147.1736980  53.7647650 106.5713900 146.9766370
  55.0174920 105.9708660 146.3750350  54.4412570 110.3759860 136.8249140
  53.7988730 109.7215480 137.0992860  54.0543230 110.7814950 136.0489810
  50.0199050 107.7045290 140.6720830  50.3722870 107.1073420 140.0122200
  49.1361380 107.3789520 140.8429080  46.1062330 108.4642980 138.0791240
  46.7933460 109.0112190 138.4598830  45.3194750 109.0083710 138.1140850
  38.2454730 104.0815800 133.5708320  39.1149580 104.3640600 133.8544240
  37.7545050 104.8951670 133.4557130  45.4089540 105.4689010 137.6916600
  45.8652320 106.2794260 137.9176790  45.0577750 105.1512150 138.5235090
  47.7122150 110.9795350 144.9208900  48.3564370 111.1854730 145.5982320
  48.0751590 110.2183750 144.4679750  41.3101320  95.8126660 138.1639120
  41.1815950  95.8044560 139.1124040  40.4863340  96.1509750 137.8130130
  48.9854230 108.9827700 143.6386350  49.6276460 108.2820860 143.7518520
  49.5103580 109.7626140 143.4583240  52.8309950 109.2676320 133.3625490
  52.6047530 108.5506760 133.9550130  52.4406150 109.0188760 132.5247240
  50.7591850 109.7822600 146.8422410  51.0948090 110.3689290 147.5200330
  49.8392190 109.6515310 147.0720200  38.6125980 113.2943180 134.1369950
  38.9723620 113.8932520 133.4827220  38.4718320 113.8403070 134.9104980
  38.3095250  97.5717780 147.6245820  37.5953770  97.7714700 148.2298430
  38.7290290  96.7957350 147.9960620  52.4126200 107.1848260 135.0239650
  52.1247900 107.6460950 135.8117530  53.2078370 106.7246030 135.2923870
  38.5967840 111.5598040 148.6112350  38.7058960 110.6192780 148.4707740
  37.9448400 111.8252790 147.9626080  44.6294600 110.6774380 134.9543620
  44.6204700 111.4104070 134.3388130  43.7092960 110.4305960 135.0470580
  40.2301240 105.8989270 135.6990380  39.6229190 106.6388170 135.7085680
  40.7050590 105.9888630 134.8728580  49.8034030 100.0640090 145.3747270
  50.1714850  99.2435300 145.7026840  48.9432230 100.1241980 145.7902920
  53.1696060  99.0197030 136.1834830  52.5409220  99.1242700 135.4693060
  52.6747980  99.2393810 136.9728710  47.6154200 110.7402620 133.6168810
  47.7166180 110.5366610 132.6870790  46.7155940 110.4860900 133.8216590
  45.1380090 101.2982980 137.5992710  44.4296240 101.7669320 138.0406320
  45.4224570 100.6404990 138.2337900  46.7636020 102.7179680 145.5985240
  47.2621270 103.1925500 146.2637090  46.9058970 101.7943200 145.8055270
  49.1695520  98.0233640 139.0388500  49.0463300  98.0419770 138.0898010
  50.1180080  98.0712580 139.1586900  46.2572310 113.2588940 138.3116480
  46.5113810 113.2210330 137.3895850  45.3084790 113.1322270 138.3044730
  43.3415110  99.6068060 134.9743420  44.1905640 100.0438210 134.9083610
  42.9746380  99.9188320 135.8015480  53.9702880  98.9347640 146.4413630
  53.4676480  99.6753040 146.7807440  54.7859540  99.3231640 146.1250420
  52.2624890 104.1780820 139.8874990  51.3215030 104.1931050 140.0622680
  52.5768960 103.3916780 140.3335290  42.2406530 105.8600420 133.4478950
  43.0069800 105.7481780 134.0104380  42.3181220 105.1638390 132.7955720
  40.9353290 103.2925490 134.1311840  41.0156880 102.3453000 134.2429240
  41.8273040 103.6232370 134.2372500  54.2650470 111.3489670 141.5629250
  54.3897890 112.1720840 142.0353060  55.1316030 111.1380400 141.2153400
  41.7368000 113.4420880 141.2346380  42.4730480 112.8936340 141.5054950
  42.1208920 114.3076890 141.0952370  38.6213480 109.5094450 137.1087890
  37.6953260 109.7515590 137.0993300  39.0869910 110.3368710 136.9872640
  44.8470310 112.6151190 133.0571950  45.6398920 112.9040020 132.6053740
  44.3274660 112.1843360 132.3784430  51.0091280 112.4627110 148.9816780
  51.9613030 112.3785130 148.9317020  50.8619500 113.1268820 149.6550570
  53.9000480 111.8421320 134.4808690  53.6141990 111.4286460 133.6662870
  53.7020030 112.7709030 134.3609210  38.4624090 105.1140410 149.3668010
  38.9663110 104.5347690 149.9384240  37.7231510 105.3980640 149.9044380
  45.3647710 107.8354600 132.9214300  45.2598350 107.2206950 133.6475680
  45.1971930 107.3120490 132.1377310  45.5162030 106.5211400 148.9003530
  44.7507700 107.0896400 148.8158200  45.6977990 106.2287610 148.0071760
  48.6050440 106.8974630 133.5256290  48.0560540 107.3443930 134.1699030
  49.2269700 106.3923880 134.0493960  52.6585380 108.2516730 149.4578550
  53.3994850 108.5892490 148.9546010  51.8958060 108.4208790 148.9048320
  44.2725560 105.8565550 135.4221590  44.6941980 105.6905420 136.2652980
  44.3976400 105.0465780 134.9276730  42.4352980 101.8362100 148.2292570
  41.9049440 101.3453050 147.6015910  43.1041050 102.2646300 147.6950500
  46.7853200 104.8803160 132.6698690  47.3058860 104.1652180 132.3039840
  47.4321600 105.5189030 132.9699200  51.3331040 106.3031560 147.9933760
  51.7472060 106.4576640 148.8424180  50.3982040 106.4286780 148.1559540
  51.8053210 103.6427720 149.9972910  52.3873980 102.8880040 149.9093390
  51.9814980 104.1735160 149.2204390  42.9225280  98.8024470 148.3089860
  42.8282150  98.1845220 147.5840730  42.3422670  99.5290760 148.0819770
  45.6886720  97.3597710 145.3417250  45.2404020  97.3821970 144.4962800
  45.0551920  96.9616730 145.9387550  46.0946270 106.2552040 145.9629690
  46.5134380 107.0984770 145.7905930  45.1754900 106.3924080 145.7336470
  48.4310170 103.9868220 147.3467530  48.5506380 103.3909360 148.0862370
  49.2904170 104.0237910 146.9268830  50.7698070 104.5405410 145.9230040
  50.2433290 105.0648030 145.3195180  51.1129410 105.1732800 146.5539770
  43.1684460 101.9298780 132.3679750  42.9673520 101.0666140 132.7293090
  42.9976510 101.8432140 131.4301350  43.9453690 112.5605050 147.0787420
  43.4074780 113.2851110 146.7596120  44.1987650 112.0835390 146.2884760
  45.1978940 100.5289570 148.6043350  45.7878630 100.2205420 149.2921170
  44.3799180 100.0569320 148.7603250  50.0172370 100.1455380 148.8376370
  49.3287890  99.4836920 148.7726360  50.7378390  99.6993650 149.2824830
  50.6472770  96.7407010 134.8966630  50.9275060  95.8974910 135.2526050
  49.8738500  96.9730120 135.4105380  41.9667260  99.0299400 132.3557630
  42.2693160  99.0366830 131.4476780  42.7061850  98.6797260 132.8525290
  46.8015900 113.7956260 147.3374070  46.7274600 114.6991400 147.6446440
  45.8994740 113.4768160 147.3096140  45.1852190  97.9734020 133.3413830
  44.8374190  97.2958010 132.7616280  45.3864960  97.5123530 134.1557220
  47.3501230 112.9614770 134.9600430  48.2452020 113.2999740 134.9819190
  47.3818860 112.2394180 134.3324710  40.9897390 108.3341820 133.1887430
  41.4272260 108.8771490 133.8445010  41.4745120 107.5088770 133.1983770
  38.2043190 111.1230850 140.6407690  38.5346200 110.2551910 140.4086330
  38.6334190 111.3289370 141.4712650  42.8005110 109.4539860 138.3009660
  42.5000650 109.3304830 139.2013570  42.6942600 108.5948450 137.8925390
  38.6933400 111.9901440 143.3789320  38.2564390 112.1702240 144.2113470
  39.2611080 112.7476060 143.2371040  54.3295580 111.4918440 147.6666630
  53.7297570 111.5511000 146.9230550  54.4589480 110.5523420 147.7963480
  55.5697030 109.2336260 133.0036340  54.7389990 109.3012910 133.4743570
  55.7468860 110.1240380 132.7003200  55.0253490 105.9783740 135.5070540
  55.7872400 106.5480390 135.6130230  55.0407860 105.4110940 136.2778850
  38.5257830 104.5021670 139.7378200  37.8706670 104.2333310 139.0937900
  39.3635780 104.3926150 139.2880180  56.0313460 106.8333840 140.3512470
  56.4022290 106.0501160 139.9448440  56.6715390 107.5222940 140.1729770
  53.0147220 108.2170420 145.7642790  52.2007060 108.6467580 146.0268580
  53.4221420 108.8288830 145.1511840  55.0772660 106.2718110 132.6643060
  55.3521500 107.1796990 132.5362280  54.8883400 106.2080640 133.6005050
  51.4748270  99.2962960 133.9596690  51.8933150  99.1093940 133.1193350
  51.1684330  98.4442010 134.2699620  54.9738000 104.2087100 137.6572490
  54.5981600 103.4415030 137.2253780  54.2441120 104.5909800 138.1447420
  39.5633760 104.8874240 144.2781540  39.9306800 104.8001640 145.1577560
  38.9944580 104.1240790 144.1788400  54.3637620 103.3558620 147.2912010
  54.1323710 103.1271370 146.3909960  54.6242170 104.2758170 147.2456900
  39.1149760 101.7983330 148.1839960  38.2205810 101.7650090 148.5233670
  39.6547310 101.9970120 148.9491210  37.7395910 101.7120600 135.6803530
  36.8359990 101.9750800 135.5055190  38.2236530 101.9831770 134.9003490
  54.2488960 102.4344590 140.9579730  54.7726440 101.9407240 140.3269900
  54.8348380 102.5694950 141.7027300  54.4278680 102.5184460 144.4799280
  53.4781390 102.4848000 144.5944270  54.6091690 103.4284570 144.2449050
  40.2823120 100.7686140 133.5897910  40.9914820 100.3469360 133.1045190
  39.5663060 100.8361370 132.9581260  39.9297280  96.8225470 132.6300560
  40.6525410  97.3634410 132.9481780  40.2021800  96.5488890 131.7542100
  53.7388930 101.6917940 136.8972140  54.2348050 101.4588810 137.6821020
  53.5405000 100.8529780 136.4809780  39.6189470  96.0731660 142.5323180
  40.2665660  95.5229040 142.0918340  40.0391310  96.3274810 143.3538990
  55.1676090 100.3278890 139.4309820  55.0575370 100.1734930 140.3692090
  55.9283680  99.7999830 139.1885230  53.5141810  96.2673020 145.8892820
  54.1514030  96.8807160 146.2552010  53.6616700  96.3033680 144.9442050
  56.1304850  98.9297470 135.2972670  55.3356350  98.8642590 135.8265580
  56.3348130  99.8648110 135.2858020  53.0723270 112.9689020 139.2911060
  53.6682340 112.6473590 138.6145480  53.3301420 112.4960840 140.0824330
  39.3721470  96.2287330 145.2748500  39.0236290  96.6851150 146.0406680
  39.0409170  95.3344460 145.3570930  44.6791870 110.9566520 145.0411410
  44.4383230 111.2241080 144.1541930  45.6194510 111.1272250 145.0962270
  46.8846290  97.4199210 148.7967920  46.8235180  98.0121040 149.5463330
  47.8246670  97.3125170 148.6518180  49.5220850  97.0769270 148.4360210
  50.1361260  97.3948560 147.7741290  50.0670410  96.5917860 149.0556070
  55.9396030 112.9760900 145.8422050  55.4454310 113.3729770 145.1249180
  55.3309320 112.3510110 146.2359330  40.0442110  95.7563530 148.5499270
  40.5925100  95.5751580 147.7865380  40.1097420  94.9657640 149.0855580
  40.8173870 112.3469180 146.5599470  40.2234190 112.2153880 147.2989510
  40.8097710 111.5107320 146.0941570  50.2628890  95.6401410 144.7629500
  49.3888730  95.9736520 144.5602430  50.1539640  95.1674590 145.5881370
  51.1700870  97.8472280 146.1471220  50.8414230  97.0324040 145.7672950
  52.1183170  97.8042090 146.0236910  53.6235480 113.6184320 143.1208790
  53.1638450 114.3700130 142.7466810  52.9947940 112.8990790 143.0623590
  40.4486100 109.7127560 145.5107510  39.7220160 109.0932850 145.4433460
  40.5095250 110.1068170 144.6405590  44.0531200 111.9272560 142.2956920
  44.5696220 111.3159920 141.7705180  44.7028580 112.4301340 142.7867930
  46.7926700 112.8181050 143.1225900  47.0804510 112.5635350 142.2458910
  47.3049920 112.2658410 143.7131470  48.0103710  96.5571250 143.7022410
  47.2275500  97.0316750 143.9819170  47.7166640  95.6526080 143.5935590
  52.5624780  97.2594350 141.7471500  53.0032870  97.2039450 140.8993100
  52.2932370  98.1752360 141.8181680  54.4263350  96.8909590 139.7580320
  54.3651750  95.9470810 139.6111340  55.2055380  96.9989680 140.3033780
  38.7316100 113.0301950 138.7204270  38.5638140 112.3972630 139.4186160
  37.8650610 113.2361350 138.3698460  39.3544120  96.8618730 136.2236130
  40.1123480  96.9747610 135.6500160  38.8921290  97.6987930 136.1779560
  45.8957930  98.9758000 139.2138440  45.0832440  98.6014890 138.8734320
  46.3999570  98.2203080 139.5159630  50.3982910  95.6400450 140.4521510
  51.0012280  96.2120660 140.9270030  49.6575900  96.2039890 140.2295410
  53.5417510  96.0422010 135.7261790  53.7368140  96.9405460 135.9929220
  52.7547380  95.8109090 136.2194740  40.3378800 111.7235180 136.1654410
  39.8126420 112.1043210 135.4616370  40.2623380 112.3485950 136.8864120
  41.7269270  97.3882780 134.7638100  42.2562030  96.6012580 134.6346050
  42.3597590  98.0673970 134.9973630  43.9207110  97.1257920 137.8183490
  43.2909850  96.4245230 137.9853620  43.3812250  97.8862050 137.6016650
  55.0944120 113.2822720 137.4868350  55.2696310 112.5960460 136.8429270
  54.3965690 113.8069770 137.0945020  42.9371770 113.6717560 135.0403660
  43.6690590 113.3876840 134.4927550  43.1965440 113.4330840 135.9303040
  42.0986560 109.7882290 135.0449990  41.4695440 110.2567390 135.5935820
  42.2134390 108.9431510 135.4796180  49.5536280 103.8387950 121.1951190
  49.4730330 102.9242560 120.9242900  49.1400700 104.3355020 120.4890900
  47.6854320 105.6166970 123.0760460  46.9096420 105.1367410 123.3659030
  48.3367250 104.9372620 122.9016620  41.7020150 105.9286780 123.9536220
  40.8705030 105.6735490 124.3532730  42.3101130 105.9997550 124.6894140
  51.7061750 110.0227160 121.8559590  51.2443280 109.2514400 122.1846760
  52.5187300 110.0493230 122.3612040  41.6821410 109.9626870 124.1494240
  41.9849450 109.0724610 123.9704460  42.4265000 110.5197090 123.9216490
  40.1112100 100.8888670 117.7378610  39.2228800 101.2304640 117.6358490
  40.3953290 100.6888990 116.8459440  38.0745110 103.4894320 123.6218310
  38.6461220 102.7216520 123.6221950  38.0746650 103.7883080 122.7124920
  47.9325060 112.3085170 121.4763580  47.3136500 112.7642670 120.9058020
  48.7876840 112.4636630 121.0753280  47.1263310 108.2924160 123.0830620
  47.0571590 107.3514100 122.9219750  47.8883170 108.3825570 123.6553190
  39.3169980  98.8978680 125.4087240  39.1372820  98.0004430 125.6890000
  38.9150060  99.4450550 126.0834190  48.1568480 101.0994540 123.3099550
  48.5333300 100.2266420 123.1973220  48.0587990 101.4353240 122.4189990
  42.2873490  99.4720170 118.7716990  42.3940240 100.3723900 119.0785750
  41.3765850  99.4238140 118.4811640  39.9356650 101.3939180 124.0169580
  40.6166760 101.6577550 124.6356980  39.6204700 100.5540050 124.3507590
  44.1281220 102.4406540 123.1042170  44.6359440 102.9387510 123.7447190
  44.6594460 101.6641740 122.9281530  42.4117320  97.0805100 127.3705590
  42.4135760  97.5977490 126.5651490  41.5821630  96.6035280 127.3475520
  48.7988410 107.1924410 118.8695490  48.1805680 107.6573860 118.3058210
  49.3111660 107.8851890 119.2865000  43.6620170 106.7200280 125.5479090
  43.3289550 107.3469200 126.1900160  43.8386850 107.2462160 124.7680760
  52.1754080 100.5345360 123.0155430  51.4709650 100.8230250 123.5958540
  52.5366240 101.3445470 122.6554990  42.0932650  98.7915060 125.3776040
  42.4349460  99.6357110 125.0829910  41.1548460  98.9398800 125.4941380
  42.8739270 108.6881080 127.3628270  43.4913270 109.3632160 127.0812720
  42.0132390 109.0969060 127.2715770  38.1671610 107.8780940 116.2435120
  37.7899590 108.3668040 115.5120020  38.4244680 108.5506220 116.8741650
  53.7916860 110.1520490 125.2782910  53.1080380 110.8219600 125.2699580
  54.3311150 110.3501140 124.5127770  55.2441000  99.9800150 123.4064640
  54.2965910 100.0139130 123.5380070  55.5690990 100.7939100 123.7914000
  45.7760540  96.2797330 121.7020630  46.0835520  95.7244220 120.9856130
  44.8461240  96.4141790 121.5193620  51.3275600 111.9964620 123.9928090
  51.3402760 111.5926910 123.1250350  50.7750820 112.7711910 123.8889520
  50.7261040 106.8994460 125.3210700  51.1429830 106.6854570 124.4864160
  51.4500860 107.1567250 125.8919320  48.1641300 104.3446160 118.4380750
  47.2370580 104.2783540 118.6669220  48.3166120 105.2826290 118.3235990
  54.6723140 105.2981680 125.4126940  53.8441770 105.3674770 124.9377070
  55.2673620 105.8835990 124.9442770  51.6365150 102.0851000 126.3581810
  51.2236330 102.9104710 126.6121800  50.9041100 101.4996040 126.1658170
  43.7697940 104.8710900 121.2200480  43.3654940 104.1588150 120.7246380
  43.8561060 104.5264140 122.1088520  44.2379640 108.5578460 123.3839690
  43.9407930 107.9523930 122.7047470  45.1879460 108.5955770 123.2729050
  42.4826560 101.6454110 124.9999520  43.0341150 101.7549450 124.2252770
  42.9970070 102.0191710 125.7154750  52.3265250 112.1310330 127.0462790
  51.8495810 112.9382520 126.8535400  51.6427040 111.4788660 127.1989000
  43.3298070 108.2960150 130.0347490  42.4326600 108.5200120 130.2820890
  43.3550940 108.4195090 129.0858890  42.1569290 105.1673470 128.6104860
  42.0177060 106.0396270 128.9792260  41.2750650 104.8246280 128.4652800
  48.4798670 110.0849340 119.9169990  48.9194580 110.8273670 119.5025380
  48.4185560 110.3275910 120.8408950  43.9549640 111.1095170 130.8190010
  43.9265070 111.5138120 129.9518440  43.7914610 110.1805530 130.6561610
  53.9520430  96.3996080 114.2629790  53.6393090  96.4922910 115.1628860
  54.7132900  96.9777110 114.2127220  40.4702570 103.7655880 118.7207130
  40.3500170 104.4917970 118.1088400  40.1603460 102.9958790 118.2435040
  55.9064460 111.8922270 132.1154180  56.3824180 112.3705160 132.7943260
  56.5271620 111.8239760 131.3899680  38.1087940 106.9371020 124.5275770
  38.1868360 107.0719790 123.5831490  38.7229620 106.2286910 124.7203890
  39.3535570 108.6371210 120.9381950  38.9463650 108.7785800 120.0835550
  40.2448580 108.3531370 120.7353160  55.3097710 109.0835120 129.2754190
  55.4360770 108.8447000 128.3571370  55.3519090 108.2519660 129.7476270
  49.1714450 112.7863120 127.8449000  49.6859120 112.6971130 128.6471430
  48.3283530 113.1322820 128.1376910  51.1468850 113.0718460 117.2733000
  50.9869990 112.7821400 118.1714830  50.9815560 112.2958590 116.7378230
  43.6257230 112.8516990 119.0504620  43.4499710 111.9352530 118.8372420
  42.7712970 113.2104280 119.2902420  50.8494980 110.5806020 115.8331000
  50.1560140 110.5783310 115.1733280  51.5917840 110.1565340 115.4025170
  50.4144910 112.2068730 119.9079490  50.8701860 111.4258110 120.2218110
  50.7537430 112.9175550 120.4520670  38.1647460 107.9785190 127.0670230
  38.3278500 107.5090550 126.2489600  38.6299910 107.4708750 127.7319070
  42.9366230  97.1090950 122.1030800  42.4934380  97.8900490 121.7715320
  43.4951220  97.4320840 122.8101740  47.2236040  99.9759470 127.7066120
  46.7615410 100.1842490 128.5186060  46.8214150  99.1618820 127.4036790
  49.3190260 102.6970170 130.9361570  49.6443670 101.8633920 130.5963800
  50.1070590 103.2198690 131.0839900  46.0525050  96.7301650 116.9836630
  45.4279230  96.7261520 117.7089940  45.9655170  95.8632610 116.5872600
  44.9742130  97.6538280 123.9620400  45.2714460  98.5601110 123.8812420
  45.5227690  97.1657060 123.3479970  42.7280450 102.2324520 119.8312050
  42.5021370 102.0161690 120.7358670  41.9472980 102.6652980 119.4858020
  45.1679660 103.1310100 130.4972320  45.0723260 102.1904830 130.3472720
  46.0111640 103.3525170 130.1020390  48.5643080 100.8751430 120.4605980
  48.9572650 101.1923630 119.6474670  48.9259930  99.9963310 120.5750500
  40.2990200  99.5423770 128.6506100  39.9053590 100.3898980 128.8578880
  39.6108600  98.9050140 128.8414740  46.8735250  99.6258740 131.7202840
  46.1833570  99.4330940 132.3548930  47.6167550  99.9093380 132.2527140
  37.6007250  97.4652230 122.6836180  37.3120300  98.0355090 123.3961160
  38.3453010  96.9856680 123.0467410  37.7877480 101.4072350 113.8938900
  37.7052150 102.3503110 114.0353890  37.4360540 101.2647260 113.0151250
  49.1498220 103.4657180 124.5556760  48.4179340 103.9743990 124.9046860
  48.7522560 102.6487160 124.2545540  45.5875610 100.1411380 122.9609250
  45.5911670  99.7001330 122.1113790  46.4826730 100.4628710 123.0681070
  41.4377990 100.0237870 121.9203460  41.0978040 100.5013100 122.6770510
  40.6755310  99.5702990 121.5604560  45.6495760 101.1423460 115.9516010
  45.7708580 101.1009940 116.9001830  45.2644270 102.0047610 115.7962740
  49.6124130  98.9190860 123.9679700  49.6296870  99.3699510 124.8121550
  49.3639710  98.0196500 124.1813140  44.6617260 103.4524600 115.3499310
  44.0934160 103.0042850 114.7235220  45.3706260 103.8117380 114.8164460
  39.7386440 107.3536620 129.2266040  39.3541230 106.7130290 129.8249000
  40.0498630 108.0572740 129.7960770  45.8883580 104.2013160 124.7074660
  46.2553710 103.7271730 125.4536000  45.6988640 105.0754730 125.0483000
  38.7524070  98.9456850 120.8368130  38.4670990  98.5812520 121.6746750
  38.6902930  98.2137310 120.2231270  43.6782950 103.2421800 127.0258870
  43.3740020 104.1213780 127.2509230  44.6329410 103.3021590 127.0616310
  42.2064740 107.4482790 117.6225720  41.4327000 106.9080410 117.4624440
  42.9359370 106.9289400 117.2843480  52.9652720 106.4448150 123.4152110
  53.6851840 106.9403440 123.0248220  52.7634540 105.7666040 122.7705980
  48.3471520 106.5157210 129.3021110  48.2808830 105.5952880 129.0478700
  47.7176660 106.6132650 130.0165750  42.2502140 107.1163170 121.2604530
  42.7680810 106.3131430 121.2061420  41.7986160 107.0542310 122.1021360
  47.1371640 108.3829450 116.5331830  47.4787340 109.1271680 116.0375150
  46.3084350 108.6960570 116.8956660  39.7346680 104.0824540 128.1730230
  39.3761620 104.7478390 128.7603570  39.4401240 103.2508090 128.5442850
  42.9359800 104.5408780 131.0569780  42.6359940 104.6865960 130.1597600
  43.7071040 103.9814070 130.9643170  48.2788250 109.3377780 129.0524910
  48.2932790 108.4058740 128.8343820  47.5713350 109.4237540 129.6914680
  54.4899460 105.9785120 128.3993490  53.7647650 106.5713900 128.2022880
  55.0174920 105.9708660 127.6006860  50.0199050 107.7045290 121.8977340
  50.3722870 107.1073420 121.2378710  49.1361380 107.3789520 122.0685590
  46.1062330 108.4642980 119.3047750  46.7933460 109.0112190 119.6855340
  45.3194750 109.0083710 119.3397360  38.2454730 104.0815800 114.7964830
  39.1149580 104.3640600 115.0800750  37.7545050 104.8951670 114.6813640
  45.4089540 105.4689010 118.9173110  45.8652320 106.2794260 119.1433300
  45.0577750 105.1512150 119.7491600  47.7122150 110.9795350 126.1465410
  48.3564370 111.1854730 126.8238830  48.0751590 110.2183750 125.6936260
  41.3101320  95.8126660 119.3895630  41.1815950  95.8044560 120.3380550
  40.4863340  96.1509750 119.0386640  48.9854230 108.9827700 124.8642860
  49.6276460 108.2820860 124.9775030  49.5103580 109.7626140 124.6839750
  50.7591850 109.7822600 128.0678920  51.0948090 110.3689290 128.7456840
  49.8392190 109.6515310 128.2976710  38.6125980 113.2943180 115.3626460
  38.9723620 113.8932520 114.7083730  38.4718320 113.8403070 116.1361490
  38.3095250  97.5717780 128.8502330  37.5953770  97.7714700 129.4554940
  38.7290290  96.7957350 129.2217130  38.5967840 111.5598040 129.8368860
  38.7058960 110.6192780 129.6964250  37.9448400 111.8252790 129.1882590
  46.5880430 109.8313930 131.2366980  46.2677300 109.1123170 131.7812670
  45.9138790 110.5069000 131.3103040  44.6294600 110.6774380 116.1800130
  44.6204700 111.4104070 115.5644640  43.7092960 110.4305960 116.2727090
  40.2301240 105.8989270 116.9246890  39.6229190 106.6388170 116.9342190
  40.7050590 105.9888630 116.0985090  49.8034030 100.0640090 126.6003780
  50.1714850  99.2435300 126.9283350  48.9432230 100.1241980 127.0159430
  47.6154200 110.7402620 114.8425320  47.7166180 110.5366610 113.9127300
  46.7155940 110.4860900 115.0473100  45.1380090 101.2982980 118.8249220
  44.4296240 101.7669320 119.2662830  45.4224570 100.6404990 119.4594410
  46.7636020 102.7179680 126.8241750  47.2621270 103.1925500 127.4893600
  46.9058970 101.7943200 127.0311780  49.1695520  98.0233640 120.2645010
  49.0463300  98.0419770 119.3154520  50.1180080  98.0712580 120.3843410
  46.2572310 113.2588940 119.5372990  46.5113810 113.2210330 118.6152360
  45.3084790 113.1322270 119.5301240  43.3415110  99.6068060 116.1999930
  44.1905640 100.0438210 116.1340120  42.9746380  99.9188320 117.0271990
  52.2624890 104.1780820 121.1131500  51.3215030 104.1931050 121.2879190
  52.5768960 103.3916780 121.5591800  42.2406530 105.8600420 114.6735460
  43.0069800 105.7481780 115.2360890  42.3181220 105.1638390 114.0212230
  40.9353290 103.2925490 115.3568350  41.0156880 102.3453000 115.4685750
  41.8273040 103.6232370 115.4629010  54.2650470 111.3489670 122.7885760
  54.3897890 112.1720840 123.2609570  55.1316030 111.1380400 122.4409910
  41.7368000 113.4420880 122.4602890  42.4730480 112.8936340 122.7311460
  42.1208920 114.3076890 122.3208880  38.6213480 109.5094450 118.3344400
  37.6953260 109.7515590 118.3249810  39.0869910 110.3368710 118.2129150
  40.7426280 112.6266950 131.6488470  41.5439010 112.9479000 132.0623870
  40.2278100 112.2662530 132.3708380  44.8470310 112.6151190 114.2828460
  45.6398920 112.9040020 113.8310250  44.3274660 112.1843360 113.6040940
  49.5790910 108.7346820 131.5963880  48.9729070 108.7578420 130.8559630
  49.2745020 108.0029860 132.1331130  51.0091280 112.4627110 130.2073290
  51.9613030 112.3785130 130.1573530  50.8619500 113.1268820 130.8807080
  38.4624090 105.1140410 130.5924520  38.9663110 104.5347690 131.1640750
  37.7231510 105.3980640 131.1300890  45.3647710 107.8354600 114.1470810
  45.2598350 107.2206950 114.8732190  45.1971930 107.3120490 113.3633820
  45.5162030 106.5211400 130.1260040  44.7507700 107.0896400 130.0414710
  45.6977990 106.2287610 129.2328270  48.6050440 106.8974630 114.7512800
  48.0560540 107.3443930 115.3955540  49.2269700 106.3923880 115.2750470
  52.6585380 108.2516730 130.6835060  53.3994850 108.5892490 130.1802520
  51.8958060 108.4208790 130.1304830  40.4947170 103.2570000 131.4874590
  40.5352510 102.9583870 132.3959820  41.3492670 103.6577610 131.3282110
  44.2725560 105.8565550 116.6478100  44.6941980 105.6905420 117.4909490
  44.3976400 105.0465780 116.1533240  42.4352980 101.8362100 129.4549080
  41.9049440 101.3453050 128.8272420  43.1041050 102.2646300 128.9207010
  46.7853200 104.8803160 113.8955200  47.3058860 104.1652180 113.5296350
  47.4321600 105.5189030 114.1955710  51.3331040 106.3031560 129.2190270
  51.7472060 106.4576640 130.0680690  50.3982040 106.4286780 129.3816050
  51.8053210 103.6427720 131.2229420  52.3873980 102.8880040 131.1349900
  51.9814980 104.1735160 130.4460900  42.9225280  98.8024470 129.5346370
  42.8282150  98.1845220 128.8097240  42.3422670  99.5290760 129.3076280
  45.6886720  97.3597710 126.5673760  45.2404020  97.3821970 125.7219310
  45.0551920  96.9616730 127.1644060  46.0946270 106.2552040 127.1886200
  46.5134380 107.0984770 127.0162440  45.1754900 106.3924080 126.9592980
  48.4310170 103.9868220 128.5724040  48.5506380 103.3909360 129.3118880
  49.2904170 104.0237910 128.1525340  50.7698070 104.5405410 127.1486550
  50.2433290 105.0648030 126.5451690  51.1129410 105.1732800 127.7796280
  43.1684460 101.9298780 113.5936260  42.9673520 101.0666140 113.9549600
  42.9976510 101.8432140 112.6557860  43.9453690 112.5605050 128.3043930
  43.4074780 113.2851110 127.9852630  44.1987650 112.0835390 127.5141270
  45.1978940 100.5289570 129.8299860  45.7878630 100.2205420 130.5177680
  44.3799180 100.0569320 129.9859760  50.0172370 100.1455380 130.0632880
  49.3287890  99.4836920 129.9982870  50.7378390  99.6993650 130.5081340
  41.9667260  99.0299400 113.5814140  42.2693160  99.0366830 112.6733290
  42.7061850  98.6797260 114.0781800  46.8015900 113.7956260 128.5630580
  46.7274600 114.6991400 128.8702950  45.8994740 113.4768160 128.5352650
  45.1852190  97.9734020 114.5670340  44.8374190  97.2958010 113.9872790
  45.3864960  97.5123530 115.3813730  47.3501230 112.9614770 116.1856940
  48.2452020 113.2999740 116.2075700  47.3818860 112.2394180 115.5581220
  40.9897390 108.3341820 114.4143940  41.4272260 108.8771490 115.0701520
  41.4745120 107.5088770 114.4240280  38.2043190 111.1230850 121.8664200
  38.5346200 110.2551910 121.6342840  38.6334190 111.3289370 122.6969160
  42.8005110 109.4539860 119.5266170  42.5000650 109.3304830 120.4270080
  42.6942600 108.5948450 119.1181900  38.6933400 111.9901440 124.6045830
  38.2564390 112.1702240 125.4369980  39.2611080 112.7476060 124.4627550
  54.3295580 111.4918440 128.8923140  53.7297570 111.5511000 128.1487060
  54.4589480 110.5523420 129.0219990  38.5257830 104.5021670 120.9634710
  37.8706670 104.2333310 120.3194410  39.3635780 104.3926150 120.5136690
  56.0313460 106.8333840 121.5768980  56.4022290 106.0501160 121.1704950
  56.6715390 107.5222940 121.3986280  53.0147220 108.2170420 126.9899300
  52.2007060 108.6467580 127.2525090  53.4221420 108.8288830 126.3768350
  54.9738000 104.2087100 118.8829000  54.5981600 103.4415030 118.4510290
  54.2441120 104.5909800 119.3703930  39.5633760 104.8874240 125.5038050
  39.9306800 104.8001640 126.3834070  38.9944580 104.1240790 125.4044910
  54.3637620 103.3558620 128.5168520  54.1323710 103.1271370 127.6166470
  54.6242170 104.2758170 128.4713410  39.1149760 101.7983330 129.4096470
  38.2205810 101.7650090 129.7490180  39.6547310 101.9970120 130.1747720
  37.7395910 101.7120600 116.9060040  36.8359990 101.9750800 116.7311700
  38.2236530 101.9831770 116.1260000  54.2488960 102.4344590 122.1836240
  54.7726440 101.9407240 121.5526410  54.8348380 102.5694950 122.9283810
  54.4278680 102.5184460 125.7055790  53.4781390 102.4848000 125.8200780
  54.6091690 103.4284570 125.4705560  40.2823120 100.7686140 114.8154420
  40.9914820 100.3469360 114.3301700  39.5663060 100.8361370 114.1837770
  39.9297280  96.8225470 113.8557070  40.6525410  97.3634410 114.1738290
  40.2021800  96.5488890 112.9798610  39.6189470  96.0731660 123.7579690
  40.2665660  95.5229040 123.3174850  40.0391310  96.3274810 124.5795500
  55.1676090 100.3278890 120.6566330  55.0575370 100.1734930 121.5948600
  55.9283680  99.7999830 120.4141740  56.0566360  98.1586810 113.8972470
  56.9815670  98.0267990 113.6890760  56.0342150  98.2379630 114.8508920
  56.1304850  98.9297470 116.5229180  55.3356350  98.8642590 117.0522090
  56.3348130  99.8648110 116.5114530  53.0723270 112.9689020 120.5167570
  53.6682340 112.6473590 119.8401990  53.3301420 112.4960840 121.3080840
  39.3721470  96.2287330 126.5005010  39.0236290  96.6851150 127.2663190
  39.0409170  95.3344460 126.5827440  40.9785840 109.4006930 130.6658200
  40.9355470 109.0299840 131.5472660  41.1096850 110.3384500 130.8060020
  44.6791870 110.9566520 126.2667920  44.4383230 111.2241080 125.3798440
  45.6194510 111.1272250 126.3218780  46.8846290  97.4199210 130.0224430
  46.8235180  98.0121040 130.7719840  47.8246670  97.3125170 129.8774690
  49.5220850  97.0769270 129.6616720  50.1361260  97.3948560 128.9997800
  50.0670410  96.5917860 130.2812580  55.9396030 112.9760900 127.0678560
  55.4454310 113.3729770 126.3505690  55.3309320 112.3510110 127.4615840
  40.0442110  95.7563530 129.7755780  40.5925100  95.5751580 129.0121890
  40.1097420  94.9657640 130.3112090  40.8173870 112.3469180 127.7855980
  40.2234190 112.2153880 128.5246020  40.8097710 111.5107320 127.3198080
  50.2628890  95.6401410 125.9886010  49.3888730  95.9736520 125.7858940
  50.1539640  95.1674590 126.8137880  53.6235480 113.6184320 124.3465300
  53.1638450 114.3700130 123.9723320  52.9947940 112.8990790 124.2880100
  40.4486100 109.7127560 126.7364020  39.7220160 109.0932850 126.6689970
  40.5095250 110.1068170 125.8662100  44.0531200 111.9272560 123.5213430
  44.5696220 111.3159920 122.9961690  44.7028580 112.4301340 124.0124440
  46.7926700 112.8181050 124.3482410  47.0804510 112.5635350 123.4715420
  47.3049920 112.2658410 124.9387980  48.0103710  96.5571250 124.9278920
  47.2275500  97.0316750 125.2075680  47.7166640  95.6526080 124.8192100
  52.5624780  97.2594350 122.9728010  53.0032870  97.2039450 122.1249610
  52.2932370  98.1752360 123.0438190  54.4263350  96.8909590 120.9836830
  54.3651750  95.9470810 120.8367850  55.2055380  96.9989680 121.5290290
  38.7316100 113.0301950 119.9460780  38.5638140 112.3972630 120.6442670
  37.8650610 113.2361350 119.5954970  39.3544120  96.8618730 117.4492640
  40.1123480  96.9747610 116.8756670  38.8921290  97.6987930 117.4036070
  45.8957930  98.9758000 120.4394950  45.0832440  98.6014890 120.0990830
  46.3999570  98.2203080 120.7416140  50.3982910  95.6400450 121.6778020
  51.0012280  96.2120660 122.1526540  49.6575900  96.2039890 121.4551920
  53.5417510  96.0422010 116.9518300  53.7368140  96.9405460 117.2185730
  52.7547380  95.8109090 117.4451250  40.3378800 111.7235180 117.3910920
  39.8126420 112.1043210 116.6872880  40.2623380 112.3485950 118.1120630
  41.7269270  97.3882780 115.9894610  42.2562030  96.6012580 115.8602560
  42.3597590  98.0673970 116.2230140  43.9207110  97.1257920 119.0440000
  43.2909850  96.4245230 119.2110130  43.3812250  97.8862050 118.8273160
  46.8599060 113.7397150 131.7150610  47.7866370 113.5041420 131.7586570
  46.8449490 114.5669150 131.2336640  55.0944120 113.2822720 118.7124860
  55.2696310 112.5960460 118.0685780  54.3965690 113.8069770 118.3201530
  44.0462670  96.4041900 131.4792490  43.7646940  96.9075500 130.7153310
  44.4282370  95.6063650 131.1134620  42.9371770 113.6717560 116.2660170
  43.6690590 113.3876840 115.7184060  43.1965440 113.4330840 117.1559550
  42.0986560 109.7882290 116.2706500  41.4695440 110.2567390 116.8192330
  42.2134390 108.9431510 116.7052690  50.6478130  95.8195480 132.0572960
  50.5343580  96.1390090 132.9524480  51.4647870  96.2207990 131.7610240
  53.4276620 112.9667010 131.5391650  54.2201940 112.4716240 131.3317610
  53.7209770 113.6457150 132.1467260  47.6854320 105.6166970 104.3016970
  46.9096420 105.1367410 104.5915540  48.3367250 104.9372620 104.1273130
  51.7061750 110.0227160 103.0816100  51.2443280 109.2514400 103.4103270
  52.5187300 110.0493230 103.5868550  40.1112100 100.8888670  98.9635120
  39.2228800 101.2304640  98.8615000  40.3953290 100.6888990  98.0715950
  38.0745110 103.4894320 104.8474820  38.6461220 102.7216520 104.8478460
  38.0746650 103.7883080 103.9381430  47.1263310 108.2924160 104.3087130
  47.0571590 107.3514100 104.1476260  47.8883170 108.3825570 104.8809700
  39.3169980  98.8978680 106.6343750  39.1372820  98.0004430 106.9146510
  38.9150060  99.4450550 107.3090700  48.1568480 101.0994540 104.5356060
  48.5333300 100.2266420 104.4229730  48.0587990 101.4353240 103.6446500
  42.2873490  99.4720170  99.9973500  42.3940240 100.3723900 100.3042260
  41.3765850  99.4238140  99.7068150  39.9356650 101.3939180 105.2426090
  40.6166760 101.6577550 105.8613490  39.6204700 100.5540050 105.5764100
  44.1281220 102.4406540 104.3298680  44.6359440 102.9387510 104.9703700
  44.6594460 101.6641740 104.1538040  52.1754080 100.5345360 104.2411940
  51.4709650 100.8230250 104.8215050  52.5366240 101.3445470 103.8811500
  38.1671610 107.8780940  97.4691630  37.7899590 108.3668040  96.7376530
  38.4244680 108.5506220  98.0998160  53.7916860 110.1520490 106.5039420
  53.1080380 110.8219600 106.4956090  54.3311150 110.3501140 105.7384280
  55.2441000  99.9800150 104.6321150  54.2965910 100.0139130 104.7636580
  55.5690990 100.7939100 105.0170510  51.3275600 111.9964620 105.2184600
  51.3402760 111.5926910 104.3506860  50.7750820 112.7711910 105.1146030
  50.7261040 106.8994460 106.5467210  51.1429830 106.6854570 105.7120670
  51.4500860 107.1567250 107.1175830  48.1641300 104.3446160  99.6637260
  47.2370580 104.2783540  99.8925730  48.3166120 105.2826290  99.5492500
  52.1938590 105.9066460 100.1672510  51.5751010 105.5686010  99.5198810
  52.1763040 105.2626220 100.8751700  51.6365150 102.0851000 107.5838320
  51.2236330 102.9104710 107.8378310  50.9041100 101.4996040 107.3914680
  43.7697940 104.8710900 102.4456990  43.3654940 104.1588150 101.9502890
  43.8561060 104.5264140 103.3345030  42.4826560 101.6454110 106.2256030
  43.0341150 101.7549450 105.4509280  42.9970070 102.0191710 106.9411260
  52.3265250 112.1310330 108.2719300  51.8495810 112.9382520 108.0791910
  51.6427040 111.4788660 108.4245510  50.3703290 105.1453270  97.1745260
  50.8096570 104.3075700  97.0283080  51.0831710 105.7782670  97.2609400
  42.1569290 105.1673470 109.8361370  42.0177060 106.0396270 110.2048770
  41.2750650 104.8246280 109.6909310  43.9549640 111.1095170 112.0446520
  43.9265070 111.5138120 111.1774950  43.7914610 110.1805530 111.8818120
  53.9520430  96.3996080  95.4886300  53.6393090  96.4922910  96.3885370
  54.7132900  96.9777110  95.4383730  40.4702570 103.7655880  99.9463640
  40.3500170 104.4917970  99.3344910  40.1603460 102.9958790  99.4691550
  55.9064460 111.8922270 113.3410690  56.3824180 112.3705160 114.0199770
  56.5271620 111.8239760 112.6156190  38.1087940 106.9371020 105.7532280
  38.1868360 107.0719790 104.8088000  38.7229620 106.2286910 105.9460400
  39.3535570 108.6371210 102.1638460  38.9463650 108.7785800 101.3092060
  40.2448580 108.3531370 101.9609670  49.1714450 112.7863120 109.0705510
  49.6859120 112.6971130 109.8727940  48.3283530 113.1322820 109.3633420
  43.6257230 112.8516990 100.2761130  43.4499710 111.9352530 100.0628930
  42.7712970 113.2104280 100.5158930  47.2236040  99.9759470 108.9322630
  46.7615410 100.1842490 109.7442570  46.8214150  99.1618820 108.6293300
  46.0525050  96.7301650  98.2093140  45.4279230  96.7261520  98.9346450
  45.9655170  95.8632610  97.8129110  42.7280450 102.2324520 101.0568560
  42.5021370 102.0161690 101.9615180  41.9472980 102.6652980 100.7114530
  45.1679660 103.1310100 111.7228830  45.0723260 102.1904830 111.5729230
  46.0111640 103.3525170 111.3276900  40.2990200  99.5423770 109.8762610
  39.9053590 100.3898980 110.0835390  39.6108600  98.9050140 110.0671250
  46.8735250  99.6258740 112.9459350  46.1833570  99.4330940 113.5805440
  47.6167550  99.9093380 113.4783650  37.7877480 101.4072350  95.1195410
  37.7052150 102.3503110  95.2610400  37.4360540 101.2647260  94.2407760
  49.1498220 103.4657180 105.7813270  48.4179340 103.9743990 106.1303370
  48.7522560 102.6487160 105.4802050  41.4377990 100.0237870 103.1459970
  41.0978040 100.5013100 103.9027020  40.6755310  99.5702990 102.7861070
  49.6124130  98.9190860 105.1936210  49.6296870  99.3699510 106.0378060
  49.3639710  98.0196500 105.4069650  44.6617260 103.4524600  96.5755820
  44.0934160 103.0042850  95.9491730  45.3706260 103.8117380  96.0420970
  45.8883580 104.2013160 105.9331170  46.2553710 103.7271730 106.6792510
  45.6988640 105.0754730 106.2739510  38.7524070  98.9456850 102.0624640
  38.4670990  98.5812520 102.9003260  38.6902930  98.2137310 101.4487780
  43.6782950 103.2421800 108.2515380  43.3740020 104.1213780 108.4765740
  44.6329410 103.3021590 108.2872820  42.2064740 107.4482790  98.8482230
  41.4327000 106.9080410  98.6880950  42.9359370 106.9289400  98.5099990
  48.3471520 106.5157210 110.5277620  48.2808830 105.5952880 110.2735210
  47.7176660 106.6132650 111.2422260  42.2502140 107.1163170 102.4861040
  42.7680810 106.3131430 102.4317930  41.7986160 107.0542310 103.3277870
  42.9359800 104.5408780 112.2826290  42.6359940 104.6865960 111.3854110
  43.7071040 103.9814070 112.1899680  48.2788250 109.3377780 110.2781420
  48.2932790 108.4058740 110.0600330  47.5713350 109.4237540 110.9171190
  53.4125320 103.5217600  96.5480030  53.3289040 103.9531820  95.6976470
  54.1319510 103.9815950  96.9806850  54.4412570 110.3759860  99.2762160
  53.7988730 109.7215480  99.5505880  54.0543230 110.7814950  98.5002830
  50.0199050 107.7045290 103.1233850  50.3722870 107.1073420 102.4635220
  49.1361380 107.3789520 103.2942100  38.2454730 104.0815800  96.0221340
  39.1149580 104.3640600  96.3057260  37.7545050 104.8951670  95.9070150
  45.4089540 105.4689010 100.1429620  45.8652320 106.2794260 100.3689810
  45.0577750 105.1512150 100.9748110  47.7122150 110.9795350 107.3721920
  48.3564370 111.1854730 108.0495340  48.0751590 110.2183750 106.9192770
  41.3101320  95.8126660 100.6152140  41.1815950  95.8044560 101.5637060
  40.4863340  96.1509750 100.2643150  48.9854230 108.9827700 106.0899370
  49.6276460 108.2820860 106.2031540  49.5103580 109.7626140 105.9096260
  52.8309950 109.2676320  95.8138510  52.6047530 108.5506760  96.4063150
  52.4406150 109.0188760  94.9760260  50.7591850 109.7822600 109.2935430
  51.0948090 110.3689290 109.9713350  49.8392190 109.6515310 109.5233220
  38.6125980 113.2943180  96.5882970  38.9723620 113.8932520  95.9340240
  38.4718320 113.8403070  97.3618000  38.3095250  97.5717780 110.0758840
  37.5953770  97.7714700 110.6811450  38.7290290  96.7957350 110.4473640
  52.4126200 107.1848260  97.4752670  52.1247900 107.6460950  98.2630550
  53.2078370 106.7246030  97.7436890  38.5967840 111.5598040 111.0625370
  38.7058960 110.6192780 110.9220760  37.9448400 111.8252790 110.4139100
  46.5880430 109.8313930 112.4623490  46.2677300 109.1123170 113.0069180
  45.9138790 110.5069000 112.5359550  40.2301240 105.8989270  98.1503400
  39.6229190 106.6388170  98.1598700  40.7050590 105.9888630  97.3241600
  49.8034030 100.0640090 107.8260290  50.1714850  99.2435300 108.1539860
  48.9432230 100.1241980 108.2415940  53.1696060  99.0197030  98.6347850
  52.5409220  99.1242700  97.9206080  52.6747980  99.2393810  99.4241730
  45.1380090 101.2982980 100.0505730  44.4296240 101.7669320 100.4919340
  45.4224570 100.6404990 100.6850920  46.7636020 102.7179680 108.0498260
  47.2621270 103.1925500 108.7150110  46.9058970 101.7943200 108.2568290
  42.2406530 105.8600420  95.8991970  43.0069800 105.7481780  96.4617400
  42.3181220 105.1638390  95.2468740  40.9353290 103.2925490  96.5824860
  41.0156880 102.3453000  96.6942260  41.8273040 103.6232370  96.6885520
  54.2650470 111.3489670 104.0142270  54.3897890 112.1720840 104.4866080
  55.1316030 111.1380400 103.6666420  38.6213480 109.5094450  99.5600910
  37.6953260 109.7515590  99.5506320  39.0869910 110.3368710  99.4385660
  40.7426280 112.6266950 112.8744980  41.5439010 112.9479000 113.2880380
  40.2278100 112.2662530 113.5964890  44.8470310 112.6151190  95.5084970
  45.6398920 112.9040020  95.0566760  44.3274660 112.1843360  94.8297450
  49.5790910 108.7346820 112.8220390  48.9729070 108.7578420 112.0816140
  49.2745020 108.0029860 113.3587640  51.0091280 112.4627110 111.4329800
  51.9613030 112.3785130 111.3830040  50.8619500 113.1268820 112.1063590
  53.9000480 111.8421320  96.9321710  53.6141990 111.4286460  96.1175890
  53.7020030 112.7709030  96.8122230  45.3647710 107.8354600  95.3727320
  45.2598350 107.2206950  96.0988700  45.1971930 107.3120490  94.5890330
  45.5162030 106.5211400 111.3516550  44.7507700 107.0896400 111.2671220
  45.6977990 106.2287610 110.4584780  48.6050440 106.8974630  95.9769310
  48.0560540 107.3443930  96.6212050  49.2269700 106.3923880  96.5006980
  40.4947170 103.2570000 112.7131100  40.5352510 102.9583870 113.6216330
  41.3492670 103.6577610 112.5538620  44.2725560 105.8565550  97.8734610
  44.6941980 105.6905420  98.7166000  44.3976400 105.0465780  97.3789750
  42.4352980 101.8362100 110.6805590  41.9049440 101.3453050 110.0528930
  43.1041050 102.2646300 110.1463520  46.7853200 104.8803160  95.1211710
  47.3058860 104.1652180  94.7552860  47.4321600 105.5189030  95.4212220
  42.9225280  98.8024470 110.7602880  42.8282150  98.1845220 110.0353750
  42.3422670  99.5290760 110.5332790  48.4310170 103.9868220 109.7980550
  48.5506380 103.3909360 110.5375390  49.2904170 104.0237910 109.3781850
  45.1978940 100.5289570 111.0556370  45.7878630 100.2205420 111.7434190
  44.3799180 100.0569320 111.2116270  50.6472770  96.7407010  97.3479650
  50.9275060  95.8974910  97.7039070  49.8738500  96.9730120  97.8618400
  46.8015900 113.7956260 109.7887090  46.7274600 114.6991400 110.0959460
  45.8994740 113.4768160 109.7609160  40.9897390 108.3341820  95.6400450
  41.4272260 108.8771490  96.2958030  41.4745120 107.5088770  95.6496790
  38.2043190 111.1230850 103.0920710  38.5346200 110.2551910 102.8599350
  38.6334190 111.3289370 103.9225670  42.8005110 109.4539860 100.7522680
  42.5000650 109.3304830 101.6526590  42.6942600 108.5948450 100.3438410
  38.6933400 111.9901440 105.8302340  38.2564390 112.1702240 106.6626490
  39.2611080 112.7476060 105.6884060  55.5697030 109.2336260  95.4549360
  54.7389990 109.3012910  95.9256590  55.7468860 110.1240380  95.1516220
  55.0253490 105.9783740  97.9583560  55.7872400 106.5480390  98.0643250
  55.0407860 105.4110940  98.7291870  38.5257830 104.5021670 102.1891220
  37.8706670 104.2333310 101.5450920  39.3635780 104.3926150 101.7393200
  56.0313460 106.8333840 102.8025490  56.4022290 106.0501160 102.3961460
  56.6715390 107.5222940 102.6242790  55.0772660 106.2718110  95.1156080
  55.3521500 107.1796990  94.9875300  54.8883400 106.2080640  96.0518070
  54.9738000 104.2087100 100.1085510  54.5981600 103.4415030  99.6766800
  54.2441120 104.5909800 100.5960440  39.5633760 104.8874240 106.7294560
  39.9306800 104.8001640 107.6090580  38.9944580 104.1240790 106.6301420
  39.1149760 101.7983330 110.6352980  38.2205810 101.7650090 110.9746690
  39.6547310 101.9970120 111.4004230  37.7395910 101.7120600  98.1316550
  36.8359990 101.9750800  97.9568210  38.2236530 101.9831770  97.3516510
  54.2488960 102.4344590 103.4092750  54.7726440 101.9407240 102.7782920
  54.8348380 102.5694950 104.1540320  40.2823120 100.7686140  96.0410930
  40.9914820 100.3469360  95.5558210  39.5663060 100.8361370  95.4094280
  55.1676090 100.3278890 101.8822840  55.0575370 100.1734930 102.8205110
  55.9283680  99.7999830 101.6398250  56.0566360  98.1586810  95.1228980
  56.9815670  98.0267990  94.9147270  56.0342150  98.2379630  96.0765430
  56.1304850  98.9297470  97.7485690  55.3356350  98.8642590  98.2778600
  56.3348130  99.8648110  97.7371040  53.0723270 112.9689020 101.7424080
  53.6682340 112.6473590 101.0658500  53.3301420 112.4960840 102.5337350
  39.3721470  96.2287330 107.7261520  39.0236290  96.6851150 108.4919700
  39.0409170  95.3344460 107.8083950  40.9785840 109.4006930 111.8914710
  40.9355470 109.0299840 112.7729170  41.1096850 110.3384500 112.0316530
  55.9396030 112.9760900 108.2935070  55.4454310 113.3729770 107.5762200
  55.3309320 112.3510110 108.6872350  40.0442110  95.7563530 111.0012290
  40.5925100  95.5751580 110.2378400  40.1097420  94.9657640 111.5368600
  50.2628890  95.6401410 107.2142520  49.3888730  95.9736520 107.0115450
  50.1539640  95.1674590 108.0394390  53.6235480 113.6184320 105.5721810
  53.1638450 114.3700130 105.1979830  52.9947940 112.8990790 105.5136610
  52.5624780  97.2594350 104.1984520  53.0032870  97.2039450 103.3506120
  52.2932370  98.1752360 104.2694700  54.4263350  96.8909590 102.2093340
  54.3651750  95.9470810 102.0624360  55.2055380  96.9989680 102.7546800
  38.7316100 113.0301950 101.1717290  38.5638140 112.3972630 101.8699180
  37.8650610 113.2361350 100.8211480  39.3544120  96.8618730  98.6749150
  40.1123480  96.9747610  98.1013180  38.8921290  97.6987930  98.6292580
  45.8957930  98.9758000 101.6651460  45.0832440  98.6014890 101.3247340
  46.3999570  98.2203080 101.9672650  50.3982910  95.6400450 102.9034530
  51.0012280  96.2120660 103.3783050  49.6575900  96.2039890 102.6808430
  53.5417510  96.0422010  98.1774810  53.7368140  96.9405460  98.4442240
  52.7547380  95.8109090  98.6707760  40.3378800 111.7235180  98.6167430
  39.8126420 112.1043210  97.9129390  40.2623380 112.3485950  99.3377140
  41.7269270  97.3882780  97.2151120  42.2562030  96.6012580  97.0859070
  42.3597590  98.0673970  97.4486650  43.9207110  97.1257920 100.2696510
  43.2909850  96.4245230 100.4366640  43.3812250  97.8862050 100.0529670
  46.8599060 113.7397150 112.9407120  47.7866370 113.5041420 112.9843080
  46.8449490 114.5669150 112.4593150  44.0462670  96.4041900 112.7049000
  43.7646940  96.9075500 111.9409820  44.4282370  95.6063650 112.3391130
  42.9371770 113.6717560  97.4916680  43.6690590 113.3876840  96.9440570
  43.1965440 113.4330840  98.3816060  42.0986560 109.7882290  97.4963010
  41.4695440 110.2567390  98.0448840  42.2134390 108.9431510  97.9309200
  53.4276620 112.9667010 112.7648160  54.2201940 112.4716240 112.5574120
  53.7209770 113.6457150 113.3723770  41.6821410 109.9626870  86.6007260
  41.9849450 109.0724610  86.4217480  42.4265000 110.5197090  86.3729510
  40.1112100 100.8888670  80.1891630  39.2228800 101.2304640  80.0871510
  40.3953290 100.6888990  79.2972460  38.0745110 103.4894320  86.0731330
  38.6461220 102.7216520  86.0734970  38.0746650 103.7883080  85.1637940
  39.3169980  98.8978680  87.8600260  39.1372820  98.0004430  88.1403020
  38.9150060  99.4450550  88.5347210  48.1568480 101.0994540  85.7612570
  48.5333300 100.2266420  85.6486240  48.0587990 101.4353240  84.8703010
  39.9356650 101.3939180  86.4682600  40.6166760 101.6577550  87.0870000
  39.6204700 100.5540050  86.8020610  56.2292150 100.6111730  89.2584540
  55.5244320 100.9993440  88.7399650  56.4950070 101.3062020  89.8605470
  52.1754080 100.5345360  85.4668450  51.4709650 100.8230250  86.0471560
  52.5366240 101.3445470  85.1068010  42.0932650  98.7915060  87.8289060
  42.4349460  99.6357110  87.5342930  41.1548460  98.9398800  87.9454400
  42.8739270 108.6881080  89.8141290  43.4913270 109.3632160  89.5325740
  42.0132390 109.0969060  89.7228790  38.1671610 107.8780940  78.6948140
  37.7899590 108.3668040  77.9633040  38.4244680 108.5506220  79.3254670
  55.2441000  99.9800150  85.8577660  54.2965910 100.0139130  85.9893090
  55.5690990 100.7939100  86.2427020  45.7760540  96.2797330  84.1533650
  46.0835520  95.7244220  83.4369150  44.8461240  96.4141790  83.9706640
  52.1938590 105.9066460  81.3929020  51.5751010 105.5686010  80.7455320
  52.1763040 105.2626220  82.1008210  51.6365150 102.0851000  88.8094830
  51.2236330 102.9104710  89.0634820  50.9041100 101.4996040  88.6171190
  42.4826560 101.6454110  87.4512540  43.0341150 101.7549450  86.6765790
  42.9970070 102.0191710  88.1667770  43.3298070 108.2960150  92.4860510
  42.4326600 108.5200120  92.7333910  43.3550940 108.4195090  91.5371910
  50.3703290 105.1453270  78.4001770  50.8096570 104.3075700  78.2539590
  51.0831710 105.7782670  78.4865910  42.1569290 105.1673470  91.0617880
  42.0177060 106.0396270  91.4305280  41.2750650 104.8246280  90.9165820
  43.9549640 111.1095170  93.2703030  43.9265070 111.5138120  92.4031460
  43.7914610 110.1805530  93.1074630  40.4702570 103.7655880  81.1720150
  40.3500170 104.4917970  80.5601420  40.1603460 102.9958790  80.6948060
  55.9064460 111.8922270  94.5667200  56.3824180 112.3705160  95.2456280
  56.5271620 111.8239760  93.8412700  39.3535570 108.6371210  83.3894970
  38.9463650 108.7785800  82.5348570  40.2448580 108.3531370  83.1866180
  55.3097710 109.0835120  91.7267210  55.4360770 108.8447000  90.8084390
  55.3519090 108.2519660  92.1989290  43.6257230 112.8516990  81.5017640
  43.4499710 111.9352530  81.2885440  42.7712970 113.2104280  81.7415440
  55.1621720 101.1367580  92.6916950  54.5465990 101.6447250  92.1632410
  54.8418140 100.2365910  92.6342890  42.9366230  97.1090950  84.5543820
  42.4934380  97.8900490  84.2228340  43.4951220  97.4320840  85.2614760
  47.2236040  99.9759470  90.1579140  46.7615410 100.1842490  90.9699080
  46.8214150  99.1618820  89.8549810  52.2240550 101.1968420  91.2875800
  51.3734140 100.8974170  91.6084870  52.0642340 101.4410430  90.3759620
  49.3190260 102.6970170  93.3874590  49.6443670 101.8633920  93.0476820
  50.1070590 103.2198690  93.5352920  44.9742130  97.6538280  86.4133420
  45.2714460  98.5601110  86.3325440  45.5227690  97.1657060  85.7992990
  49.9578210 102.2387890  80.8815720  49.3587100 102.9623690  80.6979340
  50.5057820 102.1764670  80.0992170  45.1679660 103.1310100  92.9485340
  45.0723260 102.1904830  92.7985740  46.0111640 103.3525170  92.5533410
  48.5643080 100.8751430  82.9119000  48.9572650 101.1923630  82.0987690
  48.9259930  99.9963310  83.0263520  40.2990200  99.5423770  91.1019120
  39.9053590 100.3898980  91.3091900  39.6108600  98.9050140  91.2927760
  37.6007250  97.4652230  85.1349200  37.3120300  98.0355090  85.8474180
  38.3453010  96.9856680  85.4980430  37.7877480 101.4072350  76.3451920
  37.7052150 102.3503110  76.4866910  37.4360540 101.2647260  75.4664270
  49.1498220 103.4657180  87.0069780  48.4179340 103.9743990  87.3559880
  48.7522560 102.6487160  86.7058560  45.5875610 100.1411380  85.4122270
  45.5911670  99.7001330  84.5626810  46.4826730 100.4628710  85.5194090
  41.4377990 100.0237870  84.3716480  41.0978040 100.5013100  85.1283530
  40.6755310  99.5702990  84.0117580  49.6124130  98.9190860  86.4192720
  49.6296870  99.3699510  87.2634570  49.3639710  98.0196500  86.6326160
  53.0394880  96.3323040  92.2579100  53.3640650  95.6012700  92.7837080
  53.0751390  96.0136680  91.3560090  39.7386440 107.3536620  91.6779060
  39.3541230 106.7130290  92.2762020  40.0498630 108.0572740  92.2473790
  38.7524070  98.9456850  83.2881150  38.4670990  98.5812520  84.1259770
  38.6902930  98.2137310  82.6744290  43.6782950 103.2421800  89.4771890
  43.3740020 104.1213780  89.7022250  44.6329410 103.3021590  89.5129330
  48.3471520 106.5157210  91.7534130  48.2808830 105.5952880  91.4991720
  47.7176660 106.6132650  92.4678770  51.1411050 102.2105760  78.3056680
  52.0290670 102.5222990  78.1308020  51.1116140 101.3378010  77.9137260
  47.1371640 108.3829450  78.9844850  47.4787340 109.1271680  78.4888170
  46.3084350 108.6960570  79.3469680  39.7346680 104.0824540  90.6243250
  39.3761620 104.7478390  91.2116590  39.4401240 103.2508090  90.9955870
  42.9359800 104.5408780  93.5082800  42.6359940 104.6865960  92.6110620
  43.7071040 103.9814070  93.4156190  53.4125320 103.5217600  77.7736540
  53.3289040 103.9531820  76.9232980  54.1319510 103.9815950  78.2063360
  54.4899460 105.9785120  90.8506510  53.7647650 106.5713900  90.6535900
  55.0174920 105.9708660  90.0519880  38.2454730 104.0815800  77.2477850
  39.1149580 104.3640600  77.5313770  37.7545050 104.8951670  77.1326660
  41.3101320  95.8126660  81.8408650  41.1815950  95.8044560  82.7893570
  40.4863340  96.1509750  81.4899660  52.8309950 109.2676320  77.0395020
  52.6047530 108.5506760  77.6319660  52.4406150 109.0188760  76.2016770
  38.6125980 113.2943180  77.8139480  38.9723620 113.8932520  77.1596750
  38.4718320 113.8403070  78.5874510  52.4126200 107.1848260  78.7009180
  52.1247900 107.6460950  79.4887060  53.2078370 106.7246030  78.9693400
  38.5967840 111.5598040  92.2881880  38.7058960 110.6192780  92.1477270
  37.9448400 111.8252790  91.6395610  46.5880430 109.8313930  93.6880000
  46.2677300 109.1123170  94.2325690  45.9138790 110.5069000  93.7616060
  49.8034030 100.0640090  89.0516800  50.1714850  99.2435300  89.3796370
  48.9432230 100.1241980  89.4672450  47.6154200 110.7402620  77.2938340
  47.7166180 110.5366610  76.3640320  46.7155940 110.4860900  77.4986120
  46.7636020 102.7179680  89.2754770  47.2621270 103.1925500  89.9406620
  46.9058970 101.7943200  89.4824800  46.2572310 113.2588940  81.9886010
  46.5113810 113.2210330  81.0665380  45.3084790 113.1322270  81.9814260
  53.9702880  98.9347640  90.1183160  53.4676480  99.6753040  90.4576970
  54.7859540  99.3231640  89.8019950  54.2650470 111.3489670  85.2398780
  54.3897890 112.1720840  85.7122590  55.1316030 111.1380400  84.8922930
  38.6213480 109.5094450  80.7857420  37.6953260 109.7515590  80.7762830
  39.0869910 110.3368710  80.6642170  40.7426280 112.6266950  94.1001490
  41.5439010 112.9479000  94.5136890  40.2278100 112.2662530  94.8221400
  44.8470310 112.6151190  76.7341480  45.6398920 112.9040020  76.2823270
  44.3274660 112.1843360  76.0553960  49.5790910 108.7346820  94.0476900
  48.9729070 108.7578420  93.3072650  49.2745020 108.0029860  94.5844150
  38.4624090 105.1140410  93.0437540  38.9663110 104.5347690  93.6153770
  37.7231510 105.3980640  93.5813910  45.5162030 106.5211400  92.5773060
  44.7507700 107.0896400  92.4927730  45.6977990 106.2287610  91.6841290
  48.6050440 106.8974630  77.2025820  48.0560540 107.3443930  77.8468560
  49.2269700 106.3923880  77.7263490  52.6585380 108.2516730  93.1348080
  53.3994850 108.5892490  92.6315540  51.8958060 108.4208790  92.5817850
  40.4947170 103.2570000  93.9387610  40.5352510 102.9583870  94.8472840
  41.3492670 103.6577610  93.7795130  51.3331040 106.3031560  91.6703290
  51.7472060 106.4576640  92.5193710  50.3982040 106.4286780  91.8329070
  51.8053210 103.6427720  93.6742440  52.3873980 102.8880040  93.5862920
  51.9814980 104.1735160  92.8973920  45.6886720  97.3597710  89.0186780
  45.2404020  97.3821970  88.1732330  45.0551920  96.9616730  89.6157080
  46.0946270 106.2552040  89.6399220  46.5134380 107.0984770  89.4675460
  45.1754900 106.3924080  89.4106000  48.4310170 103.9868220  91.0237060
  48.5506380 103.3909360  91.7631900  49.2904170 104.0237910  90.6038360
  50.0172370 100.1455380  92.5145900  49.3287890  99.4836920  92.4495890
  50.7378390  99.6993650  92.9594360  41.9667260  99.0299400  76.0327160
  42.2693160  99.0366830  75.1246310  42.7061850  98.6797260  76.5294820
  54.3295580 111.4918440  91.3436160  53.7297570 111.5511000  90.6000080
  54.4589480 110.5523420  91.4733010  55.5697030 109.2336260  76.6805870
  54.7389990 109.3012910  77.1513100  55.7468860 110.1240380  76.3772730
  55.0253490 105.9783740  79.1840070  55.7872400 106.5480390  79.2899760
  55.0407860 105.4110940  79.9548380  38.5257830 104.5021670  83.4147730
  37.8706670 104.2333310  82.7707430  39.3635780 104.3926150  82.9649710
  55.0772660 106.2718110  76.3412590  55.3521500 107.1796990  76.2131810
  54.8883400 106.2080640  77.2774580  51.4748270  99.2962960  77.6366220
  51.8933150  99.1093940  76.7962880  51.1684330  98.4442010  77.9469150
  54.9738000 104.2087100  81.3342020  54.5981600 103.4415030  80.9023310
  54.2441120 104.5909800  81.8216950  54.3637620 103.3558620  90.9681540
  54.1323710 103.1271370  90.0679490  54.6242170 104.2758170  90.9226430
  39.1149760 101.7983330  91.8609490  38.2205810 101.7650090  92.2003200
  39.6547310 101.9970120  92.6260740  52.8025690  98.5815050  93.7461240
  53.6795870  98.5898450  94.1295240  52.8146530  97.8445890  93.1353590
  37.7395910 101.7120600  79.3573060  36.8359990 101.9750800  79.1824720
  38.2236530 101.9831770  78.5773020  54.2488960 102.4344590  84.6349260
  54.7726440 101.9407240  84.0039430  54.8348380 102.5694950  85.3796830
  54.4278680 102.5184460  88.1568810  53.4781390 102.4848000  88.2713800
  54.6091690 103.4284570  87.9218580  40.2823120 100.7686140  77.2667440
  40.9914820 100.3469360  76.7814720  39.5663060 100.8361370  76.6350790
  53.7388930 101.6917940  80.5741670  54.2348050 101.4588810  81.3590550
  53.5405000 100.8529780  80.1579310  39.6189470  96.0731660  86.2092710
  40.2665660  95.5229040  85.7687870  40.0391310  96.3274810  87.0308520
  55.1676090 100.3278890  83.1079350  55.0575370 100.1734930  84.0461620
  55.9283680  99.7999830  82.8654760  53.5141810  96.2673020  89.5662350
  54.1514030  96.8807160  89.9321540  53.6616700  96.3033680  88.6211580
  56.0566360  98.1586810  76.3485490  56.9815670  98.0267990  76.1403780
  56.0342150  98.2379630  77.3021940  56.1304850  98.9297470  78.9742200
  55.3356350  98.8642590  79.5035110  56.3348130  99.8648110  78.9627550
  39.3721470  96.2287330  88.9518030  39.0236290  96.6851150  89.7176210
  39.0409170  95.3344460  89.0340460  40.9785840 109.4006930  93.1171220
  40.9355470 109.0299840  93.9985680  41.1096850 110.3384500  93.2573040
  49.5220850  97.0769270  92.1129740  50.1361260  97.3948560  91.4510820
  50.0670410  96.5917860  92.7325600  55.9396030 112.9760900  89.5191580
  55.4454310 113.3729770  88.8018710  55.3309320 112.3510110  89.9128860
  50.2628890  95.6401410  88.4399030  49.3888730  95.9736520  88.2371960
  50.1539640  95.1674590  89.2650900  51.1700870  97.8472280  89.8240750
  50.8414230  97.0324040  89.4442480  52.1183170  97.8042090  89.7006440
  53.6235480 113.6184320  86.7978320  53.1638450 114.3700130  86.4236340
  52.9947940 112.8990790  86.7393120  40.4486100 109.7127560  89.1877040
  39.7220160 109.0932850  89.1202990  40.5095250 110.1068170  88.3175120
  48.0103710  96.5571250  87.3791940  47.2275500  97.0316750  87.6588700
  47.7166640  95.6526080  87.2705120  52.5624780  97.2594350  85.4241030
  53.0032870  97.2039450  84.5762630  52.2932370  98.1752360  85.4951210
  39.3544120  96.8618730  79.9005660  40.1123480  96.9747610  79.3269690
  38.8921290  97.6987930  79.8549090  40.3378800 111.7235180  79.8423940
  39.8126420 112.1043210  79.1385900  40.2623380 112.3485950  80.5633650
  41.7269270  97.3882780  78.4407630  42.2562030  96.6012580  78.3115580
  42.3597590  98.0673970  78.6743160  46.8599060 113.7397150  94.1663630
  47.7866370 113.5041420  94.2099590  46.8449490 114.5669150  93.6849660
  42.9371770 113.6717560  78.7173190  43.6690590 113.3876840  78.1697080
  43.1965440 113.4330840  79.6072570  50.6478130  95.8195480  94.5085980
  50.5343580  96.1390090  95.4037500  51.4647870  96.2207990  94.2123260
  41.7020150 105.9286780  67.6305750  40.8705030 105.6735490  68.0302260
  42.3101130 105.9997550  68.3663670  41.6821410 109.9626870  67.8263770
  41.9849450 109.0724610  67.6473990  42.4265000 110.5197090  67.5986020
  40.1112100 100.8888670  61.4148140  39.2228800 101.2304640  61.3128020
  40.3953290 100.6888990  60.5228970  38.0745110 103.4894320  67.2987840
  38.6461220 102.7216520  67.2991480  38.0746650 103.7883080  66.3894450
  47.9325060 112.3085170  65.1533110  47.3136500 112.7642670  64.5827550
  48.7876840 112.4636630  64.7522810  47.1263310 108.2924160  66.7600150
  47.0571590 107.3514100  66.5989280  47.8883170 108.3825570  67.3322720
  39.3169980  98.8978680  69.0856770  39.1372820  98.0004430  69.3659530
  38.9150060  99.4450550  69.7603720  39.9356650 101.3939180  67.6939110
  40.6166760 101.6577550  68.3126510  39.6204700 100.5540050  68.0277120
  56.2292150 100.6111730  70.4841050  55.5244320 100.9993440  69.9656160
  56.4950070 101.3062020  71.0861980  42.4117320  97.0805100  71.0475120
  42.4135760  97.5977490  70.2421020  41.5821630  96.6035280  71.0245050
  48.7988410 107.1924410  62.5465020  48.1805680 107.6573860  61.9827740
  49.3111660 107.8851890  62.9634530  43.6620170 106.7200280  69.2248620
  43.3289550 107.3469200  69.8669690  43.8386850 107.2462160  68.4450290
  42.0932650  98.7915060  69.0545570  42.4349460  99.6357110  68.7599440
  41.1548460  98.9398800  69.1710910  42.8739270 108.6881080  71.0397800
  43.4913270 109.3632160  70.7582250  42.0132390 109.0969060  70.9485300
  38.1671610 107.8780940  59.9204650  37.7899590 108.3668040  59.1889550
  38.4244680 108.5506220  60.5511180  48.1641300 104.3446160  62.1150280
  47.2370580 104.2783540  62.3438750  48.3166120 105.2826290  62.0005520
  48.1510380 100.6163160  59.1117440  47.2114050 100.7777120  59.1969900
  48.4693640 101.3348840  58.5653430  54.6723140 105.2981680  69.0896470
  53.8441770 105.3674770  68.6146600  55.2673620 105.8835990  68.6212300
  52.1938590 105.9066460  62.6185530  51.5751010 105.5686010  61.9711830
  52.1763040 105.2626220  63.3264720  43.7697940 104.8710900  64.8970010
  43.3654940 104.1588150  64.4015910  43.8561060 104.5264140  65.7858050
  44.2379640 108.5578460  67.0609220  43.9407930 107.9523930  66.3817000
  45.1879460 108.5955770  66.9498580  42.4826560 101.6454110  68.6769050
  43.0341150 101.7549450  67.9022300  42.9970070 102.0191710  69.3924280
  52.3265250 112.1310330  70.7232320  51.8495810 112.9382520  70.5304930
  51.6427040 111.4788660  70.8758530  50.3703290 105.1453270  59.6258280
  50.8096570 104.3075700  59.4796100  51.0831710 105.7782670  59.7122420
  48.4798670 110.0849340  63.5939520  48.9194580 110.8273670  63.1794910
  48.4185560 110.3275910  64.5178480  43.9549640 111.1095170  74.4959540
  43.9265070 111.5138120  73.6287970  43.7914610 110.1805530  74.3331140
  53.9520430  96.3996080  57.9399320  53.6393090  96.4922910  58.8398390
  54.7132900  96.9777110  57.8896750  40.4702570 103.7655880  62.3976660
  40.3500170 104.4917970  61.7857930  40.1603460 102.9958790  61.9204570
  55.9064460 111.8922270  75.7923710  56.3824180 112.3705160  76.4712790
  56.5271620 111.8239760  75.0669210  38.1087940 106.9371020  68.2045300
  38.1868360 107.0719790  67.2601020  38.7229620 106.2286910  68.3973420
  39.3535570 108.6371210  64.6151480  38.9463650 108.7785800  63.7605080
  40.2448580 108.3531370  64.4122690  55.3097710 109.0835120  72.9523720
  55.4360770 108.8447000  72.0340900  55.3519090 108.2519660  73.4245800
  49.1714450 112.7863120  71.5218530  49.6859120 112.6971130  72.3240960
  48.3283530 113.1322820  71.8146440  51.1468850 113.0718460  60.9502530
  50.9869990 112.7821400  61.8484360  50.9815560 112.2958590  60.4147760
  50.8494980 110.5806020  59.5100530  50.1560140 110.5783310  58.8502810
  51.5917840 110.1565340  59.0794700  50.4144910 112.2068730  63.5849020
  50.8701860 111.4258110  63.8987640  50.7537430 112.9175550  64.1290200
  55.1621720 101.1367580  73.9173460  54.5465990 101.6447250  73.3888920
  54.8418140 100.2365910  73.8599400  38.1647460 107.9785190  70.7439760
  38.3278500 107.5090550  69.9259130  38.6299910 107.4708750  71.4088600
  47.2236040  99.9759470  71.3835650  46.7615410 100.1842490  72.1955590
  46.8214150  99.1618820  71.0806320  49.3190260 102.6970170  74.6131100
  49.6443670 101.8633920  74.2733330  50.1070590 103.2198690  74.7609430
  49.9578210 102.2387890  62.1072230  49.3587100 102.9623690  61.9235850
  50.5057820 102.1764670  61.3248680  40.2990200  99.5423770  72.3275630
  39.9053590 100.3898980  72.5348410  39.6108600  98.9050140  72.5184270
  37.6007250  97.4652230  66.3605710  37.3120300  98.0355090  67.0730690
  38.3453010  96.9856680  66.7236940  41.4377990 100.0237870  65.5972990
  41.0978040 100.5013100  66.3540040  40.6755310  99.5702990  65.2374090
  44.6617260 103.4524600  59.0268840  44.0934160 103.0042850  58.4004750
  45.3706260 103.8117380  58.4933990  53.0394880  96.3323040  73.4835610
  53.3640650  95.6012700  74.0093590  53.0751390  96.0136680  72.5816600
  39.7386440 107.3536620  72.9035570  39.3541230 106.7130290  73.5018530
  40.0498630 108.0572740  73.4730300  38.7524070  98.9456850  64.5137660
  38.4670990  98.5812520  65.3516280  38.6902930  98.2137310  63.9000800
  43.6782950 103.2421800  70.7028400  43.3740020 104.1213780  70.9278760
  44.6329410 103.3021590  70.7385840  42.2064740 107.4482790  61.2995250
  41.4327000 106.9080410  61.1393970  42.9359370 106.9289400  60.9613010
  48.3471520 106.5157210  72.9790640  48.2808830 105.5952880  72.7248230
  47.7176660 106.6132650  73.6935280  51.1411050 102.2105760  59.5313190
  52.0290670 102.5222990  59.3564530  51.1116140 101.3378010  59.1393770
  42.2502140 107.1163170  64.9374060  42.7680810 106.3131430  64.8830950
  41.7986160 107.0542310  65.7790890  47.1371640 108.3829450  60.2101360
  47.4787340 109.1271680  59.7144680  46.3084350 108.6960570  60.5726190
  39.7346680 104.0824540  71.8499760  39.3761620 104.7478390  72.4373100
  39.4401240 103.2508090  72.2212380  48.2788250 109.3377780  72.7294440
  48.2932790 108.4058740  72.5113350  47.5713350 109.4237540  73.3684210
  53.4125320 103.5217600  58.9993050  53.3289040 103.9531820  58.1489490
  54.1319510 103.9815950  59.4319870  54.4899460 105.9785120  72.0763020
  53.7647650 106.5713900  71.8792410  55.0174920 105.9708660  71.2776390
  50.0199050 107.7045290  65.5746870  50.3722870 107.1073420  64.9148240
  49.1361380 107.3789520  65.7455120  46.1062330 108.4642980  62.9817280
  46.7933460 109.0112190  63.3624870  45.3194750 109.0083710  63.0166890
  38.2454730 104.0815800  58.4734360  39.1149580 104.3640600  58.7570280
  37.7545050 104.8951670  58.3583170  45.4089540 105.4689010  62.5942640
  45.8652320 106.2794260  62.8202830  45.0577750 105.1512150  63.4261130
  47.7122150 110.9795350  69.8234940  48.3564370 111.1854730  70.5008360
  48.0751590 110.2183750  69.3705790  48.9854230 108.9827700  68.5412390
  49.6276460 108.2820860  68.6544560  49.5103580 109.7626140  68.3609280
  52.8309950 109.2676320  58.2651530  52.6047530 108.5506760  58.8576170
  52.4406150 109.0188760  57.4273280  50.7591850 109.7822600  71.7448450
  51.0948090 110.3689290  72.4226370  49.8392190 109.6515310  71.9746240
  38.6125980 113.2943180  59.0395990  38.9723620 113.8932520  58.3853260
  38.4718320 113.8403070  59.8131020  52.4126200 107.1848260  59.9265690
  52.1247900 107.6460950  60.7143570  53.2078370 106.7246030  60.1949910
  38.5967840 111.5598040  73.5138390  38.7058960 110.6192780  73.3733780
  37.9448400 111.8252790  72.8652120  46.5880430 109.8313930  74.9136510
  46.2677300 109.1123170  75.4582200  45.9138790 110.5069000  74.9872570
  40.2301240 105.8989270  60.6016420  39.6229190 106.6388170  60.6111720
  40.7050590 105.9888630  59.7754620  47.6154200 110.7402620  58.5194850
  47.7166180 110.5366610  57.5896830  46.7155940 110.4860900  58.7242630
  42.2406530 105.8600420  58.3504990  43.0069800 105.7481780  58.9130420
  42.3181220 105.1638390  57.6981760  40.9353290 103.2925490  59.0337880
  41.0156880 102.3453000  59.1455280  41.8273040 103.6232370  59.1398540
  41.7368000 113.4420880  66.1372420  42.4730480 112.8936340  66.4080990
  42.1208920 114.3076890  65.9978410  38.6213480 109.5094450  62.0113930
  37.6953260 109.7515590  62.0019340  39.0869910 110.3368710  61.8898680
  40.7426280 112.6266950  75.3258000  41.5439010 112.9479000  75.7393400
  40.2278100 112.2662530  76.0477910  49.5790910 108.7346820  75.2733410
  48.9729070 108.7578420  74.5329160  49.2745020 108.0029860  75.8100660
  51.0091280 112.4627110  73.8842820  51.9613030 112.3785130  73.8343060
  50.8619500 113.1268820  74.5576610  53.9000480 111.8421320  59.3834730
  53.6141990 111.4286460  58.5688910  53.7020030 112.7709030  59.2635250
  38.4624090 105.1140410  74.2694050  38.9663110 104.5347690  74.8410280
  37.7231510 105.3980640  74.8070420  45.3647710 107.8354600  57.8240340
  45.2598350 107.2206950  58.5501720  45.1971930 107.3120490  57.0403350
  48.6050440 106.8974630  58.4282330  48.0560540 107.3443930  59.0725070
  49.2269700 106.3923880  58.9520000  52.6585380 108.2516730  74.3604590
  53.3994850 108.5892490  73.8572050  51.8958060 108.4208790  73.8074360
  44.2725560 105.8565550  60.3247630  44.6941980 105.6905420  61.1679020
  44.3976400 105.0465780  59.8302770  46.7853200 104.8803160  57.5724730
  47.3058860 104.1652180  57.2065880  47.4321600 105.5189030  57.8725240
  51.3331040 106.3031560  72.8959800  51.7472060 106.4576640  73.7450220
  50.3982040 106.4286780  73.0585580  51.8053210 103.6427720  74.8998950
  52.3873980 102.8880040  74.8119430  51.9814980 104.1735160  74.1230430
  42.9225280  98.8024470  73.2115900  42.8282150  98.1845220  72.4866770
  42.3422670  99.5290760  72.9845810  43.1684460 101.9298780  57.2705790
  42.9673520 101.0666140  57.6319130  42.9976510 101.8432140  56.3327390
  43.9453690 112.5605050  71.9813460  43.4074780 113.2851110  71.6622160
  44.1987650 112.0835390  71.1910800  45.1978940 100.5289570  73.5069390
  45.7878630 100.2205420  74.1947210  44.3799180 100.0569320  73.6629290
  50.0172370 100.1455380  73.7402410  49.3287890  99.4836920  73.6752400
  50.7378390  99.6993650  74.1850870  41.9667260  99.0299400  57.2583670
  42.2693160  99.0366830  56.3502820  42.7061850  98.6797260  57.7551330
  46.8015900 113.7956260  72.2400110  46.7274600 114.6991400  72.5472480
  45.8994740 113.4768160  72.2122180  40.9897390 108.3341820  58.0913470
  41.4272260 108.8771490  58.7471050  41.4745120 107.5088770  58.1009810
  38.2043190 111.1230850  65.5433730  38.5346200 110.2551910  65.3112370
  38.6334190 111.3289370  66.3738690  42.8005110 109.4539860  63.2035700
  42.5000650 109.3304830  64.1039610  42.6942600 108.5948450  62.7951430
  38.6933400 111.9901440  68.2815360  38.2564390 112.1702240  69.1139510
  39.2611080 112.7476060  68.1397080  54.3295580 111.4918440  72.5692670
  53.7297570 111.5511000  71.8256590  54.4589480 110.5523420  72.6989520
  55.5697030 109.2336260  57.9062380  54.7389990 109.3012910  58.3769610
  55.7468860 110.1240380  57.6029240  55.0253490 105.9783740  60.4096580
  55.7872400 106.5480390  60.5156270  55.0407860 105.4110940  61.1804890
  38.5257830 104.5021670  64.6404240  37.8706670 104.2333310  63.9963940
  39.3635780 104.3926150  64.1906220  53.0147220 108.2170420  70.6668830
  52.2007060 108.6467580  70.9294620  53.4221420 108.8288830  70.0537880
  55.0772660 106.2718110  57.5669100  55.3521500 107.1796990  57.4388320
  54.8883400 106.2080640  58.5031090  51.4748270  99.2962960  58.8622730
  51.8933150  99.1093940  58.0219390  51.1684330  98.4442010  59.1725660
  54.9738000 104.2087100  62.5598530  54.5981600 103.4415030  62.1279820
  54.2441120 104.5909800  63.0473460  39.5633760 104.8874240  69.1807580
  39.9306800 104.8001640  70.0603600  38.9944580 104.1240790  69.0814440
  54.3637620 103.3558620  72.1938050  54.1323710 103.1271370  71.2936000
  54.6242170 104.2758170  72.1482940  39.1149760 101.7983330  73.0866000
  38.2205810 101.7650090  73.4259710  39.6547310 101.9970120  73.8517250
  52.8025690  98.5815050  74.9717750  53.6795870  98.5898450  75.3551750
  52.8146530  97.8445890  74.3610100  37.7395910 101.7120600  60.5829570
  36.8359990 101.9750800  60.4081230  38.2236530 101.9831770  59.8029530
  39.6189470  96.0731660  67.4349220  40.2665660  95.5229040  66.9944380
  40.0391310  96.3274810  68.2565030  56.0566360  98.1586810  57.5742000
  56.9815670  98.0267990  57.3660290  56.0342150  98.2379630  58.5278450
  56.1304850  98.9297470  60.1998710  55.3356350  98.8642590  60.7291620
  56.3348130  99.8648110  60.1884060  39.3721470  96.2287330  70.1774540
  39.0236290  96.6851150  70.9432720  39.0409170  95.3344460  70.2596970
  44.6791870 110.9566520  69.9437450  44.4383230 111.2241080  69.0567970
  45.6194510 111.1272250  69.9988310  46.8846290  97.4199210  73.6993960
  46.8235180  98.0121040  74.4489370  47.8246670  97.3125170  73.5544220
  55.9396030 112.9760900  70.7448090  55.4454310 113.3729770  70.0275220
  55.3309320 112.3510110  71.1385370  40.8173870 112.3469180  71.4625510
  40.2234190 112.2153880  72.2015550  40.8097710 111.5107320  70.9967610
  40.4486100 109.7127560  70.4133550  39.7220160 109.0932850  70.3459500
  40.5095250 110.1068170  69.5431630  44.0531200 111.9272560  67.1982960
  44.5696220 111.3159920  66.6731220  44.7028580 112.4301340  67.6893970
  46.7926700 112.8181050  68.0251940  47.0804510 112.5635350  67.1484950
  47.3049920 112.2658410  68.6157510  38.7316100 113.0301950  63.6230310
  38.5638140 112.3972630  64.3212200  37.8650610 113.2361350  63.2724500
  39.3544120  96.8618730  61.1262170  40.1123480  96.9747610  60.5526200
  38.8921290  97.6987930  61.0805600  40.3378800 111.7235180  61.0680450
  39.8126420 112.1043210  60.3642410  40.2623380 112.3485950  61.7890160
  46.8599060 113.7397150  75.3920140  47.7866370 113.5041420  75.4356100
  46.8449490 114.5669150  74.9106170  44.0462670  96.4041900  75.1562020
  43.7646940  96.9075500  74.3922840  44.4282370  95.6063650  74.7904150
  42.0986560 109.7882290  59.9476030  41.4695440 110.2567390  60.4961860
  42.2134390 108.9431510  60.3822220  53.4276620 112.9667010  75.2161180
  54.2201940 112.4716240  75.0087140  53.7209770 113.6457150  75.8236790
  38.0745110 103.4894320  48.5244350  38.6461220 102.7216520  48.5247990
  38.0746650 103.7883080  47.6150960  47.9325060 112.3085170  46.3789620
  47.3136500 112.7642670  45.8084060  48.7876840 112.4636630  45.9779320
  39.3169980  98.8978680  50.3113280  39.1372820  98.0004430  50.5916040
  38.9150060  99.4450550  50.9860230  48.1568480 101.0994540  48.2125590
  48.5333300 100.2266420  48.0999260  48.0587990 101.4353240  47.3216030
  39.9356650 101.3939180  48.9195620  40.6166760 101.6577550  49.5383020
  39.6204700 100.5540050  49.2533630  56.2292150 100.6111730  51.7097560
  55.5244320 100.9993440  51.1912670  56.4950070 101.3062020  52.3118490
  42.4117320  97.0805100  52.2731630  42.4135760  97.5977490  51.4677530
  41.5821630  96.6035280  52.2501560  52.1754080 100.5345360  47.9181470
  51.4709650 100.8230250  48.4984580  52.5366240 101.3445470  47.5581030
  42.0932650  98.7915060  50.2802080  42.4349460  99.6357110  49.9855950
  41.1548460  98.9398800  50.3967420  55.2441000  99.9800150  48.3090680
  54.2965910 100.0139130  48.4406110  55.5690990 100.7939100  48.6940040
  45.7760540  96.2797330  46.6046670  46.0835520  95.7244220  45.8882170
  44.8461240  96.4141790  46.4219660  52.6221020 108.7180840  43.9844300
  52.5117350 107.7755170  44.1093720  52.6189270 109.0796480  44.8707060
  48.1510380 100.6163160  40.3373950  47.2114050 100.7777120  40.4226410
  48.4693640 101.3348840  39.7909940  54.6723140 105.2981680  50.3152980
  53.8441770 105.3674770  49.8403110  55.2673620 105.8835990  49.8468810
  52.1938590 105.9066460  43.8442040  51.5751010 105.5686010  43.1968340
  52.1763040 105.2626220  44.5521230  51.6365150 102.0851000  51.2607850
  51.2236330 102.9104710  51.5147840  50.9041100 101.4996040  51.0684210
  43.7697940 104.8710900  46.1226520  43.3654940 104.1588150  45.6272420
  43.8561060 104.5264140  47.0114560  52.3265250 112.1310330  51.9488830
  51.8495810 112.9382520  51.7561440  51.6427040 111.4788660  52.1015040
  48.4798670 110.0849340  44.8196030  48.9194580 110.8273670  44.4051420
  48.4185560 110.3275910  45.7434990  43.9549640 111.1095170  55.7216050
  43.9265070 111.5138120  54.8544480  43.7914610 110.1805530  55.5587650
  55.9064460 111.8922270  57.0180220  56.3824180 112.3705160  57.6969300
  56.5271620 111.8239760  56.2925720  39.3535570 108.6371210  45.8407990
  38.9463650 108.7785800  44.9861590  40.2448580 108.3531370  45.6379200
  55.3097710 109.0835120  54.1780230  55.4360770 108.8447000  53.2597410
  55.3519090 108.2519660  54.6502310  49.1714450 112.7863120  52.7475040
  49.6859120 112.6971130  53.5497470  48.3283530 113.1322820  53.0402950
  51.1468850 113.0718460  42.1759040  50.9869990 112.7821400  43.0740870
  50.9815560 112.2958590  41.6404270  43.6257230 112.8516990  43.9530660
  43.4499710 111.9352530  43.7398460  42.7712970 113.2104280  44.1928460
  50.4144910 112.2068730  44.8105530  50.8701860 111.4258110  45.1244150
  50.7537430 112.9175550  45.3546710  55.1621720 101.1367580  55.1429970
  54.5465990 101.6447250  54.6145430  54.8418140 100.2365910  55.0855910
  42.9366230  97.1090950  47.0056840  42.4934380  97.8900490  46.6741360
  43.4951220  97.4320840  47.7127780  47.2236040  99.9759470  52.6092160
  46.7615410 100.1842490  53.4212100  46.8214150  99.1618820  52.3062830
  52.2240550 101.1968420  53.7388820  51.3734140 100.8974170  54.0597890
  52.0642340 101.4410430  52.8272640  49.3190260 102.6970170  55.8387610
  49.6443670 101.8633920  55.4989840  50.1070590 103.2198690  55.9865940
  46.0525050  96.7301650  41.8862670  45.4279230  96.7261520  42.6115980
  45.9655170  95.8632610  41.4898640  44.9742130  97.6538280  48.8646440
  45.2714460  98.5601110  48.7838460  45.5227690  97.1657060  48.2506010
  46.8735250  99.6258740  56.6228880  46.1833570  99.4330940  57.2574970
  47.6167550  99.9093380  57.1553180  37.7877480 101.4072350  38.7964940
  37.7052150 102.3503110  38.9379930  37.4360540 101.2647260  37.9177290
  45.5875610 100.1411380  47.8635290  45.5911670  99.7001330  47.0139830
  46.4826730 100.4628710  47.9707110  45.6495760 101.1423460  40.8542050
  45.7708580 101.1009940  41.8027870  45.2644270 102.0047610  40.6988780
  49.6124130  98.9190860  48.8705740  49.6296870  99.3699510  49.7147590
  49.3639710  98.0196500  49.0839180  44.6617260 103.4524600  40.2525350
  44.0934160 103.0042850  39.6261260  45.3706260 103.8117380  39.7190500
  38.7524070  98.9456850  45.7394170  38.4670990  98.5812520  46.5772790
  38.6902930  98.2137310  45.1257310  42.2064740 107.4482790  42.5251760
  41.4327000 106.9080410  42.3650480  42.9359370 106.9289400  42.1869520
  48.4262660  97.8386110  42.4607540  47.6127270  97.3399280  42.3852850
  48.2324610  98.6784360  42.0443890  48.3471520 106.5157210  54.2047150
  48.2808830 105.5952880  53.9504740  47.7176660 106.6132650  54.9191790
  51.1411050 102.2105760  40.7569700  52.0290670 102.5222990  40.5821040
  51.1116140 101.3378010  40.3650280  42.2502140 107.1163170  46.1630570
  42.7680810 106.3131430  46.1087460  41.7986160 107.0542310  47.0047400
  48.2788250 109.3377780  53.9550950  48.2932790 108.4058740  53.7369860
  47.5713350 109.4237540  54.5940720  53.4125320 103.5217600  40.2249560
  53.3289040 103.9531820  39.3746000  54.1319510 103.9815950  40.6576380
  54.4899460 105.9785120  53.3019530  53.7647650 106.5713900  53.1048920
  55.0174920 105.9708660  52.5032900  41.3101320  95.8126660  44.2921670
  41.1815950  95.8044560  45.2406590  40.4863340  96.1509750  43.9412680
  50.7591850 109.7822600  52.9704960  51.0948090 110.3689290  53.6482880
  49.8392190 109.6515310  53.2002750  38.6125980 113.2943180  40.2652500
  38.9723620 113.8932520  39.6109770  38.4718320 113.8403070  41.0387530
  46.5880430 109.8313930  56.1393020  46.2677300 109.1123170  56.6838710
  45.9138790 110.5069000  56.2129080  49.8034030 100.0640090  51.5029820
  50.1714850  99.2435300  51.8309390  48.9432230 100.1241980  51.9185470
  46.2572310 113.2588940  44.4399030  46.5113810 113.2210330  43.5178400
  45.3084790 113.1322270  44.4327280  53.9702880  98.9347640  52.5696180
  53.4676480  99.6753040  52.9089990  54.7859540  99.3231640  52.2532970
  52.2624890 104.1780820  46.0157540  51.3215030 104.1931050  46.1905230
  52.5768960 103.3916780  46.4617840  41.7368000 113.4420880  47.3628930
  42.4730480 112.8936340  47.6337500  42.1208920 114.3076890  47.2234920
  38.6213480 109.5094450  43.2370440  37.6953260 109.7515590  43.2275850
  39.0869910 110.3368710  43.1155190  49.5790910 108.7346820  56.4989920
  48.9729070 108.7578420  55.7585670  49.2745020 108.0029860  57.0357170
  51.0091280 112.4627110  55.1099330  51.9613030 112.3785130  55.0599570
  50.8619500 113.1268820  55.7833120  52.6585380 108.2516730  55.5861100
  53.3994850 108.5892490  55.0828560  51.8958060 108.4208790  55.0330870
  51.3331040 106.3031560  54.1216310  51.7472060 106.4576640  54.9706730
  50.3982040 106.4286780  54.2842090  51.8053210 103.6427720  56.1255460
  52.3873980 102.8880040  56.0375940  51.9814980 104.1735160  55.3486940
  42.9225280  98.8024470  54.4372410  42.8282150  98.1845220  53.7123280
  42.3422670  99.5290760  54.2102320  45.6886720  97.3597710  51.4699800
  45.2404020  97.3821970  50.6245350  45.0551920  96.9616730  52.0670100
  50.7698070 104.5405410  52.0512590  50.2433290 105.0648030  51.4477730
  51.1129410 105.1732800  52.6822320  43.1684460 101.9298780  38.4962300
  42.9673520 101.0666140  38.8575640  42.9976510 101.8432140  37.5583900
  43.9453690 112.5605050  53.2069970  43.4074780 113.2851110  52.8878670
  44.1987650 112.0835390  52.4167310  45.1978940 100.5289570  54.7325900
  45.7878630 100.2205420  55.4203720  44.3799180 100.0569320  54.8885800
  50.0172370 100.1455380  54.9658920  49.3287890  99.4836920  54.9008910
  50.7378390  99.6993650  55.4107380  46.8015900 113.7956260  53.4656620
  46.7274600 114.6991400  53.7728990  45.8994740 113.4768160  53.4378690
  45.1852190  97.9734020  39.4696380  44.8374190  97.2958010  38.8898830
  45.3864960  97.5123530  40.2839770  38.2043190 111.1230850  46.7690240
  38.5346200 110.2551910  46.5368880  38.6334190 111.3289370  47.5995200
  42.8005110 109.4539860  44.4292210  42.5000650 109.3304830  45.3296120
  42.6942600 108.5948450  44.0207940  38.6933400 111.9901440  49.5071870
  38.2564390 112.1702240  50.3396020  39.2611080 112.7476060  49.3653590
  54.3295580 111.4918440  53.7949180  53.7297570 111.5511000  53.0513100
  54.4589480 110.5523420  53.9246030  38.5257830 104.5021670  45.8660750
  37.8706670 104.2333310  45.2220450  39.3635780 104.3926150  45.4162730
  56.0313460 106.8333840  46.4795020  56.4022290 106.0501160  46.0730990
  56.6715390 107.5222940  46.3012320  51.4748270  99.2962960  40.0879240
  51.8933150  99.1093940  39.2475900  51.1684330  98.4442010  40.3982170
  54.9738000 104.2087100  43.7855040  54.5981600 103.4415030  43.3536330
  54.2441120 104.5909800  44.2729970  54.3637620 103.3558620  53.4194560
  54.1323710 103.1271370  52.5192510  54.6242170 104.2758170  53.3739450
  52.8025690  98.5815050  56.1974260  53.6795870  98.5898450  56.5808260
  52.8146530  97.8445890  55.5866610  54.2488960 102.4344590  47.0862280
  54.7726440 101.9407240  46.4552450  54.8348380 102.5694950  47.8309850
  54.4278680 102.5184460  50.6081830  53.4781390 102.4848000  50.7226820
  54.6091690 103.4284570  50.3731600  39.9297280  96.8225470  38.7583110
  40.6525410  97.3634410  39.0764330  40.2021800  96.5488890  37.8824650
  53.7388930 101.6917940  43.0254690  54.2348050 101.4588810  43.8103570
  53.5405000 100.8529780  42.6092330  39.6189470  96.0731660  48.6605730
  40.2665660  95.5229040  48.2200890  40.0391310  96.3274810  49.4821540
  55.1676090 100.3278890  45.5592370  55.0575370 100.1734930  46.4974640
  55.9283680  99.7999830  45.3167780  56.0566360  98.1586810  38.7998510
  56.9815670  98.0267990  38.5916800  56.0342150  98.2379630  39.7534960
  53.0723270 112.9689020  45.4193610  53.6682340 112.6473590  44.7428030
  53.3301420 112.4960840  46.2106880  44.6791870 110.9566520  51.1693960
  44.4383230 111.2241080  50.2824480  45.6194510 111.1272250  51.2244820
  46.8846290  97.4199210  54.9250470  46.8235180  98.0121040  55.6745880
  47.8246670  97.3125170  54.7800730  49.5220850  97.0769270  54.5642760
  50.1361260  97.3948560  53.9023840  50.0670410  96.5917860  55.1838620
  55.9396030 112.9760900  51.9704600  55.4454310 113.3729770  51.2531730
  55.3309320 112.3510110  52.3641880  53.6235480 113.6184320  49.2491340
  53.1638450 114.3700130  48.8749360  52.9947940 112.8990790  49.1906140
  44.0531200 111.9272560  48.4239470  44.5696220 111.3159920  47.8987730
  44.7028580 112.4301340  48.9150480  46.7926700 112.8181050  49.2508450
  47.0804510 112.5635350  48.3741460  47.3049920 112.2658410  49.8414020
  48.0103710  96.5571250  49.8304960  47.2275500  97.0316750  50.1101720
  47.7166640  95.6526080  49.7218140  38.7316100 113.0301950  44.8486820
  38.5638140 112.3972630  45.5468710  37.8650610 113.2361350  44.4981010
  45.8957930  98.9758000  45.3420990  45.0832440  98.6014890  45.0016870
  46.3999570  98.2203080  45.6442180  40.3378800 111.7235180  42.2936960
  39.8126420 112.1043210  41.5898920  40.2623380 112.3485950  43.0146670
  55.0944120 113.2822720  43.6150900  55.2696310 112.5960460  42.9711820
  54.3965690 113.8069770  43.2227570  42.9371770 113.6717560  41.1686210
  43.6690590 113.3876840  40.6210100  43.1965440 113.4330840  42.0585590
  42.0986560 109.7882290  41.1732540  41.4695440 110.2567390  41.7218370
  42.2134390 108.9431510  41.6078730  50.6478130  95.8195480  56.9599000
  50.5343580  96.1390090  57.8550520  51.4647870  96.2207990  56.6636280
  53.4276620 112.9667010  56.4417690  54.2201940 112.4716240  56.2343650
  53.7209770 113.6457150  57.0493300  49.5536280 103.8387950  27.3233740
  49.4730330 102.9242560  27.0525450  49.1400700 104.3355020  26.6173450
  51.7061750 110.0227160  27.9842140  51.2443280 109.2514400  28.3129310
  52.5187300 110.0493230  28.4894590  40.1112100 100.8888670  23.8661160
  39.2228800 101.2304640  23.7641040  40.3953290 100.6888990  22.9741990
  47.9325060 112.3085170  27.6046130  47.3136500 112.7642670  27.0340570
  48.7876840 112.4636630  27.2035830  48.1568480 101.0994540  29.4382100
  48.5333300 100.2266420  29.3255770  48.0587990 101.4353240  28.5472540
  42.2873490  99.4720170  24.8999540  42.3940240 100.3723900  25.2068300
  41.3765850  99.4238140  24.6094190  51.9392600  98.5944980  26.3710440
  52.7602220  98.1041550  26.4135920  51.9726680  99.1842640  27.1242280
  48.7988410 107.1924410  24.9978040  48.1805680 107.6573860  24.4340760
  49.3111660 107.8851890  25.4147550  52.1754080 100.5345360  29.1437980
  51.4709650 100.8230250  29.7241090  52.5366240 101.3445470  28.7837540
  38.1671610 107.8780940  22.3717670  37.7899590 108.3668040  21.6402570
  38.4244680 108.5506220  23.0024200  53.7916860 110.1520490  31.4065460
  53.1080380 110.8219600  31.3982130  54.3311150 110.3501140  30.6410320
  55.2441000  99.9800150  29.5347190  54.2965910 100.0139130  29.6662620
  55.5690990 100.7939100  29.9196550  51.3275600 111.9964620  30.1210640
  51.3402760 111.5926910  29.2532900  50.7750820 112.7711910  30.0172070
  52.6221020 108.7180840  25.2100810  52.5117350 107.7755170  25.3350230
  52.6189270 109.0796480  26.0963570  50.7261040 106.8994460  31.4493250
  51.1429830 106.6854570  30.6146710  51.4500860 107.1567250  32.0201870
  54.6723140 105.2981680  31.5409490  53.8441770 105.3674770  31.0659620
  55.2673620 105.8835990  31.0725320  52.1938590 105.9066460  25.0698550
  51.5751010 105.5686010  24.4224850  52.1763040 105.2626220  25.7777740
  42.4826560 101.6454110  31.1282070  43.0341150 101.7549450  30.3535320
  42.9970070 102.0191710  31.8437300  52.3265250 112.1310330  33.1745340
  51.8495810 112.9382520  32.9817950  51.6427040 111.4788660  33.3271550
  48.4798670 110.0849340  26.0452540  48.9194580 110.8273670  25.6307930
  48.4185560 110.3275910  26.9691500  40.4702570 103.7655880  24.8489680
  40.3500170 104.4917970  24.2370950  40.1603460 102.9958790  24.3717590
  39.3535570 108.6371210  27.0664500  38.9463650 108.7785800  26.2118100
  40.2448580 108.3531370  26.8635710  49.1714450 112.7863120  33.9731550
  49.6859120 112.6971130  34.7753980  48.3283530 113.1322820  34.2659460
  51.1468850 113.0718460  23.4015550  50.9869990 112.7821400  24.2997380
  50.9815560 112.2958590  22.8660780  43.6257230 112.8516990  25.1787170
  43.4499710 111.9352530  24.9654970  42.7712970 113.2104280  25.4184970
  50.8494980 110.5806020  21.9613550  50.1560140 110.5783310  21.3015830
  51.5917840 110.1565340  21.5307720  50.4144910 112.2068730  26.0362040
  50.8701860 111.4258110  26.3500660  50.7537430 112.9175550  26.5803220
  49.3190260 102.6970170  37.0644120  49.6443670 101.8633920  36.7246350
  50.1070590 103.2198690  37.2122450  46.0525050  96.7301650  23.1119180
  45.4279230  96.7261520  23.8372490  45.9655170  95.8632610  22.7155150
  42.7280450 102.2324520  25.9594600  42.5021370 102.0161690  26.8641220
  41.9472980 102.6652980  25.6140570  40.2990200  99.5423770  34.7788650
  39.9053590 100.3898980  34.9861430  39.6108600  98.9050140  34.9697290
  37.7877480 101.4072350  20.0221450  37.7052150 102.3503110  20.1636440
  37.4360540 101.2647260  19.1433800  49.1498220 103.4657180  30.6839310
  48.4179340 103.9743990  31.0329410  48.7522560 102.6487160  30.3828090
  41.4377990 100.0237870  28.0486010  41.0978040 100.5013100  28.8053060
  40.6755310  99.5702990  27.6887110  49.6124130  98.9190860  30.0962250
  49.6296870  99.3699510  30.9404100  49.3639710  98.0196500  30.3095690
  44.6617260 103.4524600  21.4781860  44.0934160 103.0042850  20.8517770
  45.3706260 103.8117380  20.9447010  53.0394880  96.3323040  35.9348630
  53.3640650  95.6012700  36.4606610  53.0751390  96.0136680  35.0329620
  38.7524070  98.9456850  26.9650680  38.4670990  98.5812520  27.8029300
  38.6902930  98.2137310  26.3513820  42.2064740 107.4482790  23.7508270
  41.4327000 106.9080410  23.5906990  42.9359370 106.9289400  23.4126030
  52.9652720 106.4448150  29.5434660  53.6851840 106.9403440  29.1530770
  52.7634540 105.7666040  28.8988530  48.3471520 106.5157210  35.4303660
  48.2808830 105.5952880  35.1761250  47.7176660 106.6132650  36.1448300
  47.1371640 108.3829450  22.6614380  47.4787340 109.1271680  22.1657700
  46.3084350 108.6960570  23.0239210  48.2788250 109.3377780  35.1807460
  48.2932790 108.4058740  34.9626370  47.5713350 109.4237540  35.8197230
  53.4125320 103.5217600  21.4506070  53.3289040 103.9531820  20.6002510
  54.1319510 103.9815950  21.8832890  54.4412570 110.3759860  24.1788200
  53.7988730 109.7215480  24.4531920  54.0543230 110.7814950  23.4028870
  50.0199050 107.7045290  28.0259890  50.3722870 107.1073420  27.3661260
  49.1361380 107.3789520  28.1968140  38.2454730 104.0815800  20.9247380
  39.1149580 104.3640600  21.2083300  37.7545050 104.8951670  20.8096190
  47.7122150 110.9795350  32.2747960  48.3564370 111.1854730  32.9521380
  48.0751590 110.2183750  31.8218810  48.9854230 108.9827700  30.9925410
  49.6276460 108.2820860  31.1057580  49.5103580 109.7626140  30.8122300
  52.8309950 109.2676320  20.7164550  52.6047530 108.5506760  21.3089190
  52.4406150 109.0188760  19.8786300  50.7591850 109.7822600  34.1961470
  51.0948090 110.3689290  34.8739390  49.8392190 109.6515310  34.4259260
  38.6125980 113.2943180  21.4909010  38.9723620 113.8932520  20.8366280
  38.4718320 113.8403070  22.2644040  38.3095250  97.5717780  34.9784880
  37.5953770  97.7714700  35.5837490  38.7290290  96.7957350  35.3499680
  52.4126200 107.1848260  22.3778710  52.1247900 107.6460950  23.1656590
  53.2078370 106.7246030  22.6462930  38.5967840 111.5598040  35.9651410
  38.7058960 110.6192780  35.8246800  37.9448400 111.8252790  35.3165140
  44.6294600 110.6774380  22.3082680  44.6204700 111.4104070  21.6927190
  43.7092960 110.4305960  22.4009640  40.2301240 105.8989270  23.0529440
  39.6229190 106.6388170  23.0624740  40.7050590 105.9888630  22.2267640
  49.8034030 100.0640090  32.7286330  50.1714850  99.2435300  33.0565900
  48.9432230 100.1241980  33.1441980  47.6154200 110.7402620  20.9707870
  47.7166180 110.5366610  20.0409850  46.7155940 110.4860900  21.1755650
  46.7636020 102.7179680  32.9524300  47.2621270 103.1925500  33.6176150
  46.9058970 101.7943200  33.1594330  49.1695520  98.0233640  26.3927560
  49.0463300  98.0419770  25.4437070  50.1180080  98.0712580  26.5125960
  46.2572310 113.2588940  25.6655540  46.5113810 113.2210330  24.7434910
  45.3084790 113.1322270  25.6583790  43.3415110  99.6068060  22.3282480
  44.1905640 100.0438210  22.2622670  42.9746380  99.9188320  23.1554540
  52.2624890 104.1780820  27.2414050  51.3215030 104.1931050  27.4161740
  52.5768960 103.3916780  27.6874350  42.2406530 105.8600420  20.8018010
  43.0069800 105.7481780  21.3643440  42.3181220 105.1638390  20.1494780
  40.9353290 103.2925490  21.4850900  41.0156880 102.3453000  21.5968300
  41.8273040 103.6232370  21.5911560  54.2650470 111.3489670  28.9168310
  54.3897890 112.1720840  29.3892120  55.1316030 111.1380400  28.5692460
  41.7368000 113.4420880  28.5885440  42.4730480 112.8936340  28.8594010
  42.1208920 114.3076890  28.4491430  38.6213480 109.5094450  24.4626950
  37.6953260 109.7515590  24.4532360  39.0869910 110.3368710  24.3411700
  40.7426280 112.6266950  37.7771020  41.5439010 112.9479000  38.1906420
  40.2278100 112.2662530  38.4990930  44.8470310 112.6151190  20.4111010
  45.6398920 112.9040020  19.9592800  44.3274660 112.1843360  19.7323490
  51.0091280 112.4627110  36.3355840  51.9613030 112.3785130  36.2856080
  50.8619500 113.1268820  37.0089630  53.9000480 111.8421320  21.8347750
  53.6141990 111.4286460  21.0201930  53.7020030 112.7709030  21.7148270
  45.3647710 107.8354600  20.2753360  45.2598350 107.2206950  21.0014740
  45.1971930 107.3120490  19.4916370  45.5162030 106.5211400  36.2542590
  44.7507700 107.0896400  36.1697260  45.6977990 106.2287610  35.3610820
  48.6050440 106.8974630  20.8795350  48.0560540 107.3443930  21.5238090
  49.2269700 106.3923880  21.4033020  44.2725560 105.8565550  22.7760650
  44.6941980 105.6905420  23.6192040  44.3976400 105.0465780  22.2815790
  42.4352980 101.8362100  35.5831630  41.9049440 101.3453050  34.9554970
  43.1041050 102.2646300  35.0489560  46.7853200 104.8803160  20.0237750
  47.3058860 104.1652180  19.6578900  47.4321600 105.5189030  20.3238260
  51.3331040 106.3031560  35.3472820  51.7472060 106.4576640  36.1963240
  50.3982040 106.4286780  35.5098600  48.4310170 103.9868220  34.7006590
  48.5506380 103.3909360  35.4401430  49.2904170 104.0237910  34.2807890
  50.7698070 104.5405410  33.2769100  50.2433290 105.0648030  32.6734240
  51.1129410 105.1732800  33.9078830  43.1684460 101.9298780  19.7218810
  42.9673520 101.0666140  20.0832150  42.9976510 101.8432140  18.7840410
  43.9453690 112.5605050  34.4326480  43.4074780 113.2851110  34.1135180
  44.1987650 112.0835390  33.6423820  41.9667260  99.0299400  19.7096690
  42.2693160  99.0366830  18.8015840  42.7061850  98.6797260  20.2064350
  46.8015900 113.7956260  34.6913130  46.7274600 114.6991400  34.9985500
  45.8994740 113.4768160  34.6635200  45.1852190  97.9734020  20.6952890
  44.8374190  97.2958010  20.1155340  45.3864960  97.5123530  21.5096280
  47.3501230 112.9614770  22.3139490  48.2452020 113.2999740  22.3358250
  47.3818860 112.2394180  21.6863770  40.9897390 108.3341820  20.5426490
  41.4272260 108.8771490  21.1984070  41.4745120 107.5088770  20.5522830
  38.2043190 111.1230850  27.9946750  38.5346200 110.2551910  27.7625390
  38.6334190 111.3289370  28.8251710  38.6933400 111.9901440  30.7328380
  38.2564390 112.1702240  31.5652530  39.2611080 112.7476060  30.5910100
  55.5697030 109.2336260  20.3575400  54.7389990 109.3012910  20.8282630
  55.7468860 110.1240380  20.0542260  55.0253490 105.9783740  22.8609600
  55.7872400 106.5480390  22.9669290  55.0407860 105.4110940  23.6317910
  56.0313460 106.8333840  27.7051530  56.4022290 106.0501160  27.2987500
  56.6715390 107.5222940  27.5268830  53.0147220 108.2170420  33.1181850
  52.2007060 108.6467580  33.3807640  53.4221420 108.8288830  32.5050900
  55.0772660 106.2718110  20.0182120  55.3521500 107.1796990  19.8901340
  54.8883400 106.2080640  20.9544110  54.9738000 104.2087100  25.0111550
  54.5981600 103.4415030  24.5792840  54.2441120 104.5909800  25.4986480
  37.7395910 101.7120600  23.0342590  36.8359990 101.9750800  22.8594250
  38.2236530 101.9831770  22.2542550  54.2488960 102.4344590  28.3118790
  54.7726440 101.9407240  27.6808960  54.8348380 102.5694950  29.0566360
  40.2823120 100.7686140  20.9436970  40.9914820 100.3469360  20.4584250
  39.5663060 100.8361370  20.3120320  39.9297280  96.8225470  19.9839620
  40.6525410  97.3634410  20.3020840  40.2021800  96.5488890  19.1081160
  55.1676090 100.3278890  26.7848880  55.0575370 100.1734930  27.7231150
  55.9283680  99.7999830  26.5424290  53.5141810  96.2673020  33.2431880
  54.1514030  96.8807160  33.6091070  53.6616700  96.3033680  32.2981110
  56.1304850  98.9297470  22.6511730  55.3356350  98.8642590  23.1804640
  56.3348130  99.8648110  22.6397080  53.0723270 112.9689020  26.6450120
  53.6682340 112.6473590  25.9684540  53.3301420 112.4960840  27.4363390
  44.6791870 110.9566520  32.3950470  44.4383230 111.2241080  31.5080990
  45.6194510 111.1272250  32.4501330  55.9396030 112.9760900  33.1961110
  55.4454310 113.3729770  32.4788240  55.3309320 112.3510110  33.5898390
  40.0442110  95.7563530  35.9038330  40.5925100  95.5751580  35.1404440
  40.1097420  94.9657640  36.4394640  40.8173870 112.3469180  33.9138530
  40.2234190 112.2153880  34.6528570  40.8097710 111.5107320  33.4480630
  50.2628890  95.6401410  32.1168560  49.3888730  95.9736520  31.9141490
  50.1539640  95.1674590  32.9420430  53.6235480 113.6184320  30.4747850
  53.1638450 114.3700130  30.1005870  52.9947940 112.8990790  30.4162650
  44.0531200 111.9272560  29.6495980  44.5696220 111.3159920  29.1244240
  44.7028580 112.4301340  30.1406990  46.7926700 112.8181050  30.4764960
  47.0804510 112.5635350  29.5997970  47.3049920 112.2658410  31.0670530
  52.5624780  97.2594350  29.1010560  53.0032870  97.2039450  28.2532160
  52.2932370  98.1752360  29.1720740  54.4263350  96.8909590  27.1119380
  54.3651750  95.9470810  26.9650400  55.2055380  96.9989680  27.6572840
  38.7316100 113.0301950  26.0743330  38.5638140 112.3972630  26.7725220
  37.8650610 113.2361350  25.7237520  39.3544120  96.8618730  23.5775190
  40.1123480  96.9747610  23.0039220  38.8921290  97.6987930  23.5318620
  50.3982910  95.6400450  27.8060570  51.0012280  96.2120660  28.2809090
  49.6575900  96.2039890  27.5834470  40.3378800 111.7235180  23.5193470
  39.8126420 112.1043210  22.8155430  40.2623380 112.3485950  24.2403180
  41.7269270  97.3882780  22.1177160  42.2562030  96.6012580  21.9885110
  42.3597590  98.0673970  22.3512690  43.9207110  97.1257920  25.1722550
  43.2909850  96.4245230  25.3392680  43.3812250  97.8862050  24.9555710
  55.0944120 113.2822720  24.8407410  55.2696310 112.5960460  24.1968330
  54.3965690 113.8069770  24.4484080  42.9371770 113.6717560  22.3942720
  43.6690590 113.3876840  21.8466610  43.1965440 113.4330840  23.2842100
  42.0986560 109.7882290  22.3989050  41.4695440 110.2567390  22.9474880
  42.2134390 108.9431510  22.8335240  53.4276620 112.9667010  37.6674200
  54.2201940 112.4716240  37.4600160  53.7209770 113.6457150  38.2749810
  49.5536280 103.8387950   8.5490250  49.4730330 102.9242560   8.2781960
  49.1400700 104.3355020   7.8429960  47.6854320 105.6166970  10.4299520
  46.9096420 105.1367410  10.7198090  48.3367250 104.9372620  10.2555680
  41.7020150 105.9286780  11.3075280  40.8705030 105.6735490  11.7071790
  42.3101130 105.9997550  12.0433200  51.7061750 110.0227160   9.2098650
  51.2443280 109.2514400   9.5385820  52.5187300 110.0493230   9.7151100
  41.6821410 109.9626870  11.5033300  41.9849450 109.0724610  11.3243520
  42.4265000 110.5197090  11.2755550  40.1112100 100.8888670   5.0917670
  39.2228800 101.2304640   4.9897550  40.3953290 100.6888990   4.1998500
  38.0745110 103.4894320  10.9757370  38.6461220 102.7216520  10.9761010
  38.0746650 103.7883080  10.0663980  47.9325060 112.3085170   8.8302640
  47.3136500 112.7642670   8.2597080  48.7876840 112.4636630   8.4292340
  47.1263310 108.2924160  10.4369680  47.0571590 107.3514100  10.2758810
  47.8883170 108.3825570  11.0092250  39.3169980  98.8978680  12.7626300
  39.1372820  98.0004430  13.0429060  38.9150060  99.4450550  13.4373250
  48.1568480 101.0994540  10.6638610  48.5333300 100.2266420  10.5512280
  48.0587990 101.4353240   9.7729050  42.2873490  99.4720170   6.1256050
  42.3940240 100.3723900   6.4324810  41.3765850  99.4238140   5.8350700
  51.9392600  98.5944980   7.5966950  52.7602220  98.1041550   7.6392430
  51.9726680  99.1842640   8.3498790  39.9356650 101.3939180  11.3708640
  40.6166760 101.6577550  11.9896040  39.6204700 100.5540050  11.7046650
  44.1281220 102.4406540  10.4581230  44.6359440 102.9387510  11.0986250
  44.6594460 101.6641740  10.2820590  56.2292150 100.6111730  14.1610580
  55.5244320 100.9993440  13.6425690  56.4950070 101.3062020  14.7631510
  42.4117320  97.0805100  14.7244650  42.4135760  97.5977490  13.9190550
  41.5821630  96.6035280  14.7014580  48.7988410 107.1924410   6.2234550
  48.1805680 107.6573860   5.6597270  49.3111660 107.8851890   6.6404060
  43.6620170 106.7200280  12.9018150  43.3289550 107.3469200  13.5439220
  43.8386850 107.2462160  12.1219820  52.1754080 100.5345360  10.3694490
  51.4709650 100.8230250  10.9497600  52.5366240 101.3445470  10.0094050
  42.0932650  98.7915060  12.7315100  42.4349460  99.6357110  12.4368970
  41.1548460  98.9398800  12.8480440  42.8739270 108.6881080  14.7167330
  43.4913270 109.3632160  14.4351780  42.0132390 109.0969060  14.6254830
  38.1671610 107.8780940   3.5974180  37.7899590 108.3668040   2.8659080
  38.4244680 108.5506220   4.2280710  53.7916860 110.1520490  12.6321970
  53.1080380 110.8219600  12.6238640  54.3311150 110.3501140  11.8666830
  55.2441000  99.9800150  10.7603700  54.2965910 100.0139130  10.8919130
  55.5690990 100.7939100  11.1453060  45.7760540  96.2797330   9.0559690
  46.0835520  95.7244220   8.3395190  44.8461240  96.4141790   8.8732680
  51.3275600 111.9964620  11.3467150  51.3402760 111.5926910  10.4789410
  50.7750820 112.7711910  11.2428580  52.6221020 108.7180840   6.4357320
  52.5117350 107.7755170   6.5606740  52.6189270 109.0796480   7.3220080
  50.7261040 106.8994460  12.6749760  51.1429830 106.6854570  11.8403220
  51.4500860 107.1567250  13.2458380  48.1641300 104.3446160   5.7919810
  47.2370580 104.2783540   6.0208280  48.3166120 105.2826290   5.6775050
  48.1510380 100.6163160   2.7886970  47.2114050 100.7777120   2.8739430
  48.4693640 101.3348840   2.2422960  54.6723140 105.2981680  12.7666000
  53.8441770 105.3674770  12.2916130  55.2673620 105.8835990  12.2981830
  52.1938590 105.9066460   6.2955060  51.5751010 105.5686010   5.6481360
  52.1763040 105.2626220   7.0034250  51.6365150 102.0851000  13.7120870
  51.2236330 102.9104710  13.9660860  50.9041100 101.4996040  13.5197230
  43.7697940 104.8710900   8.5739540  43.3654940 104.1588150   8.0785440
  43.8561060 104.5264140   9.4627580  44.2379640 108.5578460  10.7378750
  43.9407930 107.9523930  10.0586530  45.1879460 108.5955770  10.6268110
  42.4826560 101.6454110  12.3538580  43.0341150 101.7549450  11.5791830
  42.9970070 102.0191710  13.0693810  52.3265250 112.1310330  14.4001850
  51.8495810 112.9382520  14.2074460  51.6427040 111.4788660  14.5528060
  43.3298070 108.2960150  17.3886550  42.4326600 108.5200120  17.6359950
  43.3550940 108.4195090  16.4397950  50.3703290 105.1453270   3.3027810
  50.8096570 104.3075700   3.1565630  51.0831710 105.7782670   3.3891950
  42.1569290 105.1673470  15.9643920  42.0177060 106.0396270  16.3331320
  41.2750650 104.8246280  15.8191860  48.4798670 110.0849340   7.2709050
  48.9194580 110.8273670   6.8564440  48.4185560 110.3275910   8.1948010
  43.9549640 111.1095170  18.1729070  43.9265070 111.5138120  17.3057500
  43.7914610 110.1805530  18.0100670  40.4702570 103.7655880   6.0746190
  40.3500170 104.4917970   5.4627460  40.1603460 102.9958790   5.5974100
  55.9064460 111.8922270  19.4693240  56.3824180 112.3705160  20.1482320
  56.5271620 111.8239760  18.7438740  38.1087940 106.9371020  11.8814830
  38.1868360 107.0719790  10.9370550  38.7229620 106.2286910  12.0742950
  39.3535570 108.6371210   8.2921010  38.9463650 108.7785800   7.4374610
  40.2448580 108.3531370   8.0892220  55.3097710 109.0835120  16.6293250
  55.4360770 108.8447000  15.7110430  55.3519090 108.2519660  17.1015330
  49.1714450 112.7863120  15.1988060  49.6859120 112.6971130  16.0010490
  48.3283530 113.1322820  15.4915970  51.1468850 113.0718460   4.6272060
  50.9869990 112.7821400   5.5253890  50.9815560 112.2958590   4.0917290
  43.6257230 112.8516990   6.4043680  43.4499710 111.9352530   6.1911480
  42.7712970 113.2104280   6.6441480  50.8494980 110.5806020   3.1870060
  50.1560140 110.5783310   2.5272340  51.5917840 110.1565340   2.7564230
  50.4144910 112.2068730   7.2618550  50.8701860 111.4258110   7.5757170
  50.7537430 112.9175550   7.8059730  55.1621720 101.1367580  17.5942990
  54.5465990 101.6447250  17.0658450  54.8418140 100.2365910  17.5368930
  38.1647460 107.9785190  14.4209290  38.3278500 107.5090550  13.6028660
  38.6299910 107.4708750  15.0858130  42.9366230  97.1090950   9.4569860
  42.4934380  97.8900490   9.1254380  43.4951220  97.4320840  10.1640800
  47.2236040  99.9759470  15.0605180  46.7615410 100.1842490  15.8725120
  46.8214150  99.1618820  14.7575850  52.2240550 101.1968420  16.1901840
  51.3734140 100.8974170  16.5110910  52.0642340 101.4410430  15.2785660
  46.0525050  96.7301650   4.3375690  45.4279230  96.7261520   5.0629000
  45.9655170  95.8632610   3.9411660  44.9742130  97.6538280  11.3159460
  45.2714460  98.5601110  11.2351480  45.5227690  97.1657060  10.7019030
  42.7280450 102.2324520   7.1851110  42.5021370 102.0161690   8.0897730
  41.9472980 102.6652980   6.8397080  49.9578210 102.2387890   5.7841760
  49.3587100 102.9623690   5.6005380  50.5057820 102.1764670   5.0018210
  45.1679660 103.1310100  17.8511380  45.0723260 102.1904830  17.7011780
  46.0111640 103.3525170  17.4559450  48.5643080 100.8751430   7.8145040
  48.9572650 101.1923630   7.0013730  48.9259930  99.9963310   7.9289560
  40.2990200  99.5423770  16.0045160  39.9053590 100.3898980  16.2117940
  39.6108600  98.9050140  16.1953800  46.8735250  99.6258740  19.0741900
  46.1833570  99.4330940  19.7087990  47.6167550  99.9093380  19.6066200
  37.6007250  97.4652230  10.0375240  37.3120300  98.0355090  10.7500220
  38.3453010  96.9856680  10.4006470  49.1498220 103.4657180  11.9095820
  48.4179340 103.9743990  12.2585920  48.7522560 102.6487160  11.6084600
  45.5875610 100.1411380  10.3148310  45.5911670  99.7001330   9.4652850
  46.4826730 100.4628710  10.4220130  41.4377990 100.0237870   9.2742520
  41.0978040 100.5013100  10.0309570  40.6755310  99.5702990   8.9143620
  45.6495760 101.1423460   3.3055070  45.7708580 101.1009940   4.2540890
  45.2644270 102.0047610   3.1501800  49.6124130  98.9190860  11.3218760
  49.6296870  99.3699510  12.1660610  49.3639710  98.0196500  11.5352200
  44.6617260 103.4524600   2.7038370  44.0934160 103.0042850   2.0774280
  45.3706260 103.8117380   2.1703520  39.7386440 107.3536620  16.5805100
  39.3541230 106.7130290  17.1788060  40.0498630 108.0572740  17.1499830
  45.8883580 104.2013160  12.0613720  46.2553710 103.7271730  12.8075060
  45.6988640 105.0754730  12.4022060  38.7524070  98.9456850   8.1907190
  38.4670990  98.5812520   9.0285810  38.6902930  98.2137310   7.5770330
  43.6782950 103.2421800  14.3797930  43.3740020 104.1213780  14.6048290
  44.6329410 103.3021590  14.4155370  42.2064740 107.4482790   4.9764780
  41.4327000 106.9080410   4.8163500  42.9359370 106.9289400   4.6382540
  52.9652720 106.4448150  10.7691170  53.6851840 106.9403440  10.3787280
  52.7634540 105.7666040  10.1245040  48.4262660  97.8386110   4.9120560
  47.6127270  97.3399280   4.8365870  48.2324610  98.6784360   4.4956910
  48.3471520 106.5157210  16.6560170  48.2808830 105.5952880  16.4017760
  47.7176660 106.6132650  17.3704810  51.1411050 102.2105760   3.2082720
  52.0290670 102.5222990   3.0334060  51.1116140 101.3378010   2.8163300
  42.2502140 107.1163170   8.6143590  42.7680810 106.3131430   8.5600480
  41.7986160 107.0542310   9.4560420  47.1371640 108.3829450   3.8870890
  47.4787340 109.1271680   3.3914210  46.3084350 108.6960570   4.2495720
  39.7346680 104.0824540  15.5269290  39.3761620 104.7478390  16.1142630
  39.4401240 103.2508090  15.8981910  42.9359800 104.5408780  18.4108840
  42.6359940 104.6865960  17.5136660  43.7071040 103.9814070  18.3182230
  48.2788250 109.3377780  16.4063970  48.2932790 108.4058740  16.1882880
  47.5713350 109.4237540  17.0453740  53.4125320 103.5217600   2.6762580
  53.3289040 103.9531820   1.8259020  54.1319510 103.9815950   3.1089400
  54.4899460 105.9785120  15.7532550  53.7647650 106.5713900  15.5561940
  55.0174920 105.9708660  14.9545920  54.4412570 110.3759860   5.4044710
  53.7988730 109.7215480   5.6788430  54.0543230 110.7814950   4.6285380
  50.0199050 107.7045290   9.2516400  50.3722870 107.1073420   8.5917770
  49.1361380 107.3789520   9.4224650  46.1062330 108.4642980   6.6586810
  46.7933460 109.0112190   7.0394400  45.3194750 109.0083710   6.6936420
  38.2454730 104.0815800   2.1503890  39.1149580 104.3640600   2.4339810
  37.7545050 104.8951670   2.0352700  45.4089540 105.4689010   6.2712170
  45.8652320 106.2794260   6.4972360  45.0577750 105.1512150   7.1030660
  47.7122150 110.9795350  13.5004470  48.3564370 111.1854730  14.1777890
  48.0751590 110.2183750  13.0475320  41.3101320  95.8126660   6.7434690
  41.1815950  95.8044560   7.6919610  40.4863340  96.1509750   6.3925700
  48.9854230 108.9827700  12.2181920  49.6276460 108.2820860  12.3314090
  49.5103580 109.7626140  12.0378810  50.7591850 109.7822600  15.4217980
  51.0948090 110.3689290  16.0995900  49.8392190 109.6515310  15.6515770
  38.6125980 113.2943180   2.7165520  38.9723620 113.8932520   2.0622790
  38.4718320 113.8403070   3.4900550  38.3095250  97.5717780  16.2041390
  37.5953770  97.7714700  16.8094000  38.7290290  96.7957350  16.5756190
  52.4126200 107.1848260   3.6035220  52.1247900 107.6460950   4.3913100
  53.2078370 106.7246030   3.8719440  38.5967840 111.5598040  17.1907920
  38.7058960 110.6192780  17.0503310  37.9448400 111.8252790  16.5421650
  46.5880430 109.8313930  18.5906040  46.2677300 109.1123170  19.1351730
  45.9138790 110.5069000  18.6642100  44.6294600 110.6774380   3.5339190
  44.6204700 111.4104070   2.9183700  43.7092960 110.4305960   3.6266150
  40.2301240 105.8989270   4.2785950  39.6229190 106.6388170   4.2881250
  40.7050590 105.9888630   3.4524150  49.8034030 100.0640090  13.9542840
  50.1714850  99.2435300  14.2822410  48.9432230 100.1241980  14.3698490
  53.1696060  99.0197030   4.7630400  52.5409220  99.1242700   4.0488630
  52.6747980  99.2393810   5.5524280  45.1380090 101.2982980   6.1788280
  44.4296240 101.7669320   6.6201890  45.4224570 100.6404990   6.8133470
  46.7636020 102.7179680  14.1780810  47.2621270 103.1925500  14.8432660
  46.9058970 101.7943200  14.3850840  49.1695520  98.0233640   7.6184070
  49.0463300  98.0419770   6.6693580  50.1180080  98.0712580   7.7382470
  46.2572310 113.2588940   6.8912050  46.5113810 113.2210330   5.9691420
  45.3084790 113.1322270   6.8840300  43.3415110  99.6068060   3.5538990
  44.1905640 100.0438210   3.4879180  42.9746380  99.9188320   4.3811050
  53.9702880  98.9347640  15.0209200  53.4676480  99.6753040  15.3603010
  54.7859540  99.3231640  14.7045990  52.2624890 104.1780820   8.4670560
  51.3215030 104.1931050   8.6418250  52.5768960 103.3916780   8.9130860
  40.9353290 103.2925490   2.7107410  41.0156880 102.3453000   2.8224810
  41.8273040 103.6232370   2.8168070  54.2650470 111.3489670  10.1424820
  54.3897890 112.1720840  10.6148630  55.1316030 111.1380400   9.7948970
  41.7368000 113.4420880   9.8141950  42.4730480 112.8936340  10.0850520
  42.1208920 114.3076890   9.6747940  38.6213480 109.5094450   5.6883460
  37.6953260 109.7515590   5.6788870  39.0869910 110.3368710   5.5668210
  40.7426280 112.6266950  19.0027530  41.5439010 112.9479000  19.4162930
  40.2278100 112.2662530  19.7247440  49.5790910 108.7346820  18.9502940
  48.9729070 108.7578420  18.2098690  49.2745020 108.0029860  19.4870190
  51.0091280 112.4627110  17.5612350  51.9613030 112.3785130  17.5112590
  50.8619500 113.1268820  18.2346140  53.9000480 111.8421320   3.0604260
  53.6141990 111.4286460   2.2458440  53.7020030 112.7709030   2.9404780
  38.4624090 105.1140410  17.9463580  38.9663110 104.5347690  18.5179810
  37.7231510 105.3980640  18.4839950  45.5162030 106.5211400  17.4799100
  44.7507700 107.0896400  17.3953770  45.6977990 106.2287610  16.5867330
  48.6050440 106.8974630   2.1051860  48.0560540 107.3443930   2.7494600
  49.2269700 106.3923880   2.6289530  52.6585380 108.2516730  18.0374120
  53.3994850 108.5892490  17.5341580  51.8958060 108.4208790  17.4843890
  40.4947170 103.2570000  18.8413650  40.5352510 102.9583870  19.7498880
  41.3492670 103.6577610  18.6821170  44.2725560 105.8565550   4.0017160
  44.6941980 105.6905420   4.8448550  44.3976400 105.0465780   3.5072300
  42.4352980 101.8362100  16.8088140  41.9049440 101.3453050  16.1811480
  43.1041050 102.2646300  16.2746070  51.3331040 106.3031560  16.5729330
  51.7472060 106.4576640  17.4219750  50.3982040 106.4286780  16.7355110
  51.8053210 103.6427720  18.5768480  52.3873980 102.8880040  18.4888960
  51.9814980 104.1735160  17.7999960  42.9225280  98.8024470  16.8885430
  42.8282150  98.1845220  16.1636300  42.3422670  99.5290760  16.6615340
  45.6886720  97.3597710  13.9212820  45.2404020  97.3821970  13.0758370
  45.0551920  96.9616730  14.5183120  46.0946270 106.2552040  14.5425260
  46.5134380 107.0984770  14.3701500  45.1754900 106.3924080  14.3132040
  48.4310170 103.9868220  15.9263100  48.5506380 103.3909360  16.6657940
  49.2904170 104.0237910  15.5064400  50.7698070 104.5405410  14.5025610
  50.2433290 105.0648030  13.8990750  51.1129410 105.1732800  15.1335340
  43.9453690 112.5605050  15.6582990  43.4074780 113.2851110  15.3391690
  44.1987650 112.0835390  14.8680330  45.1978940 100.5289570  17.1838920
  45.7878630 100.2205420  17.8716740  44.3799180 100.0569320  17.3398820
  50.0172370 100.1455380  17.4171940  49.3287890  99.4836920  17.3521930
  50.7378390  99.6993650  17.8620400  50.6472770  96.7407010   3.4762200
  50.9275060  95.8974910   3.8321620  49.8738500  96.9730120   3.9900950
  46.8015900 113.7956260  15.9169640  46.7274600 114.6991400  16.2242010
  45.8994740 113.4768160  15.8891710  47.3501230 112.9614770   3.5396000
  48.2452020 113.2999740   3.5614760  47.3818860 112.2394180   2.9120280
  40.9897390 108.3341820   1.7683000  41.4272260 108.8771490   2.4240580
  41.4745120 107.5088770   1.7779340  38.2043190 111.1230850   9.2203260
  38.5346200 110.2551910   8.9881900  38.6334190 111.3289370  10.0508220
  42.8005110 109.4539860   6.8805230  42.5000650 109.3304830   7.7809140
  42.6942600 108.5948450   6.4720960  38.6933400 111.9901440  11.9584890
  38.2564390 112.1702240  12.7909040  39.2611080 112.7476060  11.8166610
  54.3295580 111.4918440  16.2462200  53.7297570 111.5511000  15.5026120
  54.4589480 110.5523420  16.3759050  55.0253490 105.9783740   4.0866110
  55.7872400 106.5480390   4.1925800  55.0407860 105.4110940   4.8574420
  38.5257830 104.5021670   8.3173770  37.8706670 104.2333310   7.6733470
  39.3635780 104.3926150   7.8675750  56.0313460 106.8333840   8.9308040
  56.4022290 106.0501160   8.5244010  56.6715390 107.5222940   8.7525340
  53.0147220 108.2170420  14.3438360  52.2007060 108.6467580  14.6064150
  53.4221420 108.8288830  13.7307410  51.4748270  99.2962960   2.5392260
  51.8933150  99.1093940   1.6988920  51.1684330  98.4442010   2.8495190
  54.9738000 104.2087100   6.2368060  54.5981600 103.4415030   5.8049350
  54.2441120 104.5909800   6.7242990  39.5633760 104.8874240  12.8577110
  39.9306800 104.8001640  13.7373130  38.9944580 104.1240790  12.7583970
  54.3637620 103.3558620  15.8707580  54.1323710 103.1271370  14.9705530
  54.6242170 104.2758170  15.8252470  39.1149760 101.7983330  16.7635530
  38.2205810 101.7650090  17.1029240  39.6547310 101.9970120  17.5286780
  37.7395910 101.7120600   4.2599100  36.8359990 101.9750800   4.0850760
  38.2236530 101.9831770   3.4799060  54.2488960 102.4344590   9.5375300
  54.7726440 101.9407240   8.9065470  54.8348380 102.5694950  10.2822870
  54.4278680 102.5184460  13.0594850  53.4781390 102.4848000  13.1739840
  54.6091690 103.4284570  12.8244620  53.7388930 101.6917940   5.4767710
  54.2348050 101.4588810   6.2616590  53.5405000 100.8529780   5.0605350
  39.6189470  96.0731660  11.1118750  40.2665660  95.5229040  10.6713910
  40.0391310  96.3274810  11.9334560  55.1676090 100.3278890   8.0105390
  55.0575370 100.1734930   8.9487660  55.9283680  99.7999830   7.7680800
  53.5141810  96.2673020  14.4688390  54.1514030  96.8807160  14.8347580
  53.6616700  96.3033680  13.5237620  56.1304850  98.9297470   3.8768240
  55.3356350  98.8642590   4.4061150  56.3348130  99.8648110   3.8653590
  53.0723270 112.9689020   7.8706630  53.6682340 112.6473590   7.1941050
  53.3301420 112.4960840   8.6619900  39.3721470  96.2287330  13.8544070
  39.0236290  96.6851150  14.6202250  39.0409170  95.3344460  13.9366500
  40.9785840 109.4006930  18.0197260  40.9355470 109.0299840  18.9011720
  41.1096850 110.3384500  18.1599080  44.6791870 110.9566520  13.6206980
  44.4383230 111.2241080  12.7337500  45.6194510 111.1272250  13.6757840
  46.8846290  97.4199210  17.3763490  46.8235180  98.0121040  18.1258900
  47.8246670  97.3125170  17.2313750  49.5220850  97.0769270  17.0155780
  50.1361260  97.3948560  16.3536860  50.0670410  96.5917860  17.6351640
  55.9396030 112.9760900  14.4217620  55.4454310 113.3729770  13.7044750
  55.3309320 112.3510110  14.8154900  40.0442110  95.7563530  17.1294840
  40.5925100  95.5751580  16.3660950  40.1097420  94.9657640  17.6651150
  40.8173870 112.3469180  15.1395040  40.2234190 112.2153880  15.8785080
  40.8097710 111.5107320  14.6737140  50.2628890  95.6401410  13.3425070
  49.3888730  95.9736520  13.1398000  50.1539640  95.1674590  14.1676940
  51.1700870  97.8472280  14.7266790  50.8414230  97.0324040  14.3468520
  52.1183170  97.8042090  14.6032480  53.6235480 113.6184320  11.7004360
  53.1638450 114.3700130  11.3262380  52.9947940 112.8990790  11.6419160
  40.4486100 109.7127560  14.0903080  39.7220160 109.0932850  14.0229030
  40.5095250 110.1068170  13.2201160  44.0531200 111.9272560  10.8752490
  44.5696220 111.3159920  10.3500750  44.7028580 112.4301340  11.3663500
  46.7926700 112.8181050  11.7021470  47.0804510 112.5635350  10.8254480
  47.3049920 112.2658410  12.2927040  48.0103710  96.5571250  12.2817980
  47.2275500  97.0316750  12.5614740  47.7166640  95.6526080  12.1731160
  52.5624780  97.2594350  10.3267070  53.0032870  97.2039450   9.4788670
  52.2932370  98.1752360  10.3977250  54.4263350  96.8909590   8.3375890
  54.3651750  95.9470810   8.1906910  55.2055380  96.9989680   8.8829350
  38.7316100 113.0301950   7.2999840  38.5638140 112.3972630   7.9981730
  37.8650610 113.2361350   6.9494030  39.3544120  96.8618730   4.8031700
  40.1123480  96.9747610   4.2295730  38.8921290  97.6987930   4.7575130
  45.8957930  98.9758000   7.7934010  45.0832440  98.6014890   7.4529890
  46.3999570  98.2203080   8.0955200  50.3982910  95.6400450   9.0317080
  51.0012280  96.2120660   9.5065600  49.6575900  96.2039890   8.8090980
  53.5417510  96.0422010   4.3057360  53.7368140  96.9405460   4.5724790
  52.7547380  95.8109090   4.7990310  40.3378800 111.7235180   4.7449980
  39.8126420 112.1043210   4.0411940  40.2623380 112.3485950   5.4659690
  41.7269270  97.3882780   3.3433670  42.2562030  96.6012580   3.2141620
  42.3597590  98.0673970   3.5769200  43.9207110  97.1257920   6.3979060
  43.2909850  96.4245230   6.5649190  43.3812250  97.8862050   6.1812220
  46.8599060 113.7397150  19.0689670  47.7866370 113.5041420  19.1125630
  46.8449490 114.5669150  18.5875700  55.0944120 113.2822720   6.0663920
  55.2696310 112.5960460   5.4224840  54.3965690 113.8069770   5.6740590
  44.0462670  96.4041900  18.8331550  43.7646940  96.9075500  18.0692370
  44.4282370  95.6063650  18.4673680  42.9371770 113.6717560   3.6199230
  43.6690590 113.3876840   3.0723120  43.1965440 113.4330840   4.5098610
  42.0986560 109.7882290   3.6245560  41.4695440 110.2567390   4.1731390
  42.2134390 108.9431510   4.0591750  53.4276620 112.9667010  18.8930710
  54.2201940 112.4716240  18.6856670  53.7209770 113.6457150  19.5006320
  49.5536280  85.0644460 139.9694680  49.4730330  84.1499070 139.6986390
  49.1400700  85.5611530 139.2634390  47.6854320  86.8423480 141.8503950
  46.9096420  86.3623920 142.1402520  48.3367250  86.1629130 141.6760110
  41.7020150  87.1543290 142.7279710  40.8705030  86.8992000 143.1276220
  42.3101130  87.2254060 143.4637630  51.7061750  91.2483670 140.6303080
  51.2443280  90.4770910 140.9590250  52.5187300  91.2749740 141.1355530
  41.6821410  91.1883380 142.9237730  41.9849450  90.2981120 142.7447950
  42.4265000  91.7453600 142.6959980  40.1112100  82.1145180 136.5122100
  39.2228800  82.4561150 136.4101980  40.3953290  81.9145500 135.6202930
  38.0745110  84.7150830 142.3961800  38.6461220  83.9473030 142.3965440
  38.0746650  85.0139590 141.4868410  47.9325060  93.5341680 140.2507070
  47.3136500  93.9899180 139.6801510  48.7876840  93.6893140 139.8496770
  47.1263310  89.5180670 141.8574110  47.0571590  88.5770610 141.6963240
  47.8883170  89.6082080 142.4296680  39.3169980  80.1235190 144.1830730
  39.1372820  79.2260940 144.4633490  38.9150060  80.6707060 144.8577680
  48.1568480  82.3251050 142.0843040  48.5333300  81.4522930 141.9716710
  48.0587990  82.6609750 141.1933480  42.2873490  80.6976680 137.5460480
  42.3940240  81.5980410 137.8529240  41.3765850  80.6494650 137.2555130
  51.9392600  79.8201490 139.0171380  52.7602220  79.3298060 139.0596860
  51.9726680  80.4099150 139.7703220  39.9356650  82.6195690 142.7913070
  40.6166760  82.8834060 143.4100470  39.6204700  81.7796560 143.1251080
  44.1281220  83.6663050 141.8785660  44.6359440  84.1644020 142.5190680
  44.6594460  82.8898250 141.7025020  56.2292150  81.8368240 145.5815010
  55.5244320  82.2249950 145.0630120  56.4950070  82.5318530 146.1835940
  42.4117320  78.3061610 146.1449080  42.4135760  78.8234000 145.3394980
  41.5821630  77.8291790 146.1219010  48.7988410  88.4180920 137.6438980
  48.1805680  88.8830370 137.0801700  49.3111660  89.1108400 138.0608490
  43.6620170  87.9456790 144.3222580  43.3289550  88.5725710 144.9643650
  43.8386850  88.4718670 143.5424250  52.1754080  81.7601870 141.7898920
  51.4709650  82.0486760 142.3702030  52.5366240  82.5701980 141.4298480
  42.0932650  80.0171570 144.1519530  42.4349460  80.8613620 143.8573400
  41.1548460  80.1655310 144.2684870  42.8739270  89.9137590 146.1371760
  43.4913270  90.5888670 145.8556210  42.0132390  90.3225570 146.0459260
  38.1671610  89.1037450 135.0178610  37.7899590  89.5924550 134.2863510
  38.4244680  89.7762730 135.6485140  53.7916860  91.3777000 144.0526400
  53.1080380  92.0476110 144.0443070  54.3311150  91.5757650 143.2871260
  55.2441000  81.2056660 142.1808130  54.2965910  81.2395640 142.3123560
  55.5690990  82.0195610 142.5657490  45.7760540  77.5053840 140.4764120
  46.0835520  76.9500730 139.7599620  44.8461240  77.6398300 140.2937110
  51.3275600  93.2221130 142.7671580  51.3402760  92.8183420 141.8993840
  50.7750820  93.9968420 142.6633010  52.6221020  89.9437350 137.8561750
  52.5117350  89.0011680 137.9811170  52.6189270  90.3052990 138.7424510
  50.7261040  88.1250970 144.0954190  51.1429830  87.9111080 143.2607650
  51.4500860  88.3823760 144.6662810  48.1641300  85.5702670 137.2124240
  47.2370580  85.5040050 137.4412710  48.3166120  86.5082800 137.0979480
  54.6723140  86.5238190 144.1870430  53.8441770  86.5931280 143.7120560
  55.2673620  87.1092500 143.7186260  52.1938590  87.1322970 137.7159490
  51.5751010  86.7942520 137.0685790  52.1763040  86.4882730 138.4238680
  51.6365150  83.3107510 145.1325300  51.2236330  84.1361220 145.3865290
  50.9041100  82.7252550 144.9401660  43.7697940  86.0967410 139.9943970
  43.3654940  85.3844660 139.4989870  43.8561060  85.7520650 140.8832010
  44.2379640  89.7834970 142.1583180  43.9407930  89.1780440 141.4790960
  45.1879460  89.8212280 142.0472540  42.4826560  82.8710620 143.7743010
  43.0341150  82.9805960 142.9996260  42.9970070  83.2448220 144.4898240
  52.3265250  93.3566840 145.8206280  51.8495810  94.1639030 145.6278890
  51.6427040  92.7045170 145.9732490  43.3298070  89.5216660 148.8090980
  42.4326600  89.7456630 149.0564380  43.3550940  89.6451600 147.8602380
  50.3703290  86.3709780 134.7232240  50.8096570  85.5332210 134.5770060
  51.0831710  87.0039180 134.8096380  42.1569290  86.3929980 147.3848350
  42.0177060  87.2652780 147.7535750  41.2750650  86.0502790 147.2396290
  48.4798670  91.3105850 138.6913480  48.9194580  92.0530180 138.2768870
  48.4185560  91.5532420 139.6152440  43.9549640  92.3351680 149.5933500
  43.9265070  92.7394630 148.7261930  43.7914610  91.4062040 149.4305100
  40.4702570  84.9912390 137.4950620  40.3500170  85.7174480 136.8831890
  40.1603460  84.2215300 137.0178530  38.1087940  88.1627530 143.3019260
  38.1868360  88.2976300 142.3574980  38.7229620  87.4543420 143.4947380
  39.3535570  89.8627720 139.7125440  38.9463650  90.0042310 138.8579040
  40.2448580  89.5787880 139.5096650  55.3097710  90.3091630 148.0497680
  55.4360770  90.0703510 147.1314860  55.3519090  89.4776170 148.5219760
  49.1714450  94.0119630 146.6192490  49.6859120  93.9227640 147.4214920
  48.3283530  94.3579330 146.9120400  51.1468850  94.2974970 136.0476490
  50.9869990  94.0077910 136.9458320  50.9815560  93.5215100 135.5121720
  43.6257230  94.0773500 137.8248110  43.4499710  93.1609040 137.6115910
  42.7712970  94.4360790 138.0645910  50.8494980  91.8062530 134.6074490
  50.1560140  91.8039820 133.9476770  51.5917840  91.3821850 134.1768660
  50.4144910  93.4325240 138.6822980  50.8701860  92.6514620 138.9961600
  50.7537430  94.1432060 139.2264160  55.1621720  82.3624090 149.0147420
  54.5465990  82.8703760 148.4862880  54.8418140  81.4622420 148.9573360
  38.1647460  89.2041700 145.8413720  38.3278500  88.7347060 145.0233090
  38.6299910  88.6965260 146.5062560  42.9366230  78.3347460 140.8774290
  42.4934380  79.1157000 140.5458810  43.4951220  78.6577350 141.5845230
  47.2236040  81.2015980 146.4809610  46.7615410  81.4099000 147.2929550
  46.8214150  80.3875330 146.1780280  52.2240550  82.4224930 147.6106270
  51.3734140  82.1230680 147.9315340  52.0642340  82.6666940 146.6990090
  49.3190260  83.9226680 149.7105060  49.6443670  83.0890430 149.3707290
  50.1070590  84.4455200 149.8583390  46.0525050  77.9558160 135.7580120
  45.4279230  77.9518030 136.4833430  45.9655170  77.0889120 135.3616090
  44.9742130  78.8794790 142.7363890  45.2714460  79.7857620 142.6555910
  45.5227690  78.3913570 142.1223460  42.7280450  83.4581030 138.6055540
  42.5021370  83.2418200 139.5102160  41.9472980  83.8909490 138.2601510
  49.9578210  83.4644400 137.2046190  49.3587100  84.1880200 137.0209810
  50.5057820  83.4021180 136.4222640  45.1679660  84.3566610 149.2715810
  45.0723260  83.4161340 149.1216210  46.0111640  84.5781680 148.8763880
  48.5643080  82.1007940 139.2349470  48.9572650  82.4180140 138.4218160
  48.9259930  81.2219820 139.3493990  40.2990200  80.7680280 147.4249590
  39.9053590  81.6155490 147.6322370  39.6108600  80.1306650 147.6158230
  37.6007250  78.6908740 141.4579670  37.3120300  79.2611600 142.1704650
  38.3453010  78.2113190 141.8210900  37.7877480  82.6328860 132.6682390
  37.7052150  83.5759620 132.8097380  37.4360540  82.4903770 131.7894740
  49.1498220  84.6913690 143.3300250  48.4179340  85.2000500 143.6790350
  48.7522560  83.8743670 143.0289030  45.5875610  81.3667890 141.7352740
  45.5911670  80.9257840 140.8857280  46.4826730  81.6885220 141.8424560
  41.4377990  81.2494380 140.6946950  41.0978040  81.7269610 141.4514000
  40.6755310  80.7959500 140.3348050  45.6495760  82.3679970 134.7259500
  45.7708580  82.3266450 135.6745320  45.2644270  83.2304120 134.5706230
  49.6124130  80.1447370 142.7423190  49.6296870  80.5956020 143.5865040
  49.3639710  79.2453010 142.9556630  44.6617260  84.6781110 134.1242800
  44.0934160  84.2299360 133.4978710  45.3706260  85.0373890 133.5907950
  53.0394880  77.5579550 148.5809570  53.3640650  76.8269210 149.1067550
  53.0751390  77.2393190 147.6790560  39.7386440  88.5793130 148.0009530
  39.3541230  87.9386800 148.5992490  40.0498630  89.2829250 148.5704260
  45.8883580  85.4269670 143.4818150  46.2553710  84.9528240 144.2279490
  45.6988640  86.3011240 143.8226490  38.7524070  80.1713360 139.6111620
  38.4670990  79.8069030 140.4490240  38.6902930  79.4393820 138.9974760
  43.6782950  84.4678310 145.8002360  43.3740020  85.3470290 146.0252720
  44.6329410  84.5278100 145.8359800  42.2064740  88.6739300 136.3969210
  41.4327000  88.1336920 136.2367930  42.9359370  88.1545910 136.0586970
  52.9652720  87.6704660 142.1895600  53.6851840  88.1659950 141.7991710
  52.7634540  86.9922550 141.5449470  48.4262660  79.0642620 136.3324990
  47.6127270  78.5655790 136.2570300  48.2324610  79.9040870 135.9161340
  48.3471520  87.7413720 148.0764600  48.2808830  86.8209390 147.8222190
  47.7176660  87.8389160 148.7909240  42.2502140  88.3419680 140.0348020
  42.7680810  87.5387940 139.9804910  41.7986160  88.2798820 140.8764850
  47.1371640  89.6085960 135.3075320  47.4787340  90.3528190 134.8118640
  46.3084350  89.9217080 135.6700150  39.7346680  85.3081050 146.9473720
  39.3761620  85.9734900 147.5347060  39.4401240  84.4764600 147.3186340
  42.9359800  85.7665290 149.8313270  42.6359940  85.9122470 148.9341090
  43.7071040  85.2070580 149.7386660  48.2788250  90.5634290 147.8268400
  48.2932790  89.6315250 147.6087310  47.5713350  90.6494050 148.4658170
  53.4125320  84.7474110 134.0967010  53.3289040  85.1788330 133.2463450
  54.1319510  85.2072460 134.5293830  54.4899460  87.2041630 147.1736980
  53.7647650  87.7970410 146.9766370  55.0174920  87.1965170 146.3750350
  54.4412570  91.6016370 136.8249140  53.7988730  90.9471990 137.0992860
  54.0543230  92.0071460 136.0489810  50.0199050  88.9301800 140.6720830
  50.3722870  88.3329930 140.0122200  49.1361380  88.6046030 140.8429080
  46.1062330  89.6899490 138.0791240  46.7933460  90.2368700 138.4598830
  45.3194750  90.2340220 138.1140850  38.2454730  85.3072310 133.5708320
  39.1149580  85.5897110 133.8544240  37.7545050  86.1208180 133.4557130
  45.4089540  86.6945520 137.6916600  45.8652320  87.5050770 137.9176790
  45.0577750  86.3768660 138.5235090  47.7122150  92.2051860 144.9208900
  48.3564370  92.4111240 145.5982320  48.0751590  91.4440260 144.4679750
  41.3101320  77.0383170 138.1639120  41.1815950  77.0301070 139.1124040
  40.4863340  77.3766260 137.8130130  48.9854230  90.2084210 143.6386350
  49.6276460  89.5077370 143.7518520  49.5103580  90.9882650 143.4583240
  52.8309950  90.4932830 133.3625490  52.6047530  89.7763270 133.9550130
  52.4406150  90.2445270 132.5247240  50.7591850  91.0079110 146.8422410
  51.0948090  91.5945800 147.5200330  49.8392190  90.8771820 147.0720200
  38.6125980  94.5199690 134.1369950  38.9723620  95.1189030 133.4827220
  38.4718320  95.0659580 134.9104980  38.3095250  78.7974290 147.6245820
  37.5953770  78.9971210 148.2298430  38.7290290  78.0213860 147.9960620
  52.4126200  88.4104770 135.0239650  52.1247900  88.8717460 135.8117530
  53.2078370  87.9502540 135.2923870  38.5967840  92.7854550 148.6112350
  38.7058960  91.8449290 148.4707740  37.9448400  93.0509300 147.9626080
  44.6294600  91.9030890 134.9543620  44.6204700  92.6360580 134.3388130
  43.7092960  91.6562470 135.0470580  40.2301240  87.1245780 135.6990380
  39.6229190  87.8644680 135.7085680  40.7050590  87.2145140 134.8728580
  49.8034030  81.2896600 145.3747270  50.1714850  80.4691810 145.7026840
  48.9432230  81.3498490 145.7902920  53.1696060  80.2453540 136.1834830
  52.5409220  80.3499210 135.4693060  52.6747980  80.4650320 136.9728710
  47.6154200  91.9659130 133.6168810  47.7166180  91.7623120 132.6870790
  46.7155940  91.7117410 133.8216590  45.1380090  82.5239490 137.5992710
  44.4296240  82.9925830 138.0406320  45.4224570  81.8661500 138.2337900
  46.7636020  83.9436190 145.5985240  47.2621270  84.4182010 146.2637090
  46.9058970  83.0199710 145.8055270  49.1695520  79.2490150 139.0388500
  49.0463300  79.2676280 138.0898010  50.1180080  79.2969090 139.1586900
  46.2572310  94.4845450 138.3116480  46.5113810  94.4466840 137.3895850
  45.3084790  94.3578780 138.3044730  43.3415110  80.8324570 134.9743420
  44.1905640  81.2694720 134.9083610  42.9746380  81.1444830 135.8015480
  53.9702880  80.1604150 146.4413630  53.4676480  80.9009550 146.7807440
  54.7859540  80.5488150 146.1250420  52.2624890  85.4037330 139.8874990
  51.3215030  85.4187560 140.0622680  52.5768960  84.6173290 140.3335290
  42.2406530  87.0856930 133.4478950  43.0069800  86.9738290 134.0104380
  42.3181220  86.3894900 132.7955720  40.9353290  84.5182000 134.1311840
  41.0156880  83.5709510 134.2429240  41.8273040  84.8488880 134.2372500
  54.2650470  92.5746180 141.5629250  54.3897890  93.3977350 142.0353060
  55.1316030  92.3636910 141.2153400  41.7368000  94.6677390 141.2346380
  42.4730480  94.1192850 141.5054950  42.1208920  95.5333400 141.0952370
  38.6213480  90.7350960 137.1087890  37.6953260  90.9772100 137.0993300
  39.0869910  91.5625220 136.9872640  44.8470310  93.8407700 133.0571950
  45.6398920  94.1296530 132.6053740  44.3274660  93.4099870 132.3784430
  51.0091280  93.6883620 148.9816780  51.9613030  93.6041640 148.9317020
  50.8619500  94.3525330 149.6550570  53.9000480  93.0677830 134.4808690
  53.6141990  92.6542970 133.6662870  53.7020030  93.9965540 134.3609210
  38.4624090  86.3396920 149.3668010  38.9663110  85.7604200 149.9384240
  37.7231510  86.6237150 149.9044380  45.3647710  89.0611110 132.9214300
  45.2598350  88.4463460 133.6475680  45.1971930  88.5377000 132.1377310
  45.5162030  87.7467910 148.9003530  44.7507700  88.3152910 148.8158200
  45.6977990  87.4544120 148.0071760  48.6050440  88.1231140 133.5256290
  48.0560540  88.5700440 134.1699030  49.2269700  87.6180390 134.0493960
  52.6585380  89.4773240 149.4578550  53.3994850  89.8149000 148.9546010
  51.8958060  89.6465300 148.9048320  44.2725560  87.0822060 135.4221590
  44.6941980  86.9161930 136.2652980  44.3976400  86.2722290 134.9276730
  42.4352980  83.0618610 148.2292570  41.9049440  82.5709560 147.6015910
  43.1041050  83.4902810 147.6950500  51.3331040  87.5288070 147.9933760
  51.7472060  87.6833150 148.8424180  50.3982040  87.6543290 148.1559540
  51.8053210  84.8684230 149.9972910  52.3873980  84.1136550 149.9093390
  51.9814980  85.3991670 149.2204390  42.9225280  80.0280980 148.3089860
  42.8282150  79.4101730 147.5840730  42.3422670  80.7547270 148.0819770
  45.6886720  78.5854220 145.3417250  45.2404020  78.6078480 144.4962800
  45.0551920  78.1873240 145.9387550  46.0946270  87.4808550 145.9629690
  46.5134380  88.3241280 145.7905930  45.1754900  87.6180590 145.7336470
  48.4310170  85.2124730 147.3467530  48.5506380  84.6165870 148.0862370
  49.2904170  85.2494420 146.9268830  50.7698070  85.7661920 145.9230040
  50.2433290  86.2904540 145.3195180  51.1129410  86.3989310 146.5539770
  43.1684460  83.1555290 132.3679750  42.9673520  82.2922650 132.7293090
  42.9976510  83.0688650 131.4301350  43.9453690  93.7861560 147.0787420
  43.4074780  94.5107620 146.7596120  44.1987650  93.3091900 146.2884760
  45.1978940  81.7546080 148.6043350  45.7878630  81.4461930 149.2921170
  44.3799180  81.2825830 148.7603250  50.0172370  81.3711890 148.8376370
  49.3287890  80.7093430 148.7726360  50.7378390  80.9250160 149.2824830
  50.6472770  77.9663520 134.8966630  50.9275060  77.1231420 135.2526050
  49.8738500  78.1986630 135.4105380  41.9667260  80.2555910 132.3557630
  42.2693160  80.2623340 131.4476780  42.7061850  79.9053770 132.8525290
  46.8015900  95.0212770 147.3374070  46.7274600  95.9247910 147.6446440
  45.8994740  94.7024670 147.3096140  45.1852190  79.1990530 133.3413830
  44.8374190  78.5214520 132.7616280  45.3864960  78.7380040 134.1557220
  47.3501230  94.1871280 134.9600430  48.2452020  94.5256250 134.9819190
  47.3818860  93.4650690 134.3324710  40.9897390  89.5598330 133.1887430
  41.4272260  90.1028000 133.8445010  41.4745120  88.7345280 133.1983770
  38.2043190  92.3487360 140.6407690  38.5346200  91.4808420 140.4086330
  38.6334190  92.5545880 141.4712650  42.8005110  90.6796370 138.3009660
  42.5000650  90.5561340 139.2013570  42.6942600  89.8204960 137.8925390
  38.6933400  93.2157950 143.3789320  38.2564390  93.3958750 144.2113470
  39.2611080  93.9732570 143.2371040  54.3295580  92.7174950 147.6666630
  53.7297570  92.7767510 146.9230550  54.4589480  91.7779930 147.7963480
  55.5697030  90.4592770 133.0036340  54.7389990  90.5269420 133.4743570
  55.7468860  91.3496890 132.7003200  55.0253490  87.2040250 135.5070540
  55.7872400  87.7736900 135.6130230  55.0407860  86.6367450 136.2778850
  38.5257830  85.7278180 139.7378200  37.8706670  85.4589820 139.0937900
  39.3635780  85.6182660 139.2880180  56.0313460  88.0590350 140.3512470
  56.4022290  87.2757670 139.9448440  56.6715390  88.7479450 140.1729770
  53.0147220  89.4426930 145.7642790  52.2007060  89.8724090 146.0268580
  53.4221420  90.0545340 145.1511840  55.0772660  87.4974620 132.6643060
  55.3521500  88.4053500 132.5362280  54.8883400  87.4337150 133.6005050
  51.4748270  80.5219470 133.9596690  51.8933150  80.3350450 133.1193350
  51.1684330  79.6698520 134.2699620  54.9738000  85.4343610 137.6572490
  54.5981600  84.6671540 137.2253780  54.2441120  85.8166310 138.1447420
  39.5633760  86.1130750 144.2781540  39.9306800  86.0258150 145.1577560
  38.9944580  85.3497300 144.1788400  54.3637620  84.5815130 147.2912010
  54.1323710  84.3527880 146.3909960  54.6242170  85.5014680 147.2456900
  39.1149760  83.0239840 148.1839960  38.2205810  82.9906600 148.5233670
  39.6547310  83.2226630 148.9491210  37.7395910  82.9377110 135.6803530
  36.8359990  83.2007310 135.5055190  38.2236530  83.2088280 134.9003490
  54.2488960  83.6601100 140.9579730  54.7726440  83.1663750 140.3269900
  54.8348380  83.7951460 141.7027300  54.4278680  83.7440970 144.4799280
  53.4781390  83.7104510 144.5944270  54.6091690  84.6541080 144.2449050
  40.2823120  81.9942650 133.5897910  40.9914820  81.5725870 133.1045190
  39.5663060  82.0617880 132.9581260  39.9297280  78.0481980 132.6300560
  40.6525410  78.5890920 132.9481780  40.2021800  77.7745400 131.7542100
  53.7388930  82.9174450 136.8972140  54.2348050  82.6845320 137.6821020
  53.5405000  82.0786290 136.4809780  39.6189470  77.2988170 142.5323180
  40.2665660  76.7485550 142.0918340  40.0391310  77.5531320 143.3538990
  55.1676090  81.5535400 139.4309820  55.0575370  81.3991440 140.3692090
  55.9283680  81.0256340 139.1885230  53.5141810  77.4929530 145.8892820
  54.1514030  78.1063670 146.2552010  53.6616700  77.5290190 144.9442050
  56.0566360  79.3843320 132.6715960  56.9815670  79.2524500 132.4634250
  56.0342150  79.4636140 133.6252410  56.1304850  80.1553980 135.2972670
  55.3356350  80.0899100 135.8265580  56.3348130  81.0904620 135.2858020
  53.0723270  94.1945530 139.2911060  53.6682340  93.8730100 138.6145480
  53.3301420  93.7217350 140.0824330  39.3721470  77.4543840 145.2748500
  39.0236290  77.9107660 146.0406680  39.0409170  76.5600970 145.3570930
  44.6791870  92.1823030 145.0411410  44.4383230  92.4497590 144.1541930
  45.6194510  92.3528760 145.0962270  46.8846290  78.6455720 148.7967920
  46.8235180  79.2377550 149.5463330  47.8246670  78.5381680 148.6518180
  49.5220850  78.3025780 148.4360210  50.1361260  78.6205070 147.7741290
  50.0670410  77.8174370 149.0556070  55.9396030  94.2017410 145.8422050
  55.4454310  94.5986280 145.1249180  55.3309320  93.5766620 146.2359330
  40.0442110  76.9820040 148.5499270  40.5925100  76.8008090 147.7865380
  40.1097420  76.1914150 149.0855580  40.8173870  93.5725690 146.5599470
  40.2234190  93.4410390 147.2989510  40.8097710  92.7363830 146.0941570
  50.2628890  76.8657920 144.7629500  49.3888730  77.1993030 144.5602430
  50.1539640  76.3931100 145.5881370  51.1700870  79.0728790 146.1471220
  50.8414230  78.2580550 145.7672950  52.1183170  79.0298600 146.0236910
  53.6235480  94.8440830 143.1208790  53.1638450  95.5956640 142.7466810
  52.9947940  94.1247300 143.0623590  40.4486100  90.9384070 145.5107510
  39.7220160  90.3189360 145.4433460  40.5095250  91.3324680 144.6405590
  44.0531200  93.1529070 142.2956920  44.5696220  92.5416430 141.7705180
  44.7028580  93.6557850 142.7867930  46.7926700  94.0437560 143.1225900
  47.0804510  93.7891860 142.2458910  47.3049920  93.4914920 143.7131470
  48.0103710  77.7827760 143.7022410  47.2275500  78.2573260 143.9819170
  47.7166640  76.8782590 143.5935590  52.5624780  78.4850860 141.7471500
  53.0032870  78.4295960 140.8993100  52.2932370  79.4008870 141.8181680
  54.4263350  78.1166100 139.7580320  54.3651750  77.1727320 139.6111340
  55.2055380  78.2246190 140.3033780  38.7316100  94.2558460 138.7204270
  38.5638140  93.6229140 139.4186160  37.8650610  94.4617860 138.3698460
  39.3544120  78.0875240 136.2236130  40.1123480  78.2004120 135.6500160
  38.8921290  78.9244440 136.1779560  45.8957930  80.2014510 139.2138440
  45.0832440  79.8271400 138.8734320  46.3999570  79.4459590 139.5159630
  50.3982910  76.8656960 140.4521510  51.0012280  77.4377170 140.9270030
  49.6575900  77.4296400 140.2295410  53.5417510  77.2678520 135.7261790
  53.7368140  78.1661970 135.9929220  52.7547380  77.0365600 136.2194740
  40.3378800  92.9491690 136.1654410  39.8126420  93.3299720 135.4616370
  40.2623380  93.5742460 136.8864120  41.7269270  78.6139290 134.7638100
  42.2562030  77.8269090 134.6346050  42.3597590  79.2930480 134.9973630
  43.9207110  78.3514430 137.8183490  43.2909850  77.6501740 137.9853620
  43.3812250  79.1118560 137.6016650  55.0944120  94.5079230 137.4868350
  55.2696310  93.8216970 136.8429270  54.3965690  95.0326280 137.0945020
  42.9371770  94.8974070 135.0403660  43.6690590  94.6133350 134.4927550
  43.1965440  94.6587350 135.9303040  42.0986560  91.0138800 135.0449990
  41.4695440  91.4823900 135.5935820  42.2134390  90.1688020 135.4796180
  49.5536280  85.0644460 121.1951190  49.4730330  84.1499070 120.9242900
  49.1400700  85.5611530 120.4890900  47.6854320  86.8423480 123.0760460
  46.9096420  86.3623920 123.3659030  48.3367250  86.1629130 122.9016620
  41.7020150  87.1543290 123.9536220  40.8705030  86.8992000 124.3532730
  42.3101130  87.2254060 124.6894140  51.7061750  91.2483670 121.8559590
  51.2443280  90.4770910 122.1846760  52.5187300  91.2749740 122.3612040
  41.6821410  91.1883380 124.1494240  41.9849450  90.2981120 123.9704460
  42.4265000  91.7453600 123.9216490  38.0745110  84.7150830 123.6218310
  38.6461220  83.9473030 123.6221950  38.0746650  85.0139590 122.7124920
  47.9325060  93.5341680 121.4763580  47.3136500  93.9899180 120.9058020
  48.7876840  93.6893140 121.0753280  47.1263310  89.5180670 123.0830620
  47.0571590  88.5770610 122.9219750  47.8883170  89.6082080 123.6553190
  39.3169980  80.1235190 125.4087240  39.1372820  79.2260940 125.6890000
  38.9150060  80.6707060 126.0834190  48.1568480  82.3251050 123.3099550
  48.5333300  81.4522930 123.1973220  48.0587990  82.6609750 122.4189990
  51.9392600  79.8201490 120.2427890  52.7602220  79.3298060 120.2853370
  51.9726680  80.4099150 120.9959730  39.9356650  82.6195690 124.0169580
  40.6166760  82.8834060 124.6356980  39.6204700  81.7796560 124.3507590
  44.1281220  83.6663050 123.1042170  44.6359440  84.1644020 123.7447190
  44.6594460  82.8898250 122.9281530  56.2292150  81.8368240 126.8071520
  55.5244320  82.2249950 126.2886630  56.4950070  82.5318530 127.4092450
  42.4117320  78.3061610 127.3705590  42.4135760  78.8234000 126.5651490
  41.5821630  77.8291790 127.3475520  48.7988410  88.4180920 118.8695490
  48.1805680  88.8830370 118.3058210  49.3111660  89.1108400 119.2865000
  43.6620170  87.9456790 125.5479090  43.3289550  88.5725710 126.1900160
  43.8386850  88.4718670 124.7680760  52.1754080  81.7601870 123.0155430
  51.4709650  82.0486760 123.5958540  52.5366240  82.5701980 122.6554990
  42.0932650  80.0171570 125.3776040  42.4349460  80.8613620 125.0829910
  41.1548460  80.1655310 125.4941380  42.8739270  89.9137590 127.3628270
  43.4913270  90.5888670 127.0812720  42.0132390  90.3225570 127.2715770
  38.1671610  89.1037450 116.2435120  37.7899590  89.5924550 115.5120020
  38.4244680  89.7762730 116.8741650  53.7916860  91.3777000 125.2782910
  53.1080380  92.0476110 125.2699580  54.3311150  91.5757650 124.5127770
  55.2441000  81.2056660 123.4064640  54.2965910  81.2395640 123.5380070
  55.5690990  82.0195610 123.7914000  51.3275600  93.2221130 123.9928090
  51.3402760  92.8183420 123.1250350  50.7750820  93.9968420 123.8889520
  52.6221020  89.9437350 119.0818260  52.5117350  89.0011680 119.2067680
  52.6189270  90.3052990 119.9681020  50.7261040  88.1250970 125.3210700
  51.1429830  87.9111080 124.4864160  51.4500860  88.3823760 125.8919320
  48.1641300  85.5702670 118.4380750  47.2370580  85.5040050 118.6669220
  48.3166120  86.5082800 118.3235990  48.1510380  81.8419670 115.4347910
  47.2114050  82.0033630 115.5200370  48.4693640  82.5605350 114.8883900
  54.6723140  86.5238190 125.4126940  53.8441770  86.5931280 124.9377070
  55.2673620  87.1092500 124.9442770  52.1938590  87.1322970 118.9416000
  51.5751010  86.7942520 118.2942300  52.1763040  86.4882730 119.6495190
  51.6365150  83.3107510 126.3581810  51.2236330  84.1361220 126.6121800
  50.9041100  82.7252550 126.1658170  44.2379640  89.7834970 123.3839690
  43.9407930  89.1780440 122.7047470  45.1879460  89.8212280 123.2729050
  42.4826560  82.8710620 124.9999520  43.0341150  82.9805960 124.2252770
  42.9970070  83.2448220 125.7154750  52.3265250  93.3566840 127.0462790
  51.8495810  94.1639030 126.8535400  51.6427040  92.7045170 127.1989000
  43.3298070  89.5216660 130.0347490  42.4326600  89.7456630 130.2820890
  43.3550940  89.6451600 129.0858890  42.1569290  86.3929980 128.6104860
  42.0177060  87.2652780 128.9792260  41.2750650  86.0502790 128.4652800
  48.4798670  91.3105850 119.9169990  48.9194580  92.0530180 119.5025380
  48.4185560  91.5532420 120.8408950  43.9549640  92.3351680 130.8190010
  43.9265070  92.7394630 129.9518440  43.7914610  91.4062040 130.6561610
  53.9520430  77.6252590 114.2629790  53.6393090  77.7179420 115.1628860
  54.7132900  78.2033620 114.2127220  55.9064460  93.1178780 132.1154180
  56.3824180  93.5961670 132.7943260  56.5271620  93.0496270 131.3899680
  38.1087940  88.1627530 124.5275770  38.1868360  88.2976300 123.5831490
  38.7229620  87.4543420 124.7203890  39.3535570  89.8627720 120.9381950
  38.9463650  90.0042310 120.0835550  40.2448580  89.5787880 120.7353160
  55.3097710  90.3091630 129.2754190  55.4360770  90.0703510 128.3571370
  55.3519090  89.4776170 129.7476270  49.1714450  94.0119630 127.8449000
  49.6859120  93.9227640 128.6471430  48.3283530  94.3579330 128.1376910
  51.1468850  94.2974970 117.2733000  50.9869990  94.0077910 118.1714830
  50.9815560  93.5215100 116.7378230  43.6257230  94.0773500 119.0504620
  43.4499710  93.1609040 118.8372420  42.7712970  94.4360790 119.2902420
  50.8494980  91.8062530 115.8331000  50.1560140  91.8039820 115.1733280
  51.5917840  91.3821850 115.4025170  50.4144910  93.4325240 119.9079490
  50.8701860  92.6514620 120.2218110  50.7537430  94.1432060 120.4520670
  55.1621720  82.3624090 130.2403930  54.5465990  82.8703760 129.7119390
  54.8418140  81.4622420 130.1829870  38.1647460  89.2041700 127.0670230
  38.3278500  88.7347060 126.2489600  38.6299910  88.6965260 127.7319070
  46.0525050  77.9558160 116.9836630  45.4279230  77.9518030 117.7089940
  45.9655170  77.0889120 116.5872600  49.9578210  83.4644400 118.4302700
  49.3587100  84.1880200 118.2466320  50.5057820  83.4021180 117.6479150
  48.5643080  82.1007940 120.4605980  48.9572650  82.4180140 119.6474670
  48.9259930  81.2219820 120.5750500  40.2990200  80.7680280 128.6506100
  39.9053590  81.6155490 128.8578880  39.6108600  80.1306650 128.8414740
  37.6007250  78.6908740 122.6836180  37.3120300  79.2611600 123.3961160
  38.3453010  78.2113190 123.0467410  37.7877480  82.6328860 113.8938900
  37.7052150  83.5759620 114.0353890  37.4360540  82.4903770 113.0151250
  49.1498220  84.6913690 124.5556760  48.4179340  85.2000500 124.9046860
  48.7522560  83.8743670 124.2545540  45.5875610  81.3667890 122.9609250
  45.5911670  80.9257840 122.1113790  46.4826730  81.6885220 123.0681070
  45.6495760  82.3679970 115.9516010  45.7708580  82.3266450 116.9001830
  45.2644270  83.2304120 115.7962740  49.6124130  80.1447370 123.9679700
  49.6296870  80.5956020 124.8121550  49.3639710  79.2453010 124.1813140
  39.7386440  88.5793130 129.2266040  39.3541230  87.9386800 129.8249000
  40.0498630  89.2829250 129.7960770  45.8883580  85.4269670 124.7074660
  46.2553710  84.9528240 125.4536000  45.6988640  86.3011240 125.0483000
  38.7524070  80.1713360 120.8368130  38.4670990  79.8069030 121.6746750
  38.6902930  79.4393820 120.2231270  43.6782950  84.4678310 127.0258870
  43.3740020  85.3470290 127.2509230  44.6329410  84.5278100 127.0616310
  52.9652720  87.6704660 123.4152110  53.6851840  88.1659950 123.0248220
  52.7634540  86.9922550 122.7705980  48.4262660  79.0642620 117.5581500
  47.6127270  78.5655790 117.4826810  48.2324610  79.9040870 117.1417850
  48.3471520  87.7413720 129.3021110  48.2808830  86.8209390 129.0478700
  47.7176660  87.8389160 130.0165750  51.1411050  83.4362270 115.8543660
  52.0290670  83.7479500 115.6795000  51.1116140  82.5634520 115.4624240
  42.2502140  88.3419680 121.2604530  42.7680810  87.5387940 121.2061420
  41.7986160  88.2798820 122.1021360  47.1371640  89.6085960 116.5331830
  47.4787340  90.3528190 116.0375150  46.3084350  89.9217080 116.8956660
  39.7346680  85.3081050 128.1730230  39.3761620  85.9734900 128.7603570
  39.4401240  84.4764600 128.5442850  42.9359800  85.7665290 131.0569780
  42.6359940  85.9122470 130.1597600  43.7071040  85.2070580 130.9643170
  48.2788250  90.5634290 129.0524910  48.2932790  89.6315250 128.8343820
  47.5713350  90.6494050 129.6914680  54.4899460  87.2041630 128.3993490
  53.7647650  87.7970410 128.2022880  55.0174920  87.1965170 127.6006860
  54.4412570  91.6016370 118.0505650  53.7988730  90.9471990 118.3249370
  54.0543230  92.0071460 117.2746320  50.0199050  88.9301800 121.8977340
  50.3722870  88.3329930 121.2378710  49.1361380  88.6046030 122.0685590
  46.1062330  89.6899490 119.3047750  46.7933460  90.2368700 119.6855340
  45.3194750  90.2340220 119.3397360  38.2454730  85.3072310 114.7964830
  39.1149580  85.5897110 115.0800750  37.7545050  86.1208180 114.6813640
  45.4089540  86.6945520 118.9173110  45.8652320  87.5050770 119.1433300
  45.0577750  86.3768660 119.7491600  47.7122150  92.2051860 126.1465410
  48.3564370  92.4111240 126.8238830  48.0751590  91.4440260 125.6936260
  48.9854230  90.2084210 124.8642860  49.6276460  89.5077370 124.9775030
  49.5103580  90.9882650 124.6839750  52.8309950  90.4932830 114.5882000
  52.6047530  89.7763270 115.1806640  52.4406150  90.2445270 113.7503750
  50.7591850  91.0079110 128.0678920  51.0948090  91.5945800 128.7456840
  49.8392190  90.8771820 128.2976710  38.6125980  94.5199690 115.3626460
  38.9723620  95.1189030 114.7083730  38.4718320  95.0659580 116.1361490
  38.3095250  78.7974290 128.8502330  37.5953770  78.9971210 129.4554940
  38.7290290  78.0213860 129.2217130  52.4126200  88.4104770 116.2496160
  52.1247900  88.8717460 117.0374040  53.2078370  87.9502540 116.5180380
  38.5967840  92.7854550 129.8368860  38.7058960  91.8449290 129.6964250
  37.9448400  93.0509300 129.1882590  46.5880430  91.0570440 131.2366980
  46.2677300  90.3379680 131.7812670  45.9138790  91.7325510 131.3103040
  49.8034030  81.2896600 126.6003780  50.1714850  80.4691810 126.9283350
  48.9432230  81.3498490 127.0159430  53.1696060  80.2453540 117.4091340
  52.5409220  80.3499210 116.6949570  52.6747980  80.4650320 118.1985220
  49.1695520  79.2490150 120.2645010  49.0463300  79.2676280 119.3154520
  50.1180080  79.2969090 120.3843410  46.2572310  94.4845450 119.5372990
  46.5113810  94.4466840 118.6152360  45.3084790  94.3578780 119.5301240
  54.2650470  92.5746180 122.7885760  54.3897890  93.3977350 123.2609570
  55.1316030  92.3636910 122.4409910  41.7368000  94.6677390 122.4602890
  42.4730480  94.1192850 122.7311460  42.1208920  95.5333400 122.3208880
  38.6213480  90.7350960 118.3344400  37.6953260  90.9772100 118.3249810
  39.0869910  91.5625220 118.2129150  40.7426280  93.8523460 131.6488470
  41.5439010  94.1735510 132.0623870  40.2278100  93.4919040 132.3708380
  49.5790910  89.9603330 131.5963880  48.9729070  89.9834930 130.8559630
  49.2745020  89.2286370 132.1331130  51.0091280  93.6883620 130.2073290
  51.9613030  93.6041640 130.1573530  50.8619500  94.3525330 130.8807080
  53.9000480  93.0677830 115.7065200  53.6141990  92.6542970 114.8919380
  53.7020030  93.9965540 115.5865720  38.4624090  86.3396920 130.5924520
  38.9663110  85.7604200 131.1640750  37.7231510  86.6237150 131.1300890
  45.5162030  87.7467910 130.1260040  44.7507700  88.3152910 130.0414710
  45.6977990  87.4544120 129.2328270  48.6050440  88.1231140 114.7512800
  48.0560540  88.5700440 115.3955540  49.2269700  87.6180390 115.2750470
  52.6585380  89.4773240 130.6835060  53.3994850  89.8149000 130.1802520
  51.8958060  89.6465300 130.1304830  40.4947170  84.4826510 131.4874590
  40.5352510  84.1840380 132.3959820  41.3492670  84.8834120 131.3282110
  42.4352980  83.0618610 129.4549080  41.9049440  82.5709560 128.8272420
  43.1041050  83.4902810 128.9207010  46.7853200  86.1059670 113.8955200
  47.3058860  85.3908690 113.5296350  47.4321600  86.7445540 114.1955710
  51.3331040  87.5288070 129.2190270  51.7472060  87.6833150 130.0680690
  50.3982040  87.6543290 129.3816050  42.9225280  80.0280980 129.5346370
  42.8282150  79.4101730 128.8097240  42.3422670  80.7547270 129.3076280
  45.6886720  78.5854220 126.5673760  45.2404020  78.6078480 125.7219310
  45.0551920  78.1873240 127.1644060  46.0946270  87.4808550 127.1886200
  46.5134380  88.3241280 127.0162440  45.1754900  87.6180590 126.9592980
  50.7698070  85.7661920 127.1486550  50.2433290  86.2904540 126.5451690
  51.1129410  86.3989310 127.7796280  43.9453690  93.7861560 128.3043930
  43.4074780  94.5107620 127.9852630  44.1987650  93.3091900 127.5141270
  50.6472770  77.9663520 116.1223140  50.9275060  77.1231420 116.4782560
  49.8738500  78.1986630 116.6361890  41.9667260  80.2555910 113.5814140
  42.2693160  80.2623340 112.6733290  42.7061850  79.9053770 114.0781800
  46.8015900  95.0212770 128.5630580  46.7274600  95.9247910 128.8702950
  45.8994740  94.7024670 128.5352650  45.1852190  79.1990530 114.5670340
  44.8374190  78.5214520 113.9872790  45.3864960  78.7380040 115.3813730
  47.3501230  94.1871280 116.1856940  48.2452020  94.5256250 116.2075700
  47.3818860  93.4650690 115.5581220  40.9897390  89.5598330 114.4143940
  41.4272260  90.1028000 115.0701520  41.4745120  88.7345280 114.4240280
  38.2043190  92.3487360 121.8664200  38.5346200  91.4808420 121.6342840
  38.6334190  92.5545880 122.6969160  42.8005110  90.6796370 119.5266170
  42.5000650  90.5561340 120.4270080  42.6942600  89.8204960 119.1181900
  38.6933400  93.2157950 124.6045830  38.2564390  93.3958750 125.4369980
  39.2611080  93.9732570 124.4627550  54.3295580  92.7174950 128.8923140
  53.7297570  92.7767510 128.1487060  54.4589480  91.7779930 129.0219990
  55.5697030  90.4592770 114.2292850  54.7389990  90.5269420 114.7000080
  55.7468860  91.3496890 113.9259710  55.0253490  87.2040250 116.7327050
  55.7872400  87.7736900 116.8386740  55.0407860  86.6367450 117.5035360
  38.5257830  85.7278180 120.9634710  37.8706670  85.4589820 120.3194410
  39.3635780  85.6182660 120.5136690  53.0147220  89.4426930 126.9899300
  52.2007060  89.8724090 127.2525090  53.4221420  90.0545340 126.3768350
  51.4748270  80.5219470 115.1853200  51.8933150  80.3350450 114.3449860
  51.1684330  79.6698520 115.4956130  39.5633760  86.1130750 125.5038050
  39.9306800  86.0258150 126.3834070  38.9944580  85.3497300 125.4044910
  54.3637620  84.5815130 128.5168520  54.1323710  84.3527880 127.6166470
  54.6242170  85.5014680 128.4713410  39.1149760  83.0239840 129.4096470
  38.2205810  82.9906600 129.7490180  39.6547310  83.2226630 130.1747720
  37.7395910  82.9377110 116.9060040  36.8359990  83.2007310 116.7311700
  38.2236530  83.2088280 116.1260000  54.4278680  83.7440970 125.7055790
  53.4781390  83.7104510 125.8200780  54.6091690  84.6541080 125.4705560
  39.9297280  78.0481980 113.8557070  40.6525410  78.5890920 114.1738290
  40.2021800  77.7745400 112.9798610  53.7388930  82.9174450 118.1228650
  54.2348050  82.6845320 118.9077530  53.5405000  82.0786290 117.7066290
  55.1676090  81.5535400 120.6566330  55.0575370  81.3991440 121.5948600
  55.9283680  81.0256340 120.4141740  56.0566360  79.3843320 113.8972470
  56.9815670  79.2524500 113.6890760  56.0342150  79.4636140 114.8508920
  56.1304850  80.1553980 116.5229180  55.3356350  80.0899100 117.0522090
  56.3348130  81.0904620 116.5114530  53.0723270  94.1945530 120.5167570
  53.6682340  93.8730100 119.8401990  53.3301420  93.7217350 121.3080840
  40.9785840  90.6263440 130.6658200  40.9355470  90.2556350 131.5472660
  41.1096850  91.5641010 130.8060020  44.6791870  92.1823030 126.2667920
  44.4383230  92.4497590 125.3798440  45.6194510  92.3528760 126.3218780
  46.8846290  78.6455720 130.0224430  46.8235180  79.2377550 130.7719840
  47.8246670  78.5381680 129.8774690  40.0442110  76.9820040 129.7755780
  40.5925100  76.8008090 129.0121890  40.1097420  76.1914150 130.3112090
  40.8173870  93.5725690 127.7855980  40.2234190  93.4410390 128.5246020
  40.8097710  92.7363830 127.3198080  53.6235480  94.8440830 124.3465300
  53.1638450  95.5956640 123.9723320  52.9947940  94.1247300 124.2880100
  40.4486100  90.9384070 126.7364020  39.7220160  90.3189360 126.6689970
  40.5095250  91.3324680 125.8662100  44.0531200  93.1529070 123.5213430
  44.5696220  92.5416430 122.9961690  44.7028580  93.6557850 124.0124440
  46.7926700  94.0437560 124.3482410  47.0804510  93.7891860 123.4715420
  47.3049920  93.4914920 124.9387980  48.0103710  77.7827760 124.9278920
  47.2275500  78.2573260 125.2075680  47.7166640  76.8782590 124.8192100
  52.5624780  78.4850860 122.9728010  53.0032870  78.4295960 122.1249610
  52.2932370  79.4008870 123.0438190  54.4263350  78.1166100 120.9836830
  54.3651750  77.1727320 120.8367850  55.2055380  78.2246190 121.5290290
  38.7316100  94.2558460 119.9460780  38.5638140  93.6229140 120.6442670
  37.8650610  94.4617860 119.5954970  39.3544120  78.0875240 117.4492640
  40.1123480  78.2004120 116.8756670  38.8921290  78.9244440 117.4036070
  45.8957930  80.2014510 120.4394950  45.0832440  79.8271400 120.0990830
  46.3999570  79.4459590 120.7416140  50.3982910  76.8656960 121.6778020
  51.0012280  77.4377170 122.1526540  49.6575900  77.4296400 121.4551920
  53.5417510  77.2678520 116.9518300  53.7368140  78.1661970 117.2185730
  52.7547380  77.0365600 117.4451250  40.3378800  92.9491690 117.3910920
  39.8126420  93.3299720 116.6872880  40.2623380  93.5742460 118.1120630
  41.7269270  78.6139290 115.9894610  42.2562030  77.8269090 115.8602560
  42.3597590  79.2930480 116.2230140  46.8599060  94.9653660 131.7150610
  47.7866370  94.7297930 131.7586570  46.8449490  95.7925660 131.2336640
  44.0462670  77.6298410 131.4792490  43.7646940  78.1332010 130.7153310
  44.4282370  76.8320160 131.1134620  42.9371770  94.8974070 116.2660170
  43.6690590  94.6133350 115.7184060  43.1965440  94.6587350 117.1559550
  42.0986560  91.0138800 116.2706500  41.4695440  91.4823900 116.8192330
  42.2134390  90.1688020 116.7052690  53.4276620  94.1923520 131.5391650
  54.2201940  93.6972750 131.3317610  53.7209770  94.8713660 132.1467260
  49.5536280  85.0644460 102.4207700  49.4730330  84.1499070 102.1499410
  49.1400700  85.5611530 101.7147410  47.6854320  86.8423480 104.3016970
  46.9096420  86.3623920 104.5915540  48.3367250  86.1629130 104.1273130
  41.7020150  87.1543290 105.1792730  40.8705030  86.8992000 105.5789240
  42.3101130  87.2254060 105.9150650  51.7061750  91.2483670 103.0816100
  51.2443280  90.4770910 103.4103270  52.5187300  91.2749740 103.5868550
  41.6821410  91.1883380 105.3750750  41.9849450  90.2981120 105.1960970
  42.4265000  91.7453600 105.1473000  40.1112100  82.1145180  98.9635120
  39.2228800  82.4561150  98.8615000  40.3953290  81.9145500  98.0715950
  38.0745110  84.7150830 104.8474820  38.6461220  83.9473030 104.8478460
  38.0746650  85.0139590 103.9381430  47.9325060  93.5341680 102.7020090
  47.3136500  93.9899180 102.1314530  48.7876840  93.6893140 102.3009790
  47.1263310  89.5180670 104.3087130  47.0571590  88.5770610 104.1476260
  47.8883170  89.6082080 104.8809700  39.3169980  80.1235190 106.6343750
  39.1372820  79.2260940 106.9146510  38.9150060  80.6707060 107.3090700
  48.1568480  82.3251050 104.5356060  48.5333300  81.4522930 104.4229730
  48.0587990  82.6609750 103.6446500  42.2873490  80.6976680  99.9973500
  42.3940240  81.5980410 100.3042260  41.3765850  80.6494650  99.7068150
  51.9392600  79.8201490 101.4684400  52.7602220  79.3298060 101.5109880
  51.9726680  80.4099150 102.2216240  39.9356650  82.6195690 105.2426090
  40.6166760  82.8834060 105.8613490  39.6204700  81.7796560 105.5764100
  44.1281220  83.6663050 104.3298680  44.6359440  84.1644020 104.9703700
  44.6594460  82.8898250 104.1538040  56.2292150  81.8368240 108.0328030
  55.5244320  82.2249950 107.5143140  56.4950070  82.5318530 108.6348960
  42.4117320  78.3061610 108.5962100  42.4135760  78.8234000 107.7908000
  41.5821630  77.8291790 108.5732030  48.7988410  88.4180920 100.0952000
  48.1805680  88.8830370  99.5314720  49.3111660  89.1108400 100.5121510
  43.6620170  87.9456790 106.7735600  43.3289550  88.5725710 107.4156670
  43.8386850  88.4718670 105.9937270  52.1754080  81.7601870 104.2411940
  51.4709650  82.0486760 104.8215050  52.5366240  82.5701980 103.8811500
  42.0932650  80.0171570 106.6032550  42.4349460  80.8613620 106.3086420
  41.1548460  80.1655310 106.7197890  38.1671610  89.1037450  97.4691630
  37.7899590  89.5924550  96.7376530  38.4244680  89.7762730  98.0998160
  53.7916860  91.3777000 106.5039420  53.1080380  92.0476110 106.4956090
  54.3311150  91.5757650 105.7384280  55.2441000  81.2056660 104.6321150
  54.2965910  81.2395640 104.7636580  55.5690990  82.0195610 105.0170510
  45.7760540  77.5053840 102.9277140  46.0835520  76.9500730 102.2112640
  44.8461240  77.6398300 102.7450130  51.3275600  93.2221130 105.2184600
  51.3402760  92.8183420 104.3506860  50.7750820  93.9968420 105.1146030
  52.6221020  89.9437350 100.3074770  52.5117350  89.0011680 100.4324190
  52.6189270  90.3052990 101.1937530  50.7261040  88.1250970 106.5467210
  51.1429830  87.9111080 105.7120670  51.4500860  88.3823760 107.1175830
  48.1641300  85.5702670  99.6637260  47.2370580  85.5040050  99.8925730
  48.3166120  86.5082800  99.5492500  48.1510380  81.8419670  96.6604420
  47.2114050  82.0033630  96.7456880  48.4693640  82.5605350  96.1140410
  54.6723140  86.5238190 106.6383450  53.8441770  86.5931280 106.1633580
  55.2673620  87.1092500 106.1699280  52.1938590  87.1322970 100.1672510
  51.5751010  86.7942520  99.5198810  52.1763040  86.4882730 100.8751700
  51.6365150  83.3107510 107.5838320  51.2236330  84.1361220 107.8378310
  50.9041100  82.7252550 107.3914680  43.7697940  86.0967410 102.4456990
  43.3654940  85.3844660 101.9502890  43.8561060  85.7520650 103.3345030
  44.2379640  89.7834970 104.6096200  43.9407930  89.1780440 103.9303980
  45.1879460  89.8212280 104.4985560  42.4826560  82.8710620 106.2256030
  43.0341150  82.9805960 105.4509280  42.9970070  83.2448220 106.9411260
  50.3703290  86.3709780  97.1745260  50.8096570  85.5332210  97.0283080
  51.0831710  87.0039180  97.2609400  42.1569290  86.3929980 109.8361370
  42.0177060  87.2652780 110.2048770  41.2750650  86.0502790 109.6909310
  48.4798670  91.3105850 101.1426500  48.9194580  92.0530180 100.7281890
  48.4185560  91.5532420 102.0665460  40.4702570  84.9912390  99.9463640
  40.3500170  85.7174480  99.3344910  40.1603460  84.2215300  99.4691550
  55.9064460  93.1178780 113.3410690  56.3824180  93.5961670 114.0199770
  56.5271620  93.0496270 112.6156190  39.3535570  89.8627720 102.1638460
  38.9463650  90.0042310 101.3092060  40.2448580  89.5787880 101.9609670
  51.1468850  94.2974970  98.4989510  50.9869990  94.0077910  99.3971340
  50.9815560  93.5215100  97.9634740  43.6257230  94.0773500 100.2761130
  43.4499710  93.1609040 100.0628930  42.7712970  94.4360790 100.5158930
  50.8494980  91.8062530  97.0587510  50.1560140  91.8039820  96.3989790
  51.5917840  91.3821850  96.6281680  50.4144910  93.4325240 101.1336000
  50.8701860  92.6514620 101.4474620  50.7537430  94.1432060 101.6777180
  38.1647460  89.2041700 108.2926740  38.3278500  88.7347060 107.4746110
  38.6299910  88.6965260 108.9575580  42.9366230  78.3347460 103.3287310
  42.4934380  79.1157000 102.9971830  43.4951220  78.6577350 104.0358250
  47.2236040  81.2015980 108.9322630  46.7615410  81.4099000 109.7442570
  46.8214150  80.3875330 108.6293300  49.3190260  83.9226680 112.1618080
  49.6443670  83.0890430 111.8220310  50.1070590  84.4455200 112.3096410
  46.0525050  77.9558160  98.2093140  45.4279230  77.9518030  98.9346450
  45.9655170  77.0889120  97.8129110  44.9742130  78.8794790 105.1876910
  45.2714460  79.7857620 105.1068930  45.5227690  78.3913570 104.5736480
  42.7280450  83.4581030 101.0568560  42.5021370  83.2418200 101.9615180
  41.9472980  83.8909490 100.7114530  49.9578210  83.4644400  99.6559210
  49.3587100  84.1880200  99.4722830  50.5057820  83.4021180  98.8735660
  45.1679660  84.3566610 111.7228830  45.0723260  83.4161340 111.5729230
  46.0111640  84.5781680 111.3276900  48.5643080  82.1007940 101.6862490
  48.9572650  82.4180140 100.8731180  48.9259930  81.2219820 101.8007010
  40.2990200  80.7680280 109.8762610  39.9053590  81.6155490 110.0835390
  39.6108600  80.1306650 110.0671250  46.8735250  80.8515250 112.9459350
  46.1833570  80.6587450 113.5805440  47.6167550  81.1349890 113.4783650
  37.6007250  78.6908740 103.9092690  37.3120300  79.2611600 104.6217670
  38.3453010  78.2113190 104.2723920  37.7877480  82.6328860  95.1195410
  37.7052150  83.5759620  95.2610400  37.4360540  82.4903770  94.2407760
  49.1498220  84.6913690 105.7813270  48.4179340  85.2000500 106.1303370
  48.7522560  83.8743670 105.4802050  45.5875610  81.3667890 104.1865760
  45.5911670  80.9257840 103.3370300  46.4826730  81.6885220 104.2937580
  41.4377990  81.2494380 103.1459970  41.0978040  81.7269610 103.9027020
  40.6755310  80.7959500 102.7861070  45.6495760  82.3679970  97.1772520
  45.7708580  82.3266450  98.1258340  45.2644270  83.2304120  97.0219250
  49.6124130  80.1447370 105.1936210  49.6296870  80.5956020 106.0378060
  49.3639710  79.2453010 105.4069650  44.6617260  84.6781110  96.5755820
  44.0934160  84.2299360  95.9491730  45.3706260  85.0373890  96.0420970
  53.0394880  77.5579550 111.0322590  53.3640650  76.8269210 111.5580570
  53.0751390  77.2393190 110.1303580  39.7386440  88.5793130 110.4522550
  39.3541230  87.9386800 111.0505510  40.0498630  89.2829250 111.0217280
  45.8883580  85.4269670 105.9331170  46.2553710  84.9528240 106.6792510
  45.6988640  86.3011240 106.2739510  38.7524070  80.1713360 102.0624640
  38.4670990  79.8069030 102.9003260  38.6902930  79.4393820 101.4487780
  43.6782950  84.4678310 108.2515380  43.3740020  85.3470290 108.4765740
  44.6329410  84.5278100 108.2872820  42.2064740  88.6739300  98.8482230
  41.4327000  88.1336920  98.6880950  42.9359370  88.1545910  98.5099990
  52.9652720  87.6704660 104.6408620  53.6851840  88.1659950 104.2504730
  52.7634540  86.9922550 103.9962490  48.4262660  79.0642620  98.7838010
  47.6127270  78.5655790  98.7083320  48.2324610  79.9040870  98.3674360
  48.3471520  87.7413720 110.5277620  48.2808830  86.8209390 110.2735210
  47.7176660  87.8389160 111.2422260  51.1411050  83.4362270  97.0800170
  52.0290670  83.7479500  96.9051510  51.1116140  82.5634520  96.6880750
  42.2502140  88.3419680 102.4861040  42.7680810  87.5387940 102.4317930
  41.7986160  88.2798820 103.3277870  47.1371640  89.6085960  97.7588340
  47.4787340  90.3528190  97.2631660  46.3084350  89.9217080  98.1213170
  39.7346680  85.3081050 109.3986740  39.3761620  85.9734900 109.9860080
  39.4401240  84.4764600 109.7699360  42.9359800  85.7665290 112.2826290
  42.6359940  85.9122470 111.3854110  43.7071040  85.2070580 112.1899680
  53.4125320  84.7474110  96.5480030  53.3289040  85.1788330  95.6976470
  54.1319510  85.2072460  96.9806850  54.4412570  91.6016370  99.2762160
  53.7988730  90.9471990  99.5505880  54.0543230  92.0071460  98.5002830
  50.0199050  88.9301800 103.1233850  50.3722870  88.3329930 102.4635220
  49.1361380  88.6046030 103.2942100  46.1062330  89.6899490 100.5304260
  46.7933460  90.2368700 100.9111850  45.3194750  90.2340220 100.5653870
  38.2454730  85.3072310  96.0221340  39.1149580  85.5897110  96.3057260
  37.7545050  86.1208180  95.9070150  45.4089540  86.6945520 100.1429620
  45.8652320  87.5050770 100.3689810  45.0577750  86.3768660 100.9748110
  47.7122150  92.2051860 107.3721920  48.3564370  92.4111240 108.0495340
  48.0751590  91.4440260 106.9192770  41.3101320  77.0383170 100.6152140
  41.1815950  77.0301070 101.5637060  40.4863340  77.3766260 100.2643150
  48.9854230  90.2084210 106.0899370  49.6276460  89.5077370 106.2031540
  49.5103580  90.9882650 105.9096260  52.8309950  90.4932830  95.8138510
  52.6047530  89.7763270  96.4063150  52.4406150  90.2445270  94.9760260
  50.7591850  91.0079110 109.2935430  51.0948090  91.5945800 109.9713350
  49.8392190  90.8771820 109.5233220  38.3095250  78.7974290 110.0758840
  37.5953770  78.9971210 110.6811450  38.7290290  78.0213860 110.4473640
  52.4126200  88.4104770  97.4752670  52.1247900  88.8717460  98.2630550
  53.2078370  87.9502540  97.7436890  38.5967840  92.7854550 111.0625370
  38.7058960  91.8449290 110.9220760  37.9448400  93.0509300 110.4139100
  40.2301240  87.1245780  98.1503400  39.6229190  87.8644680  98.1598700
  40.7050590  87.2145140  97.3241600  49.8034030  81.2896600 107.8260290
  50.1714850  80.4691810 108.1539860  48.9432230  81.3498490 108.2415940
  45.1380090  82.5239490 100.0505730  44.4296240  82.9925830 100.4919340
  45.4224570  81.8661500 100.6850920  46.7636020  83.9436190 108.0498260
  47.2621270  84.4182010 108.7150110  46.9058970  83.0199710 108.2568290
  49.1695520  79.2490150 101.4901520  49.0463300  79.2676280 100.5411030
  50.1180080  79.2969090 101.6099920  46.2572310  94.4845450 100.7629500
  46.5113810  94.4466840  99.8408870  45.3084790  94.3578780 100.7557750
  43.3415110  80.8324570  97.4256440  44.1905640  81.2694720  97.3596630
  42.9746380  81.1444830  98.2528500  53.9702880  80.1604150 108.8926650
  53.4676480  80.9009550 109.2320460  54.7859540  80.5488150 108.5763440
  52.2624890  85.4037330 102.3388010  51.3215030  85.4187560 102.5135700
  52.5768960  84.6173290 102.7848310  42.2406530  87.0856930  95.8991970
  43.0069800  86.9738290  96.4617400  42.3181220  86.3894900  95.2468740
  40.9353290  84.5182000  96.5824860  41.0156880  83.5709510  96.6942260
  41.8273040  84.8488880  96.6885520  54.2650470  92.5746180 104.0142270
  54.3897890  93.3977350 104.4866080  55.1316030  92.3636910 103.6666420
  38.6213480  90.7350960  99.5600910  37.6953260  90.9772100  99.5506320
  39.0869910  91.5625220  99.4385660  40.7426280  93.8523460 112.8744980
  41.5439010  94.1735510 113.2880380  40.2278100  93.4919040 113.5964890
  49.5790910  89.9603330 112.8220390  48.9729070  89.9834930 112.0816140
  49.2745020  89.2286370 113.3587640  53.9000480  93.0677830  96.9321710
  53.6141990  92.6542970  96.1175890  53.7020030  93.9965540  96.8122230
  38.4624090  86.3396920 111.8181030  38.9663110  85.7604200 112.3897260
  37.7231510  86.6237150 112.3557400  48.6050440  88.1231140  95.9769310
  48.0560540  88.5700440  96.6212050  49.2269700  87.6180390  96.5006980
  40.4947170  84.4826510 112.7131100  40.5352510  84.1840380 113.6216330
  41.3492670  84.8834120 112.5538620  44.2725560  87.0822060  97.8734610
  44.6941980  86.9161930  98.7166000  44.3976400  86.2722290  97.3789750
  42.4352980  83.0618610 110.6805590  41.9049440  82.5709560 110.0528930
  43.1041050  83.4902810 110.1463520  46.7853200  86.1059670  95.1211710
  47.3058860  85.3908690  94.7552860  47.4321600  86.7445540  95.4212220
  42.9225280  80.0280980 110.7602880  42.8282150  79.4101730 110.0353750
  42.3422670  80.7547270 110.5332790  45.6886720  78.5854220 107.7930270
  45.2404020  78.6078480 106.9475820  45.0551920  78.1873240 108.3900570
  46.0946270  87.4808550 108.4142710  46.5134380  88.3241280 108.2418950
  45.1754900  87.6180590 108.1849490  48.4310170  85.2124730 109.7980550
  48.5506380  84.6165870 110.5375390  49.2904170  85.2494420 109.3781850
  50.7698070  85.7661920 108.3743060  50.2433290  86.2904540 107.7708200
  51.1129410  86.3989310 109.0052790  43.1684460  83.1555290  94.8192770
  42.9673520  82.2922650  95.1806110  42.9976510  83.0688650  93.8814370
  45.1978940  81.7546080 111.0556370  45.7878630  81.4461930 111.7434190
  44.3799180  81.2825830 111.2116270  50.0172370  81.3711890 111.2889390
  49.3287890  80.7093430 111.2239380  50.7378390  80.9250160 111.7337850
  50.6472770  77.9663520  97.3479650  50.9275060  77.1231420  97.7039070
  49.8738500  78.1986630  97.8618400  41.9667260  80.2555910  94.8070650
  42.2693160  80.2623340  93.8989800  42.7061850  79.9053770  95.3038310
  46.8015900  95.0212770 109.7887090  46.7274600  95.9247910 110.0959460
  45.8994740  94.7024670 109.7609160  45.1852190  79.1990530  95.7926850
  44.8374190  78.5214520  95.2129300  45.3864960  78.7380040  96.6070240
  40.9897390  89.5598330  95.6400450  41.4272260  90.1028000  96.2958030
  41.4745120  88.7345280  95.6496790  42.8005110  90.6796370 100.7522680
  42.5000650  90.5561340 101.6526590  42.6942600  89.8204960 100.3438410
  54.3295580  92.7174950 110.1179650  53.7297570  92.7767510 109.3743570
  54.4589480  91.7779930 110.2476500  55.5697030  90.4592770  95.4549360
  54.7389990  90.5269420  95.9256590  55.7468860  91.3496890  95.1516220
  55.0253490  87.2040250  97.9583560  55.7872400  87.7736900  98.0643250
  55.0407860  86.6367450  98.7291870  38.5257830  85.7278180 102.1891220
  37.8706670  85.4589820 101.5450920  39.3635780  85.6182660 101.7393200
  56.0313460  88.0590350 102.8025490  56.4022290  87.2757670 102.3961460
  56.6715390  88.7479450 102.6242790  53.0147220  89.4426930 108.2155810
  52.2007060  89.8724090 108.4781600  53.4221420  90.0545340 107.6024860
  55.0772660  87.4974620  95.1156080  55.3521500  88.4053500  94.9875300
  54.8883400  87.4337150  96.0518070  51.4748270  80.5219470  96.4109710
  51.8933150  80.3350450  95.5706370  51.1684330  79.6698520  96.7212640
  54.9738000  85.4343610 100.1085510  54.5981600  84.6671540  99.6766800
  54.2441120  85.8166310 100.5960440  39.5633760  86.1130750 106.7294560
  39.9306800  86.0258150 107.6090580  38.9944580  85.3497300 106.6301420
  39.1149760  83.0239840 110.6352980  38.2205810  82.9906600 110.9746690
  39.6547310  83.2226630 111.4004230  52.8025690  79.8071560 112.5204730
  53.6795870  79.8154960 112.9038730  52.8146530  79.0702400 111.9097080
  37.7395910  82.9377110  98.1316550  36.8359990  83.2007310  97.9568210
  38.2236530  83.2088280  97.3516510  54.2488960  83.6601100 103.4092750
  54.7726440  83.1663750 102.7782920  54.8348380  83.7951460 104.1540320
  54.4278680  83.7440970 106.9312300  53.4781390  83.7104510 107.0457290
  54.6091690  84.6541080 106.6962070  40.2823120  81.9942650  96.0410930
  40.9914820  81.5725870  95.5558210  39.5663060  82.0617880  95.4094280
  39.9297280  78.0481980  95.0813580  40.6525410  78.5890920  95.3994800
  40.2021800  77.7745400  94.2055120  53.7388930  82.9174450  99.3485160
  54.2348050  82.6845320 100.1334040  53.5405000  82.0786290  98.9322800
  39.6189470  77.2988170 104.9836200  40.2665660  76.7485550 104.5431360
  40.0391310  77.5531320 105.8052010  55.1676090  81.5535400 101.8822840
  55.0575370  81.3991440 102.8205110  55.9283680  81.0256340 101.6398250
  53.5141810  77.4929530 108.3405840  54.1514030  78.1063670 108.7065030
  53.6616700  77.5290190 107.3955070  53.0723270  94.1945530 101.7424080
  53.6682340  93.8730100 101.0658500  53.3301420  93.7217350 102.5337350
  46.8846290  78.6455720 111.2480940  46.8235180  79.2377550 111.9976350
  47.8246670  78.5381680 111.1031200  49.5220850  78.3025780 110.8873230
  50.1361260  78.6205070 110.2254310  50.0670410  77.8174370 111.5069090
  40.0442110  76.9820040 111.0012290  40.5925100  76.8008090 110.2378400
  40.1097420  76.1914150 111.5368600  40.8173870  93.5725690 109.0112490
  40.2234190  93.4410390 109.7502530  40.8097710  92.7363830 108.5454590
  50.2628890  76.8657920 107.2142520  49.3888730  77.1993030 107.0115450
  50.1539640  76.3931100 108.0394390  51.1700870  79.0728790 108.5984240
  50.8414230  78.2580550 108.2185970  52.1183170  79.0298600 108.4749930
  53.6235480  94.8440830 105.5721810  53.1638450  95.5956640 105.1979830
  52.9947940  94.1247300 105.5136610  40.4486100  90.9384070 107.9620530
  39.7220160  90.3189360 107.8946480  40.5095250  91.3324680 107.0918610
  48.0103710  77.7827760 106.1535430  47.2275500  78.2573260 106.4332190
  47.7166640  76.8782590 106.0448610  52.5624780  78.4850860 104.1984520
  53.0032870  78.4295960 103.3506120  52.2932370  79.4008870 104.2694700
  38.7316100  94.2558460 101.1717290  38.5638140  93.6229140 101.8699180
  37.8650610  94.4617860 100.8211480  39.3544120  78.0875240  98.6749150
  40.1123480  78.2004120  98.1013180  38.8921290  78.9244440  98.6292580
  45.8957930  80.2014510 101.6651460  45.0832440  79.8271400 101.3247340
  46.3999570  79.4459590 101.9672650  50.3982910  76.8656960 102.9034530
  51.0012280  77.4377170 103.3783050  49.6575900  77.4296400 102.6808430
  40.3378800  92.9491690  98.6167430  39.8126420  93.3299720  97.9129390
  40.2623380  93.5742460  99.3377140  41.7269270  78.6139290  97.2151120
  42.2562030  77.8269090  97.0859070  42.3597590  79.2930480  97.4486650
  43.9207110  78.3514430 100.2696510  43.2909850  77.6501740 100.4366640
  43.3812250  79.1118560 100.0529670  46.8599060  94.9653660 112.9407120
  47.7866370  94.7297930 112.9843080  46.8449490  95.7925660 112.4593150
  55.0944120  94.5079230  99.9381370  55.2696310  93.8216970  99.2942290
  54.3965690  95.0326280  99.5458040  44.0462670  77.6298410 112.7049000
  43.7646940  78.1332010 111.9409820  44.4282370  76.8320160 112.3391130
  42.0986560  91.0138800  97.4963010  41.4695440  91.4823900  98.0448840
  42.2134390  90.1688020  97.9309200  50.6478130  77.0451990 113.2829470
  50.5343580  77.3646600 114.1780990  51.4647870  77.4464500 112.9866750
  51.7061750  91.2483670  84.3072610  51.2443280  90.4770910  84.6359780
  52.5187300  91.2749740  84.8125060  40.1112100  82.1145180  80.1891630
  39.2228800  82.4561150  80.0871510  40.3953290  81.9145500  79.2972460
  38.0745110  84.7150830  86.0731330  38.6461220  83.9473030  86.0734970
  38.0746650  85.0139590  85.1637940  47.9325060  93.5341680  83.9276600
  47.3136500  93.9899180  83.3571040  48.7876840  93.6893140  83.5266300
  48.1568480  82.3251050  85.7612570  48.5333300  81.4522930  85.6486240
  48.0587990  82.6609750  84.8703010  42.2873490  80.6976680  81.2230010
  42.3940240  81.5980410  81.5298770  41.3765850  80.6494650  80.9324660
  51.9392600  79.8201490  82.6940910  52.7602220  79.3298060  82.7366390
  51.9726680  80.4099150  83.4472750  56.2292150  81.8368240  89.2584540
  55.5244320  82.2249950  88.7399650  56.4950070  82.5318530  89.8605470
  42.4117320  78.3061610  89.8218610  42.4135760  78.8234000  89.0164510
  41.5821630  77.8291790  89.7988540  52.1754080  81.7601870  85.4668450
  51.4709650  82.0486760  86.0471560  52.5366240  82.5701980  85.1068010
  42.0932650  80.0171570  87.8289060  42.4349460  80.8613620  87.5342930
  41.1548460  80.1655310  87.9454400  42.8739270  89.9137590  89.8141290
  43.4913270  90.5888670  89.5325740  42.0132390  90.3225570  89.7228790
  53.7916860  91.3777000  87.7295930  53.1080380  92.0476110  87.7212600
  54.3311150  91.5757650  86.9640790  55.2441000  81.2056660  85.8577660
  54.2965910  81.2395640  85.9893090  55.5690990  82.0195610  86.2427020
  45.7760540  77.5053840  84.1533650  46.0835520  76.9500730  83.4369150
  44.8461240  77.6398300  83.9706640  51.3275600  93.2221130  86.4441110
  51.3402760  92.8183420  85.5763370  50.7750820  93.9968420  86.3402540
  52.6221020  89.9437350  81.5331280  52.5117350  89.0011680  81.6580700
  52.6189270  90.3052990  82.4194040  48.1510380  81.8419670  77.8860930
  47.2114050  82.0033630  77.9713390  48.4693640  82.5605350  77.3396920
  54.6723140  86.5238190  87.8639960  53.8441770  86.5931280  87.3890090
  55.2673620  87.1092500  87.3955790  52.1938590  87.1322970  81.3929020
  51.5751010  86.7942520  80.7455320  52.1763040  86.4882730  82.1008210
  51.6365150  83.3107510  88.8094830  51.2236330  84.1361220  89.0634820
  50.9041100  82.7252550  88.6171190  50.3703290  86.3709780  78.4001770
  50.8096570  85.5332210  78.2539590  51.0831710  87.0039180  78.4865910
  48.4798670  91.3105850  82.3683010  48.9194580  92.0530180  81.9538400
  48.4185560  91.5532420  83.2921970  53.9520430  77.6252590  76.7142810
  53.6393090  77.7179420  77.6141880  54.7132900  78.2033620  76.6640240
  40.4702570  84.9912390  81.1720150  40.3500170  85.7174480  80.5601420
  40.1603460  84.2215300  80.6948060  55.9064460  93.1178780  94.5667200
  56.3824180  93.5961670  95.2456280  56.5271620  93.0496270  93.8412700
  55.3097710  90.3091630  91.7267210  55.4360770  90.0703510  90.8084390
  55.3519090  89.4776170  92.1989290  43.6257230  94.0773500  81.5017640
  43.4499710  93.1609040  81.2885440  42.7712970  94.4360790  81.7415440
  42.9366230  78.3347460  84.5543820  42.4934380  79.1157000  84.2228340
  43.4951220  78.6577350  85.2614760  47.2236040  81.2015980  90.1579140
  46.7615410  81.4099000  90.9699080  46.8214150  80.3875330  89.8549810
  52.2240550  82.4224930  91.2875800  51.3734140  82.1230680  91.6084870
  52.0642340  82.6666940  90.3759620  49.3190260  83.9226680  93.3874590
  49.6443670  83.0890430  93.0476820  50.1070590  84.4455200  93.5352920
  46.0525050  77.9558160  79.4349650  45.4279230  77.9518030  80.1602960
  45.9655170  77.0889120  79.0385620  44.9742130  78.8794790  86.4133420
  45.2714460  79.7857620  86.3325440  45.5227690  78.3913570  85.7992990
  42.7280450  83.4581030  82.2825070  42.5021370  83.2418200  83.1871690
  41.9472980  83.8909490  81.9371040  49.9578210  83.4644400  80.8815720
  49.3587100  84.1880200  80.6979340  50.5057820  83.4021180  80.0992170
  45.1679660  84.3566610  92.9485340  45.0723260  83.4161340  92.7985740
  46.0111640  84.5781680  92.5533410  48.5643080  82.1007940  82.9119000
  48.9572650  82.4180140  82.0987690  48.9259930  81.2219820  83.0263520
  46.8735250  80.8515250  94.1715860  46.1833570  80.6587450  94.8061950
  47.6167550  81.1349890  94.7040160  37.7877480  82.6328860  76.3451920
  37.7052150  83.5759620  76.4866910  37.4360540  82.4903770  75.4664270
  49.1498220  84.6913690  87.0069780  48.4179340  85.2000500  87.3559880
  48.7522560  83.8743670  86.7058560  45.5875610  81.3667890  85.4122270
  45.5911670  80.9257840  84.5626810  46.4826730  81.6885220  85.5194090
  41.4377990  81.2494380  84.3716480  41.0978040  81.7269610  85.1283530
  40.6755310  80.7959500  84.0117580  45.6495760  82.3679970  78.4029030
  45.7708580  82.3266450  79.3514850  45.2644270  83.2304120  78.2475760
  49.6124130  80.1447370  86.4192720  49.6296870  80.5956020  87.2634570
  49.3639710  79.2453010  86.6326160  44.6617260  84.6781110  77.8012330
  44.0934160  84.2299360  77.1748240  45.3706260  85.0373890  77.2677480
  39.7386440  88.5793130  91.6779060  39.3541230  87.9386800  92.2762020
  40.0498630  89.2829250  92.2473790  38.7524070  80.1713360  83.2881150
  38.4670990  79.8069030  84.1259770  38.6902930  79.4393820  82.6744290
  42.2064740  88.6739300  80.0738740  41.4327000  88.1336920  79.9137460
  42.9359370  88.1545910  79.7356500  52.9652720  87.6704660  85.8665130
  53.6851840  88.1659950  85.4761240  52.7634540  86.9922550  85.2219000
  48.4262660  79.0642620  80.0094520  47.6127270  78.5655790  79.9339830
  48.2324610  79.9040870  79.5930870  51.1411050  83.4362270  78.3056680
  52.0290670  83.7479500  78.1308020  51.1116140  82.5634520  77.9137260
  42.2502140  88.3419680  83.7117550  42.7680810  87.5387940  83.6574440
  41.7986160  88.2798820  84.5534380  47.1371640  89.6085960  78.9844850
  47.4787340  90.3528190  78.4888170  46.3084350  89.9217080  79.3469680
  42.9359800  85.7665290  93.5082800  42.6359940  85.9122470  92.6110620
  43.7071040  85.2070580  93.4156190  53.4125320  84.7474110  77.7736540
  53.3289040  85.1788330  76.9232980  54.1319510  85.2072460  78.2063360
  54.4412570  91.6016370  80.5018670  53.7988730  90.9471990  80.7762390
  54.0543230  92.0071460  79.7259340  41.3101320  77.0383170  81.8408650
  41.1815950  77.0301070  82.7893570  40.4863340  77.3766260  81.4899660
  52.4126200  88.4104770  78.7009180  52.1247900  88.8717460  79.4887060
  53.2078370  87.9502540  78.9693400  44.6294600  91.9030890  78.6313150
  44.6204700  92.6360580  78.0157660  43.7092960  91.6562470  78.7240110
  49.8034030  81.2896600  89.0516800  50.1714850  80.4691810  89.3796370
  48.9432230  81.3498490  89.4672450  53.1696060  80.2453540  79.8604360
  52.5409220  80.3499210  79.1462590  52.6747980  80.4650320  80.6498240
  45.1380090  82.5239490  81.2762240  44.4296240  82.9925830  81.7175850
  45.4224570  81.8661500  81.9107430  49.1695520  79.2490150  82.7158030
  49.0463300  79.2676280  81.7667540  50.1180080  79.2969090  82.8356430
  43.3415110  80.8324570  78.6512950  44.1905640  81.2694720  78.5853140
  42.9746380  81.1444830  79.4785010  52.2624890  85.4037330  83.5644520
  51.3215030  85.4187560  83.7392210  52.5768960  84.6173290  84.0104820
  54.2650470  92.5746180  85.2398780  54.3897890  93.3977350  85.7122590
  55.1316030  92.3636910  84.8922930  41.7368000  94.6677390  84.9115910
  42.4730480  94.1192850  85.1824480  42.1208920  95.5333400  84.7721900
  38.6213480  90.7350960  80.7857420  37.6953260  90.9772100  80.7762830
  39.0869910  91.5625220  80.6642170  44.8470310  93.8407700  76.7341480
  45.6398920  94.1296530  76.2823270  44.3274660  93.4099870  76.0553960
  53.9000480  93.0677830  78.1578220  53.6141990  92.6542970  77.3432400
  53.7020030  93.9965540  78.0378740  38.4624090  86.3396920  93.0437540
  38.9663110  85.7604200  93.6153770  37.7231510  86.6237150  93.5813910
  45.3647710  89.0611110  76.5983830  45.2598350  88.4463460  77.3245210
  45.1971930  88.5377000  75.8146840  40.4947170  84.4826510  93.9387610
  40.5352510  84.1840380  94.8472840  41.3492670  84.8834120  93.7795130
  44.2725560  87.0822060  79.0991120  44.6941980  86.9161930  79.9422510
  44.3976400  86.2722290  78.6046260  46.7853200  86.1059670  76.3468220
  47.3058860  85.3908690  75.9809370  47.4321600  86.7445540  76.6468730
  51.8053210  84.8684230  93.6742440  52.3873980  84.1136550  93.5862920
  51.9814980  85.3991670  92.8973920  42.9225280  80.0280980  91.9859390
  42.8282150  79.4101730  91.2610260  42.3422670  80.7547270  91.7589300
  45.6886720  78.5854220  89.0186780  45.2404020  78.6078480  88.1732330
  45.0551920  78.1873240  89.6157080  48.4310170  85.2124730  91.0237060
  48.5506380  84.6165870  91.7631900  49.2904170  85.2494420  90.6038360
  50.7698070  85.7661920  89.5999570  50.2433290  86.2904540  88.9964710
  51.1129410  86.3989310  90.2309300  43.1684460  83.1555290  76.0449280
  42.9673520  82.2922650  76.4062620  42.9976510  83.0688650  75.1070880
  43.9453690  93.7861560  90.7556950  43.4074780  94.5107620  90.4365650
  44.1987650  93.3091900  89.9654290  45.1978940  81.7546080  92.2812880
  45.7878630  81.4461930  92.9690700  44.3799180  81.2825830  92.4372780
  50.0172370  81.3711890  92.5145900  49.3287890  80.7093430  92.4495890
  50.7378390  80.9250160  92.9594360  50.6472770  77.9663520  78.5736160
  50.9275060  77.1231420  78.9295580  49.8738500  78.1986630  79.0874910
  41.9667260  80.2555910  76.0327160  42.2693160  80.2623340  75.1246310
  42.7061850  79.9053770  76.5294820  45.1852190  79.1990530  77.0183360
  44.8374190  78.5214520  76.4385810  45.3864960  78.7380040  77.8326750
  42.8005110  90.6796370  81.9779190  42.5000650  90.5561340  82.8783100
  42.6942600  89.8204960  81.5694920  54.3295580  92.7174950  91.3436160
  53.7297570  92.7767510  90.6000080  54.4589480  91.7779930  91.4733010
  55.0253490  87.2040250  79.1840070  55.7872400  87.7736900  79.2899760
  55.0407860  86.6367450  79.9548380  38.5257830  85.7278180  83.4147730
  37.8706670  85.4589820  82.7707430  39.3635780  85.6182660  82.9649710
  56.0313460  88.0590350  84.0282000  56.4022290  87.2757670  83.6217970
  56.6715390  88.7479450  83.8499300  51.4748270  80.5219470  77.6366220
  51.8933150  80.3350450  76.7962880  51.1684330  79.6698520  77.9469150
  54.9738000  85.4343610  81.3342020  54.5981600  84.6671540  80.9023310
  54.2441120  85.8166310  81.8216950  54.3637620  84.5815130  90.9681540
  54.1323710  84.3527880  90.0679490  54.6242170  85.5014680  90.9226430
  37.7395910  82.9377110  79.3573060  36.8359990  83.2007310  79.1824720
  38.2236530  83.2088280  78.5773020  54.2488960  83.6601100  84.6349260
  54.7726440  83.1663750  84.0039430  54.8348380  83.7951460  85.3796830
  54.4278680  83.7440970  88.1568810  53.4781390  83.7104510  88.2713800
  54.6091690  84.6541080  87.9218580  40.2823120  81.9942650  77.2667440
  40.9914820  81.5725870  76.7814720  39.5663060  82.0617880  76.6350790
  39.9297280  78.0481980  76.3070090  40.6525410  78.5890920  76.6251310
  40.2021800  77.7745400  75.4311630  53.7388930  82.9174450  80.5741670
  54.2348050  82.6845320  81.3590550  53.5405000  82.0786290  80.1579310
  39.6189470  77.2988170  86.2092710  40.2665660  76.7485550  85.7687870
  40.0391310  77.5531320  87.0308520  55.1676090  81.5535400  83.1079350
  55.0575370  81.3991440  84.0461620  55.9283680  81.0256340  82.8654760
  56.0566360  79.3843320  76.3485490  56.9815670  79.2524500  76.1403780
  56.0342150  79.4636140  77.3021940  56.1304850  80.1553980  78.9742200
  55.3356350  80.0899100  79.5035110  56.3348130  81.0904620  78.9627550
  40.9785840  90.6263440  93.1171220  40.9355470  90.2556350  93.9985680
  41.1096850  91.5641010  93.2573040  44.6791870  92.1823030  88.7180940
  44.4383230  92.4497590  87.8311460  45.6194510  92.3528760  88.7731800
  46.8846290  78.6455720  92.4737450  46.8235180  79.2377550  93.2232860
  47.8246670  78.5381680  92.3287710  55.9396030  94.2017410  89.5191580
  55.4454310  94.5986280  88.8018710  55.3309320  93.5766620  89.9128860
  40.0442110  76.9820040  92.2268800  40.5925100  76.8008090  91.4634910
  40.1097420  76.1914150  92.7625110  40.8173870  93.5725690  90.2369000
  40.2234190  93.4410390  90.9759040  40.8097710  92.7363830  89.7711100
  51.1700870  79.0728790  89.8240750  50.8414230  78.2580550  89.4442480
  52.1183170  79.0298600  89.7006440  53.6235480  94.8440830  86.7978320
  53.1638450  95.5956640  86.4236340  52.9947940  94.1247300  86.7393120
  44.0531200  93.1529070  85.9726450  44.5696220  92.5416430  85.4474710
  44.7028580  93.6557850  86.4637460  46.7926700  94.0437560  86.7995430
  47.0804510  93.7891860  85.9228440  47.3049920  93.4914920  87.3901000
  52.5624780  78.4850860  85.4241030  53.0032870  78.4295960  84.5762630
  52.2932370  79.4008870  85.4951210  54.4263350  78.1166100  83.4349850
  54.3651750  77.1727320  83.2880870  55.2055380  78.2246190  83.9803310
  38.7316100  94.2558460  82.3973800  38.5638140  93.6229140  83.0955690
  37.8650610  94.4617860  82.0467990  39.3544120  78.0875240  79.9005660
  40.1123480  78.2004120  79.3269690  38.8921290  78.9244440  79.8549090
  45.8957930  80.2014510  82.8907970  45.0832440  79.8271400  82.5503850
  46.3999570  79.4459590  83.1929160  50.3982910  76.8656960  84.1291040
  51.0012280  77.4377170  84.6039560  49.6575900  77.4296400  83.9064940
  53.5417510  77.2678520  79.4031320  53.7368140  78.1661970  79.6698750
  52.7547380  77.0365600  79.8964270  40.3378800  92.9491690  79.8423940
  39.8126420  93.3299720  79.1385900  40.2623380  93.5742460  80.5633650
  41.7269270  78.6139290  78.4407630  42.2562030  77.8269090  78.3115580
  42.3597590  79.2930480  78.6743160  43.9207110  78.3514430  81.4953020
  43.2909850  77.6501740  81.6623150  43.3812250  79.1118560  81.2786180
  44.0462670  77.6298410  93.9305510  43.7646940  78.1332010  93.1666330
  44.4282370  76.8320160  93.5647640  42.9371770  94.8974070  78.7173190
  43.6690590  94.6133350  78.1697080  43.1965440  94.6587350  79.6072570
  42.0986560  91.0138800  78.7219520  41.4695440  91.4823900  79.2705350
  42.2134390  90.1688020  79.1565710  53.4276620  94.1923520  93.9904670
  54.2201940  93.6972750  93.7830630  53.7209770  94.8713660  94.5980280
  49.5536280  85.0644460  64.8720720  49.4730330  84.1499070  64.6012430
  49.1400700  85.5611530  64.1660430  47.6854320  86.8423480  66.7529990
  46.9096420  86.3623920  67.0428560  48.3367250  86.1629130  66.5786150
  41.7020150  87.1543290  67.6305750  40.8705030  86.8992000  68.0302260
  42.3101130  87.2254060  68.3663670  51.7061750  91.2483670  65.5329120
  51.2443280  90.4770910  65.8616290  52.5187300  91.2749740  66.0381570
  41.6821410  91.1883380  67.8263770  41.9849450  90.2981120  67.6473990
  42.4265000  91.7453600  67.5986020  40.1112100  82.1145180  61.4148140
  39.2228800  82.4561150  61.3128020  40.3953290  81.9145500  60.5228970
  47.1263310  89.5180670  66.7600150  47.0571590  88.5770610  66.5989280
  47.8883170  89.6082080  67.3322720  39.3169980  80.1235190  69.0856770
  39.1372820  79.2260940  69.3659530  38.9150060  80.6707060  69.7603720
  48.1568480  82.3251050  66.9869080  48.5333300  81.4522930  66.8742750
  48.0587990  82.6609750  66.0959520  42.2873490  80.6976680  62.4486520
  42.3940240  81.5980410  62.7555280  41.3765850  80.6494650  62.1581170
  39.9356650  82.6195690  67.6939110  40.6166760  82.8834060  68.3126510
  39.6204700  81.7796560  68.0277120  44.1281220  83.6663050  66.7811700
  44.6359440  84.1644020  67.4216720  44.6594460  82.8898250  66.6051060
  56.2292150  81.8368240  70.4841050  55.5244320  82.2249950  69.9656160
  56.4950070  82.5318530  71.0861980  42.4117320  78.3061610  71.0475120
  42.4135760  78.8234000  70.2421020  41.5821630  77.8291790  71.0245050
  43.6620170  87.9456790  69.2248620  43.3289550  88.5725710  69.8669690
  43.8386850  88.4718670  68.4450290  52.1754080  81.7601870  66.6924960
  51.4709650  82.0486760  67.2728070  52.5366240  82.5701980  66.3324520
  42.0932650  80.0171570  69.0545570  42.4349460  80.8613620  68.7599440
  41.1548460  80.1655310  69.1710910  42.8739270  89.9137590  71.0397800
  43.4913270  90.5888670  70.7582250  42.0132390  90.3225570  70.9485300
  38.1671610  89.1037450  59.9204650  37.7899590  89.5924550  59.1889550
  38.4244680  89.7762730  60.5511180  55.2441000  81.2056660  67.0834170
  54.2965910  81.2395640  67.2149600  55.5690990  82.0195610  67.4683530
  45.7760540  77.5053840  65.3790160  46.0835520  76.9500730  64.6625660
  44.8461240  77.6398300  65.1963150  51.3275600  93.2221130  67.6697620
  51.3402760  92.8183420  66.8019880  50.7750820  93.9968420  67.5659050
  52.6221020  89.9437350  62.7587790  52.5117350  89.0011680  62.8837210
  52.6189270  90.3052990  63.6450550  48.1510380  81.8419670  59.1117440
  47.2114050  82.0033630  59.1969900  48.4693640  82.5605350  58.5653430
  52.1938590  87.1322970  62.6185530  51.5751010  86.7942520  61.9711830
  52.1763040  86.4882730  63.3264720  51.6365150  83.3107510  70.0351340
  51.2236330  84.1361220  70.2891330  50.9041100  82.7252550  69.8427700
  44.2379640  89.7834970  67.0609220  43.9407930  89.1780440  66.3817000
  45.1879460  89.8212280  66.9498580  42.4826560  82.8710620  68.6769050
  43.0341150  82.9805960  67.9022300  42.9970070  83.2448220  69.3924280
  52.3265250  93.3566840  70.7232320  51.8495810  94.1639030  70.5304930
  51.6427040  92.7045170  70.8758530  43.3298070  89.5216660  73.7117020
  42.4326600  89.7456630  73.9590420  43.3550940  89.6451600  72.7628420
  50.3703290  86.3709780  59.6258280  50.8096570  85.5332210  59.4796100
  51.0831710  87.0039180  59.7122420  42.1569290  86.3929980  72.2874390
  42.0177060  87.2652780  72.6561790  41.2750650  86.0502790  72.1422330
  48.4798670  91.3105850  63.5939520  48.9194580  92.0530180  63.1794910
  48.4185560  91.5532420  64.5178480  43.9549640  92.3351680  74.4959540
  43.9265070  92.7394630  73.6287970  43.7914610  91.4062040  74.3331140
  40.4702570  84.9912390  62.3976660  40.3500170  85.7174480  61.7857930
  40.1603460  84.2215300  61.9204570  55.9064460  93.1178780  75.7923710
  56.3824180  93.5961670  76.4712790  56.5271620  93.0496270  75.0669210
  38.1087940  88.1627530  68.2045300  38.1868360  88.2976300  67.2601020
  38.7229620  87.4543420  68.3973420  39.3535570  89.8627720  64.6151480
  38.9463650  90.0042310  63.7605080  40.2448580  89.5787880  64.4122690
  50.8494980  91.8062530  59.5100530  50.1560140  91.8039820  58.8502810
  51.5917840  91.3821850  59.0794700  55.1621720  82.3624090  73.9173460
  54.5465990  82.8703760  73.3888920  54.8418140  81.4622420  73.8599400
  38.1647460  89.2041700  70.7439760  38.3278500  88.7347060  69.9259130
  38.6299910  88.6965260  71.4088600  42.9366230  78.3347460  65.7800330
  42.4934380  79.1157000  65.4484850  43.4951220  78.6577350  66.4871270
  47.2236040  81.2015980  71.3835650  46.7615410  81.4099000  72.1955590
  46.8214150  80.3875330  71.0806320  52.2240550  82.4224930  72.5132310
  51.3734140  82.1230680  72.8341380  52.0642340  82.6666940  71.6016130
  49.3190260  83.9226680  74.6131100  49.6443670  83.0890430  74.2733330
  50.1070590  84.4455200  74.7609430  44.9742130  78.8794790  67.6389930
  45.2714460  79.7857620  67.5581950  45.5227690  78.3913570  67.0249500
  42.7280450  83.4581030  63.5081580  42.5021370  83.2418200  64.4128200
  41.9472980  83.8909490  63.1627550  49.9578210  83.4644400  62.1072230
  49.3587100  84.1880200  61.9235850  50.5057820  83.4021180  61.3248680
  45.1679660  84.3566610  74.1741850  45.0723260  83.4161340  74.0242250
  46.0111640  84.5781680  73.7789920  48.5643080  82.1007940  64.1375510
  48.9572650  82.4180140  63.3244200  48.9259930  81.2219820  64.2520030
  40.2990200  80.7680280  72.3275630  39.9053590  81.6155490  72.5348410
  39.6108600  80.1306650  72.5184270  46.8735250  80.8515250  75.3972370
  46.1833570  80.6587450  76.0318460  47.6167550  81.1349890  75.9296670
  37.6007250  78.6908740  66.3605710  37.3120300  79.2611600  67.0730690
  38.3453010  78.2113190  66.7236940  37.7877480  82.6328860  57.5708430
  37.7052150  83.5759620  57.7123420  37.4360540  82.4903770  56.6920780
  49.1498220  84.6913690  68.2326290  48.4179340  85.2000500  68.5816390
  48.7522560  83.8743670  67.9315070  45.5875610  81.3667890  66.6378780
  45.5911670  80.9257840  65.7883320  46.4826730  81.6885220  66.7450600
  41.4377990  81.2494380  65.5972990  41.0978040  81.7269610  66.3540040
  40.6755310  80.7959500  65.2374090  45.6495760  82.3679970  59.6285540
  45.7708580  82.3266450  60.5771360  45.2644270  83.2304120  59.4732270
  49.6124130  80.1447370  67.6449230  49.6296870  80.5956020  68.4891080
  49.3639710  79.2453010  67.8582670  53.0394880  77.5579550  73.4835610
  53.3640650  76.8269210  74.0093590  53.0751390  77.2393190  72.5816600
  45.8883580  85.4269670  68.3844190  46.2553710  84.9528240  69.1305530
  45.6988640  86.3011240  68.7252530  38.7524070  80.1713360  64.5137660
  38.4670990  79.8069030  65.3516280  38.6902930  79.4393820  63.9000800
  43.6782950  84.4678310  70.7028400  43.3740020  85.3470290  70.9278760
  44.6329410  84.5278100  70.7385840  48.3471520  87.7413720  72.9790640
  48.2808830  86.8209390  72.7248230  47.7176660  87.8389160  73.6935280
  51.1411050  83.4362270  59.5313190  52.0290670  83.7479500  59.3564530
  51.1116140  82.5634520  59.1393770  39.7346680  85.3081050  71.8499760
  39.3761620  85.9734900  72.4373100  39.4401240  84.4764600  72.2212380
  42.9359800  85.7665290  74.7339310  42.6359940  85.9122470  73.8367130
  43.7071040  85.2070580  74.6412700  50.0199050  88.9301800  65.5746870
  50.3722870  88.3329930  64.9148240  49.1361380  88.6046030  65.7455120
  38.2454730  85.3072310  58.4734360  39.1149580  85.5897110  58.7570280
  37.7545050  86.1208180  58.3583170  47.7122150  92.2051860  69.8234940
  48.3564370  92.4111240  70.5008360  48.0751590  91.4440260  69.3705790
  41.3101320  77.0383170  63.0665160  41.1815950  77.0301070  64.0150080
  40.4863340  77.3766260  62.7156170  48.9854230  90.2084210  68.5412390
  49.6276460  89.5077370  68.6544560  49.5103580  90.9882650  68.3609280
  38.3095250  78.7974290  72.5271860  37.5953770  78.9971210  73.1324470
  38.7290290  78.0213860  72.8986660  40.2301240  87.1245780  60.6016420
  39.6229190  87.8644680  60.6111720  40.7050590  87.2145140  59.7754620
  49.8034030  81.2896600  70.2773310  50.1714850  80.4691810  70.6052880
  48.9432230  81.3498490  70.6928960  47.6154200  91.9659130  58.5194850
  47.7166180  91.7623120  57.5896830  46.7155940  91.7117410  58.7242630
  46.7636020  83.9436190  70.5011280  47.2621270  84.4182010  71.1663130
  46.9058970  83.0199710  70.7081310  43.3415110  80.8324570  59.8769460
  44.1905640  81.2694720  59.8109650  42.9746380  81.1444830  60.7041520
  53.9702880  80.1604150  71.3439670  53.4676480  80.9009550  71.6833480
  54.7859540  80.5488150  71.0276460  52.2624890  85.4037330  64.7901030
  51.3215030  85.4187560  64.9648720  52.5768960  84.6173290  65.2361330
  42.2406530  87.0856930  58.3504990  43.0069800  86.9738290  58.9130420
  42.3181220  86.3894900  57.6981760  40.9353290  84.5182000  59.0337880
  41.0156880  83.5709510  59.1455280  41.8273040  84.8488880  59.1398540
  54.2650470  92.5746180  66.4655290  54.3897890  93.3977350  66.9379100
  55.1316030  92.3636910  66.1179440  41.7368000  94.6677390  66.1372420
  42.4730480  94.1192850  66.4080990  42.1208920  95.5333400  65.9978410
  38.6213480  90.7350960  62.0113930  37.6953260  90.9772100  62.0019340
  39.0869910  91.5625220  61.8898680  45.3647710  89.0611110  57.8240340
  45.2598350  88.4463460  58.5501720  45.1971930  88.5377000  57.0403350
  45.5162030  87.7467910  73.8029570  44.7507700  88.3152910  73.7184240
  45.6977990  87.4544120  72.9097800  48.6050440  88.1231140  58.4282330
  48.0560540  88.5700440  59.0725070  49.2269700  87.6180390  58.9520000
  42.4352980  83.0618610  73.1318610  41.9049440  82.5709560  72.5041950
  43.1041050  83.4902810  72.5976540  46.7853200  86.1059670  57.5724730
  47.3058860  85.3908690  57.2065880  47.4321600  86.7445540  57.8725240
  51.8053210  84.8684230  74.8998950  52.3873980  84.1136550  74.8119430
  51.9814980  85.3991670  74.1230430  42.9225280  80.0280980  73.2115900
  42.8282150  79.4101730  72.4866770  42.3422670  80.7547270  72.9845810
  45.6886720  78.5854220  70.2443290  45.2404020  78.6078480  69.3988840
  45.0551920  78.1873240  70.8413590  46.0946270  87.4808550  70.8655730
  46.5134380  88.3241280  70.6931970  45.1754900  87.6180590  70.6362510
  48.4310170  85.2124730  72.2493570  48.5506380  84.6165870  72.9888410
  49.2904170  85.2494420  71.8294870  50.7698070  85.7661920  70.8256080
  50.2433290  86.2904540  70.2221220  51.1129410  86.3989310  71.4565810
  43.1684460  83.1555290  57.2705790  42.9673520  82.2922650  57.6319130
  42.9976510  83.0688650  56.3327390  43.9453690  93.7861560  71.9813460
  43.4074780  94.5107620  71.6622160  44.1987650  93.3091900  71.1910800
  45.1978940  81.7546080  73.5069390  45.7878630  81.4461930  74.1947210
  44.3799180  81.2825830  73.6629290  50.0172370  81.3711890  73.7402410
  49.3287890  80.7093430  73.6752400  50.7378390  80.9250160  74.1850870
  41.9667260  80.2555910  57.2583670  42.2693160  80.2623340  56.3502820
  42.7061850  79.9053770  57.7551330  46.8015900  95.0212770  72.2400110
  46.7274600  95.9247910  72.5472480  45.8994740  94.7024670  72.2122180
  45.1852190  79.1990530  58.2439870  44.8374190  78.5214520  57.6642320
  45.3864960  78.7380040  59.0583260  38.2043190  92.3487360  65.5433730
  38.5346200  91.4808420  65.3112370  38.6334190  92.5545880  66.3738690
  38.6933400  93.2157950  68.2815360  38.2564390  93.3958750  69.1139510
  39.2611080  93.9732570  68.1397080  54.3295580  92.7174950  72.5692670
  53.7297570  92.7767510  71.8256590  54.4589480  91.7779930  72.6989520
  38.5257830  85.7278180  64.6404240  37.8706670  85.4589820  63.9963940
  39.3635780  85.6182660  64.1906220  39.5633760  86.1130750  69.1807580
  39.9306800  86.0258150  70.0603600  38.9944580  85.3497300  69.0814440
  39.1149760  83.0239840  73.0866000  38.2205810  82.9906600  73.4259710
  39.6547310  83.2226630  73.8517250  52.8025690  79.8071560  74.9717750
  53.6795870  79.8154960  75.3551750  52.8146530  79.0702400  74.3610100
  37.7395910  82.9377110  60.5829570  36.8359990  83.2007310  60.4081230
  38.2236530  83.2088280  59.8029530  40.2823120  81.9942650  58.4923950
  40.9914820  81.5725870  58.0071230  39.5663060  82.0617880  57.8607300
  39.9297280  78.0481980  57.5326600  40.6525410  78.5890920  57.8507820
  40.2021800  77.7745400  56.6568140  39.6189470  77.2988170  67.4349220
  40.2665660  76.7485550  66.9944380  40.0391310  77.5531320  68.2565030
  53.5141810  77.4929530  70.7918860  54.1514030  78.1063670  71.1578050
  53.6616700  77.5290190  69.8468090  39.3721470  77.4543840  70.1774540
  39.0236290  77.9107660  70.9432720  39.0409170  76.5600970  70.2596970
  44.6791870  92.1823030  69.9437450  44.4383230  92.4497590  69.0567970
  45.6194510  92.3528760  69.9988310  46.8846290  78.6455720  73.6993960
  46.8235180  79.2377550  74.4489370  47.8246670  78.5381680  73.5544220
  49.5220850  78.3025780  73.3386250  50.1361260  78.6205070  72.6767330
  50.0670410  77.8174370  73.9582110  55.9396030  94.2017410  70.7448090
  55.4454310  94.5986280  70.0275220  55.3309320  93.5766620  71.1385370
  40.0442110  76.9820040  73.4525310  40.5925100  76.8008090  72.6891420
  40.1097420  76.1914150  73.9881620  40.8173870  93.5725690  71.4625510
  40.2234190  93.4410390  72.2015550  40.8097710  92.7363830  70.9967610
  50.2628890  76.8657920  69.6655540  49.3888730  77.1993030  69.4628470
  50.1539640  76.3931100  70.4907410  51.1700870  79.0728790  71.0497260
  50.8414230  78.2580550  70.6698990  52.1183170  79.0298600  70.9262950
  53.6235480  94.8440830  68.0234830  53.1638450  95.5956640  67.6492850
  52.9947940  94.1247300  67.9649630  40.4486100  90.9384070  70.4133550
  39.7220160  90.3189360  70.3459500  40.5095250  91.3324680  69.5431630
  48.0103710  77.7827760  68.6048450  47.2275500  78.2573260  68.8845210
  47.7166640  76.8782590  68.4961630  38.7316100  94.2558460  63.6230310
  38.5638140  93.6229140  64.3212200  37.8650610  94.4617860  63.2724500
  45.8957930  80.2014510  64.1164480  45.0832440  79.8271400  63.7760360
  46.3999570  79.4459590  64.4185670  40.3378800  92.9491690  61.0680450
  39.8126420  93.3299720  60.3642410  40.2623380  93.5742460  61.7890160
  41.7269270  78.6139290  59.6664140  42.2562030  77.8269090  59.5372090
  42.3597590  79.2930480  59.8999670  43.9207110  78.3514430  62.7209530
  43.2909850  77.6501740  62.8879660  43.3812250  79.1118560  62.5042690
  44.0462670  77.6298410  75.1562020  43.7646940  78.1332010  74.3922840
  44.4282370  76.8320160  74.7904150  50.6478130  77.0451990  75.7342490
  50.5343580  77.3646600  76.6294010  51.4647870  77.4464500  75.4379770
  41.6821410  91.1883380  49.0520280  41.9849450  90.2981120  48.8730500
  42.4265000  91.7453600  48.8242530  40.1112100  82.1145180  42.6404650
  39.2228800  82.4561150  42.5384530  40.3953290  81.9145500  41.7485480
  39.3169980  80.1235190  50.3113280  39.1372820  79.2260940  50.5916040
  38.9150060  80.6707060  50.9860230  42.2873490  80.6976680  43.6743030
  42.3940240  81.5980410  43.9811790  41.3765850  80.6494650  43.3837680
  44.1281220  83.6663050  48.0068210  44.6359440  84.1644020  48.6473230
  44.6594460  82.8898250  47.8307570  42.4117320  78.3061610  52.2731630
  42.4135760  78.8234000  51.4677530  41.5821630  77.8291790  52.2501560
  43.6620170  87.9456790  50.4505130  43.3289550  88.5725710  51.0926200
  43.8386850  88.4718670  49.6706800  42.8739270  89.9137590  52.2654310
  43.4913270  90.5888670  51.9838760  42.0132390  90.3225570  52.1741810
  38.1671610  89.1037450  41.1461160  37.7899590  89.5924550  40.4146060
  38.4244680  89.7762730  41.7767690  45.7760540  77.5053840  46.6046670
  46.0835520  76.9500730  45.8882170  44.8461240  77.6398300  46.4219660
  43.7697940  86.0967410  46.1226520  43.3654940  85.3844660  45.6272420
  43.8561060  85.7520650  47.0114560  43.3298070  89.5216660  54.9373530
  42.4326600  89.7456630  55.1846930  43.3550940  89.6451600  53.9884930
  40.4702570  84.9912390  43.6233170  40.3500170  85.7174480  43.0114440
  40.1603460  84.2215300  43.1461080  39.3535570  89.8627720  45.8407990
  38.9463650  90.0042310  44.9861590  40.2448580  89.5787880  45.6379200
  43.6257230  94.0773500  43.9530660  43.4499710  93.1609040  43.7398460
  42.7712970  94.4360790  44.1928460  42.9366230  78.3347460  47.0056840
  42.4934380  79.1157000  46.6741360  43.4951220  78.6577350  47.7127780
  46.0525050  77.9558160  41.8862670  45.4279230  77.9518030  42.6115980
  45.9655170  77.0889120  41.4898640  44.9742130  78.8794790  48.8646440
  45.2714460  79.7857620  48.7838460  45.5227690  78.3913570  48.2506010
  42.7280450  83.4581030  44.7338090  42.5021370  83.2418200  45.6384710
  41.9472980  83.8909490  44.3884060  45.1679660  84.3566610  55.3998360
  45.0723260  83.4161340  55.2498760  46.0111640  84.5781680  55.0046430
  46.8735250  80.8515250  56.6228880  46.1833570  80.6587450  57.2574970
  47.6167550  81.1349890  57.1553180  37.6007250  78.6908740  47.5862220
  37.3120300  79.2611600  48.2987200  38.3453010  78.2113190  47.9493450
  45.5875610  81.3667890  47.8635290  45.5911670  80.9257840  47.0139830
  46.4826730  81.6885220  47.9707110  41.4377990  81.2494380  46.8229500
  41.0978040  81.7269610  47.5796550  40.6755310  80.7959500  46.4630600
  45.6495760  82.3679970  40.8542050  45.7708580  82.3266450  41.8027870
  45.2644270  83.2304120  40.6988780  44.6617260  84.6781110  40.2525350
  44.0934160  84.2299360  39.6261260  45.3706260  85.0373890  39.7190500
  39.7386440  88.5793130  54.1292080  39.3541230  87.9386800  54.7275040
  40.0498630  89.2829250  54.6986810  45.8883580  85.4269670  49.6100700
  46.2553710  84.9528240  50.3562040  45.6988640  86.3011240  49.9509040
  38.7524070  80.1713360  45.7394170  38.4670990  79.8069030  46.5772790
  38.6902930  79.4393820  45.1257310  42.2064740  88.6739300  42.5251760
  41.4327000  88.1336920  42.3650480  42.9359370  88.1545910  42.1869520
  48.4262660  79.0642620  42.4607540  47.6127270  78.5655790  42.3852850
  48.2324610  79.9040870  42.0443890  48.3471520  87.7413720  54.2047150
  48.2808830  86.8209390  53.9504740  47.7176660  87.8389160  54.9191790
  42.2502140  88.3419680  46.1630570  42.7680810  87.5387940  46.1087460
  41.7986160  88.2798820  47.0047400  42.9359800  85.7665290  55.9595820
  42.6359940  85.9122470  55.0623640  43.7071040  85.2070580  55.8669210
  48.2788250  90.5634290  53.9550950  48.2932790  89.6315250  53.7369860
  47.5713350  90.6494050  54.5940720  45.4089540  86.6945520  43.8199150
  45.8652320  87.5050770  44.0459340  45.0577750  86.3768660  44.6517640
  47.7122150  92.2051860  51.0491450  48.3564370  92.4111240  51.7264870
  48.0751590  91.4440260  50.5962300  41.3101320  77.0383170  44.2921670
  41.1815950  77.0301070  45.2406590  40.4863340  77.3766260  43.9412680
  38.6125980  94.5199690  40.2652500  38.9723620  95.1189030  39.6109770
  38.4718320  95.0659580  41.0387530  38.3095250  78.7974290  53.7528370
  37.5953770  78.9971210  54.3580980  38.7290290  78.0213860  54.1243170
  46.5880430  91.0570440  56.1393020  46.2677300  90.3379680  56.6838710
  45.9138790  91.7325510  56.2129080  44.6294600  91.9030890  41.0826170
  44.6204700  92.6360580  40.4670680  43.7092960  91.6562470  41.1753130
  40.2301240  87.1245780  41.8272930  39.6229190  87.8644680  41.8368230
  40.7050590  87.2145140  41.0011130  45.1380090  82.5239490  43.7275260
  44.4296240  82.9925830  44.1688870  45.4224570  81.8661500  44.3620450
  46.2572310  94.4845450  44.4399030  46.5113810  94.4466840  43.5178400
  45.3084790  94.3578780  44.4327280  43.3415110  80.8324570  41.1025970
  44.1905640  81.2694720  41.0366160  42.9746380  81.1444830  41.9298030
  42.2406530  87.0856930  39.5761500  43.0069800  86.9738290  40.1386930
  42.3181220  86.3894900  38.9238270  40.9353290  84.5182000  40.2594390
  41.0156880  83.5709510  40.3711790  41.8273040  84.8488880  40.3655050
  41.7368000  94.6677390  47.3628930  42.4730480  94.1192850  47.6337500
  42.1208920  95.5333400  47.2234920  38.6213480  90.7350960  43.2370440
  37.6953260  90.9772100  43.2275850  39.0869910  91.5625220  43.1155190
  44.8470310  93.8407700  39.1854500  45.6398920  94.1296530  38.7336290
  44.3274660  93.4099870  38.5066980  49.5790910  89.9603330  56.4989920
  48.9729070  89.9834930  55.7585670  49.2745020  89.2286370  57.0357170
  38.4624090  86.3396920  55.4950560  38.9663110  85.7604200  56.0666790
  37.7231510  86.6237150  56.0326930  45.3647710  89.0611110  39.0496850
  45.2598350  88.4463460  39.7758230  45.1971930  88.5377000  38.2659860
  45.5162030  87.7467910  55.0286080  44.7507700  88.3152910  54.9440750
  45.6977990  87.4544120  54.1354310  48.6050440  88.1231140  39.6538840
  48.0560540  88.5700440  40.2981580  49.2269700  87.6180390  40.1776510
  44.2725560  87.0822060  41.5504140  44.6941980  86.9161930  42.3935530
  44.3976400  86.2722290  41.0559280  46.7853200  86.1059670  38.7981240
  47.3058860  85.3908690  38.4322390  47.4321600  86.7445540  39.0981750
  45.6886720  78.5854220  51.4699800  45.2404020  78.6078480  50.6245350
  45.0551920  78.1873240  52.0670100  46.0946270  87.4808550  52.0912240
  46.5134380  88.3241280  51.9188480  45.1754900  87.6180590  51.8619020
  43.1684460  83.1555290  38.4962300  42.9673520  82.2922650  38.8575640
  42.9976510  83.0688650  37.5583900  43.9453690  93.7861560  53.2069970
  43.4074780  94.5107620  52.8878670  44.1987650  93.3091900  52.4167310
  45.1978940  81.7546080  54.7325900  45.7878630  81.4461930  55.4203720
  44.3799180  81.2825830  54.8885800  50.6472770  77.9663520  41.0249180
  50.9275060  77.1231420  41.3808600  49.8738500  78.1986630  41.5387930
  41.9667260  80.2555910  38.4840180  42.2693160  80.2623340  37.5759330
  42.7061850  79.9053770  38.9807840  46.8015900  95.0212770  53.4656620
  46.7274600  95.9247910  53.7728990  45.8994740  94.7024670  53.4378690
  45.1852190  79.1990530  39.4696380  44.8374190  78.5214520  38.8898830
  45.3864960  78.7380040  40.2839770  40.9897390  89.5598330  39.3169980
  41.4272260  90.1028000  39.9727560  41.4745120  88.7345280  39.3266320
  38.2043190  92.3487360  46.7690240  38.5346200  91.4808420  46.5368880
  38.6334190  92.5545880  47.5995200  42.8005110  90.6796370  44.4292210
  42.5000650  90.5561340  45.3296120  42.6942600  89.8204960  44.0207940
  38.6933400  93.2157950  49.5071870  38.2564390  93.3958750  50.3396020
  39.2611080  93.9732570  49.3653590  38.5257830  85.7278180  45.8660750
  37.8706670  85.4589820  45.2220450  39.3635780  85.6182660  45.4162730
  37.7395910  82.9377110  41.8086080  36.8359990  83.2007310  41.6337740
  38.2236530  83.2088280  41.0286040  40.2823120  81.9942650  39.7180460
  40.9914820  81.5725870  39.2327740  39.5663060  82.0617880  39.0863810
  39.6189470  77.2988170  48.6605730  40.2665660  76.7485550  48.2200890
  40.0391310  77.5531320  49.4821540  39.3721470  77.4543840  51.4031050
  39.0236290  77.9107660  52.1689230  39.0409170  76.5600970  51.4853480
  44.6791870  92.1823030  51.1693960  44.4383230  92.4497590  50.2824480
  45.6194510  92.3528760  51.2244820  46.8846290  78.6455720  54.9250470
  46.8235180  79.2377550  55.6745880  47.8246670  78.5381680  54.7800730
  40.0442110  76.9820040  54.6781820  40.5925100  76.8008090  53.9147930
  40.1097420  76.1914150  55.2138130  40.4486100  90.9384070  51.6390060
  39.7220160  90.3189360  51.5716010  40.5095250  91.3324680  50.7688140
  44.0531200  93.1529070  48.4239470  44.5696220  92.5416430  47.8987730
  44.7028580  93.6557850  48.9150480  46.7926700  94.0437560  49.2508450
  47.0804510  93.7891860  48.3741460  47.3049920  93.4914920  49.8414020
  48.0103710  77.7827760  49.8304960  47.2275500  78.2573260  50.1101720
  47.7166640  76.8782590  49.7218140  38.7316100  94.2558460  44.8486820
  38.5638140  93.6229140  45.5468710  37.8650610  94.4617860  44.4981010
  45.8957930  80.2014510  45.3420990  45.0832440  79.8271400  45.0016870
  46.3999570  79.4459590  45.6442180  40.3378800  92.9491690  42.2936960
  39.8126420  93.3299720  41.5898920  40.2623380  93.5742460  43.0146670
  41.7269270  78.6139290  40.8920650  42.2562030  77.8269090  40.7628600
  42.3597590  79.2930480  41.1256180  43.9207110  78.3514430  43.9466040
  43.2909850  77.6501740  44.1136170  43.3812250  79.1118560  43.7299200
  44.0462670  77.6298410  56.3818530  43.7646940  78.1332010  55.6179350
  44.4282370  76.8320160  56.0160660  42.9371770  94.8974070  41.1686210
  43.6690590  94.6133350  40.6210100  43.1965440  94.6587350  42.0585590
  42.0986560  91.0138800  41.1732540  41.4695440  91.4823900  41.7218370
  42.2134390  90.1688020  41.6078730  41.7020150  87.1543290  30.0818770
  40.8705030  86.8992000  30.4815280  42.3101130  87.2254060  30.8176690
  51.7061750  91.2483670  27.9842140  51.2443280  90.4770910  28.3129310
  52.5187300  91.2749740  28.4894590  40.1112100  82.1145180  23.8661160
  39.2228800  82.4561150  23.7641040  40.3953290  81.9145500  22.9741990
  38.0745110  84.7150830  29.7500860  38.6461220  83.9473030  29.7504500
  38.0746650  85.0139590  28.8407470  47.9325060  93.5341680  27.6046130
  47.3136500  93.9899180  27.0340570  48.7876840  93.6893140  27.2035830
  39.3169980  80.1235190  31.5369790  39.1372820  79.2260940  31.8172550
  38.9150060  80.6707060  32.2116740  42.2873490  80.6976680  24.8999540
  42.3940240  81.5980410  25.2068300  41.3765850  80.6494650  24.6094190
  51.9392600  79.8201490  26.3710440  52.7602220  79.3298060  26.4135920
  51.9726680  80.4099150  27.1242280  39.9356650  82.6195690  30.1452130
  40.6166760  82.8834060  30.7639530  39.6204700  81.7796560  30.4790140
  43.6620170  87.9456790  31.6761640  43.3289550  88.5725710  32.3182710
  43.8386850  88.4718670  30.8963310  52.1754080  81.7601870  29.1437980
  51.4709650  82.0486760  29.7241090  52.5366240  82.5701980  28.7837540
  42.8739270  89.9137590  33.4910820  43.4913270  90.5888670  33.2095270
  42.0132390  90.3225570  33.3998320  38.1671610  89.1037450  22.3717670
  37.7899590  89.5924550  21.6402570  38.4244680  89.7762730  23.0024200
  51.3275600  93.2221130  30.1210640  51.3402760  92.8183420  29.2532900
  50.7750820  93.9968420  30.0172070  52.6221020  89.9437350  25.2100810
  52.5117350  89.0011680  25.3350230  52.6189270  90.3052990  26.0963570
  50.7261040  88.1250970  31.4493250  51.1429830  87.9111080  30.6146710
  51.4500860  88.3823760  32.0201870  48.1510380  81.8419670  21.5630460
  47.2114050  82.0033630  21.6482920  48.4693640  82.5605350  21.0166450
  52.1938590  87.1322970  25.0698550  51.5751010  86.7942520  24.4224850
  52.1763040  86.4882730  25.7777740  51.6365150  83.3107510  32.4864360
  51.2236330  84.1361220  32.7404350  50.9041100  82.7252550  32.2940720
  44.2379640  89.7834970  29.5122240  43.9407930  89.1780440  28.8330020
  45.1879460  89.8212280  29.4011600  42.4826560  82.8710620  31.1282070
  43.0341150  82.9805960  30.3535320  42.9970070  83.2448220  31.8437300
  52.3265250  93.3566840  33.1745340  51.8495810  94.1639030  32.9817950
  51.6427040  92.7045170  33.3271550  43.3298070  89.5216660  36.1630040
  42.4326600  89.7456630  36.4103440  43.3550940  89.6451600  35.2141440
  50.3703290  86.3709780  22.0771300  50.8096570  85.5332210  21.9309120
  51.0831710  87.0039180  22.1635440  42.1569290  86.3929980  34.7387410
  42.0177060  87.2652780  35.1074810  41.2750650  86.0502790  34.5935350
  48.4798670  91.3105850  26.0452540  48.9194580  92.0530180  25.6307930
  48.4185560  91.5532420  26.9691500  43.9549640  92.3351680  36.9472560
  43.9265070  92.7394630  36.0800990  43.7914610  91.4062040  36.7844160
  53.9520430  77.6252590  20.3912340  53.6393090  77.7179420  21.2911410
  54.7132900  78.2033620  20.3409770  38.1087940  88.1627530  30.6558320
  38.1868360  88.2976300  29.7114040  38.7229620  87.4543420  30.8486440
  39.3535570  89.8627720  27.0664500  38.9463650  90.0042310  26.2118100
  40.2448580  89.5787880  26.8635710  55.3097710  90.3091630  35.4036740
  55.4360770  90.0703510  34.4853920  55.3519090  89.4776170  35.8758820
  49.1714450  94.0119630  33.9731550  49.6859120  93.9227640  34.7753980
  48.3283530  94.3579330  34.2659460  43.6257230  94.0773500  25.1787170
  43.4499710  93.1609040  24.9654970  42.7712970  94.4360790  25.4184970
  50.8494980  91.8062530  21.9613550  50.1560140  91.8039820  21.3015830
  51.5917840  91.3821850  21.5307720  50.4144910  93.4325240  26.0362040
  50.8701860  92.6514620  26.3500660  50.7537430  94.1432060  26.5803220
  55.1621720  82.3624090  36.3686480  54.5465990  82.8703760  35.8401940
  54.8418140  81.4622420  36.3112420  38.1647460  89.2041700  33.1952780
  38.3278500  88.7347060  32.3772150  38.6299910  88.6965260  33.8601620
  42.9366230  78.3347460  28.2313350  42.4934380  79.1157000  27.8997870
  43.4951220  78.6577350  28.9384290  47.2236040  81.2015980  33.8348670
  46.7615410  81.4099000  34.6468610  46.8214150  80.3875330  33.5319340
  52.2240550  82.4224930  34.9645330  51.3734140  82.1230680  35.2854400
  52.0642340  82.6666940  34.0529150  49.3190260  83.9226680  37.0644120
  49.6443670  83.0890430  36.7246350  50.1070590  84.4455200  37.2122450
  44.9742130  78.8794790  30.0902950  45.2714460  79.7857620  30.0094970
  45.5227690  78.3913570  29.4762520  42.7280450  83.4581030  25.9594600
  42.5021370  83.2418200  26.8641220  41.9472980  83.8909490  25.6140570
  49.9578210  83.4644400  24.5585250  49.3587100  84.1880200  24.3748870
  50.5057820  83.4021180  23.7761700  45.1679660  84.3566610  36.6254870
  45.0723260  83.4161340  36.4755270  46.0111640  84.5781680  36.2302940
  46.8735250  80.8515250  37.8485390  46.1833570  80.6587450  38.4831480
  47.6167550  81.1349890  38.3809690  37.6007250  78.6908740  28.8118730
  37.3120300  79.2611600  29.5243710  38.3453010  78.2113190  29.1749960
  37.7877480  82.6328860  20.0221450  37.7052150  83.5759620  20.1636440
  37.4360540  82.4903770  19.1433800  41.4377990  81.2494380  28.0486010
  41.0978040  81.7269610  28.8053060  40.6755310  80.7959500  27.6887110
  45.6495760  82.3679970  22.0798560  45.7708580  82.3266450  23.0284380
  45.2644270  83.2304120  21.9245290  49.6124130  80.1447370  30.0962250
  49.6296870  80.5956020  30.9404100  49.3639710  79.2453010  30.3095690
  53.0394880  77.5579550  35.9348630  53.3640650  76.8269210  36.4606610
  53.0751390  77.2393190  35.0329620  39.7386440  88.5793130  35.3548590
  39.3541230  87.9386800  35.9531550  40.0498630  89.2829250  35.9243320
  38.7524070  80.1713360  26.9650680  38.4670990  79.8069030  27.8029300
  38.6902930  79.4393820  26.3513820  43.6782950  84.4678310  33.1541420
  43.3740020  85.3470290  33.3791780  44.6329410  84.5278100  33.1898860
  48.4262660  79.0642620  23.6864050  47.6127270  78.5655790  23.6109360
  48.2324610  79.9040870  23.2700400  48.3471520  87.7413720  35.4303660
  48.2808830  86.8209390  35.1761250  47.7176660  87.8389160  36.1448300
  51.1411050  83.4362270  21.9826210  52.0290670  83.7479500  21.8077550
  51.1116140  82.5634520  21.5906790  42.9359800  85.7665290  37.1852330
  42.6359940  85.9122470  36.2880150  43.7071040  85.2070580  37.0925720
  48.2788250  90.5634290  35.1807460  48.2932790  89.6315250  34.9626370
  47.5713350  90.6494050  35.8197230  54.4899460  87.2041630  34.5276040
  53.7647650  87.7970410  34.3305430  55.0174920  87.1965170  33.7289410
  38.2454730  85.3072310  20.9247380  39.1149580  85.5897110  21.2083300
  37.7545050  86.1208180  20.8096190  47.7122150  92.2051860  32.2747960
  48.3564370  92.4111240  32.9521380  48.0751590  91.4440260  31.8218810
  41.3101320  77.0383170  25.5178180  41.1815950  77.0301070  26.4663100
  40.4863340  77.3766260  25.1669190  48.9854230  90.2084210  30.9925410
  49.6276460  89.5077370  31.1057580  49.5103580  90.9882650  30.8122300
  50.7591850  91.0079110  34.1961470  51.0948090  91.5945800  34.8739390
  49.8392190  90.8771820  34.4259260  38.6125980  94.5199690  21.4909010
  38.9723620  95.1189030  20.8366280  38.4718320  95.0659580  22.2644040
  38.5967840  92.7854550  35.9651410  38.7058960  91.8449290  35.8246800
  37.9448400  93.0509300  35.3165140  46.5880430  91.0570440  37.3649530
  46.2677300  90.3379680  37.9095220  45.9138790  91.7325510  37.4385590
  49.8034030  81.2896600  32.7286330  50.1714850  80.4691810  33.0565900
  48.9432230  81.3498490  33.1441980  53.1696060  80.2453540  23.5373890
  52.5409220  80.3499210  22.8232120  52.6747980  80.4650320  24.3267770
  47.6154200  91.9659130  20.9707870  47.7166180  91.7623120  20.0409850
  46.7155940  91.7117410  21.1755650  45.1380090  82.5239490  24.9531770
  44.4296240  82.9925830  25.3945380  45.4224570  81.8661500  25.5876960
  46.7636020  83.9436190  32.9524300  47.2621270  84.4182010  33.6176150
  46.9058970  83.0199710  33.1594330  49.1695520  79.2490150  26.3927560
  49.0463300  79.2676280  25.4437070  50.1180080  79.2969090  26.5125960
  46.2572310  94.4845450  25.6655540  46.5113810  94.4466840  24.7434910
  45.3084790  94.3578780  25.6583790  43.3415110  80.8324570  22.3282480
  44.1905640  81.2694720  22.2622670  42.9746380  81.1444830  23.1554540
  53.9702880  80.1604150  33.7952690  53.4676480  80.9009550  34.1346500
  54.7859540  80.5488150  33.4789480  52.2624890  85.4037330  27.2414050
  51.3215030  85.4187560  27.4161740  52.5768960  84.6173290  27.6874350
  40.9353290  84.5182000  21.4850900  41.0156880  83.5709510  21.5968300
  41.8273040  84.8488880  21.5911560  38.6213480  90.7350960  24.4626950
  37.6953260  90.9772100  24.4532360  39.0869910  91.5625220  24.3411700
  40.7426280  93.8523460  37.7771020  41.5439010  94.1735510  38.1906420
  40.2278100  93.4919040  38.4990930  44.8470310  93.8407700  20.4111010
  45.6398920  94.1296530  19.9592800  44.3274660  93.4099870  19.7323490
  45.5162030  87.7467910  36.2542590  44.7507700  88.3152910  36.1697260
  45.6977990  87.4544120  35.3610820  48.6050440  88.1231140  20.8795350
  48.0560540  88.5700440  21.5238090  49.2269700  87.6180390  21.4033020
  52.6585380  89.4773240  36.8117610  53.3994850  89.8149000  36.3085070
  51.8958060  89.6465300  36.2587380  42.4352980  83.0618610  35.5831630
  41.9049440  82.5709560  34.9554970  43.1041050  83.4902810  35.0489560
  46.7853200  86.1059670  20.0237750  47.3058860  85.3908690  19.6578900
  47.4321600  86.7445540  20.3238260  51.3331040  87.5288070  35.3472820
  51.7472060  87.6833150  36.1963240  50.3982040  87.6543290  35.5098600
  51.8053210  84.8684230  37.3511970  52.3873980  84.1136550  37.2632450
  51.9814980  85.3991670  36.5743450  46.0946270  87.4808550  33.3168750
  46.5134380  88.3241280  33.1444990  45.1754900  87.6180590  33.0875530
  48.4310170  85.2124730  34.7006590  48.5506380  84.6165870  35.4401430
  49.2904170  85.2494420  34.2807890  50.7698070  85.7661920  33.2769100
  50.2433290  86.2904540  32.6734240  51.1129410  86.3989310  33.9078830
  43.1684460  83.1555290  19.7218810  42.9673520  82.2922650  20.0832150
  42.9976510  83.0688650  18.7840410  43.9453690  93.7861560  34.4326480
  43.4074780  94.5107620  34.1135180  44.1987650  93.3091900  33.6423820
  50.0172370  81.3711890  36.1915430  49.3287890  80.7093430  36.1265420
  50.7378390  80.9250160  36.6363890  50.6472770  77.9663520  22.2505690
  50.9275060  77.1231420  22.6065110  49.8738500  78.1986630  22.7644440
  41.9667260  80.2555910  19.7096690  42.2693160  80.2623340  18.8015840
  42.7061850  79.9053770  20.2064350  45.1852190  79.1990530  20.6952890
  44.8374190  78.5214520  20.1155340  45.3864960  78.7380040  21.5096280
  47.3501230  94.1871280  22.3139490  48.2452020  94.5256250  22.3358250
  47.3818860  93.4650690  21.6863770  40.9897390  89.5598330  20.5426490
  41.4272260  90.1028000  21.1984070  41.4745120  88.7345280  20.5522830
  54.3295580  92.7174950  35.0205690  53.7297570  92.7767510  34.2769610
  54.4589480  91.7779930  35.1502540  38.5257830  85.7278180  27.0917260
  37.8706670  85.4589820  26.4476960  39.3635780  85.6182660  26.6419240
  51.4748270  80.5219470  21.3135750  51.8933150  80.3350450  20.4732410
  51.1684330  79.6698520  21.6238680  39.5633760  86.1130750  31.6320600
  39.9306800  86.0258150  32.5116620  38.9944580  85.3497300  31.5327460
  54.3637620  84.5815130  34.6451070  54.1323710  84.3527880  33.7449020
  54.6242170  85.5014680  34.5995960  37.7395910  82.9377110  23.0342590
  36.8359990  83.2007310  22.8594250  38.2236530  83.2088280  22.2542550
  54.2488960  83.6601100  28.3118790  54.7726440  83.1663750  27.6808960
  54.8348380  83.7951460  29.0566360  54.4278680  83.7440970  31.8338340
  53.4781390  83.7104510  31.9483330  54.6091690  84.6541080  31.5988110
  40.2823120  81.9942650  20.9436970  40.9914820  81.5725870  20.4584250
  39.5663060  82.0617880  20.3120320  39.9297280  78.0481980  19.9839620
  40.6525410  78.5890920  20.3020840  40.2021800  77.7745400  19.1081160
  53.7388930  82.9174450  24.2511200  54.2348050  82.6845320  25.0360080
  53.5405000  82.0786290  23.8348840  39.6189470  77.2988170  29.8862240
  40.2665660  76.7485550  29.4457400  40.0391310  77.5531320  30.7078050
  53.5141810  77.4929530  33.2431880  54.1514030  78.1063670  33.6091070
  53.6616700  77.5290190  32.2981110  56.0566360  79.3843320  20.0255020
  56.9815670  79.2524500  19.8173310  56.0342150  79.4636140  20.9791470
  56.1304850  80.1553980  22.6511730  55.3356350  80.0899100  23.1804640
  56.3348130  81.0904620  22.6397080  53.0723270  94.1945530  26.6450120
  53.6682340  93.8730100  25.9684540  53.3301420  93.7217350  27.4363390
  40.9785840  90.6263440  36.7940750  40.9355470  90.2556350  37.6755210
  41.1096850  91.5641010  36.9342570  44.6791870  92.1823030  32.3950470
  44.4383230  92.4497590  31.5080990  45.6194510  92.3528760  32.4501330
  49.5220850  78.3025780  35.7899270  50.1361260  78.6205070  35.1280350
  50.0670410  77.8174370  36.4095130  55.9396030  94.2017410  33.1961110
  55.4454310  94.5986280  32.4788240  55.3309320  93.5766620  33.5898390
  40.8173870  93.5725690  33.9138530  40.2234190  93.4410390  34.6528570
  40.8097710  92.7363830  33.4480630  51.1700870  79.0728790  33.5010280
  50.8414230  78.2580550  33.1212010  52.1183170  79.0298600  33.3775970
  53.6235480  94.8440830  30.4747850  53.1638450  95.5956640  30.1005870
  52.9947940  94.1247300  30.4162650  40.4486100  90.9384070  32.8646570
  39.7220160  90.3189360  32.7972520  40.5095250  91.3324680  31.9944650
  52.5624780  78.4850860  29.1010560  53.0032870  78.4295960  28.2532160
  52.2932370  79.4008870  29.1720740  54.4263350  78.1166100  27.1119380
  54.3651750  77.1727320  26.9650400  55.2055380  78.2246190  27.6572840
  39.3544120  78.0875240  23.5775190  40.1123480  78.2004120  23.0039220
  38.8921290  78.9244440  23.5318620  45.8957930  80.2014510  26.5677500
  45.0832440  79.8271400  26.2273380  46.3999570  79.4459590  26.8698690
  50.3982910  76.8656960  27.8060570  51.0012280  77.4377170  28.2809090
  49.6575900  77.4296400  27.5834470  53.5417510  77.2678520  23.0800850
  53.7368140  78.1661970  23.3468280  52.7547380  77.0365600  23.5733800
  40.3378800  92.9491690  23.5193470  39.8126420  93.3299720  22.8155430
  40.2623380  93.5742460  24.2403180  41.7269270  78.6139290  22.1177160
  42.2562030  77.8269090  21.9885110  42.3597590  79.2930480  22.3512690
  44.0462670  77.6298410  37.6075040  43.7646940  78.1332010  36.8435860
  44.4282370  76.8320160  37.2417170  42.9371770  94.8974070  22.3942720
  43.6690590  94.6133350  21.8466610  43.1965440  94.6587350  23.2842100
  50.6478130  77.0451990  38.1855510  50.5343580  77.3646600  39.0807030
  51.4647870  77.4464500  37.8892790  49.5536280  85.0644460   8.5490250
  49.4730330  84.1499070   8.2781960  49.1400700  85.5611530   7.8429960
  47.6854320  86.8423480  10.4299520  46.9096420  86.3623920  10.7198090
  48.3367250  86.1629130  10.2555680  41.7020150  87.1543290  11.3075280
  40.8705030  86.8992000  11.7071790  42.3101130  87.2254060  12.0433200
  51.7061750  91.2483670   9.2098650  51.2443280  90.4770910   9.5385820
  52.5187300  91.2749740   9.7151100  41.6821410  91.1883380  11.5033300
  41.9849450  90.2981120  11.3243520  42.4265000  91.7453600  11.2755550
  40.1112100  82.1145180   5.0917670  39.2228800  82.4561150   4.9897550
  40.3953290  81.9145500   4.1998500  38.0745110  84.7150830  10.9757370
  38.6461220  83.9473030  10.9761010  38.0746650  85.0139590  10.0663980
  47.9325060  93.5341680   8.8302640  47.3136500  93.9899180   8.2597080
  48.7876840  93.6893140   8.4292340  47.1263310  89.5180670  10.4369680
  47.0571590  88.5770610  10.2758810  47.8883170  89.6082080  11.0092250
  39.3169980  80.1235190  12.7626300  39.1372820  79.2260940  13.0429060
  38.9150060  80.6707060  13.4373250  48.1568480  82.3251050  10.6638610
  48.5333300  81.4522930  10.5512280  48.0587990  82.6609750   9.7729050
  42.2873490  80.6976680   6.1256050  42.3940240  81.5980410   6.4324810
  41.3765850  80.6494650   5.8350700  51.9392600  79.8201490   7.5966950
  52.7602220  79.3298060   7.6392430  51.9726680  80.4099150   8.3498790
  39.9356650  82.6195690  11.3708640  40.6166760  82.8834060  11.9896040
  39.6204700  81.7796560  11.7046650  44.1281220  83.6663050  10.4581230
  44.6359440  84.1644020  11.0986250  44.6594460  82.8898250  10.2820590
  42.4117320  78.3061610  14.7244650  42.4135760  78.8234000  13.9190550
  41.5821630  77.8291790  14.7014580  48.7988410  88.4180920   6.2234550
  48.1805680  88.8830370   5.6597270  49.3111660  89.1108400   6.6404060
  43.6620170  87.9456790  12.9018150  43.3289550  88.5725710  13.5439220
  43.8386850  88.4718670  12.1219820  52.1754080  81.7601870  10.3694490
  51.4709650  82.0486760  10.9497600  52.5366240  82.5701980  10.0094050
  42.0932650  80.0171570  12.7315100  42.4349460  80.8613620  12.4368970
  41.1548460  80.1655310  12.8480440  42.8739270  89.9137590  14.7167330
  43.4913270  90.5888670  14.4351780  42.0132390  90.3225570  14.6254830
  38.1671610  89.1037450   3.5974180  37.7899590  89.5924550   2.8659080
  38.4244680  89.7762730   4.2280710  53.7916860  91.3777000  12.6321970
  53.1080380  92.0476110  12.6238640  54.3311150  91.5757650  11.8666830
  55.2441000  81.2056660  10.7603700  54.2965910  81.2395640  10.8919130
  55.5690990  82.0195610  11.1453060  45.7760540  77.5053840   9.0559690
  46.0835520  76.9500730   8.3395190  44.8461240  77.6398300   8.8732680
  51.3275600  93.2221130  11.3467150  51.3402760  92.8183420  10.4789410
  50.7750820  93.9968420  11.2428580  52.6221020  89.9437350   6.4357320
  52.5117350  89.0011680   6.5606740  52.6189270  90.3052990   7.3220080
  50.7261040  88.1250970  12.6749760  51.1429830  87.9111080  11.8403220
  51.4500860  88.3823760  13.2458380  48.1641300  85.5702670   5.7919810
  47.2370580  85.5040050   6.0208280  48.3166120  86.5082800   5.6775050
  48.1510380  81.8419670   2.7886970  47.2114050  82.0033630   2.8739430
  48.4693640  82.5605350   2.2422960  54.6723140  86.5238190  12.7666000
  53.8441770  86.5931280  12.2916130  55.2673620  87.1092500  12.2981830
  52.1938590  87.1322970   6.2955060  51.5751010  86.7942520   5.6481360
  52.1763040  86.4882730   7.0034250  51.6365150  83.3107510  13.7120870
  51.2236330  84.1361220  13.9660860  50.9041100  82.7252550  13.5197230
  43.7697940  86.0967410   8.5739540  43.3654940  85.3844660   8.0785440
  43.8561060  85.7520650   9.4627580  44.2379640  89.7834970  10.7378750
  43.9407930  89.1780440  10.0586530  45.1879460  89.8212280  10.6268110
  42.4826560  82.8710620  12.3538580  43.0341150  82.9805960  11.5791830
  42.9970070  83.2448220  13.0693810  52.3265250  93.3566840  14.4001850
  51.8495810  94.1639030  14.2074460  51.6427040  92.7045170  14.5528060
  43.3298070  89.5216660  17.3886550  42.4326600  89.7456630  17.6359950
  43.3550940  89.6451600  16.4397950  50.3703290  86.3709780   3.3027810
  50.8096570  85.5332210   3.1565630  51.0831710  87.0039180   3.3891950
  42.1569290  86.3929980  15.9643920  42.0177060  87.2652780  16.3331320
  41.2750650  86.0502790  15.8191860  48.4798670  91.3105850   7.2709050
  48.9194580  92.0530180   6.8564440  48.4185560  91.5532420   8.1948010
  43.9549640  92.3351680  18.1729070  43.9265070  92.7394630  17.3057500
  43.7914610  91.4062040  18.0100670  40.4702570  84.9912390   6.0746190
  40.3500170  85.7174480   5.4627460  40.1603460  84.2215300   5.5974100
  38.1087940  88.1627530  11.8814830  38.1868360  88.2976300  10.9370550
  38.7229620  87.4543420  12.0742950  39.3535570  89.8627720   8.2921010
  38.9463650  90.0042310   7.4374610  40.2448580  89.5787880   8.0892220
  55.3097710  90.3091630  16.6293250  55.4360770  90.0703510  15.7110430
  55.3519090  89.4776170  17.1015330  49.1714450  94.0119630  15.1988060
  49.6859120  93.9227640  16.0010490  48.3283530  94.3579330  15.4915970
  51.1468850  94.2974970   4.6272060  50.9869990  94.0077910   5.5253890
  50.9815560  93.5215100   4.0917290  43.6257230  94.0773500   6.4043680
  43.4499710  93.1609040   6.1911480  42.7712970  94.4360790   6.6441480
  50.8494980  91.8062530   3.1870060  50.1560140  91.8039820   2.5272340
  51.5917840  91.3821850   2.7564230  50.4144910  93.4325240   7.2618550
  50.8701860  92.6514620   7.5757170  50.7537430  94.1432060   7.8059730
  38.1647460  89.2041700  14.4209290  38.3278500  88.7347060  13.6028660
  38.6299910  88.6965260  15.0858130  42.9366230  78.3347460   9.4569860
  42.4934380  79.1157000   9.1254380  43.4951220  78.6577350  10.1640800
  47.2236040  81.2015980  15.0605180  46.7615410  81.4099000  15.8725120
  46.8214150  80.3875330  14.7575850  49.3190260  83.9226680  18.2900630
  49.6443670  83.0890430  17.9502860  50.1070590  84.4455200  18.4378960
  46.0525050  77.9558160   4.3375690  45.4279230  77.9518030   5.0629000
  45.9655170  77.0889120   3.9411660  44.9742130  78.8794790  11.3159460
  45.2714460  79.7857620  11.2351480  45.5227690  78.3913570  10.7019030
  42.7280450  83.4581030   7.1851110  42.5021370  83.2418200   8.0897730
  41.9472980  83.8909490   6.8397080  49.9578210  83.4644400   5.7841760
  49.3587100  84.1880200   5.6005380  50.5057820  83.4021180   5.0018210
  45.1679660  84.3566610  17.8511380  45.0723260  83.4161340  17.7011780
  46.0111640  84.5781680  17.4559450  48.5643080  82.1007940   7.8145040
  48.9572650  82.4180140   7.0013730  48.9259930  81.2219820   7.9289560
  40.2990200  80.7680280  16.0045160  39.9053590  81.6155490  16.2117940
  39.6108600  80.1306650  16.1953800  46.8735250  80.8515250  19.0741900
  46.1833570  80.6587450  19.7087990  47.6167550  81.1349890  19.6066200
  37.6007250  78.6908740  10.0375240  37.3120300  79.2611600  10.7500220
  38.3453010  78.2113190  10.4006470  49.1498220  84.6913690  11.9095820
  48.4179340  85.2000500  12.2585920  48.7522560  83.8743670  11.6084600
  45.5875610  81.3667890  10.3148310  45.5911670  80.9257840   9.4652850
  46.4826730  81.6885220  10.4220130  41.4377990  81.2494380   9.2742520
  41.0978040  81.7269610  10.0309570  40.6755310  80.7959500   8.9143620
  45.6495760  82.3679970   3.3055070  45.7708580  82.3266450   4.2540890
  45.2644270  83.2304120   3.1501800  49.6124130  80.1447370  11.3218760
  49.6296870  80.5956020  12.1660610  49.3639710  79.2453010  11.5352200
  44.6617260  84.6781110   2.7038370  44.0934160  84.2299360   2.0774280
  45.3706260  85.0373890   2.1703520  53.0394880  77.5579550  17.1605140
  53.3640650  76.8269210  17.6863120  53.0751390  77.2393190  16.2586130
  39.7386440  88.5793130  16.5805100  39.3541230  87.9386800  17.1788060
  40.0498630  89.2829250  17.1499830  45.8883580  85.4269670  12.0613720
  46.2553710  84.9528240  12.8075060  45.6988640  86.3011240  12.4022060
  38.7524070  80.1713360   8.1907190  38.4670990  79.8069030   9.0285810
  38.6902930  79.4393820   7.5770330  43.6782950  84.4678310  14.3797930
  43.3740020  85.3470290  14.6048290  44.6329410  84.5278100  14.4155370
  42.2064740  88.6739300   4.9764780  41.4327000  88.1336920   4.8163500
  42.9359370  88.1545910   4.6382540  52.9652720  87.6704660  10.7691170
  53.6851840  88.1659950  10.3787280  52.7634540  86.9922550  10.1245040
  48.4262660  79.0642620   4.9120560  47.6127270  78.5655790   4.8365870
  48.2324610  79.9040870   4.4956910  48.3471520  87.7413720  16.6560170
  48.2808830  86.8209390  16.4017760  47.7176660  87.8389160  17.3704810
  51.1411050  83.4362270   3.2082720  52.0290670  83.7479500   3.0334060
  51.1116140  82.5634520   2.8163300  42.2502140  88.3419680   8.6143590
  42.7680810  87.5387940   8.5600480  41.7986160  88.2798820   9.4560420
  47.1371640  89.6085960   3.8870890  47.4787340  90.3528190   3.3914210
  46.3084350  89.9217080   4.2495720  39.7346680  85.3081050  15.5269290
  39.3761620  85.9734900  16.1142630  39.4401240  84.4764600  15.8981910
  42.9359800  85.7665290  18.4108840  42.6359940  85.9122470  17.5136660
  43.7071040  85.2070580  18.3182230  48.2788250  90.5634290  16.4063970
  48.2932790  89.6315250  16.1882880  47.5713350  90.6494050  17.0453740
  53.4125320  84.7474110   2.6762580  53.3289040  85.1788330   1.8259020
  54.1319510  85.2072460   3.1089400  54.4412570  91.6016370   5.4044710
  53.7988730  90.9471990   5.6788430  54.0543230  92.0071460   4.6285380
  50.0199050  88.9301800   9.2516400  50.3722870  88.3329930   8.5917770
  49.1361380  88.6046030   9.4224650  46.1062330  89.6899490   6.6586810
  46.7933460  90.2368700   7.0394400  45.3194750  90.2340220   6.6936420
  38.2454730  85.3072310   2.1503890  39.1149580  85.5897110   2.4339810
  37.7545050  86.1208180   2.0352700  45.4089540  86.6945520   6.2712170
  45.8652320  87.5050770   6.4972360  45.0577750  86.3768660   7.1030660
  47.7122150  92.2051860  13.5004470  48.3564370  92.4111240  14.1777890
  48.0751590  91.4440260  13.0475320  41.3101320  77.0383170   6.7434690
  41.1815950  77.0301070   7.6919610  40.4863340  77.3766260   6.3925700
  48.9854230  90.2084210  12.2181920  49.6276460  89.5077370  12.3314090
  49.5103580  90.9882650  12.0378810  50.7591850  91.0079110  15.4217980
  51.0948090  91.5945800  16.0995900  49.8392190  90.8771820  15.6515770
  38.6125980  94.5199690   2.7165520  38.9723620  95.1189030   2.0622790
  38.4718320  95.0659580   3.4900550  38.3095250  78.7974290  16.2041390
  37.5953770  78.9971210  16.8094000  38.7290290  78.0213860  16.5756190
  52.4126200  88.4104770   3.6035220  52.1247900  88.8717460   4.3913100
  53.2078370  87.9502540   3.8719440  38.5967840  92.7854550  17.1907920
  38.7058960  91.8449290  17.0503310  37.9448400  93.0509300  16.5421650
  46.5880430  91.0570440  18.5906040  46.2677300  90.3379680  19.1351730
  45.9138790  91.7325510  18.6642100  44.6294600  91.9030890   3.5339190
  44.6204700  92.6360580   2.9183700  43.7092960  91.6562470   3.6266150
  40.2301240  87.1245780   4.2785950  39.6229190  87.8644680   4.2881250
  40.7050590  87.2145140   3.4524150  49.8034030  81.2896600  13.9542840
  50.1714850  80.4691810  14.2822410  48.9432230  81.3498490  14.3698490
  53.1696060  80.2453540   4.7630400  52.5409220  80.3499210   4.0488630
  52.6747980  80.4650320   5.5524280  45.1380090  82.5239490   6.1788280
  44.4296240  82.9925830   6.6201890  45.4224570  81.8661500   6.8133470
  46.7636020  83.9436190  14.1780810  47.2621270  84.4182010  14.8432660
  46.9058970  83.0199710  14.3850840  49.1695520  79.2490150   7.6184070
  49.0463300  79.2676280   6.6693580  50.1180080  79.2969090   7.7382470
  46.2572310  94.4845450   6.8912050  46.5113810  94.4466840   5.9691420
  45.3084790  94.3578780   6.8840300  43.3415110  80.8324570   3.5538990
  44.1905640  81.2694720   3.4879180  42.9746380  81.1444830   4.3811050
  53.9702880  80.1604150  15.0209200  53.4676480  80.9009550  15.3603010
  54.7859540  80.5488150  14.7045990  52.2624890  85.4037330   8.4670560
  51.3215030  85.4187560   8.6418250  52.5768960  84.6173290   8.9130860
  40.9353290  84.5182000   2.7107410  41.0156880  83.5709510   2.8224810
  41.8273040  84.8488880   2.8168070  54.2650470  92.5746180  10.1424820
  54.3897890  93.3977350  10.6148630  55.1316030  92.3636910   9.7948970
  41.7368000  94.6677390   9.8141950  42.4730480  94.1192850  10.0850520
  42.1208920  95.5333400   9.6747940  38.6213480  90.7350960   5.6883460
  37.6953260  90.9772100   5.6788870  39.0869910  91.5625220   5.5668210
  40.7426280  93.8523460  19.0027530  41.5439010  94.1735510  19.4162930
  40.2278100  93.4919040  19.7247440  49.5790910  89.9603330  18.9502940
  48.9729070  89.9834930  18.2098690  49.2745020  89.2286370  19.4870190
  53.9000480  93.0677830   3.0604260  53.6141990  92.6542970   2.2458440
  53.7020030  93.9965540   2.9404780  38.4624090  86.3396920  17.9463580
  38.9663110  85.7604200  18.5179810  37.7231510  86.6237150  18.4839950
  45.5162030  87.7467910  17.4799100  44.7507700  88.3152910  17.3953770
  45.6977990  87.4544120  16.5867330  48.6050440  88.1231140   2.1051860
  48.0560540  88.5700440   2.7494600  49.2269700  87.6180390   2.6289530
  52.6585380  89.4773240  18.0374120  53.3994850  89.8149000  17.5341580
  51.8958060  89.6465300  17.4843890  40.4947170  84.4826510  18.8413650
  40.5352510  84.1840380  19.7498880  41.3492670  84.8834120  18.6821170
  44.2725560  87.0822060   4.0017160  44.6941980  86.9161930   4.8448550
  44.3976400  86.2722290   3.5072300  42.4352980  83.0618610  16.8088140
  41.9049440  82.5709560  16.1811480  43.1041050  83.4902810  16.2746070
  51.3331040  87.5288070  16.5729330  51.7472060  87.6833150  17.4219750
  50.3982040  87.6543290  16.7355110  51.8053210  84.8684230  18.5768480
  52.3873980  84.1136550  18.4888960  51.9814980  85.3991670  17.7999960
  42.9225280  80.0280980  16.8885430  42.8282150  79.4101730  16.1636300
  42.3422670  80.7547270  16.6615340  45.6886720  78.5854220  13.9212820
  45.2404020  78.6078480  13.0758370  45.0551920  78.1873240  14.5183120
  46.0946270  87.4808550  14.5425260  46.5134380  88.3241280  14.3701500
  45.1754900  87.6180590  14.3132040  48.4310170  85.2124730  15.9263100
  48.5506380  84.6165870  16.6657940  49.2904170  85.2494420  15.5064400
  50.7698070  85.7661920  14.5025610  50.2433290  86.2904540  13.8990750
  51.1129410  86.3989310  15.1335340  43.9453690  93.7861560  15.6582990
  43.4074780  94.5107620  15.3391690  44.1987650  93.3091900  14.8680330
  45.1978940  81.7546080  17.1838920  45.7878630  81.4461930  17.8716740
  44.3799180  81.2825830  17.3398820  50.0172370  81.3711890  17.4171940
  49.3287890  80.7093430  17.3521930  50.7378390  80.9250160  17.8620400
  50.6472770  77.9663520   3.4762200  50.9275060  77.1231420   3.8321620
  49.8738500  78.1986630   3.9900950  46.8015900  95.0212770  15.9169640
  46.7274600  95.9247910  16.2242010  45.8994740  94.7024670  15.8891710
  47.3501230  94.1871280   3.5396000  48.2452020  94.5256250   3.5614760
  47.3818860  93.4650690   2.9120280  40.9897390  89.5598330   1.7683000
  41.4272260  90.1028000   2.4240580  41.4745120  88.7345280   1.7779340
  38.2043190  92.3487360   9.2203260  38.5346200  91.4808420   8.9881900
  38.6334190  92.5545880  10.0508220  42.8005110  90.6796370   6.8805230
  42.5000650  90.5561340   7.7809140  42.6942600  89.8204960   6.4720960
  38.6933400  93.2157950  11.9584890  38.2564390  93.3958750  12.7909040
  39.2611080  93.9732570  11.8166610  54.3295580  92.7174950  16.2462200
  53.7297570  92.7767510  15.5026120  54.4589480  91.7779930  16.3759050
  55.0253490  87.2040250   4.0866110  55.7872400  87.7736900   4.1925800
  55.0407860  86.6367450   4.8574420  38.5257830  85.7278180   8.3173770
  37.8706670  85.4589820   7.6733470  39.3635780  85.6182660   7.8675750
  56.0313460  88.0590350   8.9308040  56.4022290  87.2757670   8.5244010
  56.6715390  88.7479450   8.7525340  53.0147220  89.4426930  14.3438360
  52.2007060  89.8724090  14.6064150  53.4221420  90.0545340  13.7307410
  51.4748270  80.5219470   2.5392260  51.8933150  80.3350450   1.6988920
  51.1684330  79.6698520   2.8495190  54.9738000  85.4343610   6.2368060
  54.5981600  84.6671540   5.8049350  54.2441120  85.8166310   6.7242990
  39.5633760  86.1130750  12.8577110  39.9306800  86.0258150  13.7373130
  38.9944580  85.3497300  12.7583970  39.1149760  83.0239840  16.7635530
  38.2205810  82.9906600  17.1029240  39.6547310  83.2226630  17.5286780
  52.8025690  79.8071560  18.6487280  53.6795870  79.8154960  19.0321280
  52.8146530  79.0702400  18.0379630  37.7395910  82.9377110   4.2599100
  36.8359990  83.2007310   4.0850760  38.2236530  83.2088280   3.4799060
  54.2488960  83.6601100   9.5375300  54.7726440  83.1663750   8.9065470
  54.8348380  83.7951460  10.2822870  53.7388930  82.9174450   5.4767710
  54.2348050  82.6845320   6.2616590  53.5405000  82.0786290   5.0605350
  39.6189470  77.2988170  11.1118750  40.2665660  76.7485550  10.6713910
  40.0391310  77.5531320  11.9334560  55.1676090  81.5535400   8.0105390
  55.0575370  81.3991440   8.9487660  55.9283680  81.0256340   7.7680800
  53.5141810  77.4929530  14.4688390  54.1514030  78.1063670  14.8347580
  53.6616700  77.5290190  13.5237620  56.1304850  80.1553980   3.8768240
  55.3356350  80.0899100   4.4061150  56.3348130  81.0904620   3.8653590
  53.0723270  94.1945530   7.8706630  53.6682340  93.8730100   7.1941050
  53.3301420  93.7217350   8.6619900  39.3721470  77.4543840  13.8544070
  39.0236290  77.9107660  14.6202250  39.0409170  76.5600970  13.9366500
  40.9785840  90.6263440  18.0197260  40.9355470  90.2556350  18.9011720
  41.1096850  91.5641010  18.1599080  44.6791870  92.1823030  13.6206980
  44.4383230  92.4497590  12.7337500  45.6194510  92.3528760  13.6757840
  46.8846290  78.6455720  17.3763490  46.8235180  79.2377550  18.1258900
  47.8246670  78.5381680  17.2313750  49.5220850  78.3025780  17.0155780
  50.1361260  78.6205070  16.3536860  50.0670410  77.8174370  17.6351640
  55.9396030  94.2017410  14.4217620  55.4454310  94.5986280  13.7044750
  55.3309320  93.5766620  14.8154900  40.0442110  76.9820040  17.1294840
  40.5925100  76.8008090  16.3660950  40.1097420  76.1914150  17.6651150
  40.8173870  93.5725690  15.1395040  40.2234190  93.4410390  15.8785080
  40.8097710  92.7363830  14.6737140  50.2628890  76.8657920  13.3425070
  49.3888730  77.1993030  13.1398000  50.1539640  76.3931100  14.1676940
  51.1700870  79.0728790  14.7266790  50.8414230  78.2580550  14.3468520
  52.1183170  79.0298600  14.6032480  53.6235480  94.8440830  11.7004360
  53.1638450  95.5956640  11.3262380  52.9947940  94.1247300  11.6419160
  40.4486100  90.9384070  14.0903080  39.7220160  90.3189360  14.0229030
  40.5095250  91.3324680  13.2201160  44.0531200  93.1529070  10.8752490
  44.5696220  92.5416430  10.3500750  44.7028580  93.6557850  11.3663500
  46.7926700  94.0437560  11.7021470  47.0804510  93.7891860  10.8254480
  47.3049920  93.4914920  12.2927040  48.0103710  77.7827760  12.2817980
  47.2275500  78.2573260  12.5614740  47.7166640  76.8782590  12.1731160
  52.5624780  78.4850860  10.3267070  53.0032870  78.4295960   9.4788670
  52.2932370  79.4008870  10.3977250  54.4263350  78.1166100   8.3375890
  54.3651750  77.1727320   8.1906910  55.2055380  78.2246190   8.8829350
  38.7316100  94.2558460   7.2999840  38.5638140  93.6229140   7.9981730
  37.8650610  94.4617860   6.9494030  39.3544120  78.0875240   4.8031700
  40.1123480  78.2004120   4.2295730  38.8921290  78.9244440   4.7575130
  45.8957930  80.2014510   7.7934010  45.0832440  79.8271400   7.4529890
  46.3999570  79.4459590   8.0955200  50.3982910  76.8656960   9.0317080
  51.0012280  77.4377170   9.5065600  49.6575900  77.4296400   8.8090980
  53.5417510  77.2678520   4.3057360  53.7368140  78.1661970   4.5724790
  52.7547380  77.0365600   4.7990310  40.3378800  92.9491690   4.7449980
  39.8126420  93.3299720   4.0411940  40.2623380  93.5742460   5.4659690
  41.7269270  78.6139290   3.3433670  42.2562030  77.8269090   3.2141620
  42.3597590  79.2930480   3.5769200  43.9207110  78.3514430   6.3979060
  43.2909850  77.6501740   6.5649190  43.3812250  79.1118560   6.1812220
  46.8599060  94.9653660  19.0689670  47.7866370  94.7297930  19.1125630
  46.8449490  95.7925660  18.5875700  55.0944120  94.5079230   6.0663920
  55.2696310  93.8216970   5.4224840  54.3965690  95.0326280   5.6740590
  44.0462670  77.6298410  18.8331550  43.7646940  78.1332010  18.0692370
  44.4282370  76.8320160  18.4673680  42.9371770  94.8974070   3.6199230
  43.6690590  94.6133350   3.0723120  43.1965440  94.6587350   4.5098610
  42.0986560  91.0138800   3.6245560  41.4695440  91.4823900   4.1731390
  42.2134390  90.1688020   4.0591750  50.6478130  77.0451990  19.4112020
  50.5343580  77.3646600  20.3063540  51.4647870  77.4464500  19.1149300
  49.5536280  66.2900970 139.9694680  49.4730330  65.3755580 139.6986390
  49.1400700  66.7868040 139.2634390  47.6854320  68.0679990 141.8503950
  46.9096420  67.5880430 142.1402520  48.3367250  67.3885640 141.6760110
  41.7020150  68.3799800 142.7279710  40.8705030  68.1248510 143.1276220
  42.3101130  68.4510570 143.4637630  51.7061750  72.4740180 140.6303080
  51.2443280  71.7027420 140.9590250  52.5187300  72.5006250 141.1355530
  41.6821410  72.4139890 142.9237730  41.9849450  71.5237630 142.7447950
  42.4265000  72.9710110 142.6959980  40.1112100  63.3401690 136.5122100
  39.2228800  63.6817660 136.4101980  40.3953290  63.1402010 135.6202930
  38.0745110  65.9407340 142.3961800  38.6461220  65.1729540 142.3965440
  38.0746650  66.2396100 141.4868410  47.9325060  74.7598190 140.2507070
  47.3136500  75.2155690 139.6801510  48.7876840  74.9149650 139.8496770
  47.1263310  70.7437180 141.8574110  47.0571590  69.8027120 141.6963240
  47.8883170  70.8338590 142.4296680  39.3169980  61.3491700 144.1830730
  39.1372820  60.4517450 144.4633490  38.9150060  61.8963570 144.8577680
  48.1568480  63.5507560 142.0843040  48.5333300  62.6779440 141.9716710
  48.0587990  63.8866260 141.1933480  42.2873490  61.9233190 137.5460480
  42.3940240  62.8236920 137.8529240  41.3765850  61.8751160 137.2555130
  51.9392600  61.0458000 139.0171380  52.7602220  60.5554570 139.0596860
  51.9726680  61.6355660 139.7703220  39.9356650  63.8452200 142.7913070
  40.6166760  64.1090570 143.4100470  39.6204700  63.0053070 143.1251080
  44.1281220  64.8919560 141.8785660  44.6359440  65.3900530 142.5190680
  44.6594460  64.1154760 141.7025020  56.2292150  63.0624750 145.5815010
  55.5244320  63.4506460 145.0630120  56.4950070  63.7575040 146.1835940
  42.4117320  59.5318120 146.1449080  42.4135760  60.0490510 145.3394980
  41.5821630  59.0548300 146.1219010  48.7988410  69.6437430 137.6438980
  48.1805680  70.1086880 137.0801700  49.3111660  70.3364910 138.0608490
  43.6620170  69.1713300 144.3222580  43.3289550  69.7982220 144.9643650
  43.8386850  69.6975180 143.5424250  52.1754080  62.9858380 141.7898920
  51.4709650  63.2743270 142.3702030  52.5366240  63.7958490 141.4298480
  42.0932650  61.2428080 144.1519530  42.4349460  62.0870130 143.8573400
  41.1548460  61.3911820 144.2684870  42.8739270  71.1394100 146.1371760
  43.4913270  71.8145180 145.8556210  42.0132390  71.5482080 146.0459260
  38.1671610  70.3293960 135.0178610  37.7899590  70.8181060 134.2863510
  38.4244680  71.0019240 135.6485140  53.7916860  72.6033510 144.0526400
  53.1080380  73.2732620 144.0443070  54.3311150  72.8014160 143.2871260
  55.2441000  62.4313170 142.1808130  54.2965910  62.4652150 142.3123560
  55.5690990  63.2452120 142.5657490  45.7760540  58.7310350 140.4764120
  46.0835520  58.1757240 139.7599620  44.8461240  58.8654810 140.2937110
  51.3275600  74.4477640 142.7671580  51.3402760  74.0439930 141.8993840
  50.7750820  75.2224930 142.6633010  52.6221020  71.1693860 137.8561750
  52.5117350  70.2268190 137.9811170  52.6189270  71.5309500 138.7424510
  50.7261040  69.3507480 144.0954190  51.1429830  69.1367590 143.2607650
  51.4500860  69.6080270 144.6662810  48.1641300  66.7959180 137.2124240
  47.2370580  66.7296560 137.4412710  48.3166120  67.7339310 137.0979480
  48.1510380  63.0676180 134.2091400  47.2114050  63.2290140 134.2943860
  48.4693640  63.7861860 133.6627390  54.6723140  67.7494700 144.1870430
  53.8441770  67.8187790 143.7120560  55.2673620  68.3349010 143.7186260
  52.1938590  68.3579480 137.7159490  51.5751010  68.0199030 137.0685790
  52.1763040  67.7139240 138.4238680  51.6365150  64.5364020 145.1325300
  51.2236330  65.3617730 145.3865290  50.9041100  63.9509060 144.9401660
  43.7697940  67.3223920 139.9943970  43.3654940  66.6101170 139.4989870
  43.8561060  66.9777160 140.8832010  44.2379640  71.0091480 142.1583180
  43.9407930  70.4036950 141.4790960  45.1879460  71.0468790 142.0472540
  42.4826560  64.0967130 143.7743010  43.0341150  64.2062470 142.9996260
  42.9970070  64.4704730 144.4898240  52.3265250  74.5823350 145.8206280
  51.8495810  75.3895540 145.6278890  51.6427040  73.9301680 145.9732490
  43.3298070  70.7473170 148.8090980  42.4326600  70.9713140 149.0564380
  43.3550940  70.8708110 147.8602380  50.3703290  67.5966290 134.7232240
  50.8096570  66.7588720 134.5770060  51.0831710  68.2295690 134.8096380
  42.1569290  67.6186490 147.3848350  42.0177060  68.4909290 147.7535750
  41.2750650  67.2759300 147.2396290  48.4798670  72.5362360 138.6913480
  48.9194580  73.2786690 138.2768870  48.4185560  72.7788930 139.6152440
  43.9549640  73.5608190 149.5933500  43.9265070  73.9651140 148.7261930
  43.7914610  72.6318550 149.4305100  53.9520430  58.8509100 133.0373280
  53.6393090  58.9435930 133.9372350  54.7132900  59.4290130 132.9870710
  40.4702570  66.2168900 137.4950620  40.3500170  66.9430990 136.8831890
  40.1603460  65.4471810 137.0178530  38.1087940  69.3884040 143.3019260
  38.1868360  69.5232810 142.3574980  38.7229620  68.6799930 143.4947380
  39.3535570  71.0884230 139.7125440  38.9463650  71.2298820 138.8579040
  40.2448580  70.8044390 139.5096650  55.3097710  71.5348140 148.0497680
  55.4360770  71.2960020 147.1314860  55.3519090  70.7032680 148.5219760
  49.1714450  75.2376140 146.6192490  49.6859120  75.1484150 147.4214920
  48.3283530  75.5835840 146.9120400  51.1468850  75.5231480 136.0476490
  50.9869990  75.2334420 136.9458320  50.9815560  74.7471610 135.5121720
  43.6257230  75.3030010 137.8248110  43.4499710  74.3865550 137.6115910
  42.7712970  75.6617300 138.0645910  50.8494980  73.0319040 134.6074490
  50.1560140  73.0296330 133.9476770  51.5917840  72.6078360 134.1768660
  50.4144910  74.6581750 138.6822980  50.8701860  73.8771130 138.9961600
  50.7537430  75.3688570 139.2264160  55.1621720  63.5880600 149.0147420
  54.5465990  64.0960270 148.4862880  54.8418140  62.6878930 148.9573360
  38.1647460  70.4298210 145.8413720  38.3278500  69.9603570 145.0233090
  38.6299910  69.9221770 146.5062560  42.9366230  59.5603970 140.8774290
  42.4934380  60.3413510 140.5458810  43.4951220  59.8833860 141.5845230
  47.2236040  62.4272490 146.4809610  46.7615410  62.6355510 147.2929550
  46.8214150  61.6131840 146.1780280  52.2240550  63.6481440 147.6106270
  51.3734140  63.3487190 147.9315340  52.0642340  63.8923450 146.6990090
  49.3190260  65.1483190 149.7105060  49.6443670  64.3146940 149.3707290
  50.1070590  65.6711710 149.8583390  46.0525050  59.1814670 135.7580120
  45.4279230  59.1774540 136.4833430  45.9655170  58.3145630 135.3616090
  44.9742130  60.1051300 142.7363890  45.2714460  61.0114130 142.6555910
  45.5227690  59.6170080 142.1223460  42.7280450  64.6837540 138.6055540
  42.5021370  64.4674710 139.5102160  41.9472980  65.1166000 138.2601510
  49.9578210  64.6900910 137.2046190  49.3587100  65.4136710 137.0209810
  50.5057820  64.6277690 136.4222640  45.1679660  65.5823120 149.2715810
  45.0723260  64.6417850 149.1216210  46.0111640  65.8038190 148.8763880
  48.5643080  63.3264450 139.2349470  48.9572650  63.6436650 138.4218160
  48.9259930  62.4476330 139.3493990  40.2990200  61.9936790 147.4249590
  39.9053590  62.8412000 147.6322370  39.6108600  61.3563160 147.6158230
  37.6007250  59.9165250 141.4579670  37.3120300  60.4868110 142.1704650
  38.3453010  59.4369700 141.8210900  37.7877480  63.8585370 132.6682390
  37.7052150  64.8016130 132.8097380  37.4360540  63.7160280 131.7894740
  49.1498220  65.9170200 143.3300250  48.4179340  66.4257010 143.6790350
  48.7522560  65.1000180 143.0289030  45.5875610  62.5924400 141.7352740
  45.5911670  62.1514350 140.8857280  46.4826730  62.9141730 141.8424560
  41.4377990  62.4750890 140.6946950  41.0978040  62.9526120 141.4514000
  40.6755310  62.0216010 140.3348050  45.6495760  63.5936480 134.7259500
  45.7708580  63.5522960 135.6745320  45.2644270  64.4560630 134.5706230
  49.6124130  61.3703880 142.7423190  49.6296870  61.8212530 143.5865040
  49.3639710  60.4709520 142.9556630  44.6617260  65.9037620 134.1242800
  44.0934160  65.4555870 133.4978710  45.3706260  66.2630400 133.5907950
  53.0394880  58.7836060 148.5809570  53.3640650  58.0525720 149.1067550
  53.0751390  58.4649700 147.6790560  39.7386440  69.8049640 148.0009530
  39.3541230  69.1643310 148.5992490  40.0498630  70.5085760 148.5704260
  45.8883580  66.6526180 143.4818150  46.2553710  66.1784750 144.2279490
  45.6988640  67.5267750 143.8226490  38.7524070  61.3969870 139.6111620
  38.4670990  61.0325540 140.4490240  38.6902930  60.6650330 138.9974760
  43.6782950  65.6934820 145.8002360  43.3740020  66.5726800 146.0252720
  44.6329410  65.7534610 145.8359800  42.2064740  69.8995810 136.3969210
  41.4327000  69.3593430 136.2367930  42.9359370  69.3802420 136.0586970
  52.9652720  68.8961170 142.1895600  53.6851840  69.3916460 141.7991710
  52.7634540  68.2179060 141.5449470  48.4262660  60.2899130 136.3324990
  47.6127270  59.7912300 136.2570300  48.2324610  61.1297380 135.9161340
  48.3471520  68.9670230 148.0764600  48.2808830  68.0465900 147.8222190
  47.7176660  69.0645670 148.7909240  51.1411050  64.6618780 134.6287150
  52.0290670  64.9736010 134.4538490  51.1116140  63.7891030 134.2367730
  42.2502140  69.5676190 140.0348020  42.7680810  68.7644450 139.9804910
  41.7986160  69.5055330 140.8764850  47.1371640  70.8342470 135.3075320
  47.4787340  71.5784700 134.8118640  46.3084350  71.1473590 135.6700150
  39.7346680  66.5337560 146.9473720  39.3761620  67.1991410 147.5347060
  39.4401240  65.7021110 147.3186340  42.9359800  66.9921800 149.8313270
  42.6359940  67.1378980 148.9341090  43.7071040  66.4327090 149.7386660
  48.2788250  71.7890800 147.8268400  48.2932790  70.8571760 147.6087310
  47.5713350  71.8750560 148.4658170  53.4125320  65.9730620 134.0967010
  53.3289040  66.4044840 133.2463450  54.1319510  66.4328970 134.5293830
  54.4899460  68.4298140 147.1736980  53.7647650  69.0226920 146.9766370
  55.0174920  68.4221680 146.3750350  54.4412570  72.8272880 136.8249140
  53.7988730  72.1728500 137.0992860  54.0543230  73.2327970 136.0489810
  50.0199050  70.1558310 140.6720830  50.3722870  69.5586440 140.0122200
  49.1361380  69.8302540 140.8429080  46.1062330  70.9156000 138.0791240
  46.7933460  71.4625210 138.4598830  45.3194750  71.4596730 138.1140850
  38.2454730  66.5328820 133.5708320  39.1149580  66.8153620 133.8544240
  37.7545050  67.3464690 133.4557130  45.4089540  67.9202030 137.6916600
  45.8652320  68.7307280 137.9176790  45.0577750  67.6025170 138.5235090
  47.7122150  73.4308370 144.9208900  48.3564370  73.6367750 145.5982320
  48.0751590  72.6696770 144.4679750  41.3101320  58.2639680 138.1639120
  41.1815950  58.2557580 139.1124040  40.4863340  58.6022770 137.8130130
  48.9854230  71.4340720 143.6386350  49.6276460  70.7333880 143.7518520
  49.5103580  72.2139160 143.4583240  52.8309950  71.7189340 133.3625490
  52.6047530  71.0019780 133.9550130  52.4406150  71.4701780 132.5247240
  50.7591850  72.2335620 146.8422410  51.0948090  72.8202310 147.5200330
  49.8392190  72.1028330 147.0720200  38.6125980  75.7456200 134.1369950
  38.9723620  76.3445540 133.4827220  38.4718320  76.2916090 134.9104980
  38.3095250  60.0230800 147.6245820  37.5953770  60.2227720 148.2298430
  38.7290290  59.2470370 147.9960620  52.4126200  69.6361280 135.0239650
  52.1247900  70.0973970 135.8117530  53.2078370  69.1759050 135.2923870
  38.5967840  74.0111060 148.6112350  38.7058960  73.0705800 148.4707740
  37.9448400  74.2765810 147.9626080  44.6294600  73.1287400 134.9543620
  44.6204700  73.8617090 134.3388130  43.7092960  72.8818980 135.0470580
  40.2301240  68.3502290 135.6990380  39.6229190  69.0901190 135.7085680
  40.7050590  68.4401650 134.8728580  49.8034030  62.5153110 145.3747270
  50.1714850  61.6948320 145.7026840  48.9432230  62.5755000 145.7902920
  53.1696060  61.4710050 136.1834830  52.5409220  61.5755720 135.4693060
  52.6747980  61.6906830 136.9728710  47.6154200  73.1915640 133.6168810
  47.7166180  72.9879630 132.6870790  46.7155940  72.9373920 133.8216590
  45.1380090  63.7496000 137.5992710  44.4296240  64.2182340 138.0406320
  45.4224570  63.0918010 138.2337900  46.7636020  65.1692700 145.5985240
  47.2621270  65.6438520 146.2637090  46.9058970  64.2456220 145.8055270
  49.1695520  60.4746660 139.0388500  49.0463300  60.4932790 138.0898010
  50.1180080  60.5225600 139.1586900  46.2572310  75.7101960 138.3116480
  46.5113810  75.6723350 137.3895850  45.3084790  75.5835290 138.3044730
  43.3415110  62.0581080 134.9743420  44.1905640  62.4951230 134.9083610
  42.9746380  62.3701340 135.8015480  53.9702880  61.3860660 146.4413630
  53.4676480  62.1266060 146.7807440  54.7859540  61.7744660 146.1250420
  52.2624890  66.6293840 139.8874990  51.3215030  66.6444070 140.0622680
  52.5768960  65.8429800 140.3335290  42.2406530  68.3113440 133.4478950
  43.0069800  68.1994800 134.0104380  42.3181220  67.6151410 132.7955720
  40.9353290  65.7438510 134.1311840  41.0156880  64.7966020 134.2429240
  41.8273040  66.0745390 134.2372500  54.2650470  73.8002690 141.5629250
  54.3897890  74.6233860 142.0353060  55.1316030  73.5893420 141.2153400
  41.7368000  75.8933900 141.2346380  42.4730480  75.3449360 141.5054950
  42.1208920  76.7589910 141.0952370  38.6213480  71.9607470 137.1087890
  37.6953260  72.2028610 137.0993300  39.0869910  72.7881730 136.9872640
  44.8470310  75.0664210 133.0571950  45.6398920  75.3553040 132.6053740
  44.3274660  74.6356380 132.3784430  51.0091280  74.9140130 148.9816780
  51.9613030  74.8298150 148.9317020  50.8619500  75.5781840 149.6550570
  53.9000480  74.2934340 134.4808690  53.6141990  73.8799480 133.6662870
  53.7020030  75.2222050 134.3609210  38.4624090  67.5653430 149.3668010
  38.9663110  66.9860710 149.9384240  37.7231510  67.8493660 149.9044380
  45.3647710  70.2867620 132.9214300  45.2598350  69.6719970 133.6475680
  45.1971930  69.7633510 132.1377310  45.5162030  68.9724420 148.9003530
  44.7507700  69.5409420 148.8158200  45.6977990  68.6800630 148.0071760
  48.6050440  69.3487650 133.5256290  48.0560540  69.7956950 134.1699030
  49.2269700  68.8436900 134.0493960  52.6585380  70.7029750 149.4578550
  53.3994850  71.0405510 148.9546010  51.8958060  70.8721810 148.9048320
  44.2725560  68.3078570 135.4221590  44.6941980  68.1418440 136.2652980
  44.3976400  67.4978800 134.9276730  42.4352980  64.2875120 148.2292570
  41.9049440  63.7966070 147.6015910  43.1041050  64.7159320 147.6950500
  46.7853200  67.3316180 132.6698690  47.3058860  66.6165200 132.3039840
  47.4321600  67.9702050 132.9699200  51.3331040  68.7544580 147.9933760
  51.7472060  68.9089660 148.8424180  50.3982040  68.8799800 148.1559540
  51.8053210  66.0940740 149.9972910  52.3873980  65.3393060 149.9093390
  51.9814980  66.6248180 149.2204390  42.9225280  61.2537490 148.3089860
  42.8282150  60.6358240 147.5840730  42.3422670  61.9803780 148.0819770
  45.6886720  59.8110730 145.3417250  45.2404020  59.8334990 144.4962800
  45.0551920  59.4129750 145.9387550  46.0946270  68.7065060 145.9629690
  46.5134380  69.5497790 145.7905930  45.1754900  68.8437100 145.7336470
  48.4310170  66.4381240 147.3467530  48.5506380  65.8422380 148.0862370
  49.2904170  66.4750930 146.9268830  50.7698070  66.9918430 145.9230040
  50.2433290  67.5161050 145.3195180  51.1129410  67.6245820 146.5539770
  43.1684460  64.3811800 132.3679750  42.9673520  63.5179160 132.7293090
  42.9976510  64.2945160 131.4301350  43.9453690  75.0118070 147.0787420
  43.4074780  75.7364130 146.7596120  44.1987650  74.5348410 146.2884760
  45.1978940  62.9802590 148.6043350  45.7878630  62.6718440 149.2921170
  44.3799180  62.5082340 148.7603250  50.0172370  62.5968400 148.8376370
  49.3287890  61.9349940 148.7726360  50.7378390  62.1506670 149.2824830
  50.6472770  59.1920030 134.8966630  50.9275060  58.3487930 135.2526050
  49.8738500  59.4243140 135.4105380  41.9667260  61.4812420 132.3557630
  42.2693160  61.4879850 131.4476780  42.7061850  61.1310280 132.8525290
  46.8015900  76.2469280 147.3374070  46.7274600  77.1504420 147.6446440
  45.8994740  75.9281180 147.3096140  45.1852190  60.4247040 133.3413830
  44.8374190  59.7471030 132.7616280  45.3864960  59.9636550 134.1557220
  47.3501230  75.4127790 134.9600430  48.2452020  75.7512760 134.9819190
  47.3818860  74.6907200 134.3324710  40.9897390  70.7854840 133.1887430
  41.4272260  71.3284510 133.8445010  41.4745120  69.9601790 133.1983770
  38.2043190  73.5743870 140.6407690  38.5346200  72.7064930 140.4086330
  38.6334190  73.7802390 141.4712650  42.8005110  71.9052880 138.3009660
  42.5000650  71.7817850 139.2013570  42.6942600  71.0461470 137.8925390
  38.6933400  74.4414460 143.3789320  38.2564390  74.6215260 144.2113470
  39.2611080  75.1989080 143.2371040  54.3295580  73.9431460 147.6666630
  53.7297570  74.0024020 146.9230550  54.4589480  73.0036440 147.7963480
  55.5697030  71.6849280 133.0036340  54.7389990  71.7525930 133.4743570
  55.7468860  72.5753400 132.7003200  55.0253490  68.4296760 135.5070540
  55.7872400  68.9993410 135.6130230  55.0407860  67.8623960 136.2778850
  38.5257830  66.9534690 139.7378200  37.8706670  66.6846330 139.0937900
  39.3635780  66.8439170 139.2880180  56.0313460  69.2846860 140.3512470
  56.4022290  68.5014180 139.9448440  56.6715390  69.9735960 140.1729770
  53.0147220  70.6683440 145.7642790  52.2007060  71.0980600 146.0268580
  53.4221420  71.2801850 145.1511840  55.0772660  68.7231130 132.6643060
  55.3521500  69.6310010 132.5362280  54.8883400  68.6593660 133.6005050
  51.4748270  61.7475980 133.9596690  51.8933150  61.5606960 133.1193350
  51.1684330  60.8955030 134.2699620  54.9738000  66.6600120 137.6572490
  54.5981600  65.8928050 137.2253780  54.2441120  67.0422820 138.1447420
  39.5633760  67.3387260 144.2781540  39.9306800  67.2514660 145.1577560
  38.9944580  66.5753810 144.1788400  54.3637620  65.8071640 147.2912010
  54.1323710  65.5784390 146.3909960  54.6242170  66.7271190 147.2456900
  39.1149760  64.2496350 148.1839960  38.2205810  64.2163110 148.5233670
  39.6547310  64.4483140 148.9491210  37.7395910  64.1633620 135.6803530
  36.8359990  64.4263820 135.5055190  38.2236530  64.4344790 134.9003490
  54.2488960  64.8857610 140.9579730  54.7726440  64.3920260 140.3269900
  54.8348380  65.0207970 141.7027300  54.4278680  64.9697480 144.4799280
  53.4781390  64.9361020 144.5944270  54.6091690  65.8797590 144.2449050
  40.2823120  63.2199160 133.5897910  40.9914820  62.7982380 133.1045190
  39.5663060  63.2874390 132.9581260  39.9297280  59.2738490 132.6300560
  40.6525410  59.8147430 132.9481780  40.2021800  59.0001910 131.7542100
  53.7388930  64.1430960 136.8972140  54.2348050  63.9101830 137.6821020
  53.5405000  63.3042800 136.4809780  39.6189470  58.5244680 142.5323180
  40.2665660  57.9742060 142.0918340  40.0391310  58.7787830 143.3538990
  55.1676090  62.7791910 139.4309820  55.0575370  62.6247950 140.3692090
  55.9283680  62.2512850 139.1885230  53.5141810  58.7186040 145.8892820
  54.1514030  59.3320180 146.2552010  53.6616700  58.7546700 144.9442050
  56.0566360  60.6099830 132.6715960  56.9815670  60.4781010 132.4634250
  56.0342150  60.6892650 133.6252410  56.1304850  61.3810490 135.2972670
  55.3356350  61.3155610 135.8265580  56.3348130  62.3161130 135.2858020
  53.0723270  75.4202040 139.2911060  53.6682340  75.0986610 138.6145480
  53.3301420  74.9473860 140.0824330  39.3721470  58.6800350 145.2748500
  39.0236290  59.1364170 146.0406680  39.0409170  57.7857480 145.3570930
  44.6791870  73.4079540 145.0411410  44.4383230  73.6754100 144.1541930
  45.6194510  73.5785270 145.0962270  46.8846290  59.8712230 148.7967920
  46.8235180  60.4634060 149.5463330  47.8246670  59.7638190 148.6518180
  49.5220850  59.5282290 148.4360210  50.1361260  59.8461580 147.7741290
  50.0670410  59.0430880 149.0556070  55.9396030  75.4273920 145.8422050
  55.4454310  75.8242790 145.1249180  55.3309320  74.8023130 146.2359330
  40.0442110  58.2076550 148.5499270  40.5925100  58.0264600 147.7865380
  40.1097420  57.4170660 149.0855580  40.8173870  74.7982200 146.5599470
  40.2234190  74.6666900 147.2989510  40.8097710  73.9620340 146.0941570
  50.2628890  58.0914430 144.7629500  49.3888730  58.4249540 144.5602430
  50.1539640  57.6187610 145.5881370  51.1700870  60.2985300 146.1471220
  50.8414230  59.4837060 145.7672950  52.1183170  60.2555110 146.0236910
  53.6235480  76.0697340 143.1208790  53.1638450  76.8213150 142.7466810
  52.9947940  75.3503810 143.0623590  40.4486100  72.1640580 145.5107510
  39.7220160  71.5445870 145.4433460  40.5095250  72.5581190 144.6405590
  44.0531200  74.3785580 142.2956920  44.5696220  73.7672940 141.7705180
  44.7028580  74.8814360 142.7867930  46.7926700  75.2694070 143.1225900
  47.0804510  75.0148370 142.2458910  47.3049920  74.7171430 143.7131470
  48.0103710  59.0084270 143.7022410  47.2275500  59.4829770 143.9819170
  47.7166640  58.1039100 143.5935590  52.5624780  59.7107370 141.7471500
  53.0032870  59.6552470 140.8993100  52.2932370  60.6265380 141.8181680
  54.4263350  59.3422610 139.7580320  54.3651750  58.3983830 139.6111340
  55.2055380  59.4502700 140.3033780  38.7316100  75.4814970 138.7204270
  38.5638140  74.8485650 139.4186160  37.8650610  75.6874370 138.3698460
  39.3544120  59.3131750 136.2236130  40.1123480  59.4260630 135.6500160
  38.8921290  60.1500950 136.1779560  45.8957930  61.4271020 139.2138440
  45.0832440  61.0527910 138.8734320  46.3999570  60.6716100 139.5159630
  50.3982910  58.0913470 140.4521510  51.0012280  58.6633680 140.9270030
  49.6575900  58.6552910 140.2295410  53.5417510  58.4935030 135.7261790
  53.7368140  59.3918480 135.9929220  52.7547380  58.2622110 136.2194740
  40.3378800  74.1748200 136.1654410  39.8126420  74.5556230 135.4616370
  40.2623380  74.7998970 136.8864120  41.7269270  59.8395800 134.7638100
  42.2562030  59.0525600 134.6346050  42.3597590  60.5186990 134.9973630
  43.9207110  59.5770940 137.8183490  43.2909850  58.8758250 137.9853620
  43.3812250  60.3375070 137.6016650  55.0944120  75.7335740 137.4868350
  55.2696310  75.0473480 136.8429270  54.3965690  76.2582790 137.0945020
  42.9371770  76.1230580 135.0403660  43.6690590  75.8389860 134.4927550
  43.1965440  75.8843860 135.9303040  42.0986560  72.2395310 135.0449990
  41.4695440  72.7080410 135.5935820  42.2134390  71.3944530 135.4796180
  49.5536280  66.2900970 121.1951190  49.4730330  65.3755580 120.9242900
  49.1400700  66.7868040 120.4890900  47.6854320  68.0679990 123.0760460
  46.9096420  67.5880430 123.3659030  48.3367250  67.3885640 122.9016620
  51.7061750  72.4740180 121.8559590  51.2443280  71.7027420 122.1846760
  52.5187300  72.5006250 122.3612040  40.1112100  63.3401690 117.7378610
  39.2228800  63.6817660 117.6358490  40.3953290  63.1402010 116.8459440
  47.9325060  74.7598190 121.4763580  47.3136500  75.2155690 120.9058020
  48.7876840  74.9149650 121.0753280  47.1263310  70.7437180 123.0830620
  47.0571590  69.8027120 122.9219750  47.8883170  70.8338590 123.6553190
  39.3169980  61.3491700 125.4087240  39.1372820  60.4517450 125.6890000
  38.9150060  61.8963570 126.0834190  48.1568480  63.5507560 123.3099550
  48.5333300  62.6779440 123.1973220  48.0587990  63.8866260 122.4189990
  42.2873490  61.9233190 118.7716990  42.3940240  62.8236920 119.0785750
  41.3765850  61.8751160 118.4811640  51.9392600  61.0458000 120.2427890
  52.7602220  60.5554570 120.2853370  51.9726680  61.6355660 120.9959730
  44.1281220  64.8919560 123.1042170  44.6359440  65.3900530 123.7447190
  44.6594460  64.1154760 122.9281530  56.2292150  63.0624750 126.8071520
  55.5244320  63.4506460 126.2886630  56.4950070  63.7575040 127.4092450
  42.4117320  59.5318120 127.3705590  42.4135760  60.0490510 126.5651490
  41.5821630  59.0548300 127.3475520  48.7988410  69.6437430 118.8695490
  48.1805680  70.1086880 118.3058210  49.3111660  70.3364910 119.2865000
  52.1754080  62.9858380 123.0155430  51.4709650  63.2743270 123.5958540
  52.5366240  63.7958490 122.6554990  42.0932650  61.2428080 125.3776040
  42.4349460  62.0870130 125.0829910  41.1548460  61.3911820 125.4941380
  38.1671610  70.3293960 116.2435120  37.7899590  70.8181060 115.5120020
  38.4244680  71.0019240 116.8741650  55.2441000  62.4313170 123.4064640
  54.2965910  62.4652150 123.5380070  55.5690990  63.2452120 123.7914000
  45.7760540  58.7310350 121.7020630  46.0835520  58.1757240 120.9856130
  44.8461240  58.8654810 121.5193620  51.3275600  74.4477640 123.9928090
  51.3402760  74.0439930 123.1250350  50.7750820  75.2224930 123.8889520
  52.6221020  71.1693860 119.0818260  52.5117350  70.2268190 119.2067680
  52.6189270  71.5309500 119.9681020  50.7261040  69.3507480 125.3210700
  51.1429830  69.1367590 124.4864160  51.4500860  69.6080270 125.8919320
  48.1641300  66.7959180 118.4380750  47.2370580  66.7296560 118.6669220
  48.3166120  67.7339310 118.3235990  48.1510380  63.0676180 115.4347910
  47.2114050  63.2290140 115.5200370  48.4693640  63.7861860 114.8883900
  52.1938590  68.3579480 118.9416000  51.5751010  68.0199030 118.2942300
  52.1763040  67.7139240 119.6495190  51.6365150  64.5364020 126.3581810
  51.2236330  65.3617730 126.6121800  50.9041100  63.9509060 126.1658170
  43.7697940  67.3223920 121.2200480  43.3654940  66.6101170 120.7246380
  43.8561060  66.9777160 122.1088520  42.4826560  64.0967130 124.9999520
  43.0341150  64.2062470 124.2252770  42.9970070  64.4704730 125.7154750
  50.3703290  67.5966290 115.9488750  50.8096570  66.7588720 115.8026570
  51.0831710  68.2295690 116.0352890  42.1569290  67.6186490 128.6104860
  42.0177060  68.4909290 128.9792260  41.2750650  67.2759300 128.4652800
  48.4798670  72.5362360 119.9169990  48.9194580  73.2786690 119.5025380
  48.4185560  72.7788930 120.8408950  40.4702570  66.2168900 118.7207130
  40.3500170  66.9430990 118.1088400  40.1603460  65.4471810 118.2435040
  55.9064460  74.3435290 132.1154180  56.3824180  74.8218180 132.7943260
  56.5271620  74.2752780 131.3899680  51.1468850  75.5231480 117.2733000
  50.9869990  75.2334420 118.1714830  50.9815560  74.7471610 116.7378230
  50.8494980  73.0319040 115.8331000  50.1560140  73.0296330 115.1733280
  51.5917840  72.6078360 115.4025170  50.4144910  74.6581750 119.9079490
  50.8701860  73.8771130 120.2218110  50.7537430  75.3688570 120.4520670
  55.1621720  63.5880600 130.2403930  54.5465990  64.0960270 129.7119390
  54.8418140  62.6878930 130.1829870  42.9366230  59.5603970 122.1030800
  42.4934380  60.3413510 121.7715320  43.4951220  59.8833860 122.8101740
  47.2236040  62.4272490 127.7066120  46.7615410  62.6355510 128.5186060
  46.8214150  61.6131840 127.4036790  52.2240550  63.6481440 128.8362780
  51.3734140  63.3487190 129.1571850  52.0642340  63.8923450 127.9246600
  49.3190260  65.1483190 130.9361570  49.6443670  64.3146940 130.5963800
  50.1070590  65.6711710 131.0839900  46.0525050  59.1814670 116.9836630
  45.4279230  59.1774540 117.7089940  45.9655170  58.3145630 116.5872600
  44.9742130  60.1051300 123.9620400  45.2714460  61.0114130 123.8812420
  45.5227690  59.6170080 123.3479970  42.7280450  64.6837540 119.8312050
  42.5021370  64.4674710 120.7358670  41.9472980  65.1166000 119.4858020
  49.9578210  64.6900910 118.4302700  49.3587100  65.4136710 118.2466320
  50.5057820  64.6277690 117.6479150  45.1679660  65.5823120 130.4972320
  45.0723260  64.6417850 130.3472720  46.0111640  65.8038190 130.1020390
  48.5643080  63.3264450 120.4605980  48.9572650  63.6436650 119.6474670
  48.9259930  62.4476330 120.5750500  40.2990200  61.9936790 128.6506100
  39.9053590  62.8412000 128.8578880  39.6108600  61.3563160 128.8414740
  46.8735250  62.0771760 131.7202840  46.1833570  61.8843960 132.3548930
  47.6167550  62.3606400 132.2527140  37.6007250  59.9165250 122.6836180
  37.3120300  60.4868110 123.3961160  38.3453010  59.4369700 123.0467410
  37.7877480  63.8585370 113.8938900  37.7052150  64.8016130 114.0353890
  37.4360540  63.7160280 113.0151250  49.1498220  65.9170200 124.5556760
  48.4179340  66.4257010 124.9046860  48.7522560  65.1000180 124.2545540
  45.5875610  62.5924400 122.9609250  45.5911670  62.1514350 122.1113790
  46.4826730  62.9141730 123.0681070  41.4377990  62.4750890 121.9203460
  41.0978040  62.9526120 122.6770510  40.6755310  62.0216010 121.5604560
  45.6495760  63.5936480 115.9516010  45.7708580  63.5522960 116.9001830
  45.2644270  64.4560630 115.7962740  49.6124130  61.3703880 123.9679700
  49.6296870  61.8212530 124.8121550  49.3639710  60.4709520 124.1813140
  44.6617260  65.9037620 115.3499310  44.0934160  65.4555870 114.7235220
  45.3706260  66.2630400 114.8164460  53.0394880  58.7836060 129.8066080
  53.3640650  58.0525720 130.3324060  53.0751390  58.4649700 128.9047070
  39.7386440  69.8049640 129.2266040  39.3541230  69.1643310 129.8249000
  40.0498630  70.5085760 129.7960770  45.8883580  66.6526180 124.7074660
  46.2553710  66.1784750 125.4536000  45.6988640  67.5267750 125.0483000
  43.6782950  65.6934820 127.0258870  43.3740020  66.5726800 127.2509230
  44.6329410  65.7534610 127.0616310  42.2064740  69.8995810 117.6225720
  41.4327000  69.3593430 117.4624440  42.9359370  69.3802420 117.2843480
  52.9652720  68.8961170 123.4152110  53.6851840  69.3916460 123.0248220
  52.7634540  68.2179060 122.7705980  48.4262660  60.2899130 117.5581500
  47.6127270  59.7912300 117.4826810  48.2324610  61.1297380 117.1417850
  48.3471520  68.9670230 129.3021110  48.2808830  68.0465900 129.0478700
  47.7176660  69.0645670 130.0165750  51.1411050  64.6618780 115.8543660
  52.0290670  64.9736010 115.6795000  51.1116140  63.7891030 115.4624240
  42.2502140  69.5676190 121.2604530  42.7680810  68.7644450 121.2061420
  41.7986160  69.5055330 122.1021360  47.1371640  70.8342470 116.5331830
  47.4787340  71.5784700 116.0375150  46.3084350  71.1473590 116.8956660
  42.9359800  66.9921800 131.0569780  42.6359940  67.1378980 130.1597600
  43.7071040  66.4327090 130.9643170  48.2788250  71.7890800 129.0524910
  48.2932790  70.8571760 128.8343820  47.5713350  71.8750560 129.6914680
  53.4125320  65.9730620 115.3223520  53.3289040  66.4044840 114.4719960
  54.1319510  66.4328970 115.7550340  54.4412570  72.8272880 118.0505650
  53.7988730  72.1728500 118.3249370  54.0543230  73.2327970 117.2746320
  50.0199050  70.1558310 121.8977340  50.3722870  69.5586440 121.2378710
  49.1361380  69.8302540 122.0685590  46.1062330  70.9156000 119.3047750
  46.7933460  71.4625210 119.6855340  45.3194750  71.4596730 119.3397360
  38.2454730  66.5328820 114.7964830  39.1149580  66.8153620 115.0800750
  37.7545050  67.3464690 114.6813640  45.4089540  67.9202030 118.9173110
  45.8652320  68.7307280 119.1433300  45.0577750  67.6025170 119.7491600
  48.9854230  71.4340720 124.8642860  49.6276460  70.7333880 124.9775030
  49.5103580  72.2139160 124.6839750  52.8309950  71.7189340 114.5882000
  52.6047530  71.0019780 115.1806640  52.4406150  71.4701780 113.7503750
  50.7591850  72.2335620 128.0678920  51.0948090  72.8202310 128.7456840
  49.8392190  72.1028330 128.2976710  38.6125980  75.7456200 115.3626460
  38.9723620  76.3445540 114.7083730  38.4718320  76.2916090 116.1361490
  38.3095250  60.0230800 128.8502330  37.5953770  60.2227720 129.4554940
  38.7290290  59.2470370 129.2217130  52.4126200  69.6361280 116.2496160
  52.1247900  70.0973970 117.0374040  53.2078370  69.1759050 116.5180380
  38.5967840  74.0111060 129.8368860  38.7058960  73.0705800 129.6964250
  37.9448400  74.2765810 129.1882590  46.5880430  72.2826950 131.2366980
  46.2677300  71.5636190 131.7812670  45.9138790  72.9582020 131.3103040
  44.6294600  73.1287400 116.1800130  44.6204700  73.8617090 115.5644640
  43.7092960  72.8818980 116.2727090  40.2301240  68.3502290 116.9246890
  39.6229190  69.0901190 116.9342190  40.7050590  68.4401650 116.0985090
  49.8034030  62.5153110 126.6003780  50.1714850  61.6948320 126.9283350
  48.9432230  62.5755000 127.0159430  53.1696060  61.4710050 117.4091340
  52.5409220  61.5755720 116.6949570  52.6747980  61.6906830 118.1985220
  47.6154200  73.1915640 114.8425320  47.7166180  72.9879630 113.9127300
  46.7155940  72.9373920 115.0473100  45.1380090  63.7496000 118.8249220
  44.4296240  64.2182340 119.2662830  45.4224570  63.0918010 119.4594410
  46.7636020  65.1692700 126.8241750  47.2621270  65.6438520 127.4893600
  46.9058970  64.2456220 127.0311780  49.1695520  60.4746660 120.2645010
  49.0463300  60.4932790 119.3154520  50.1180080  60.5225600 120.3843410
  43.3415110  62.0581080 116.1999930  44.1905640  62.4951230 116.1340120
  42.9746380  62.3701340 117.0271990  53.9702880  61.3860660 127.6670140
  53.4676480  62.1266060 128.0063950  54.7859540  61.7744660 127.3506930
  52.2624890  66.6293840 121.1131500  51.3215030  66.6444070 121.2879190
  52.5768960  65.8429800 121.5591800  40.9353290  65.7438510 115.3568350
  41.0156880  64.7966020 115.4685750  41.8273040  66.0745390 115.4629010
  54.2650470  73.8002690 122.7885760  54.3897890  74.6233860 123.2609570
  55.1316030  73.5893420 122.4409910  40.7426280  75.0779970 131.6488470
  41.5439010  75.3992020 132.0623870  40.2278100  74.7175550 132.3708380
  44.8470310  75.0664210 114.2828460  45.6398920  75.3553040 113.8310250
  44.3274660  74.6356380 113.6040940  49.5790910  71.1859840 131.5963880
  48.9729070  71.2091440 130.8559630  49.2745020  70.4542880 132.1331130
  53.9000480  74.2934340 115.7065200  53.6141990  73.8799480 114.8919380
  53.7020030  75.2222050 115.5865720  38.4624090  67.5653430 130.5924520
  38.9663110  66.9860710 131.1640750  37.7231510  67.8493660 131.1300890
  45.3647710  70.2867620 114.1470810  45.2598350  69.6719970 114.8732190
  45.1971930  69.7633510 113.3633820  45.5162030  68.9724420 130.1260040
  44.7507700  69.5409420 130.0414710  45.6977990  68.6800630 129.2328270
  48.6050440  69.3487650 114.7512800  48.0560540  69.7956950 115.3955540
  49.2269700  68.8436900 115.2750470  40.4947170  65.7083020 131.4874590
  40.5352510  65.4096890 132.3959820  41.3492670  66.1090630 131.3282110
  44.2725560  68.3078570 116.6478100  44.6941980  68.1418440 117.4909490
  44.3976400  67.4978800 116.1533240  42.4352980  64.2875120 129.4549080
  41.9049440  63.7966070 128.8272420  43.1041050  64.7159320 128.9207010
  46.7853200  67.3316180 113.8955200  47.3058860  66.6165200 113.5296350
  47.4321600  67.9702050 114.1955710  51.8053210  66.0940740 131.2229420
  52.3873980  65.3393060 131.1349900  51.9814980  66.6248180 130.4460900
  42.9225280  61.2537490 129.5346370  42.8282150  60.6358240 128.8097240
  42.3422670  61.9803780 129.3076280  45.6886720  59.8110730 126.5673760
  45.2404020  59.8334990 125.7219310  45.0551920  59.4129750 127.1644060
  46.0946270  68.7065060 127.1886200  46.5134380  69.5497790 127.0162440
  45.1754900  68.8437100 126.9592980  48.4310170  66.4381240 128.5724040
  48.5506380  65.8422380 129.3118880  49.2904170  66.4750930 128.1525340
  50.7698070  66.9918430 127.1486550  50.2433290  67.5161050 126.5451690
  51.1129410  67.6245820 127.7796280  45.1978940  62.9802590 129.8299860
  45.7878630  62.6718440 130.5177680  44.3799180  62.5082340 129.9859760
  50.0172370  62.5968400 130.0632880  49.3287890  61.9349940 129.9982870
  50.7378390  62.1506670 130.5081340  50.6472770  59.1920030 116.1223140
  50.9275060  58.3487930 116.4782560  49.8738500  59.4243140 116.6361890
  41.9667260  61.4812420 113.5814140  42.2693160  61.4879850 112.6733290
  42.7061850  61.1310280 114.0781800  46.8015900  76.2469280 128.5630580
  46.7274600  77.1504420 128.8702950  45.8994740  75.9281180 128.5352650
  45.1852190  60.4247040 114.5670340  44.8374190  59.7471030 113.9872790
  45.3864960  59.9636550 115.3813730  47.3501230  75.4127790 116.1856940
  48.2452020  75.7512760 116.2075700  47.3818860  74.6907200 115.5581220
  42.8005110  71.9052880 119.5266170  42.5000650  71.7817850 120.4270080
  42.6942600  71.0461470 119.1181900  55.5697030  71.6849280 114.2292850
  54.7389990  71.7525930 114.7000080  55.7468860  72.5753400 113.9259710
  55.0253490  68.4296760 116.7327050  55.7872400  68.9993410 116.8386740
  55.0407860  67.8623960 117.5035360  38.5257830  66.9534690 120.9634710
  37.8706670  66.6846330 120.3194410  39.3635780  66.8439170 120.5136690
  51.4748270  61.7475980 115.1853200  51.8933150  61.5606960 114.3449860
  51.1684330  60.8955030 115.4956130  54.9738000  66.6600120 118.8829000
  54.5981600  65.8928050 118.4510290  54.2441120  67.0422820 119.3703930
  39.1149760  64.2496350 129.4096470  38.2205810  64.2163110 129.7490180
  39.6547310  64.4483140 130.1747720  52.8025690  61.0328070 131.2948220
  53.6795870  61.0411470 131.6782220  52.8146530  60.2958910 130.6840570
  37.7395910  64.1633620 116.9060040  36.8359990  64.4263820 116.7311700
  38.2236530  64.4344790 116.1260000  54.2488960  64.8857610 122.1836240
  54.7726440  64.3920260 121.5526410  54.8348380  65.0207970 122.9283810
  54.4278680  64.9697480 125.7055790  53.4781390  64.9361020 125.8200780
  54.6091690  65.8797590 125.4705560  40.2823120  63.2199160 114.8154420
  40.9914820  62.7982380 114.3301700  39.5663060  63.2874390 114.1837770
  53.7388930  64.1430960 118.1228650  54.2348050  63.9101830 118.9077530
  53.5405000  63.3042800 117.7066290  39.6189470  58.5244680 123.7579690
  40.2665660  57.9742060 123.3174850  40.0391310  58.7787830 124.5795500
  55.1676090  62.7791910 120.6566330  55.0575370  62.6247950 121.5948600
  55.9283680  62.2512850 120.4141740  53.5141810  58.7186040 127.1149330
  54.1514030  59.3320180 127.4808520  53.6616700  58.7546700 126.1698560
  56.1304850  61.3810490 116.5229180  55.3356350  61.3155610 117.0522090
  56.3348130  62.3161130 116.5114530  53.0723270  75.4202040 120.5167570
  53.6682340  75.0986610 119.8401990  53.3301420  74.9473860 121.3080840
  39.3721470  58.6800350 126.5005010  39.0236290  59.1364170 127.2663190
  39.0409170  57.7857480 126.5827440  46.8846290  59.8712230 130.0224430
  46.8235180  60.4634060 130.7719840  47.8246670  59.7638190 129.8774690
  49.5220850  59.5282290 129.6616720  50.1361260  59.8461580 128.9997800
  50.0670410  59.0430880 130.2812580  55.9396030  75.4273920 127.0678560
  55.4454310  75.8242790 126.3505690  55.3309320  74.8023130 127.4615840
  40.0442110  58.2076550 129.7755780  40.5925100  58.0264600 129.0121890
  40.1097420  57.4170660 130.3112090  50.2628890  58.0914430 125.9886010
  49.3888730  58.4249540 125.7858940  50.1539640  57.6187610 126.8137880
  51.1700870  60.2985300 127.3727730  50.8414230  59.4837060 126.9929460
  52.1183170  60.2555110 127.2493420  53.6235480  76.0697340 124.3465300
  53.1638450  76.8213150 123.9723320  52.9947940  75.3503810 124.2880100
  46.7926700  75.2694070 124.3482410  47.0804510  75.0148370 123.4715420
  47.3049920  74.7171430 124.9387980  48.0103710  59.0084270 124.9278920
  47.2275500  59.4829770 125.2075680  47.7166640  58.1039100 124.8192100
  45.8957930  61.4271020 120.4394950  45.0832440  61.0527910 120.0990830
  46.3999570  60.6716100 120.7416140  50.3982910  58.0913470 121.6778020
  51.0012280  58.6633680 122.1526540  49.6575900  58.6552910 121.4551920
  53.5417510  58.4935030 116.9518300  53.7368140  59.3918480 117.2185730
  52.7547380  58.2622110 117.4451250  40.3378800  74.1748200 117.3910920
  39.8126420  74.5556230 116.6872880  40.2623380  74.7998970 118.1120630
  43.9207110  59.5770940 119.0440000  43.2909850  58.8758250 119.2110130
  43.3812250  60.3375070 118.8273160  46.8599060  76.1910170 131.7150610
  47.7866370  75.9554440 131.7586570  46.8449490  77.0182170 131.2336640
  55.0944120  75.7335740 118.7124860  55.2696310  75.0473480 118.0685780
  54.3965690  76.2582790 118.3201530  44.0462670  58.8554920 131.4792490
  43.7646940  59.3588520 130.7153310  44.4282370  58.0576670 131.1134620
  42.9371770  76.1230580 116.2660170  43.6690590  75.8389860 115.7184060
  43.1965440  75.8843860 117.1559550  42.0986560  72.2395310 116.2706500
  41.4695440  72.7080410 116.8192330  42.2134390  71.3944530 116.7052690
  50.6478130  58.2708500 132.0572960  50.5343580  58.5903110 132.9524480
  51.4647870  58.6721010 131.7610240  47.6854320  68.0679990 104.3016970
  46.9096420  67.5880430 104.5915540  48.3367250  67.3885640 104.1273130
  41.7020150  68.3799800 105.1792730  40.8705030  68.1248510 105.5789240
  42.3101130  68.4510570 105.9150650  40.1112100  63.3401690  98.9635120
  39.2228800  63.6817660  98.8615000  40.3953290  63.1402010  98.0715950
  38.0745110  65.9407340 104.8474820  38.6461220  65.1729540 104.8478460
  38.0746650  66.2396100 103.9381430  47.9325060  74.7598190 102.7020090
  47.3136500  75.2155690 102.1314530  48.7876840  74.9149650 102.3009790
  47.1263310  70.7437180 104.3087130  47.0571590  69.8027120 104.1476260
  47.8883170  70.8338590 104.8809700  39.3169980  61.3491700 106.6343750
  39.1372820  60.4517450 106.9146510  38.9150060  61.8963570 107.3090700
  42.2873490  61.9233190  99.9973500  42.3940240  62.8236920 100.3042260
  41.3765850  61.8751160  99.7068150  39.9356650  63.8452200 105.2426090
  40.6166760  64.1090570 105.8613490  39.6204700  63.0053070 105.5764100
  44.1281220  64.8919560 104.3298680  44.6359440  65.3900530 104.9703700
  44.6594460  64.1154760 104.1538040  48.1641300  66.7959180  99.6637260
  47.2370580  66.7296560  99.8925730  48.3166120  67.7339310  99.5492500
  48.1510380  63.0676180  96.6604420  47.2114050  63.2290140  96.7456880
  48.4693640  63.7861860  96.1140410  43.7697940  67.3223920 102.4456990
  43.3654940  66.6101170 101.9502890  43.8561060  66.9777160 103.3345030
  52.3265250  74.5823350 108.2719300  51.8495810  75.3895540 108.0791910
  51.6427040  73.9301680 108.4245510  48.4798670  72.5362360 101.1426500
  48.9194580  73.2786690 100.7281890  48.4185560  72.7788930 102.0665460
  40.4702570  66.2168900  99.9463640  40.3500170  66.9430990  99.3344910
  40.1603460  65.4471810  99.4691550  38.1087940  69.3884040 105.7532280
  38.1868360  69.5232810 104.8088000  38.7229620  68.6799930 105.9460400
  39.3535570  71.0884230 102.1638460  38.9463650  71.2298820 101.3092060
  40.2448580  70.8044390 101.9609670  49.1714450  75.2376140 109.0705510
  49.6859120  75.1484150 109.8727940  48.3283530  75.5835840 109.3633420
  51.1468850  75.5231480  98.4989510  50.9869990  75.2334420  99.3971340
  50.9815560  74.7471610  97.9634740  43.6257230  75.3030010 100.2761130
  43.4499710  74.3865550 100.0628930  42.7712970  75.6617300 100.5158930
  50.4144910  74.6581750 101.1336000  50.8701860  73.8771130 101.4474620
  50.7537430  75.3688570 101.6777180  42.9366230  59.5603970 103.3287310
  42.4934380  60.3413510 102.9971830  43.4951220  59.8833860 104.0358250
  49.3190260  65.1483190 112.1618080  49.6443670  64.3146940 111.8220310
  50.1070590  65.6711710 112.3096410  46.0525050  59.1814670  98.2093140
  45.4279230  59.1774540  98.9346450  45.9655170  58.3145630  97.8129110
  44.9742130  60.1051300 105.1876910  45.2714460  61.0114130 105.1068930
  45.5227690  59.6170080 104.5736480  42.7280450  64.6837540 101.0568560
  42.5021370  64.4674710 101.9615180  41.9472980  65.1166000 100.7114530
  46.8735250  62.0771760 112.9459350  46.1833570  61.8843960 113.5805440
  47.6167550  62.3606400 113.4783650  37.7877480  63.8585370  95.1195410
  37.7052150  64.8016130  95.2610400  37.4360540  63.7160280  94.2407760
  45.5875610  62.5924400 104.1865760  45.5911670  62.1514350 103.3370300
  46.4826730  62.9141730 104.2937580  41.4377990  62.4750890 103.1459970
  41.0978040  62.9526120 103.9027020  40.6755310  62.0216010 102.7861070
  45.6495760  63.5936480  97.1772520  45.7708580  63.5522960  98.1258340
  45.2644270  64.4560630  97.0219250  44.6617260  65.9037620  96.5755820
  44.0934160  65.4555870  95.9491730  45.3706260  66.2630400  96.0420970
  45.8883580  66.6526180 105.9331170  46.2553710  66.1784750 106.6792510
  45.6988640  67.5267750 106.2739510  42.2064740  69.8995810  98.8482230
  41.4327000  69.3593430  98.6880950  42.9359370  69.3802420  98.5099990
  48.4262660  60.2899130  98.7838010  47.6127270  59.7912300  98.7083320
  48.2324610  61.1297380  98.3674360  48.3471520  68.9670230 110.5277620
  48.2808830  68.0465900 110.2735210  47.7176660  69.0645670 111.2422260
  51.1411050  64.6618780  97.0800170  52.0290670  64.9736010  96.9051510
  51.1116140  63.7891030  96.6880750  42.2502140  69.5676190 102.4861040
  42.7680810  68.7644450 102.4317930  41.7986160  69.5055330 103.3277870
  47.1371640  70.8342470  97.7588340  47.4787340  71.5784700  97.2631660
  46.3084350  71.1473590  98.1213170  48.2788250  71.7890800 110.2781420
  48.2932790  70.8571760 110.0600330  47.5713350  71.8750560 110.9171190
  46.1062330  70.9156000 100.5304260  46.7933460  71.4625210 100.9111850
  45.3194750  71.4596730 100.5653870  45.4089540  67.9202030 100.1429620
  45.8652320  68.7307280 100.3689810  45.0577750  67.6025170 100.9748110
  41.3101320  58.2639680 100.6152140  41.1815950  58.2557580 101.5637060
  40.4863340  58.6022770 100.2643150  38.6125980  75.7456200  96.5882970
  38.9723620  76.3445540  95.9340240  38.4718320  76.2916090  97.3618000
  38.3095250  60.0230800 110.0758840  37.5953770  60.2227720 110.6811450
  38.7290290  59.2470370 110.4473640  38.5967840  74.0111060 111.0625370
  38.7058960  73.0705800 110.9220760  37.9448400  74.2765810 110.4139100
  46.5880430  72.2826950 112.4623490  46.2677300  71.5636190 113.0069180
  45.9138790  72.9582020 112.5359550  44.6294600  73.1287400  97.4056640
  44.6204700  73.8617090  96.7901150  43.7092960  72.8818980  97.4983600
  47.6154200  73.1915640  96.0681830  47.7166180  72.9879630  95.1383810
  46.7155940  72.9373920  96.2729610  45.1380090  63.7496000 100.0505730
  44.4296240  64.2182340 100.4919340  45.4224570  63.0918010 100.6850920
  46.7636020  65.1692700 108.0498260  47.2621270  65.6438520 108.7150110
  46.9058970  64.2456220 108.2568290  49.1695520  60.4746660 101.4901520
  49.0463300  60.4932790 100.5411030  50.1180080  60.5225600 101.6099920
  46.2572310  75.7101960 100.7629500  46.5113810  75.6723350  99.8408870
  45.3084790  75.5835290 100.7557750  42.2406530  68.3113440  95.8991970
  43.0069800  68.1994800  96.4617400  42.3181220  67.6151410  95.2468740
  40.9353290  65.7438510  96.5824860  41.0156880  64.7966020  96.6942260
  41.8273040  66.0745390  96.6885520  41.7368000  75.8933900 103.6859400
  42.4730480  75.3449360 103.9567970  42.1208920  76.7589910 103.5465390
  40.7426280  75.0779970 112.8744980  41.5439010  75.3992020 113.2880380
  40.2278100  74.7175550 113.5964890  44.8470310  75.0664210  95.5084970
  45.6398920  75.3553040  95.0566760  44.3274660  74.6356380  94.8297450
  49.5790910  71.1859840 112.8220390  48.9729070  71.2091440 112.0816140
  49.2745020  70.4542880 113.3587640  51.0091280  74.9140130 111.4329800
  51.9613030  74.8298150 111.3830040  50.8619500  75.5781840 112.1063590
  45.3647710  70.2867620  95.3727320  45.2598350  69.6719970  96.0988700
  45.1971930  69.7633510  94.5890330  45.5162030  68.9724420 111.3516550
  44.7507700  69.5409420 111.2671220  45.6977990  68.6800630 110.4584780
  48.6050440  69.3487650  95.9769310  48.0560540  69.7956950  96.6212050
  49.2269700  68.8436900  96.5006980  44.2725560  68.3078570  97.8734610
  44.6941980  68.1418440  98.7166000  44.3976400  67.4978800  97.3789750
  46.7853200  67.3316180  95.1211710  47.3058860  66.6165200  94.7552860
  47.4321600  67.9702050  95.4212220  51.8053210  66.0940740 112.4485930
  52.3873980  65.3393060 112.3606410  51.9814980  66.6248180 111.6717410
  45.6886720  59.8110730 107.7930270  45.2404020  59.8334990 106.9475820
  45.0551920  59.4129750 108.3900570  46.0946270  68.7065060 108.4142710
  46.5134380  69.5497790 108.2418950  45.1754900  68.8437100 108.1849490
  48.4310170  66.4381240 109.7980550  48.5506380  65.8422380 110.5375390
  49.2904170  66.4750930 109.3781850  50.6472770  59.1920030  97.3479650
  50.9275060  58.3487930  97.7039070  49.8738500  59.4243140  97.8618400
  46.8015900  76.2469280 109.7887090  46.7274600  77.1504420 110.0959460
  45.8994740  75.9281180 109.7609160  47.3501230  75.4127790  97.4113450
  48.2452020  75.7512760  97.4332210  47.3818860  74.6907200  96.7837730
  38.2043190  73.5743870 103.0920710  38.5346200  72.7064930 102.8599350
  38.6334190  73.7802390 103.9225670  42.8005110  71.9052880 100.7522680
  42.5000650  71.7817850 101.6526590  42.6942600  71.0461470 100.3438410
  38.6933400  74.4414460 105.8302340  38.2564390  74.6215260 106.6626490
  39.2611080  75.1989080 105.6884060  38.5257830  66.9534690 102.1891220
  37.8706670  66.6846330 101.5450920  39.3635780  66.8439170 101.7393200
  51.4748270  61.7475980  96.4109710  51.8933150  61.5606960  95.5706370
  51.1684330  60.8955030  96.7212640  39.5633760  67.3387260 106.7294560
  39.9306800  67.2514660 107.6090580  38.9944580  66.5753810 106.6301420
  37.7395910  64.1633620  98.1316550  36.8359990  64.4263820  97.9568210
  38.2236530  64.4344790  97.3516510  39.3721470  58.6800350 107.7261520
  39.0236290  59.1364170 108.4919700  39.0409170  57.7857480 107.8083950
  46.8846290  59.8712230 111.2480940  46.8235180  60.4634060 111.9976350
  47.8246670  59.7638190 111.1031200  40.0442110  58.2076550 111.0012290
  40.5925100  58.0264600 110.2378400  40.1097420  57.4170660 111.5368600
  48.0103710  59.0084270 106.1535430  47.2275500  59.4829770 106.4332190
  47.7166640  58.1039100 106.0448610  38.7316100  75.4814970 101.1717290
  38.5638140  74.8485650 101.8699180  37.8650610  75.6874370 100.8211480
  45.8957930  61.4271020 101.6651460  45.0832440  61.0527910 101.3247340
  46.3999570  60.6716100 101.9672650  50.3982910  58.0913470 102.9034530
  51.0012280  58.6633680 103.3783050  49.6575900  58.6552910 102.6808430
  40.3378800  74.1748200  98.6167430  39.8126420  74.5556230  97.9129390
  40.2623380  74.7998970  99.3377140  43.9207110  59.5770940 100.2696510
  43.2909850  58.8758250 100.4366640  43.3812250  60.3375070 100.0529670
  46.8599060  76.1910170 112.9407120  47.7866370  75.9554440 112.9843080
  46.8449490  77.0182170 112.4593150  44.0462670  58.8554920 112.7049000
  43.7646940  59.3588520 111.9409820  44.4282370  58.0576670 112.3391130
  42.9371770  76.1230580  97.4916680  43.6690590  75.8389860  96.9440570
  43.1965440  75.8843860  98.3816060  42.0986560  72.2395310  97.4963010
  41.4695440  72.7080410  98.0448840  42.2134390  71.3944530  97.9309200
  53.4276620  75.4180030 112.7648160  54.2201940  74.9229260 112.5574120
  53.7209770  76.0970170 113.3723770  49.5536280  66.2900970  83.6464210
  49.4730330  65.3755580  83.3755920  49.1400700  66.7868040  82.9403920
  47.6854320  68.0679990  85.5273480  46.9096420  67.5880430  85.8172050
  48.3367250  67.3885640  85.3529640  51.7061750  72.4740180  84.3072610
  51.2443280  71.7027420  84.6359780  52.5187300  72.5006250  84.8125060
  41.6821410  72.4139890  86.6007260  41.9849450  71.5237630  86.4217480
  42.4265000  72.9710110  86.3729510  40.1112100  63.3401690  80.1891630
  39.2228800  63.6817660  80.0871510  40.3953290  63.1402010  79.2972460
  47.9325060  74.7598190  83.9276600  47.3136500  75.2155690  83.3571040
  48.7876840  74.9149650  83.5266300  47.1263310  70.7437180  85.5343640
  47.0571590  69.8027120  85.3732770  47.8883170  70.8338590  86.1066210
  48.1568480  63.5507560  85.7612570  48.5333300  62.6779440  85.6486240
  48.0587990  63.8866260  84.8703010  42.2873490  61.9233190  81.2230010
  42.3940240  62.8236920  81.5298770  41.3765850  61.8751160  80.9324660
  51.9392600  61.0458000  82.6940910  52.7602220  60.5554570  82.7366390
  51.9726680  61.6355660  83.4472750  48.7988410  69.6437430  81.3208510
  48.1805680  70.1086880  80.7571230  49.3111660  70.3364910  81.7378020
  42.8739270  71.1394100  89.8141290  43.4913270  71.8145180  89.5325740
  42.0132390  71.5482080  89.7228790  38.1671610  70.3293960  78.6948140
  37.7899590  70.8181060  77.9633040  38.4244680  71.0019240  79.3254670
  52.6221020  71.1693860  81.5331280  52.5117350  70.2268190  81.6580700
  52.6189270  71.5309500  82.4194040  50.7261040  69.3507480  87.7723720
  51.1429830  69.1367590  86.9377180  51.4500860  69.6080270  88.3432340
  48.1641300  66.7959180  80.8893770  47.2370580  66.7296560  81.1182240
  48.3166120  67.7339310  80.7749010  48.1510380  63.0676180  77.8860930
  47.2114050  63.2290140  77.9713390  48.4693640  63.7861860  77.3396920
  54.6723140  67.7494700  87.8639960  53.8441770  67.8187790  87.3890090
  55.2673620  68.3349010  87.3955790  52.1938590  68.3579480  81.3929020
  51.5751010  68.0199030  80.7455320  52.1763040  67.7139240  82.1008210
  51.6365150  64.5364020  88.8094830  51.2236330  65.3617730  89.0634820
  50.9041100  63.9509060  88.6171190  43.7697940  67.3223920  83.6713500
  43.3654940  66.6101170  83.1759400  43.8561060  66.9777160  84.5601540
  44.2379640  71.0091480  85.8352710  43.9407930  70.4036950  85.1560490
  45.1879460  71.0468790  85.7242070  43.3298070  70.7473170  92.4860510
  42.4326600  70.9713140  92.7333910  43.3550940  70.8708110  91.5371910
  50.3703290  67.5966290  78.4001770  50.8096570  66.7588720  78.2539590
  51.0831710  68.2295690  78.4865910  48.4798670  72.5362360  82.3683010
  48.9194580  73.2786690  81.9538400  48.4185560  72.7788930  83.2921970
  43.9549640  73.5608190  93.2703030  43.9265070  73.9651140  92.4031460
  43.7914610  72.6318550  93.1074630  53.9520430  58.8509100  76.7142810
  53.6393090  58.9435930  77.6141880  54.7132900  59.4290130  76.6640240
  39.3535570  71.0884230  83.3894970  38.9463650  71.2298820  82.5348570
  40.2448580  70.8044390  83.1866180  51.1468850  75.5231480  79.7246020
  50.9869990  75.2334420  80.6227850  50.9815560  74.7471610  79.1891250
  43.6257230  75.3030010  81.5017640  43.4499710  74.3865550  81.2885440
  42.7712970  75.6617300  81.7415440  50.8494980  73.0319040  78.2844020
  50.1560140  73.0296330  77.6246300  51.5917840  72.6078360  77.8538190
  50.4144910  74.6581750  82.3592510  50.8701860  73.8771130  82.6731130
  50.7537430  75.3688570  82.9033690  38.1647460  70.4298210  89.5183250
  38.3278500  69.9603570  88.7002620  38.6299910  69.9221770  90.1832090
  52.2240550  63.6481440  91.2875800  51.3734140  63.3487190  91.6084870
  52.0642340  63.8923450  90.3759620  49.3190260  65.1483190  93.3874590
  49.6443670  64.3146940  93.0476820  50.1070590  65.6711710  93.5352920
  46.0525050  59.1814670  79.4349650  45.4279230  59.1774540  80.1602960
  45.9655170  58.3145630  79.0385620  42.7280450  64.6837540  82.2825070
  42.5021370  64.4674710  83.1871690  41.9472980  65.1166000  81.9371040
  49.9578210  64.6900910  80.8815720  49.3587100  65.4136710  80.6979340
  50.5057820  64.6277690  80.0992170  45.1679660  65.5823120  92.9485340
  45.0723260  64.6417850  92.7985740  46.0111640  65.8038190  92.5533410
  48.5643080  63.3264450  82.9119000  48.9572650  63.6436650  82.0987690
  48.9259930  62.4476330  83.0263520  46.8735250  62.0771760  94.1715860
  46.1833570  61.8843960  94.8061950  47.6167550  62.3606400  94.7040160
  37.7877480  63.8585370  76.3451920  37.7052150  64.8016130  76.4866910
  37.4360540  63.7160280  75.4664270  49.1498220  65.9170200  87.0069780
  48.4179340  66.4257010  87.3559880  48.7522560  65.1000180  86.7058560
  45.6495760  63.5936480  78.4029030  45.7708580  63.5522960  79.3514850
  45.2644270  64.4560630  78.2475760  53.0394880  58.7836060  92.2579100
  53.3640650  58.0525720  92.7837080  53.0751390  58.4649700  91.3560090
  39.7386440  69.8049640  91.6779060  39.3541230  69.1643310  92.2762020
  40.0498630  70.5085760  92.2473790  52.9652720  68.8961170  85.8665130
  53.6851840  69.3916460  85.4761240  52.7634540  68.2179060  85.2219000
  48.4262660  60.2899130  80.0094520  47.6127270  59.7912300  79.9339830
  48.2324610  61.1297380  79.5930870  48.3471520  68.9670230  91.7534130
  48.2808830  68.0465900  91.4991720  47.7176660  69.0645670  92.4678770
  51.1411050  64.6618780  78.3056680  52.0290670  64.9736010  78.1308020
  51.1116140  63.7891030  77.9137260  42.2502140  69.5676190  83.7117550
  42.7680810  68.7644450  83.6574440  41.7986160  69.5055330  84.5534380
  47.1371640  70.8342470  78.9844850  47.4787340  71.5784700  78.4888170
  46.3084350  71.1473590  79.3469680  42.9359800  66.9921800  93.5082800
  42.6359940  67.1378980  92.6110620  43.7071040  66.4327090  93.4156190
  53.4125320  65.9730620  77.7736540  53.3289040  66.4044840  76.9232980
  54.1319510  66.4328970  78.2063360  54.4412570  72.8272880  80.5018670
  53.7988730  72.1728500  80.7762390  54.0543230  73.2327970  79.7259340
  50.0199050  70.1558310  84.3490360  50.3722870  69.5586440  83.6891730
  49.1361380  69.8302540  84.5198610  46.1062330  70.9156000  81.7560770
  46.7933460  71.4625210  82.1368360  45.3194750  71.4596730  81.7910380
  41.3101320  58.2639680  81.8408650  41.1815950  58.2557580  82.7893570
  40.4863340  58.6022770  81.4899660  48.9854230  71.4340720  87.3155880
  49.6276460  70.7333880  87.4288050  49.5103580  72.2139160  87.1352770
  52.8309950  71.7189340  77.0395020  52.6047530  71.0019780  77.6319660
  52.4406150  71.4701780  76.2016770  52.4126200  69.6361280  78.7009180
  52.1247900  70.0973970  79.4887060  53.2078370  69.1759050  78.9693400
  38.5967840  74.0111060  92.2881880  38.7058960  73.0705800  92.1477270
  37.9448400  74.2765810  91.6395610  46.5880430  72.2826950  93.6880000
  46.2677300  71.5636190  94.2325690  45.9138790  72.9582020  93.7616060
  44.6294600  73.1287400  78.6313150  44.6204700  73.8617090  78.0157660
  43.7092960  72.8818980  78.7240110  49.8034030  62.5153110  89.0516800
  50.1714850  61.6948320  89.3796370  48.9432230  62.5755000  89.4672450
  53.1696060  61.4710050  79.8604360  52.5409220  61.5755720  79.1462590
  52.6747980  61.6906830  80.6498240  47.6154200  73.1915640  77.2938340
  47.7166180  72.9879630  76.3640320  46.7155940  72.9373920  77.4986120
  45.1380090  63.7496000  81.2762240  44.4296240  64.2182340  81.7175850
  45.4224570  63.0918010  81.9107430  46.7636020  65.1692700  89.2754770
  47.2621270  65.6438520  89.9406620  46.9058970  64.2456220  89.4824800
  49.1695520  60.4746660  82.7158030  49.0463300  60.4932790  81.7667540
  50.1180080  60.5225600  82.8356430  46.2572310  75.7101960  81.9886010
  46.5113810  75.6723350  81.0665380  45.3084790  75.5835290  81.9814260
  43.3415110  62.0581080  78.6512950  44.1905640  62.4951230  78.5853140
  42.9746380  62.3701340  79.4785010  53.9702880  61.3860660  90.1183160
  53.4676480  62.1266060  90.4576970  54.7859540  61.7744660  89.8019950
  52.2624890  66.6293840  83.5644520  51.3215030  66.6444070  83.7392210
  52.5768960  65.8429800  84.0104820  41.7368000  75.8933900  84.9115910
  42.4730480  75.3449360  85.1824480  42.1208920  76.7589910  84.7721900
  38.6213480  71.9607470  80.7857420  37.6953260  72.2028610  80.7762830
  39.0869910  72.7881730  80.6642170  40.7426280  75.0779970  94.1001490
  41.5439010  75.3992020  94.5136890  40.2278100  74.7175550  94.8221400
  44.8470310  75.0664210  76.7341480  45.6398920  75.3553040  76.2823270
  44.3274660  74.6356380  76.0553960  49.5790910  71.1859840  94.0476900
  48.9729070  71.2091440  93.3072650  49.2745020  70.4542880  94.5844150
  53.9000480  74.2934340  78.1578220  53.6141990  73.8799480  77.3432400
  53.7020030  75.2222050  78.0378740  45.5162030  68.9724420  92.5773060
  44.7507700  69.5409420  92.4927730  45.6977990  68.6800630  91.6841290
  48.6050440  69.3487650  77.2025820  48.0560540  69.7956950  77.8468560
  49.2269700  68.8436900  77.7263490  40.4947170  65.7083020  93.9387610
  40.5352510  65.4096890  94.8472840  41.3492670  66.1090630  93.7795130
  46.7853200  67.3316180  76.3468220  47.3058860  66.6165200  75.9809370
  47.4321600  67.9702050  76.6468730  51.3331040  68.7544580  91.6703290
  51.7472060  68.9089660  92.5193710  50.3982040  68.8799800  91.8329070
  51.8053210  66.0940740  93.6742440  52.3873980  65.3393060  93.5862920
  51.9814980  66.6248180  92.8973920  46.0946270  68.7065060  89.6399220
  46.5134380  69.5497790  89.4675460  45.1754900  68.8437100  89.4106000
  48.4310170  66.4381240  91.0237060  48.5506380  65.8422380  91.7631900
  49.2904170  66.4750930  90.6038360  50.7698070  66.9918430  89.5999570
  50.2433290  67.5161050  88.9964710  51.1129410  67.6245820  90.2309300
  43.9453690  75.0118070  90.7556950  43.4074780  75.7364130  90.4365650
  44.1987650  74.5348410  89.9654290  45.1978940  62.9802590  92.2812880
  45.7878630  62.6718440  92.9690700  44.3799180  62.5082340  92.4372780
  50.0172370  62.5968400  92.5145900  49.3287890  61.9349940  92.4495890
  50.7378390  62.1506670  92.9594360  50.6472770  59.1920030  78.5736160
  50.9275060  58.3487930  78.9295580  49.8738500  59.4243140  79.0874910
  41.9667260  61.4812420  76.0327160  42.2693160  61.4879850  75.1246310
  42.7061850  61.1310280  76.5294820  45.1852190  60.4247040  77.0183360
  44.8374190  59.7471030  76.4385810  45.3864960  59.9636550  77.8326750
  47.3501230  75.4127790  78.6369960  48.2452020  75.7512760  78.6588720
  47.3818860  74.6907200  78.0094240  38.2043190  73.5743870  84.3177220
  38.5346200  72.7064930  84.0855860  38.6334190  73.7802390  85.1482180
  42.8005110  71.9052880  81.9779190  42.5000650  71.7817850  82.8783100
  42.6942600  71.0461470  81.5694920  38.6933400  74.4414460  87.0558850
  38.2564390  74.6215260  87.8883000  39.2611080  75.1989080  86.9140570
  55.5697030  71.6849280  76.6805870  54.7389990  71.7525930  77.1513100
  55.7468860  72.5753400  76.3772730  55.0253490  68.4296760  79.1840070
  55.7872400  68.9993410  79.2899760  55.0407860  67.8623960  79.9548380
  38.5257830  66.9534690  83.4147730  37.8706670  66.6846330  82.7707430
  39.3635780  66.8439170  82.9649710  56.0313460  69.2846860  84.0282000
  56.4022290  68.5014180  83.6217970  56.6715390  69.9735960  83.8499300
  55.0772660  68.7231130  76.3412590  55.3521500  69.6310010  76.2131810
  54.8883400  68.6593660  77.2774580  51.4748270  61.7475980  77.6366220
  51.8933150  61.5606960  76.7962880  51.1684330  60.8955030  77.9469150
  39.1149760  64.2496350  91.8609490  38.2205810  64.2163110  92.2003200
  39.6547310  64.4483140  92.6260740  52.8025690  61.0328070  93.7461240
  53.6795870  61.0411470  94.1295240  52.8146530  60.2958910  93.1353590
  37.7395910  64.1633620  79.3573060  36.8359990  64.4263820  79.1824720
  38.2236530  64.4344790  78.5773020  53.5141810  58.7186040  89.5662350
  54.1514030  59.3320180  89.9321540  53.6616700  58.7546700  88.6211580
  56.0566360  60.6099830  76.3485490  56.9815670  60.4781010  76.1403780
  56.0342150  60.6892650  77.3021940  56.1304850  61.3810490  78.9742200
  55.3356350  61.3155610  79.5035110  56.3348130  62.3161130  78.9627550
  53.0723270  75.4202040  82.9680590  53.6682340  75.0986610  82.2915010
  53.3301420  74.9473860  83.7593860  40.9785840  71.8519950  93.1171220
  40.9355470  71.4812860  93.9985680  41.1096850  72.7897520  93.2573040
  44.6791870  73.4079540  88.7180940  44.4383230  73.6754100  87.8311460
  45.6194510  73.5785270  88.7731800  46.8846290  59.8712230  92.4737450
  46.8235180  60.4634060  93.2232860  47.8246670  59.7638190  92.3287710
  49.5220850  59.5282290  92.1129740  50.1361260  59.8461580  91.4510820
  50.0670410  59.0430880  92.7325600  40.8173870  74.7982200  90.2369000
  40.2234190  74.6666900  90.9759040  40.8097710  73.9620340  89.7711100
  50.2628890  58.0914430  88.4399030  49.3888730  58.4249540  88.2371960
  50.1539640  57.6187610  89.2650900  51.1700870  60.2985300  89.8240750
  50.8414230  59.4837060  89.4442480  52.1183170  60.2555110  89.7006440
  40.4486100  72.1640580  89.1877040  39.7220160  71.5445870  89.1202990
  40.5095250  72.5581190  88.3175120  44.0531200  74.3785580  85.9726450
  44.5696220  73.7672940  85.4474710  44.7028580  74.8814360  86.4637460
  52.5624780  59.7107370  85.4241030  53.0032870  59.6552470  84.5762630
  52.2932370  60.6265380  85.4951210  54.4263350  59.3422610  83.4349850
  54.3651750  58.3983830  83.2880870  55.2055380  59.4502700  83.9803310
  38.7316100  75.4814970  82.3973800  38.5638140  74.8485650  83.0955690
  37.8650610  75.6874370  82.0467990  39.3544120  59.3131750  79.9005660
  40.1123480  59.4260630  79.3269690  38.8921290  60.1500950  79.8549090
  45.8957930  61.4271020  82.8907970  45.0832440  61.0527910  82.5503850
  46.3999570  60.6716100  83.1929160  53.5417510  58.4935030  79.4031320
  53.7368140  59.3918480  79.6698750  52.7547380  58.2622110  79.8964270
  40.3378800  74.1748200  79.8423940  39.8126420  74.5556230  79.1385900
  40.2623380  74.7998970  80.5633650  41.7269270  59.8395800  78.4407630
  42.2562030  59.0525600  78.3115580  42.3597590  60.5186990  78.6743160
  43.9207110  59.5770940  81.4953020  43.2909850  58.8758250  81.6623150
  43.3812250  60.3375070  81.2786180  46.8599060  76.1910170  94.1663630
  47.7866370  75.9554440  94.2099590  46.8449490  77.0182170  93.6849660
  55.0944120  75.7335740  81.1637880  55.2696310  75.0473480  80.5198800
  54.3965690  76.2582790  80.7714550  42.9371770  76.1230580  78.7173190
  43.6690590  75.8389860  78.1697080  43.1965440  75.8843860  79.6072570
  50.6478130  58.2708500  94.5085980  50.5343580  58.5903110  95.4037500
  51.4647870  58.6721010  94.2123260  51.7061750  72.4740180  65.5329120
  51.2443280  71.7027420  65.8616290  52.5187300  72.5006250  66.0381570
  40.1112100  63.3401690  61.4148140  39.2228800  63.6817660  61.3128020
  40.3953290  63.1402010  60.5228970  42.2873490  61.9233190  62.4486520
  42.3940240  62.8236920  62.7555280  41.3765850  61.8751160  62.1581170
  44.1281220  64.8919560  66.7811700  44.6359440  65.3900530  67.4216720
  44.6594460  64.1154760  66.6051060  56.2292150  63.0624750  70.4841050
  55.5244320  63.4506460  69.9656160  56.4950070  63.7575040  71.0861980
  48.7988410  69.6437430  62.5465020  48.1805680  70.1086880  61.9827740
  49.3111660  70.3364910  62.9634530  42.0932650  61.2428080  69.0545570
  42.4349460  62.0870130  68.7599440  41.1548460  61.3911820  69.1710910
  38.1671610  70.3293960  59.9204650  37.7899590  70.8181060  59.1889550
  38.4244680  71.0019240  60.5511180  53.7916860  72.6033510  68.9552440
  53.1080380  73.2732620  68.9469110  54.3311150  72.8014160  68.1897300
  55.2441000  62.4313170  67.0834170  54.2965910  62.4652150  67.2149600
  55.5690990  63.2452120  67.4683530  45.7760540  58.7310350  65.3790160
  46.0835520  58.1757240  64.6625660  44.8461240  58.8654810  65.1963150
  52.6221020  71.1693860  62.7587790  52.5117350  70.2268190  62.8837210
  52.6189270  71.5309500  63.6450550  48.1641300  66.7959180  62.1150280
  47.2370580  66.7296560  62.3438750  48.3166120  67.7339310  62.0005520
  54.6723140  67.7494700  69.0896470  53.8441770  67.8187790  68.6146600
  55.2673620  68.3349010  68.6212300  52.1938590  68.3579480  62.6185530
  51.5751010  68.0199030  61.9711830  52.1763040  67.7139240  63.3264720
  51.6365150  64.5364020  70.0351340  51.2236330  65.3617730  70.2891330
  50.9041100  63.9509060  69.8427700  43.7697940  67.3223920  64.8970010
  43.3654940  66.6101170  64.4015910  43.8561060  66.9777160  65.7858050
  42.4826560  64.0967130  68.6769050  43.0341150  64.2062470  67.9022300
  42.9970070  64.4704730  69.3924280  43.3298070  70.7473170  73.7117020
  42.4326600  70.9713140  73.9590420  43.3550940  70.8708110  72.7628420
  50.3703290  67.5966290  59.6258280  50.8096570  66.7588720  59.4796100
  51.0831710  68.2295690  59.7122420  48.4798670  72.5362360  63.5939520
  48.9194580  73.2786690  63.1794910  48.4185560  72.7788930  64.5178480
  43.9549640  73.5608190  74.4959540  43.9265070  73.9651140  73.6287970
  43.7914610  72.6318550  74.3331140  53.9520430  58.8509100  57.9399320
  53.6393090  58.9435930  58.8398390  54.7132900  59.4290130  57.8896750
  40.4702570  66.2168900  62.3976660  40.3500170  66.9430990  61.7857930
  40.1603460  65.4471810  61.9204570  55.9064460  74.3435290  75.7923710
  56.3824180  74.8218180  76.4712790  56.5271620  74.2752780  75.0669210
  38.1087940  69.3884040  68.2045300  38.1868360  69.5232810  67.2601020
  38.7229620  68.6799930  68.3973420  39.3535570  71.0884230  64.6151480
  38.9463650  71.2298820  63.7605080  40.2448580  70.8044390  64.4122690
  55.3097710  71.5348140  72.9523720  55.4360770  71.2960020  72.0340900
  55.3519090  70.7032680  73.4245800  43.6257230  75.3030010  62.7274150
  43.4499710  74.3865550  62.5141950  42.7712970  75.6617300  62.9671950
  55.1621720  63.5880600  73.9173460  54.5465990  64.0960270  73.3888920
  54.8418140  62.6878930  73.8599400  38.1647460  70.4298210  70.7439760
  38.3278500  69.9603570  69.9259130  38.6299910  69.9221770  71.4088600
  42.9366230  59.5603970  65.7800330  42.4934380  60.3413510  65.4484850
  43.4951220  59.8833860  66.4871270  46.0525050  59.1814670  60.6606160
  45.4279230  59.1774540  61.3859470  45.9655170  58.3145630  60.2642130
  44.9742130  60.1051300  67.6389930  45.2714460  61.0114130  67.5581950
  45.5227690  59.6170080  67.0249500  42.7280450  64.6837540  63.5081580
  42.5021370  64.4674710  64.4128200  41.9472980  65.1166000  63.1627550
  40.2990200  61.9936790  72.3275630  39.9053590  62.8412000  72.5348410
  39.6108600  61.3563160  72.5184270  46.8735250  62.0771760  75.3972370
  46.1833570  61.8843960  76.0318460  47.6167550  62.3606400  75.9296670
  37.7877480  63.8585370  57.5708430  37.7052150  64.8016130  57.7123420
  37.4360540  63.7160280  56.6920780  45.5875610  62.5924400  66.6378780
  45.5911670  62.1514350  65.7883320  46.4826730  62.9141730  66.7450600
  41.4377990  62.4750890  65.5972990  41.0978040  62.9526120  66.3540040
  40.6755310  62.0216010  65.2374090  53.0394880  58.7836060  73.4835610
  53.3640650  58.0525720  74.0093590  53.0751390  58.4649700  72.5816600
  39.7386440  69.8049640  72.9035570  39.3541230  69.1643310  73.5018530
  40.0498630  70.5085760  73.4730300  38.7524070  61.3969870  64.5137660
  38.4670990  61.0325540  65.3516280  38.6902930  60.6650330  63.9000800
  42.2064740  69.8995810  61.2995250  41.4327000  69.3593430  61.1393970
  42.9359370  69.3802420  60.9613010  52.9652720  68.8961170  67.0921640
  53.6851840  69.3916460  66.7017750  52.7634540  68.2179060  66.4475510
  48.4262660  60.2899130  61.2351030  47.6127270  59.7912300  61.1596340
  48.2324610  61.1297380  60.8187380  42.2502140  69.5676190  64.9374060
  42.7680810  68.7644450  64.8830950  41.7986160  69.5055330  65.7790890
  47.1371640  70.8342470  60.2101360  47.4787340  71.5784700  59.7144680
  46.3084350  71.1473590  60.5726190  39.7346680  66.5337560  71.8499760
  39.3761620  67.1991410  72.4373100  39.4401240  65.7021110  72.2212380
  42.9359800  66.9921800  74.7339310  42.6359940  67.1378980  73.8367130
  43.7071040  66.4327090  74.6412700  54.4899460  68.4298140  72.0763020
  53.7647650  69.0226920  71.8792410  55.0174920  68.4221680  71.2776390
  46.1062330  70.9156000  62.9817280  46.7933460  71.4625210  63.3624870
  45.3194750  71.4596730  63.0166890  45.4089540  67.9202030  62.5942640
  45.8652320  68.7307280  62.8202830  45.0577750  67.6025170  63.4261130
  41.3101320  58.2639680  63.0665160  41.1815950  58.2557580  64.0150080
  40.4863340  58.6022770  62.7156170  52.4126200  69.6361280  59.9265690
  52.1247900  70.0973970  60.7143570  53.2078370  69.1759050  60.1949910
  38.5967840  74.0111060  73.5138390  38.7058960  73.0705800  73.3733780
  37.9448400  74.2765810  72.8652120  46.5880430  72.2826950  74.9136510
  46.2677300  71.5636190  75.4582200  45.9138790  72.9582020  74.9872570
  44.6294600  73.1287400  59.8569660  44.6204700  73.8617090  59.2414170
  43.7092960  72.8818980  59.9496620  40.2301240  68.3502290  60.6016420
  39.6229190  69.0901190  60.6111720  40.7050590  68.4401650  59.7754620
  49.8034030  62.5153110  70.2773310  50.1714850  61.6948320  70.6052880
  48.9432230  62.5755000  70.6928960  53.1696060  61.4710050  61.0860870
  52.5409220  61.5755720  60.3719100  52.6747980  61.6906830  61.8754750
  47.6154200  73.1915640  58.5194850  47.7166180  72.9879630  57.5896830
  46.7155940  72.9373920  58.7242630  45.1380090  63.7496000  62.5018750
  44.4296240  64.2182340  62.9432360  45.4224570  63.0918010  63.1363940
  43.3415110  62.0581080  59.8769460  44.1905640  62.4951230  59.8109650
  42.9746380  62.3701340  60.7041520  53.9702880  61.3860660  71.3439670
  53.4676480  62.1266060  71.6833480  54.7859540  61.7744660  71.0276460
  42.2406530  68.3113440  58.3504990  43.0069800  68.1994800  58.9130420
  42.3181220  67.6151410  57.6981760  40.9353290  65.7438510  59.0337880
  41.0156880  64.7966020  59.1455280  41.8273040  66.0745390  59.1398540
  54.2650470  73.8002690  66.4655290  54.3897890  74.6233860  66.9379100
  55.1316030  73.5893420  66.1179440  41.7368000  75.8933900  66.1372420
  42.4730480  75.3449360  66.4080990  42.1208920  76.7589910  65.9978410
  40.7426280  75.0779970  75.3258000  41.5439010  75.3992020  75.7393400
  40.2278100  74.7175550  76.0477910  44.8470310  75.0664210  57.9597990
  45.6398920  75.3553040  57.5079780  44.3274660  74.6356380  57.2810470
  49.5790910  71.1859840  75.2733410  48.9729070  71.2091440  74.5329160
  49.2745020  70.4542880  75.8100660  51.0091280  74.9140130  73.8842820
  51.9613030  74.8298150  73.8343060  50.8619500  75.5781840  74.5576610
  38.4624090  67.5653430  74.2694050  38.9663110  66.9860710  74.8410280
  37.7231510  67.8493660  74.8070420  45.3647710  70.2867620  57.8240340
  45.2598350  69.6719970  58.5501720  45.1971930  69.7633510  57.0403350
  48.6050440  69.3487650  58.4282330  48.0560540  69.7956950  59.0725070
  49.2269700  68.8436900  58.9520000  52.6585380  70.7029750  74.3604590
  53.3994850  71.0405510  73.8572050  51.8958060  70.8721810  73.8074360
  44.2725560  68.3078570  60.3247630  44.6941980  68.1418440  61.1679020
  44.3976400  67.4978800  59.8302770  50.6472770  59.1920030  59.7992670
  50.9275060  58.3487930  60.1552090  49.8738500  59.4243140  60.3131420
  41.9667260  61.4812420  57.2583670  42.2693160  61.4879850  56.3502820
  42.7061850  61.1310280  57.7551330  46.8015900  76.2469280  72.2400110
  46.7274600  77.1504420  72.5472480  45.8994740  75.9281180  72.2122180
  45.1852190  60.4247040  58.2439870  44.8374190  59.7471030  57.6642320
  45.3864960  59.9636550  59.0583260  40.9897390  70.7854840  58.0913470
  41.4272260  71.3284510  58.7471050  41.4745120  69.9601790  58.1009810
  38.2043190  73.5743870  65.5433730  38.5346200  72.7064930  65.3112370
  38.6334190  73.7802390  66.3738690  42.8005110  71.9052880  63.2035700
  42.5000650  71.7817850  64.1039610  42.6942600  71.0461470  62.7951430
  38.6933400  74.4414460  68.2815360  38.2564390  74.6215260  69.1139510
  39.2611080  75.1989080  68.1397080  54.3295580  73.9431460  72.5692670
  53.7297570  74.0024020  71.8256590  54.4589480  73.0036440  72.6989520
  56.0313460  69.2846860  65.2538510  56.4022290  68.5014180  64.8474480
  56.6715390  69.9735960  65.0755810  51.4748270  61.7475980  58.8622730
  51.8933150  61.5606960  58.0219390  51.1684330  60.8955030  59.1725660
  54.3637620  65.8071640  72.1938050  54.1323710  65.5784390  71.2936000
  54.6242170  66.7271190  72.1482940  39.1149760  64.2496350  73.0866000
  38.2205810  64.2163110  73.4259710  39.6547310  64.4483140  73.8517250
  52.8025690  61.0328070  74.9717750  53.6795870  61.0411470  75.3551750
  52.8146530  60.2958910  74.3610100  37.7395910  64.1633620  60.5829570
  36.8359990  64.4263820  60.4081230  38.2236530  64.4344790  59.8029530
  54.4278680  64.9697480  69.3825320  53.4781390  64.9361020  69.4970310
  54.6091690  65.8797590  69.1475090  40.2823120  63.2199160  58.4923950
  40.9914820  62.7982380  58.0071230  39.5663060  63.2874390  57.8607300
  39.9297280  59.2738490  57.5326600  40.6525410  59.8147430  57.8507820
  40.2021800  59.0001910  56.6568140  39.6189470  58.5244680  67.4349220
  40.2665660  57.9742060  66.9944380  40.0391310  58.7787830  68.2565030
  53.5141810  58.7186040  70.7918860  54.1514030  59.3320180  71.1578050
  53.6616700  58.7546700  69.8468090  56.0566360  60.6099830  57.5742000
  56.9815670  60.4781010  57.3660290  56.0342150  60.6892650  58.5278450
  40.9785840  71.8519950  74.3427730  40.9355470  71.4812860  75.2242190
  41.1096850  72.7897520  74.4829550  49.5220850  59.5282290  73.3386250
  50.1361260  59.8461580  72.6767330  50.0670410  59.0430880  73.9582110
  55.9396030  75.4273920  70.7448090  55.4454310  75.8242790  70.0275220
  55.3309320  74.8023130  71.1385370  50.2628890  58.0914430  69.6655540
  49.3888730  58.4249540  69.4628470  50.1539640  57.6187610  70.4907410
  51.1700870  60.2985300  71.0497260  50.8414230  59.4837060  70.6698990
  52.1183170  60.2555110  70.9262950  53.6235480  76.0697340  68.0234830
  53.1638450  76.8213150  67.6492850  52.9947940  75.3503810  67.9649630
  46.7926700  75.2694070  68.0251940  47.0804510  75.0148370  67.1484950
  47.3049920  74.7171430  68.6157510  48.0103710  59.0084270  68.6048450
  47.2275500  59.4829770  68.8845210  47.7166640  58.1039100  68.4961630
  39.3544120  59.3131750  61.1262170  40.1123480  59.4260630  60.5526200
  38.8921290  60.1500950  61.0805600  45.8957930  61.4271020  64.1164480
  45.0832440  61.0527910  63.7760360  46.3999570  60.6716100  64.4185670
  53.5417510  58.4935030  60.6287830  53.7368140  59.3918480  60.8955260
  52.7547380  58.2622110  61.1220780  41.7269270  59.8395800  59.6664140
  42.2562030  59.0525600  59.5372090  42.3597590  60.5186990  59.8999670
  43.9207110  59.5770940  62.7209530  43.2909850  58.8758250  62.8879660
  43.3812250  60.3375070  62.5042690  46.8599060  76.1910170  75.3920140
  47.7866370  75.9554440  75.4356100  46.8449490  77.0182170  74.9106170
  42.9371770  76.1230580  59.9429700  43.6690590  75.8389860  59.3953590
  43.1965440  75.8843860  60.8329080  42.0986560  72.2395310  59.9476030
  41.4695440  72.7080410  60.4961860  42.2134390  71.3944530  60.3822220
  50.6478130  58.2708500  75.7342490  50.5343580  58.5903110  76.6294010
  51.4647870  58.6721010  75.4379770  53.4276620  75.4180030  75.2161180
  54.2201940  74.9229260  75.0087140  53.7209770  76.0970170  75.8236790
  47.6854320  68.0679990  47.9786500  46.9096420  67.5880430  48.2685070
  48.3367250  67.3885640  47.8042660  41.6821410  72.4139890  49.0520280
  41.9849450  71.5237630  48.8730500  42.4265000  72.9710110  48.8242530
  38.0745110  65.9407340  48.5244350  38.6461220  65.1729540  48.5247990
  38.0746650  66.2396100  47.6150960  47.9325060  74.7598190  46.3789620
  47.3136500  75.2155690  45.8084060  48.7876840  74.9149650  45.9779320
  47.1263310  70.7437180  47.9856660  47.0571590  69.8027120  47.8245790
  47.8883170  70.8338590  48.5579230  48.1568480  63.5507560  48.2125590
  48.5333300  62.6779440  48.0999260  48.0587990  63.8866260  47.3216030
  42.2873490  61.9233190  43.6743030  42.3940240  62.8236920  43.9811790
  41.3765850  61.8751160  43.3837680  51.9392600  61.0458000  45.1453930
  52.7602220  60.5554570  45.1879410  51.9726680  61.6355660  45.8985770
  56.2292150  63.0624750  51.7097560  55.5244320  63.4506460  51.1912670
  56.4950070  63.7575040  52.3118490  48.7988410  69.6437430  43.7721530
  48.1805680  70.1086880  43.2084250  49.3111660  70.3364910  44.1891040
  43.6620170  69.1713300  50.4505130  43.3289550  69.7982220  51.0926200
  43.8386850  69.6975180  49.6706800  52.1754080  62.9858380  47.9181470
  51.4709650  63.2743270  48.4984580  52.5366240  63.7958490  47.5581030
  42.8739270  71.1394100  52.2654310  43.4913270  71.8145180  51.9838760
  42.0132390  71.5482080  52.1741810  55.2441000  62.4313170  48.3090680
  54.2965910  62.4652150  48.4406110  55.5690990  63.2452120  48.6940040
  45.7760540  58.7310350  46.6046670  46.0835520  58.1757240  45.8882170
  44.8461240  58.8654810  46.4219660  50.7261040  69.3507480  50.2236740
  51.1429830  69.1367590  49.3890200  51.4500860  69.6080270  50.7945360
  54.6723140  67.7494700  50.3152980  53.8441770  67.8187790  49.8403110
  55.2673620  68.3349010  49.8468810  51.6365150  64.5364020  51.2607850
  51.2236330  65.3617730  51.5147840  50.9041100  63.9509060  51.0684210
  44.2379640  71.0091480  48.2865730  43.9407930  70.4036950  47.6073510
  45.1879460  71.0468790  48.1755090  52.3265250  74.5823350  51.9488830
  51.8495810  75.3895540  51.7561440  51.6427040  73.9301680  52.1015040
  43.3298070  70.7473170  54.9373530  42.4326600  70.9713140  55.1846930
  43.3550940  70.8708110  53.9884930  42.1569290  67.6186490  53.5130900
  42.0177060  68.4909290  53.8818300  41.2750650  67.2759300  53.3678840
  48.4798670  72.5362360  44.8196030  48.9194580  73.2786690  44.4051420
  48.4185560  72.7788930  45.7434990  43.9549640  73.5608190  55.7216050
  43.9265070  73.9651140  54.8544480  43.7914610  72.6318550  55.5587650
  53.9520430  58.8509100  39.1655830  53.6393090  58.9435930  40.0654900
  54.7132900  59.4290130  39.1153260  49.1714450  75.2376140  52.7475040
  49.6859120  75.1484150  53.5497470  48.3283530  75.5835840  53.0402950
  51.1468850  75.5231480  42.1759040  50.9869990  75.2334420  43.0740870
  50.9815560  74.7471610  41.6404270  43.6257230  75.3030010  43.9530660
  43.4499710  74.3865550  43.7398460  42.7712970  75.6617300  44.1928460
  50.8494980  73.0319040  40.7357040  50.1560140  73.0296330  40.0759320
  51.5917840  72.6078360  40.3051210  50.4144910  74.6581750  44.8105530
  50.8701860  73.8771130  45.1244150  50.7537430  75.3688570  45.3546710
  55.1621720  63.5880600  55.1429970  54.5465990  64.0960270  54.6145430
  54.8418140  62.6878930  55.0855910  38.1647460  70.4298210  51.9696270
  38.3278500  69.9603570  51.1515640  38.6299910  69.9221770  52.6345110
  42.9366230  59.5603970  47.0056840  42.4934380  60.3413510  46.6741360
  43.4951220  59.8833860  47.7127780  47.2236040  62.4272490  52.6092160
  46.7615410  62.6355510  53.4212100  46.8214150  61.6131840  52.3062830
  52.2240550  63.6481440  53.7388820  51.3734140  63.3487190  54.0597890
  52.0642340  63.8923450  52.8272640  46.0525050  59.1814670  41.8862670
  45.4279230  59.1774540  42.6115980  45.9655170  58.3145630  41.4898640
  44.9742130  60.1051300  48.8646440  45.2714460  61.0114130  48.7838460
  45.5227690  59.6170080  48.2506010  48.5643080  63.3264450  45.3632020
  48.9572650  63.6436650  44.5500710  48.9259930  62.4476330  45.4776540
  37.7877480  63.8585370  38.7964940  37.7052150  64.8016130  38.9379930
  37.4360540  63.7160280  37.9177290  49.1498220  65.9170200  49.4582800
  48.4179340  66.4257010  49.8072900  48.7522560  65.1000180  49.1571580
  45.5875610  62.5924400  47.8635290  45.5911670  62.1514350  47.0139830
  46.4826730  62.9141730  47.9707110  49.6124130  61.3703880  48.8705740
  49.6296870  61.8212530  49.7147590  49.3639710  60.4709520  49.0839180
  53.0394880  58.7836060  54.7092120  53.3640650  58.0525720  55.2350100
  53.0751390  58.4649700  53.8073110  39.7386440  69.8049640  54.1292080
  39.3541230  69.1643310  54.7275040  40.0498630  70.5085760  54.6986810
  45.8883580  66.6526180  49.6100700  46.2553710  66.1784750  50.3562040
  45.6988640  67.5267750  49.9509040  52.9652720  68.8961170  48.3178150
  53.6851840  69.3916460  47.9274260  52.7634540  68.2179060  47.6732020
  48.4262660  60.2899130  42.4607540  47.6127270  59.7912300  42.3852850
  48.2324610  61.1297380  42.0443890  48.3471520  68.9670230  54.2047150
  48.2808830  68.0465900  53.9504740  47.7176660  69.0645670  54.9191790
  47.1371640  70.8342470  41.4357870  47.4787340  71.5784700  40.9401190
  46.3084350  71.1473590  41.7982700  39.7346680  66.5337560  53.0756270
  39.3761620  67.1991410  53.6629610  39.4401240  65.7021110  53.4468890
  42.9359800  66.9921800  55.9595820  42.6359940  67.1378980  55.0623640
  43.7071040  66.4327090  55.8669210  48.2788250  71.7890800  53.9550950
  48.2932790  70.8571760  53.7369860  47.5713350  71.8750560  54.5940720
  54.4412570  72.8272880  42.9531690  53.7988730  72.1728500  43.2275410
  54.0543230  73.2327970  42.1772360  50.0199050  70.1558310  46.8003380
  50.3722870  69.5586440  46.1404750  49.1361380  69.8302540  46.9711630
  46.1062330  70.9156000  44.2073790  46.7933460  71.4625210  44.5881380
  45.3194750  71.4596730  44.2423400  45.4089540  67.9202030  43.8199150
  45.8652320  68.7307280  44.0459340  45.0577750  67.6025170  44.6517640
  47.7122150  73.4308370  51.0491450  48.3564370  73.6367750  51.7264870
  48.0751590  72.6696770  50.5962300  48.9854230  71.4340720  49.7668900
  49.6276460  70.7333880  49.8801070  49.5103580  72.2139160  49.5865790
  52.8309950  71.7189340  39.4908040  52.6047530  71.0019780  40.0832680
  52.4406150  71.4701780  38.6529790  50.7591850  72.2335620  52.9704960
  51.0948090  72.8202310  53.6482880  49.8392190  72.1028330  53.2002750
  38.5967840  74.0111060  54.7394900  38.7058960  73.0705800  54.5990290
  37.9448400  74.2765810  54.0908630  46.5880430  72.2826950  56.1393020
  46.2677300  71.5636190  56.6838710  45.9138790  72.9582020  56.2129080
  44.6294600  73.1287400  41.0826170  44.6204700  73.8617090  40.4670680
  43.7092960  72.8818980  41.1753130  49.8034030  62.5153110  51.5029820
  50.1714850  61.6948320  51.8309390  48.9432230  62.5755000  51.9185470
  53.1696060  61.4710050  42.3117380  52.5409220  61.5755720  41.5975610
  52.6747980  61.6906830  43.1011260  47.6154200  73.1915640  39.7451360
  47.7166180  72.9879630  38.8153340  46.7155940  72.9373920  39.9499140
  45.1380090  63.7496000  43.7275260  44.4296240  64.2182340  44.1688870
  45.4224570  63.0918010  44.3620450  46.7636020  65.1692700  51.7267790
  47.2621270  65.6438520  52.3919640  46.9058970  64.2456220  51.9337820
  49.1695520  60.4746660  45.1671050  49.0463300  60.4932790  44.2180560
  50.1180080  60.5225600  45.2869450  46.2572310  75.7101960  44.4399030
  46.5113810  75.6723350  43.5178400  45.3084790  75.5835290  44.4327280
  53.9702880  61.3860660  52.5696180  53.4676480  62.1266060  52.9089990
  54.7859540  61.7744660  52.2532970  41.7368000  75.8933900  47.3628930
  42.4730480  75.3449360  47.6337500  42.1208920  76.7589910  47.2234920
  40.7426280  75.0779970  56.5514510  41.5439010  75.3992020  56.9649910
  40.2278100  74.7175550  57.2734420  44.8470310  75.0664210  39.1854500
  45.6398920  75.3553040  38.7336290  44.3274660  74.6356380  38.5066980
  49.5790910  71.1859840  56.4989920  48.9729070  71.2091440  55.7585670
  49.2745020  70.4542880  57.0357170  51.0091280  74.9140130  55.1099330
  51.9613030  74.8298150  55.0599570  50.8619500  75.5781840  55.7833120
  45.3647710  70.2867620  39.0496850  45.2598350  69.6719970  39.7758230
  45.1971930  69.7633510  38.2659860  45.5162030  68.9724420  55.0286080
  44.7507700  69.5409420  54.9440750  45.6977990  68.6800630  54.1354310
  48.6050440  69.3487650  39.6538840  48.0560540  69.7956950  40.2981580
  49.2269700  68.8436900  40.1776510  40.4947170  65.7083020  56.3900630
  40.5352510  65.4096890  57.2985860  41.3492670  66.1090630  56.2308150
  42.4352980  64.2875120  54.3575120  41.9049440  63.7966070  53.7298460
  43.1041050  64.7159320  53.8233050  51.3331040  68.7544580  54.1216310
  51.7472060  68.9089660  54.9706730  50.3982040  68.8799800  54.2842090
  51.8053210  66.0940740  56.1255460  52.3873980  65.3393060  56.0375940
  51.9814980  66.6248180  55.3486940  42.9225280  61.2537490  54.4372410
  42.8282150  60.6358240  53.7123280  42.3422670  61.9803780  54.2102320
  45.6886720  59.8110730  51.4699800  45.2404020  59.8334990  50.6245350
  45.0551920  59.4129750  52.0670100  46.0946270  68.7065060  52.0912240
  46.5134380  69.5497790  51.9188480  45.1754900  68.8437100  51.8619020
  48.4310170  66.4381240  53.4750080  48.5506380  65.8422380  54.2144920
  49.2904170  66.4750930  53.0551380  50.7698070  66.9918430  52.0512590
  50.2433290  67.5161050  51.4477730  51.1129410  67.6245820  52.6822320
  43.9453690  75.0118070  53.2069970  43.4074780  75.7364130  52.8878670
  44.1987650  74.5348410  52.4167310  50.6472770  59.1920030  41.0249180
  50.9275060  58.3487930  41.3808600  49.8738500  59.4243140  41.5387930
  46.8015900  76.2469280  53.4656620  46.7274600  77.1504420  53.7728990
  45.8994740  75.9281180  53.4378690  47.3501230  75.4127790  41.0882980
  48.2452020  75.7512760  41.1101740  47.3818860  74.6907200  40.4607260
  38.2043190  73.5743870  46.7690240  38.5346200  72.7064930  46.5368880
  38.6334190  73.7802390  47.5995200  42.8005110  71.9052880  44.4292210
  42.5000650  71.7817850  45.3296120  42.6942600  71.0461470  44.0207940
  38.6933400  74.4414460  49.5071870  38.2564390  74.6215260  50.3396020
  39.2611080  75.1989080  49.3653590  55.5697030  71.6849280  39.1318890
  54.7389990  71.7525930  39.6026120  55.7468860  72.5753400  38.8285750
  56.0313460  69.2846860  46.4795020  56.4022290  68.5014180  46.0730990
  56.6715390  69.9735960  46.3012320  55.0772660  68.7231130  38.7925610
  55.3521500  69.6310010  38.6644830  54.8883400  68.6593660  39.7287600
  51.4748270  61.7475980  40.0879240  51.8933150  61.5606960  39.2475900
  51.1684330  60.8955030  40.3982170  39.5633760  67.3387260  50.4064090
  39.9306800  67.2514660  51.2860110  38.9944580  66.5753810  50.3070950
  54.3637620  65.8071640  53.4194560  54.1323710  65.5784390  52.5192510
  54.6242170  66.7271190  53.3739450  39.1149760  64.2496350  54.3122510
  38.2205810  64.2163110  54.6516220  39.6547310  64.4483140  55.0773760
  52.8025690  61.0328070  56.1974260  53.6795870  61.0411470  56.5808260
  52.8146530  60.2958910  55.5866610  54.2488960  64.8857610  47.0862280
  54.7726440  64.3920260  46.4552450  54.8348380  65.0207970  47.8309850
  54.4278680  64.9697480  50.6081830  53.4781390  64.9361020  50.7226820
  54.6091690  65.8797590  50.3731600  55.1676090  62.7791910  45.5592370
  55.0575370  62.6247950  46.4974640  55.9283680  62.2512850  45.3167780
  53.5141810  58.7186040  52.0175370  54.1514030  59.3320180  52.3834560
  53.6616700  58.7546700  51.0724600  56.1304850  61.3810490  41.4255220
  55.3356350  61.3155610  41.9548130  56.3348130  62.3161130  41.4140570
  40.9785840  71.8519950  55.5684240  40.9355470  71.4812860  56.4498700
  41.1096850  72.7897520  55.7086060  44.6791870  73.4079540  51.1693960
  44.4383230  73.6754100  50.2824480  45.6194510  73.5785270  51.2244820
  46.8846290  59.8712230  54.9250470  46.8235180  60.4634060  55.6745880
  47.8246670  59.7638190  54.7800730  49.5220850  59.5282290  54.5642760
  50.1361260  59.8461580  53.9023840  50.0670410  59.0430880  55.1838620
  40.0442110  58.2076550  54.6781820  40.5925100  58.0264600  53.9147930
  40.1097420  57.4170660  55.2138130  40.8173870  74.7982200  52.6882020
  40.2234190  74.6666900  53.4272060  40.8097710  73.9620340  52.2224120
  50.2628890  58.0914430  50.8912050  49.3888730  58.4249540  50.6884980
  50.1539640  57.6187610  51.7163920  51.1700870  60.2985300  52.2753770
  50.8414230  59.4837060  51.8955500  52.1183170  60.2555110  52.1519460
  40.4486100  72.1640580  51.6390060  39.7220160  71.5445870  51.5716010
  40.5095250  72.5581190  50.7688140  44.0531200  74.3785580  48.4239470
  44.5696220  73.7672940  47.8987730  44.7028580  74.8814360  48.9150480
  46.7926700  75.2694070  49.2508450  47.0804510  75.0148370  48.3741460
  47.3049920  74.7171430  49.8414020  48.0103710  59.0084270  49.8304960
  47.2275500  59.4829770  50.1101720  47.7166640  58.1039100  49.7218140
  52.5624780  59.7107370  47.8754050  53.0032870  59.6552470  47.0275650
  52.2932370  60.6265380  47.9464230  54.4263350  59.3422610  45.8862870
  54.3651750  58.3983830  45.7393890  55.2055380  59.4502700  46.4316330
  38.7316100  75.4814970  44.8486820  38.5638140  74.8485650  45.5468710
  37.8650610  75.6874370  44.4981010  45.8957930  61.4271020  45.3420990
  45.0832440  61.0527910  45.0016870  46.3999570  60.6716100  45.6442180
  50.3982910  58.0913470  46.5804060  51.0012280  58.6633680  47.0552580
  49.6575900  58.6552910  46.3577960  53.5417510  58.4935030  41.8544340
  53.7368140  59.3918480  42.1211770  52.7547380  58.2622110  42.3477290
  40.3378800  74.1748200  42.2936960  39.8126420  74.5556230  41.5898920
  40.2623380  74.7998970  43.0146670  41.7269270  59.8395800  40.8920650
  42.2562030  59.0525600  40.7628600  42.3597590  60.5186990  41.1256180
  43.9207110  59.5770940  43.9466040  43.2909850  58.8758250  44.1136170
  43.3812250  60.3375070  43.7299200  46.8599060  76.1910170  56.6176650
  47.7866370  75.9554440  56.6612610  46.8449490  77.0182170  56.1362680
  44.0462670  58.8554920  56.3818530  43.7646940  59.3588520  55.6179350
  44.4282370  58.0576670  56.0160660  42.9371770  76.1230580  41.1686210
  43.6690590  75.8389860  40.6210100  43.1965440  75.8843860  42.0585590
  50.6478130  58.2708500  56.9599000  50.5343580  58.5903110  57.8550520
  51.4647870  58.6721010  56.6636280  49.5536280  66.2900970  27.3233740
  49.4730330  65.3755580  27.0525450  49.1400700  66.7868040  26.6173450
  47.6854320  68.0679990  29.2043010  46.9096420  67.5880430  29.4941580
  48.3367250  67.3885640  29.0299170  41.7020150  68.3799800  30.0818770
  40.8705030  68.1248510  30.4815280  42.3101130  68.4510570  30.8176690
  51.7061750  72.4740180  27.9842140  51.2443280  71.7027420  28.3129310
  52.5187300  72.5006250  28.4894590  41.6821410  72.4139890  30.2776790
  41.9849450  71.5237630  30.0987010  42.4265000  72.9710110  30.0499040
  40.1112100  63.3401690  23.8661160  39.2228800  63.6817660  23.7641040
  40.3953290  63.1402010  22.9741990  38.0745110  65.9407340  29.7500860
  38.6461220  65.1729540  29.7504500  38.0746650  66.2396100  28.8407470
  48.1568480  63.5507560  29.4382100  48.5333300  62.6779440  29.3255770
  48.0587990  63.8866260  28.5472540  51.9392600  61.0458000  26.3710440
  52.7602220  60.5554570  26.4135920  51.9726680  61.6355660  27.1242280
  39.9356650  63.8452200  30.1452130  40.6166760  64.1090570  30.7639530
  39.6204700  63.0053070  30.4790140  44.1281220  64.8919560  29.2324720
  44.6359440  65.3900530  29.8729740  44.6594460  64.1154760  29.0564080
  48.7988410  69.6437430  24.9978040  48.1805680  70.1086880  24.4340760
  49.3111660  70.3364910  25.4147550  43.6620170  69.1713300  31.6761640
  43.3289550  69.7982220  32.3182710  43.8386850  69.6975180  30.8963310
  52.1754080  62.9858380  29.1437980  51.4709650  63.2743270  29.7241090
  52.5366240  63.7958490  28.7837540  42.8739270  71.1394100  33.4910820
  43.4913270  71.8145180  33.2095270  42.0132390  71.5482080  33.3998320
  38.1671610  70.3293960  22.3717670  37.7899590  70.8181060  21.6402570
  38.4244680  71.0019240  23.0024200  53.7916860  72.6033510  31.4065460
  53.1080380  73.2732620  31.3982130  54.3311150  72.8014160  30.6410320
  45.7760540  58.7310350  27.8303180  46.0835520  58.1757240  27.1138680
  44.8461240  58.8654810  27.6476170  51.3275600  74.4477640  30.1210640
  51.3402760  74.0439930  29.2532900  50.7750820  75.2224930  30.0172070
  52.6221020  71.1693860  25.2100810  52.5117350  70.2268190  25.3350230
  52.6189270  71.5309500  26.0963570  50.7261040  69.3507480  31.4493250
  51.1429830  69.1367590  30.6146710  51.4500860  69.6080270  32.0201870
  48.1641300  66.7959180  24.5663300  47.2370580  66.7296560  24.7951770
  48.3166120  67.7339310  24.4518540  48.1510380  63.0676180  21.5630460
  47.2114050  63.2290140  21.6482920  48.4693640  63.7861860  21.0166450
  54.6723140  67.7494700  31.5409490  53.8441770  67.8187790  31.0659620
  55.2673620  68.3349010  31.0725320  52.1938590  68.3579480  25.0698550
  51.5751010  68.0199030  24.4224850  52.1763040  67.7139240  25.7777740
  44.2379640  71.0091480  29.5122240  43.9407930  70.4036950  28.8330020
  45.1879460  71.0468790  29.4011600  42.4826560  64.0967130  31.1282070
  43.0341150  64.2062470  30.3535320  42.9970070  64.4704730  31.8437300
  52.3265250  74.5823350  33.1745340  51.8495810  75.3895540  32.9817950
  51.6427040  73.9301680  33.3271550  43.3298070  70.7473170  36.1630040
  42.4326600  70.9713140  36.4103440  43.3550940  70.8708110  35.2141440
  50.3703290  67.5966290  22.0771300  50.8096570  66.7588720  21.9309120
  51.0831710  68.2295690  22.1635440  42.1569290  67.6186490  34.7387410
  42.0177060  68.4909290  35.1074810  41.2750650  67.2759300  34.5935350
  43.9549640  73.5608190  36.9472560  43.9265070  73.9651140  36.0800990
  43.7914610  72.6318550  36.7844160  53.9520430  58.8509100  20.3912340
  53.6393090  58.9435930  21.2911410  54.7132900  59.4290130  20.3409770
  55.9064460  74.3435290  38.2436730  56.3824180  74.8218180  38.9225810
  56.5271620  74.2752780  37.5182230  38.1087940  69.3884040  30.6558320
  38.1868360  69.5232810  29.7114040  38.7229620  68.6799930  30.8486440
  39.3535570  71.0884230  27.0664500  38.9463650  71.2298820  26.2118100
  40.2448580  70.8044390  26.8635710  55.3097710  71.5348140  35.4036740
  55.4360770  71.2960020  34.4853920  55.3519090  70.7032680  35.8758820
  51.1468850  75.5231480  23.4015550  50.9869990  75.2334420  24.2997380
  50.9815560  74.7471610  22.8660780  50.8494980  73.0319040  21.9613550
  50.1560140  73.0296330  21.3015830  51.5917840  72.6078360  21.5307720
  38.1647460  70.4298210  33.1952780  38.3278500  69.9603570  32.3772150
  38.6299910  69.9221770  33.8601620  42.9366230  59.5603970  28.2313350
  42.4934380  60.3413510  27.8997870  43.4951220  59.8833860  28.9384290
  46.0525050  59.1814670  23.1119180  45.4279230  59.1774540  23.8372490
  45.9655170  58.3145630  22.7155150  44.9742130  60.1051300  30.0902950
  45.2714460  61.0114130  30.0094970  45.5227690  59.6170080  29.4762520
  49.9578210  64.6900910  24.5585250  49.3587100  65.4136710  24.3748870
  50.5057820  64.6277690  23.7761700  48.5643080  63.3264450  26.5888530
  48.9572650  63.6436650  25.7757220  48.9259930  62.4476330  26.7033050
  37.7877480  63.8585370  20.0221450  37.7052150  64.8016130  20.1636440
  37.4360540  63.7160280  19.1433800  49.1498220  65.9170200  30.6839310
  48.4179340  66.4257010  31.0329410  48.7522560  65.1000180  30.3828090
  45.5875610  62.5924400  29.0891800  45.5911670  62.1514350  28.2396340
  46.4826730  62.9141730  29.1963620  41.4377990  62.4750890  28.0486010
  41.0978040  62.9526120  28.8053060  40.6755310  62.0216010  27.6887110
  49.6124130  61.3703880  30.0962250  49.6296870  61.8212530  30.9404100
  49.3639710  60.4709520  30.3095690  53.0394880  58.7836060  35.9348630
  53.3640650  58.0525720  36.4606610  53.0751390  58.4649700  35.0329620
  39.7386440  69.8049640  35.3548590  39.3541230  69.1643310  35.9531550
  40.0498630  70.5085760  35.9243320  45.8883580  66.6526180  30.8357210
  46.2553710  66.1784750  31.5818550  45.6988640  67.5267750  31.1765550
  38.7524070  61.3969870  26.9650680  38.4670990  61.0325540  27.8029300
  38.6902930  60.6650330  26.3513820  43.6782950  65.6934820  33.1541420
  43.3740020  66.5726800  33.3791780  44.6329410  65.7534610  33.1898860
  42.2064740  69.8995810  23.7508270  41.4327000  69.3593430  23.5906990
  42.9359370  69.3802420  23.4126030  52.9652720  68.8961170  29.5434660
  53.6851840  69.3916460  29.1530770  52.7634540  68.2179060  28.8988530
  48.4262660  60.2899130  23.6864050  47.6127270  59.7912300  23.6109360
  48.2324610  61.1297380  23.2700400  48.3471520  68.9670230  35.4303660
  48.2808830  68.0465900  35.1761250  47.7176660  69.0645670  36.1448300
  51.1411050  64.6618780  21.9826210  52.0290670  64.9736010  21.8077550
  51.1116140  63.7891030  21.5906790  42.2502140  69.5676190  27.3887080
  42.7680810  68.7644450  27.3343970  41.7986160  69.5055330  28.2303910
  47.1371640  70.8342470  22.6614380  47.4787340  71.5784700  22.1657700
  46.3084350  71.1473590  23.0239210  39.7346680  66.5337560  34.3012780
  39.3761620  67.1991410  34.8886120  39.4401240  65.7021110  34.6725400
  48.2788250  71.7890800  35.1807460  48.2932790  70.8571760  34.9626370
  47.5713350  71.8750560  35.8197230  53.4125320  65.9730620  21.4506070
  53.3289040  66.4044840  20.6002510  54.1319510  66.4328970  21.8832890
  54.4899460  68.4298140  34.5276040  53.7647650  69.0226920  34.3305430
  55.0174920  68.4221680  33.7289410  54.4412570  72.8272880  24.1788200
  53.7988730  72.1728500  24.4531920  54.0543230  73.2327970  23.4028870
  50.0199050  70.1558310  28.0259890  50.3722870  69.5586440  27.3661260
  49.1361380  69.8302540  28.1968140  38.2454730  66.5328820  20.9247380
  39.1149580  66.8153620  21.2083300  37.7545050  67.3464690  20.8096190
  41.3101320  58.2639680  25.5178180  41.1815950  58.2557580  26.4663100
  40.4863340  58.6022770  25.1669190  48.9854230  71.4340720  30.9925410
  49.6276460  70.7333880  31.1057580  49.5103580  72.2139160  30.8122300
  52.8309950  71.7189340  20.7164550  52.6047530  71.0019780  21.3089190
  52.4406150  71.4701780  19.8786300  50.7591850  72.2335620  34.1961470
  51.0948090  72.8202310  34.8739390  49.8392190  72.1028330  34.4259260
  38.6125980  75.7456200  21.4909010  38.9723620  76.3445540  20.8366280
  38.4718320  76.2916090  22.2644040  52.4126200  69.6361280  22.3778710
  52.1247900  70.0973970  23.1656590  53.2078370  69.1759050  22.6462930
  46.5880430  72.2826950  37.3649530  46.2677300  71.5636190  37.9095220
  45.9138790  72.9582020  37.4385590  44.6294600  73.1287400  22.3082680
  44.6204700  73.8617090  21.6927190  43.7092960  72.8818980  22.4009640
  40.2301240  68.3502290  23.0529440  39.6229190  69.0901190  23.0624740
  40.7050590  68.4401650  22.2267640  53.1696060  61.4710050  23.5373890
  52.5409220  61.5755720  22.8232120  52.6747980  61.6906830  24.3267770
  47.6154200  73.1915640  20.9707870  47.7166180  72.9879630  20.0409850
  46.7155940  72.9373920  21.1755650  46.7636020  65.1692700  32.9524300
  47.2621270  65.6438520  33.6176150  46.9058970  64.2456220  33.1594330
  49.1695520  60.4746660  26.3927560  49.0463300  60.4932790  25.4437070
  50.1180080  60.5225600  26.5125960  52.2624890  66.6293840  27.2414050
  51.3215030  66.6444070  27.4161740  52.5768960  65.8429800  27.6874350
  42.2406530  68.3113440  20.8018010  43.0069800  68.1994800  21.3643440
  42.3181220  67.6151410  20.1494780  54.2650470  73.8002690  28.9168310
  54.3897890  74.6233860  29.3892120  55.1316030  73.5893420  28.5692460
  41.7368000  75.8933900  28.5885440  42.4730480  75.3449360  28.8594010
  42.1208920  76.7589910  28.4491430  38.6213480  71.9607470  24.4626950
  37.6953260  72.2028610  24.4532360  39.0869910  72.7881730  24.3411700
  44.8470310  75.0664210  20.4111010  45.6398920  75.3553040  19.9592800
  44.3274660  74.6356380  19.7323490  49.5790910  71.1859840  37.7246430
  48.9729070  71.2091440  36.9842180  49.2745020  70.4542880  38.2613680
  51.0091280  74.9140130  36.3355840  51.9613030  74.8298150  36.2856080
  50.8619500  75.5781840  37.0089630  53.9000480  74.2934340  21.8347750
  53.6141990  73.8799480  21.0201930  53.7020030  75.2222050  21.7148270
  38.4624090  67.5653430  36.7207070  38.9663110  66.9860710  37.2923300
  37.7231510  67.8493660  37.2583440  45.3647710  70.2867620  20.2753360
  45.2598350  69.6719970  21.0014740  45.1971930  69.7633510  19.4916370
  45.5162030  68.9724420  36.2542590  44.7507700  69.5409420  36.1697260
  45.6977990  68.6800630  35.3610820  48.6050440  69.3487650  20.8795350
  48.0560540  69.7956950  21.5238090  49.2269700  68.8436900  21.4033020
  52.6585380  70.7029750  36.8117610  53.3994850  71.0405510  36.3085070
  51.8958060  70.8721810  36.2587380  40.4947170  65.7083020  37.6157140
  40.5352510  65.4096890  38.5242370  41.3492670  66.1090630  37.4564660
  46.7853200  67.3316180  20.0237750  47.3058860  66.6165200  19.6578900
  47.4321600  67.9702050  20.3238260  51.3331040  68.7544580  35.3472820
  51.7472060  68.9089660  36.1963240  50.3982040  68.8799800  35.5098600
  46.0946270  68.7065060  33.3168750  46.5134380  69.5497790  33.1444990
  45.1754900  68.8437100  33.0875530  50.7698070  66.9918430  33.2769100
  50.2433290  67.5161050  32.6734240  51.1129410  67.6245820  33.9078830
  50.6472770  59.1920030  22.2505690  50.9275060  58.3487930  22.6065110
  49.8738500  59.4243140  22.7644440  41.9667260  61.4812420  19.7096690
  42.2693160  61.4879850  18.8015840  42.7061850  61.1310280  20.2064350
  45.1852190  60.4247040  20.6952890  44.8374190  59.7471030  20.1155340
  45.3864960  59.9636550  21.5096280  40.9897390  70.7854840  20.5426490
  41.4272260  71.3284510  21.1984070  41.4745120  69.9601790  20.5522830
  38.2043190  73.5743870  27.9946750  38.5346200  72.7064930  27.7625390
  38.6334190  73.7802390  28.8251710  38.6933400  74.4414460  30.7328380
  38.2564390  74.6215260  31.5652530  39.2611080  75.1989080  30.5910100
  54.3295580  73.9431460  35.0205690  53.7297570  74.0024020  34.2769610
  54.4589480  73.0036440  35.1502540  55.5697030  71.6849280  20.3575400
  54.7389990  71.7525930  20.8282630  55.7468860  72.5753400  20.0542260
  55.0253490  68.4296760  22.8609600  55.7872400  68.9993410  22.9669290
  55.0407860  67.8623960  23.6317910  38.5257830  66.9534690  27.0917260
  37.8706670  66.6846330  26.4476960  39.3635780  66.8439170  26.6419240
  56.0313460  69.2846860  27.7051530  56.4022290  68.5014180  27.2987500
  56.6715390  69.9735960  27.5268830  53.0147220  70.6683440  33.1181850
  52.2007060  71.0980600  33.3807640  53.4221420  71.2801850  32.5050900
  55.0772660  68.7231130  20.0182120  55.3521500  69.6310010  19.8901340
  54.8883400  68.6593660  20.9544110  51.4748270  61.7475980  21.3135750
  51.8933150  61.5606960  20.4732410  51.1684330  60.8955030  21.6238680
  54.9738000  66.6600120  25.0111550  54.5981600  65.8928050  24.5792840
  54.2441120  67.0422820  25.4986480  39.5633760  67.3387260  31.6320600
  39.9306800  67.2514660  32.5116620  38.9944580  66.5753810  31.5327460
  37.7395910  64.1633620  23.0342590  36.8359990  64.4263820  22.8594250
  38.2236530  64.4344790  22.2542550  54.2488960  64.8857610  28.3118790
  54.7726440  64.3920260  27.6808960  54.8348380  65.0207970  29.0566360
  40.2823120  63.2199160  20.9436970  40.9914820  62.7982380  20.4584250
  39.5663060  63.2874390  20.3120320  39.9297280  59.2738490  19.9839620
  40.6525410  59.8147430  20.3020840  40.2021800  59.0001910  19.1081160
  53.7388930  64.1430960  24.2511200  54.2348050  63.9101830  25.0360080
  53.5405000  63.3042800  23.8348840  55.1676090  62.7791910  26.7848880
  55.0575370  62.6247950  27.7231150  55.9283680  62.2512850  26.5424290
  53.5141810  58.7186040  33.2431880  54.1514030  59.3320180  33.6091070
  53.6616700  58.7546700  32.2981110  56.1304850  61.3810490  22.6511730
  55.3356350  61.3155610  23.1804640  56.3348130  62.3161130  22.6397080
  53.0723270  75.4202040  26.6450120  53.6682340  75.0986610  25.9684540
  53.3301420  74.9473860  27.4363390  55.9396030  75.4273920  33.1961110
  55.4454310  75.8242790  32.4788240  55.3309320  74.8023130  33.5898390
  40.0442110  58.2076550  35.9038330  40.5925100  58.0264600  35.1404440
  40.1097420  57.4170660  36.4394640  50.2628890  58.0914430  32.1168560
  49.3888730  58.4249540  31.9141490  50.1539640  57.6187610  32.9420430
  53.6235480  76.0697340  30.4747850  53.1638450  76.8213150  30.1005870
  52.9947940  75.3503810  30.4162650  40.4486100  72.1640580  32.8646570
  39.7220160  71.5445870  32.7972520  40.5095250  72.5581190  31.9944650
  48.0103710  59.0084270  31.0561470  47.2275500  59.4829770  31.3358230
  47.7166640  58.1039100  30.9474650  52.5624780  59.7107370  29.1010560
  53.0032870  59.6552470  28.2532160  52.2932370  60.6265380  29.1720740
  54.4263350  59.3422610  27.1119380  54.3651750  58.3983830  26.9650400
  55.2055380  59.4502700  27.6572840  38.7316100  75.4814970  26.0743330
  38.5638140  74.8485650  26.7725220  37.8650610  75.6874370  25.7237520
  39.3544120  59.3131750  23.5775190  40.1123480  59.4260630  23.0039220
  38.8921290  60.1500950  23.5318620  50.3982910  58.0913470  27.8060570
  51.0012280  58.6633680  28.2809090  49.6575900  58.6552910  27.5834470
  53.5417510  58.4935030  23.0800850  53.7368140  59.3918480  23.3468280
  52.7547380  58.2622110  23.5733800  40.3378800  74.1748200  23.5193470
  39.8126420  74.5556230  22.8155430  40.2623380  74.7998970  24.2403180
  41.7269270  59.8395800  22.1177160  42.2562030  59.0525600  21.9885110
  42.3597590  60.5186990  22.3512690  43.9207110  59.5770940  25.1722550
  43.2909850  58.8758250  25.3392680  43.3812250  60.3375070  24.9555710
  46.8599060  76.1910170  37.8433160  47.7866370  75.9554440  37.8869120
  46.8449490  77.0182170  37.3619190  55.0944120  75.7335740  24.8407410
  55.2696310  75.0473480  24.1968330  54.3965690  76.2582790  24.4484080
  42.9371770  76.1230580  22.3942720  43.6690590  75.8389860  21.8466610
  43.1965440  75.8843860  23.2842100  42.0986560  72.2395310  22.3989050
  41.4695440  72.7080410  22.9474880  42.2134390  71.3944530  22.8335240
  53.4276620  75.4180030  37.6674200  54.2201940  74.9229260  37.4600160
  53.7209770  76.0970170  38.2749810  49.5536280  66.2900970   8.5490250
  49.4730330  65.3755580   8.2781960  49.1400700  66.7868040   7.8429960
  47.6854320  68.0679990  10.4299520  46.9096420  67.5880430  10.7198090
  48.3367250  67.3885640  10.2555680  41.7020150  68.3799800  11.3075280
  40.8705030  68.1248510  11.7071790  42.3101130  68.4510570  12.0433200
  51.7061750  72.4740180   9.2098650  51.2443280  71.7027420   9.5385820
  52.5187300  72.5006250   9.7151100  41.6821410  72.4139890  11.5033300
  41.9849450  71.5237630  11.3243520  42.4265000  72.9710110  11.2755550
  40.1112100  63.3401690   5.0917670  39.2228800  63.6817660   4.9897550
  40.3953290  63.1402010   4.1998500  38.0745110  65.9407340  10.9757370
  38.6461220  65.1729540  10.9761010  38.0746650  66.2396100  10.0663980
  47.9325060  74.7598190   8.8302640  47.3136500  75.2155690   8.2597080
  48.7876840  74.9149650   8.4292340  47.1263310  70.7437180  10.4369680
  47.0571590  69.8027120  10.2758810  47.8883170  70.8338590  11.0092250
  39.3169980  61.3491700  12.7626300  39.1372820  60.4517450  13.0429060
  38.9150060  61.8963570  13.4373250  48.1568480  63.5507560  10.6638610
  48.5333300  62.6779440  10.5512280  48.0587990  63.8866260   9.7729050
  42.2873490  61.9233190   6.1256050  42.3940240  62.8236920   6.4324810
  41.3765850  61.8751160   5.8350700  51.9392600  61.0458000   7.5966950
  52.7602220  60.5554570   7.6392430  51.9726680  61.6355660   8.3498790
  39.9356650  63.8452200  11.3708640  40.6166760  64.1090570  11.9896040
  39.6204700  63.0053070  11.7046650  44.1281220  64.8919560  10.4581230
  44.6359440  65.3900530  11.0986250  44.6594460  64.1154760  10.2820590
  42.4117320  59.5318120  14.7244650  42.4135760  60.0490510  13.9190550
  41.5821630  59.0548300  14.7014580  48.7988410  69.6437430   6.2234550
  48.1805680  70.1086880   5.6597270  49.3111660  70.3364910   6.6404060
  43.6620170  69.1713300  12.9018150  43.3289550  69.7982220  13.5439220
  43.8386850  69.6975180  12.1219820  52.1754080  62.9858380  10.3694490
  51.4709650  63.2743270  10.9497600  52.5366240  63.7958490  10.0094050
  42.0932650  61.2428080  12.7315100  42.4349460  62.0870130  12.4368970
  41.1548460  61.3911820  12.8480440  42.8739270  71.1394100  14.7167330
  43.4913270  71.8145180  14.4351780  42.0132390  71.5482080  14.6254830
  38.1671610  70.3293960   3.5974180  37.7899590  70.8181060   2.8659080
  38.4244680  71.0019240   4.2280710  53.7916860  72.6033510  12.6321970
  53.1080380  73.2732620  12.6238640  54.3311150  72.8014160  11.8666830
  55.2441000  62.4313170  10.7603700  54.2965910  62.4652150  10.8919130
  55.5690990  63.2452120  11.1453060  45.7760540  58.7310350   9.0559690
  46.0835520  58.1757240   8.3395190  44.8461240  58.8654810   8.8732680
  51.3275600  74.4477640  11.3467150  51.3402760  74.0439930  10.4789410
  50.7750820  75.2224930  11.2428580  52.6221020  71.1693860   6.4357320
  52.5117350  70.2268190   6.5606740  52.6189270  71.5309500   7.3220080
  50.7261040  69.3507480  12.6749760  51.1429830  69.1367590  11.8403220
  51.4500860  69.6080270  13.2458380  48.1641300  66.7959180   5.7919810
  47.2370580  66.7296560   6.0208280  48.3166120  67.7339310   5.6775050
  48.1510380  63.0676180   2.7886970  47.2114050  63.2290140   2.8739430
  48.4693640  63.7861860   2.2422960  52.1938590  68.3579480   6.2955060
  51.5751010  68.0199030   5.6481360  52.1763040  67.7139240   7.0034250
  51.6365150  64.5364020  13.7120870  51.2236330  65.3617730  13.9660860
  50.9041100  63.9509060  13.5197230  43.7697940  67.3223920   8.5739540
  43.3654940  66.6101170   8.0785440  43.8561060  66.9777160   9.4627580
  44.2379640  71.0091480  10.7378750  43.9407930  70.4036950  10.0586530
  45.1879460  71.0468790  10.6268110  42.4826560  64.0967130  12.3538580
  43.0341150  64.2062470  11.5791830  42.9970070  64.4704730  13.0693810
  52.3265250  74.5823350  14.4001850  51.8495810  75.3895540  14.2074460
  51.6427040  73.9301680  14.5528060  43.3298070  70.7473170  17.3886550
  42.4326600  70.9713140  17.6359950  43.3550940  70.8708110  16.4397950
  50.3703290  67.5966290   3.3027810  50.8096570  66.7588720   3.1565630
  51.0831710  68.2295690   3.3891950  42.1569290  67.6186490  15.9643920
  42.0177060  68.4909290  16.3331320  41.2750650  67.2759300  15.8191860
  48.4798670  72.5362360   7.2709050  48.9194580  73.2786690   6.8564440
  48.4185560  72.7788930   8.1948010  43.9549640  73.5608190  18.1729070
  43.9265070  73.9651140  17.3057500  43.7914610  72.6318550  18.0100670
  40.4702570  66.2168900   6.0746190  40.3500170  66.9430990   5.4627460
  40.1603460  65.4471810   5.5974100  55.9064460  74.3435290  19.4693240
  56.3824180  74.8218180  20.1482320  56.5271620  74.2752780  18.7438740
  38.1087940  69.3884040  11.8814830  38.1868360  69.5232810  10.9370550
  38.7229620  68.6799930  12.0742950  39.3535570  71.0884230   8.2921010
  38.9463650  71.2298820   7.4374610  40.2448580  70.8044390   8.0892220
  49.1714450  75.2376140  15.1988060  49.6859120  75.1484150  16.0010490
  48.3283530  75.5835840  15.4915970  51.1468850  75.5231480   4.6272060
  50.9869990  75.2334420   5.5253890  50.9815560  74.7471610   4.0917290
  43.6257230  75.3030010   6.4043680  43.4499710  74.3865550   6.1911480
  42.7712970  75.6617300   6.6441480  50.8494980  73.0319040   3.1870060
  50.1560140  73.0296330   2.5272340  51.5917840  72.6078360   2.7564230
  50.4144910  74.6581750   7.2618550  50.8701860  73.8771130   7.5757170
  50.7537430  75.3688570   7.8059730  38.1647460  70.4298210  14.4209290
  38.3278500  69.9603570  13.6028660  38.6299910  69.9221770  15.0858130
  42.9366230  59.5603970   9.4569860  42.4934380  60.3413510   9.1254380
  43.4951220  59.8833860  10.1640800  47.2236040  62.4272490  15.0605180
  46.7615410  62.6355510  15.8725120  46.8214150  61.6131840  14.7575850
  49.3190260  65.1483190  18.2900630  49.6443670  64.3146940  17.9502860
  50.1070590  65.6711710  18.4378960  46.0525050  59.1814670   4.3375690
  45.4279230  59.1774540   5.0629000  45.9655170  58.3145630   3.9411660
  44.9742130  60.1051300  11.3159460  45.2714460  61.0114130  11.2351480
  45.5227690  59.6170080  10.7019030  42.7280450  64.6837540   7.1851110
  42.5021370  64.4674710   8.0897730  41.9472980  65.1166000   6.8397080
  49.9578210  64.6900910   5.7841760  49.3587100  65.4136710   5.6005380
  50.5057820  64.6277690   5.0018210  45.1679660  65.5823120  17.8511380
  45.0723260  64.6417850  17.7011780  46.0111640  65.8038190  17.4559450
  48.5643080  63.3264450   7.8145040  48.9572650  63.6436650   7.0013730
  48.9259930  62.4476330   7.9289560  40.2990200  61.9936790  16.0045160
  39.9053590  62.8412000  16.2117940  39.6108600  61.3563160  16.1953800
  46.8735250  62.0771760  19.0741900  46.1833570  61.8843960  19.7087990
  47.6167550  62.3606400  19.6066200  37.6007250  59.9165250  10.0375240
  37.3120300  60.4868110  10.7500220  38.3453010  59.4369700  10.4006470
  49.1498220  65.9170200  11.9095820  48.4179340  66.4257010  12.2585920
  48.7522560  65.1000180  11.6084600  45.5875610  62.5924400  10.3148310
  45.5911670  62.1514350   9.4652850  46.4826730  62.9141730  10.4220130
  41.4377990  62.4750890   9.2742520  41.0978040  62.9526120  10.0309570
  40.6755310  62.0216010   8.9143620  45.6495760  63.5936480   3.3055070
  45.7708580  63.5522960   4.2540890  45.2644270  64.4560630   3.1501800
  49.6124130  61.3703880  11.3218760  49.6296870  61.8212530  12.1660610
  49.3639710  60.4709520  11.5352200  44.6617260  65.9037620   2.7038370
  44.0934160  65.4555870   2.0774280  45.3706260  66.2630400   2.1703520
  39.7386440  69.8049640  16.5805100  39.3541230  69.1643310  17.1788060
  40.0498630  70.5085760  17.1499830  45.8883580  66.6526180  12.0613720
  46.2553710  66.1784750  12.8075060  45.6988640  67.5267750  12.4022060
  38.7524070  61.3969870   8.1907190  38.4670990  61.0325540   9.0285810
  38.6902930  60.6650330   7.5770330  43.6782950  65.6934820  14.3797930
  43.3740020  66.5726800  14.6048290  44.6329410  65.7534610  14.4155370
  42.2064740  69.8995810   4.9764780  41.4327000  69.3593430   4.8163500
  42.9359370  69.3802420   4.6382540  52.9652720  68.8961170  10.7691170
  53.6851840  69.3916460  10.3787280  52.7634540  68.2179060  10.1245040
  48.4262660  60.2899130   4.9120560  47.6127270  59.7912300   4.8365870
  48.2324610  61.1297380   4.4956910  48.3471520  68.9670230  16.6560170
  48.2808830  68.0465900  16.4017760  47.7176660  69.0645670  17.3704810
  51.1411050  64.6618780   3.2082720  52.0290670  64.9736010   3.0334060
  51.1116140  63.7891030   2.8163300  42.2502140  69.5676190   8.6143590
  42.7680810  68.7644450   8.5600480  41.7986160  69.5055330   9.4560420
  47.1371640  70.8342470   3.8870890  47.4787340  71.5784700   3.3914210
  46.3084350  71.1473590   4.2495720  39.7346680  66.5337560  15.5269290
  39.3761620  67.1991410  16.1142630  39.4401240  65.7021110  15.8981910
  42.9359800  66.9921800  18.4108840  42.6359940  67.1378980  17.5136660
  43.7071040  66.4327090  18.3182230  48.2788250  71.7890800  16.4063970
  48.2932790  70.8571760  16.1882880  47.5713350  71.8750560  17.0453740
  53.4125320  65.9730620   2.6762580  53.3289040  66.4044840   1.8259020
  54.1319510  66.4328970   3.1089400  54.4412570  72.8272880   5.4044710
  53.7988730  72.1728500   5.6788430  54.0543230  73.2327970   4.6285380
  50.0199050  70.1558310   9.2516400  50.3722870  69.5586440   8.5917770
  49.1361380  69.8302540   9.4224650  46.1062330  70.9156000   6.6586810
  46.7933460  71.4625210   7.0394400  45.3194750  71.4596730   6.6936420
  38.2454730  66.5328820   2.1503890  39.1149580  66.8153620   2.4339810
  37.7545050  67.3464690   2.0352700  45.4089540  67.9202030   6.2712170
  45.8652320  68.7307280   6.4972360  45.0577750  67.6025170   7.1030660
  47.7122150  73.4308370  13.5004470  48.3564370  73.6367750  14.1777890
  48.0751590  72.6696770  13.0475320  41.3101320  58.2639680   6.7434690
  41.1815950  58.2557580   7.6919610  40.4863340  58.6022770   6.3925700
  48.9854230  71.4340720  12.2181920  49.6276460  70.7333880  12.3314090
  49.5103580  72.2139160  12.0378810  50.7591850  72.2335620  15.4217980
  51.0948090  72.8202310  16.0995900  49.8392190  72.1028330  15.6515770
  38.6125980  75.7456200   2.7165520  38.9723620  76.3445540   2.0622790
  38.4718320  76.2916090   3.4900550  38.3095250  60.0230800  16.2041390
  37.5953770  60.2227720  16.8094000  38.7290290  59.2470370  16.5756190
  52.4126200  69.6361280   3.6035220  52.1247900  70.0973970   4.3913100
  53.2078370  69.1759050   3.8719440  38.5967840  74.0111060  17.1907920
  38.7058960  73.0705800  17.0503310  37.9448400  74.2765810  16.5421650
  46.5880430  72.2826950  18.5906040  46.2677300  71.5636190  19.1351730
  45.9138790  72.9582020  18.6642100  44.6294600  73.1287400   3.5339190
  44.6204700  73.8617090   2.9183700  43.7092960  72.8818980   3.6266150
  40.2301240  68.3502290   4.2785950  39.6229190  69.0901190   4.2881250
  40.7050590  68.4401650   3.4524150  49.8034030  62.5153110  13.9542840
  50.1714850  61.6948320  14.2822410  48.9432230  62.5755000  14.3698490
  53.1696060  61.4710050   4.7630400  52.5409220  61.5755720   4.0488630
  52.6747980  61.6906830   5.5524280  45.1380090  63.7496000   6.1788280
  44.4296240  64.2182340   6.6201890  45.4224570  63.0918010   6.8133470
  46.7636020  65.1692700  14.1780810  47.2621270  65.6438520  14.8432660
  46.9058970  64.2456220  14.3850840  49.1695520  60.4746660   7.6184070
  49.0463300  60.4932790   6.6693580  50.1180080  60.5225600   7.7382470
  46.2572310  75.7101960   6.8912050  46.5113810  75.6723350   5.9691420
  45.3084790  75.5835290   6.8840300  43.3415110  62.0581080   3.5538990
  44.1905640  62.4951230   3.4879180  42.9746380  62.3701340   4.3811050
  52.2624890  66.6293840   8.4670560  51.3215030  66.6444070   8.6418250
  52.5768960  65.8429800   8.9130860  40.9353290  65.7438510   2.7107410
  41.0156880  64.7966020   2.8224810  41.8273040  66.0745390   2.8168070
  54.2650470  73.8002690  10.1424820  54.3897890  74.6233860  10.6148630
  55.1316030  73.5893420   9.7948970  41.7368000  75.8933900   9.8141950
  42.4730480  75.3449360  10.0850520  42.1208920  76.7589910   9.6747940
  38.6213480  71.9607470   5.6883460  37.6953260  72.2028610   5.6788870
  39.0869910  72.7881730   5.5668210  40.7426280  75.0779970  19.0027530
  41.5439010  75.3992020  19.4162930  40.2278100  74.7175550  19.7247440
  49.5790910  71.1859840  18.9502940  48.9729070  71.2091440  18.2098690
  49.2745020  70.4542880  19.4870190  51.0091280  74.9140130  17.5612350
  51.9613030  74.8298150  17.5112590  50.8619500  75.5781840  18.2346140
  53.9000480  74.2934340   3.0604260  53.6141990  73.8799480   2.2458440
  53.7020030  75.2222050   2.9404780  38.4624090  67.5653430  17.9463580
  38.9663110  66.9860710  18.5179810  37.7231510  67.8493660  18.4839950
  45.5162030  68.9724420  17.4799100  44.7507700  69.5409420  17.3953770
  45.6977990  68.6800630  16.5867330  48.6050440  69.3487650   2.1051860
  48.0560540  69.7956950   2.7494600  49.2269700  68.8436900   2.6289530
  52.6585380  70.7029750  18.0374120  53.3994850  71.0405510  17.5341580
  51.8958060  70.8721810  17.4843890  40.4947170  65.7083020  18.8413650
  40.5352510  65.4096890  19.7498880  41.3492670  66.1090630  18.6821170
  44.2725560  68.3078570   4.0017160  44.6941980  68.1418440   4.8448550
  44.3976400  67.4978800   3.5072300  42.4352980  64.2875120  16.8088140
  41.9049440  63.7966070  16.1811480  43.1041050  64.7159320  16.2746070
  51.3331040  68.7544580  16.5729330  51.7472060  68.9089660  17.4219750
  50.3982040  68.8799800  16.7355110  51.8053210  66.0940740  18.5768480
  52.3873980  65.3393060  18.4888960  51.9814980  66.6248180  17.7999960
  42.9225280  61.2537490  16.8885430  42.8282150  60.6358240  16.1636300
  42.3422670  61.9803780  16.6615340  45.6886720  59.8110730  13.9212820
  45.2404020  59.8334990  13.0758370  45.0551920  59.4129750  14.5183120
  46.0946270  68.7065060  14.5425260  46.5134380  69.5497790  14.3701500
  45.1754900  68.8437100  14.3132040  48.4310170  66.4381240  15.9263100
  48.5506380  65.8422380  16.6657940  49.2904170  66.4750930  15.5064400
  50.7698070  66.9918430  14.5025610  50.2433290  67.5161050  13.8990750
  51.1129410  67.6245820  15.1335340  43.9453690  75.0118070  15.6582990
  43.4074780  75.7364130  15.3391690  44.1987650  74.5348410  14.8680330
  45.1978940  62.9802590  17.1838920  45.7878630  62.6718440  17.8716740
  44.3799180  62.5082340  17.3398820  50.6472770  59.1920030   3.4762200
  50.9275060  58.3487930   3.8321620  49.8738500  59.4243140   3.9900950
  46.8015900  76.2469280  15.9169640  46.7274600  77.1504420  16.2242010
  45.8994740  75.9281180  15.8891710  47.3501230  75.4127790   3.5396000
  48.2452020  75.7512760   3.5614760  47.3818860  74.6907200   2.9120280
  40.9897390  70.7854840   1.7683000  41.4272260  71.3284510   2.4240580
  41.4745120  69.9601790   1.7779340  38.2043190  73.5743870   9.2203260
  38.5346200  72.7064930   8.9881900  38.6334190  73.7802390  10.0508220
  42.8005110  71.9052880   6.8805230  42.5000650  71.7817850   7.7809140
  42.6942600  71.0461470   6.4720960  38.6933400  74.4414460  11.9584890
  38.2564390  74.6215260  12.7909040  39.2611080  75.1989080  11.8166610
  54.3295580  73.9431460  16.2462200  53.7297570  74.0024020  15.5026120
  54.4589480  73.0036440  16.3759050  55.0253490  68.4296760   4.0866110
  55.7872400  68.9993410   4.1925800  55.0407860  67.8623960   4.8574420
  38.5257830  66.9534690   8.3173770  37.8706670  66.6846330   7.6733470
  39.3635780  66.8439170   7.8675750  56.0313460  69.2846860   8.9308040
  56.4022290  68.5014180   8.5244010  56.6715390  69.9735960   8.7525340
  51.4748270  61.7475980   2.5392260  51.8933150  61.5606960   1.6988920
  51.1684330  60.8955030   2.8495190  54.9738000  66.6600120   6.2368060
  54.5981600  65.8928050   5.8049350  54.2441120  67.0422820   6.7242990
  39.5633760  67.3387260  12.8577110  39.9306800  67.2514660  13.7373130
  38.9944580  66.5753810  12.7583970  39.1149760  64.2496350  16.7635530
  38.2205810  64.2163110  17.1029240  39.6547310  64.4483140  17.5286780
  37.7395910  64.1633620   4.2599100  36.8359990  64.4263820   4.0850760
  38.2236530  64.4344790   3.4799060  54.2488960  64.8857610   9.5375300
  54.7726440  64.3920260   8.9065470  54.8348380  65.0207970  10.2822870
  54.4278680  64.9697480  13.0594850  53.4781390  64.9361020  13.1739840
  54.6091690  65.8797590  12.8244620  53.7388930  64.1430960   5.4767710
  54.2348050  63.9101830   6.2616590  53.5405000  63.3042800   5.0605350
  39.6189470  58.5244680  11.1118750  40.2665660  57.9742060  10.6713910
  40.0391310  58.7787830  11.9334560  55.1676090  62.7791910   8.0105390
  55.0575370  62.6247950   8.9487660  55.9283680  62.2512850   7.7680800
  53.5141810  58.7186040  14.4688390  54.1514030  59.3320180  14.8347580
  53.6616700  58.7546700  13.5237620  56.1304850  61.3810490   3.8768240
  55.3356350  61.3155610   4.4061150  56.3348130  62.3161130   3.8653590
  53.0723270  75.4202040   7.8706630  53.6682340  75.0986610   7.1941050
  53.3301420  74.9473860   8.6619900  39.3721470  58.6800350  13.8544070
  39.0236290  59.1364170  14.6202250  39.0409170  57.7857480  13.9366500
  40.9785840  71.8519950  18.0197260  40.9355470  71.4812860  18.9011720
  41.1096850  72.7897520  18.1599080  44.6791870  73.4079540  13.6206980
  44.4383230  73.6754100  12.7337500  45.6194510  73.5785270  13.6757840
  46.8846290  59.8712230  17.3763490  46.8235180  60.4634060  18.1258900
  47.8246670  59.7638190  17.2313750  49.5220850  59.5282290  17.0155780
  50.1361260  59.8461580  16.3536860  50.0670410  59.0430880  17.6351640
  55.9396030  75.4273920  14.4217620  55.4454310  75.8242790  13.7044750
  55.3309320  74.8023130  14.8154900  40.0442110  58.2076550  17.1294840
  40.5925100  58.0264600  16.3660950  40.1097420  57.4170660  17.6651150
  40.8173870  74.7982200  15.1395040  40.2234190  74.6666900  15.8785080
  40.8097710  73.9620340  14.6737140  50.2628890  58.0914430  13.3425070
  49.3888730  58.4249540  13.1398000  50.1539640  57.6187610  14.1676940
  51.1700870  60.2985300  14.7266790  50.8414230  59.4837060  14.3468520
  52.1183170  60.2555110  14.6032480  53.6235480  76.0697340  11.7004360
  53.1638450  76.8213150  11.3262380  52.9947940  75.3503810  11.6419160
  40.4486100  72.1640580  14.0903080  39.7220160  71.5445870  14.0229030
  40.5095250  72.5581190  13.2201160  44.0531200  74.3785580  10.8752490
  44.5696220  73.7672940  10.3500750  44.7028580  74.8814360  11.3663500
  46.7926700  75.2694070  11.7021470  47.0804510  75.0148370  10.8254480
  47.3049920  74.7171430  12.2927040  48.0103710  59.0084270  12.2817980
  47.2275500  59.4829770  12.5614740  47.7166640  58.1039100  12.1731160
  52.5624780  59.7107370  10.3267070  53.0032870  59.6552470   9.4788670
  52.2932370  60.6265380  10.3977250  54.4263350  59.3422610   8.3375890
  54.3651750  58.3983830   8.1906910  55.2055380  59.4502700   8.8829350
  38.7316100  75.4814970   7.2999840  38.5638140  74.8485650   7.9981730
  37.8650610  75.6874370   6.9494030  39.3544120  59.3131750   4.8031700
  40.1123480  59.4260630   4.2295730  38.8921290  60.1500950   4.7575130
  45.8957930  61.4271020   7.7934010  45.0832440  61.0527910   7.4529890
  46.3999570  60.6716100   8.0955200  50.3982910  58.0913470   9.0317080
  51.0012280  58.6633680   9.5065600  49.6575900  58.6552910   8.8090980
  53.5417510  58.4935030   4.3057360  53.7368140  59.3918480   4.5724790
  52.7547380  58.2622110   4.7990310  40.3378800  74.1748200   4.7449980
  39.8126420  74.5556230   4.0411940  40.2623380  74.7998970   5.4659690
  41.7269270  59.8395800   3.3433670  42.2562030  59.0525600   3.2141620
  42.3597590  60.5186990   3.5769200  43.9207110  59.5770940   6.3979060
  43.2909850  58.8758250   6.5649190  43.3812250  60.3375070   6.1812220
  46.8599060  76.1910170  19.0689670  47.7866370  75.9554440  19.1125630
  46.8449490  77.0182170  18.5875700  55.0944120  75.7335740   6.0663920
  55.2696310  75.0473480   5.4224840  54.3965690  76.2582790   5.6740590
  44.0462670  58.8554920  18.8331550  43.7646940  59.3588520  18.0692370
  44.4282370  58.0576670  18.4673680  42.9371770  76.1230580   3.6199230
  43.6690590  75.8389860   3.0723120  43.1965440  75.8843860   4.5098610
  42.0986560  72.2395310   3.6245560  41.4695440  72.7080410   4.1731390
  42.2134390  71.3944530   4.0591750  50.6478130  58.2708500  19.4112020
  50.5343580  58.5903110  20.3063540  51.4647870  58.6721010  19.1149300
  53.4276620  75.4180030  18.8930710  54.2201940  74.9229260  18.6856670
  53.7209770  76.0970170  19.5006320  49.5536280  47.5157480 139.9694680
  49.4730330  46.6012090 139.6986390  49.1400700  48.0124550 139.2634390
  47.6854320  49.2936500 141.8503950  46.9096420  48.8136940 142.1402520
  48.3367250  48.6142150 141.6760110  41.7020150  49.6056310 142.7279710
  40.8705030  49.3505020 143.1276220  42.3101130  49.6767080 143.4637630
  51.7061750  53.6996690 140.6303080  51.2443280  52.9283930 140.9590250
  52.5187300  53.7262760 141.1355530  41.6821410  53.6396400 142.9237730
  41.9849450  52.7494140 142.7447950  42.4265000  54.1966620 142.6959980
  40.1112100  44.5658200 136.5122100  39.2228800  44.9074170 136.4101980
  40.3953290  44.3658520 135.6202930  38.0745110  47.1663850 142.3961800
  38.6461220  46.3986050 142.3965440  38.0746650  47.4652610 141.4868410
  47.9325060  55.9854700 140.2507070  47.3136500  56.4412200 139.6801510
  48.7876840  56.1406160 139.8496770  47.1263310  51.9693690 141.8574110
  47.0571590  51.0283630 141.6963240  47.8883170  52.0595100 142.4296680
  39.3169980  42.5748210 144.1830730  39.1372820  41.6773960 144.4633490
  38.9150060  43.1220080 144.8577680  48.1568480  44.7764070 142.0843040
  48.5333300  43.9035950 141.9716710  48.0587990  45.1122770 141.1933480
  42.2873490  43.1489700 137.5460480  42.3940240  44.0493430 137.8529240
  41.3765850  43.1007670 137.2555130  51.9392600  42.2714510 139.0171380
  52.7602220  41.7811080 139.0596860  51.9726680  42.8612170 139.7703220
  39.9356650  45.0708710 142.7913070  40.6166760  45.3347080 143.4100470
  39.6204700  44.2309580 143.1251080  44.1281220  46.1176070 141.8785660
  44.6359440  46.6157040 142.5190680  44.6594460  45.3411270 141.7025020
  56.2292150  44.2881260 145.5815010  55.5244320  44.6762970 145.0630120
  56.4950070  44.9831550 146.1835940  42.4117320  40.7574630 146.1449080
  42.4135760  41.2747020 145.3394980  41.5821630  40.2804810 146.1219010
  48.7988410  50.8693940 137.6438980  48.1805680  51.3343390 137.0801700
  49.3111660  51.5621420 138.0608490  43.6620170  50.3969810 144.3222580
  43.3289550  51.0238730 144.9643650  43.8386850  50.9231690 143.5424250
  52.1754080  44.2114890 141.7898920  51.4709650  44.4999780 142.3702030
  52.5366240  45.0215000 141.4298480  42.0932650  42.4684590 144.1519530
  42.4349460  43.3126640 143.8573400  41.1548460  42.6168330 144.2684870
  42.8739270  52.3650610 146.1371760  43.4913270  53.0401690 145.8556210
  42.0132390  52.7738590 146.0459260  38.1671610  51.5550470 135.0178610
  37.7899590  52.0437570 134.2863510  38.4244680  52.2275750 135.6485140
  53.7916860  53.8290020 144.0526400  53.1080380  54.4989130 144.0443070
  54.3311150  54.0270670 143.2871260  55.2441000  43.6569680 142.1808130
  54.2965910  43.6908660 142.3123560  55.5690990  44.4708630 142.5657490
  45.7760540  39.9566860 140.4764120  46.0835520  39.4013750 139.7599620
  44.8461240  40.0911320 140.2937110  51.3275600  55.6734150 142.7671580
  51.3402760  55.2696440 141.8993840  50.7750820  56.4481440 142.6633010
  52.6221020  52.3950370 137.8561750  52.5117350  51.4524700 137.9811170
  52.6189270  52.7566010 138.7424510  50.7261040  50.5763990 144.0954190
  51.1429830  50.3624100 143.2607650  51.4500860  50.8336780 144.6662810
  48.1641300  48.0215690 137.2124240  47.2370580  47.9553070 137.4412710
  48.3166120  48.9595820 137.0979480  48.1510380  44.2932690 134.2091400
  47.2114050  44.4546650 134.2943860  48.4693640  45.0118370 133.6627390
  54.6723140  48.9751210 144.1870430  53.8441770  49.0444300 143.7120560
  55.2673620  49.5605520 143.7186260  52.1938590  49.5835990 137.7159490
  51.5751010  49.2455540 137.0685790  52.1763040  48.9395750 138.4238680
  51.6365150  45.7620530 145.1325300  51.2236330  46.5874240 145.3865290
  50.9041100  45.1765570 144.9401660  43.7697940  48.5480430 139.9943970
  43.3654940  47.8357680 139.4989870  43.8561060  48.2033670 140.8832010
  44.2379640  52.2347990 142.1583180  43.9407930  51.6293460 141.4790960
  45.1879460  52.2725300 142.0472540  42.4826560  45.3223640 143.7743010
  43.0341150  45.4318980 142.9996260  42.9970070  45.6961240 144.4898240
  52.3265250  55.8079860 145.8206280  51.8495810  56.6152050 145.6278890
  51.6427040  55.1558190 145.9732490  43.3298070  51.9729680 148.8090980
  42.4326600  52.1969650 149.0564380  43.3550940  52.0964620 147.8602380
  50.3703290  48.8222800 134.7232240  50.8096570  47.9845230 134.5770060
  51.0831710  49.4552200 134.8096380  42.1569290  48.8443000 147.3848350
  42.0177060  49.7165800 147.7535750  41.2750650  48.5015810 147.2396290
  48.4798670  53.7618870 138.6913480  48.9194580  54.5043200 138.2768870
  48.4185560  54.0045440 139.6152440  43.9549640  54.7864700 149.5933500
  43.9265070  55.1907650 148.7261930  43.7914610  53.8575060 149.4305100
  53.9520430  40.0765610 133.0373280  53.6393090  40.1692440 133.9372350
  54.7132900  40.6546640 132.9870710  40.4702570  47.4425410 137.4950620
  40.3500170  48.1687500 136.8831890  40.1603460  46.6728320 137.0178530
  38.1087940  50.6140550 143.3019260  38.1868360  50.7489320 142.3574980
  38.7229620  49.9056440 143.4947380  39.3535570  52.3140740 139.7125440
  38.9463650  52.4555330 138.8579040  40.2448580  52.0300900 139.5096650
  55.3097710  52.7604650 148.0497680  55.4360770  52.5216530 147.1314860
  55.3519090  51.9289190 148.5219760  49.1714450  56.4632650 146.6192490
  49.6859120  56.3740660 147.4214920  48.3283530  56.8092350 146.9120400
  51.1468850  56.7487990 136.0476490  50.9869990  56.4590930 136.9458320
  50.9815560  55.9728120 135.5121720  43.6257230  56.5286520 137.8248110
  43.4499710  55.6122060 137.6115910  42.7712970  56.8873810 138.0645910
  50.8494980  54.2575550 134.6074490  50.1560140  54.2552840 133.9476770
  51.5917840  53.8334870 134.1768660  50.4144910  55.8838260 138.6822980
  50.8701860  55.1027640 138.9961600  50.7537430  56.5945080 139.2264160
  55.1621720  44.8137110 149.0147420  54.5465990  45.3216780 148.4862880
  54.8418140  43.9135440 148.9573360  38.1647460  51.6554720 145.8413720
  38.3278500  51.1860080 145.0233090  38.6299910  51.1478280 146.5062560
  42.9366230  40.7860480 140.8774290  42.4934380  41.5670020 140.5458810
  43.4951220  41.1090370 141.5845230  47.2236040  43.6529000 146.4809610
  46.7615410  43.8612020 147.2929550  46.8214150  42.8388350 146.1780280
  52.2240550  44.8737950 147.6106270  51.3734140  44.5743700 147.9315340
  52.0642340  45.1179960 146.6990090  49.3190260  46.3739700 149.7105060
  49.6443670  45.5403450 149.3707290  50.1070590  46.8968220 149.8583390
  46.0525050  40.4071180 135.7580120  45.4279230  40.4031050 136.4833430
  45.9655170  39.5402140 135.3616090  44.9742130  41.3307810 142.7363890
  45.2714460  42.2370640 142.6555910  45.5227690  40.8426590 142.1223460
  42.7280450  45.9094050 138.6055540  42.5021370  45.6931220 139.5102160
  41.9472980  46.3422510 138.2601510  49.9578210  45.9157420 137.2046190
  49.3587100  46.6393220 137.0209810  50.5057820  45.8534200 136.4222640
  45.1679660  46.8079630 149.2715810  45.0723260  45.8674360 149.1216210
  46.0111640  47.0294700 148.8763880  48.5643080  44.5520960 139.2349470
  48.9572650  44.8693160 138.4218160  48.9259930  43.6732840 139.3493990
  40.2990200  43.2193300 147.4249590  39.9053590  44.0668510 147.6322370
  39.6108600  42.5819670 147.6158230  37.6007250  41.1421760 141.4579670
  37.3120300  41.7124620 142.1704650  38.3453010  40.6626210 141.8210900
  37.7877480  45.0841880 132.6682390  37.7052150  46.0272640 132.8097380
  37.4360540  44.9416790 131.7894740  49.1498220  47.1426710 143.3300250
  48.4179340  47.6513520 143.6790350  48.7522560  46.3256690 143.0289030
  45.5875610  43.8180910 141.7352740  45.5911670  43.3770860 140.8857280
  46.4826730  44.1398240 141.8424560  41.4377990  43.7007400 140.6946950
  41.0978040  44.1782630 141.4514000  40.6755310  43.2472520 140.3348050
  45.6495760  44.8192990 134.7259500  45.7708580  44.7779470 135.6745320
  45.2644270  45.6817140 134.5706230  49.6124130  42.5960390 142.7423190
  49.6296870  43.0469040 143.5865040  49.3639710  41.6966030 142.9556630
  44.6617260  47.1294130 134.1242800  44.0934160  46.6812380 133.4978710
  45.3706260  47.4886910 133.5907950  53.0394880  40.0092570 148.5809570
  53.3640650  39.2782230 149.1067550  53.0751390  39.6906210 147.6790560
  39.7386440  51.0306150 148.0009530  39.3541230  50.3899820 148.5992490
  40.0498630  51.7342270 148.5704260  45.8883580  47.8782690 143.4818150
  46.2553710  47.4041260 144.2279490  45.6988640  48.7524260 143.8226490
  38.7524070  42.6226380 139.6111620  38.4670990  42.2582050 140.4490240
  38.6902930  41.8906840 138.9974760  43.6782950  46.9191330 145.8002360
  43.3740020  47.7983310 146.0252720  44.6329410  46.9791120 145.8359800
  42.2064740  51.1252320 136.3969210  41.4327000  50.5849940 136.2367930
  42.9359370  50.6058930 136.0586970  52.9652720  50.1217680 142.1895600
  53.6851840  50.6172970 141.7991710  52.7634540  49.4435570 141.5449470
  48.4262660  41.5155640 136.3324990  47.6127270  41.0168810 136.2570300
  48.2324610  42.3553890 135.9161340  48.3471520  50.1926740 148.0764600
  48.2808830  49.2722410 147.8222190  47.7176660  50.2902180 148.7909240
  51.1411050  45.8875290 134.6287150  52.0290670  46.1992520 134.4538490
  51.1116140  45.0147540 134.2367730  42.2502140  50.7932700 140.0348020
  42.7680810  49.9900960 139.9804910  41.7986160  50.7311840 140.8764850
  47.1371640  52.0598980 135.3075320  47.4787340  52.8041210 134.8118640
  46.3084350  52.3730100 135.6700150  39.7346680  47.7594070 146.9473720
  39.3761620  48.4247920 147.5347060  39.4401240  46.9277620 147.3186340
  42.9359800  48.2178310 149.8313270  42.6359940  48.3635490 148.9341090
  43.7071040  47.6583600 149.7386660  48.2788250  53.0147310 147.8268400
  48.2932790  52.0828270 147.6087310  47.5713350  53.1007070 148.4658170
  53.4125320  47.1987130 134.0967010  53.3289040  47.6301350 133.2463450
  54.1319510  47.6585480 134.5293830  54.4899460  49.6554650 147.1736980
  53.7647650  50.2483430 146.9766370  55.0174920  49.6478190 146.3750350
  54.4412570  54.0529390 136.8249140  53.7988730  53.3985010 137.0992860
  54.0543230  54.4584480 136.0489810  50.0199050  51.3814820 140.6720830
  50.3722870  50.7842950 140.0122200  49.1361380  51.0559050 140.8429080
  46.1062330  52.1412510 138.0791240  46.7933460  52.6881720 138.4598830
  45.3194750  52.6853240 138.1140850  38.2454730  47.7585330 133.5708320
  39.1149580  48.0410130 133.8544240  37.7545050  48.5721200 133.4557130
  45.4089540  49.1458540 137.6916600  45.8652320  49.9563790 137.9176790
  45.0577750  48.8281680 138.5235090  47.7122150  54.6564880 144.9208900
  48.3564370  54.8624260 145.5982320  48.0751590  53.8953280 144.4679750
  41.3101320  39.4896190 138.1639120  41.1815950  39.4814090 139.1124040
  40.4863340  39.8279280 137.8130130  48.9854230  52.6597230 143.6386350
  49.6276460  51.9590390 143.7518520  49.5103580  53.4395670 143.4583240
  52.8309950  52.9445850 133.3625490  52.6047530  52.2276290 133.9550130
  52.4406150  52.6958290 132.5247240  50.7591850  53.4592130 146.8422410
  51.0948090  54.0458820 147.5200330  49.8392190  53.3284840 147.0720200
  38.6125980  56.9712710 134.1369950  38.9723620  57.5702050 133.4827220
  38.4718320  57.5172600 134.9104980  38.3095250  41.2487310 147.6245820
  37.5953770  41.4484230 148.2298430  38.7290290  40.4726880 147.9960620
  52.4126200  50.8617790 135.0239650  52.1247900  51.3230480 135.8117530
  53.2078370  50.4015560 135.2923870  38.5967840  55.2367570 148.6112350
  38.7058960  54.2962310 148.4707740  37.9448400  55.5022320 147.9626080
  44.6294600  54.3543910 134.9543620  44.6204700  55.0873600 134.3388130
  43.7092960  54.1075490 135.0470580  40.2301240  49.5758800 135.6990380
  39.6229190  50.3157700 135.7085680  40.7050590  49.6658160 134.8728580
  49.8034030  43.7409620 145.3747270  50.1714850  42.9204830 145.7026840
  48.9432230  43.8011510 145.7902920  53.1696060  42.6966560 136.1834830
  52.5409220  42.8012230 135.4693060  52.6747980  42.9163340 136.9728710
  47.6154200  54.4172150 133.6168810  47.7166180  54.2136140 132.6870790
  46.7155940  54.1630430 133.8216590  45.1380090  44.9752510 137.5992710
  44.4296240  45.4438850 138.0406320  45.4224570  44.3174520 138.2337900
  46.7636020  46.3949210 145.5985240  47.2621270  46.8695030 146.2637090
  46.9058970  45.4712730 145.8055270  49.1695520  41.7003170 139.0388500
  49.0463300  41.7189300 138.0898010  50.1180080  41.7482110 139.1586900
  46.2572310  56.9358470 138.3116480  46.5113810  56.8979860 137.3895850
  45.3084790  56.8091800 138.3044730  43.3415110  43.2837590 134.9743420
  44.1905640  43.7207740 134.9083610  42.9746380  43.5957850 135.8015480
  53.9702880  42.6117170 146.4413630  53.4676480  43.3522570 146.7807440
  54.7859540  43.0001170 146.1250420  52.2624890  47.8550350 139.8874990
  51.3215030  47.8700580 140.0622680  52.5768960  47.0686310 140.3335290
  42.2406530  49.5369950 133.4478950  43.0069800  49.4251310 134.0104380
  42.3181220  48.8407920 132.7955720  40.9353290  46.9695020 134.1311840
  41.0156880  46.0222530 134.2429240  41.8273040  47.3001900 134.2372500
  54.2650470  55.0259200 141.5629250  54.3897890  55.8490370 142.0353060
  55.1316030  54.8149930 141.2153400  41.7368000  57.1190410 141.2346380
  42.4730480  56.5705870 141.5054950  42.1208920  57.9846420 141.0952370
  38.6213480  53.1863980 137.1087890  37.6953260  53.4285120 137.0993300
  39.0869910  54.0138240 136.9872640  44.8470310  56.2920720 133.0571950
  45.6398920  56.5809550 132.6053740  44.3274660  55.8612890 132.3784430
  51.0091280  56.1396640 148.9816780  51.9613030  56.0554660 148.9317020
  50.8619500  56.8038350 149.6550570  53.9000480  55.5190850 134.4808690
  53.6141990  55.1055990 133.6662870  53.7020030  56.4478560 134.3609210
  38.4624090  48.7909940 149.3668010  38.9663110  48.2117220 149.9384240
  37.7231510  49.0750170 149.9044380  45.3647710  51.5124130 132.9214300
  45.2598350  50.8976480 133.6475680  45.1971930  50.9890020 132.1377310
  45.5162030  50.1980930 148.9003530  44.7507700  50.7665930 148.8158200
  45.6977990  49.9057140 148.0071760  48.6050440  50.5744160 133.5256290
  48.0560540  51.0213460 134.1699030  49.2269700  50.0693410 134.0493960
  52.6585380  51.9286260 149.4578550  53.3994850  52.2662020 148.9546010
  51.8958060  52.0978320 148.9048320  44.2725560  49.5335080 135.4221590
  44.6941980  49.3674950 136.2652980  44.3976400  48.7235310 134.9276730
  42.4352980  45.5131630 148.2292570  41.9049440  45.0222580 147.6015910
  43.1041050  45.9415830 147.6950500  46.7853200  48.5572690 132.6698690
  47.3058860  47.8421710 132.3039840  47.4321600  49.1958560 132.9699200
  51.3331040  49.9801090 147.9933760  51.7472060  50.1346170 148.8424180
  50.3982040  50.1056310 148.1559540  51.8053210  47.3197250 149.9972910
  52.3873980  46.5649570 149.9093390  51.9814980  47.8504690 149.2204390
  42.9225280  42.4794000 148.3089860  42.8282150  41.8614750 147.5840730
  42.3422670  43.2060290 148.0819770  45.6886720  41.0367240 145.3417250
  45.2404020  41.0591500 144.4962800  45.0551920  40.6386260 145.9387550
  46.0946270  49.9321570 145.9629690  46.5134380  50.7754300 145.7905930
  45.1754900  50.0693610 145.7336470  48.4310170  47.6637750 147.3467530
  48.5506380  47.0678890 148.0862370  49.2904170  47.7007440 146.9268830
  50.7698070  48.2174940 145.9230040  50.2433290  48.7417560 145.3195180
  51.1129410  48.8502330 146.5539770  43.1684460  45.6068310 132.3679750
  42.9673520  44.7435670 132.7293090  42.9976510  45.5201670 131.4301350
  43.9453690  56.2374580 147.0787420  43.4074780  56.9620640 146.7596120
  44.1987650  55.7604920 146.2884760  45.1978940  44.2059100 148.6043350
  45.7878630  43.8974950 149.2921170  44.3799180  43.7338850 148.7603250
  50.0172370  43.8224910 148.8376370  49.3287890  43.1606450 148.7726360
  50.7378390  43.3763180 149.2824830  50.6472770  40.4176540 134.8966630
  50.9275060  39.5744440 135.2526050  49.8738500  40.6499650 135.4105380
  41.9667260  42.7068930 132.3557630  42.2693160  42.7136360 131.4476780
  42.7061850  42.3566790 132.8525290  46.8015900  57.4725790 147.3374070
  46.7274600  58.3760930 147.6446440  45.8994740  57.1537690 147.3096140
  45.1852190  41.6503550 133.3413830  44.8374190  40.9727540 132.7616280
  45.3864960  41.1893060 134.1557220  47.3501230  56.6384300 134.9600430
  48.2452020  56.9769270 134.9819190  47.3818860  55.9163710 134.3324710
  40.9897390  52.0111350 133.1887430  41.4272260  52.5541020 133.8445010
  41.4745120  51.1858300 133.1983770  38.2043190  54.8000380 140.6407690
  38.5346200  53.9321440 140.4086330  38.6334190  55.0058900 141.4712650
  42.8005110  53.1309390 138.3009660  42.5000650  53.0074360 139.2013570
  42.6942600  52.2717980 137.8925390  38.6933400  55.6670970 143.3789320
  38.2564390  55.8471770 144.2113470  39.2611080  56.4245590 143.2371040
  54.3295580  55.1687970 147.6666630  53.7297570  55.2280530 146.9230550
  54.4589480  54.2292950 147.7963480  55.5697030  52.9105790 133.0036340
  54.7389990  52.9782440 133.4743570  55.7468860  53.8009910 132.7003200
  55.0253490  49.6553270 135.5070540  55.7872400  50.2249920 135.6130230
  55.0407860  49.0880470 136.2778850  38.5257830  48.1791200 139.7378200
  37.8706670  47.9102840 139.0937900  39.3635780  48.0695680 139.2880180
  56.0313460  50.5103370 140.3512470  56.4022290  49.7270690 139.9448440
  56.6715390  51.1992470 140.1729770  53.0147220  51.8939950 145.7642790
  52.2007060  52.3237110 146.0268580  53.4221420  52.5058360 145.1511840
  55.0772660  49.9487640 132.6643060  55.3521500  50.8566520 132.5362280
  54.8883400  49.8850170 133.6005050  51.4748270  42.9732490 133.9596690
  51.8933150  42.7863470 133.1193350  51.1684330  42.1211540 134.2699620
  54.9738000  47.8856630 137.6572490  54.5981600  47.1184560 137.2253780
  54.2441120  48.2679330 138.1447420  39.5633760  48.5643770 144.2781540
  39.9306800  48.4771170 145.1577560  38.9944580  47.8010320 144.1788400
  54.3637620  47.0328150 147.2912010  54.1323710  46.8040900 146.3909960
  54.6242170  47.9527700 147.2456900  39.1149760  45.4752860 148.1839960
  38.2205810  45.4419620 148.5233670  39.6547310  45.6739650 148.9491210
  37.7395910  45.3890130 135.6803530  36.8359990  45.6520330 135.5055190
  38.2236530  45.6601300 134.9003490  54.2488960  46.1114120 140.9579730
  54.7726440  45.6176770 140.3269900  54.8348380  46.2464480 141.7027300
  54.4278680  46.1953990 144.4799280  53.4781390  46.1617530 144.5944270
  54.6091690  47.1054100 144.2449050  40.2823120  44.4455670 133.5897910
  40.9914820  44.0238890 133.1045190  39.5663060  44.5130900 132.9581260
  39.9297280  40.4995000 132.6300560  40.6525410  41.0403940 132.9481780
  40.2021800  40.2258420 131.7542100  53.7388930  45.3687470 136.8972140
  54.2348050  45.1358340 137.6821020  53.5405000  44.5299310 136.4809780
  39.6189470  39.7501190 142.5323180  40.2665660  39.1998570 142.0918340
  40.0391310  40.0044340 143.3538990  55.1676090  44.0048420 139.4309820
  55.0575370  43.8504460 140.3692090  55.9283680  43.4769360 139.1885230
  53.5141810  39.9442550 145.8892820  54.1514030  40.5576690 146.2552010
  53.6616700  39.9803210 144.9442050  56.0566360  41.8356340 132.6715960
  56.9815670  41.7037520 132.4634250  56.0342150  41.9149160 133.6252410
  56.1304850  42.6067000 135.2972670  55.3356350  42.5412120 135.8265580
  56.3348130  43.5417640 135.2858020  53.0723270  56.6458550 139.2911060
  53.6682340  56.3243120 138.6145480  53.3301420  56.1730370 140.0824330
  39.3721470  39.9056860 145.2748500  39.0236290  40.3620680 146.0406680
  39.0409170  39.0113990 145.3570930  44.6791870  54.6336050 145.0411410
  44.4383230  54.9010610 144.1541930  45.6194510  54.8041780 145.0962270
  46.8846290  41.0968740 148.7967920  46.8235180  41.6890570 149.5463330
  47.8246670  40.9894700 148.6518180  49.5220850  40.7538800 148.4360210
  50.1361260  41.0718090 147.7741290  50.0670410  40.2687390 149.0556070
  55.9396030  56.6530430 145.8422050  55.4454310  57.0499300 145.1249180
  55.3309320  56.0279640 146.2359330  40.0442110  39.4333060 148.5499270
  40.5925100  39.2521110 147.7865380  40.1097420  38.6427170 149.0855580
  40.8173870  56.0238710 146.5599470  40.2234190  55.8923410 147.2989510
  40.8097710  55.1876850 146.0941570  50.2628890  39.3170940 144.7629500
  49.3888730  39.6506050 144.5602430  50.1539640  38.8444120 145.5881370
  51.1700870  41.5241810 146.1471220  50.8414230  40.7093570 145.7672950
  52.1183170  41.4811620 146.0236910  53.6235480  57.2953850 143.1208790
  53.1638450  58.0469660 142.7466810  52.9947940  56.5760320 143.0623590
  40.4486100  53.3897090 145.5107510  39.7220160  52.7702380 145.4433460
  40.5095250  53.7837700 144.6405590  44.0531200  55.6042090 142.2956920
  44.5696220  54.9929450 141.7705180  44.7028580  56.1070870 142.7867930
  46.7926700  56.4950580 143.1225900  47.0804510  56.2404880 142.2458910
  47.3049920  55.9427940 143.7131470  48.0103710  40.2340780 143.7022410
  47.2275500  40.7086280 143.9819170  47.7166640  39.3295610 143.5935590
  52.5624780  40.9363880 141.7471500  53.0032870  40.8808980 140.8993100
  52.2932370  41.8521890 141.8181680  54.4263350  40.5679120 139.7580320
  54.3651750  39.6240340 139.6111340  55.2055380  40.6759210 140.3033780
  38.7316100  56.7071480 138.7204270  38.5638140  56.0742160 139.4186160
  37.8650610  56.9130880 138.3698460  39.3544120  40.5388260 136.2236130
  40.1123480  40.6517140 135.6500160  38.8921290  41.3757460 136.1779560
  45.8957930  42.6527530 139.2138440  45.0832440  42.2784420 138.8734320
  46.3999570  41.8972610 139.5159630  50.3982910  39.3169980 140.4521510
  51.0012280  39.8890190 140.9270030  49.6575900  39.8809420 140.2295410
  53.5417510  39.7191540 135.7261790  53.7368140  40.6174990 135.9929220
  52.7547380  39.4878620 136.2194740  40.3378800  55.4004710 136.1654410
  39.8126420  55.7812740 135.4616370  40.2623380  56.0255480 136.8864120
  41.7269270  41.0652310 134.7638100  42.2562030  40.2782110 134.6346050
  42.3597590  41.7443500 134.9973630  43.9207110  40.8027450 137.8183490
  43.2909850  40.1014760 137.9853620  43.3812250  41.5631580 137.6016650
  55.0944120  56.9592250 137.4868350  55.2696310  56.2729990 136.8429270
  54.3965690  57.4839300 137.0945020  42.9371770  57.3487090 135.0403660
  43.6690590  57.0646370 134.4927550  43.1965440  57.1100370 135.9303040
  42.0986560  53.4651820 135.0449990  41.4695440  53.9336920 135.5935820
  42.2134390  52.6201040 135.4796180  41.7020150  49.6056310 123.9536220
  40.8705030  49.3505020 124.3532730  42.3101130  49.6767080 124.6894140
  41.6821410  53.6396400 124.1494240  41.9849450  52.7494140 123.9704460
  42.4265000  54.1966620 123.9216490  40.1112100  44.5658200 117.7378610
  39.2228800  44.9074170 117.6358490  40.3953290  44.3658520 116.8459440
  38.0745110  47.1663850 123.6218310  38.6461220  46.3986050 123.6221950
  38.0746650  47.4652610 122.7124920  47.9325060  55.9854700 121.4763580
  47.3136500  56.4412200 120.9058020  48.7876840  56.1406160 121.0753280
  47.1263310  51.9693690 123.0830620  47.0571590  51.0283630 122.9219750
  47.8883170  52.0595100 123.6553190  39.3169980  42.5748210 125.4087240
  39.1372820  41.6773960 125.6890000  38.9150060  43.1220080 126.0834190
  42.2873490  43.1489700 118.7716990  42.3940240  44.0493430 119.0785750
  41.3765850  43.1007670 118.4811640  39.9356650  45.0708710 124.0169580
  40.6166760  45.3347080 124.6356980  39.6204700  44.2309580 124.3507590
  44.1281220  46.1176070 123.1042170  44.6359440  46.6157040 123.7447190
  44.6594460  45.3411270 122.9281530  56.2292150  44.2881260 126.8071520
  55.5244320  44.6762970 126.2886630  56.4950070  44.9831550 127.4092450
  42.4117320  40.7574630 127.3705590  42.4135760  41.2747020 126.5651490
  41.5821630  40.2804810 127.3475520  43.6620170  50.3969810 125.5479090
  43.3289550  51.0238730 126.1900160  43.8386850  50.9231690 124.7680760
  42.0932650  42.4684590 125.3776040  42.4349460  43.3126640 125.0829910
  41.1548460  42.6168330 125.4941380  42.8739270  52.3650610 127.3628270
  43.4913270  53.0401690 127.0812720  42.0132390  52.7738590 127.2715770
  55.2441000  43.6569680 123.4064640  54.2965910  43.6908660 123.5380070
  55.5690990  44.4708630 123.7914000  45.7760540  39.9566860 121.7020630
  46.0835520  39.4013750 120.9856130  44.8461240  40.0911320 121.5193620
  50.7261040  50.5763990 125.3210700  51.1429830  50.3624100 124.4864160
  51.4500860  50.8336780 125.8919320  48.1510380  44.2932690 115.4347910
  47.2114050  44.4546650 115.5200370  48.4693640  45.0118370 114.8883900
  43.7697940  48.5480430 121.2200480  43.3654940  47.8357680 120.7246380
  43.8561060  48.2033670 122.1088520  44.2379640  52.2347990 123.3839690
  43.9407930  51.6293460 122.7047470  45.1879460  52.2725300 123.2729050
  42.4826560  45.3223640 124.9999520  43.0341150  45.4318980 124.2252770
  42.9970070  45.6961240 125.7154750  43.3298070  51.9729680 130.0347490
  42.4326600  52.1969650 130.2820890  43.3550940  52.0964620 129.0858890
  42.1569290  48.8443000 128.6104860  42.0177060  49.7165800 128.9792260
  41.2750650  48.5015810 128.4652800  43.9549640  54.7864700 130.8190010
  43.9265070  55.1907650 129.9518440  43.7914610  53.8575060 130.6561610
  53.9520430  40.0765610 114.2629790  53.6393090  40.1692440 115.1628860
  54.7132900  40.6546640 114.2127220  40.4702570  47.4425410 118.7207130
  40.3500170  48.1687500 118.1088400  40.1603460  46.6728320 118.2435040
  55.9064460  55.5691800 132.1154180  56.3824180  56.0474690 132.7943260
  56.5271620  55.5009290 131.3899680  38.1087940  50.6140550 124.5275770
  38.1868360  50.7489320 123.5831490  38.7229620  49.9056440 124.7203890
  39.3535570  52.3140740 120.9381950  38.9463650  52.4555330 120.0835550
  40.2448580  52.0300900 120.7353160  49.1714450  56.4632650 127.8449000
  49.6859120  56.3740660 128.6471430  48.3283530  56.8092350 128.1376910
  43.6257230  56.5286520 119.0504620  43.4499710  55.6122060 118.8372420
  42.7712970  56.8873810 119.2902420  55.1621720  44.8137110 130.2403930
  54.5465990  45.3216780 129.7119390  54.8418140  43.9135440 130.1829870
  38.1647460  51.6554720 127.0670230  38.3278500  51.1860080 126.2489600
  38.6299910  51.1478280 127.7319070  42.9366230  40.7860480 122.1030800
  42.4934380  41.5670020 121.7715320  43.4951220  41.1090370 122.8101740
  47.2236040  43.6529000 127.7066120  46.7615410  43.8612020 128.5186060
  46.8214150  42.8388350 127.4036790  52.2240550  44.8737950 128.8362780
  51.3734140  44.5743700 129.1571850  52.0642340  45.1179960 127.9246600
  49.3190260  46.3739700 130.9361570  49.6443670  45.5403450 130.5963800
  50.1070590  46.8968220 131.0839900  46.0525050  40.4071180 116.9836630
  45.4279230  40.4031050 117.7089940  45.9655170  39.5402140 116.5872600
  44.9742130  41.3307810 123.9620400  45.2714460  42.2370640 123.8812420
  45.5227690  40.8426590 123.3479970  42.7280450  45.9094050 119.8312050
  42.5021370  45.6931220 120.7358670  41.9472980  46.3422510 119.4858020
  45.1679660  46.8079630 130.4972320  45.0723260  45.8674360 130.3472720
  46.0111640  47.0294700 130.1020390  40.2990200  43.2193300 128.6506100
  39.9053590  44.0668510 128.8578880  39.6108600  42.5819670 128.8414740
  46.8735250  43.3028270 131.7202840  46.1833570  43.1100470 132.3548930
  47.6167550  43.5862910 132.2527140  37.6007250  41.1421760 122.6836180
  37.3120300  41.7124620 123.3961160  38.3453010  40.6626210 123.0467410
  37.7877480  45.0841880 113.8938900  37.7052150  46.0272640 114.0353890
  37.4360540  44.9416790 113.0151250  45.5875610  43.8180910 122.9609250
  45.5911670  43.3770860 122.1113790  46.4826730  44.1398240 123.0681070
  41.4377990  43.7007400 121.9203460  41.0978040  44.1782630 122.6770510
  40.6755310  43.2472520 121.5604560  45.6495760  44.8192990 115.9516010
  45.7708580  44.7779470 116.9001830  45.2644270  45.6817140 115.7962740
  49.6124130  42.5960390 123.9679700  49.6296870  43.0469040 124.8121550
  49.3639710  41.6966030 124.1813140  44.6617260  47.1294130 115.3499310
  44.0934160  46.6812380 114.7235220  45.3706260  47.4886910 114.8164460
  53.0394880  40.0092570 129.8066080  53.3640650  39.2782230 130.3324060
  53.0751390  39.6906210 128.9047070  39.7386440  51.0306150 129.2266040
  39.3541230  50.3899820 129.8249000  40.0498630  51.7342270 129.7960770
  45.8883580  47.8782690 124.7074660  46.2553710  47.4041260 125.4536000
  45.6988640  48.7524260 125.0483000  38.7524070  42.6226380 120.8368130
  38.4670990  42.2582050 121.6746750  38.6902930  41.8906840 120.2231270
  43.6782950  46.9191330 127.0258870  43.3740020  47.7983310 127.2509230
  44.6329410  46.9791120 127.0616310  42.2064740  51.1252320 117.6225720
  41.4327000  50.5849940 117.4624440  42.9359370  50.6058930 117.2843480
  48.3471520  50.1926740 129.3021110  48.2808830  49.2722410 129.0478700
  47.7176660  50.2902180 130.0165750  42.2502140  50.7932700 121.2604530
  42.7680810  49.9900960 121.2061420  41.7986160  50.7311840 122.1021360
  39.7346680  47.7594070 128.1730230  39.3761620  48.4247920 128.7603570
  39.4401240  46.9277620 128.5442850  42.9359800  48.2178310 131.0569780
  42.6359940  48.3635490 130.1597600  43.7071040  47.6583600 130.9643170
  48.2788250  53.0147310 129.0524910  48.2932790  52.0828270 128.8343820
  47.5713350  53.1007070 129.6914680  54.4899460  49.6554650 128.3993490
  53.7647650  50.2483430 128.2022880  55.0174920  49.6478190 127.6006860
  54.4412570  54.0529390 118.0505650  53.7988730  53.3985010 118.3249370
  54.0543230  54.4584480 117.2746320  45.4089540  49.1458540 118.9173110
  45.8652320  49.9563790 119.1433300  45.0577750  48.8281680 119.7491600
  47.7122150  54.6564880 126.1465410  48.3564370  54.8624260 126.8238830
  48.0751590  53.8953280 125.6936260  41.3101320  39.4896190 119.3895630
  41.1815950  39.4814090 120.3380550  40.4863340  39.8279280 119.0386640
  48.9854230  52.6597230 124.8642860  49.6276460  51.9590390 124.9775030
  49.5103580  53.4395670 124.6839750  50.7591850  53.4592130 128.0678920
  51.0948090  54.0458820 128.7456840  49.8392190  53.3284840 128.2976710
  38.3095250  41.2487310 128.8502330  37.5953770  41.4484230 129.4554940
  38.7290290  40.4726880 129.2217130  38.5967840  55.2367570 129.8368860
  38.7058960  54.2962310 129.6964250  37.9448400  55.5022320 129.1882590
  46.5880430  53.5083460 131.2366980  46.2677300  52.7892700 131.7812670
  45.9138790  54.1838530 131.3103040  44.6294600  54.3543910 116.1800130
  44.6204700  55.0873600 115.5644640  43.7092960  54.1075490 116.2727090
  40.2301240  49.5758800 116.9246890  39.6229190  50.3157700 116.9342190
  40.7050590  49.6658160 116.0985090  49.8034030  43.7409620 126.6003780
  50.1714850  42.9204830 126.9283350  48.9432230  43.8011510 127.0159430
  47.6154200  54.4172150 114.8425320  47.7166180  54.2136140 113.9127300
  46.7155940  54.1630430 115.0473100  45.1380090  44.9752510 118.8249220
  44.4296240  45.4438850 119.2662830  45.4224570  44.3174520 119.4594410
  46.7636020  46.3949210 126.8241750  47.2621270  46.8695030 127.4893600
  46.9058970  45.4712730 127.0311780  46.2572310  56.9358470 119.5372990
  46.5113810  56.8979860 118.6152360  45.3084790  56.8091800 119.5301240
  43.3415110  43.2837590 116.1999930  44.1905640  43.7207740 116.1340120
  42.9746380  43.5957850 117.0271990  53.9702880  42.6117170 127.6670140
  53.4676480  43.3522570 128.0063950  54.7859540  43.0001170 127.3506930
  42.2406530  49.5369950 114.6735460  43.0069800  49.4251310 115.2360890
  42.3181220  48.8407920 114.0212230  40.9353290  46.9695020 115.3568350
  41.0156880  46.0222530 115.4685750  41.8273040  47.3001900 115.4629010
  41.7368000  57.1190410 122.4602890  42.4730480  56.5705870 122.7311460
  42.1208920  57.9846420 122.3208880  38.6213480  53.1863980 118.3344400
  37.6953260  53.4285120 118.3249810  39.0869910  54.0138240 118.2129150
  40.7426280  56.3036480 131.6488470  41.5439010  56.6248530 132.0623870
  40.2278100  55.9432060 132.3708380  44.8470310  56.2920720 114.2828460
  45.6398920  56.5809550 113.8310250  44.3274660  55.8612890 113.6040940
  49.5790910  52.4116350 131.5963880  48.9729070  52.4347950 130.8559630
  49.2745020  51.6799390 132.1331130  51.0091280  56.1396640 130.2073290
  51.9613030  56.0554660 130.1573530  50.8619500  56.8038350 130.8807080
  53.9000480  55.5190850 115.7065200  53.6141990  55.1055990 114.8919380
  53.7020030  56.4478560 115.5865720  38.4624090  48.7909940 130.5924520
  38.9663110  48.2117220 131.1640750  37.7231510  49.0750170 131.1300890
  45.3647710  51.5124130 114.1470810  45.2598350  50.8976480 114.8732190
  45.1971930  50.9890020 113.3633820  45.5162030  50.1980930 130.1260040
  44.7507700  50.7665930 130.0414710  45.6977990  49.9057140 129.2328270
  52.6585380  51.9286260 130.6835060  53.3994850  52.2662020 130.1802520
  51.8958060  52.0978320 130.1304830  40.4947170  46.9339530 131.4874590
  40.5352510  46.6353400 132.3959820  41.3492670  47.3347140 131.3282110
  44.2725560  49.5335080 116.6478100  44.6941980  49.3674950 117.4909490
  44.3976400  48.7235310 116.1533240  42.4352980  45.5131630 129.4549080
  41.9049440  45.0222580 128.8272420  43.1041050  45.9415830 128.9207010
  46.7853200  48.5572690 113.8955200  47.3058860  47.8421710 113.5296350
  47.4321600  49.1958560 114.1955710  51.3331040  49.9801090 129.2190270
  51.7472060  50.1346170 130.0680690  50.3982040  50.1056310 129.3816050
  51.8053210  47.3197250 131.2229420  52.3873980  46.5649570 131.1349900
  51.9814980  47.8504690 130.4460900  42.9225280  42.4794000 129.5346370
  42.8282150  41.8614750 128.8097240  42.3422670  43.2060290 129.3076280
  45.6886720  41.0367240 126.5673760  45.2404020  41.0591500 125.7219310
  45.0551920  40.6386260 127.1644060  46.0946270  49.9321570 127.1886200
  46.5134380  50.7754300 127.0162440  45.1754900  50.0693610 126.9592980
  48.4310170  47.6637750 128.5724040  48.5506380  47.0678890 129.3118880
  49.2904170  47.7007440 128.1525340  50.7698070  48.2174940 127.1486550
  50.2433290  48.7417560 126.5451690  51.1129410  48.8502330 127.7796280
  43.1684460  45.6068310 113.5936260  42.9673520  44.7435670 113.9549600
  42.9976510  45.5201670 112.6557860  43.9453690  56.2374580 128.3043930
  43.4074780  56.9620640 127.9852630  44.1987650  55.7604920 127.5141270
  45.1978940  44.2059100 129.8299860  45.7878630  43.8974950 130.5177680
  44.3799180  43.7338850 129.9859760  50.0172370  43.8224910 130.0632880
  49.3287890  43.1606450 129.9982870  50.7378390  43.3763180 130.5081340
  41.9667260  42.7068930 113.5814140  42.2693160  42.7136360 112.6733290
  42.7061850  42.3566790 114.0781800  46.8015900  57.4725790 128.5630580
  46.7274600  58.3760930 128.8702950  45.8994740  57.1537690 128.5352650
  45.1852190  41.6503550 114.5670340  44.8374190  40.9727540 113.9872790
  45.3864960  41.1893060 115.3813730  47.3501230  56.6384300 116.1856940
  48.2452020  56.9769270 116.2075700  47.3818860  55.9163710 115.5581220
  40.9897390  52.0111350 114.4143940  41.4272260  52.5541020 115.0701520
  41.4745120  51.1858300 114.4240280  38.2043190  54.8000380 121.8664200
  38.5346200  53.9321440 121.6342840  38.6334190  55.0058900 122.6969160
  42.8005110  53.1309390 119.5266170  42.5000650  53.0074360 120.4270080
  42.6942600  52.2717980 119.1181900  38.6933400  55.6670970 124.6045830
  38.2564390  55.8471770 125.4369980  39.2611080  56.4245590 124.4627550
  54.3295580  55.1687970 128.8923140  53.7297570  55.2280530 128.1487060
  54.4589480  54.2292950 129.0219990  55.5697030  52.9105790 114.2292850
  54.7389990  52.9782440 114.7000080  55.7468860  53.8009910 113.9259710
  38.5257830  48.1791200 120.9634710  37.8706670  47.9102840 120.3194410
  39.3635780  48.0695680 120.5136690  53.0147220  51.8939950 126.9899300
  52.2007060  52.3237110 127.2525090  53.4221420  52.5058360 126.3768350
  39.5633760  48.5643770 125.5038050  39.9306800  48.4771170 126.3834070
  38.9944580  47.8010320 125.4044910  54.3637620  47.0328150 128.5168520
  54.1323710  46.8040900 127.6166470  54.6242170  47.9527700 128.4713410
  39.1149760  45.4752860 129.4096470  38.2205810  45.4419620 129.7490180
  39.6547310  45.6739650 130.1747720  52.8025690  42.2584580 131.2948220
  53.6795870  42.2667980 131.6782220  52.8146530  41.5215420 130.6840570
  37.7395910  45.3890130 116.9060040  36.8359990  45.6520330 116.7311700
  38.2236530  45.6601300 116.1260000  54.4278680  46.1953990 125.7055790
  53.4781390  46.1617530 125.8200780  54.6091690  47.1054100 125.4705560
  40.2823120  44.4455670 114.8154420  40.9914820  44.0238890 114.3301700
  39.5663060  44.5130900 114.1837770  39.9297280  40.4995000 113.8557070
  40.6525410  41.0403940 114.1738290  40.2021800  40.2258420 112.9798610
  39.6189470  39.7501190 123.7579690  40.2665660  39.1998570 123.3174850
  40.0391310  40.0044340 124.5795500  53.5141810  39.9442550 127.1149330
  54.1514030  40.5576690 127.4808520  53.6616700  39.9803210 126.1698560
  56.0566360  41.8356340 113.8972470  56.9815670  41.7037520 113.6890760
  56.0342150  41.9149160 114.8508920  56.1304850  42.6067000 116.5229180
  55.3356350  42.5412120 117.0522090  56.3348130  43.5417640 116.5114530
  39.3721470  39.9056860 126.5005010  39.0236290  40.3620680 127.2663190
  39.0409170  39.0113990 126.5827440  40.9785840  53.0776460 130.6658200
  40.9355470  52.7069370 131.5472660  41.1096850  54.0154030 130.8060020
  44.6791870  54.6336050 126.2667920  44.4383230  54.9010610 125.3798440
  45.6194510  54.8041780 126.3218780  46.8846290  41.0968740 130.0224430
  46.8235180  41.6890570 130.7719840  47.8246670  40.9894700 129.8774690
  49.5220850  40.7538800 129.6616720  50.1361260  41.0718090 128.9997800
  50.0670410  40.2687390 130.2812580  40.0442110  39.4333060 129.7755780
  40.5925100  39.2521110 129.0121890  40.1097420  38.6427170 130.3112090
  40.8173870  56.0238710 127.7855980  40.2234190  55.8923410 128.5246020
  40.8097710  55.1876850 127.3198080  50.2628890  39.3170940 125.9886010
  49.3888730  39.6506050 125.7858940  50.1539640  38.8444120 126.8137880
  51.1700870  41.5241810 127.3727730  50.8414230  40.7093570 126.9929460
  52.1183170  41.4811620 127.2493420  40.4486100  53.3897090 126.7364020
  39.7220160  52.7702380 126.6689970  40.5095250  53.7837700 125.8662100
  44.0531200  55.6042090 123.5213430  44.5696220  54.9929450 122.9961690
  44.7028580  56.1070870 124.0124440  46.7926700  56.4950580 124.3482410
  47.0804510  56.2404880 123.4715420  47.3049920  55.9427940 124.9387980
  48.0103710  40.2340780 124.9278920  47.2275500  40.7086280 125.2075680
  47.7166640  39.3295610 124.8192100  39.3544120  40.5388260 117.4492640
  40.1123480  40.6517140 116.8756670  38.8921290  41.3757460 117.4036070
  45.8957930  42.6527530 120.4394950  45.0832440  42.2784420 120.0990830
  46.3999570  41.8972610 120.7416140  41.7269270  41.0652310 115.9894610
  42.2562030  40.2782110 115.8602560  42.3597590  41.7443500 116.2230140
  43.9207110  40.8027450 119.0440000  43.2909850  40.1014760 119.2110130
  43.3812250  41.5631580 118.8273160  46.8599060  57.4166680 131.7150610
  47.7866370  57.1810950 131.7586570  46.8449490  58.2438680 131.2336640
  55.0944120  56.9592250 118.7124860  55.2696310  56.2729990 118.0685780
  54.3965690  57.4839300 118.3201530  44.0462670  40.0811430 131.4792490
  43.7646940  40.5845030 130.7153310  44.4282370  39.2833180 131.1134620
  42.9371770  57.3487090 116.2660170  43.6690590  57.0646370 115.7184060
  43.1965440  57.1100370 117.1559550  42.0986560  53.4651820 116.2706500
  41.4695440  53.9336920 116.8192330  42.2134390  52.6201040 116.7052690
  50.6478130  39.4965010 132.0572960  50.5343580  39.8159620 132.9524480
  51.4647870  39.8977520 131.7610240  53.4276620  56.6436540 131.5391650
  54.2201940  56.1485770 131.3317610  53.7209770  57.3226680 132.1467260
  49.5536280  47.5157480 102.4207700  49.4730330  46.6012090 102.1499410
  49.1400700  48.0124550 101.7147410  47.6854320  49.2936500 104.3016970
  46.9096420  48.8136940 104.5915540  48.3367250  48.6142150 104.1273130
  41.7020150  49.6056310 105.1792730  40.8705030  49.3505020 105.5789240
  42.3101130  49.6767080 105.9150650  51.7061750  53.6996690 103.0816100
  51.2443280  52.9283930 103.4103270  52.5187300  53.7262760 103.5868550
  40.1112100  44.5658200  98.9635120  39.2228800  44.9074170  98.8615000
  40.3953290  44.3658520  98.0715950  47.1263310  51.9693690 104.3087130
  47.0571590  51.0283630 104.1476260  47.8883170  52.0595100 104.8809700
  39.3169980  42.5748210 106.6343750  39.1372820  41.6773960 106.9146510
  38.9150060  43.1220080 107.3090700  48.1568480  44.7764070 104.5356060
  48.5333300  43.9035950 104.4229730  48.0587990  45.1122770 103.6446500
  42.2873490  43.1489700  99.9973500  42.3940240  44.0493430 100.3042260
  41.3765850  43.1007670  99.7068150  51.9392600  42.2714510 101.4684400
  52.7602220  41.7811080 101.5109880  51.9726680  42.8612170 102.2216240
  39.9356650  45.0708710 105.2426090  40.6166760  45.3347080 105.8613490
  39.6204700  44.2309580 105.5764100  44.1281220  46.1176070 104.3298680
  44.6359440  46.6157040 104.9703700  44.6594460  45.3411270 104.1538040
  48.7988410  50.8693940 100.0952000  48.1805680  51.3343390  99.5314720
  49.3111660  51.5621420 100.5121510  52.1754080  44.2114890 104.2411940
  51.4709650  44.4999780 104.8215050  52.5366240  45.0215000 103.8811500
  45.7760540  39.9566860 102.9277140  46.0835520  39.4013750 102.2112640
  44.8461240  40.0911320 102.7450130  52.6221020  52.3950370 100.3074770
  52.5117350  51.4524700 100.4324190  52.6189270  52.7566010 101.1937530
  50.7261040  50.5763990 106.5467210  51.1429830  50.3624100 105.7120670
  51.4500860  50.8336780 107.1175830  48.1641300  48.0215690  99.6637260
  47.2370580  47.9553070  99.8925730  48.3166120  48.9595820  99.5492500
  48.1510380  44.2932690  96.6604420  47.2114050  44.4546650  96.7456880
  48.4693640  45.0118370  96.1140410  54.6723140  48.9751210 106.6383450
  53.8441770  49.0444300 106.1633580  55.2673620  49.5605520 106.1699280
  52.1938590  49.5835990 100.1672510  51.5751010  49.2455540  99.5198810
  52.1763040  48.9395750 100.8751700  43.7697940  48.5480430 102.4456990
  43.3654940  47.8357680 101.9502890  43.8561060  48.2033670 103.3345030
  42.4826560  45.3223640 106.2256030  43.0341150  45.4318980 105.4509280
  42.9970070  45.6961240 106.9411260  50.3703290  48.8222800  97.1745260
  50.8096570  47.9845230  97.0283080  51.0831710  49.4552200  97.2609400
  53.9520430  40.0765610  95.4886300  53.6393090  40.1692440  96.3885370
  54.7132900  40.6546640  95.4383730  40.4702570  47.4425410  99.9463640
  40.3500170  48.1687500  99.3344910  40.1603460  46.6728320  99.4691550
  39.3535570  52.3140740 102.1638460  38.9463650  52.4555330 101.3092060
  40.2448580  52.0300900 101.9609670  55.3097710  52.7604650 110.5010700
  55.4360770  52.5216530 109.5827880  55.3519090  51.9289190 110.9732780
  49.1714450  56.4632650 109.0705510  49.6859120  56.3740660 109.8727940
  48.3283530  56.8092350 109.3633420  50.8494980  54.2575550  97.0587510
  50.1560140  54.2552840  96.3989790  51.5917840  53.8334870  96.6281680
  50.4144910  55.8838260 101.1336000  50.8701860  55.1027640 101.4474620
  50.7537430  56.5945080 101.6777180  38.1647460  51.6554720 108.2926740
  38.3278500  51.1860080 107.4746110  38.6299910  51.1478280 108.9575580
  42.9366230  40.7860480 103.3287310  42.4934380  41.5670020 102.9971830
  43.4951220  41.1090370 104.0358250  47.2236040  43.6529000 108.9322630
  46.7615410  43.8612020 109.7442570  46.8214150  42.8388350 108.6293300
  46.0525050  40.4071180  98.2093140  45.4279230  40.4031050  98.9346450
  45.9655170  39.5402140  97.8129110  44.9742130  41.3307810 105.1876910
  45.2714460  42.2370640 105.1068930  45.5227690  40.8426590 104.5736480
  42.7280450  45.9094050 101.0568560  42.5021370  45.6931220 101.9615180
  41.9472980  46.3422510 100.7114530  49.9578210  45.9157420  99.6559210
  49.3587100  46.6393220  99.4722830  50.5057820  45.8534200  98.8735660
  48.5643080  44.5520960 101.6862490  48.9572650  44.8693160 100.8731180
  48.9259930  43.6732840 101.8007010  40.2990200  43.2193300 109.8762610
  39.9053590  44.0668510 110.0835390  39.6108600  42.5819670 110.0671250
  46.8735250  43.3028270 112.9459350  46.1833570  43.1100470 113.5805440
  47.6167550  43.5862910 113.4783650  37.6007250  41.1421760 103.9092690
  37.3120300  41.7124620 104.6217670  38.3453010  40.6626210 104.2723920
  49.1498220  47.1426710 105.7813270  48.4179340  47.6513520 106.1303370
  48.7522560  46.3256690 105.4802050  45.5875610  43.8180910 104.1865760
  45.5911670  43.3770860 103.3370300  46.4826730  44.1398240 104.2937580
  41.4377990  43.7007400 103.1459970  41.0978040  44.1782630 103.9027020
  40.6755310  43.2472520 102.7861070  45.6495760  44.8192990  97.1772520
  45.7708580  44.7779470  98.1258340  45.2644270  45.6817140  97.0219250
  49.6124130  42.5960390 105.1936210  49.6296870  43.0469040 106.0378060
  49.3639710  41.6966030 105.4069650  44.6617260  47.1294130  96.5755820
  44.0934160  46.6812380  95.9491730  45.3706260  47.4886910  96.0420970
  53.0394880  40.0092570 111.0322590  53.3640650  39.2782230 111.5580570
  53.0751390  39.6906210 110.1303580  45.8883580  47.8782690 105.9331170
  46.2553710  47.4041260 106.6792510  45.6988640  48.7524260 106.2739510
  38.7524070  42.6226380 102.0624640  38.4670990  42.2582050 102.9003260
  38.6902930  41.8906840 101.4487780  42.2064740  51.1252320  98.8482230
  41.4327000  50.5849940  98.6880950  42.9359370  50.6058930  98.5099990
  52.9652720  50.1217680 104.6408620  53.6851840  50.6172970 104.2504730
  52.7634540  49.4435570 103.9962490  48.4262660  41.5155640  98.7838010
  47.6127270  41.0168810  98.7083320  48.2324610  42.3553890  98.3674360
  48.3471520  50.1926740 110.5277620  48.2808830  49.2722410 110.2735210
  47.7176660  50.2902180 111.2422260  51.1411050  45.8875290  97.0800170
  52.0290670  46.1992520  96.9051510  51.1116140  45.0147540  96.6880750
  47.1371640  52.0598980  97.7588340  47.4787340  52.8041210  97.2631660
  46.3084350  52.3730100  98.1213170  39.7346680  47.7594070 109.3986740
  39.3761620  48.4247920 109.9860080  39.4401240  46.9277620 109.7699360
  48.2788250  53.0147310 110.2781420  48.2932790  52.0828270 110.0600330
  47.5713350  53.1007070 110.9171190  54.4899460  49.6554650 109.6250000
  53.7647650  50.2483430 109.4279390  55.0174920  49.6478190 108.8263370
  54.4412570  54.0529390  99.2762160  53.7988730  53.3985010  99.5505880
  54.0543230  54.4584480  98.5002830  50.0199050  51.3814820 103.1233850
  50.3722870  50.7842950 102.4635220  49.1361380  51.0559050 103.2942100
  38.2454730  47.7585330  96.0221340  39.1149580  48.0410130  96.3057260
  37.7545050  48.5721200  95.9070150  45.4089540  49.1458540 100.1429620
  45.8652320  49.9563790 100.3689810  45.0577750  48.8281680 100.9748110
  47.7122150  54.6564880 107.3721920  48.3564370  54.8624260 108.0495340
  48.0751590  53.8953280 106.9192770  48.9854230  52.6597230 106.0899370
  49.6276460  51.9590390 106.2031540  49.5103580  53.4395670 105.9096260
  52.8309950  52.9445850  95.8138510  52.6047530  52.2276290  96.4063150
  52.4406150  52.6958290  94.9760260  50.7591850  53.4592130 109.2935430
  51.0948090  54.0458820 109.9713350  49.8392190  53.3284840 109.5233220
  38.6125980  56.9712710  96.5882970  38.9723620  57.5702050  95.9340240
  38.4718320  57.5172600  97.3618000  38.3095250  41.2487310 110.0758840
  37.5953770  41.4484230 110.6811450  38.7290290  40.4726880 110.4473640
  52.4126200  50.8617790  97.4752670  52.1247900  51.3230480  98.2630550
  53.2078370  50.4015560  97.7436890  38.5967840  55.2367570 111.0625370
  38.7058960  54.2962310 110.9220760  37.9448400  55.5022320 110.4139100
  46.5880430  53.5083460 112.4623490  46.2677300  52.7892700 113.0069180
  45.9138790  54.1838530 112.5359550  44.6294600  54.3543910  97.4056640
  44.6204700  55.0873600  96.7901150  43.7092960  54.1075490  97.4983600
  40.2301240  49.5758800  98.1503400  39.6229190  50.3157700  98.1598700
  40.7050590  49.6658160  97.3241600  47.6154200  54.4172150  96.0681830
  47.7166180  54.2136140  95.1383810  46.7155940  54.1630430  96.2729610
  45.1380090  44.9752510 100.0505730  44.4296240  45.4438850 100.4919340
  45.4224570  44.3174520 100.6850920  46.7636020  46.3949210 108.0498260
  47.2621270  46.8695030 108.7150110  46.9058970  45.4712730 108.2568290
  49.1695520  41.7003170 101.4901520  49.0463300  41.7189300 100.5411030
  50.1180080  41.7482110 101.6099920  52.2624890  47.8550350 102.3388010
  51.3215030  47.8700580 102.5135700  52.5768960  47.0686310 102.7848310
  42.2406530  49.5369950  95.8991970  43.0069800  49.4251310  96.4617400
  42.3181220  48.8407920  95.2468740  40.9353290  46.9695020  96.5824860
  41.0156880  46.0222530  96.6942260  41.8273040  47.3001900  96.6885520
  38.6213480  53.1863980  99.5600910  37.6953260  53.4285120  99.5506320
  39.0869910  54.0138240  99.4385660  40.7426280  56.3036480 112.8744980
  41.5439010  56.6248530 113.2880380  40.2278100  55.9432060 113.5964890
  44.8470310  56.2920720  95.5084970  45.6398920  56.5809550  95.0566760
  44.3274660  55.8612890  94.8297450  49.5790910  52.4116350 112.8220390
  48.9729070  52.4347950 112.0816140  49.2745020  51.6799390 113.3587640
  51.0091280  56.1396640 111.4329800  51.9613030  56.0554660 111.3830040
  50.8619500  56.8038350 112.1063590  45.3647710  51.5124130  95.3727320
  45.2598350  50.8976480  96.0988700  45.1971930  50.9890020  94.5890330
  48.6050440  50.5744160  95.9769310  48.0560540  51.0213460  96.6212050
  49.2269700  50.0693410  96.5006980  52.6585380  51.9286260 111.9091570
  53.3994850  52.2662020 111.4059030  51.8958060  52.0978320 111.3561340
  40.4947170  46.9339530 112.7131100  40.5352510  46.6353400 113.6216330
  41.3492670  47.3347140 112.5538620  44.2725560  49.5335080  97.8734610
  44.6941980  49.3674950  98.7166000  44.3976400  48.7235310  97.3789750
  42.4352980  45.5131630 110.6805590  41.9049440  45.0222580 110.0528930
  43.1041050  45.9415830 110.1463520  46.7853200  48.5572690  95.1211710
  47.3058860  47.8421710  94.7552860  47.4321600  49.1958560  95.4212220
  51.3331040  49.9801090 110.4446780  51.7472060  50.1346170 111.2937200
  50.3982040  50.1056310 110.6072560  42.9225280  42.4794000 110.7602880
  42.8282150  41.8614750 110.0353750  42.3422670  43.2060290 110.5332790
  45.6886720  41.0367240 107.7930270  45.2404020  41.0591500 106.9475820
  45.0551920  40.6386260 108.3900570  50.7698070  48.2174940 108.3743060
  50.2433290  48.7417560 107.7708200  51.1129410  48.8502330 109.0052790
  43.1684460  45.6068310  94.8192770  42.9673520  44.7435670  95.1806110
  42.9976510  45.5201670  93.8814370  45.1978940  44.2059100 111.0556370
  45.7878630  43.8974950 111.7434190  44.3799180  43.7338850 111.2116270
  50.6472770  40.4176540  97.3479650  50.9275060  39.5744440  97.7039070
  49.8738500  40.6499650  97.8618400  46.8015900  57.4725790 109.7887090
  46.7274600  58.3760930 110.0959460  45.8994740  57.1537690 109.7609160
  45.1852190  41.6503550  95.7926850  44.8374190  40.9727540  95.2129300
  45.3864960  41.1893060  96.6070240  47.3501230  56.6384300  97.4113450
  48.2452020  56.9769270  97.4332210  47.3818860  55.9163710  96.7837730
  40.9897390  52.0111350  95.6400450  41.4272260  52.5541020  96.2958030
  41.4745120  51.1858300  95.6496790  55.5697030  52.9105790  95.4549360
  54.7389990  52.9782440  95.9256590  55.7468860  53.8009910  95.1516220
  55.0253490  49.6553270  97.9583560  55.7872400  50.2249920  98.0643250
  55.0407860  49.0880470  98.7291870  38.5257830  48.1791200 102.1891220
  37.8706670  47.9102840 101.5450920  39.3635780  48.0695680 101.7393200
  56.0313460  50.5103370 102.8025490  56.4022290  49.7270690 102.3961460
  56.6715390  51.1992470 102.6242790  53.0147220  51.8939950 108.2155810
  52.2007060  52.3237110 108.4781600  53.4221420  52.5058360 107.6024860
  51.4748270  42.9732490  96.4109710  51.8933150  42.7863470  95.5706370
  51.1684330  42.1211540  96.7212640  54.9738000  47.8856630 100.1085510
  54.5981600  47.1184560  99.6766800  54.2441120  48.2679330 100.5960440
  39.5633760  48.5643770 106.7294560  39.9306800  48.4771170 107.6090580
  38.9944580  47.8010320 106.6301420  39.1149760  45.4752860 110.6352980
  38.2205810  45.4419620 110.9746690  39.6547310  45.6739650 111.4004230
  54.2488960  46.1114120 103.4092750  54.7726440  45.6176770 102.7782920
  54.8348380  46.2464480 104.1540320  54.4278680  46.1953990 106.9312300
  53.4781390  46.1617530 107.0457290  54.6091690  47.1054100 106.6962070
  53.5141810  39.9442550 108.3405840  54.1514030  40.5576690 108.7065030
  53.6616700  39.9803210 107.3955070  56.0566360  41.8356340  95.1228980
  56.9815670  41.7037520  94.9147270  56.0342150  41.9149160  96.0765430
  53.0723270  56.6458550 101.7424080  53.6682340  56.3243120 101.0658500
  53.3301420  56.1730370 102.5337350  46.8846290  41.0968740 111.2480940
  46.8235180  41.6890570 111.9976350  47.8246670  40.9894700 111.1031200
  50.2628890  39.3170940 107.2142520  49.3888730  39.6506050 107.0115450
  50.1539640  38.8444120 108.0394390  48.0103710  40.2340780 106.1535430
  47.2275500  40.7086280 106.4332190  47.7166640  39.3295610 106.0448610
  52.5624780  40.9363880 104.1984520  53.0032870  40.8808980 103.3506120
  52.2932370  41.8521890 104.2694700  38.7316100  56.7071480 101.1717290
  38.5638140  56.0742160 101.8699180  37.8650610  56.9130880 100.8211480
  45.8957930  42.6527530 101.6651460  45.0832440  42.2784420 101.3247340
  46.3999570  41.8972610 101.9672650  50.3982910  39.3169980 102.9034530
  51.0012280  39.8890190 103.3783050  49.6575900  39.8809420 102.6808430
  53.5417510  39.7191540  98.1774810  53.7368140  40.6174990  98.4442240
  52.7547380  39.4878620  98.6707760  40.3378800  55.4004710  98.6167430
  39.8126420  55.7812740  97.9129390  40.2623380  56.0255480  99.3377140
  43.9207110  40.8027450 100.2696510  43.2909850  40.1014760 100.4366640
  43.3812250  41.5631580 100.0529670  46.8599060  57.4166680 112.9407120
  47.7866370  57.1810950 112.9843080  46.8449490  58.2438680 112.4593150
  44.0462670  40.0811430 112.7049000  43.7646940  40.5845030 111.9409820
  44.4282370  39.2833180 112.3391130  42.9371770  57.3487090  97.4916680
  43.6690590  57.0646370  96.9440570  43.1965440  57.1100370  98.3816060
  42.0986560  53.4651820  97.4963010  41.4695440  53.9336920  98.0448840
  42.2134390  52.6201040  97.9309200  50.6478130  39.4965010 113.2829470
  50.5343580  39.8159620 114.1780990  51.4647870  39.8977520 112.9866750
  47.6854320  49.2936500  85.5273480  46.9096420  48.8136940  85.8172050
  48.3367250  48.6142150  85.3529640  40.1112100  44.5658200  80.1891630
  39.2228800  44.9074170  80.0871510  40.3953290  44.3658520  79.2972460
  38.0745110  47.1663850  86.0731330  38.6461220  46.3986050  86.0734970
  38.0746650  47.4652610  85.1637940  47.1263310  51.9693690  85.5343640
  47.0571590  51.0283630  85.3732770  47.8883170  52.0595100  86.1066210
  42.2873490  43.1489700  81.2230010  42.3940240  44.0493430  81.5298770
  41.3765850  43.1007670  80.9324660  51.9392600  42.2714510  82.6940910
  52.7602220  41.7811080  82.7366390  51.9726680  42.8612170  83.4472750
  48.7988410  50.8693940  81.3208510  48.1805680  51.3343390  80.7571230
  49.3111660  51.5621420  81.7378020  52.1754080  44.2114890  85.4668450
  51.4709650  44.4999780  86.0471560  52.5366240  45.0215000  85.1068010
  42.8739270  52.3650610  89.8141290  43.4913270  53.0401690  89.5325740
  42.0132390  52.7738590  89.7228790  38.1671610  51.5550470  78.6948140
  37.7899590  52.0437570  77.9633040  38.4244680  52.2275750  79.3254670
  53.7916860  53.8290020  87.7295930  53.1080380  54.4989130  87.7212600
  54.3311150  54.0270670  86.9640790  55.2441000  43.6569680  85.8577660
  54.2965910  43.6908660  85.9893090  55.5690990  44.4708630  86.2427020
  50.7261040  50.5763990  87.7723720  51.1429830  50.3624100  86.9377180
  51.4500860  50.8336780  88.3432340  48.1641300  48.0215690  80.8893770
  47.2370580  47.9553070  81.1182240  48.3166120  48.9595820  80.7749010
  48.1510380  44.2932690  77.8860930  47.2114050  44.4546650  77.9713390
  48.4693640  45.0118370  77.3396920  54.6723140  48.9751210  87.8639960
  53.8441770  49.0444300  87.3890090  55.2673620  49.5605520  87.3955790
  52.1938590  49.5835990  81.3929020  51.5751010  49.2455540  80.7455320
  52.1763040  48.9395750  82.1008210  51.6365150  45.7620530  88.8094830
  51.2236330  46.5874240  89.0634820  50.9041100  45.1765570  88.6171190
  43.7697940  48.5480430  83.6713500  43.3654940  47.8357680  83.1759400
  43.8561060  48.2033670  84.5601540  42.4826560  45.3223640  87.4512540
  43.0341150  45.4318980  86.6765790  42.9970070  45.6961240  88.1667770
  52.3265250  55.8079860  89.4975810  51.8495810  56.6152050  89.3048420
  51.6427040  55.1558190  89.6502020  43.3298070  51.9729680  92.4860510
  42.4326600  52.1969650  92.7333910  43.3550940  52.0964620  91.5371910
  50.3703290  48.8222800  78.4001770  50.8096570  47.9845230  78.2539590
  51.0831710  49.4552200  78.4865910  42.1569290  48.8443000  91.0617880
  42.0177060  49.7165800  91.4305280  41.2750650  48.5015810  90.9165820
  43.9549640  54.7864700  93.2703030  43.9265070  55.1907650  92.4031460
  43.7914610  53.8575060  93.1074630  53.9520430  40.0765610  76.7142810
  53.6393090  40.1692440  77.6141880  54.7132900  40.6546640  76.6640240
  40.4702570  47.4425410  81.1720150  40.3500170  48.1687500  80.5601420
  40.1603460  46.6728320  80.6948060  55.9064460  55.5691800  94.5667200
  56.3824180  56.0474690  95.2456280  56.5271620  55.5009290  93.8412700
  49.1714450  56.4632650  90.2962020  49.6859120  56.3740660  91.0984450
  48.3283530  56.8092350  90.5889930  43.6257230  56.5286520  81.5017640
  43.4499710  55.6122060  81.2885440  42.7712970  56.8873810  81.7415440
  55.1621720  44.8137110  92.6916950  54.5465990  45.3216780  92.1632410
  54.8418140  43.9135440  92.6342890  38.1647460  51.6554720  89.5183250
  38.3278500  51.1860080  88.7002620  38.6299910  51.1478280  90.1832090
  42.9366230  40.7860480  84.5543820  42.4934380  41.5670020  84.2228340
  43.4951220  41.1090370  85.2614760  46.0525050  40.4071180  79.4349650
  45.4279230  40.4031050  80.1602960  45.9655170  39.5402140  79.0385620
  44.9742130  41.3307810  86.4133420  45.2714460  42.2370640  86.3325440
  45.5227690  40.8426590  85.7992990  49.9578210  45.9157420  80.8815720
  49.3587100  46.6393220  80.6979340  50.5057820  45.8534200  80.0992170
  46.8735250  43.3028270  94.1715860  46.1833570  43.1100470  94.8061950
  47.6167550  43.5862910  94.7040160  37.6007250  41.1421760  85.1349200
  37.3120300  41.7124620  85.8474180  38.3453010  40.6626210  85.4980430
  37.7877480  45.0841880  76.3451920  37.7052150  46.0272640  76.4866910
  37.4360540  44.9416790  75.4664270  49.1498220  47.1426710  87.0069780
  48.4179340  47.6513520  87.3559880  48.7522560  46.3256690  86.7058560
  41.4377990  43.7007400  84.3716480  41.0978040  44.1782630  85.1283530
  40.6755310  43.2472520  84.0117580  49.6124130  42.5960390  86.4192720
  49.6296870  43.0469040  87.2634570  49.3639710  41.6966030  86.6326160
  39.7386440  51.0306150  91.6779060  39.3541230  50.3899820  92.2762020
  40.0498630  51.7342270  92.2473790  45.8883580  47.8782690  87.1587680
  46.2553710  47.4041260  87.9049020  45.6988640  48.7524260  87.4996020
  38.7524070  42.6226380  83.2881150  38.4670990  42.2582050  84.1259770
  38.6902930  41.8906840  82.6744290  43.6782950  46.9191330  89.4771890
  43.3740020  47.7983310  89.7022250  44.6329410  46.9791120  89.5129330
  42.2064740  51.1252320  80.0738740  41.4327000  50.5849940  79.9137460
  42.9359370  50.6058930  79.7356500  52.9652720  50.1217680  85.8665130
  53.6851840  50.6172970  85.4761240  52.7634540  49.4435570  85.2219000
  48.4262660  41.5155640  80.0094520  47.6127270  41.0168810  79.9339830
  48.2324610  42.3553890  79.5930870  51.1411050  45.8875290  78.3056680
  52.0290670  46.1992520  78.1308020  51.1116140  45.0147540  77.9137260
  47.1371640  52.0598980  78.9844850  47.4787340  52.8041210  78.4888170
  46.3084350  52.3730100  79.3469680  39.7346680  47.7594070  90.6243250
  39.3761620  48.4247920  91.2116590  39.4401240  46.9277620  90.9955870
  42.9359800  48.2178310  93.5082800  42.6359940  48.3635490  92.6110620
  43.7071040  47.6583600  93.4156190  48.2788250  53.0147310  91.5037930
  48.2932790  52.0828270  91.2856840  47.5713350  53.1007070  92.1427700
  53.4125320  47.1987130  77.7736540  53.3289040  47.6301350  76.9232980
  54.1319510  47.6585480  78.2063360  50.0199050  51.3814820  84.3490360
  50.3722870  50.7842950  83.6891730  49.1361380  51.0559050  84.5198610
  46.1062330  52.1412510  81.7560770  46.7933460  52.6881720  82.1368360
  45.3194750  52.6853240  81.7910380  38.2454730  47.7585330  77.2477850
  39.1149580  48.0410130  77.5313770  37.7545050  48.5721200  77.1326660
  45.4089540  49.1458540  81.3686130  45.8652320  49.9563790  81.5946320
  45.0577750  48.8281680  82.2004620  47.7122150  54.6564880  88.5978430
  48.3564370  54.8624260  89.2751850  48.0751590  53.8953280  88.1449280
  41.3101320  39.4896190  81.8408650  41.1815950  39.4814090  82.7893570
  40.4863340  39.8279280  81.4899660  48.9854230  52.6597230  87.3155880
  49.6276460  51.9590390  87.4288050  49.5103580  53.4395670  87.1352770
  52.8309950  52.9445850  77.0395020  52.6047530  52.2276290  77.6319660
  52.4406150  52.6958290  76.2016770  50.7591850  53.4592130  90.5191940
  51.0948090  54.0458820  91.1969860  49.8392190  53.3284840  90.7489730
  38.6125980  56.9712710  77.8139480  38.9723620  57.5702050  77.1596750
  38.4718320  57.5172600  78.5874510  52.4126200  50.8617790  78.7009180
  52.1247900  51.3230480  79.4887060  53.2078370  50.4015560  78.9693400
  38.5967840  55.2367570  92.2881880  38.7058960  54.2962310  92.1477270
  37.9448400  55.5022320  91.6395610  46.5880430  53.5083460  93.6880000
  46.2677300  52.7892700  94.2325690  45.9138790  54.1838530  93.7616060
  44.6294600  54.3543910  78.6313150  44.6204700  55.0873600  78.0157660
  43.7092960  54.1075490  78.7240110  40.2301240  49.5758800  79.3759910
  39.6229190  50.3157700  79.3855210  40.7050590  49.6658160  78.5498110
  53.1696060  42.6966560  79.8604360  52.5409220  42.8012230  79.1462590
  52.6747980  42.9163340  80.6498240  47.6154200  54.4172150  77.2938340
  47.7166180  54.2136140  76.3640320  46.7155940  54.1630430  77.4986120
  46.2572310  56.9358470  81.9886010  46.5113810  56.8979860  81.0665380
  45.3084790  56.8091800  81.9814260  52.2624890  47.8550350  83.5644520
  51.3215030  47.8700580  83.7392210  52.5768960  47.0686310  84.0104820
  42.2406530  49.5369950  77.1248480  43.0069800  49.4251310  77.6873910
  42.3181220  48.8407920  76.4725250  38.6213480  53.1863980  80.7857420
  37.6953260  53.4285120  80.7762830  39.0869910  54.0138240  80.6642170
  40.7426280  56.3036480  94.1001490  41.5439010  56.6248530  94.5136890
  40.2278100  55.9432060  94.8221400  49.5790910  52.4116350  94.0476900
  48.9729070  52.4347950  93.3072650  49.2745020  51.6799390  94.5844150
  51.0091280  56.1396640  92.6586310  51.9613030  56.0554660  92.6086550
  50.8619500  56.8038350  93.3320100  38.4624090  48.7909940  93.0437540
  38.9663110  48.2117220  93.6153770  37.7231510  49.0750170  93.5813910
  45.3647710  51.5124130  76.5983830  45.2598350  50.8976480  77.3245210
  45.1971930  50.9890020  75.8146840  45.5162030  50.1980930  92.5773060
  44.7507700  50.7665930  92.4927730  45.6977990  49.9057140  91.6841290
  48.6050440  50.5744160  77.2025820  48.0560540  51.0213460  77.8468560
  49.2269700  50.0693410  77.7263490  40.4947170  46.9339530  93.9387610
  40.5352510  46.6353400  94.8472840  41.3492670  47.3347140  93.7795130
  44.2725560  49.5335080  79.0991120  44.6941980  49.3674950  79.9422510
  44.3976400  48.7235310  78.6046260  46.7853200  48.5572690  76.3468220
  47.3058860  47.8421710  75.9809370  47.4321600  49.1958560  76.6468730
  45.6886720  41.0367240  89.0186780  45.2404020  41.0591500  88.1732330
  45.0551920  40.6386260  89.6157080  46.0946270  49.9321570  89.6399220
  46.5134380  50.7754300  89.4675460  45.1754900  50.0693610  89.4106000
  43.9453690  56.2374580  90.7556950  43.4074780  56.9620640  90.4365650
  44.1987650  55.7604920  89.9654290  50.6472770  40.4176540  78.5736160
  50.9275060  39.5744440  78.9295580  49.8738500  40.6499650  79.0874910
  46.8015900  57.4725790  91.0143600  46.7274600  58.3760930  91.3215970
  45.8994740  57.1537690  90.9865670  47.3501230  56.6384300  78.6369960
  48.2452020  56.9769270  78.6588720  47.3818860  55.9163710  78.0094240
  40.9897390  52.0111350  76.8656960  41.4272260  52.5541020  77.5214540
  41.4745120  51.1858300  76.8753300  42.8005110  53.1309390  81.9779190
  42.5000650  53.0074360  82.8783100  42.6942600  52.2717980  81.5694920
  54.3295580  55.1687970  91.3436160  53.7297570  55.2280530  90.6000080
  54.4589480  54.2292950  91.4733010  55.5697030  52.9105790  76.6805870
  54.7389990  52.9782440  77.1513100  55.7468860  53.8009910  76.3772730
  55.0253490  49.6553270  79.1840070  55.7872400  50.2249920  79.2899760
  55.0407860  49.0880470  79.9548380  38.5257830  48.1791200  83.4147730
  37.8706670  47.9102840  82.7707430  39.3635780  48.0695680  82.9649710
  56.0313460  50.5103370  84.0282000  56.4022290  49.7270690  83.6217970
  56.6715390  51.1992470  83.8499300  53.0147220  51.8939950  89.4412320
  52.2007060  52.3237110  89.7038110  53.4221420  52.5058360  88.8281370
  55.0772660  49.9487640  76.3412590  55.3521500  50.8566520  76.2131810
  54.8883400  49.8850170  77.2774580  51.4748270  42.9732490  77.6366220
  51.8933150  42.7863470  76.7962880  51.1684330  42.1211540  77.9469150
  54.9738000  47.8856630  81.3342020  54.5981600  47.1184560  80.9023310
  54.2441120  48.2679330  81.8216950  39.5633760  48.5643770  87.9551070
  39.9306800  48.4771170  88.8347090  38.9944580  47.8010320  87.8557930
  37.7395910  45.3890130  79.3573060  36.8359990  45.6520330  79.1824720
  38.2236530  45.6601300  78.5773020  54.2488960  46.1114120  84.6349260
  54.7726440  45.6176770  84.0039430  54.8348380  46.2464480  85.3796830
  54.4278680  46.1953990  88.1568810  53.4781390  46.1617530  88.2713800
  54.6091690  47.1054100  87.9218580  53.7388930  45.3687470  80.5741670
  54.2348050  45.1358340  81.3590550  53.5405000  44.5299310  80.1579310
  55.1676090  44.0048420  83.1079350  55.0575370  43.8504460  84.0461620
  55.9283680  43.4769360  82.8654760  56.0566360  41.8356340  76.3485490
  56.9815670  41.7037520  76.1403780  56.0342150  41.9149160  77.3021940
  56.1304850  42.6067000  78.9742200  55.3356350  42.5412120  79.5035110
  56.3348130  43.5417640  78.9627550  40.9785840  53.0776460  93.1171220
  40.9355470  52.7069370  93.9985680  41.1096850  54.0154030  93.2573040
  44.6791870  54.6336050  88.7180940  44.4383230  54.9010610  87.8311460
  45.6194510  54.8041780  88.7731800  46.8846290  41.0968740  92.4737450
  46.8235180  41.6890570  93.2232860  47.8246670  40.9894700  92.3287710
  55.9396030  56.6530430  89.5191580  55.4454310  57.0499300  88.8018710
  55.3309320  56.0279640  89.9128860  40.8173870  56.0238710  90.2369000
  40.2234190  55.8923410  90.9759040  40.8097710  55.1876850  89.7711100
  53.6235480  57.2953850  86.7978320  53.1638450  58.0469660  86.4236340
  52.9947940  56.5760320  86.7393120  48.0103710  40.2340780  87.3791940
  47.2275500  40.7086280  87.6588700  47.7166640  39.3295610  87.2705120
  52.5624780  40.9363880  85.4241030  53.0032870  40.8808980  84.5762630
  52.2932370  41.8521890  85.4951210  54.4263350  40.5679120  83.4349850
  54.3651750  39.6240340  83.2880870  55.2055380  40.6759210  83.9803310
  38.7316100  56.7071480  82.3973800  38.5638140  56.0742160  83.0955690
  37.8650610  56.9130880  82.0467990  50.3982910  39.3169980  84.1291040
  51.0012280  39.8890190  84.6039560  49.6575900  39.8809420  83.9064940
  53.5417510  39.7191540  79.4031320  53.7368140  40.6174990  79.6698750
  52.7547380  39.4878620  79.8964270  40.3378800  55.4004710  79.8423940
  39.8126420  55.7812740  79.1385900  40.2623380  56.0255480  80.5633650
  46.8599060  57.4166680  94.1663630  47.7866370  57.1810950  94.2099590
  46.8449490  58.2438680  93.6849660  42.9371770  57.3487090  78.7173190
  43.6690590  57.0646370  78.1697080  43.1965440  57.1100370  79.6072570
  42.0986560  53.4651820  78.7219520  41.4695440  53.9336920  79.2705350
  42.2134390  52.6201040  79.1565710  50.6478130  39.4965010  94.5085980
  50.5343580  39.8159620  95.4037500  51.4647870  39.8977520  94.2123260
  53.4276620  56.6436540  93.9904670  54.2201940  56.1485770  93.7830630
  53.7209770  57.3226680  94.5980280  41.7020150  49.6056310  67.6305750
  40.8705030  49.3505020  68.0302260  42.3101130  49.6767080  68.3663670
  40.1112100  44.5658200  61.4148140  39.2228800  44.9074170  61.3128020
  40.3953290  44.3658520  60.5228970  38.0745110  47.1663850  67.2987840
  38.6461220  46.3986050  67.2991480  38.0746650  47.4652610  66.3894450
  47.9325060  55.9854700  65.1533110  47.3136500  56.4412200  64.5827550
  48.7876840  56.1406160  64.7522810  47.1263310  51.9693690  66.7600150
  47.0571590  51.0283630  66.5989280  47.8883170  52.0595100  67.3322720
  39.3169980  42.5748210  69.0856770  39.1372820  41.6773960  69.3659530
  38.9150060  43.1220080  69.7603720  48.1568480  44.7764070  66.9869080
  48.5333300  43.9035950  66.8742750  48.0587990  45.1122770  66.0959520
  42.2873490  43.1489700  62.4486520  42.3940240  44.0493430  62.7555280
  41.3765850  43.1007670  62.1581170  39.9356650  45.0708710  67.6939110
  40.6166760  45.3347080  68.3126510  39.6204700  44.2309580  68.0277120
  44.1281220  46.1176070  66.7811700  44.6359440  46.6157040  67.4216720
  44.6594460  45.3411270  66.6051060  42.4117320  40.7574630  71.0475120
  42.4135760  41.2747020  70.2421020  41.5821630  40.2804810  71.0245050
  43.6620170  50.3969810  69.2248620  43.3289550  51.0238730  69.8669690
  43.8386850  50.9231690  68.4450290  42.0932650  42.4684590  69.0545570
  42.4349460  43.3126640  68.7599440  41.1548460  42.6168330  69.1710910
  42.8739270  52.3650610  71.0397800  43.4913270  53.0401690  70.7582250
  42.0132390  52.7738590  70.9485300  51.3275600  55.6734150  67.6697620
  51.3402760  55.2696440  66.8019880  50.7750820  56.4481440  67.5659050
  48.1510380  44.2932690  59.1117440  47.2114050  44.4546650  59.1969900
  48.4693640  45.0118370  58.5653430  43.7697940  48.5480430  64.8970010
  43.3654940  47.8357680  64.4015910  43.8561060  48.2033670  65.7858050
  44.2379640  52.2347990  67.0609220  43.9407930  51.6293460  66.3817000
  45.1879460  52.2725300  66.9498580  42.4826560  45.3223640  68.6769050
  43.0341150  45.4318980  67.9022300  42.9970070  45.6961240  69.3924280
  52.3265250  55.8079860  70.7232320  51.8495810  56.6152050  70.5304930
  51.6427040  55.1558190  70.8758530  43.3298070  51.9729680  73.7117020
  42.4326600  52.1969650  73.9590420  43.3550940  52.0964620  72.7628420
  50.3703290  48.8222800  59.6258280  50.8096570  47.9845230  59.4796100
  51.0831710  49.4552200  59.7122420  42.1569290  48.8443000  72.2874390
  42.0177060  49.7165800  72.6561790  41.2750650  48.5015810  72.1422330
  53.9520430  40.0765610  57.9399320  53.6393090  40.1692440  58.8398390
  54.7132900  40.6546640  57.8896750  40.4702570  47.4425410  62.3976660
  40.3500170  48.1687500  61.7857930  40.1603460  46.6728320  61.9204570
  55.9064460  55.5691800  75.7923710  56.3824180  56.0474690  76.4712790
  56.5271620  55.5009290  75.0669210  55.3097710  52.7604650  72.9523720
  55.4360770  52.5216530  72.0340900  55.3519090  51.9289190  73.4245800
  49.1714450  56.4632650  71.5218530  49.6859120  56.3740660  72.3240960
  48.3283530  56.8092350  71.8146440  51.1468850  56.7487990  60.9502530
  50.9869990  56.4590930  61.8484360  50.9815560  55.9728120  60.4147760
  43.6257230  56.5286520  62.7274150  43.4499710  55.6122060  62.5141950
  42.7712970  56.8873810  62.9671950  50.4144910  55.8838260  63.5849020
  50.8701860  55.1027640  63.8987640  50.7537430  56.5945080  64.1290200
  55.1621720  44.8137110  73.9173460  54.5465990  45.3216780  73.3888920
  54.8418140  43.9135440  73.8599400  42.9366230  40.7860480  65.7800330
  42.4934380  41.5670020  65.4484850  43.4951220  41.1090370  66.4871270
  47.2236040  43.6529000  71.3835650  46.7615410  43.8612020  72.1955590
  46.8214150  42.8388350  71.0806320  49.3190260  46.3739700  74.6131100
  49.6443670  45.5403450  74.2733330  50.1070590  46.8968220  74.7609430
  46.0525050  40.4071180  60.6606160  45.4279230  40.4031050  61.3859470
  45.9655170  39.5402140  60.2642130  42.7280450  45.9094050  63.5081580
  42.5021370  45.6931220  64.4128200  41.9472980  46.3422510  63.1627550
  40.2990200  43.2193300  72.3275630  39.9053590  44.0668510  72.5348410
  39.6108600  42.5819670  72.5184270  37.6007250  41.1421760  66.3605710
  37.3120300  41.7124620  67.0730690  38.3453010  40.6626210  66.7236940
  37.7877480  45.0841880  57.5708430  37.7052150  46.0272640  57.7123420
  37.4360540  44.9416790  56.6920780  49.1498220  47.1426710  68.2326290
  48.4179340  47.6513520  68.5816390  48.7522560  46.3256690  67.9315070
  45.5875610  43.8180910  66.6378780  45.5911670  43.3770860  65.7883320
  46.4826730  44.1398240  66.7450600  41.4377990  43.7007400  65.5972990
  41.0978040  44.1782630  66.3540040  40.6755310  43.2472520  65.2374090
  45.6495760  44.8192990  59.6285540  45.7708580  44.7779470  60.5771360
  45.2644270  45.6817140  59.4732270  53.0394880  40.0092570  73.4835610
  53.3640650  39.2782230  74.0093590  53.0751390  39.6906210  72.5816600
  39.7386440  51.0306150  72.9035570  39.3541230  50.3899820  73.5018530
  40.0498630  51.7342270  73.4730300  45.8883580  47.8782690  68.3844190
  46.2553710  47.4041260  69.1305530  45.6988640  48.7524260  68.7252530
  38.7524070  42.6226380  64.5137660  38.4670990  42.2582050  65.3516280
  38.6902930  41.8906840  63.9000800  43.6782950  46.9191330  70.7028400
  43.3740020  47.7983310  70.9278760  44.6329410  46.9791120  70.7385840
  48.4262660  41.5155640  61.2351030  47.6127270  41.0168810  61.1596340
  48.2324610  42.3553890  60.8187380  48.3471520  50.1926740  72.9790640
  48.2808830  49.2722410  72.7248230  47.7176660  50.2902180  73.6935280
  51.1411050  45.8875290  59.5313190  52.0290670  46.1992520  59.3564530
  51.1116140  45.0147540  59.1393770  42.2502140  50.7932700  64.9374060
  42.7680810  49.9900960  64.8830950  41.7986160  50.7311840  65.7790890
  39.7346680  47.7594070  71.8499760  39.3761620  48.4247920  72.4373100
  39.4401240  46.9277620  72.2212380  48.2788250  53.0147310  72.7294440
  48.2932790  52.0828270  72.5113350  47.5713350  53.1007070  73.3684210
  53.4125320  47.1987130  58.9993050  53.3289040  47.6301350  58.1489490
  54.1319510  47.6585480  59.4319870  54.4412570  54.0529390  61.7275180
  53.7988730  53.3985010  62.0018900  54.0543230  54.4584480  60.9515850
  38.2454730  47.7585330  58.4734360  39.1149580  48.0410130  58.7570280
  37.7545050  48.5721200  58.3583170  47.7122150  54.6564880  69.8234940
  48.3564370  54.8624260  70.5008360  48.0751590  53.8953280  69.3705790
  41.3101320  39.4896190  63.0665160  41.1815950  39.4814090  64.0150080
  40.4863340  39.8279280  62.7156170  52.8309950  52.9445850  58.2651530
  52.6047530  52.2276290  58.8576170  52.4406150  52.6958290  57.4273280
  38.3095250  41.2487310  72.5271860  37.5953770  41.4484230  73.1324470
  38.7290290  40.4726880  72.8986660  46.5880430  53.5083460  74.9136510
  46.2677300  52.7892700  75.4582200  45.9138790  54.1838530  74.9872570
  53.1696060  42.6966560  61.0860870  52.5409220  42.8012230  60.3719100
  52.6747980  42.9163340  61.8754750  45.1380090  44.9752510  62.5018750
  44.4296240  45.4438850  62.9432360  45.4224570  44.3174520  63.1363940
  46.7636020  46.3949210  70.5011280  47.2621270  46.8695030  71.1663130
  46.9058970  45.4712730  70.7081310  43.3415110  43.2837590  59.8769460
  44.1905640  43.7207740  59.8109650  42.9746380  43.5957850  60.7041520
  40.9353290  46.9695020  59.0337880  41.0156880  46.0222530  59.1455280
  41.8273040  47.3001900  59.1398540  41.7368000  57.1190410  66.1372420
  42.4730480  56.5705870  66.4080990  42.1208920  57.9846420  65.9978410
  44.8470310  56.2920720  57.9597990  45.6398920  56.5809550  57.5079780
  44.3274660  55.8612890  57.2810470  49.5790910  52.4116350  75.2733410
  48.9729070  52.4347950  74.5329160  49.2745020  51.6799390  75.8100660
  51.0091280  56.1396640  73.8842820  51.9613030  56.0554660  73.8343060
  50.8619500  56.8038350  74.5576610  53.9000480  55.5190850  59.3834730
  53.6141990  55.1055990  58.5688910  53.7020030  56.4478560  59.2635250
  38.4624090  48.7909940  74.2694050  38.9663110  48.2117220  74.8410280
  37.7231510  49.0750170  74.8070420  45.5162030  50.1980930  73.8029570
  44.7507700  50.7665930  73.7184240  45.6977990  49.9057140  72.9097800
  52.6585380  51.9286260  74.3604590  53.3994850  52.2662020  73.8572050
  51.8958060  52.0978320  73.8074360  46.7853200  48.5572690  57.5724730
  47.3058860  47.8421710  57.2065880  47.4321600  49.1958560  57.8725240
  51.8053210  47.3197250  74.8998950  52.3873980  46.5649570  74.8119430
  51.9814980  47.8504690  74.1230430  45.6886720  41.0367240  70.2443290
  45.2404020  41.0591500  69.3988840  45.0551920  40.6386260  70.8413590
  46.0946270  49.9321570  70.8655730  46.5134380  50.7754300  70.6931970
  45.1754900  50.0693610  70.6362510  48.4310170  47.6637750  72.2493570
  48.5506380  47.0678890  72.9888410  49.2904170  47.7007440  71.8294870
  43.1684460  45.6068310  57.2705790  42.9673520  44.7435670  57.6319130
  42.9976510  45.5201670  56.3327390  50.0172370  43.8224910  73.7402410
  49.3287890  43.1606450  73.6752400  50.7378390  43.3763180  74.1850870
  41.9667260  42.7068930  57.2583670  42.2693160  42.7136360  56.3502820
  42.7061850  42.3566790  57.7551330  46.8015900  57.4725790  72.2400110
  46.7274600  58.3760930  72.5472480  45.8994740  57.1537690  72.2122180
  45.1852190  41.6503550  58.2439870  44.8374190  40.9727540  57.6642320
  45.3864960  41.1893060  59.0583260  54.3295580  55.1687970  72.5692670
  53.7297570  55.2280530  71.8256590  54.4589480  54.2292950  72.6989520
  55.5697030  52.9105790  57.9062380  54.7389990  52.9782440  58.3769610
  55.7468860  53.8009910  57.6029240  55.0253490  49.6553270  60.4096580
  55.7872400  50.2249920  60.5156270  55.0407860  49.0880470  61.1804890
  55.0772660  49.9487640  57.5669100  55.3521500  50.8566520  57.4388320
  54.8883400  49.8850170  58.5031090  51.4748270  42.9732490  58.8622730
  51.8933150  42.7863470  58.0219390  51.1684330  42.1211540  59.1725660
  54.9738000  47.8856630  62.5598530  54.5981600  47.1184560  62.1279820
  54.2441120  48.2679330  63.0473460  39.5633760  48.5643770  69.1807580
  39.9306800  48.4771170  70.0603600  38.9944580  47.8010320  69.0814440
  39.1149760  45.4752860  73.0866000  38.2205810  45.4419620  73.4259710
  39.6547310  45.6739650  73.8517250  52.8025690  42.2584580  74.9717750
  53.6795870  42.2667980  75.3551750  52.8146530  41.5215420  74.3610100
  37.7395910  45.3890130  60.5829570  36.8359990  45.6520330  60.4081230
  38.2236530  45.6601300  59.8029530  40.2823120  44.4455670  58.4923950
  40.9914820  44.0238890  58.0071230  39.5663060  44.5130900  57.8607300
  39.9297280  40.4995000  57.5326600  40.6525410  41.0403940  57.8507820
  40.2021800  40.2258420  56.6568140  53.7388930  45.3687470  61.7998180
  54.2348050  45.1358340  62.5847060  53.5405000  44.5299310  61.3835820
  39.6189470  39.7501190  67.4349220  40.2665660  39.1998570  66.9944380
  40.0391310  40.0044340  68.2565030  55.1676090  44.0048420  64.3335860
  55.0575370  43.8504460  65.2718130  55.9283680  43.4769360  64.0911270
  53.5141810  39.9442550  70.7918860  54.1514030  40.5576690  71.1578050
  53.6616700  39.9803210  69.8468090  56.0566360  41.8356340  57.5742000
  56.9815670  41.7037520  57.3660290  56.0342150  41.9149160  58.5278450
  56.1304850  42.6067000  60.1998710  55.3356350  42.5412120  60.7291620
  56.3348130  43.5417640  60.1884060  53.0723270  56.6458550  64.1937100
  53.6682340  56.3243120  63.5171520  53.3301420  56.1730370  64.9850370
  39.3721470  39.9056860  70.1774540  39.0236290  40.3620680  70.9432720
  39.0409170  39.0113990  70.2596970  40.9785840  53.0776460  74.3427730
  40.9355470  52.7069370  75.2242190  41.1096850  54.0154030  74.4829550
  44.6791870  54.6336050  69.9437450  44.4383230  54.9010610  69.0567970
  45.6194510  54.8041780  69.9988310  46.8846290  41.0968740  73.6993960
  46.8235180  41.6890570  74.4489370  47.8246670  40.9894700  73.5544220
  49.5220850  40.7538800  73.3386250  50.1361260  41.0718090  72.6767330
  50.0670410  40.2687390  73.9582110  55.9396030  56.6530430  70.7448090
  55.4454310  57.0499300  70.0275220  55.3309320  56.0279640  71.1385370
  51.1700870  41.5241810  71.0497260  50.8414230  40.7093570  70.6698990
  52.1183170  41.4811620  70.9262950  53.6235480  57.2953850  68.0234830
  53.1638450  58.0469660  67.6492850  52.9947940  56.5760320  67.9649630
  44.0531200  55.6042090  67.1982960  44.5696220  54.9929450  66.6731220
  44.7028580  56.1070870  67.6893970  46.7926700  56.4950580  68.0251940
  47.0804510  56.2404880  67.1484950  47.3049920  55.9427940  68.6157510
  39.3544120  40.5388260  61.1262170  40.1123480  40.6517140  60.5526200
  38.8921290  41.3757460  61.0805600  45.8957930  42.6527530  64.1164480
  45.0832440  42.2784420  63.7760360  46.3999570  41.8972610  64.4185670
  41.7269270  41.0652310  59.6664140  42.2562030  40.2782110  59.5372090
  42.3597590  41.7443500  59.8999670  43.9207110  40.8027450  62.7209530
  43.2909850  40.1014760  62.8879660  43.3812250  41.5631580  62.5042690
  46.8599060  57.4166680  75.3920140  47.7866370  57.1810950  75.4356100
  46.8449490  58.2438680  74.9106170  55.0944120  56.9592250  62.3894390
  55.2696310  56.2729990  61.7455310  54.3965690  57.4839300  61.9971060
  42.9371770  57.3487090  59.9429700  43.6690590  57.0646370  59.3953590
  43.1965440  57.1100370  60.8329080  50.6478130  39.4965010  75.7342490
  50.5343580  39.8159620  76.6294010  51.4647870  39.8977520  75.4379770
  53.4276620  56.6436540  75.2161180  54.2201940  56.1485770  75.0087140
  53.7209770  57.3226680  75.8236790  49.5536280  47.5157480  46.0977230
  49.4730330  46.6012090  45.8268940  49.1400700  48.0124550  45.3916940
  47.6854320  49.2936500  47.9786500  46.9096420  48.8136940  48.2685070
  48.3367250  48.6142150  47.8042660  41.7020150  49.6056310  48.8562260
  40.8705030  49.3505020  49.2558770  42.3101130  49.6767080  49.5920180
  51.7061750  53.6996690  46.7585630  51.2443280  52.9283930  47.0872800
  52.5187300  53.7262760  47.2638080  40.1112100  44.5658200  42.6404650
  39.2228800  44.9074170  42.5384530  40.3953290  44.3658520  41.7485480
  38.0745110  47.1663850  48.5244350  38.6461220  46.3986050  48.5247990
  38.0746650  47.4652610  47.6150960  47.9325060  55.9854700  46.3789620
  47.3136500  56.4412200  45.8084060  48.7876840  56.1406160  45.9779320
  47.1263310  51.9693690  47.9856660  47.0571590  51.0283630  47.8245790
  47.8883170  52.0595100  48.5579230  39.3169980  42.5748210  50.3113280
  39.1372820  41.6773960  50.5916040  38.9150060  43.1220080  50.9860230
  48.1568480  44.7764070  48.2125590  48.5333300  43.9035950  48.0999260
  48.0587990  45.1122770  47.3216030  42.2873490  43.1489700  43.6743030
  42.3940240  44.0493430  43.9811790  41.3765850  43.1007670  43.3837680
  39.9356650  45.0708710  48.9195620  40.6166760  45.3347080  49.5383020
  39.6204700  44.2309580  49.2533630  44.1281220  46.1176070  48.0068210
  44.6359440  46.6157040  48.6473230  44.6594460  45.3411270  47.8307570
  56.2292150  44.2881260  51.7097560  55.5244320  44.6762970  51.1912670
  56.4950070  44.9831550  52.3118490  42.4117320  40.7574630  52.2731630
  42.4135760  41.2747020  51.4677530  41.5821630  40.2804810  52.2501560
  48.7988410  50.8693940  43.7721530  48.1805680  51.3343390  43.2084250
  49.3111660  51.5621420  44.1891040  43.6620170  50.3969810  50.4505130
  43.3289550  51.0238730  51.0926200  43.8386850  50.9231690  49.6706800
  52.1754080  44.2114890  47.9181470  51.4709650  44.4999780  48.4984580
  52.5366240  45.0215000  47.5581030  42.0932650  42.4684590  50.2802080
  42.4349460  43.3126640  49.9855950  41.1548460  42.6168330  50.3967420
  42.8739270  52.3650610  52.2654310  43.4913270  53.0401690  51.9838760
  42.0132390  52.7738590  52.1741810  53.7916860  53.8290020  50.1808950
  53.1080380  54.4989130  50.1725620  54.3311150  54.0270670  49.4153810
  55.2441000  43.6569680  48.3090680  54.2965910  43.6908660  48.4406110
  55.5690990  44.4708630  48.6940040  45.7760540  39.9566860  46.6046670
  46.0835520  39.4013750  45.8882170  44.8461240  40.0911320  46.4219660
  51.3275600  55.6734150  48.8954130  51.3402760  55.2696440  48.0276390
  50.7750820  56.4481440  48.7915560  52.6221020  52.3950370  43.9844300
  52.5117350  51.4524700  44.1093720  52.6189270  52.7566010  44.8707060
  50.7261040  50.5763990  50.2236740  51.1429830  50.3624100  49.3890200
  51.4500860  50.8336780  50.7945360  48.1641300  48.0215690  43.3406790
  47.2370580  47.9553070  43.5695260  48.3166120  48.9595820  43.2262030
  52.1938590  49.5835990  43.8442040  51.5751010  49.2455540  43.1968340
  52.1763040  48.9395750  44.5521230  51.6365150  45.7620530  51.2607850
  51.2236330  46.5874240  51.5147840  50.9041100  45.1765570  51.0684210
  43.7697940  48.5480430  46.1226520  43.3654940  47.8357680  45.6272420
  43.8561060  48.2033670  47.0114560  52.3265250  55.8079860  51.9488830
  51.8495810  56.6152050  51.7561440  51.6427040  55.1558190  52.1015040
  43.3298070  51.9729680  54.9373530  42.4326600  52.1969650  55.1846930
  43.3550940  52.0964620  53.9884930  50.3703290  48.8222800  40.8514790
  50.8096570  47.9845230  40.7052610  51.0831710  49.4552200  40.9378930
  48.4798670  53.7618870  44.8196030  48.9194580  54.5043200  44.4051420
  48.4185560  54.0045440  45.7434990  43.9549640  54.7864700  55.7216050
  43.9265070  55.1907650  54.8544480  43.7914610  53.8575060  55.5587650
  53.9520430  40.0765610  39.1655830  53.6393090  40.1692440  40.0654900
  54.7132900  40.6546640  39.1153260  40.4702570  47.4425410  43.6233170
  40.3500170  48.1687500  43.0114440  40.1603460  46.6728320  43.1461080
  55.9064460  55.5691800  57.0180220  56.3824180  56.0474690  57.6969300
  56.5271620  55.5009290  56.2925720  38.1087940  50.6140550  49.4301810
  38.1868360  50.7489320  48.4857530  38.7229620  49.9056440  49.6229930
  55.3097710  52.7604650  54.1780230  55.4360770  52.5216530  53.2597410
  55.3519090  51.9289190  54.6502310  49.1714450  56.4632650  52.7475040
  49.6859120  56.3740660  53.5497470  48.3283530  56.8092350  53.0402950
  51.1468850  56.7487990  42.1759040  50.9869990  56.4590930  43.0740870
  50.9815560  55.9728120  41.6404270  43.6257230  56.5286520  43.9530660
  43.4499710  55.6122060  43.7398460  42.7712970  56.8873810  44.1928460
  50.8494980  54.2575550  40.7357040  50.1560140  54.2552840  40.0759320
  51.5917840  53.8334870  40.3051210  50.4144910  55.8838260  44.8105530
  50.8701860  55.1027640  45.1244150  50.7537430  56.5945080  45.3546710
  55.1621720  44.8137110  55.1429970  54.5465990  45.3216780  54.6145430
  54.8418140  43.9135440  55.0855910  38.1647460  51.6554720  51.9696270
  38.3278500  51.1860080  51.1515640  38.6299910  51.1478280  52.6345110
  52.2240550  44.8737950  53.7388820  51.3734140  44.5743700  54.0597890
  52.0642340  45.1179960  52.8272640  49.3190260  46.3739700  55.8387610
  49.6443670  45.5403450  55.4989840  50.1070590  46.8968220  55.9865940
  44.9742130  41.3307810  48.8646440  45.2714460  42.2370640  48.7838460
  45.5227690  40.8426590  48.2506010  42.7280450  45.9094050  44.7338090
  42.5021370  45.6931220  45.6384710  41.9472980  46.3422510  44.3884060
  37.6007250  41.1421760  47.5862220  37.3120300  41.7124620  48.2987200
  38.3453010  40.6626210  47.9493450  49.1498220  47.1426710  49.4582800
  48.4179340  47.6513520  49.8072900  48.7522560  46.3256690  49.1571580
  45.5875610  43.8180910  47.8635290  45.5911670  43.3770860  47.0139830
  46.4826730  44.1398240  47.9707110  41.4377990  43.7007400  46.8229500
  41.0978040  44.1782630  47.5796550  40.6755310  43.2472520  46.4630600
  49.6124130  42.5960390  48.8705740  49.6296870  43.0469040  49.7147590
  49.3639710  41.6966030  49.0839180  44.6617260  47.1294130  40.2525350
  44.0934160  46.6812380  39.6261260  45.3706260  47.4886910  39.7190500
  39.7386440  51.0306150  54.1292080  39.3541230  50.3899820  54.7275040
  40.0498630  51.7342270  54.6986810  45.8883580  47.8782690  49.6100700
  46.2553710  47.4041260  50.3562040  45.6988640  48.7524260  49.9509040
  38.7524070  42.6226380  45.7394170  38.4670990  42.2582050  46.5772790
  38.6902930  41.8906840  45.1257310  52.9652720  50.1217680  48.3178150
  53.6851840  50.6172970  47.9274260  52.7634540  49.4435570  47.6732020
  48.3471520  50.1926740  54.2047150  48.2808830  49.2722410  53.9504740
  47.7176660  50.2902180  54.9191790  39.7346680  47.7594070  53.0756270
  39.3761620  48.4247920  53.6629610  39.4401240  46.9277620  53.4468890
  42.9359800  48.2178310  55.9595820  42.6359940  48.3635490  55.0623640
  43.7071040  47.6583600  55.8669210  48.2788250  53.0147310  53.9550950
  48.2932790  52.0828270  53.7369860  47.5713350  53.1007070  54.5940720
  53.4125320  47.1987130  40.2249560  53.3289040  47.6301350  39.3746000
  54.1319510  47.6585480  40.6576380  54.4899460  49.6554650  53.3019530
  53.7647650  50.2483430  53.1048920  55.0174920  49.6478190  52.5032900
  54.4412570  54.0529390  42.9531690  53.7988730  53.3985010  43.2275410
  54.0543230  54.4584480  42.1772360  50.0199050  51.3814820  46.8003380
  50.3722870  50.7842950  46.1404750  49.1361380  51.0559050  46.9711630
  46.1062330  52.1412510  44.2073790  46.7933460  52.6881720  44.5881380
  45.3194750  52.6853240  44.2423400  38.2454730  47.7585330  39.6990870
  39.1149580  48.0410130  39.9826790  37.7545050  48.5721200  39.5839680
  45.4089540  49.1458540  43.8199150  45.8652320  49.9563790  44.0459340
  45.0577750  48.8281680  44.6517640  47.7122150  54.6564880  51.0491450
  48.3564370  54.8624260  51.7264870  48.0751590  53.8953280  50.5962300
  48.9854230  52.6597230  49.7668900  49.6276460  51.9590390  49.8801070
  49.5103580  53.4395670  49.5865790  52.8309950  52.9445850  39.4908040
  52.6047530  52.2276290  40.0832680  52.4406150  52.6958290  38.6529790
  50.7591850  53.4592130  52.9704960  51.0948090  54.0458820  53.6482880
  49.8392190  53.3284840  53.2002750  38.3095250  41.2487310  53.7528370
  37.5953770  41.4484230  54.3580980  38.7290290  40.4726880  54.1243170
  52.4126200  50.8617790  41.1522200  52.1247900  51.3230480  41.9400080
  53.2078370  50.4015560  41.4206420  38.5967840  55.2367570  54.7394900
  38.7058960  54.2962310  54.5990290  37.9448400  55.5022320  54.0908630
  40.2301240  49.5758800  41.8272930  39.6229190  50.3157700  41.8368230
  40.7050590  49.6658160  41.0011130  49.8034030  43.7409620  51.5029820
  50.1714850  42.9204830  51.8309390  48.9432230  43.8011510  51.9185470
  53.1696060  42.6966560  42.3117380  52.5409220  42.8012230  41.5975610
  52.6747980  42.9163340  43.1011260  46.2572310  56.9358470  44.4399030
  46.5113810  56.8979860  43.5178400  45.3084790  56.8091800  44.4327280
  43.3415110  43.2837590  41.1025970  44.1905640  43.7207740  41.0366160
  42.9746380  43.5957850  41.9298030  53.9702880  42.6117170  52.5696180
  53.4676480  43.3522570  52.9089990  54.7859540  43.0001170  52.2532970
  52.2624890  47.8550350  46.0157540  51.3215030  47.8700580  46.1905230
  52.5768960  47.0686310  46.4617840  42.2406530  49.5369950  39.5761500
  43.0069800  49.4251310  40.1386930  42.3181220  48.8407920  38.9238270
  40.9353290  46.9695020  40.2594390  41.0156880  46.0222530  40.3711790
  41.8273040  47.3001900  40.3655050  54.2650470  55.0259200  47.6911800
  54.3897890  55.8490370  48.1635610  55.1316030  54.8149930  47.3435950
  49.5790910  52.4116350  56.4989920  48.9729070  52.4347950  55.7585670
  49.2745020  51.6799390  57.0357170  51.0091280  56.1396640  55.1099330
  51.9613030  56.0554660  55.0599570  50.8619500  56.8038350  55.7833120
  53.9000480  55.5190850  40.6091240  53.6141990  55.1055990  39.7945420
  53.7020030  56.4478560  40.4891760  38.4624090  48.7909940  55.4950560
  38.9663110  48.2117220  56.0666790  37.7231510  49.0750170  56.0326930
  48.6050440  50.5744160  39.6538840  48.0560540  51.0213460  40.2981580
  49.2269700  50.0693410  40.1776510  52.6585380  51.9286260  55.5861100
  53.3994850  52.2662020  55.0828560  51.8958060  52.0978320  55.0330870
  40.4947170  46.9339530  56.3900630  40.5352510  46.6353400  57.2985860
  41.3492670  47.3347140  56.2308150  44.2725560  49.5335080  41.5504140
  44.6941980  49.3674950  42.3935530  44.3976400  48.7235310  41.0559280
  46.7853200  48.5572690  38.7981240  47.3058860  47.8421710  38.4322390
  47.4321600  49.1958560  39.0981750  51.3331040  49.9801090  54.1216310
  51.7472060  50.1346170  54.9706730  50.3982040  50.1056310  54.2842090
  51.8053210  47.3197250  56.1255460  52.3873980  46.5649570  56.0375940
  51.9814980  47.8504690  55.3486940  45.6886720  41.0367240  51.4699800
  45.2404020  41.0591500  50.6245350  45.0551920  40.6386260  52.0670100
  46.0946270  49.9321570  52.0912240  46.5134380  50.7754300  51.9188480
  45.1754900  50.0693610  51.8619020  48.4310170  47.6637750  53.4750080
  48.5506380  47.0678890  54.2144920  49.2904170  47.7007440  53.0551380
  50.7698070  48.2174940  52.0512590  50.2433290  48.7417560  51.4477730
  51.1129410  48.8502330  52.6822320  43.1684460  45.6068310  38.4962300
  42.9673520  44.7435670  38.8575640  42.9976510  45.5201670  37.5583900
  43.9453690  56.2374580  53.2069970  43.4074780  56.9620640  52.8878670
  44.1987650  55.7604920  52.4167310  50.0172370  43.8224910  54.9658920
  49.3287890  43.1606450  54.9008910  50.7378390  43.3763180  55.4107380
  41.9667260  42.7068930  38.4840180  42.2693160  42.7136360  37.5759330
  42.7061850  42.3566790  38.9807840  46.8015900  57.4725790  53.4656620
  46.7274600  58.3760930  53.7728990  45.8994740  57.1537690  53.4378690
  45.1852190  41.6503550  39.4696380  44.8374190  40.9727540  38.8898830
  45.3864960  41.1893060  40.2839770  38.6933400  55.6670970  49.5071870
  38.2564390  55.8471770  50.3396020  39.2611080  56.4245590  49.3653590
  54.3295580  55.1687970  53.7949180  53.7297570  55.2280530  53.0513100
  54.4589480  54.2292950  53.9246030  55.5697030  52.9105790  39.1318890
  54.7389990  52.9782440  39.6026120  55.7468860  53.8009910  38.8285750
  55.0253490  49.6553270  41.6353090  55.7872400  50.2249920  41.7412780
  55.0407860  49.0880470  42.4061400  38.5257830  48.1791200  45.8660750
  37.8706670  47.9102840  45.2220450  39.3635780  48.0695680  45.4162730
  56.0313460  50.5103370  46.4795020  56.4022290  49.7270690  46.0730990
  56.6715390  51.1992470  46.3012320  53.0147220  51.8939950  51.8925340
  52.2007060  52.3237110  52.1551130  53.4221420  52.5058360  51.2794390
  55.0772660  49.9487640  38.7925610  55.3521500  50.8566520  38.6644830
  54.8883400  49.8850170  39.7287600  54.9738000  47.8856630  43.7855040
  54.5981600  47.1184560  43.3536330  54.2441120  48.2679330  44.2729970
  39.5633760  48.5643770  50.4064090  39.9306800  48.4771170  51.2860110
  38.9944580  47.8010320  50.3070950  54.3637620  47.0328150  53.4194560
  54.1323710  46.8040900  52.5192510  54.6242170  47.9527700  53.3739450
  39.1149760  45.4752860  54.3122510  38.2205810  45.4419620  54.6516220
  39.6547310  45.6739650  55.0773760  52.8025690  42.2584580  56.1974260
  53.6795870  42.2667980  56.5808260  52.8146530  41.5215420  55.5866610
  37.7395910  45.3890130  41.8086080  36.8359990  45.6520330  41.6337740
  38.2236530  45.6601300  41.0286040  54.2488960  46.1114120  47.0862280
  54.7726440  45.6176770  46.4552450  54.8348380  46.2464480  47.8309850
  54.4278680  46.1953990  50.6081830  53.4781390  46.1617530  50.7226820
  54.6091690  47.1054100  50.3731600  53.7388930  45.3687470  43.0254690
  54.2348050  45.1358340  43.8103570  53.5405000  44.5299310  42.6092330
  55.1676090  44.0048420  45.5592370  55.0575370  43.8504460  46.4974640
  55.9283680  43.4769360  45.3167780  53.5141810  39.9442550  52.0175370
  54.1514030  40.5576690  52.3834560  53.6616700  39.9803210  51.0724600
  56.0566360  41.8356340  38.7998510  56.9815670  41.7037520  38.5916800
  56.0342150  41.9149160  39.7534960  56.1304850  42.6067000  41.4255220
  55.3356350  42.5412120  41.9548130  56.3348130  43.5417640  41.4140570
  53.0723270  56.6458550  45.4193610  53.6682340  56.3243120  44.7428030
  53.3301420  56.1730370  46.2106880  40.9785840  53.0776460  55.5684240
  40.9355470  52.7069370  56.4498700  41.1096850  54.0154030  55.7086060
  44.6791870  54.6336050  51.1693960  44.4383230  54.9010610  50.2824480
  45.6194510  54.8041780  51.2244820  40.0442110  39.4333060  54.6781820
  40.5925100  39.2521110  53.9147930  40.1097420  38.6427170  55.2138130
  40.8173870  56.0238710  52.6882020  40.2234190  55.8923410  53.4272060
  40.8097710  55.1876850  52.2224120  50.2628890  39.3170940  50.8912050
  49.3888730  39.6506050  50.6884980  50.1539640  38.8444120  51.7163920
  51.1700870  41.5241810  52.2753770  50.8414230  40.7093570  51.8955500
  52.1183170  41.4811620  52.1519460  53.6235480  57.2953850  49.2491340
  53.1638450  58.0469660  48.8749360  52.9947940  56.5760320  49.1906140
  40.4486100  53.3897090  51.6390060  39.7220160  52.7702380  51.5716010
  40.5095250  53.7837700  50.7688140  44.0531200  55.6042090  48.4239470
  44.5696220  54.9929450  47.8987730  44.7028580  56.1070870  48.9150480
  46.7926700  56.4950580  49.2508450  47.0804510  56.2404880  48.3741460
  47.3049920  55.9427940  49.8414020  48.0103710  40.2340780  49.8304960
  47.2275500  40.7086280  50.1101720  47.7166640  39.3295610  49.7218140
  52.5624780  40.9363880  47.8754050  53.0032870  40.8808980  47.0275650
  52.2932370  41.8521890  47.9464230  54.4263350  40.5679120  45.8862870
  54.3651750  39.6240340  45.7393890  55.2055380  40.6759210  46.4316330
  50.3982910  39.3169980  46.5804060  51.0012280  39.8890190  47.0552580
  49.6575900  39.8809420  46.3577960  53.5417510  39.7191540  41.8544340
  53.7368140  40.6174990  42.1211770  52.7547380  39.4878620  42.3477290
  41.7269270  41.0652310  40.8920650  42.2562030  40.2782110  40.7628600
  42.3597590  41.7443500  41.1256180  43.9207110  40.8027450  43.9466040
  43.2909850  40.1014760  44.1136170  43.3812250  41.5631580  43.7299200
  46.8599060  57.4166680  56.6176650  47.7866370  57.1810950  56.6612610
  46.8449490  58.2438680  56.1362680  55.0944120  56.9592250  43.6150900
  55.2696310  56.2729990  42.9711820  54.3965690  57.4839300  43.2227570
  44.0462670  40.0811430  56.3818530  43.7646940  40.5845030  55.6179350
  44.4282370  39.2833180  56.0160660  53.4276620  56.6436540  56.4417690
  54.2201940  56.1485770  56.2343650  53.7209770  57.3226680  57.0493300
  49.5536280  47.5157480  27.3233740  49.4730330  46.6012090  27.0525450
  49.1400700  48.0124550  26.6173450  47.6854320  49.2936500  29.2043010
  46.9096420  48.8136940  29.4941580  48.3367250  48.6142150  29.0299170
  41.7020150  49.6056310  30.0818770  40.8705030  49.3505020  30.4815280
  42.3101130  49.6767080  30.8176690  51.7061750  53.6996690  27.9842140
  51.2443280  52.9283930  28.3129310  52.5187300  53.7262760  28.4894590
  41.6821410  53.6396400  30.2776790  41.9849450  52.7494140  30.0987010
  42.4265000  54.1966620  30.0499040  40.1112100  44.5658200  23.8661160
  39.2228800  44.9074170  23.7641040  40.3953290  44.3658520  22.9741990
  38.0745110  47.1663850  29.7500860  38.6461220  46.3986050  29.7504500
  38.0746650  47.4652610  28.8407470  47.9325060  55.9854700  27.6046130
  47.3136500  56.4412200  27.0340570  48.7876840  56.1406160  27.2035830
  47.1263310  51.9693690  29.2113170  47.0571590  51.0283630  29.0502300
  47.8883170  52.0595100  29.7835740  42.2873490  43.1489700  24.8999540
  42.3940240  44.0493430  25.2068300  41.3765850  43.1007670  24.6094190
  42.4117320  40.7574630  33.4988140  42.4135760  41.2747020  32.6934040
  41.5821630  40.2804810  33.4758070  48.7988410  50.8693940  24.9978040
  48.1805680  51.3343390  24.4340760  49.3111660  51.5621420  25.4147550
  43.6620170  50.3969810  31.6761640  43.3289550  51.0238730  32.3182710
  43.8386850  50.9231690  30.8963310  52.1754080  44.2114890  29.1437980
  51.4709650  44.4999780  29.7241090  52.5366240  45.0215000  28.7837540
  38.1671610  51.5550470  22.3717670  37.7899590  52.0437570  21.6402570
  38.4244680  52.2275750  23.0024200  53.7916860  53.8290020  31.4065460
  53.1080380  54.4989130  31.3982130  54.3311150  54.0270670  30.6410320
  51.3275600  55.6734150  30.1210640  51.3402760  55.2696440  29.2532900
  50.7750820  56.4481440  30.0172070  52.6221020  52.3950370  25.2100810
  52.5117350  51.4524700  25.3350230  52.6189270  52.7566010  26.0963570
  48.1641300  48.0215690  24.5663300  47.2370580  47.9553070  24.7951770
  48.3166120  48.9595820  24.4518540  48.1510380  44.2932690  21.5630460
  47.2114050  44.4546650  21.6482920  48.4693640  45.0118370  21.0166450
  52.1938590  49.5835990  25.0698550  51.5751010  49.2455540  24.4224850
  52.1763040  48.9395750  25.7777740  51.6365150  45.7620530  32.4864360
  51.2236330  46.5874240  32.7404350  50.9041100  45.1765570  32.2940720
  43.7697940  48.5480430  27.3483030  43.3654940  47.8357680  26.8528930
  43.8561060  48.2033670  28.2371070  44.2379640  52.2347990  29.5122240
  43.9407930  51.6293460  28.8330020  45.1879460  52.2725300  29.4011600
  52.3265250  55.8079860  33.1745340  51.8495810  56.6152050  32.9817950
  51.6427040  55.1558190  33.3271550  50.3703290  48.8222800  22.0771300
  50.8096570  47.9845230  21.9309120  51.0831710  49.4552200  22.1635440
  48.4798670  53.7618870  26.0452540  48.9194580  54.5043200  25.6307930
  48.4185560  54.0045440  26.9691500  53.9520430  40.0765610  20.3912340
  53.6393090  40.1692440  21.2911410  54.7132900  40.6546640  20.3409770
  40.4702570  47.4425410  24.8489680  40.3500170  48.1687500  24.2370950
  40.1603460  46.6728320  24.3717590  55.9064460  55.5691800  38.2436730
  56.3824180  56.0474690  38.9225810  56.5271620  55.5009290  37.5182230
  38.1087940  50.6140550  30.6558320  38.1868360  50.7489320  29.7114040
  38.7229620  49.9056440  30.8486440  39.3535570  52.3140740  27.0664500
  38.9463650  52.4555330  26.2118100  40.2448580  52.0300900  26.8635710
  55.3097710  52.7604650  35.4036740  55.4360770  52.5216530  34.4853920
  55.3519090  51.9289190  35.8758820  51.1468850  56.7487990  23.4015550
  50.9869990  56.4590930  24.2997380  50.9815560  55.9728120  22.8660780
  43.6257230  56.5286520  25.1787170  43.4499710  55.6122060  24.9654970
  42.7712970  56.8873810  25.4184970  50.8494980  54.2575550  21.9613550
  50.1560140  54.2552840  21.3015830  51.5917840  53.8334870  21.5307720
  50.4144910  55.8838260  26.0362040  50.8701860  55.1027640  26.3500660
  50.7537430  56.5945080  26.5803220  55.1621720  44.8137110  36.3686480
  54.5465990  45.3216780  35.8401940  54.8418140  43.9135440  36.3112420
  38.1647460  51.6554720  33.1952780  38.3278500  51.1860080  32.3772150
  38.6299910  51.1478280  33.8601620  42.9366230  40.7860480  28.2313350
  42.4934380  41.5670020  27.8997870  43.4951220  41.1090370  28.9384290
  52.2240550  44.8737950  34.9645330  51.3734140  44.5743700  35.2854400
  52.0642340  45.1179960  34.0529150  49.3190260  46.3739700  37.0644120
  49.6443670  45.5403450  36.7246350  50.1070590  46.8968220  37.2122450
  46.0525050  40.4071180  23.1119180  45.4279230  40.4031050  23.8372490
  45.9655170  39.5402140  22.7155150  42.7280450  45.9094050  25.9594600
  42.5021370  45.6931220  26.8641220  41.9472980  46.3422510  25.6140570
  49.9578210  45.9157420  24.5585250  49.3587100  46.6393220  24.3748870
  50.5057820  45.8534200  23.7761700  45.1679660  46.8079630  36.6254870
  45.0723260  45.8674360  36.4755270  46.0111640  47.0294700  36.2302940
  46.8735250  43.3028270  37.8485390  46.1833570  43.1100470  38.4831480
  47.6167550  43.5862910  38.3809690  37.6007250  41.1421760  28.8118730
  37.3120300  41.7124620  29.5243710  38.3453010  40.6626210  29.1749960
  37.7877480  45.0841880  20.0221450  37.7052150  46.0272640  20.1636440
  37.4360540  44.9416790  19.1433800  49.1498220  47.1426710  30.6839310
  48.4179340  47.6513520  31.0329410  48.7522560  46.3256690  30.3828090
  41.4377990  43.7007400  28.0486010  41.0978040  44.1782630  28.8053060
  40.6755310  43.2472520  27.6887110  45.6495760  44.8192990  22.0798560
  45.7708580  44.7779470  23.0284380  45.2644270  45.6817140  21.9245290
  44.6617260  47.1294130  21.4781860  44.0934160  46.6812380  20.8517770
  45.3706260  47.4886910  20.9447010  53.0394880  40.0092570  35.9348630
  53.3640650  39.2782230  36.4606610  53.0751390  39.6906210  35.0329620
  38.7524070  42.6226380  26.9650680  38.4670990  42.2582050  27.8029300
  38.6902930  41.8906840  26.3513820  42.2064740  51.1252320  23.7508270
  41.4327000  50.5849940  23.5906990  42.9359370  50.6058930  23.4126030
  48.4262660  41.5155640  23.6864050  47.6127270  41.0168810  23.6109360
  48.2324610  42.3553890  23.2700400  51.1411050  45.8875290  21.9826210
  52.0290670  46.1992520  21.8077550  51.1116140  45.0147540  21.5906790
  42.2502140  50.7932700  27.3887080  42.7680810  49.9900960  27.3343970
  41.7986160  50.7311840  28.2303910  47.1371640  52.0598980  22.6614380
  47.4787340  52.8041210  22.1657700  46.3084350  52.3730100  23.0239210
  48.2788250  53.0147310  35.1807460  48.2932790  52.0828270  34.9626370
  47.5713350  53.1007070  35.8197230  53.4125320  47.1987130  21.4506070
  53.3289040  47.6301350  20.6002510  54.1319510  47.6585480  21.8832890
  54.4412570  54.0529390  24.1788200  53.7988730  53.3985010  24.4531920
  54.0543230  54.4584480  23.4028870  50.0199050  51.3814820  28.0259890
  50.3722870  50.7842950  27.3661260  49.1361380  51.0559050  28.1968140
  46.1062330  52.1412510  25.4330300  46.7933460  52.6881720  25.8137890
  45.3194750  52.6853240  25.4679910  38.2454730  47.7585330  20.9247380
  39.1149580  48.0410130  21.2083300  37.7545050  48.5721200  20.8096190
  45.4089540  49.1458540  25.0455660  45.8652320  49.9563790  25.2715850
  45.0577750  48.8281680  25.8774150  47.7122150  54.6564880  32.2747960
  48.3564370  54.8624260  32.9521380  48.0751590  53.8953280  31.8218810
  41.3101320  39.4896190  25.5178180  41.1815950  39.4814090  26.4663100
  40.4863340  39.8279280  25.1669190  48.9854230  52.6597230  30.9925410
  49.6276460  51.9590390  31.1057580  49.5103580  53.4395670  30.8122300
  52.8309950  52.9445850  20.7164550  52.6047530  52.2276290  21.3089190
  52.4406150  52.6958290  19.8786300  50.7591850  53.4592130  34.1961470
  51.0948090  54.0458820  34.8739390  49.8392190  53.3284840  34.4259260
  38.6125980  56.9712710  21.4909010  38.9723620  57.5702050  20.8366280
  38.4718320  57.5172600  22.2644040  38.3095250  41.2487310  34.9784880
  37.5953770  41.4484230  35.5837490  38.7290290  40.4726880  35.3499680
  52.4126200  50.8617790  22.3778710  52.1247900  51.3230480  23.1656590
  53.2078370  50.4015560  22.6462930  44.6294600  54.3543910  22.3082680
  44.6204700  55.0873600  21.6927190  43.7092960  54.1075490  22.4009640
  40.2301240  49.5758800  23.0529440  39.6229190  50.3157700  23.0624740
  40.7050590  49.6658160  22.2267640  47.6154200  54.4172150  20.9707870
  47.7166180  54.2136140  20.0409850  46.7155940  54.1630430  21.1755650
  45.1380090  44.9752510  24.9531770  44.4296240  45.4438850  25.3945380
  45.4224570  44.3174520  25.5876960  46.2572310  56.9358470  25.6655540
  46.5113810  56.8979860  24.7434910  45.3084790  56.8091800  25.6583790
  43.3415110  43.2837590  22.3282480  44.1905640  43.7207740  22.2622670
  42.9746380  43.5957850  23.1554540  53.9702880  42.6117170  33.7952690
  53.4676480  43.3522570  34.1346500  54.7859540  43.0001170  33.4789480
  52.2624890  47.8550350  27.2414050  51.3215030  47.8700580  27.4161740
  52.5768960  47.0686310  27.6874350  42.2406530  49.5369950  20.8018010
  43.0069800  49.4251310  21.3643440  42.3181220  48.8407920  20.1494780
  40.9353290  46.9695020  21.4850900  41.0156880  46.0222530  21.5968300
  41.8273040  47.3001900  21.5911560  54.2650470  55.0259200  28.9168310
  54.3897890  55.8490370  29.3892120  55.1316030  54.8149930  28.5692460
  38.6213480  53.1863980  24.4626950  37.6953260  53.4285120  24.4532360
  39.0869910  54.0138240  24.3411700  44.8470310  56.2920720  20.4111010
  45.6398920  56.5809550  19.9592800  44.3274660  55.8612890  19.7323490
  49.5790910  52.4116350  37.7246430  48.9729070  52.4347950  36.9842180
  49.2745020  51.6799390  38.2613680  53.9000480  55.5190850  21.8347750
  53.6141990  55.1055990  21.0201930  53.7020030  56.4478560  21.7148270
  38.4624090  48.7909940  36.7207070  38.9663110  48.2117220  37.2923300
  37.7231510  49.0750170  37.2583440  45.3647710  51.5124130  20.2753360
  45.2598350  50.8976480  21.0014740  45.1971930  50.9890020  19.4916370
  48.6050440  50.5744160  20.8795350  48.0560540  51.0213460  21.5238090
  49.2269700  50.0693410  21.4033020  52.6585380  51.9286260  36.8117610
  53.3994850  52.2662020  36.3085070  51.8958060  52.0978320  36.2587380
  40.4947170  46.9339530  37.6157140  40.5352510  46.6353400  38.5242370
  41.3492670  47.3347140  37.4564660  44.2725560  49.5335080  22.7760650
  44.6941980  49.3674950  23.6192040  44.3976400  48.7235310  22.2815790
  46.7853200  48.5572690  20.0237750  47.3058860  47.8421710  19.6578900
  47.4321600  49.1958560  20.3238260  51.3331040  49.9801090  35.3472820
  51.7472060  50.1346170  36.1963240  50.3982040  50.1056310  35.5098600
  51.8053210  47.3197250  37.3511970  52.3873980  46.5649570  37.2632450
  51.9814980  47.8504690  36.5743450  42.9225280  42.4794000  35.6628920
  42.8282150  41.8614750  34.9379790  42.3422670  43.2060290  35.4358830
  48.4310170  47.6637750  34.7006590  48.5506380  47.0678890  35.4401430
  49.2904170  47.7007440  34.2807890  43.1684460  45.6068310  19.7218810
  42.9673520  44.7435670  20.0832150  42.9976510  45.5201670  18.7840410
  45.1978940  44.2059100  35.9582410  45.7878630  43.8974950  36.6460230
  44.3799180  43.7338850  36.1142310  50.0172370  43.8224910  36.1915430
  49.3287890  43.1606450  36.1265420  50.7378390  43.3763180  36.6363890
  50.6472770  40.4176540  22.2505690  50.9275060  39.5744440  22.6065110
  49.8738500  40.6499650  22.7644440  41.9667260  42.7068930  19.7096690
  42.2693160  42.7136360  18.8015840  42.7061850  42.3566790  20.2064350
  45.1852190  41.6503550  20.6952890  44.8374190  40.9727540  20.1155340
  45.3864960  41.1893060  21.5096280  47.3501230  56.6384300  22.3139490
  48.2452020  56.9769270  22.3358250  47.3818860  55.9163710  21.6863770
  40.9897390  52.0111350  20.5426490  41.4272260  52.5541020  21.1984070
  41.4745120  51.1858300  20.5522830  42.8005110  53.1309390  25.6548720
  42.5000650  53.0074360  26.5552630  42.6942600  52.2717980  25.2464450
  54.3295580  55.1687970  35.0205690  53.7297570  55.2280530  34.2769610
  54.4589480  54.2292950  35.1502540  55.5697030  52.9105790  20.3575400
  54.7389990  52.9782440  20.8282630  55.7468860  53.8009910  20.0542260
  55.0253490  49.6553270  22.8609600  55.7872400  50.2249920  22.9669290
  55.0407860  49.0880470  23.6317910  38.5257830  48.1791200  27.0917260
  37.8706670  47.9102840  26.4476960  39.3635780  48.0695680  26.6419240
  55.0772660  49.9487640  20.0182120  55.3521500  50.8566520  19.8901340
  54.8883400  49.8850170  20.9544110  51.4748270  42.9732490  21.3135750
  51.8933150  42.7863470  20.4732410  51.1684330  42.1211540  21.6238680
  54.9738000  47.8856630  25.0111550  54.5981600  47.1184560  24.5792840
  54.2441120  48.2679330  25.4986480  39.1149760  45.4752860  35.5379020
  38.2205810  45.4419620  35.8772730  39.6547310  45.6739650  36.3030270
  52.8025690  42.2584580  37.4230770  53.6795870  42.2667980  37.8064770
  52.8146530  41.5215420  36.8123120  37.7395910  45.3890130  23.0342590
  36.8359990  45.6520330  22.8594250  38.2236530  45.6601300  22.2542550
  40.2823120  44.4455670  20.9436970  40.9914820  44.0238890  20.4584250
  39.5663060  44.5130900  20.3120320  39.9297280  40.4995000  19.9839620
  40.6525410  41.0403940  20.3020840  40.2021800  40.2258420  19.1081160
  53.7388930  45.3687470  24.2511200  54.2348050  45.1358340  25.0360080
  53.5405000  44.5299310  23.8348840  39.6189470  39.7501190  29.8862240
  40.2665660  39.1998570  29.4457400  40.0391310  40.0044340  30.7078050
  53.5141810  39.9442550  33.2431880  54.1514030  40.5576690  33.6091070
  53.6616700  39.9803210  32.2981110  56.0566360  41.8356340  20.0255020
  56.9815670  41.7037520  19.8173310  56.0342150  41.9149160  20.9791470
  56.1304850  42.6067000  22.6511730  55.3356350  42.5412120  23.1804640
  56.3348130  43.5417640  22.6397080  53.0723270  56.6458550  26.6450120
  53.6682340  56.3243120  25.9684540  53.3301420  56.1730370  27.4363390
  39.3721470  39.9056860  32.6287560  39.0236290  40.3620680  33.3945740
  39.0409170  39.0113990  32.7109990  44.6791870  54.6336050  32.3950470
  44.4383230  54.9010610  31.5080990  45.6194510  54.8041780  32.4501330
  46.8846290  41.0968740  36.1506980  46.8235180  41.6890570  36.9002390
  47.8246670  40.9894700  36.0057240  49.5220850  40.7538800  35.7899270
  50.1361260  41.0718090  35.1280350  50.0670410  40.2687390  36.4095130
  55.9396030  56.6530430  33.1961110  55.4454310  57.0499300  32.4788240
  55.3309320  56.0279640  33.5898390  40.0442110  39.4333060  35.9038330
  40.5925100  39.2521110  35.1404440  40.1097420  38.6427170  36.4394640
  50.2628890  39.3170940  32.1168560  49.3888730  39.6506050  31.9141490
  50.1539640  38.8444120  32.9420430  51.1700870  41.5241810  33.5010280
  50.8414230  40.7093570  33.1212010  52.1183170  41.4811620  33.3775970
  53.6235480  57.2953850  30.4747850  53.1638450  58.0469660  30.1005870
  52.9947940  56.5760320  30.4162650  40.4486100  53.3897090  32.8646570
  39.7220160  52.7702380  32.7972520  40.5095250  53.7837700  31.9944650
  44.0531200  55.6042090  29.6495980  44.5696220  54.9929450  29.1244240
  44.7028580  56.1070870  30.1406990  46.7926700  56.4950580  30.4764960
  47.0804510  56.2404880  29.5997970  47.3049920  55.9427940  31.0670530
  39.3544120  40.5388260  23.5775190  40.1123480  40.6517140  23.0039220
  38.8921290  41.3757460  23.5318620  50.3982910  39.3169980  27.8060570
  51.0012280  39.8890190  28.2809090  49.6575900  39.8809420  27.5834470
  40.3378800  55.4004710  23.5193470  39.8126420  55.7812740  22.8155430
  40.2623380  56.0255480  24.2403180  41.7269270  41.0652310  22.1177160
  42.2562030  40.2782110  21.9885110  42.3597590  41.7443500  22.3512690
  43.9207110  40.8027450  25.1722550  43.2909850  40.1014760  25.3392680
  43.3812250  41.5631580  24.9555710  55.0944120  56.9592250  24.8407410
  55.2696310  56.2729990  24.1968330  54.3965690  57.4839300  24.4484080
  44.0462670  40.0811430  37.6075040  43.7646940  40.5845030  36.8435860
  44.4282370  39.2833180  37.2417170  42.9371770  57.3487090  22.3942720
  43.6690590  57.0646370  21.8466610  43.1965440  57.1100370  23.2842100
  42.0986560  53.4651820  22.3989050  41.4695440  53.9336920  22.9474880
  42.2134390  52.6201040  22.8335240  50.6478130  39.4965010  38.1855510
  50.5343580  39.8159620  39.0807030  51.4647870  39.8977520  37.8892790
  53.4276620  56.6436540  37.6674200  54.2201940  56.1485770  37.4600160
  53.7209770  57.3226680  38.2749810  49.5536280  47.5157480   8.5490250
  49.4730330  46.6012090   8.2781960  49.1400700  48.0124550   7.8429960
  47.6854320  49.2936500  10.4299520  46.9096420  48.8136940  10.7198090
  48.3367250  48.6142150  10.2555680  41.7020150  49.6056310  11.3075280
  40.8705030  49.3505020  11.7071790  42.3101130  49.6767080  12.0433200
  51.7061750  53.6996690   9.2098650  51.2443280  52.9283930   9.5385820
  52.5187300  53.7262760   9.7151100  41.6821410  53.6396400  11.5033300
  41.9849450  52.7494140  11.3243520  42.4265000  54.1966620  11.2755550
  40.1112100  44.5658200   5.0917670  39.2228800  44.9074170   4.9897550
  40.3953290  44.3658520   4.1998500  38.0745110  47.1663850  10.9757370
  38.6461220  46.3986050  10.9761010  38.0746650  47.4652610  10.0663980
  47.9325060  55.9854700   8.8302640  47.3136500  56.4412200   8.2597080
  48.7876840  56.1406160   8.4292340  47.1263310  51.9693690  10.4369680
  47.0571590  51.0283630  10.2758810  47.8883170  52.0595100  11.0092250
  39.3169980  42.5748210  12.7626300  39.1372820  41.6773960  13.0429060
  38.9150060  43.1220080  13.4373250  48.1568480  44.7764070  10.6638610
  48.5333300  43.9035950  10.5512280  48.0587990  45.1122770   9.7729050
  42.2873490  43.1489700   6.1256050  42.3940240  44.0493430   6.4324810
  41.3765850  43.1007670   5.8350700  51.9392600  42.2714510   7.5966950
  52.7602220  41.7811080   7.6392430  51.9726680  42.8612170   8.3498790
  39.9356650  45.0708710  11.3708640  40.6166760  45.3347080  11.9896040
  39.6204700  44.2309580  11.7046650  44.1281220  46.1176070  10.4581230
  44.6359440  46.6157040  11.0986250  44.6594460  45.3411270  10.2820590
  56.2292150  44.2881260  14.1610580  55.5244320  44.6762970  13.6425690
  56.4950070  44.9831550  14.7631510  42.4117320  40.7574630  14.7244650
  42.4135760  41.2747020  13.9190550  41.5821630  40.2804810  14.7014580
  48.7988410  50.8693940   6.2234550  48.1805680  51.3343390   5.6597270
  49.3111660  51.5621420   6.6404060  43.6620170  50.3969810  12.9018150
  43.3289550  51.0238730  13.5439220  43.8386850  50.9231690  12.1219820
  52.1754080  44.2114890  10.3694490  51.4709650  44.4999780  10.9497600
  52.5366240  45.0215000  10.0094050  42.0932650  42.4684590  12.7315100
  42.4349460  43.3126640  12.4368970  41.1548460  42.6168330  12.8480440
  42.8739270  52.3650610  14.7167330  43.4913270  53.0401690  14.4351780
  42.0132390  52.7738590  14.6254830  38.1671610  51.5550470   3.5974180
  37.7899590  52.0437570   2.8659080  38.4244680  52.2275750   4.2280710
  53.7916860  53.8290020  12.6321970  53.1080380  54.4989130  12.6238640
  54.3311150  54.0270670  11.8666830  55.2441000  43.6569680  10.7603700
  54.2965910  43.6908660  10.8919130  55.5690990  44.4708630  11.1453060
  45.7760540  39.9566860   9.0559690  46.0835520  39.4013750   8.3395190
  44.8461240  40.0911320   8.8732680  51.3275600  55.6734150  11.3467150
  51.3402760  55.2696440  10.4789410  50.7750820  56.4481440  11.2428580
  52.6221020  52.3950370   6.4357320  52.5117350  51.4524700   6.5606740
  52.6189270  52.7566010   7.3220080  50.7261040  50.5763990  12.6749760
  51.1429830  50.3624100  11.8403220  51.4500860  50.8336780  13.2458380
  48.1641300  48.0215690   5.7919810  47.2370580  47.9553070   6.0208280
  48.3166120  48.9595820   5.6775050  48.1510380  44.2932690   2.7886970
  47.2114050  44.4546650   2.8739430  48.4693640  45.0118370   2.2422960
  54.6723140  48.9751210  12.7666000  53.8441770  49.0444300  12.2916130
  55.2673620  49.5605520  12.2981830  52.1938590  49.5835990   6.2955060
  51.5751010  49.2455540   5.6481360  52.1763040  48.9395750   7.0034250
  51.6365150  45.7620530  13.7120870  51.2236330  46.5874240  13.9660860
  50.9041100  45.1765570  13.5197230  43.7697940  48.5480430   8.5739540
  43.3654940  47.8357680   8.0785440  43.8561060  48.2033670   9.4627580
  44.2379640  52.2347990  10.7378750  43.9407930  51.6293460  10.0586530
  45.1879460  52.2725300  10.6268110  42.4826560  45.3223640  12.3538580
  43.0341150  45.4318980  11.5791830  42.9970070  45.6961240  13.0693810
  52.3265250  55.8079860  14.4001850  51.8495810  56.6152050  14.2074460
  51.6427040  55.1558190  14.5528060  43.3298070  51.9729680  17.3886550
  42.4326600  52.1969650  17.6359950  43.3550940  52.0964620  16.4397950
  50.3703290  48.8222800   3.3027810  50.8096570  47.9845230   3.1565630
  51.0831710  49.4552200   3.3891950  42.1569290  48.8443000  15.9643920
  42.0177060  49.7165800  16.3331320  41.2750650  48.5015810  15.8191860
  48.4798670  53.7618870   7.2709050  48.9194580  54.5043200   6.8564440
  48.4185560  54.0045440   8.1948010  43.9549640  54.7864700  18.1729070
  43.9265070  55.1907650  17.3057500  43.7914610  53.8575060  18.0100670
  40.4702570  47.4425410   6.0746190  40.3500170  48.1687500   5.4627460
  40.1603460  46.6728320   5.5974100  55.9064460  55.5691800  19.4693240
  56.3824180  56.0474690  20.1482320  56.5271620  55.5009290  18.7438740
  38.1087940  50.6140550  11.8814830  38.1868360  50.7489320  10.9370550
  38.7229620  49.9056440  12.0742950  39.3535570  52.3140740   8.2921010
  38.9463650  52.4555330   7.4374610  40.2448580  52.0300900   8.0892220
  55.3097710  52.7604650  16.6293250  55.4360770  52.5216530  15.7110430
  55.3519090  51.9289190  17.1015330  49.1714450  56.4632650  15.1988060
  49.6859120  56.3740660  16.0010490  48.3283530  56.8092350  15.4915970
  51.1468850  56.7487990   4.6272060  50.9869990  56.4590930   5.5253890
  50.9815560  55.9728120   4.0917290  43.6257230  56.5286520   6.4043680
  43.4499710  55.6122060   6.1911480  42.7712970  56.8873810   6.6441480
  50.8494980  54.2575550   3.1870060  50.1560140  54.2552840   2.5272340
  51.5917840  53.8334870   2.7564230  50.4144910  55.8838260   7.2618550
  50.8701860  55.1027640   7.5757170  50.7537430  56.5945080   7.8059730
  55.1621720  44.8137110  17.5942990  54.5465990  45.3216780  17.0658450
  54.8418140  43.9135440  17.5368930  38.1647460  51.6554720  14.4209290
  38.3278500  51.1860080  13.6028660  38.6299910  51.1478280  15.0858130
  42.9366230  40.7860480   9.4569860  42.4934380  41.5670020   9.1254380
  43.4951220  41.1090370  10.1640800  47.2236040  43.6529000  15.0605180
  46.7615410  43.8612020  15.8725120  46.8214150  42.8388350  14.7575850
  52.2240550  44.8737950  16.1901840  51.3734140  44.5743700  16.5110910
  52.0642340  45.1179960  15.2785660  49.3190260  46.3739700  18.2900630
  49.6443670  45.5403450  17.9502860  50.1070590  46.8968220  18.4378960
  46.0525050  40.4071180   4.3375690  45.4279230  40.4031050   5.0629000
  45.9655170  39.5402140   3.9411660  44.9742130  41.3307810  11.3159460
  45.2714460  42.2370640  11.2351480  45.5227690  40.8426590  10.7019030
  42.7280450  45.9094050   7.1851110  42.5021370  45.6931220   8.0897730
  41.9472980  46.3422510   6.8397080  49.9578210  45.9157420   5.7841760
  49.3587100  46.6393220   5.6005380  50.5057820  45.8534200   5.0018210
  45.1679660  46.8079630  17.8511380  45.0723260  45.8674360  17.7011780
  46.0111640  47.0294700  17.4559450  48.5643080  44.5520960   7.8145040
  48.9572650  44.8693160   7.0013730  48.9259930  43.6732840   7.9289560
  40.2990200  43.2193300  16.0045160  39.9053590  44.0668510  16.2117940
  39.6108600  42.5819670  16.1953800  46.8735250  43.3028270  19.0741900
  46.1833570  43.1100470  19.7087990  47.6167550  43.5862910  19.6066200
  37.6007250  41.1421760  10.0375240  37.3120300  41.7124620  10.7500220
  38.3453010  40.6626210  10.4006470  49.1498220  47.1426710  11.9095820
  48.4179340  47.6513520  12.2585920  48.7522560  46.3256690  11.6084600
  45.5875610  43.8180910  10.3148310  45.5911670  43.3770860   9.4652850
  46.4826730  44.1398240  10.4220130  41.4377990  43.7007400   9.2742520
  41.0978040  44.1782630  10.0309570  40.6755310  43.2472520   8.9143620
  45.6495760  44.8192990   3.3055070  45.7708580  44.7779470   4.2540890
  45.2644270  45.6817140   3.1501800  49.6124130  42.5960390  11.3218760
  49.6296870  43.0469040  12.1660610  49.3639710  41.6966030  11.5352200
  44.6617260  47.1294130   2.7038370  44.0934160  46.6812380   2.0774280
  45.3706260  47.4886910   2.1703520  53.0394880  40.0092570  17.1605140
  53.3640650  39.2782230  17.6863120  53.0751390  39.6906210  16.2586130
  39.7386440  51.0306150  16.5805100  39.3541230  50.3899820  17.1788060
  40.0498630  51.7342270  17.1499830  45.8883580  47.8782690  12.0613720
  46.2553710  47.4041260  12.8075060  45.6988640  48.7524260  12.4022060
  38.7524070  42.6226380   8.1907190  38.4670990  42.2582050   9.0285810
  38.6902930  41.8906840   7.5770330  43.6782950  46.9191330  14.3797930
  43.3740020  47.7983310  14.6048290  44.6329410  46.9791120  14.4155370
  42.2064740  51.1252320   4.9764780  41.4327000  50.5849940   4.8163500
  42.9359370  50.6058930   4.6382540  52.9652720  50.1217680  10.7691170
  53.6851840  50.6172970  10.3787280  52.7634540  49.4435570  10.1245040
  48.4262660  41.5155640   4.9120560  47.6127270  41.0168810   4.8365870
  48.2324610  42.3553890   4.4956910  48.3471520  50.1926740  16.6560170
  48.2808830  49.2722410  16.4017760  47.7176660  50.2902180  17.3704810
  51.1411050  45.8875290   3.2082720  52.0290670  46.1992520   3.0334060
  51.1116140  45.0147540   2.8163300  42.2502140  50.7932700   8.6143590
  42.7680810  49.9900960   8.5600480  41.7986160  50.7311840   9.4560420
  47.1371640  52.0598980   3.8870890  47.4787340  52.8041210   3.3914210
  46.3084350  52.3730100   4.2495720  39.7346680  47.7594070  15.5269290
  39.3761620  48.4247920  16.1142630  39.4401240  46.9277620  15.8981910
  42.9359800  48.2178310  18.4108840  42.6359940  48.3635490  17.5136660
  43.7071040  47.6583600  18.3182230  48.2788250  53.0147310  16.4063970
  48.2932790  52.0828270  16.1882880  47.5713350  53.1007070  17.0453740
  53.4125320  47.1987130   2.6762580  53.3289040  47.6301350   1.8259020
  54.1319510  47.6585480   3.1089400  54.4899460  49.6554650  15.7532550
  53.7647650  50.2483430  15.5561940  55.0174920  49.6478190  14.9545920
  54.4412570  54.0529390   5.4044710  53.7988730  53.3985010   5.6788430
  54.0543230  54.4584480   4.6285380  50.0199050  51.3814820   9.2516400
  50.3722870  50.7842950   8.5917770  49.1361380  51.0559050   9.4224650
  46.1062330  52.1412510   6.6586810  46.7933460  52.6881720   7.0394400
  45.3194750  52.6853240   6.6936420  38.2454730  47.7585330   2.1503890
  39.1149580  48.0410130   2.4339810  37.7545050  48.5721200   2.0352700
  45.4089540  49.1458540   6.2712170  45.8652320  49.9563790   6.4972360
  45.0577750  48.8281680   7.1030660  47.7122150  54.6564880  13.5004470
  48.3564370  54.8624260  14.1777890  48.0751590  53.8953280  13.0475320
  41.3101320  39.4896190   6.7434690  41.1815950  39.4814090   7.6919610
  40.4863340  39.8279280   6.3925700  48.9854230  52.6597230  12.2181920
  49.6276460  51.9590390  12.3314090  49.5103580  53.4395670  12.0378810
  50.7591850  53.4592130  15.4217980  51.0948090  54.0458820  16.0995900
  49.8392190  53.3284840  15.6515770  38.6125980  56.9712710   2.7165520
  38.9723620  57.5702050   2.0622790  38.4718320  57.5172600   3.4900550
  38.3095250  41.2487310  16.2041390  37.5953770  41.4484230  16.8094000
  38.7290290  40.4726880  16.5756190  52.4126200  50.8617790   3.6035220
  52.1247900  51.3230480   4.3913100  53.2078370  50.4015560   3.8719440
  38.5967840  55.2367570  17.1907920  38.7058960  54.2962310  17.0503310
  37.9448400  55.5022320  16.5421650  46.5880430  53.5083460  18.5906040
  46.2677300  52.7892700  19.1351730  45.9138790  54.1838530  18.6642100
  44.6294600  54.3543910   3.5339190  44.6204700  55.0873600   2.9183700
  43.7092960  54.1075490   3.6266150  40.2301240  49.5758800   4.2785950
  39.6229190  50.3157700   4.2881250  40.7050590  49.6658160   3.4524150
  49.8034030  43.7409620  13.9542840  50.1714850  42.9204830  14.2822410
  48.9432230  43.8011510  14.3698490  53.1696060  42.6966560   4.7630400
  52.5409220  42.8012230   4.0488630  52.6747980  42.9163340   5.5524280
  45.1380090  44.9752510   6.1788280  44.4296240  45.4438850   6.6201890
  45.4224570  44.3174520   6.8133470  46.7636020  46.3949210  14.1780810
  47.2621270  46.8695030  14.8432660  46.9058970  45.4712730  14.3850840
  49.1695520  41.7003170   7.6184070  49.0463300  41.7189300   6.6693580
  50.1180080  41.7482110   7.7382470  46.2572310  56.9358470   6.8912050
  46.5113810  56.8979860   5.9691420  45.3084790  56.8091800   6.8840300
  43.3415110  43.2837590   3.5538990  44.1905640  43.7207740   3.4879180
  42.9746380  43.5957850   4.3811050  53.9702880  42.6117170  15.0209200
  53.4676480  43.3522570  15.3603010  54.7859540  43.0001170  14.7045990
  52.2624890  47.8550350   8.4670560  51.3215030  47.8700580   8.6418250
  52.5768960  47.0686310   8.9130860  40.9353290  46.9695020   2.7107410
  41.0156880  46.0222530   2.8224810  41.8273040  47.3001900   2.8168070
  54.2650470  55.0259200  10.1424820  54.3897890  55.8490370  10.6148630
  55.1316030  54.8149930   9.7948970  41.7368000  57.1190410   9.8141950
  42.4730480  56.5705870  10.0850520  42.1208920  57.9846420   9.6747940
  38.6213480  53.1863980   5.6883460  37.6953260  53.4285120   5.6788870
  39.0869910  54.0138240   5.5668210  40.7426280  56.3036480  19.0027530
  41.5439010  56.6248530  19.4162930  40.2278100  55.9432060  19.7247440
  49.5790910  52.4116350  18.9502940  48.9729070  52.4347950  18.2098690
  49.2745020  51.6799390  19.4870190  51.0091280  56.1396640  17.5612350
  51.9613030  56.0554660  17.5112590  50.8619500  56.8038350  18.2346140
  53.9000480  55.5190850   3.0604260  53.6141990  55.1055990   2.2458440
  53.7020030  56.4478560   2.9404780  38.4624090  48.7909940  17.9463580
  38.9663110  48.2117220  18.5179810  37.7231510  49.0750170  18.4839950
  45.5162030  50.1980930  17.4799100  44.7507700  50.7665930  17.3953770
  45.6977990  49.9057140  16.5867330  48.6050440  50.5744160   2.1051860
  48.0560540  51.0213460   2.7494600  49.2269700  50.0693410   2.6289530
  52.6585380  51.9286260  18.0374120  53.3994850  52.2662020  17.5341580
  51.8958060  52.0978320  17.4843890  40.4947170  46.9339530  18.8413650
  40.5352510  46.6353400  19.7498880  41.3492670  47.3347140  18.6821170
  44.2725560  49.5335080   4.0017160  44.6941980  49.3674950   4.8448550
  44.3976400  48.7235310   3.5072300  42.4352980  45.5131630  16.8088140
  41.9049440  45.0222580  16.1811480  43.1041050  45.9415830  16.2746070
  51.3331040  49.9801090  16.5729330  51.7472060  50.1346170  17.4219750
  50.3982040  50.1056310  16.7355110  51.8053210  47.3197250  18.5768480
  52.3873980  46.5649570  18.4888960  51.9814980  47.8504690  17.7999960
  42.9225280  42.4794000  16.8885430  42.8282150  41.8614750  16.1636300
  42.3422670  43.2060290  16.6615340  45.6886720  41.0367240  13.9212820
  45.2404020  41.0591500  13.0758370  45.0551920  40.6386260  14.5183120
  46.0946270  49.9321570  14.5425260  46.5134380  50.7754300  14.3701500
  45.1754900  50.0693610  14.3132040  48.4310170  47.6637750  15.9263100
  48.5506380  47.0678890  16.6657940  49.2904170  47.7007440  15.5064400
  50.7698070  48.2174940  14.5025610  50.2433290  48.7417560  13.8990750
  51.1129410  48.8502330  15.1335340  43.9453690  56.2374580  15.6582990
  43.4074780  56.9620640  15.3391690  44.1987650  55.7604920  14.8680330
  45.1978940  44.2059100  17.1838920  45.7878630  43.8974950  17.8716740
  44.3799180  43.7338850  17.3398820  50.0172370  43.8224910  17.4171940
  49.3287890  43.1606450  17.3521930  50.7378390  43.3763180  17.8620400
  50.6472770  40.4176540   3.4762200  50.9275060  39.5744440   3.8321620
  49.8738500  40.6499650   3.9900950  46.8015900  57.4725790  15.9169640
  46.7274600  58.3760930  16.2242010  45.8994740  57.1537690  15.8891710
  47.3501230  56.6384300   3.5396000  48.2452020  56.9769270   3.5614760
  47.3818860  55.9163710   2.9120280  40.9897390  52.0111350   1.7683000
  41.4272260  52.5541020   2.4240580  41.4745120  51.1858300   1.7779340
  38.2043190  54.8000380   9.2203260  38.5346200  53.9321440   8.9881900
  38.6334190  55.0058900  10.0508220  42.8005110  53.1309390   6.8805230
  42.5000650  53.0074360   7.7809140  42.6942600  52.2717980   6.4720960
  38.6933400  55.6670970  11.9584890  38.2564390  55.8471770  12.7909040
  39.2611080  56.4245590  11.8166610  54.3295580  55.1687970  16.2462200
  53.7297570  55.2280530  15.5026120  54.4589480  54.2292950  16.3759050
  55.0253490  49.6553270   4.0866110  55.7872400  50.2249920   4.1925800
  55.0407860  49.0880470   4.8574420  38.5257830  48.1791200   8.3173770
  37.8706670  47.9102840   7.6733470  39.3635780  48.0695680   7.8675750
  56.0313460  50.5103370   8.9308040  56.4022290  49.7270690   8.5244010
  56.6715390  51.1992470   8.7525340  53.0147220  51.8939950  14.3438360
  52.2007060  52.3237110  14.6064150  53.4221420  52.5058360  13.7307410
  51.4748270  42.9732490   2.5392260  51.8933150  42.7863470   1.6988920
  51.1684330  42.1211540   2.8495190  54.9738000  47.8856630   6.2368060
  54.5981600  47.1184560   5.8049350  54.2441120  48.2679330   6.7242990
  39.5633760  48.5643770  12.8577110  39.9306800  48.4771170  13.7373130
  38.9944580  47.8010320  12.7583970  54.3637620  47.0328150  15.8707580
  54.1323710  46.8040900  14.9705530  54.6242170  47.9527700  15.8252470
  39.1149760  45.4752860  16.7635530  38.2205810  45.4419620  17.1029240
  39.6547310  45.6739650  17.5286780  52.8025690  42.2584580  18.6487280
  53.6795870  42.2667980  19.0321280  52.8146530  41.5215420  18.0379630
  37.7395910  45.3890130   4.2599100  36.8359990  45.6520330   4.0850760
  38.2236530  45.6601300   3.4799060  54.2488960  46.1114120   9.5375300
  54.7726440  45.6176770   8.9065470  54.8348380  46.2464480  10.2822870
  54.4278680  46.1953990  13.0594850  53.4781390  46.1617530  13.1739840
  54.6091690  47.1054100  12.8244620  53.7388930  45.3687470   5.4767710
  54.2348050  45.1358340   6.2616590  53.5405000  44.5299310   5.0605350
  39.6189470  39.7501190  11.1118750  40.2665660  39.1998570  10.6713910
  40.0391310  40.0044340  11.9334560  55.1676090  44.0048420   8.0105390
  55.0575370  43.8504460   8.9487660  55.9283680  43.4769360   7.7680800
  53.5141810  39.9442550  14.4688390  54.1514030  40.5576690  14.8347580
  53.6616700  39.9803210  13.5237620  56.1304850  42.6067000   3.8768240
  55.3356350  42.5412120   4.4061150  56.3348130  43.5417640   3.8653590
  53.0723270  56.6458550   7.8706630  53.6682340  56.3243120   7.1941050
  53.3301420  56.1730370   8.6619900  39.3721470  39.9056860  13.8544070
  39.0236290  40.3620680  14.6202250  39.0409170  39.0113990  13.9366500
  40.9785840  53.0776460  18.0197260  40.9355470  52.7069370  18.9011720
  41.1096850  54.0154030  18.1599080  44.6791870  54.6336050  13.6206980
  44.4383230  54.9010610  12.7337500  45.6194510  54.8041780  13.6757840
  46.8846290  41.0968740  17.3763490  46.8235180  41.6890570  18.1258900
  47.8246670  40.9894700  17.2313750  49.5220850  40.7538800  17.0155780
  50.1361260  41.0718090  16.3536860  50.0670410  40.2687390  17.6351640
  55.9396030  56.6530430  14.4217620  55.4454310  57.0499300  13.7044750
  55.3309320  56.0279640  14.8154900  40.0442110  39.4333060  17.1294840
  40.5925100  39.2521110  16.3660950  40.1097420  38.6427170  17.6651150
  40.8173870  56.0238710  15.1395040  40.2234190  55.8923410  15.8785080
  40.8097710  55.1876850  14.6737140  50.2628890  39.3170940  13.3425070
  49.3888730  39.6506050  13.1398000  50.1539640  38.8444120  14.1676940
  51.1700870  41.5241810  14.7266790  50.8414230  40.7093570  14.3468520
  52.1183170  41.4811620  14.6032480  53.6235480  57.2953850  11.7004360
  53.1638450  58.0469660  11.3262380  52.9947940  56.5760320  11.6419160
  40.4486100  53.3897090  14.0903080  39.7220160  52.7702380  14.0229030
  40.5095250  53.7837700  13.2201160  44.0531200  55.6042090  10.8752490
  44.5696220  54.9929450  10.3500750  44.7028580  56.1070870  11.3663500
  46.7926700  56.4950580  11.7021470  47.0804510  56.2404880  10.8254480
  47.3049920  55.9427940  12.2927040  48.0103710  40.2340780  12.2817980
  47.2275500  40.7086280  12.5614740  47.7166640  39.3295610  12.1731160
  52.5624780  40.9363880  10.3267070  53.0032870  40.8808980   9.4788670
  52.2932370  41.8521890  10.3977250  54.4263350  40.5679120   8.3375890
  54.3651750  39.6240340   8.1906910  55.2055380  40.6759210   8.8829350
  38.7316100  56.7071480   7.2999840  38.5638140  56.0742160   7.9981730
  37.8650610  56.9130880   6.9494030  39.3544120  40.5388260   4.8031700
  40.1123480  40.6517140   4.2295730  38.8921290  41.3757460   4.7575130
  45.8957930  42.6527530   7.7934010  45.0832440  42.2784420   7.4529890
  46.3999570  41.8972610   8.0955200  50.3982910  39.3169980   9.0317080
  51.0012280  39.8890190   9.5065600  49.6575900  39.8809420   8.8090980
  53.5417510  39.7191540   4.3057360  53.7368140  40.6174990   4.5724790
  52.7547380  39.4878620   4.7990310  40.3378800  55.4004710   4.7449980
  39.8126420  55.7812740   4.0411940  40.2623380  56.0255480   5.4659690
  41.7269270  41.0652310   3.3433670  42.2562030  40.2782110   3.2141620
  42.3597590  41.7443500   3.5769200  43.9207110  40.8027450   6.3979060
  43.2909850  40.1014760   6.5649190  43.3812250  41.5631580   6.1812220
  46.8599060  57.4166680  19.0689670  47.7866370  57.1810950  19.1125630
  46.8449490  58.2438680  18.5875700  55.0944120  56.9592250   6.0663920
  55.2696310  56.2729990   5.4224840  54.3965690  57.4839300   5.6740590
  44.0462670  40.0811430  18.8331550  43.7646940  40.5845030  18.0692370
  44.4282370  39.2833180  18.4673680  42.9371770  57.3487090   3.6199230
  43.6690590  57.0646370   3.0723120  43.1965440  57.1100370   4.5098610
  42.0986560  53.4651820   3.6245560  41.4695440  53.9336920   4.1731390
  42.2134390  52.6201040   4.0591750  50.6478130  39.4965010  19.4112020
  50.5343580  39.8159620  20.3063540  51.4647870  39.8977520  19.1149300
  53.4276620  56.6436540  18.8930710  54.2201940  56.1485770  18.6856670
  53.7209770  57.3226680  19.5006320  49.5536280  28.7413990 139.9694680
  49.4730330  27.8268600 139.6986390  49.1400700  29.2381060 139.2634390
  47.6854320  30.5193010 141.8503950  46.9096420  30.0393450 142.1402520
  48.3367250  29.8398660 141.6760110  41.7020150  30.8312820 142.7279710
  40.8705030  30.5761530 143.1276220  42.3101130  30.9023590 143.4637630
  51.7061750  34.9253200 140.6303080  51.2443280  34.1540440 140.9590250
  52.5187300  34.9519270 141.1355530  41.6821410  34.8652910 142.9237730
  41.9849450  33.9750650 142.7447950  42.4265000  35.4223130 142.6959980
  40.1112100  25.7914710 136.5122100  39.2228800  26.1330680 136.4101980
  40.3953290  25.5915030 135.6202930  38.0745110  28.3920360 142.3961800
  38.6461220  27.6242560 142.3965440  38.0746650  28.6909120 141.4868410
  47.9325060  37.2111210 140.2507070  47.3136500  37.6668710 139.6801510
  48.7876840  37.3662670 139.8496770  47.1263310  33.1950200 141.8574110
  47.0571590  32.2540140 141.6963240  47.8883170  33.2851610 142.4296680
  39.3169980  23.8004720 144.1830730  39.1372820  22.9030470 144.4633490
  38.9150060  24.3476590 144.8577680  48.1568480  26.0020580 142.0843040
  48.5333300  25.1292460 141.9716710  48.0587990  26.3379280 141.1933480
  42.2873490  24.3746210 137.5460480  42.3940240  25.2749940 137.8529240
  41.3765850  24.3264180 137.2555130  51.9392600  23.4971020 139.0171380
  52.7602220  23.0067590 139.0596860  51.9726680  24.0868680 139.7703220
  39.9356650  26.2965220 142.7913070  40.6166760  26.5603590 143.4100470
  39.6204700  25.4566090 143.1251080  44.1281220  27.3432580 141.8785660
  44.6359440  27.8413550 142.5190680  44.6594460  26.5667780 141.7025020
  56.2292150  25.5137770 145.5815010  55.5244320  25.9019480 145.0630120
  56.4950070  26.2088060 146.1835940  42.4117320  21.9831140 146.1449080
  42.4135760  22.5003530 145.3394980  41.5821630  21.5061320 146.1219010
  48.7988410  32.0950450 137.6438980  48.1805680  32.5599900 137.0801700
  49.3111660  32.7877930 138.0608490  43.6620170  31.6226320 144.3222580
  43.3289550  32.2495240 144.9643650  43.8386850  32.1488200 143.5424250
  52.1754080  25.4371400 141.7898920  51.4709650  25.7256290 142.3702030
  52.5366240  26.2471510 141.4298480  42.0932650  23.6941100 144.1519530
  42.4349460  24.5383150 143.8573400  41.1548460  23.8424840 144.2684870
  42.8739270  33.5907120 146.1371760  43.4913270  34.2658200 145.8556210
  42.0132390  33.9995100 146.0459260  38.1671610  32.7806980 135.0178610
  37.7899590  33.2694080 134.2863510  38.4244680  33.4532260 135.6485140
  53.7916860  35.0546530 144.0526400  53.1080380  35.7245640 144.0443070
  54.3311150  35.2527180 143.2871260  55.2441000  24.8826190 142.1808130
  54.2965910  24.9165170 142.3123560  55.5690990  25.6965140 142.5657490
  45.7760540  21.1823370 140.4764120  46.0835520  20.6270260 139.7599620
  44.8461240  21.3167830 140.2937110  51.3275600  36.8990660 142.7671580
  51.3402760  36.4952950 141.8993840  50.7750820  37.6737950 142.6633010
  52.6221020  33.6206880 137.8561750  52.5117350  32.6781210 137.9811170
  52.6189270  33.9822520 138.7424510  50.7261040  31.8020500 144.0954190
  51.1429830  31.5880610 143.2607650  51.4500860  32.0593290 144.6662810
  48.1641300  29.2472200 137.2124240  47.2370580  29.1809580 137.4412710
  48.3166120  30.1852330 137.0979480  48.1510380  25.5189200 134.2091400
  47.2114050  25.6803160 134.2943860  48.4693640  26.2374880 133.6627390
  54.6723140  30.2007720 144.1870430  53.8441770  30.2700810 143.7120560
  55.2673620  30.7862030 143.7186260  52.1938590  30.8092500 137.7159490
  51.5751010  30.4712050 137.0685790  52.1763040  30.1652260 138.4238680
  51.6365150  26.9877040 145.1325300  51.2236330  27.8130750 145.3865290
  50.9041100  26.4022080 144.9401660  43.7697940  29.7736940 139.9943970
  43.3654940  29.0614190 139.4989870  43.8561060  29.4290180 140.8832010
  44.2379640  33.4604500 142.1583180  43.9407930  32.8549970 141.4790960
  45.1879460  33.4981810 142.0472540  42.4826560  26.5480150 143.7743010
  43.0341150  26.6575490 142.9996260  42.9970070  26.9217750 144.4898240
  52.3265250  37.0336370 145.8206280  51.8495810  37.8408560 145.6278890
  51.6427040  36.3814700 145.9732490  43.3298070  33.1986190 148.8090980
  42.4326600  33.4226160 149.0564380  43.3550940  33.3221130 147.8602380
  50.3703290  30.0479310 134.7232240  50.8096570  29.2101740 134.5770060
  51.0831710  30.6808710 134.8096380  42.1569290  30.0699510 147.3848350
  42.0177060  30.9422310 147.7535750  41.2750650  29.7272320 147.2396290
  48.4798670  34.9875380 138.6913480  48.9194580  35.7299710 138.2768870
  48.4185560  35.2301950 139.6152440  43.9549640  36.0121210 149.5933500
  43.9265070  36.4164160 148.7261930  43.7914610  35.0831570 149.4305100
  53.9520430  21.3022120 133.0373280  53.6393090  21.3948950 133.9372350
  54.7132900  21.8803150 132.9870710  40.4702570  28.6681920 137.4950620
  40.3500170  29.3944010 136.8831890  40.1603460  27.8984830 137.0178530
  38.1087940  31.8397060 143.3019260  38.1868360  31.9745830 142.3574980
  38.7229620  31.1312950 143.4947380  39.3535570  33.5397250 139.7125440
  38.9463650  33.6811840 138.8579040  40.2448580  33.2557410 139.5096650
  55.3097710  33.9861160 148.0497680  55.4360770  33.7473040 147.1314860
  55.3519090  33.1545700 148.5219760  49.1714450  37.6889160 146.6192490
  49.6859120  37.5997170 147.4214920  48.3283530  38.0348860 146.9120400
  51.1468850  37.9744500 136.0476490  50.9869990  37.6847440 136.9458320
  50.9815560  37.1984630 135.5121720  43.6257230  37.7543030 137.8248110
  43.4499710  36.8378570 137.6115910  42.7712970  38.1130320 138.0645910
  50.8494980  35.4832060 134.6074490  50.1560140  35.4809350 133.9476770
  51.5917840  35.0591380 134.1768660  50.4144910  37.1094770 138.6822980
  50.8701860  36.3284150 138.9961600  50.7537430  37.8201590 139.2264160
  55.1621720  26.0393620 149.0147420  54.5465990  26.5473290 148.4862880
  54.8418140  25.1391950 148.9573360  38.1647460  32.8811230 145.8413720
  38.3278500  32.4116590 145.0233090  38.6299910  32.3734790 146.5062560
  42.9366230  22.0116990 140.8774290  42.4934380  22.7926530 140.5458810
  43.4951220  22.3346880 141.5845230  47.2236040  24.8785510 146.4809610
  46.7615410  25.0868530 147.2929550  46.8214150  24.0644860 146.1780280
  52.2240550  26.0994460 147.6106270  51.3734140  25.8000210 147.9315340
  52.0642340  26.3436470 146.6990090  49.3190260  27.5996210 149.7105060
  49.6443670  26.7659960 149.3707290  50.1070590  28.1224730 149.8583390
  46.0525050  21.6327690 135.7580120  45.4279230  21.6287560 136.4833430
  45.9655170  20.7658650 135.3616090  44.9742130  22.5564320 142.7363890
  45.2714460  23.4627150 142.6555910  45.5227690  22.0683100 142.1223460
  42.7280450  27.1350560 138.6055540  42.5021370  26.9187730 139.5102160
  41.9472980  27.5679020 138.2601510  49.9578210  27.1413930 137.2046190
  49.3587100  27.8649730 137.0209810  50.5057820  27.0790710 136.4222640
  45.1679660  28.0336140 149.2715810  45.0723260  27.0930870 149.1216210
  46.0111640  28.2551210 148.8763880  48.5643080  25.7777470 139.2349470
  48.9572650  26.0949670 138.4218160  48.9259930  24.8989350 139.3493990
  40.2990200  24.4449810 147.4249590  39.9053590  25.2925020 147.6322370
  39.6108600  23.8076180 147.6158230  37.6007250  22.3678270 141.4579670
  37.3120300  22.9381130 142.1704650  38.3453010  21.8882720 141.8210900
  37.7877480  26.3098390 132.6682390  37.7052150  27.2529150 132.8097380
  37.4360540  26.1673300 131.7894740  49.1498220  28.3683220 143.3300250
  48.4179340  28.8770030 143.6790350  48.7522560  27.5513200 143.0289030
  45.5875610  25.0437420 141.7352740  45.5911670  24.6027370 140.8857280
  46.4826730  25.3654750 141.8424560  41.4377990  24.9263910 140.6946950
  41.0978040  25.4039140 141.4514000  40.6755310  24.4729030 140.3348050
  45.6495760  26.0449500 134.7259500  45.7708580  26.0035980 135.6745320
  45.2644270  26.9073650 134.5706230  49.6124130  23.8216900 142.7423190
  49.6296870  24.2725550 143.5865040  49.3639710  22.9222540 142.9556630
  44.6617260  28.3550640 134.1242800  44.0934160  27.9068890 133.4978710
  45.3706260  28.7143420 133.5907950  53.0394880  21.2349080 148.5809570
  53.3640650  20.5038740 149.1067550  53.0751390  20.9162720 147.6790560
  39.7386440  32.2562660 148.0009530  39.3541230  31.6156330 148.5992490
  40.0498630  32.9598780 148.5704260  45.8883580  29.1039200 143.4818150
  46.2553710  28.6297770 144.2279490  45.6988640  29.9780770 143.8226490
  38.7524070  23.8482890 139.6111620  38.4670990  23.4838560 140.4490240
  38.6902930  23.1163350 138.9974760  43.6782950  28.1447840 145.8002360
  43.3740020  29.0239820 146.0252720  44.6329410  28.2047630 145.8359800
  42.2064740  32.3508830 136.3969210  41.4327000  31.8106450 136.2367930
  42.9359370  31.8315440 136.0586970  52.9652720  31.3474190 142.1895600
  53.6851840  31.8429480 141.7991710  52.7634540  30.6692080 141.5449470
  48.4262660  22.7412150 136.3324990  47.6127270  22.2425320 136.2570300
  48.2324610  23.5810400 135.9161340  48.3471520  31.4183250 148.0764600
  48.2808830  30.4978920 147.8222190  47.7176660  31.5158690 148.7909240
  51.1411050  27.1131800 134.6287150  52.0290670  27.4249030 134.4538490
  51.1116140  26.2404050 134.2367730  42.2502140  32.0189210 140.0348020
  42.7680810  31.2157470 139.9804910  41.7986160  31.9568350 140.8764850
  47.1371640  33.2855490 135.3075320  47.4787340  34.0297720 134.8118640
  46.3084350  33.5986610 135.6700150  39.7346680  28.9850580 146.9473720
  39.3761620  29.6504430 147.5347060  39.4401240  28.1534130 147.3186340
  42.9359800  29.4434820 149.8313270  42.6359940  29.5892000 148.9341090
  43.7071040  28.8840110 149.7386660  48.2788250  34.2403820 147.8268400
  48.2932790  33.3084780 147.6087310  47.5713350  34.3263580 148.4658170
  53.4125320  28.4243640 134.0967010  53.3289040  28.8557860 133.2463450
  54.1319510  28.8841990 134.5293830  54.4899460  30.8811160 147.1736980
  53.7647650  31.4739940 146.9766370  55.0174920  30.8734700 146.3750350
  54.4412570  35.2785900 136.8249140  53.7988730  34.6241520 137.0992860
  54.0543230  35.6840990 136.0489810  50.0199050  32.6071330 140.6720830
  50.3722870  32.0099460 140.0122200  49.1361380  32.2815560 140.8429080
  46.1062330  33.3669020 138.0791240  46.7933460  33.9138230 138.4598830
  45.3194750  33.9109750 138.1140850  38.2454730  28.9841840 133.5708320
  39.1149580  29.2666640 133.8544240  37.7545050  29.7977710 133.4557130
  45.4089540  30.3715050 137.6916600  45.8652320  31.1820300 137.9176790
  45.0577750  30.0538190 138.5235090  47.7122150  35.8821390 144.9208900
  48.3564370  36.0880770 145.5982320  48.0751590  35.1209790 144.4679750
  41.3101320  20.7152700 138.1639120  41.1815950  20.7070600 139.1124040
  40.4863340  21.0535790 137.8130130  48.9854230  33.8853740 143.6386350
  49.6276460  33.1846900 143.7518520  49.5103580  34.6652180 143.4583240
  52.8309950  34.1702360 133.3625490  52.6047530  33.4532800 133.9550130
  52.4406150  33.9214800 132.5247240  50.7591850  34.6848640 146.8422410
  51.0948090  35.2715330 147.5200330  49.8392190  34.5541350 147.0720200
  38.6125980  38.1969220 134.1369950  38.9723620  38.7958560 133.4827220
  38.4718320  38.7429110 134.9104980  38.3095250  22.4743820 147.6245820
  37.5953770  22.6740740 148.2298430  38.7290290  21.6983390 147.9960620
  52.4126200  32.0874300 135.0239650  52.1247900  32.5486990 135.8117530
  53.2078370  31.6272070 135.2923870  38.5967840  36.4624080 148.6112350
  38.7058960  35.5218820 148.4707740  37.9448400  36.7278830 147.9626080
  44.6294600  35.5800420 134.9543620  44.6204700  36.3130110 134.3388130
  43.7092960  35.3332000 135.0470580  40.2301240  30.8015310 135.6990380
  39.6229190  31.5414210 135.7085680  40.7050590  30.8914670 134.8728580
  49.8034030  24.9666130 145.3747270  50.1714850  24.1461340 145.7026840
  48.9432230  25.0268020 145.7902920  53.1696060  23.9223070 136.1834830
  52.5409220  24.0268740 135.4693060  52.6747980  24.1419850 136.9728710
  47.6154200  35.6428660 133.6168810  47.7166180  35.4392650 132.6870790
  46.7155940  35.3886940 133.8216590  45.1380090  26.2009020 137.5992710
  44.4296240  26.6695360 138.0406320  45.4224570  25.5431030 138.2337900
  46.7636020  27.6205720 145.5985240  47.2621270  28.0951540 146.2637090
  46.9058970  26.6969240 145.8055270  49.1695520  22.9259680 139.0388500
  49.0463300  22.9445810 138.0898010  50.1180080  22.9738620 139.1586900
  46.2572310  38.1614980 138.3116480  46.5113810  38.1236370 137.3895850
  45.3084790  38.0348310 138.3044730  43.3415110  24.5094100 134.9743420
  44.1905640  24.9464250 134.9083610  42.9746380  24.8214360 135.8015480
  53.9702880  23.8373680 146.4413630  53.4676480  24.5779080 146.7807440
  54.7859540  24.2257680 146.1250420  52.2624890  29.0806860 139.8874990
  51.3215030  29.0957090 140.0622680  52.5768960  28.2942820 140.3335290
  42.2406530  30.7626460 133.4478950  43.0069800  30.6507820 134.0104380
  42.3181220  30.0664430 132.7955720  40.9353290  28.1951530 134.1311840
  41.0156880  27.2479040 134.2429240  41.8273040  28.5258410 134.2372500
  54.2650470  36.2515710 141.5629250  54.3897890  37.0746880 142.0353060
  55.1316030  36.0406440 141.2153400  41.7368000  38.3446920 141.2346380
  42.4730480  37.7962380 141.5054950  42.1208920  39.2102930 141.0952370
  38.6213480  34.4120490 137.1087890  37.6953260  34.6541630 137.0993300
  39.0869910  35.2394750 136.9872640  44.8470310  37.5177230 133.0571950
  45.6398920  37.8066060 132.6053740  44.3274660  37.0869400 132.3784430
  51.0091280  37.3653150 148.9816780  51.9613030  37.2811170 148.9317020
  50.8619500  38.0294860 149.6550570  53.9000480  36.7447360 134.4808690
  53.6141990  36.3312500 133.6662870  53.7020030  37.6735070 134.3609210
  38.4624090  30.0166450 149.3668010  38.9663110  29.4373730 149.9384240
  37.7231510  30.3006680 149.9044380  45.3647710  32.7380640 132.9214300
  45.2598350  32.1232990 133.6475680  45.1971930  32.2146530 132.1377310
  45.5162030  31.4237440 148.9003530  44.7507700  31.9922440 148.8158200
  45.6977990  31.1313650 148.0071760  48.6050440  31.8000670 133.5256290
  48.0560540  32.2469970 134.1699030  49.2269700  31.2949920 134.0493960
  52.6585380  33.1542770 149.4578550  53.3994850  33.4918530 148.9546010
  51.8958060  33.3234830 148.9048320  44.2725560  30.7591590 135.4221590
  44.6941980  30.5931460 136.2652980  44.3976400  29.9491820 134.9276730
  42.4352980  26.7388140 148.2292570  41.9049440  26.2479090 147.6015910
  43.1041050  27.1672340 147.6950500  46.7853200  29.7829200 132.6698690
  47.3058860  29.0678220 132.3039840  47.4321600  30.4215070 132.9699200
  51.3331040  31.2057600 147.9933760  51.7472060  31.3602680 148.8424180
  50.3982040  31.3312820 148.1559540  51.8053210  28.5453760 149.9972910
  52.3873980  27.7906080 149.9093390  51.9814980  29.0761200 149.2204390
  42.9225280  23.7050510 148.3089860  42.8282150  23.0871260 147.5840730
  42.3422670  24.4316800 148.0819770  45.6886720  22.2623750 145.3417250
  45.2404020  22.2848010 144.4962800  45.0551920  21.8642770 145.9387550
  46.0946270  31.1578080 145.9629690  46.5134380  32.0010810 145.7905930
  45.1754900  31.2950120 145.7336470  48.4310170  28.8894260 147.3467530
  48.5506380  28.2935400 148.0862370  49.2904170  28.9263950 146.9268830
  50.7698070  29.4431450 145.9230040  50.2433290  29.9674070 145.3195180
  51.1129410  30.0758840 146.5539770  43.1684460  26.8324820 132.3679750
  42.9673520  25.9692180 132.7293090  42.9976510  26.7458180 131.4301350
  43.9453690  37.4631090 147.0787420  43.4074780  38.1877150 146.7596120
  44.1987650  36.9861430 146.2884760  45.1978940  25.4315610 148.6043350
  45.7878630  25.1231460 149.2921170  44.3799180  24.9595360 148.7603250
  50.0172370  25.0481420 148.8376370  49.3287890  24.3862960 148.7726360
  50.7378390  24.6019690 149.2824830  50.6472770  21.6433050 134.8966630
  50.9275060  20.8000950 135.2526050  49.8738500  21.8756160 135.4105380
  41.9667260  23.9325440 132.3557630  42.2693160  23.9392870 131.4476780
  42.7061850  23.5823300 132.8525290  46.8015900  38.6982300 147.3374070
  46.7274600  39.6017440 147.6446440  45.8994740  38.3794200 147.3096140
  45.1852190  22.8760060 133.3413830  44.8374190  22.1984050 132.7616280
  45.3864960  22.4149570 134.1557220  47.3501230  37.8640810 134.9600430
  48.2452020  38.2025780 134.9819190  47.3818860  37.1420220 134.3324710
  40.9897390  33.2367860 133.1887430  41.4272260  33.7797530 133.8445010
  41.4745120  32.4114810 133.1983770  38.2043190  36.0256890 140.6407690
  38.5346200  35.1577950 140.4086330  38.6334190  36.2315410 141.4712650
  42.8005110  34.3565900 138.3009660  42.5000650  34.2330870 139.2013570
  42.6942600  33.4974490 137.8925390  38.6933400  36.8927480 143.3789320
  38.2564390  37.0728280 144.2113470  39.2611080  37.6502100 143.2371040
  54.3295580  36.3944480 147.6666630  53.7297570  36.4537040 146.9230550
  54.4589480  35.4549460 147.7963480  55.5697030  34.1362300 133.0036340
  54.7389990  34.2038950 133.4743570  55.7468860  35.0266420 132.7003200
  55.0253490  30.8809780 135.5070540  55.7872400  31.4506430 135.6130230
  55.0407860  30.3136980 136.2778850  38.5257830  29.4047710 139.7378200
  37.8706670  29.1359350 139.0937900  39.3635780  29.2952190 139.2880180
  56.0313460  31.7359880 140.3512470  56.4022290  30.9527200 139.9448440
  56.6715390  32.4248980 140.1729770  53.0147220  33.1196460 145.7642790
  52.2007060  33.5493620 146.0268580  53.4221420  33.7314870 145.1511840
  55.0772660  31.1744150 132.6643060  55.3521500  32.0823030 132.5362280
  54.8883400  31.1106680 133.6005050  51.4748270  24.1989000 133.9596690
  51.8933150  24.0119980 133.1193350  51.1684330  23.3468050 134.2699620
  54.9738000  29.1113140 137.6572490  54.5981600  28.3441070 137.2253780
  54.2441120  29.4935840 138.1447420  39.5633760  29.7900280 144.2781540
  39.9306800  29.7027680 145.1577560  38.9944580  29.0266830 144.1788400
  54.3637620  28.2584660 147.2912010  54.1323710  28.0297410 146.3909960
  54.6242170  29.1784210 147.2456900  39.1149760  26.7009370 148.1839960
  38.2205810  26.6676130 148.5233670  39.6547310  26.8996160 148.9491210
  37.7395910  26.6146640 135.6803530  36.8359990  26.8776840 135.5055190
  38.2236530  26.8857810 134.9003490  54.2488960  27.3370630 140.9579730
  54.7726440  26.8433280 140.3269900  54.8348380  27.4720990 141.7027300
  54.4278680  27.4210500 144.4799280  53.4781390  27.3874040 144.5944270
  54.6091690  28.3310610 144.2449050  40.2823120  25.6712180 133.5897910
  40.9914820  25.2495400 133.1045190  39.5663060  25.7387410 132.9581260
  39.9297280  21.7251510 132.6300560  40.6525410  22.2660450 132.9481780
  40.2021800  21.4514930 131.7542100  53.7388930  26.5943980 136.8972140
  54.2348050  26.3614850 137.6821020  53.5405000  25.7555820 136.4809780
  39.6189470  20.9757700 142.5323180  40.2665660  20.4255080 142.0918340
  40.0391310  21.2300850 143.3538990  55.1676090  25.2304930 139.4309820
  55.0575370  25.0760970 140.3692090  55.9283680  24.7025870 139.1885230
  53.5141810  21.1699060 145.8892820  54.1514030  21.7833200 146.2552010
  53.6616700  21.2059720 144.9442050  56.0566360  23.0612850 132.6715960
  56.9815670  22.9294030 132.4634250  56.0342150  23.1405670 133.6252410
  56.1304850  23.8323510 135.2972670  55.3356350  23.7668630 135.8265580
  56.3348130  24.7674150 135.2858020  53.0723270  37.8715060 139.2911060
  53.6682340  37.5499630 138.6145480  53.3301420  37.3986880 140.0824330
  39.3721470  21.1313370 145.2748500  39.0236290  21.5877190 146.0406680
  39.0409170  20.2370500 145.3570930  44.6791870  35.8592560 145.0411410
  44.4383230  36.1267120 144.1541930  45.6194510  36.0298290 145.0962270
  46.8846290  22.3225250 148.7967920  46.8235180  22.9147080 149.5463330
  47.8246670  22.2151210 148.6518180  49.5220850  21.9795310 148.4360210
  50.1361260  22.2974600 147.7741290  50.0670410  21.4943900 149.0556070
  55.9396030  37.8786940 145.8422050  55.4454310  38.2755810 145.1249180
  55.3309320  37.2536150 146.2359330  40.0442110  20.6589570 148.5499270
  40.5925100  20.4777620 147.7865380  40.1097420  19.8683680 149.0855580
  40.8173870  37.2495220 146.5599470  40.2234190  37.1179920 147.2989510
  40.8097710  36.4133360 146.0941570  50.2628890  20.5427450 144.7629500
  49.3888730  20.8762560 144.5602430  50.1539640  20.0700630 145.5881370
  51.1700870  22.7498320 146.1471220  50.8414230  21.9350080 145.7672950
  52.1183170  22.7068130 146.0236910  53.6235480  38.5210360 143.1208790
  53.1638450  39.2726170 142.7466810  52.9947940  37.8016830 143.0623590
  40.4486100  34.6153600 145.5107510  39.7220160  33.9958890 145.4433460
  40.5095250  35.0094210 144.6405590  44.0531200  36.8298600 142.2956920
  44.5696220  36.2185960 141.7705180  44.7028580  37.3327380 142.7867930
  46.7926700  37.7207090 143.1225900  47.0804510  37.4661390 142.2458910
  47.3049920  37.1684450 143.7131470  48.0103710  21.4597290 143.7022410
  47.2275500  21.9342790 143.9819170  47.7166640  20.5552120 143.5935590
  52.5624780  22.1620390 141.7471500  53.0032870  22.1065490 140.8993100
  52.2932370  23.0778400 141.8181680  54.4263350  21.7935630 139.7580320
  54.3651750  20.8496850 139.6111340  55.2055380  21.9015720 140.3033780
  38.7316100  37.9327990 138.7204270  38.5638140  37.2998670 139.4186160
  37.8650610  38.1387390 138.3698460  39.3544120  21.7644770 136.2236130
  40.1123480  21.8773650 135.6500160  38.8921290  22.6013970 136.1779560
  45.8957930  23.8784040 139.2138440  45.0832440  23.5040930 138.8734320
  46.3999570  23.1229120 139.5159630  50.3982910  20.5426490 140.4521510
  51.0012280  21.1146700 140.9270030  49.6575900  21.1065930 140.2295410
  53.5417510  20.9448050 135.7261790  53.7368140  21.8431500 135.9929220
  52.7547380  20.7135130 136.2194740  40.3378800  36.6261220 136.1654410
  39.8126420  37.0069250 135.4616370  40.2623380  37.2511990 136.8864120
  41.7269270  22.2908820 134.7638100  42.2562030  21.5038620 134.6346050
  42.3597590  22.9700010 134.9973630  43.9207110  22.0283960 137.8183490
  43.2909850  21.3271270 137.9853620  43.3812250  22.7888090 137.6016650
  55.0944120  38.1848760 137.4868350  55.2696310  37.4986500 136.8429270
  54.3965690  38.7095810 137.0945020  42.9371770  38.5743600 135.0403660
  43.6690590  38.2902880 134.4927550  43.1965440  38.3356880 135.9303040
  42.0986560  34.6908330 135.0449990  41.4695440  35.1593430 135.5935820
  42.2134390  33.8457550 135.4796180  49.5536280  28.7413990 121.1951190
  49.4730330  27.8268600 120.9242900  49.1400700  29.2381060 120.4890900
  47.6854320  30.5193010 123.0760460  46.9096420  30.0393450 123.3659030
  48.3367250  29.8398660 122.9016620  41.7020150  30.8312820 123.9536220
  40.8705030  30.5761530 124.3532730  42.3101130  30.9023590 124.6894140
  51.7061750  34.9253200 121.8559590  51.2443280  34.1540440 122.1846760
  52.5187300  34.9519270 122.3612040  41.6821410  34.8652910 124.1494240
  41.9849450  33.9750650 123.9704460  42.4265000  35.4223130 123.9216490
  40.1112100  25.7914710 117.7378610  39.2228800  26.1330680 117.6358490
  40.3953290  25.5915030 116.8459440  38.0745110  28.3920360 123.6218310
  38.6461220  27.6242560 123.6221950  38.0746650  28.6909120 122.7124920
  47.9325060  37.2111210 121.4763580  47.3136500  37.6668710 120.9058020
  48.7876840  37.3662670 121.0753280  47.1263310  33.1950200 123.0830620
  47.0571590  32.2540140 122.9219750  47.8883170  33.2851610 123.6553190
  39.3169980  23.8004720 125.4087240  39.1372820  22.9030470 125.6890000
  38.9150060  24.3476590 126.0834190  48.1568480  26.0020580 123.3099550
  48.5333300  25.1292460 123.1973220  48.0587990  26.3379280 122.4189990
  42.2873490  24.3746210 118.7716990  42.3940240  25.2749940 119.0785750
  41.3765850  24.3264180 118.4811640  51.9392600  23.4971020 120.2427890
  52.7602220  23.0067590 120.2853370  51.9726680  24.0868680 120.9959730
  39.9356650  26.2965220 124.0169580  40.6166760  26.5603590 124.6356980
  39.6204700  25.4566090 124.3507590  44.1281220  27.3432580 123.1042170
  44.6359440  27.8413550 123.7447190  44.6594460  26.5667780 122.9281530
  56.2292150  25.5137770 126.8071520  55.5244320  25.9019480 126.2886630
  56.4950070  26.2088060 127.4092450  42.4117320  21.9831140 127.3705590
  42.4135760  22.5003530 126.5651490  41.5821630  21.5061320 127.3475520
  48.7988410  32.0950450 118.8695490  48.1805680  32.5599900 118.3058210
  49.3111660  32.7877930 119.2865000  43.6620170  31.6226320 125.5479090
  43.3289550  32.2495240 126.1900160  43.8386850  32.1488200 124.7680760
  52.1754080  25.4371400 123.0155430  51.4709650  25.7256290 123.5958540
  52.5366240  26.2471510 122.6554990  42.0932650  23.6941100 125.3776040
  42.4349460  24.5383150 125.0829910  41.1548460  23.8424840 125.4941380
  42.8739270  33.5907120 127.3628270  43.4913270  34.2658200 127.0812720
  42.0132390  33.9995100 127.2715770  38.1671610  32.7806980 116.2435120
  37.7899590  33.2694080 115.5120020  38.4244680  33.4532260 116.8741650
  53.7916860  35.0546530 125.2782910  53.1080380  35.7245640 125.2699580
  54.3311150  35.2527180 124.5127770  55.2441000  24.8826190 123.4064640
  54.2965910  24.9165170 123.5380070  55.5690990  25.6965140 123.7914000
  45.7760540  21.1823370 121.7020630  46.0835520  20.6270260 120.9856130
  44.8461240  21.3167830 121.5193620  51.3275600  36.8990660 123.9928090
  51.3402760  36.4952950 123.1250350  50.7750820  37.6737950 123.8889520
  52.6221020  33.6206880 119.0818260  52.5117350  32.6781210 119.2067680
  52.6189270  33.9822520 119.9681020  50.7261040  31.8020500 125.3210700
  51.1429830  31.5880610 124.4864160  51.4500860  32.0593290 125.8919320
  48.1641300  29.2472200 118.4380750  47.2370580  29.1809580 118.6669220
  48.3166120  30.1852330 118.3235990  48.1510380  25.5189200 115.4347910
  47.2114050  25.6803160 115.5200370  48.4693640  26.2374880 114.8883900
  54.6723140  30.2007720 125.4126940  53.8441770  30.2700810 124.9377070
  55.2673620  30.7862030 124.9442770  52.1938590  30.8092500 118.9416000
  51.5751010  30.4712050 118.2942300  52.1763040  30.1652260 119.6495190
  51.6365150  26.9877040 126.3581810  51.2236330  27.8130750 126.6121800
  50.9041100  26.4022080 126.1658170  43.7697940  29.7736940 121.2200480
  43.3654940  29.0614190 120.7246380  43.8561060  29.4290180 122.1088520
  44.2379640  33.4604500 123.3839690  43.9407930  32.8549970 122.7047470
  45.1879460  33.4981810 123.2729050  42.4826560  26.5480150 124.9999520
  43.0341150  26.6575490 124.2252770  42.9970070  26.9217750 125.7154750
  52.3265250  37.0336370 127.0462790  51.8495810  37.8408560 126.8535400
  51.6427040  36.3814700 127.1989000  43.3298070  33.1986190 130.0347490
  42.4326600  33.4226160 130.2820890  43.3550940  33.3221130 129.0858890
  50.3703290  30.0479310 115.9488750  50.8096570  29.2101740 115.8026570
  51.0831710  30.6808710 116.0352890  42.1569290  30.0699510 128.6104860
  42.0177060  30.9422310 128.9792260  41.2750650  29.7272320 128.4652800
  48.4798670  34.9875380 119.9169990  48.9194580  35.7299710 119.5025380
  48.4185560  35.2301950 120.8408950  43.9549640  36.0121210 130.8190010
  43.9265070  36.4164160 129.9518440  43.7914610  35.0831570 130.6561610
  53.9520430  21.3022120 114.2629790  53.6393090  21.3948950 115.1628860
  54.7132900  21.8803150 114.2127220  40.4702570  28.6681920 118.7207130
  40.3500170  29.3944010 118.1088400  40.1603460  27.8984830 118.2435040
  55.9064460  36.7948310 132.1154180  56.3824180  37.2731200 132.7943260
  56.5271620  36.7265800 131.3899680  38.1087940  31.8397060 124.5275770
  38.1868360  31.9745830 123.5831490  38.7229620  31.1312950 124.7203890
  39.3535570  33.5397250 120.9381950  38.9463650  33.6811840 120.0835550
  40.2448580  33.2557410 120.7353160  55.3097710  33.9861160 129.2754190
  55.4360770  33.7473040 128.3571370  55.3519090  33.1545700 129.7476270
  49.1714450  37.6889160 127.8449000  49.6859120  37.5997170 128.6471430
  48.3283530  38.0348860 128.1376910  51.1468850  37.9744500 117.2733000
  50.9869990  37.6847440 118.1714830  50.9815560  37.1984630 116.7378230
  43.6257230  37.7543030 119.0504620  43.4499710  36.8378570 118.8372420
  42.7712970  38.1130320 119.2902420  50.8494980  35.4832060 115.8331000
  50.1560140  35.4809350 115.1733280  51.5917840  35.0591380 115.4025170
  50.4144910  37.1094770 119.9079490  50.8701860  36.3284150 120.2218110
  50.7537430  37.8201590 120.4520670  55.1621720  26.0393620 130.2403930
  54.5465990  26.5473290 129.7119390  54.8418140  25.1391950 130.1829870
  38.1647460  32.8811230 127.0670230  38.3278500  32.4116590 126.2489600
  38.6299910  32.3734790 127.7319070  42.9366230  22.0116990 122.1030800
  42.4934380  22.7926530 121.7715320  43.4951220  22.3346880 122.8101740
  47.2236040  24.8785510 127.7066120  46.7615410  25.0868530 128.5186060
  46.8214150  24.0644860 127.4036790  52.2240550  26.0994460 128.8362780
  51.3734140  25.8000210 129.1571850  52.0642340  26.3436470 127.9246600
  49.3190260  27.5996210 130.9361570  49.6443670  26.7659960 130.5963800
  50.1070590  28.1224730 131.0839900  46.0525050  21.6327690 116.9836630
  45.4279230  21.6287560 117.7089940  45.9655170  20.7658650 116.5872600
  44.9742130  22.5564320 123.9620400  45.2714460  23.4627150 123.8812420
  45.5227690  22.0683100 123.3479970  42.7280450  27.1350560 119.8312050
  42.5021370  26.9187730 120.7358670  41.9472980  27.5679020 119.4858020
  49.9578210  27.1413930 118.4302700  49.3587100  27.8649730 118.2466320
  50.5057820  27.0790710 117.6479150  45.1679660  28.0336140 130.4972320
  45.0723260  27.0930870 130.3472720  46.0111640  28.2551210 130.1020390
  48.5643080  25.7777470 120.4605980  48.9572650  26.0949670 119.6474670
  48.9259930  24.8989350 120.5750500  40.2990200  24.4449810 128.6506100
  39.9053590  25.2925020 128.8578880  39.6108600  23.8076180 128.8414740
  46.8735250  24.5284780 131.7202840  46.1833570  24.3356980 132.3548930
  47.6167550  24.8119420 132.2527140  37.6007250  22.3678270 122.6836180
  37.3120300  22.9381130 123.3961160  38.3453010  21.8882720 123.0467410
  37.7877480  26.3098390 113.8938900  37.7052150  27.2529150 114.0353890
  37.4360540  26.1673300 113.0151250  49.1498220  28.3683220 124.5556760
  48.4179340  28.8770030 124.9046860  48.7522560  27.5513200 124.2545540
  45.5875610  25.0437420 122.9609250  45.5911670  24.6027370 122.1113790
  46.4826730  25.3654750 123.0681070  41.4377990  24.9263910 121.9203460
  41.0978040  25.4039140 122.6770510  40.6755310  24.4729030 121.5604560
  45.6495760  26.0449500 115.9516010  45.7708580  26.0035980 116.9001830
  45.2644270  26.9073650 115.7962740  49.6124130  23.8216900 123.9679700
  49.6296870  24.2725550 124.8121550  49.3639710  22.9222540 124.1813140
  44.6617260  28.3550640 115.3499310  44.0934160  27.9068890 114.7235220
  45.3706260  28.7143420 114.8164460  53.0394880  21.2349080 129.8066080
  53.3640650  20.5038740 130.3324060  53.0751390  20.9162720 128.9047070
  39.7386440  32.2562660 129.2266040  39.3541230  31.6156330 129.8249000
  40.0498630  32.9598780 129.7960770  45.8883580  29.1039200 124.7074660
  46.2553710  28.6297770 125.4536000  45.6988640  29.9780770 125.0483000
  38.7524070  23.8482890 120.8368130  38.4670990  23.4838560 121.6746750
  38.6902930  23.1163350 120.2231270  43.6782950  28.1447840 127.0258870
  43.3740020  29.0239820 127.2509230  44.6329410  28.2047630 127.0616310
  42.2064740  32.3508830 117.6225720  41.4327000  31.8106450 117.4624440
  42.9359370  31.8315440 117.2843480  52.9652720  31.3474190 123.4152110
  53.6851840  31.8429480 123.0248220  52.7634540  30.6692080 122.7705980
  48.4262660  22.7412150 117.5581500  47.6127270  22.2425320 117.4826810
  48.2324610  23.5810400 117.1417850  48.3471520  31.4183250 129.3021110
  48.2808830  30.4978920 129.0478700  47.7176660  31.5158690 130.0165750
  51.1411050  27.1131800 115.8543660  52.0290670  27.4249030 115.6795000
  51.1116140  26.2404050 115.4624240  42.2502140  32.0189210 121.2604530
  42.7680810  31.2157470 121.2061420  41.7986160  31.9568350 122.1021360
  47.1371640  33.2855490 116.5331830  47.4787340  34.0297720 116.0375150
  46.3084350  33.5986610 116.8956660  39.7346680  28.9850580 128.1730230
  39.3761620  29.6504430 128.7603570  39.4401240  28.1534130 128.5442850
  42.9359800  29.4434820 131.0569780  42.6359940  29.5892000 130.1597600
  43.7071040  28.8840110 130.9643170  48.2788250  34.2403820 129.0524910
  48.2932790  33.3084780 128.8343820  47.5713350  34.3263580 129.6914680
  53.4125320  28.4243640 115.3223520  53.3289040  28.8557860 114.4719960
  54.1319510  28.8841990 115.7550340  54.4899460  30.8811160 128.3993490
  53.7647650  31.4739940 128.2022880  55.0174920  30.8734700 127.6006860
  54.4412570  35.2785900 118.0505650  53.7988730  34.6241520 118.3249370
  54.0543230  35.6840990 117.2746320  50.0199050  32.6071330 121.8977340
  50.3722870  32.0099460 121.2378710  49.1361380  32.2815560 122.0685590
  46.1062330  33.3669020 119.3047750  46.7933460  33.9138230 119.6855340
  45.3194750  33.9109750 119.3397360  38.2454730  28.9841840 114.7964830
  39.1149580  29.2666640 115.0800750  37.7545050  29.7977710 114.6813640
  45.4089540  30.3715050 118.9173110  45.8652320  31.1820300 119.1433300
  45.0577750  30.0538190 119.7491600  47.7122150  35.8821390 126.1465410
  48.3564370  36.0880770 126.8238830  48.0751590  35.1209790 125.6936260
  41.3101320  20.7152700 119.3895630  41.1815950  20.7070600 120.3380550
  40.4863340  21.0535790 119.0386640  48.9854230  33.8853740 124.8642860
  49.6276460  33.1846900 124.9775030  49.5103580  34.6652180 124.6839750
  52.8309950  34.1702360 114.5882000  52.6047530  33.4532800 115.1806640
  52.4406150  33.9214800 113.7503750  50.7591850  34.6848640 128.0678920
  51.0948090  35.2715330 128.7456840  49.8392190  34.5541350 128.2976710
  38.6125980  38.1969220 115.3626460  38.9723620  38.7958560 114.7083730
  38.4718320  38.7429110 116.1361490  38.3095250  22.4743820 128.8502330
  37.5953770  22.6740740 129.4554940  38.7290290  21.6983390 129.2217130
  52.4126200  32.0874300 116.2496160  52.1247900  32.5486990 117.0374040
  53.2078370  31.6272070 116.5180380  38.5967840  36.4624080 129.8368860
  38.7058960  35.5218820 129.6964250  37.9448400  36.7278830 129.1882590
  46.5880430  34.7339970 131.2366980  46.2677300  34.0149210 131.7812670
  45.9138790  35.4095040 131.3103040  44.6294600  35.5800420 116.1800130
  44.6204700  36.3130110 115.5644640  43.7092960  35.3332000 116.2727090
  40.2301240  30.8015310 116.9246890  39.6229190  31.5414210 116.9342190
  40.7050590  30.8914670 116.0985090  49.8034030  24.9666130 126.6003780
  50.1714850  24.1461340 126.9283350  48.9432230  25.0268020 127.0159430
  53.1696060  23.9223070 117.4091340  52.5409220  24.0268740 116.6949570
  52.6747980  24.1419850 118.1985220  47.6154200  35.6428660 114.8425320
  47.7166180  35.4392650 113.9127300  46.7155940  35.3886940 115.0473100
  45.1380090  26.2009020 118.8249220  44.4296240  26.6695360 119.2662830
  45.4224570  25.5431030 119.4594410  46.7636020  27.6205720 126.8241750
  47.2621270  28.0951540 127.4893600  46.9058970  26.6969240 127.0311780
  49.1695520  22.9259680 120.2645010  49.0463300  22.9445810 119.3154520
  50.1180080  22.9738620 120.3843410  46.2572310  38.1614980 119.5372990
  46.5113810  38.1236370 118.6152360  45.3084790  38.0348310 119.5301240
  43.3415110  24.5094100 116.1999930  44.1905640  24.9464250 116.1340120
  42.9746380  24.8214360 117.0271990  53.9702880  23.8373680 127.6670140
  53.4676480  24.5779080 128.0063950  54.7859540  24.2257680 127.3506930
  52.2624890  29.0806860 121.1131500  51.3215030  29.0957090 121.2879190
  52.5768960  28.2942820 121.5591800  42.2406530  30.7626460 114.6735460
  43.0069800  30.6507820 115.2360890  42.3181220  30.0664430 114.0212230
  40.9353290  28.1951530 115.3568350  41.0156880  27.2479040 115.4685750
  41.8273040  28.5258410 115.4629010  54.2650470  36.2515710 122.7885760
  54.3897890  37.0746880 123.2609570  55.1316030  36.0406440 122.4409910
  41.7368000  38.3446920 122.4602890  42.4730480  37.7962380 122.7311460
  42.1208920  39.2102930 122.3208880  38.6213480  34.4120490 118.3344400
  37.6953260  34.6541630 118.3249810  39.0869910  35.2394750 118.2129150
  40.7426280  37.5292990 131.6488470  41.5439010  37.8505040 132.0623870
  40.2278100  37.1688570 132.3708380  44.8470310  37.5177230 114.2828460
  45.6398920  37.8066060 113.8310250  44.3274660  37.0869400 113.6040940
  49.5790910  33.6372860 131.5963880  48.9729070  33.6604460 130.8559630
  49.2745020  32.9055900 132.1331130  51.0091280  37.3653150 130.2073290
  51.9613030  37.2811170 130.1573530  50.8619500  38.0294860 130.8807080
  53.9000480  36.7447360 115.7065200  53.6141990  36.3312500 114.8919380
  53.7020030  37.6735070 115.5865720  38.4624090  30.0166450 130.5924520
  38.9663110  29.4373730 131.1640750  37.7231510  30.3006680 131.1300890
  45.3647710  32.7380640 114.1470810  45.2598350  32.1232990 114.8732190
  45.1971930  32.2146530 113.3633820  45.5162030  31.4237440 130.1260040
  44.7507700  31.9922440 130.0414710  45.6977990  31.1313650 129.2328270
  48.6050440  31.8000670 114.7512800  48.0560540  32.2469970 115.3955540
  49.2269700  31.2949920 115.2750470  52.6585380  33.1542770 130.6835060
  53.3994850  33.4918530 130.1802520  51.8958060  33.3234830 130.1304830
  40.4947170  28.1596040 131.4874590  40.5352510  27.8609910 132.3959820
  41.3492670  28.5603650 131.3282110  44.2725560  30.7591590 116.6478100
  44.6941980  30.5931460 117.4909490  44.3976400  29.9491820 116.1533240
  42.4352980  26.7388140 129.4549080  41.9049440  26.2479090 128.8272420
  43.1041050  27.1672340 128.9207010  46.7853200  29.7829200 113.8955200
  47.3058860  29.0678220 113.5296350  47.4321600  30.4215070 114.1955710
  51.3331040  31.2057600 129.2190270  51.7472060  31.3602680 130.0680690
  50.3982040  31.3312820 129.3816050  51.8053210  28.5453760 131.2229420
  52.3873980  27.7906080 131.1349900  51.9814980  29.0761200 130.4460900
  42.9225280  23.7050510 129.5346370  42.8282150  23.0871260 128.8097240
  42.3422670  24.4316800 129.3076280  45.6886720  22.2623750 126.5673760
  45.2404020  22.2848010 125.7219310  45.0551920  21.8642770 127.1644060
  46.0946270  31.1578080 127.1886200  46.5134380  32.0010810 127.0162440
  45.1754900  31.2950120 126.9592980  48.4310170  28.8894260 128.5724040
  48.5506380  28.2935400 129.3118880  49.2904170  28.9263950 128.1525340
  50.7698070  29.4431450 127.1486550  50.2433290  29.9674070 126.5451690
  51.1129410  30.0758840 127.7796280  43.1684460  26.8324820 113.5936260
  42.9673520  25.9692180 113.9549600  42.9976510  26.7458180 112.6557860
  43.9453690  37.4631090 128.3043930  43.4074780  38.1877150 127.9852630
  44.1987650  36.9861430 127.5141270  45.1978940  25.4315610 129.8299860
  45.7878630  25.1231460 130.5177680  44.3799180  24.9595360 129.9859760
  50.0172370  25.0481420 130.0632880  49.3287890  24.3862960 129.9982870
  50.7378390  24.6019690 130.5081340  50.6472770  21.6433050 116.1223140
  50.9275060  20.8000950 116.4782560  49.8738500  21.8756160 116.6361890
  41.9667260  23.9325440 113.5814140  42.2693160  23.9392870 112.6733290
  42.7061850  23.5823300 114.0781800  46.8015900  38.6982300 128.5630580
  46.7274600  39.6017440 128.8702950  45.8994740  38.3794200 128.5352650
  45.1852190  22.8760060 114.5670340  44.8374190  22.1984050 113.9872790
  45.3864960  22.4149570 115.3813730  47.3501230  37.8640810 116.1856940
  48.2452020  38.2025780 116.2075700  47.3818860  37.1420220 115.5581220
  40.9897390  33.2367860 114.4143940  41.4272260  33.7797530 115.0701520
  41.4745120  32.4114810 114.4240280  38.2043190  36.0256890 121.8664200
  38.5346200  35.1577950 121.6342840  38.6334190  36.2315410 122.6969160
  42.8005110  34.3565900 119.5266170  42.5000650  34.2330870 120.4270080
  42.6942600  33.4974490 119.1181900  38.6933400  36.8927480 124.6045830
  38.2564390  37.0728280 125.4369980  39.2611080  37.6502100 124.4627550
  54.3295580  36.3944480 128.8923140  53.7297570  36.4537040 128.1487060
  54.4589480  35.4549460 129.0219990  55.5697030  34.1362300 114.2292850
  54.7389990  34.2038950 114.7000080  55.7468860  35.0266420 113.9259710
  55.0253490  30.8809780 116.7327050  55.7872400  31.4506430 116.8386740
  55.0407860  30.3136980 117.5035360  38.5257830  29.4047710 120.9634710
  37.8706670  29.1359350 120.3194410  39.3635780  29.2952190 120.5136690
  56.0313460  31.7359880 121.5768980  56.4022290  30.9527200 121.1704950
  56.6715390  32.4248980 121.3986280  53.0147220  33.1196460 126.9899300
  52.2007060  33.5493620 127.2525090  53.4221420  33.7314870 126.3768350
  55.0772660  31.1744150 113.8899570  55.3521500  32.0823030 113.7618790
  54.8883400  31.1106680 114.8261560  51.4748270  24.1989000 115.1853200
  51.8933150  24.0119980 114.3449860  51.1684330  23.3468050 115.4956130
  54.9738000  29.1113140 118.8829000  54.5981600  28.3441070 118.4510290
  54.2441120  29.4935840 119.3703930  39.5633760  29.7900280 125.5038050
  39.9306800  29.7027680 126.3834070  38.9944580  29.0266830 125.4044910
  54.3637620  28.2584660 128.5168520  54.1323710  28.0297410 127.6166470
  54.6242170  29.1784210 128.4713410  39.1149760  26.7009370 129.4096470
  38.2205810  26.6676130 129.7490180  39.6547310  26.8996160 130.1747720
  52.8025690  23.4841090 131.2948220  53.6795870  23.4924490 131.6782220
  52.8146530  22.7471930 130.6840570  37.7395910  26.6146640 116.9060040
  36.8359990  26.8776840 116.7311700  38.2236530  26.8857810 116.1260000
  54.2488960  27.3370630 122.1836240  54.7726440  26.8433280 121.5526410
  54.8348380  27.4720990 122.9283810  54.4278680  27.4210500 125.7055790
  53.4781390  27.3874040 125.8200780  54.6091690  28.3310610 125.4705560
  40.2823120  25.6712180 114.8154420  40.9914820  25.2495400 114.3301700
  39.5663060  25.7387410 114.1837770  39.9297280  21.7251510 113.8557070
  40.6525410  22.2660450 114.1738290  40.2021800  21.4514930 112.9798610
  53.7388930  26.5943980 118.1228650  54.2348050  26.3614850 118.9077530
  53.5405000  25.7555820 117.7066290  39.6189470  20.9757700 123.7579690
  40.2665660  20.4255080 123.3174850  40.0391310  21.2300850 124.5795500
  55.1676090  25.2304930 120.6566330  55.0575370  25.0760970 121.5948600
  55.9283680  24.7025870 120.4141740  53.5141810  21.1699060 127.1149330
  54.1514030  21.7833200 127.4808520  53.6616700  21.2059720 126.1698560
  56.0566360  23.0612850 113.8972470  56.9815670  22.9294030 113.6890760
  56.0342150  23.1405670 114.8508920  56.1304850  23.8323510 116.5229180
  55.3356350  23.7668630 117.0522090  56.3348130  24.7674150 116.5114530
  39.3721470  21.1313370 126.5005010  39.0236290  21.5877190 127.2663190
  39.0409170  20.2370500 126.5827440  40.9785840  34.3032970 130.6658200
  40.9355470  33.9325880 131.5472660  41.1096850  35.2410540 130.8060020
  44.6791870  35.8592560 126.2667920  44.4383230  36.1267120 125.3798440
  45.6194510  36.0298290 126.3218780  46.8846290  22.3225250 130.0224430
  46.8235180  22.9147080 130.7719840  47.8246670  22.2151210 129.8774690
  49.5220850  21.9795310 129.6616720  50.1361260  22.2974600 128.9997800
  50.0670410  21.4943900 130.2812580  55.9396030  37.8786940 127.0678560
  55.4454310  38.2755810 126.3505690  55.3309320  37.2536150 127.4615840
  40.0442110  20.6589570 129.7755780  40.5925100  20.4777620 129.0121890
  40.1097420  19.8683680 130.3112090  40.8173870  37.2495220 127.7855980
  40.2234190  37.1179920 128.5246020  40.8097710  36.4133360 127.3198080
  50.2628890  20.5427450 125.9886010  49.3888730  20.8762560 125.7858940
  50.1539640  20.0700630 126.8137880  51.1700870  22.7498320 127.3727730
  50.8414230  21.9350080 126.9929460  52.1183170  22.7068130 127.2493420
  53.6235480  38.5210360 124.3465300  53.1638450  39.2726170 123.9723320
  52.9947940  37.8016830 124.2880100  40.4486100  34.6153600 126.7364020
  39.7220160  33.9958890 126.6689970  40.5095250  35.0094210 125.8662100
  44.0531200  36.8298600 123.5213430  44.5696220  36.2185960 122.9961690
  44.7028580  37.3327380 124.0124440  46.7926700  37.7207090 124.3482410
  47.0804510  37.4661390 123.4715420  47.3049920  37.1684450 124.9387980
  48.0103710  21.4597290 124.9278920  47.2275500  21.9342790 125.2075680
  47.7166640  20.5552120 124.8192100  52.5624780  22.1620390 122.9728010
  53.0032870  22.1065490 122.1249610  52.2932370  23.0778400 123.0438190
  54.4263350  21.7935630 120.9836830  54.3651750  20.8496850 120.8367850
  55.2055380  21.9015720 121.5290290  38.7316100  37.9327990 119.9460780
  38.5638140  37.2998670 120.6442670  37.8650610  38.1387390 119.5954970
  39.3544120  21.7644770 117.4492640  40.1123480  21.8773650 116.8756670
  38.8921290  22.6013970 117.4036070  45.8957930  23.8784040 120.4394950
  45.0832440  23.5040930 120.0990830  46.3999570  23.1229120 120.7416140
  50.3982910  20.5426490 121.6778020  51.0012280  21.1146700 122.1526540
  49.6575900  21.1065930 121.4551920  53.5417510  20.9448050 116.9518300
  53.7368140  21.8431500 117.2185730  52.7547380  20.7135130 117.4451250
  40.3378800  36.6261220 117.3910920  39.8126420  37.0069250 116.6872880
  40.2623380  37.2511990 118.1120630  41.7269270  22.2908820 115.9894610
  42.2562030  21.5038620 115.8602560  42.3597590  22.9700010 116.2230140
  43.9207110  22.0283960 119.0440000  43.2909850  21.3271270 119.2110130
  43.3812250  22.7888090 118.8273160  46.8599060  38.6423190 131.7150610
  47.7866370  38.4067460 131.7586570  46.8449490  39.4695190 131.2336640
  55.0944120  38.1848760 118.7124860  55.2696310  37.4986500 118.0685780
  54.3965690  38.7095810 118.3201530  44.0462670  21.3067940 131.4792490
  43.7646940  21.8101540 130.7153310  44.4282370  20.5089690 131.1134620
  42.9371770  38.5743600 116.2660170  43.6690590  38.2902880 115.7184060
  43.1965440  38.3356880 117.1559550  42.0986560  34.6908330 116.2706500
  41.4695440  35.1593430 116.8192330  42.2134390  33.8457550 116.7052690
  50.6478130  20.7221520 132.0572960  50.5343580  21.0416130 132.9524480
  51.4647870  21.1234030 131.7610240  53.4276620  37.8693050 131.5391650
  54.2201940  37.3742280 131.3317610  53.7209770  38.5483190 132.1467260
  49.5536280  28.7413990 102.4207700  49.4730330  27.8268600 102.1499410
  49.1400700  29.2381060 101.7147410  47.6854320  30.5193010 104.3016970
  46.9096420  30.0393450 104.5915540  48.3367250  29.8398660 104.1273130
  41.7020150  30.8312820 105.1792730  40.8705030  30.5761530 105.5789240
  42.3101130  30.9023590 105.9150650  51.7061750  34.9253200 103.0816100
  51.2443280  34.1540440 103.4103270  52.5187300  34.9519270 103.5868550
  38.0745110  28.3920360 104.8474820  38.6461220  27.6242560 104.8478460
  38.0746650  28.6909120 103.9381430  47.9325060  37.2111210 102.7020090
  47.3136500  37.6668710 102.1314530  48.7876840  37.3662670 102.3009790
  47.1263310  33.1950200 104.3087130  47.0571590  32.2540140 104.1476260
  47.8883170  33.2851610 104.8809700  39.3169980  23.8004720 106.6343750
  39.1372820  22.9030470 106.9146510  38.9150060  24.3476590 107.3090700
  48.1568480  26.0020580 104.5356060  48.5333300  25.1292460 104.4229730
  48.0587990  26.3379280 103.6446500  51.9392600  23.4971020 101.4684400
  52.7602220  23.0067590 101.5109880  51.9726680  24.0868680 102.2216240
  39.9356650  26.2965220 105.2426090  40.6166760  26.5603590 105.8613490
  39.6204700  25.4566090 105.5764100  44.1281220  27.3432580 104.3298680
  44.6359440  27.8413550 104.9703700  44.6594460  26.5667780 104.1538040
  42.4117320  21.9831140 108.5962100  42.4135760  22.5003530 107.7908000
  41.5821630  21.5061320 108.5732030  43.6620170  31.6226320 106.7735600
  43.3289550  32.2495240 107.4156670  43.8386850  32.1488200 105.9937270
  42.0932650  23.6941100 106.6032550  42.4349460  24.5383150 106.3086420
  41.1548460  23.8424840 106.7197890  42.8739270  33.5907120 108.5884780
  43.4913270  34.2658200 108.3069230  42.0132390  33.9995100 108.4972280
  53.7916860  35.0546530 106.5039420  53.1080380  35.7245640 106.4956090
  54.3311150  35.2527180 105.7384280  45.7760540  21.1823370 102.9277140
  46.0835520  20.6270260 102.2112640  44.8461240  21.3167830 102.7450130
  51.3275600  36.8990660 105.2184600  51.3402760  36.4952950 104.3506860
  50.7750820  37.6737950 105.1146030  50.7261040  31.8020500 106.5467210
  51.1429830  31.5880610 105.7120670  51.4500860  32.0593290 107.1175830
  48.1510380  25.5189200  96.6604420  47.2114050  25.6803160  96.7456880
  48.4693640  26.2374880  96.1140410  43.7697940  29.7736940 102.4456990
  43.3654940  29.0614190 101.9502890  43.8561060  29.4290180 103.3345030
  44.2379640  33.4604500 104.6096200  43.9407930  32.8549970 103.9303980
  45.1879460  33.4981810 104.4985560  42.4826560  26.5480150 106.2256030
  43.0341150  26.6575490 105.4509280  42.9970070  26.9217750 106.9411260
  52.3265250  37.0336370 108.2719300  51.8495810  37.8408560 108.0791910
  51.6427040  36.3814700 108.4245510  43.3298070  33.1986190 111.2604000
  42.4326600  33.4226160 111.5077400  43.3550940  33.3221130 110.3115400
  42.1569290  30.0699510 109.8361370  42.0177060  30.9422310 110.2048770
  41.2750650  29.7272320 109.6909310  48.4798670  34.9875380 101.1426500
  48.9194580  35.7299710 100.7281890  48.4185560  35.2301950 102.0665460
  43.9549640  36.0121210 112.0446520  43.9265070  36.4164160 111.1774950
  43.7914610  35.0831570 111.8818120  53.9520430  21.3022120  95.4886300
  53.6393090  21.3948950  96.3885370  54.7132900  21.8803150  95.4383730
  55.9064460  36.7948310 113.3410690  56.3824180  37.2731200 114.0199770
  56.5271620  36.7265800 112.6156190  38.1087940  31.8397060 105.7532280
  38.1868360  31.9745830 104.8088000  38.7229620  31.1312950 105.9460400
  55.3097710  33.9861160 110.5010700  55.4360770  33.7473040 109.5827880
  55.3519090  33.1545700 110.9732780  49.1714450  37.6889160 109.0705510
  49.6859120  37.5997170 109.8727940  48.3283530  38.0348860 109.3633420
  51.1468850  37.9744500  98.4989510  50.9869990  37.6847440  99.3971340
  50.9815560  37.1984630  97.9634740  50.4144910  37.1094770 101.1336000
  50.8701860  36.3284150 101.4474620  50.7537430  37.8201590 101.6777180
  55.1621720  26.0393620 111.4660440  54.5465990  26.5473290 110.9375900
  54.8418140  25.1391950 111.4086380  38.1647460  32.8811230 108.2926740
  38.3278500  32.4116590 107.4746110  38.6299910  32.3734790 108.9575580
  42.9366230  22.0116990 103.3287310  42.4934380  22.7926530 102.9971830
  43.4951220  22.3346880 104.0358250  47.2236040  24.8785510 108.9322630
  46.7615410  25.0868530 109.7442570  46.8214150  24.0644860 108.6293300
  52.2240550  26.0994460 110.0619290  51.3734140  25.8000210 110.3828360
  52.0642340  26.3436470 109.1503110  49.3190260  27.5996210 112.1618080
  49.6443670  26.7659960 111.8220310  50.1070590  28.1224730 112.3096410
  46.0525050  21.6327690  98.2093140  45.4279230  21.6287560  98.9346450
  45.9655170  20.7658650  97.8129110  44.9742130  22.5564320 105.1876910
  45.2714460  23.4627150 105.1068930  45.5227690  22.0683100 104.5736480
  49.9578210  27.1413930  99.6559210  49.3587100  27.8649730  99.4722830
  50.5057820  27.0790710  98.8735660  45.1679660  28.0336140 111.7228830
  45.0723260  27.0930870 111.5729230  46.0111640  28.2551210 111.3276900
  48.5643080  25.7777470 101.6862490  48.9572650  26.0949670 100.8731180
  48.9259930  24.8989350 101.8007010  40.2990200  24.4449810 109.8762610
  39.9053590  25.2925020 110.0835390  39.6108600  23.8076180 110.0671250
  46.8735250  24.5284780 112.9459350  46.1833570  24.3356980 113.5805440
  47.6167550  24.8119420 113.4783650  37.6007250  22.3678270 103.9092690
  37.3120300  22.9381130 104.6217670  38.3453010  21.8882720 104.2723920
  49.1498220  28.3683220 105.7813270  48.4179340  28.8770030 106.1303370
  48.7522560  27.5513200 105.4802050  45.5875610  25.0437420 104.1865760
  45.5911670  24.6027370 103.3370300  46.4826730  25.3654750 104.2937580
  41.4377990  24.9263910 103.1459970  41.0978040  25.4039140 103.9027020
  40.6755310  24.4729030 102.7861070  49.6124130  23.8216900 105.1936210
  49.6296870  24.2725550 106.0378060  49.3639710  22.9222540 105.4069650
  53.0394880  21.2349080 111.0322590  53.3640650  20.5038740 111.5580570
  53.0751390  20.9162720 110.1303580  39.7386440  32.2562660 110.4522550
  39.3541230  31.6156330 111.0505510  40.0498630  32.9598780 111.0217280
  45.8883580  29.1039200 105.9331170  46.2553710  28.6297770 106.6792510
  45.6988640  29.9780770 106.2739510  38.7524070  23.8482890 102.0624640
  38.4670990  23.4838560 102.9003260  38.6902930  23.1163350 101.4487780
  43.6782950  28.1447840 108.2515380  43.3740020  29.0239820 108.4765740
  44.6329410  28.2047630 108.2872820  52.9652720  31.3474190 104.6408620
  53.6851840  31.8429480 104.2504730  52.7634540  30.6692080 103.9962490
  48.4262660  22.7412150  98.7838010  47.6127270  22.2425320  98.7083320
  48.2324610  23.5810400  98.3674360  48.3471520  31.4183250 110.5277620
  48.2808830  30.4978920 110.2735210  47.7176660  31.5158690 111.2422260
  51.1411050  27.1131800  97.0800170  52.0290670  27.4249030  96.9051510
  51.1116140  26.2404050  96.6880750  39.7346680  28.9850580 109.3986740
  39.3761620  29.6504430 109.9860080  39.4401240  28.1534130 109.7699360
  42.9359800  29.4434820 112.2826290  42.6359940  29.5892000 111.3854110
  43.7071040  28.8840110 112.1899680  48.2788250  34.2403820 110.2781420
  48.2932790  33.3084780 110.0600330  47.5713350  34.3263580 110.9171190
  53.4125320  28.4243640  96.5480030  53.3289040  28.8557860  95.6976470
  54.1319510  28.8841990  96.9806850  54.4899460  30.8811160 109.6250000
  53.7647650  31.4739940 109.4279390  55.0174920  30.8734700 108.8263370
  54.4412570  35.2785900  99.2762160  53.7988730  34.6241520  99.5505880
  54.0543230  35.6840990  98.5002830  50.0199050  32.6071330 103.1233850
  50.3722870  32.0099460 102.4635220  49.1361380  32.2815560 103.2942100
  47.7122150  35.8821390 107.3721920  48.3564370  36.0880770 108.0495340
  48.0751590  35.1209790 106.9192770  41.3101320  20.7152700 100.6152140
  41.1815950  20.7070600 101.5637060  40.4863340  21.0535790 100.2643150
  48.9854230  33.8853740 106.0899370  49.6276460  33.1846900 106.2031540
  49.5103580  34.6652180 105.9096260  50.7591850  34.6848640 109.2935430
  51.0948090  35.2715330 109.9713350  49.8392190  34.5541350 109.5233220
  38.3095250  22.4743820 110.0758840  37.5953770  22.6740740 110.6811450
  38.7290290  21.6983390 110.4473640  38.5967840  36.4624080 111.0625370
  38.7058960  35.5218820 110.9220760  37.9448400  36.7278830 110.4139100
  46.5880430  34.7339970 112.4623490  46.2677300  34.0149210 113.0069180
  45.9138790  35.4095040 112.5359550  49.8034030  24.9666130 107.8260290
  50.1714850  24.1461340 108.1539860  48.9432230  25.0268020 108.2415940
  53.1696060  23.9223070  98.6347850  52.5409220  24.0268740  97.9206080
  52.6747980  24.1419850  99.4241730  46.7636020  27.6205720 108.0498260
  47.2621270  28.0951540 108.7150110  46.9058970  26.6969240 108.2568290
  49.1695520  22.9259680 101.4901520  49.0463300  22.9445810 100.5411030
  50.1180080  22.9738620 101.6099920  46.2572310  38.1614980 100.7629500
  46.5113810  38.1236370  99.8408870  45.3084790  38.0348310 100.7557750
  52.2624890  29.0806860 102.3388010  51.3215030  29.0957090 102.5135700
  52.5768960  28.2942820 102.7848310  54.2650470  36.2515710 104.0142270
  54.3897890  37.0746880 104.4866080  55.1316030  36.0406440 103.6666420
  40.7426280  37.5292990 112.8744980  41.5439010  37.8505040 113.2880380
  40.2278100  37.1688570 113.5964890  49.5790910  33.6372860 112.8220390
  48.9729070  33.6604460 112.0816140  49.2745020  32.9055900 113.3587640
  51.0091280  37.3653150 111.4329800  51.9613030  37.2811170 111.3830040
  50.8619500  38.0294860 112.1063590  38.4624090  30.0166450 111.8181030
  38.9663110  29.4373730 112.3897260  37.7231510  30.3006680 112.3557400
  45.5162030  31.4237440 111.3516550  44.7507700  31.9922440 111.2671220
  45.6977990  31.1313650 110.4584780  52.6585380  33.1542770 111.9091570
  53.3994850  33.4918530 111.4059030  51.8958060  33.3234830 111.3561340
  40.4947170  28.1596040 112.7131100  40.5352510  27.8609910 113.6216330
  41.3492670  28.5603650 112.5538620  42.4352980  26.7388140 110.6805590
  41.9049440  26.2479090 110.0528930  43.1041050  27.1672340 110.1463520
  51.3331040  31.2057600 110.4446780  51.7472060  31.3602680 111.2937200
  50.3982040  31.3312820 110.6072560  51.8053210  28.5453760 112.4485930
  52.3873980  27.7906080 112.3606410  51.9814980  29.0761200 111.6717410
  42.9225280  23.7050510 110.7602880  42.8282150  23.0871260 110.0353750
  42.3422670  24.4316800 110.5332790  45.6886720  22.2623750 107.7930270
  45.2404020  22.2848010 106.9475820  45.0551920  21.8642770 108.3900570
  46.0946270  31.1578080 108.4142710  46.5134380  32.0010810 108.2418950
  45.1754900  31.2950120 108.1849490  48.4310170  28.8894260 109.7980550
  48.5506380  28.2935400 110.5375390  49.2904170  28.9263950 109.3781850
  50.7698070  29.4431450 108.3743060  50.2433290  29.9674070 107.7708200
  51.1129410  30.0758840 109.0052790  45.1978940  25.4315610 111.0556370
  45.7878630  25.1231460 111.7434190  44.3799180  24.9595360 111.2116270
  50.0172370  25.0481420 111.2889390  49.3287890  24.3862960 111.2239380
  50.7378390  24.6019690 111.7337850  50.6472770  21.6433050  97.3479650
  50.9275060  20.8000950  97.7039070  49.8738500  21.8756160  97.8618400
  41.9667260  23.9325440  94.8070650  42.2693160  23.9392870  93.8989800
  42.7061850  23.5823300  95.3038310  46.8015900  38.6982300 109.7887090
  46.7274600  39.6017440 110.0959460  45.8994740  38.3794200 109.7609160
  45.1852190  22.8760060  95.7926850  44.8374190  22.1984050  95.2129300
  45.3864960  22.4149570  96.6070240  47.3501230  37.8640810  97.4113450
  48.2452020  38.2025780  97.4332210  47.3818860  37.1420220  96.7837730
  38.6933400  36.8927480 105.8302340  38.2564390  37.0728280 106.6626490
  39.2611080  37.6502100 105.6884060  54.3295580  36.3944480 110.1179650
  53.7297570  36.4537040 109.3743570  54.4589480  35.4549460 110.2476500
  55.0253490  30.8809780  97.9583560  55.7872400  31.4506430  98.0643250
  55.0407860  30.3136980  98.7291870  38.5257830  29.4047710 102.1891220
  37.8706670  29.1359350 101.5450920  39.3635780  29.2952190 101.7393200
  56.0313460  31.7359880 102.8025490  56.4022290  30.9527200 102.3961460
  56.6715390  32.4248980 102.6242790  53.0147220  33.1196460 108.2155810
  52.2007060  33.5493620 108.4781600  53.4221420  33.7314870 107.6024860
  55.0772660  31.1744150  95.1156080  55.3521500  32.0823030  94.9875300
  54.8883400  31.1106680  96.0518070  51.4748270  24.1989000  96.4109710
  51.8933150  24.0119980  95.5706370  51.1684330  23.3468050  96.7212640
  54.9738000  29.1113140 100.1085510  54.5981600  28.3441070  99.6766800
  54.2441120  29.4935840 100.5960440  39.5633760  29.7900280 106.7294560
  39.9306800  29.7027680 107.6090580  38.9944580  29.0266830 106.6301420
  54.3637620  28.2584660 109.7425030  54.1323710  28.0297410 108.8422980
  54.6242170  29.1784210 109.6969920  39.1149760  26.7009370 110.6352980
  38.2205810  26.6676130 110.9746690  39.6547310  26.8996160 111.4004230
  52.8025690  23.4841090 112.5204730  53.6795870  23.4924490 112.9038730
  52.8146530  22.7471930 111.9097080  39.9297280  21.7251510  95.0813580
  40.6525410  22.2660450  95.3994800  40.2021800  21.4514930  94.2055120
  53.7388930  26.5943980  99.3485160  54.2348050  26.3614850 100.1334040
  53.5405000  25.7555820  98.9322800  39.6189470  20.9757700 104.9836200
  40.2665660  20.4255080 104.5431360  40.0391310  21.2300850 105.8052010
  53.5141810  21.1699060 108.3405840  54.1514030  21.7833200 108.7065030
  53.6616700  21.2059720 107.3955070  56.0566360  23.0612850  95.1228980
  56.9815670  22.9294030  94.9147270  56.0342150  23.1405670  96.0765430
  56.1304850  23.8323510  97.7485690  55.3356350  23.7668630  98.2778600
  56.3348130  24.7674150  97.7371040  53.0723270  37.8715060 101.7424080
  53.6682340  37.5499630 101.0658500  53.3301420  37.3986880 102.5337350
  39.3721470  21.1313370 107.7261520  39.0236290  21.5877190 108.4919700
  39.0409170  20.2370500 107.8083950  40.9785840  34.3032970 111.8914710
  40.9355470  33.9325880 112.7729170  41.1096850  35.2410540 112.0316530
  46.8846290  22.3225250 111.2480940  46.8235180  22.9147080 111.9976350
  47.8246670  22.2151210 111.1031200  49.5220850  21.9795310 110.8873230
  50.1361260  22.2974600 110.2254310  50.0670410  21.4943900 111.5069090
  55.9396030  37.8786940 108.2935070  55.4454310  38.2755810 107.5762200
  55.3309320  37.2536150 108.6872350  40.0442110  20.6589570 111.0012290
  40.5925100  20.4777620 110.2378400  40.1097420  19.8683680 111.5368600
  50.2628890  20.5427450 107.2142520  49.3888730  20.8762560 107.0115450
  50.1539640  20.0700630 108.0394390  51.1700870  22.7498320 108.5984240
  50.8414230  21.9350080 108.2185970  52.1183170  22.7068130 108.4749930
  53.6235480  38.5210360 105.5721810  53.1638450  39.2726170 105.1979830
  52.9947940  37.8016830 105.5136610  46.7926700  37.7207090 105.5738920
  47.0804510  37.4661390 104.6971930  47.3049920  37.1684450 106.1644490
  48.0103710  21.4597290 106.1535430  47.2275500  21.9342790 106.4332190
  47.7166640  20.5552120 106.0448610  52.5624780  22.1620390 104.1984520
  53.0032870  22.1065490 103.3506120  52.2932370  23.0778400 104.2694700
  54.4263350  21.7935630 102.2093340  54.3651750  20.8496850 102.0624360
  55.2055380  21.9015720 102.7546800  39.3544120  21.7644770  98.6749150
  40.1123480  21.8773650  98.1013180  38.8921290  22.6013970  98.6292580
  45.8957930  23.8784040 101.6651460  45.0832440  23.5040930 101.3247340
  46.3999570  23.1229120 101.9672650  50.3982910  20.5426490 102.9034530
  51.0012280  21.1146700 103.3783050  49.6575900  21.1065930 102.6808430
  53.5417510  20.9448050  98.1774810  53.7368140  21.8431500  98.4442240
  52.7547380  20.7135130  98.6707760  41.7269270  22.2908820  97.2151120
  42.2562030  21.5038620  97.0859070  42.3597590  22.9700010  97.4486650
  43.9207110  22.0283960 100.2696510  43.2909850  21.3271270 100.4366640
  43.3812250  22.7888090 100.0529670  46.8599060  38.6423190 112.9407120
  47.7866370  38.4067460 112.9843080  46.8449490  39.4695190 112.4593150
  44.0462670  21.3067940 112.7049000  43.7646940  21.8101540 111.9409820
  44.4282370  20.5089690 112.3391130  50.6478130  20.7221520 113.2829470
  50.5343580  21.0416130 114.1780990  51.4647870  21.1234030 112.9866750
  53.4276620  37.8693050 112.7648160  54.2201940  37.3742280 112.5574120
  53.7209770  38.5483190 113.3723770  49.5536280  28.7413990  83.6464210
  49.4730330  27.8268600  83.3755920  49.1400700  29.2381060  82.9403920
  47.6854320  30.5193010  85.5273480  46.9096420  30.0393450  85.8172050
  48.3367250  29.8398660  85.3529640  41.7020150  30.8312820  86.4049240
  40.8705030  30.5761530  86.8045750  42.3101130  30.9023590  87.1407160
  51.7061750  34.9253200  84.3072610  51.2443280  34.1540440  84.6359780
  52.5187300  34.9519270  84.8125060  41.6821410  34.8652910  86.6007260
  41.9849450  33.9750650  86.4217480  42.4265000  35.4223130  86.3729510
  40.1112100  25.7914710  80.1891630  39.2228800  26.1330680  80.0871510
  40.3953290  25.5915030  79.2972460  38.0745110  28.3920360  86.0731330
  38.6461220  27.6242560  86.0734970  38.0746650  28.6909120  85.1637940
  47.9325060  37.2111210  83.9276600  47.3136500  37.6668710  83.3571040
  48.7876840  37.3662670  83.5266300  47.1263310  33.1950200  85.5343640
  47.0571590  32.2540140  85.3732770  47.8883170  33.2851610  86.1066210
  39.3169980  23.8004720  87.8600260  39.1372820  22.9030470  88.1403020
  38.9150060  24.3476590  88.5347210  42.2873490  24.3746210  81.2230010
  42.3940240  25.2749940  81.5298770  41.3765850  24.3264180  80.9324660
  39.9356650  26.2965220  86.4682600  40.6166760  26.5603590  87.0870000
  39.6204700  25.4566090  86.8020610  44.1281220  27.3432580  85.5555190
  44.6359440  27.8413550  86.1960210  44.6594460  26.5667780  85.3794550
  56.2292150  25.5137770  89.2584540  55.5244320  25.9019480  88.7399650
  56.4950070  26.2088060  89.8605470  42.4117320  21.9831140  89.8218610
  42.4135760  22.5003530  89.0164510  41.5821630  21.5061320  89.7988540
  48.7988410  32.0950450  81.3208510  48.1805680  32.5599900  80.7571230
  49.3111660  32.7877930  81.7378020  43.6620170  31.6226320  87.9992110
  43.3289550  32.2495240  88.6413180  43.8386850  32.1488200  87.2193780
  42.0932650  23.6941100  87.8289060  42.4349460  24.5383150  87.5342930
  41.1548460  23.8424840  87.9454400  42.8739270  33.5907120  89.8141290
  43.4913270  34.2658200  89.5325740  42.0132390  33.9995100  89.7228790
  38.1671610  32.7806980  78.6948140  37.7899590  33.2694080  77.9633040
  38.4244680  33.4532260  79.3254670  53.7916860  35.0546530  87.7295930
  53.1080380  35.7245640  87.7212600  54.3311150  35.2527180  86.9640790
  45.7760540  21.1823370  84.1533650  46.0835520  20.6270260  83.4369150
  44.8461240  21.3167830  83.9706640  51.3275600  36.8990660  86.4441110
  51.3402760  36.4952950  85.5763370  50.7750820  37.6737950  86.3402540
  52.6221020  33.6206880  81.5331280  52.5117350  32.6781210  81.6580700
  52.6189270  33.9822520  82.4194040  50.7261040  31.8020500  87.7723720
  51.1429830  31.5880610  86.9377180  51.4500860  32.0593290  88.3432340
  48.1641300  29.2472200  80.8893770  47.2370580  29.1809580  81.1182240
  48.3166120  30.1852330  80.7749010  48.1510380  25.5189200  77.8860930
  47.2114050  25.6803160  77.9713390  48.4693640  26.2374880  77.3396920
  54.6723140  30.2007720  87.8639960  53.8441770  30.2700810  87.3890090
  55.2673620  30.7862030  87.3955790  52.1938590  30.8092500  81.3929020
  51.5751010  30.4712050  80.7455320  52.1763040  30.1652260  82.1008210
  51.6365150  26.9877040  88.8094830  51.2236330  27.8130750  89.0634820
  50.9041100  26.4022080  88.6171190  43.7697940  29.7736940  83.6713500
  43.3654940  29.0614190  83.1759400  43.8561060  29.4290180  84.5601540
  44.2379640  33.4604500  85.8352710  43.9407930  32.8549970  85.1560490
  45.1879460  33.4981810  85.7242070  50.3703290  30.0479310  78.4001770
  50.8096570  29.2101740  78.2539590  51.0831710  30.6808710  78.4865910
  48.4798670  34.9875380  82.3683010  48.9194580  35.7299710  81.9538400
  48.4185560  35.2301950  83.2921970  40.4702570  28.6681920  81.1720150
  40.3500170  29.3944010  80.5601420  40.1603460  27.8984830  80.6948060
  55.3097710  33.9861160  91.7267210  55.4360770  33.7473040  90.8084390
  55.3519090  33.1545700  92.1989290  49.1714450  37.6889160  90.2962020
  49.6859120  37.5997170  91.0984450  48.3283530  38.0348860  90.5889930
  51.1468850  37.9744500  79.7246020  50.9869990  37.6847440  80.6227850
  50.9815560  37.1984630  79.1891250  43.6257230  37.7543030  81.5017640
  43.4499710  36.8378570  81.2885440  42.7712970  38.1130320  81.7415440
  50.8494980  35.4832060  78.2844020  50.1560140  35.4809350  77.6246300
  51.5917840  35.0591380  77.8538190  50.4144910  37.1094770  82.3592510
  50.8701860  36.3284150  82.6731130  50.7537430  37.8201590  82.9033690
  55.1621720  26.0393620  92.6916950  54.5465990  26.5473290  92.1632410
  54.8418140  25.1391950  92.6342890  38.1647460  32.8811230  89.5183250
  38.3278500  32.4116590  88.7002620  38.6299910  32.3734790  90.1832090
  42.9366230  22.0116990  84.5543820  42.4934380  22.7926530  84.2228340
  43.4951220  22.3346880  85.2614760  52.2240550  26.0994460  91.2875800
  51.3734140  25.8000210  91.6084870  52.0642340  26.3436470  90.3759620
  49.3190260  27.5996210  93.3874590  49.6443670  26.7659960  93.0476820
  50.1070590  28.1224730  93.5352920  46.0525050  21.6327690  79.4349650
  45.4279230  21.6287560  80.1602960  45.9655170  20.7658650  79.0385620
  42.7280450  27.1350560  82.2825070  42.5021370  26.9187730  83.1871690
  41.9472980  27.5679020  81.9371040  49.9578210  27.1413930  80.8815720
  49.3587100  27.8649730  80.6979340  50.5057820  27.0790710  80.0992170
  48.5643080  25.7777470  82.9119000  48.9572650  26.0949670  82.0987690
  48.9259930  24.8989350  83.0263520  40.2990200  24.4449810  91.1019120
  39.9053590  25.2925020  91.3091900  39.6108600  23.8076180  91.2927760
  46.8735250  24.5284780  94.1715860  46.1833570  24.3356980  94.8061950
  47.6167550  24.8119420  94.7040160  37.6007250  22.3678270  85.1349200
  37.3120300  22.9381130  85.8474180  38.3453010  21.8882720  85.4980430
  37.7877480  26.3098390  76.3451920  37.7052150  27.2529150  76.4866910
  37.4360540  26.1673300  75.4664270  41.4377990  24.9263910  84.3716480
  41.0978040  25.4039140  85.1283530  40.6755310  24.4729030  84.0117580
  45.6495760  26.0449500  78.4029030  45.7708580  26.0035980  79.3514850
  45.2644270  26.9073650  78.2475760  44.6617260  28.3550640  77.8012330
  44.0934160  27.9068890  77.1748240  45.3706260  28.7143420  77.2677480
  53.0394880  21.2349080  92.2579100  53.3640650  20.5038740  92.7837080
  53.0751390  20.9162720  91.3560090  38.7524070  23.8482890  83.2881150
  38.4670990  23.4838560  84.1259770  38.6902930  23.1163350  82.6744290
  42.2064740  32.3508830  80.0738740  41.4327000  31.8106450  79.9137460
  42.9359370  31.8315440  79.7356500  52.9652720  31.3474190  85.8665130
  53.6851840  31.8429480  85.4761240  52.7634540  30.6692080  85.2219000
  48.4262660  22.7412150  80.0094520  47.6127270  22.2425320  79.9339830
  48.2324610  23.5810400  79.5930870  51.1411050  27.1131800  78.3056680
  52.0290670  27.4249030  78.1308020  51.1116140  26.2404050  77.9137260
  42.2502140  32.0189210  83.7117550  42.7680810  31.2157470  83.6574440
  41.7986160  31.9568350  84.5534380  47.1371640  33.2855490  78.9844850
  47.4787340  34.0297720  78.4888170  46.3084350  33.5986610  79.3469680
  53.4125320  28.4243640  77.7736540  53.3289040  28.8557860  76.9232980
  54.1319510  28.8841990  78.2063360  54.4899460  30.8811160  90.8506510
  53.7647650  31.4739940  90.6535900  55.0174920  30.8734700  90.0519880
  54.4412570  35.2785900  80.5018670  53.7988730  34.6241520  80.7762390
  54.0543230  35.6840990  79.7259340  50.0199050  32.6071330  84.3490360
  50.3722870  32.0099460  83.6891730  49.1361380  32.2815560  84.5198610
  46.1062330  33.3669020  81.7560770  46.7933460  33.9138230  82.1368360
  45.3194750  33.9109750  81.7910380  38.2454730  28.9841840  77.2477850
  39.1149580  29.2666640  77.5313770  37.7545050  29.7977710  77.1326660
  45.4089540  30.3715050  81.3686130  45.8652320  31.1820300  81.5946320
  45.0577750  30.0538190  82.2004620  47.7122150  35.8821390  88.5978430
  48.3564370  36.0880770  89.2751850  48.0751590  35.1209790  88.1449280
  41.3101320  20.7152700  81.8408650  41.1815950  20.7070600  82.7893570
  40.4863340  21.0535790  81.4899660  48.9854230  33.8853740  87.3155880
  49.6276460  33.1846900  87.4288050  49.5103580  34.6652180  87.1352770
  52.8309950  34.1702360  77.0395020  52.6047530  33.4532800  77.6319660
  52.4406150  33.9214800  76.2016770  50.7591850  34.6848640  90.5191940
  51.0948090  35.2715330  91.1969860  49.8392190  34.5541350  90.7489730
  38.3095250  22.4743820  91.3015350  37.5953770  22.6740740  91.9067960
  38.7290290  21.6983390  91.6730150  52.4126200  32.0874300  78.7009180
  52.1247900  32.5486990  79.4887060  53.2078370  31.6272070  78.9693400
  44.6294600  35.5800420  78.6313150  44.6204700  36.3130110  78.0157660
  43.7092960  35.3332000  78.7240110  40.2301240  30.8015310  79.3759910
  39.6229190  31.5414210  79.3855210  40.7050590  30.8914670  78.5498110
  53.1696060  23.9223070  79.8604360  52.5409220  24.0268740  79.1462590
  52.6747980  24.1419850  80.6498240  47.6154200  35.6428660  77.2938340
  47.7166180  35.4392650  76.3640320  46.7155940  35.3886940  77.4986120
  45.1380090  26.2009020  81.2762240  44.4296240  26.6695360  81.7175850
  45.4224570  25.5431030  81.9107430  49.1695520  22.9259680  82.7158030
  49.0463300  22.9445810  81.7667540  50.1180080  22.9738620  82.8356430
  46.2572310  38.1614980  81.9886010  46.5113810  38.1236370  81.0665380
  45.3084790  38.0348310  81.9814260  43.3415110  24.5094100  78.6512950
  44.1905640  24.9464250  78.5853140  42.9746380  24.8214360  79.4785010
  53.9702880  23.8373680  90.1183160  53.4676480  24.5779080  90.4576970
  54.7859540  24.2257680  89.8019950  52.2624890  29.0806860  83.5644520
  51.3215030  29.0957090  83.7392210  52.5768960  28.2942820  84.0104820
  42.2406530  30.7626460  77.1248480  43.0069800  30.6507820  77.6873910
  42.3181220  30.0664430  76.4725250  40.9353290  28.1951530  77.8081370
  41.0156880  27.2479040  77.9198770  41.8273040  28.5258410  77.9142030
  54.2650470  36.2515710  85.2398780  54.3897890  37.0746880  85.7122590
  55.1316030  36.0406440  84.8922930  41.7368000  38.3446920  84.9115910
  42.4730480  37.7962380  85.1824480  42.1208920  39.2102930  84.7721900
  38.6213480  34.4120490  80.7857420  37.6953260  34.6541630  80.7762830
  39.0869910  35.2394750  80.6642170  51.0091280  37.3653150  92.6586310
  51.9613030  37.2811170  92.6086550  50.8619500  38.0294860  93.3320100
  53.9000480  36.7447360  78.1578220  53.6141990  36.3312500  77.3432400
  53.7020030  37.6735070  78.0378740  45.3647710  32.7380640  76.5983830
  45.2598350  32.1232990  77.3245210  45.1971930  32.2146530  75.8146840
  48.6050440  31.8000670  77.2025820  48.0560540  32.2469970  77.8468560
  49.2269700  31.2949920  77.7263490  52.6585380  33.1542770  93.1348080
  53.3994850  33.4918530  92.6315540  51.8958060  33.3234830  92.5817850
  44.2725560  30.7591590  79.0991120  44.6941980  30.5931460  79.9422510
  44.3976400  29.9491820  78.6046260  46.7853200  29.7829200  76.3468220
  47.3058860  29.0678220  75.9809370  47.4321600  30.4215070  76.6468730
  51.3331040  31.2057600  91.6703290  51.7472060  31.3602680  92.5193710
  50.3982040  31.3312820  91.8329070  51.8053210  28.5453760  93.6742440
  52.3873980  27.7906080  93.5862920  51.9814980  29.0761200  92.8973920
  42.9225280  23.7050510  91.9859390  42.8282150  23.0871260  91.2610260
  42.3422670  24.4316800  91.7589300  46.0946270  31.1578080  89.6399220
  46.5134380  32.0010810  89.4675460  45.1754900  31.2950120  89.4106000
  50.7698070  29.4431450  89.5999570  50.2433290  29.9674070  88.9964710
  51.1129410  30.0758840  90.2309300  43.1684460  26.8324820  76.0449280
  42.9673520  25.9692180  76.4062620  42.9976510  26.7458180  75.1070880
  43.9453690  37.4631090  90.7556950  43.4074780  38.1877150  90.4365650
  44.1987650  36.9861430  89.9654290  50.0172370  25.0481420  92.5145900
  49.3287890  24.3862960  92.4495890  50.7378390  24.6019690  92.9594360
  50.6472770  21.6433050  78.5736160  50.9275060  20.8000950  78.9295580
  49.8738500  21.8756160  79.0874910  41.9667260  23.9325440  76.0327160
  42.2693160  23.9392870  75.1246310  42.7061850  23.5823300  76.5294820
  46.8015900  38.6982300  91.0143600  46.7274600  39.6017440  91.3215970
  45.8994740  38.3794200  90.9865670  45.1852190  22.8760060  77.0183360
  44.8374190  22.1984050  76.4385810  45.3864960  22.4149570  77.8326750
  47.3501230  37.8640810  78.6369960  48.2452020  38.2025780  78.6588720
  47.3818860  37.1420220  78.0094240  40.9897390  33.2367860  76.8656960
  41.4272260  33.7797530  77.5214540  41.4745120  32.4114810  76.8753300
  42.8005110  34.3565900  81.9779190  42.5000650  34.2330870  82.8783100
  42.6942600  33.4974490  81.5694920  55.5697030  34.1362300  76.6805870
  54.7389990  34.2038950  77.1513100  55.7468860  35.0266420  76.3772730
  55.0253490  30.8809780  79.1840070  55.7872400  31.4506430  79.2899760
  55.0407860  30.3136980  79.9548380  38.5257830  29.4047710  83.4147730
  37.8706670  29.1359350  82.7707430  39.3635780  29.2952190  82.9649710
  56.0313460  31.7359880  84.0282000  56.4022290  30.9527200  83.6217970
  56.6715390  32.4248980  83.8499300  53.0147220  33.1196460  89.4412320
  52.2007060  33.5493620  89.7038110  53.4221420  33.7314870  88.8281370
  55.0772660  31.1744150  76.3412590  55.3521500  32.0823030  76.2131810
  54.8883400  31.1106680  77.2774580  51.4748270  24.1989000  77.6366220
  51.8933150  24.0119980  76.7962880  51.1684330  23.3468050  77.9469150
  54.9738000  29.1113140  81.3342020  54.5981600  28.3441070  80.9023310
  54.2441120  29.4935840  81.8216950  39.5633760  29.7900280  87.9551070
  39.9306800  29.7027680  88.8347090  38.9944580  29.0266830  87.8557930
  54.3637620  28.2584660  90.9681540  54.1323710  28.0297410  90.0679490
  54.6242170  29.1784210  90.9226430  52.8025690  23.4841090  93.7461240
  53.6795870  23.4924490  94.1295240  52.8146530  22.7471930  93.1353590
  37.7395910  26.6146640  79.3573060  36.8359990  26.8776840  79.1824720
  38.2236530  26.8857810  78.5773020  54.4278680  27.4210500  88.1568810
  53.4781390  27.3874040  88.2713800  54.6091690  28.3310610  87.9218580
  40.2823120  25.6712180  77.2667440  40.9914820  25.2495400  76.7814720
  39.5663060  25.7387410  76.6350790  39.9297280  21.7251510  76.3070090
  40.6525410  22.2660450  76.6251310  40.2021800  21.4514930  75.4311630
  39.6189470  20.9757700  86.2092710  40.2665660  20.4255080  85.7687870
  40.0391310  21.2300850  87.0308520  53.5141810  21.1699060  89.5662350
  54.1514030  21.7833200  89.9321540  53.6616700  21.2059720  88.6211580
  53.0723270  37.8715060  82.9680590  53.6682340  37.5499630  82.2915010
  53.3301420  37.3986880  83.7593860  39.3721470  21.1313370  88.9518030
  39.0236290  21.5877190  89.7176210  39.0409170  20.2370500  89.0340460
  44.6791870  35.8592560  88.7180940  44.4383230  36.1267120  87.8311460
  45.6194510  36.0298290  88.7731800  46.8846290  22.3225250  92.4737450
  46.8235180  22.9147080  93.2232860  47.8246670  22.2151210  92.3287710
  49.5220850  21.9795310  92.1129740  50.1361260  22.2974600  91.4510820
  50.0670410  21.4943900  92.7325600  40.0442110  20.6589570  92.2268800
  40.5925100  20.4777620  91.4634910  40.1097420  19.8683680  92.7625110
  50.2628890  20.5427450  88.4399030  49.3888730  20.8762560  88.2371960
  50.1539640  20.0700630  89.2650900  51.1700870  22.7498320  89.8240750
  50.8414230  21.9350080  89.4442480  52.1183170  22.7068130  89.7006440
  53.6235480  38.5210360  86.7978320  53.1638450  39.2726170  86.4236340
  52.9947940  37.8016830  86.7393120  44.0531200  36.8298600  85.9726450
  44.5696220  36.2185960  85.4474710  44.7028580  37.3327380  86.4637460
  46.7926700  37.7207090  86.7995430  47.0804510  37.4661390  85.9228440
  47.3049920  37.1684450  87.3901000  38.7316100  37.9327990  82.3973800
  38.5638140  37.2998670  83.0955690  37.8650610  38.1387390  82.0467990
  39.3544120  21.7644770  79.9005660  40.1123480  21.8773650  79.3269690
  38.8921290  22.6013970  79.8549090  45.8957930  23.8784040  82.8907970
  45.0832440  23.5040930  82.5503850  46.3999570  23.1229120  83.1929160
  50.3982910  20.5426490  84.1291040  51.0012280  21.1146700  84.6039560
  49.6575900  21.1065930  83.9064940  53.5417510  20.9448050  79.4031320
  53.7368140  21.8431500  79.6698750  52.7547380  20.7135130  79.8964270
  40.3378800  36.6261220  79.8423940  39.8126420  37.0069250  79.1385900
  40.2623380  37.2511990  80.5633650  41.7269270  22.2908820  78.4407630
  42.2562030  21.5038620  78.3115580  42.3597590  22.9700010  78.6743160
  43.9207110  22.0283960  81.4953020  43.2909850  21.3271270  81.6623150
  43.3812250  22.7888090  81.2786180  46.8599060  38.6423190  94.1663630
  47.7866370  38.4067460  94.2099590  46.8449490  39.4695190  93.6849660
  55.0944120  38.1848760  81.1637880  55.2696310  37.4986500  80.5198800
  54.3965690  38.7095810  80.7714550  44.0462670  21.3067940  93.9305510
  43.7646940  21.8101540  93.1666330  44.4282370  20.5089690  93.5647640
  42.0986560  34.6908330  78.7219520  41.4695440  35.1593430  79.2705350
  42.2134390  33.8457550  79.1565710  50.6478130  20.7221520  94.5085980
  50.5343580  21.0416130  95.4037500  51.4647870  21.1234030  94.2123260
  53.4276620  37.8693050  93.9904670  54.2201940  37.3742280  93.7830630
  53.7209770  38.5483190  94.5980280  49.5536280  28.7413990  64.8720720
  49.4730330  27.8268600  64.6012430  49.1400700  29.2381060  64.1660430
  51.7061750  34.9253200  65.5329120  51.2443280  34.1540440  65.8616290
  52.5187300  34.9519270  66.0381570  40.1112100  25.7914710  61.4148140
  39.2228800  26.1330680  61.3128020  40.3953290  25.5915030  60.5228970
  39.3169980  23.8004720  69.0856770  39.1372820  22.9030470  69.3659530
  38.9150060  24.3476590  69.7603720  48.1568480  26.0020580  66.9869080
  48.5333300  25.1292460  66.8742750  48.0587990  26.3379280  66.0959520
  42.2873490  24.3746210  62.4486520  42.3940240  25.2749940  62.7555280
  41.3765850  24.3264180  62.1581170  51.9392600  23.4971020  63.9197420
  52.7602220  23.0067590  63.9622900  51.9726680  24.0868680  64.6729260
  56.2292150  25.5137770  70.4841050  55.5244320  25.9019480  69.9656160
  56.4950070  26.2088060  71.0861980  48.7988410  32.0950450  62.5465020
  48.1805680  32.5599900  61.9827740  49.3111660  32.7877930  62.9634530
  52.1754080  25.4371400  66.6924960  51.4709650  25.7256290  67.2728070
  52.5366240  26.2471510  66.3324520  42.8739270  33.5907120  71.0397800
  43.4913270  34.2658200  70.7582250  42.0132390  33.9995100  70.9485300
  53.7916860  35.0546530  68.9552440  53.1080380  35.7245640  68.9469110
  54.3311150  35.2527180  68.1897300  55.2441000  24.8826190  67.0834170
  54.2965910  24.9165170  67.2149600  55.5690990  25.6965140  67.4683530
  48.1641300  29.2472200  62.1150280  47.2370580  29.1809580  62.3438750
  48.3166120  30.1852330  62.0005520  48.1510380  25.5189200  59.1117440
  47.2114050  25.6803160  59.1969900  48.4693640  26.2374880  58.5653430
  54.6723140  30.2007720  69.0896470  53.8441770  30.2700810  68.6146600
  55.2673620  30.7862030  68.6212300  52.1938590  30.8092500  62.6185530
  51.5751010  30.4712050  61.9711830  52.1763040  30.1652260  63.3264720
  51.6365150  26.9877040  70.0351340  51.2236330  27.8130750  70.2891330
  50.9041100  26.4022080  69.8427700  43.3298070  33.1986190  73.7117020
  42.4326600  33.4226160  73.9590420  43.3550940  33.3221130  72.7628420
  50.3703290  30.0479310  59.6258280  50.8096570  29.2101740  59.4796100
  51.0831710  30.6808710  59.7122420  42.1569290  30.0699510  72.2874390
  42.0177060  30.9422310  72.6561790  41.2750650  29.7272320  72.1422330
  43.9549640  36.0121210  74.4959540  43.9265070  36.4164160  73.6287970
  43.7914610  35.0831570  74.3331140  40.4702570  28.6681920  62.3976660
  40.3500170  29.3944010  61.7857930  40.1603460  27.8984830  61.9204570
  55.9064460  36.7948310  75.7923710  56.3824180  37.2731200  76.4712790
  56.5271620  36.7265800  75.0669210  43.6257230  37.7543030  62.7274150
  43.4499710  36.8378570  62.5141950  42.7712970  38.1130320  62.9671950
  38.1647460  32.8811230  70.7439760  38.3278500  32.4116590  69.9259130
  38.6299910  32.3734790  71.4088600  52.2240550  26.0994460  72.5132310
  51.3734140  25.8000210  72.8341380  52.0642340  26.3436470  71.6016130
  46.0525050  21.6327690  60.6606160  45.4279230  21.6287560  61.3859470
  45.9655170  20.7658650  60.2642130  42.7280450  27.1350560  63.5081580
  42.5021370  26.9187730  64.4128200  41.9472980  27.5679020  63.1627550
  49.9578210  27.1413930  62.1072230  49.3587100  27.8649730  61.9235850
  50.5057820  27.0790710  61.3248680  48.5643080  25.7777470  64.1375510
  48.9572650  26.0949670  63.3244200  48.9259930  24.8989350  64.2520030
  40.2990200  24.4449810  72.3275630  39.9053590  25.2925020  72.5348410
  39.6108600  23.8076180  72.5184270  37.6007250  22.3678270  66.3605710
  37.3120300  22.9381130  67.0730690  38.3453010  21.8882720  66.7236940
  37.7877480  26.3098390  57.5708430  37.7052150  27.2529150  57.7123420
  37.4360540  26.1673300  56.6920780  49.1498220  28.3683220  68.2326290
  48.4179340  28.8770030  68.5816390  48.7522560  27.5513200  67.9315070
  45.6495760  26.0449500  59.6285540  45.7708580  26.0035980  60.5771360
  45.2644270  26.9073650  59.4732270  49.6124130  23.8216900  67.6449230
  49.6296870  24.2725550  68.4891080  49.3639710  22.9222540  67.8582670
  44.6617260  28.3550640  59.0268840  44.0934160  27.9068890  58.4004750
  45.3706260  28.7143420  58.4933990  53.0394880  21.2349080  73.4835610
  53.3640650  20.5038740  74.0093590  53.0751390  20.9162720  72.5816600
  39.7386440  32.2562660  72.9035570  39.3541230  31.6156330  73.5018530
  40.0498630  32.9598780  73.4730300  38.7524070  23.8482890  64.5137660
  38.4670990  23.4838560  65.3516280  38.6902930  23.1163350  63.9000800
  43.6782950  28.1447840  70.7028400  43.3740020  29.0239820  70.9278760
  44.6329410  28.2047630  70.7385840  52.9652720  31.3474190  67.0921640
  53.6851840  31.8429480  66.7017750  52.7634540  30.6692080  66.4475510
  48.4262660  22.7412150  61.2351030  47.6127270  22.2425320  61.1596340
  48.2324610  23.5810400  60.8187380  47.1371640  33.2855490  60.2101360
  47.4787340  34.0297720  59.7144680  46.3084350  33.5986610  60.5726190
  39.7346680  28.9850580  71.8499760  39.3761620  29.6504430  72.4373100
  39.4401240  28.1534130  72.2212380  42.9359800  29.4434820  74.7339310
  42.6359940  29.5892000  73.8367130  43.7071040  28.8840110  74.6412700
  50.0199050  32.6071330  65.5746870  50.3722870  32.0099460  64.9148240
  49.1361380  32.2815560  65.7455120  38.2454730  28.9841840  58.4734360
  39.1149580  29.2666640  58.7570280  37.7545050  29.7977710  58.3583170
  41.3101320  20.7152700  63.0665160  41.1815950  20.7070600  64.0150080
  40.4863340  21.0535790  62.7156170  38.6125980  38.1969220  59.0395990
  38.9723620  38.7958560  58.3853260  38.4718320  38.7429110  59.8131020
  38.3095250  22.4743820  72.5271860  37.5953770  22.6740740  73.1324470
  38.7290290  21.6983390  72.8986660  38.5967840  36.4624080  73.5138390
  38.7058960  35.5218820  73.3733780  37.9448400  36.7278830  72.8652120
  44.6294600  35.5800420  59.8569660  44.6204700  36.3130110  59.2414170
  43.7092960  35.3332000  59.9496620  53.1696060  23.9223070  61.0860870
  52.5409220  24.0268740  60.3719100  52.6747980  24.1419850  61.8754750
  47.6154200  35.6428660  58.5194850  47.7166180  35.4392650  57.5896830
  46.7155940  35.3886940  58.7242630  45.1380090  26.2009020  62.5018750
  44.4296240  26.6695360  62.9432360  45.4224570  25.5431030  63.1363940
  49.1695520  22.9259680  63.9414540  49.0463300  22.9445810  62.9924050
  50.1180080  22.9738620  64.0612940  43.3415110  24.5094100  59.8769460
  44.1905640  24.9464250  59.8109650  42.9746380  24.8214360  60.7041520
  53.9702880  23.8373680  71.3439670  53.4676480  24.5779080  71.6833480
  54.7859540  24.2257680  71.0276460  52.2624890  29.0806860  64.7901030
  51.3215030  29.0957090  64.9648720  52.5768960  28.2942820  65.2361330
  42.2406530  30.7626460  58.3504990  43.0069800  30.6507820  58.9130420
  42.3181220  30.0664430  57.6981760  40.9353290  28.1951530  59.0337880
  41.0156880  27.2479040  59.1455280  41.8273040  28.5258410  59.1398540
  54.2650470  36.2515710  66.4655290  54.3897890  37.0746880  66.9379100
  55.1316030  36.0406440  66.1179440  41.7368000  38.3446920  66.1372420
  42.4730480  37.7962380  66.4080990  42.1208920  39.2102930  65.9978410
  44.8470310  37.5177230  57.9597990  45.6398920  37.8066060  57.5079780
  44.3274660  37.0869400  57.2810470  38.4624090  30.0166450  74.2694050
  38.9663110  29.4373730  74.8410280  37.7231510  30.3006680  74.8070420
  45.3647710  32.7380640  57.8240340  45.2598350  32.1232990  58.5501720
  45.1971930  32.2146530  57.0403350  45.5162030  31.4237440  73.8029570
  44.7507700  31.9922440  73.7184240  45.6977990  31.1313650  72.9097800
  48.6050440  31.8000670  58.4282330  48.0560540  32.2469970  59.0725070
  49.2269700  31.2949920  58.9520000  40.4947170  28.1596040  75.1644120
  40.5352510  27.8609910  76.0729350  41.3492670  28.5603650  75.0051640
  44.2725560  30.7591590  60.3247630  44.6941980  30.5931460  61.1679020
  44.3976400  29.9491820  59.8302770  42.4352980  26.7388140  73.1318610
  41.9049440  26.2479090  72.5041950  43.1041050  27.1672340  72.5976540
  46.7853200  29.7829200  57.5724730  47.3058860  29.0678220  57.2065880
  47.4321600  30.4215070  57.8725240  51.8053210  28.5453760  74.8998950
  52.3873980  27.7906080  74.8119430  51.9814980  29.0761200  74.1230430
  50.7698070  29.4431450  70.8256080  50.2433290  29.9674070  70.2221220
  51.1129410  30.0758840  71.4565810  43.1684460  26.8324820  57.2705790
  42.9673520  25.9692180  57.6319130  42.9976510  26.7458180  56.3327390
  43.9453690  37.4631090  71.9813460  43.4074780  38.1877150  71.6622160
  44.1987650  36.9861430  71.1910800  50.6472770  21.6433050  59.7992670
  50.9275060  20.8000950  60.1552090  49.8738500  21.8756160  60.3131420
  41.9667260  23.9325440  57.2583670  42.2693160  23.9392870  56.3502820
  42.7061850  23.5823300  57.7551330  46.8015900  38.6982300  72.2400110
  46.7274600  39.6017440  72.5472480  45.8994740  38.3794200  72.2122180
  45.1852190  22.8760060  58.2439870  44.8374190  22.1984050  57.6642320
  45.3864960  22.4149570  59.0583260  40.9897390  33.2367860  58.0913470
  41.4272260  33.7797530  58.7471050  41.4745120  32.4114810  58.1009810
  42.8005110  34.3565900  63.2035700  42.5000650  34.2330870  64.1039610
  42.6942600  33.4974490  62.7951430  38.6933400  36.8927480  68.2815360
  38.2564390  37.0728280  69.1139510  39.2611080  37.6502100  68.1397080
  55.5697030  34.1362300  57.9062380  54.7389990  34.2038950  58.3769610
  55.7468860  35.0266420  57.6029240  55.0253490  30.8809780  60.4096580
  55.7872400  31.4506430  60.5156270  55.0407860  30.3136980  61.1804890
  38.5257830  29.4047710  64.6404240  37.8706670  29.1359350  63.9963940
  39.3635780  29.2952190  64.1906220  56.0313460  31.7359880  65.2538510
  56.4022290  30.9527200  64.8474480  56.6715390  32.4248980  65.0755810
  55.0772660  31.1744150  57.5669100  55.3521500  32.0823030  57.4388320
  54.8883400  31.1106680  58.5031090  54.9738000  29.1113140  62.5598530
  54.5981600  28.3441070  62.1279820  54.2441120  29.4935840  63.0473460
  39.1149760  26.7009370  73.0866000  38.2205810  26.6676130  73.4259710
  39.6547310  26.8996160  73.8517250  52.8025690  23.4841090  74.9717750
  53.6795870  23.4924490  75.3551750  52.8146530  22.7471930  74.3610100
  37.7395910  26.6146640  60.5829570  36.8359990  26.8776840  60.4081230
  38.2236530  26.8857810  59.8029530  54.2488960  27.3370630  65.8605770
  54.7726440  26.8433280  65.2295940  54.8348380  27.4720990  66.6053340
  54.4278680  27.4210500  69.3825320  53.4781390  27.3874040  69.4970310
  54.6091690  28.3310610  69.1475090  40.2823120  25.6712180  58.4923950
  40.9914820  25.2495400  58.0071230  39.5663060  25.7387410  57.8607300
  39.9297280  21.7251510  57.5326600  40.6525410  22.2660450  57.8507820
  40.2021800  21.4514930  56.6568140  53.7388930  26.5943980  61.7998180
  54.2348050  26.3614850  62.5847060  53.5405000  25.7555820  61.3835820
  39.6189470  20.9757700  67.4349220  40.2665660  20.4255080  66.9944380
  40.0391310  21.2300850  68.2565030  55.1676090  25.2304930  64.3335860
  55.0575370  25.0760970  65.2718130  55.9283680  24.7025870  64.0911270
  53.5141810  21.1699060  70.7918860  54.1514030  21.7833200  71.1578050
  53.6616700  21.2059720  69.8468090  39.3721470  21.1313370  70.1774540
  39.0236290  21.5877190  70.9432720  39.0409170  20.2370500  70.2596970
  40.9785840  34.3032970  74.3427730  40.9355470  33.9325880  75.2242190
  41.1096850  35.2410540  74.4829550  44.6791870  35.8592560  69.9437450
  44.4383230  36.1267120  69.0567970  45.6194510  36.0298290  69.9988310
  55.9396030  37.8786940  70.7448090  55.4454310  38.2755810  70.0275220
  55.3309320  37.2536150  71.1385370  40.0442110  20.6589570  73.4525310
  40.5925100  20.4777620  72.6891420  40.1097420  19.8683680  73.9881620
  40.8173870  37.2495220  71.4625510  40.2234190  37.1179920  72.2015550
  40.8097710  36.4133360  70.9967610  40.4486100  34.6153600  70.4133550
  39.7220160  33.9958890  70.3459500  40.5095250  35.0094210  69.5431630
  44.0531200  36.8298600  67.1982960  44.5696220  36.2185960  66.6731220
  44.7028580  37.3327380  67.6893970  54.4263350  21.7935630  64.6606360
  54.3651750  20.8496850  64.5137380  55.2055380  21.9015720  65.2059820
  38.7316100  37.9327990  63.6230310  38.5638140  37.2998670  64.3212200
  37.8650610  38.1387390  63.2724500  39.3544120  21.7644770  61.1262170
  40.1123480  21.8773650  60.5526200  38.8921290  22.6013970  61.0805600
  53.5417510  20.9448050  60.6287830  53.7368140  21.8431500  60.8955260
  52.7547380  20.7135130  61.1220780  41.7269270  22.2908820  59.6664140
  42.2562030  21.5038620  59.5372090  42.3597590  22.9700010  59.8999670
  46.8599060  38.6423190  75.3920140  47.7866370  38.4067460  75.4356100
  46.8449490  39.4695190  74.9106170  44.0462670  21.3067940  75.1562020
  43.7646940  21.8101540  74.3922840  44.4282370  20.5089690  74.7904150
  42.9371770  38.5743600  59.9429700  43.6690590  38.2902880  59.3953590
  43.1965440  38.3356880  60.8329080  42.0986560  34.6908330  59.9476030
  41.4695440  35.1593430  60.4961860  42.2134390  33.8457550  60.3822220
  50.6478130  20.7221520  75.7342490  50.5343580  21.0416130  76.6294010
  51.4647870  21.1234030  75.4379770  53.4276620  37.8693050  75.2161180
  54.2201940  37.3742280  75.0087140  53.7209770  38.5483190  75.8236790
  49.5536280  28.7413990  46.0977230  49.4730330  27.8268600  45.8268940
  49.1400700  29.2381060  45.3916940  47.6854320  30.5193010  47.9786500
  46.9096420  30.0393450  48.2685070  48.3367250  29.8398660  47.8042660
  41.7020150  30.8312820  48.8562260  40.8705030  30.5761530  49.2558770
  42.3101130  30.9023590  49.5920180  51.7061750  34.9253200  46.7585630
  51.2443280  34.1540440  47.0872800  52.5187300  34.9519270  47.2638080
  40.1112100  25.7914710  42.6404650  39.2228800  26.1330680  42.5384530
  40.3953290  25.5915030  41.7485480  38.0745110  28.3920360  48.5244350
  38.6461220  27.6242560  48.5247990  38.0746650  28.6909120  47.6150960
  47.9325060  37.2111210  46.3789620  47.3136500  37.6668710  45.8084060
  48.7876840  37.3662670  45.9779320  47.1263310  33.1950200  47.9856660
  47.0571590  32.2540140  47.8245790  47.8883170  33.2851610  48.5579230
  39.3169980  23.8004720  50.3113280  39.1372820  22.9030470  50.5916040
  38.9150060  24.3476590  50.9860230  48.1568480  26.0020580  48.2125590
  48.5333300  25.1292460  48.0999260  48.0587990  26.3379280  47.3216030
  42.2873490  24.3746210  43.6743030  42.3940240  25.2749940  43.9811790
  41.3765850  24.3264180  43.3837680  51.9392600  23.4971020  45.1453930
  52.7602220  23.0067590  45.1879410  51.9726680  24.0868680  45.8985770
  39.9356650  26.2965220  48.9195620  40.6166760  26.5603590  49.5383020
  39.6204700  25.4566090  49.2533630  44.1281220  27.3432580  48.0068210
  44.6359440  27.8413550  48.6473230  44.6594460  26.5667780  47.8307570
  42.4117320  21.9831140  52.2731630  42.4135760  22.5003530  51.4677530
  41.5821630  21.5061320  52.2501560  48.7988410  32.0950450  43.7721530
  48.1805680  32.5599900  43.2084250  49.3111660  32.7877930  44.1891040
  43.6620170  31.6226320  50.4505130  43.3289550  32.2495240  51.0926200
  43.8386850  32.1488200  49.6706800  52.1754080  25.4371400  47.9181470
  51.4709650  25.7256290  48.4984580  52.5366240  26.2471510  47.5581030
  42.0932650  23.6941100  50.2802080  42.4349460  24.5383150  49.9855950
  41.1548460  23.8424840  50.3967420  42.8739270  33.5907120  52.2654310
  43.4913270  34.2658200  51.9838760  42.0132390  33.9995100  52.1741810
  38.1671610  32.7806980  41.1461160  37.7899590  33.2694080  40.4146060
  38.4244680  33.4532260  41.7767690  55.2441000  24.8826190  48.3090680
  54.2965910  24.9165170  48.4406110  55.5690990  25.6965140  48.6940040
  45.7760540  21.1823370  46.6046670  46.0835520  20.6270260  45.8882170
  44.8461240  21.3167830  46.4219660  51.3275600  36.8990660  48.8954130
  51.3402760  36.4952950  48.0276390  50.7750820  37.6737950  48.7915560
  52.6221020  33.6206880  43.9844300  52.5117350  32.6781210  44.1093720
  52.6189270  33.9822520  44.8707060  48.1641300  29.2472200  43.3406790
  47.2370580  29.1809580  43.5695260  48.3166120  30.1852330  43.2262030
  48.1510380  25.5189200  40.3373950  47.2114050  25.6803160  40.4226410
  48.4693640  26.2374880  39.7909940  52.1938590  30.8092500  43.8442040
  51.5751010  30.4712050  43.1968340  52.1763040  30.1652260  44.5521230
  43.7697940  29.7736940  46.1226520  43.3654940  29.0614190  45.6272420
  43.8561060  29.4290180  47.0114560  52.3265250  37.0336370  51.9488830
  51.8495810  37.8408560  51.7561440  51.6427040  36.3814700  52.1015040
  43.3298070  33.1986190  54.9373530  42.4326600  33.4226160  55.1846930
  43.3550940  33.3221130  53.9884930  50.3703290  30.0479310  40.8514790
  50.8096570  29.2101740  40.7052610  51.0831710  30.6808710  40.9378930
  42.1569290  30.0699510  53.5130900  42.0177060  30.9422310  53.8818300
  41.2750650  29.7272320  53.3678840  48.4798670  34.9875380  44.8196030
  48.9194580  35.7299710  44.4051420  48.4185560  35.2301950  45.7434990
  43.9549640  36.0121210  55.7216050  43.9265070  36.4164160  54.8544480
  43.7914610  35.0831570  55.5587650  53.9520430  21.3022120  39.1655830
  53.6393090  21.3948950  40.0654900  54.7132900  21.8803150  39.1153260
  40.4702570  28.6681920  43.6233170  40.3500170  29.3944010  43.0114440
  40.1603460  27.8984830  43.1461080  55.9064460  36.7948310  57.0180220
  56.3824180  37.2731200  57.6969300  56.5271620  36.7265800  56.2925720
  38.1087940  31.8397060  49.4301810  38.1868360  31.9745830  48.4857530
  38.7229620  31.1312950  49.6229930  51.1468850  37.9744500  42.1759040
  50.9869990  37.6847440  43.0740870  50.9815560  37.1984630  41.6404270
  50.8494980  35.4832060  40.7357040  50.1560140  35.4809350  40.0759320
  51.5917840  35.0591380  40.3051210  50.4144910  37.1094770  44.8105530
  50.8701860  36.3284150  45.1244150  50.7537430  37.8201590  45.3546710
  38.1647460  32.8811230  51.9696270  38.3278500  32.4116590  51.1515640
  38.6299910  32.3734790  52.6345110  42.9366230  22.0116990  47.0056840
  42.4934380  22.7926530  46.6741360  43.4951220  22.3346880  47.7127780
  49.3190260  27.5996210  55.8387610  49.6443670  26.7659960  55.4989840
  50.1070590  28.1224730  55.9865940  46.0525050  21.6327690  41.8862670
  45.4279230  21.6287560  42.6115980  45.9655170  20.7658650  41.4898640
  44.9742130  22.5564320  48.8646440  45.2714460  23.4627150  48.7838460
  45.5227690  22.0683100  48.2506010  42.7280450  27.1350560  44.7338090
  42.5021370  26.9187730  45.6384710  41.9472980  27.5679020  44.3884060
  49.9578210  27.1413930  43.3328740  49.3587100  27.8649730  43.1492360
  50.5057820  27.0790710  42.5505190  48.5643080  25.7777470  45.3632020
  48.9572650  26.0949670  44.5500710  48.9259930  24.8989350  45.4776540
  40.2990200  24.4449810  53.5532140  39.9053590  25.2925020  53.7604920
  39.6108600  23.8076180  53.7440780  46.8735250  24.5284780  56.6228880
  46.1833570  24.3356980  57.2574970  47.6167550  24.8119420  57.1553180
  37.6007250  22.3678270  47.5862220  37.3120300  22.9381130  48.2987200
  38.3453010  21.8882720  47.9493450  37.7877480  26.3098390  38.7964940
  37.7052150  27.2529150  38.9379930  37.4360540  26.1673300  37.9177290
  49.1498220  28.3683220  49.4582800  48.4179340  28.8770030  49.8072900
  48.7522560  27.5513200  49.1571580  45.5875610  25.0437420  47.8635290
  45.5911670  24.6027370  47.0139830  46.4826730  25.3654750  47.9707110
  41.4377990  24.9263910  46.8229500  41.0978040  25.4039140  47.5796550
  40.6755310  24.4729030  46.4630600  45.6495760  26.0449500  40.8542050
  45.7708580  26.0035980  41.8027870  45.2644270  26.9073650  40.6988780
  49.6124130  23.8216900  48.8705740  49.6296870  24.2725550  49.7147590
  49.3639710  22.9222540  49.0839180  44.6617260  28.3550640  40.2525350
  44.0934160  27.9068890  39.6261260  45.3706260  28.7143420  39.7190500
  39.7386440  32.2562660  54.1292080  39.3541230  31.6156330  54.7275040
  40.0498630  32.9598780  54.6986810  38.7524070  23.8482890  45.7394170
  38.4670990  23.4838560  46.5772790  38.6902930  23.1163350  45.1257310
  48.4262660  22.7412150  42.4607540  47.6127270  22.2425320  42.3852850
  48.2324610  23.5810400  42.0443890  51.1411050  27.1131800  40.7569700
  52.0290670  27.4249030  40.5821040  51.1116140  26.2404050  40.3650280
  47.1371640  33.2855490  41.4357870  47.4787340  34.0297720  40.9401190
  46.3084350  33.5986610  41.7982700  39.7346680  28.9850580  53.0756270
  39.3761620  29.6504430  53.6629610  39.4401240  28.1534130  53.4468890
  53.4125320  28.4243640  40.2249560  53.3289040  28.8557860  39.3746000
  54.1319510  28.8841990  40.6576380  54.4412570  35.2785900  42.9531690
  53.7988730  34.6241520  43.2275410  54.0543230  35.6840990  42.1772360
  50.0199050  32.6071330  46.8003380  50.3722870  32.0099460  46.1404750
  49.1361380  32.2815560  46.9711630  38.2454730  28.9841840  39.6990870
  39.1149580  29.2666640  39.9826790  37.7545050  29.7977710  39.5839680
  45.4089540  30.3715050  43.8199150  45.8652320  31.1820300  44.0459340
  45.0577750  30.0538190  44.6517640  47.7122150  35.8821390  51.0491450
  48.3564370  36.0880770  51.7264870  48.0751590  35.1209790  50.5962300
  41.3101320  20.7152700  44.2921670  41.1815950  20.7070600  45.2406590
  40.4863340  21.0535790  43.9412680  48.9854230  33.8853740  49.7668900
  49.6276460  33.1846900  49.8801070  49.5103580  34.6652180  49.5865790
  52.8309950  34.1702360  39.4908040  52.6047530  33.4532800  40.0832680
  52.4406150  33.9214800  38.6529790  38.6125980  38.1969220  40.2652500
  38.9723620  38.7958560  39.6109770  38.4718320  38.7429110  41.0387530
  38.3095250  22.4743820  53.7528370  37.5953770  22.6740740  54.3580980
  38.7290290  21.6983390  54.1243170  52.4126200  32.0874300  41.1522200
  52.1247900  32.5486990  41.9400080  53.2078370  31.6272070  41.4206420
  38.5967840  36.4624080  54.7394900  38.7058960  35.5218820  54.5990290
  37.9448400  36.7278830  54.0908630  46.5880430  34.7339970  56.1393020
  46.2677300  34.0149210  56.6838710  45.9138790  35.4095040  56.2129080
  44.6294600  35.5800420  41.0826170  44.6204700  36.3130110  40.4670680
  43.7092960  35.3332000  41.1753130  40.2301240  30.8015310  41.8272930
  39.6229190  31.5414210  41.8368230  40.7050590  30.8914670  41.0011130
  49.8034030  24.9666130  51.5029820  50.1714850  24.1461340  51.8309390
  48.9432230  25.0268020  51.9185470  53.1696060  23.9223070  42.3117380
  52.5409220  24.0268740  41.5975610  52.6747980  24.1419850  43.1011260
  47.6154200  35.6428660  39.7451360  47.7166180  35.4392650  38.8153340
  46.7155940  35.3886940  39.9499140  45.1380090  26.2009020  43.7275260
  44.4296240  26.6695360  44.1688870  45.4224570  25.5431030  44.3620450
  49.1695520  22.9259680  45.1671050  49.0463300  22.9445810  44.2180560
  50.1180080  22.9738620  45.2869450  46.2572310  38.1614980  44.4399030
  46.5113810  38.1236370  43.5178400  45.3084790  38.0348310  44.4327280
  43.3415110  24.5094100  41.1025970  44.1905640  24.9464250  41.0366160
  42.9746380  24.8214360  41.9298030  52.2624890  29.0806860  46.0157540
  51.3215030  29.0957090  46.1905230  52.5768960  28.2942820  46.4617840
  42.2406530  30.7626460  39.5761500  43.0069800  30.6507820  40.1386930
  42.3181220  30.0664430  38.9238270  40.9353290  28.1951530  40.2594390
  41.0156880  27.2479040  40.3711790  41.8273040  28.5258410  40.3655050
  54.2650470  36.2515710  47.6911800  54.3897890  37.0746880  48.1635610
  55.1316030  36.0406440  47.3435950  40.7426280  37.5292990  56.5514510
  41.5439010  37.8505040  56.9649910  40.2278100  37.1688570  57.2734420
  44.8470310  37.5177230  39.1854500  45.6398920  37.8066060  38.7336290
  44.3274660  37.0869400  38.5066980  53.9000480  36.7447360  40.6091240
  53.6141990  36.3312500  39.7945420  53.7020030  37.6735070  40.4891760
  38.4624090  30.0166450  55.4950560  38.9663110  29.4373730  56.0666790
  37.7231510  30.3006680  56.0326930  45.3647710  32.7380640  39.0496850
  45.2598350  32.1232990  39.7758230  45.1971930  32.2146530  38.2659860
  45.5162030  31.4237440  55.0286080  44.7507700  31.9922440  54.9440750
  45.6977990  31.1313650  54.1354310  48.6050440  31.8000670  39.6538840
  48.0560540  32.2469970  40.2981580  49.2269700  31.2949920  40.1776510
  40.4947170  28.1596040  56.3900630  40.5352510  27.8609910  57.2985860
  41.3492670  28.5603650  56.2308150  44.2725560  30.7591590  41.5504140
  44.6941980  30.5931460  42.3935530  44.3976400  29.9491820  41.0559280
  46.7853200  29.7829200  38.7981240  47.3058860  29.0678220  38.4322390
  47.4321600  30.4215070  39.0981750  45.6886720  22.2623750  51.4699800
  45.2404020  22.2848010  50.6245350  45.0551920  21.8642770  52.0670100
  46.0946270  31.1578080  52.0912240  46.5134380  32.0010810  51.9188480
  45.1754900  31.2950120  51.8619020  43.1684460  26.8324820  38.4962300
  42.9673520  25.9692180  38.8575640  42.9976510  26.7458180  37.5583900
  43.9453690  37.4631090  53.2069970  43.4074780  38.1877150  52.8878670
  44.1987650  36.9861430  52.4167310  50.0172370  25.0481420  54.9658920
  49.3287890  24.3862960  54.9008910  50.7378390  24.6019690  55.4107380
  50.6472770  21.6433050  41.0249180  50.9275060  20.8000950  41.3808600
  49.8738500  21.8756160  41.5387930  41.9667260  23.9325440  38.4840180
  42.2693160  23.9392870  37.5759330  42.7061850  23.5823300  38.9807840
  45.1852190  22.8760060  39.4696380  44.8374190  22.1984050  38.8898830
  45.3864960  22.4149570  40.2839770  47.3501230  37.8640810  41.0882980
  48.2452020  38.2025780  41.1101740  47.3818860  37.1420220  40.4607260
  40.9897390  33.2367860  39.3169980  41.4272260  33.7797530  39.9727560
  41.4745120  32.4114810  39.3266320  55.5697030  34.1362300  39.1318890
  54.7389990  34.2038950  39.6026120  55.7468860  35.0266420  38.8285750
  55.0253490  30.8809780  41.6353090  55.7872400  31.4506430  41.7412780
  55.0407860  30.3136980  42.4061400  38.5257830  29.4047710  45.8660750
  37.8706670  29.1359350  45.2220450  39.3635780  29.2952190  45.4162730
  55.0772660  31.1744150  38.7925610  55.3521500  32.0823030  38.6644830
  54.8883400  31.1106680  39.7287600  51.4748270  24.1989000  40.0879240
  51.8933150  24.0119980  39.2475900  51.1684330  23.3468050  40.3982170
  39.5633760  29.7900280  50.4064090  39.9306800  29.7027680  51.2860110
  38.9944580  29.0266830  50.3070950  39.1149760  26.7009370  54.3122510
  38.2205810  26.6676130  54.6516220  39.6547310  26.8996160  55.0773760
  37.7395910  26.6146640  41.8086080  36.8359990  26.8776840  41.6337740
  38.2236530  26.8857810  41.0286040  54.2488960  27.3370630  47.0862280
  54.7726440  26.8433280  46.4552450  54.8348380  27.4720990  47.8309850
  40.2823120  25.6712180  39.7180460  40.9914820  25.2495400  39.2327740
  39.5663060  25.7387410  39.0863810  39.9297280  21.7251510  38.7583110
  40.6525410  22.2660450  39.0764330  40.2021800  21.4514930  37.8824650
  53.7388930  26.5943980  43.0254690  54.2348050  26.3614850  43.8103570
  53.5405000  25.7555820  42.6092330  39.6189470  20.9757700  48.6605730
  40.2665660  20.4255080  48.2200890  40.0391310  21.2300850  49.4821540
  55.1676090  25.2304930  45.5592370  55.0575370  25.0760970  46.4974640
  55.9283680  24.7025870  45.3167780  53.5141810  21.1699060  52.0175370
  54.1514030  21.7833200  52.3834560  53.6616700  21.2059720  51.0724600
  56.0566360  23.0612850  38.7998510  56.9815670  22.9294030  38.5916800
  56.0342150  23.1405670  39.7534960  56.1304850  23.8323510  41.4255220
  55.3356350  23.7668630  41.9548130  56.3348130  24.7674150  41.4140570
  53.0723270  37.8715060  45.4193610  53.6682340  37.5499630  44.7428030
  53.3301420  37.3986880  46.2106880  39.3721470  21.1313370  51.4031050
  39.0236290  21.5877190  52.1689230  39.0409170  20.2370500  51.4853480
  40.9785840  34.3032970  55.5684240  40.9355470  33.9325880  56.4498700
  41.1096850  35.2410540  55.7086060  44.6791870  35.8592560  51.1693960
  44.4383230  36.1267120  50.2824480  45.6194510  36.0298290  51.2244820
  46.8846290  22.3225250  54.9250470  46.8235180  22.9147080  55.6745880
  47.8246670  22.2151210  54.7800730  49.5220850  21.9795310  54.5642760
  50.1361260  22.2974600  53.9023840  50.0670410  21.4943900  55.1838620
  55.9396030  37.8786940  51.9704600  55.4454310  38.2755810  51.2531730
  55.3309320  37.2536150  52.3641880  40.0442110  20.6589570  54.6781820
  40.5925100  20.4777620  53.9147930  40.1097420  19.8683680  55.2138130
  50.2628890  20.5427450  50.8912050  49.3888730  20.8762560  50.6884980
  50.1539640  20.0700630  51.7163920  53.6235480  38.5210360  49.2491340
  53.1638450  39.2726170  48.8749360  52.9947940  37.8016830  49.1906140
  40.4486100  34.6153600  51.6390060  39.7220160  33.9958890  51.5716010
  40.5095250  35.0094210  50.7688140  46.7926700  37.7207090  49.2508450
  47.0804510  37.4661390  48.3741460  47.3049920  37.1684450  49.8414020
  48.0103710  21.4597290  49.8304960  47.2275500  21.9342790  50.1101720
  47.7166640  20.5552120  49.7218140  52.5624780  22.1620390  47.8754050
  53.0032870  22.1065490  47.0275650  52.2932370  23.0778400  47.9464230
  54.4263350  21.7935630  45.8862870  54.3651750  20.8496850  45.7393890
  55.2055380  21.9015720  46.4316330  39.3544120  21.7644770  42.3518680
  40.1123480  21.8773650  41.7782710  38.8921290  22.6013970  42.3062110
  45.8957930  23.8784040  45.3420990  45.0832440  23.5040930  45.0016870
  46.3999570  23.1229120  45.6442180  50.3982910  20.5426490  46.5804060
  51.0012280  21.1146700  47.0552580  49.6575900  21.1065930  46.3577960
  53.5417510  20.9448050  41.8544340  53.7368140  21.8431500  42.1211770
  52.7547380  20.7135130  42.3477290  41.7269270  22.2908820  40.8920650
  42.2562030  21.5038620  40.7628600  42.3597590  22.9700010  41.1256180
  43.9207110  22.0283960  43.9466040  43.2909850  21.3271270  44.1136170
  43.3812250  22.7888090  43.7299200  55.0944120  38.1848760  43.6150900
  55.2696310  37.4986500  42.9711820  54.3965690  38.7095810  43.2227570
  44.0462670  21.3067940  56.3818530  43.7646940  21.8101540  55.6179350
  44.4282370  20.5089690  56.0160660  42.9371770  38.5743600  41.1686210
  43.6690590  38.2902880  40.6210100  43.1965440  38.3356880  42.0585590
  50.6478130  20.7221520  56.9599000  50.5343580  21.0416130  57.8550520
  51.4647870  21.1234030  56.6636280  49.5536280  28.7413990  27.3233740
  49.4730330  27.8268600  27.0525450  49.1400700  29.2381060  26.6173450
  47.6854320  30.5193010  29.2043010  46.9096420  30.0393450  29.4941580
  48.3367250  29.8398660  29.0299170  41.7020150  30.8312820  30.0818770
  40.8705030  30.5761530  30.4815280  42.3101130  30.9023590  30.8176690
  51.7061750  34.9253200  27.9842140  51.2443280  34.1540440  28.3129310
  52.5187300  34.9519270  28.4894590  41.6821410  34.8652910  30.2776790
  41.9849450  33.9750650  30.0987010  42.4265000  35.4223130  30.0499040
  40.1112100  25.7914710  23.8661160  39.2228800  26.1330680  23.7641040
  40.3953290  25.5915030  22.9741990  38.0745110  28.3920360  29.7500860
  38.6461220  27.6242560  29.7504500  38.0746650  28.6909120  28.8407470
  47.9325060  37.2111210  27.6046130  47.3136500  37.6668710  27.0340570
  48.7876840  37.3662670  27.2035830  47.1263310  33.1950200  29.2113170
  47.0571590  32.2540140  29.0502300  47.8883170  33.2851610  29.7835740
  39.3169980  23.8004720  31.5369790  39.1372820  22.9030470  31.8172550
  38.9150060  24.3476590  32.2116740  48.1568480  26.0020580  29.4382100
  48.5333300  25.1292460  29.3255770  48.0587990  26.3379280  28.5472540
  42.2873490  24.3746210  24.8999540  42.3940240  25.2749940  25.2068300
  41.3765850  24.3264180  24.6094190  51.9392600  23.4971020  26.3710440
  52.7602220  23.0067590  26.4135920  51.9726680  24.0868680  27.1242280
  39.9356650  26.2965220  30.1452130  40.6166760  26.5603590  30.7639530
  39.6204700  25.4566090  30.4790140  44.1281220  27.3432580  29.2324720
  44.6359440  27.8413550  29.8729740  44.6594460  26.5667780  29.0564080
  56.2292150  25.5137770  32.9354070  55.5244320  25.9019480  32.4169180
  56.4950070  26.2088060  33.5375000  42.4117320  21.9831140  33.4988140
  42.4135760  22.5003530  32.6934040  41.5821630  21.5061320  33.4758070
  48.7988410  32.0950450  24.9978040  48.1805680  32.5599900  24.4340760
  49.3111660  32.7877930  25.4147550  43.6620170  31.6226320  31.6761640
  43.3289550  32.2495240  32.3182710  43.8386850  32.1488200  30.8963310
  52.1754080  25.4371400  29.1437980  51.4709650  25.7256290  29.7241090
  52.5366240  26.2471510  28.7837540  42.0932650  23.6941100  31.5058590
  42.4349460  24.5383150  31.2112460  41.1548460  23.8424840  31.6223930
  42.8739270  33.5907120  33.4910820  43.4913270  34.2658200  33.2095270
  42.0132390  33.9995100  33.3998320  38.1671610  32.7806980  22.3717670
  37.7899590  33.2694080  21.6402570  38.4244680  33.4532260  23.0024200
  53.7916860  35.0546530  31.4065460  53.1080380  35.7245640  31.3982130
  54.3311150  35.2527180  30.6410320  55.2441000  24.8826190  29.5347190
  54.2965910  24.9165170  29.6662620  55.5690990  25.6965140  29.9196550
  45.7760540  21.1823370  27.8303180  46.0835520  20.6270260  27.1138680
  44.8461240  21.3167830  27.6476170  51.3275600  36.8990660  30.1210640
  51.3402760  36.4952950  29.2532900  50.7750820  37.6737950  30.0172070
  52.6221020  33.6206880  25.2100810  52.5117350  32.6781210  25.3350230
  52.6189270  33.9822520  26.0963570  50.7261040  31.8020500  31.4493250
  51.1429830  31.5880610  30.6146710  51.4500860  32.0593290  32.0201870
  48.1641300  29.2472200  24.5663300  47.2370580  29.1809580  24.7951770
  48.3166120  30.1852330  24.4518540  48.1510380  25.5189200  21.5630460
  47.2114050  25.6803160  21.6482920  48.4693640  26.2374880  21.0166450
  54.6723140  30.2007720  31.5409490  53.8441770  30.2700810  31.0659620
  55.2673620  30.7862030  31.0725320  52.1938590  30.8092500  25.0698550
  51.5751010  30.4712050  24.4224850  52.1763040  30.1652260  25.7777740
  51.6365150  26.9877040  32.4864360  51.2236330  27.8130750  32.7404350
  50.9041100  26.4022080  32.2940720  43.7697940  29.7736940  27.3483030
  43.3654940  29.0614190  26.8528930  43.8561060  29.4290180  28.2371070
  44.2379640  33.4604500  29.5122240  43.9407930  32.8549970  28.8330020
  45.1879460  33.4981810  29.4011600  42.4826560  26.5480150  31.1282070
  43.0341150  26.6575490  30.3535320  42.9970070  26.9217750  31.8437300
  52.3265250  37.0336370  33.1745340  51.8495810  37.8408560  32.9817950
  51.6427040  36.3814700  33.3271550  43.3298070  33.1986190  36.1630040
  42.4326600  33.4226160  36.4103440  43.3550940  33.3221130  35.2141440
  50.3703290  30.0479310  22.0771300  50.8096570  29.2101740  21.9309120
  51.0831710  30.6808710  22.1635440  42.1569290  30.0699510  34.7387410
  42.0177060  30.9422310  35.1074810  41.2750650  29.7272320  34.5935350
  48.4798670  34.9875380  26.0452540  48.9194580  35.7299710  25.6307930
  48.4185560  35.2301950  26.9691500  43.9549640  36.0121210  36.9472560
  43.9265070  36.4164160  36.0800990  43.7914610  35.0831570  36.7844160
  53.9520430  21.3022120  20.3912340  53.6393090  21.3948950  21.2911410
  54.7132900  21.8803150  20.3409770  40.4702570  28.6681920  24.8489680
  40.3500170  29.3944010  24.2370950  40.1603460  27.8984830  24.3717590
  55.9064460  36.7948310  38.2436730  56.3824180  37.2731200  38.9225810
  56.5271620  36.7265800  37.5182230  38.1087940  31.8397060  30.6558320
  38.1868360  31.9745830  29.7114040  38.7229620  31.1312950  30.8486440
  39.3535570  33.5397250  27.0664500  38.9463650  33.6811840  26.2118100
  40.2448580  33.2557410  26.8635710  55.3097710  33.9861160  35.4036740
  55.4360770  33.7473040  34.4853920  55.3519090  33.1545700  35.8758820
  49.1714450  37.6889160  33.9731550  49.6859120  37.5997170  34.7753980
  48.3283530  38.0348860  34.2659460  51.1468850  37.9744500  23.4015550
  50.9869990  37.6847440  24.2997380  50.9815560  37.1984630  22.8660780
  43.6257230  37.7543030  25.1787170  43.4499710  36.8378570  24.9654970
  42.7712970  38.1130320  25.4184970  50.8494980  35.4832060  21.9613550
  50.1560140  35.4809350  21.3015830  51.5917840  35.0591380  21.5307720
  50.4144910  37.1094770  26.0362040  50.8701860  36.3284150  26.3500660
  50.7537430  37.8201590  26.5803220  55.1621720  26.0393620  36.3686480
  54.5465990  26.5473290  35.8401940  54.8418140  25.1391950  36.3112420
  38.1647460  32.8811230  33.1952780  38.3278500  32.4116590  32.3772150
  38.6299910  32.3734790  33.8601620  42.9366230  22.0116990  28.2313350
  42.4934380  22.7926530  27.8997870  43.4951220  22.3346880  28.9384290
  47.2236040  24.8785510  33.8348670  46.7615410  25.0868530  34.6468610
  46.8214150  24.0644860  33.5319340  52.2240550  26.0994460  34.9645330
  51.3734140  25.8000210  35.2854400  52.0642340  26.3436470  34.0529150
  49.3190260  27.5996210  37.0644120  49.6443670  26.7659960  36.7246350
  50.1070590  28.1224730  37.2122450  46.0525050  21.6327690  23.1119180
  45.4279230  21.6287560  23.8372490  45.9655170  20.7658650  22.7155150
  44.9742130  22.5564320  30.0902950  45.2714460  23.4627150  30.0094970
  45.5227690  22.0683100  29.4762520  42.7280450  27.1350560  25.9594600
  42.5021370  26.9187730  26.8641220  41.9472980  27.5679020  25.6140570
  49.9578210  27.1413930  24.5585250  49.3587100  27.8649730  24.3748870
  50.5057820  27.0790710  23.7761700  45.1679660  28.0336140  36.6254870
  45.0723260  27.0930870  36.4755270  46.0111640  28.2551210  36.2302940
  48.5643080  25.7777470  26.5888530  48.9572650  26.0949670  25.7757220
  48.9259930  24.8989350  26.7033050  40.2990200  24.4449810  34.7788650
  39.9053590  25.2925020  34.9861430  39.6108600  23.8076180  34.9697290
  46.8735250  24.5284780  37.8485390  46.1833570  24.3356980  38.4831480
  47.6167550  24.8119420  38.3809690  37.6007250  22.3678270  28.8118730
  37.3120300  22.9381130  29.5243710  38.3453010  21.8882720  29.1749960
  37.7877480  26.3098390  20.0221450  37.7052150  27.2529150  20.1636440
  37.4360540  26.1673300  19.1433800  49.1498220  28.3683220  30.6839310
  48.4179340  28.8770030  31.0329410  48.7522560  27.5513200  30.3828090
  45.5875610  25.0437420  29.0891800  45.5911670  24.6027370  28.2396340
  46.4826730  25.3654750  29.1963620  41.4377990  24.9263910  28.0486010
  41.0978040  25.4039140  28.8053060  40.6755310  24.4729030  27.6887110
  45.6495760  26.0449500  22.0798560  45.7708580  26.0035980  23.0284380
  45.2644270  26.9073650  21.9245290  49.6124130  23.8216900  30.0962250
  49.6296870  24.2725550  30.9404100  49.3639710  22.9222540  30.3095690
  44.6617260  28.3550640  21.4781860  44.0934160  27.9068890  20.8517770
  45.3706260  28.7143420  20.9447010  53.0394880  21.2349080  35.9348630
  53.3640650  20.5038740  36.4606610  53.0751390  20.9162720  35.0329620
  39.7386440  32.2562660  35.3548590  39.3541230  31.6156330  35.9531550
  40.0498630  32.9598780  35.9243320  45.8883580  29.1039200  30.8357210
  46.2553710  28.6297770  31.5818550  45.6988640  29.9780770  31.1765550
  38.7524070  23.8482890  26.9650680  38.4670990  23.4838560  27.8029300
  38.6902930  23.1163350  26.3513820  43.6782950  28.1447840  33.1541420
  43.3740020  29.0239820  33.3791780  44.6329410  28.2047630  33.1898860
  42.2064740  32.3508830  23.7508270  41.4327000  31.8106450  23.5906990
  42.9359370  31.8315440  23.4126030  52.9652720  31.3474190  29.5434660
  53.6851840  31.8429480  29.1530770  52.7634540  30.6692080  28.8988530
  48.4262660  22.7412150  23.6864050  47.6127270  22.2425320  23.6109360
  48.2324610  23.5810400  23.2700400  48.3471520  31.4183250  35.4303660
  48.2808830  30.4978920  35.1761250  47.7176660  31.5158690  36.1448300
  51.1411050  27.1131800  21.9826210  52.0290670  27.4249030  21.8077550
  51.1116140  26.2404050  21.5906790  42.2502140  32.0189210  27.3887080
  42.7680810  31.2157470  27.3343970  41.7986160  31.9568350  28.2303910
  47.1371640  33.2855490  22.6614380  47.4787340  34.0297720  22.1657700
  46.3084350  33.5986610  23.0239210  39.7346680  28.9850580  34.3012780
  39.3761620  29.6504430  34.8886120  39.4401240  28.1534130  34.6725400
  42.9359800  29.4434820  37.1852330  42.6359940  29.5892000  36.2880150
  43.7071040  28.8840110  37.0925720  48.2788250  34.2403820  35.1807460
  48.2932790  33.3084780  34.9626370  47.5713350  34.3263580  35.8197230
  53.4125320  28.4243640  21.4506070  53.3289040  28.8557860  20.6002510
  54.1319510  28.8841990  21.8832890  54.4899460  30.8811160  34.5276040
  53.7647650  31.4739940  34.3305430  55.0174920  30.8734700  33.7289410
  54.4412570  35.2785900  24.1788200  53.7988730  34.6241520  24.4531920
  54.0543230  35.6840990  23.4028870  50.0199050  32.6071330  28.0259890
  50.3722870  32.0099460  27.3661260  49.1361380  32.2815560  28.1968140
  46.1062330  33.3669020  25.4330300  46.7933460  33.9138230  25.8137890
  45.3194750  33.9109750  25.4679910  38.2454730  28.9841840  20.9247380
  39.1149580  29.2666640  21.2083300  37.7545050  29.7977710  20.8096190
  45.4089540  30.3715050  25.0455660  45.8652320  31.1820300  25.2715850
  45.0577750  30.0538190  25.8774150  47.7122150  35.8821390  32.2747960
  48.3564370  36.0880770  32.9521380  48.0751590  35.1209790  31.8218810
  41.3101320  20.7152700  25.5178180  41.1815950  20.7070600  26.4663100
  40.4863340  21.0535790  25.1669190  48.9854230  33.8853740  30.9925410
  49.6276460  33.1846900  31.1057580  49.5103580  34.6652180  30.8122300
  52.8309950  34.1702360  20.7164550  52.6047530  33.4532800  21.3089190
  52.4406150  33.9214800  19.8786300  50.7591850  34.6848640  34.1961470
  51.0948090  35.2715330  34.8739390  49.8392190  34.5541350  34.4259260
  38.6125980  38.1969220  21.4909010  38.9723620  38.7958560  20.8366280
  38.4718320  38.7429110  22.2644040  38.3095250  22.4743820  34.9784880
  37.5953770  22.6740740  35.5837490  38.7290290  21.6983390  35.3499680
  52.4126200  32.0874300  22.3778710  52.1247900  32.5486990  23.1656590
  53.2078370  31.6272070  22.6462930  38.5967840  36.4624080  35.9651410
  38.7058960  35.5218820  35.8246800  37.9448400  36.7278830  35.3165140
  46.5880430  34.7339970  37.3649530  46.2677300  34.0149210  37.9095220
  45.9138790  35.4095040  37.4385590  44.6294600  35.5800420  22.3082680
  44.6204700  36.3130110  21.6927190  43.7092960  35.3332000  22.4009640
  40.2301240  30.8015310  23.0529440  39.6229190  31.5414210  23.0624740
  40.7050590  30.8914670  22.2267640  49.8034030  24.9666130  32.7286330
  50.1714850  24.1461340  33.0565900  48.9432230  25.0268020  33.1441980
  53.1696060  23.9223070  23.5373890  52.5409220  24.0268740  22.8232120
  52.6747980  24.1419850  24.3267770  47.6154200  35.6428660  20.9707870
  47.7166180  35.4392650  20.0409850  46.7155940  35.3886940  21.1755650
  45.1380090  26.2009020  24.9531770  44.4296240  26.6695360  25.3945380
  45.4224570  25.5431030  25.5876960  46.7636020  27.6205720  32.9524300
  47.2621270  28.0951540  33.6176150  46.9058970  26.6969240  33.1594330
  49.1695520  22.9259680  26.3927560  49.0463300  22.9445810  25.4437070
  50.1180080  22.9738620  26.5125960  46.2572310  38.1614980  25.6655540
  46.5113810  38.1236370  24.7434910  45.3084790  38.0348310  25.6583790
  43.3415110  24.5094100  22.3282480  44.1905640  24.9464250  22.2622670
  42.9746380  24.8214360  23.1554540  53.9702880  23.8373680  33.7952690
  53.4676480  24.5779080  34.1346500  54.7859540  24.2257680  33.4789480
  52.2624890  29.0806860  27.2414050  51.3215030  29.0957090  27.4161740
  52.5768960  28.2942820  27.6874350  42.2406530  30.7626460  20.8018010
  43.0069800  30.6507820  21.3643440  42.3181220  30.0664430  20.1494780
  40.9353290  28.1951530  21.4850900  41.0156880  27.2479040  21.5968300
  41.8273040  28.5258410  21.5911560  54.2650470  36.2515710  28.9168310
  54.3897890  37.0746880  29.3892120  55.1316030  36.0406440  28.5692460
  41.7368000  38.3446920  28.5885440  42.4730480  37.7962380  28.8594010
  42.1208920  39.2102930  28.4491430  38.6213480  34.4120490  24.4626950
  37.6953260  34.6541630  24.4532360  39.0869910  35.2394750  24.3411700
  40.7426280  37.5292990  37.7771020  41.5439010  37.8505040  38.1906420
  40.2278100  37.1688570  38.4990930  44.8470310  37.5177230  20.4111010
  45.6398920  37.8066060  19.9592800  44.3274660  37.0869400  19.7323490
  49.5790910  33.6372860  37.7246430  48.9729070  33.6604460  36.9842180
  49.2745020  32.9055900  38.2613680  51.0091280  37.3653150  36.3355840
  51.9613030  37.2811170  36.2856080  50.8619500  38.0294860  37.0089630
  53.9000480  36.7447360  21.8347750  53.6141990  36.3312500  21.0201930
  53.7020030  37.6735070  21.7148270  38.4624090  30.0166450  36.7207070
  38.9663110  29.4373730  37.2923300  37.7231510  30.3006680  37.2583440
  45.3647710  32.7380640  20.2753360  45.2598350  32.1232990  21.0014740
  45.1971930  32.2146530  19.4916370  45.5162030  31.4237440  36.2542590
  44.7507700  31.9922440  36.1697260  45.6977990  31.1313650  35.3610820
  48.6050440  31.8000670  20.8795350  48.0560540  32.2469970  21.5238090
  49.2269700  31.2949920  21.4033020  52.6585380  33.1542770  36.8117610
  53.3994850  33.4918530  36.3085070  51.8958060  33.3234830  36.2587380
  40.4947170  28.1596040  37.6157140  40.5352510  27.8609910  38.5242370
  41.3492670  28.5603650  37.4564660  44.2725560  30.7591590  22.7760650
  44.6941980  30.5931460  23.6192040  44.3976400  29.9491820  22.2815790
  42.4352980  26.7388140  35.5831630  41.9049440  26.2479090  34.9554970
  43.1041050  27.1672340  35.0489560  46.7853200  29.7829200  20.0237750
  47.3058860  29.0678220  19.6578900  47.4321600  30.4215070  20.3238260
  51.3331040  31.2057600  35.3472820  51.7472060  31.3602680  36.1963240
  50.3982040  31.3312820  35.5098600  51.8053210  28.5453760  37.3511970
  52.3873980  27.7906080  37.2632450  51.9814980  29.0761200  36.5743450
  42.9225280  23.7050510  35.6628920  42.8282150  23.0871260  34.9379790
  42.3422670  24.4316800  35.4358830  45.6886720  22.2623750  32.6956310
  45.2404020  22.2848010  31.8501860  45.0551920  21.8642770  33.2926610
  46.0946270  31.1578080  33.3168750  46.5134380  32.0010810  33.1444990
  45.1754900  31.2950120  33.0875530  48.4310170  28.8894260  34.7006590
  48.5506380  28.2935400  35.4401430  49.2904170  28.9263950  34.2807890
  50.7698070  29.4431450  33.2769100  50.2433290  29.9674070  32.6734240
  51.1129410  30.0758840  33.9078830  43.1684460  26.8324820  19.7218810
  42.9673520  25.9692180  20.0832150  42.9976510  26.7458180  18.7840410
  43.9453690  37.4631090  34.4326480  43.4074780  38.1877150  34.1135180
  44.1987650  36.9861430  33.6423820  45.1978940  25.4315610  35.9582410
  45.7878630  25.1231460  36.6460230  44.3799180  24.9595360  36.1142310
  50.0172370  25.0481420  36.1915430  49.3287890  24.3862960  36.1265420
  50.7378390  24.6019690  36.6363890  50.6472770  21.6433050  22.2505690
  50.9275060  20.8000950  22.6065110  49.8738500  21.8756160  22.7644440
  41.9667260  23.9325440  19.7096690  42.2693160  23.9392870  18.8015840
  42.7061850  23.5823300  20.2064350  46.8015900  38.6982300  34.6913130
  46.7274600  39.6017440  34.9985500  45.8994740  38.3794200  34.6635200
  45.1852190  22.8760060  20.6952890  44.8374190  22.1984050  20.1155340
  45.3864960  22.4149570  21.5096280  47.3501230  37.8640810  22.3139490
  48.2452020  38.2025780  22.3358250  47.3818860  37.1420220  21.6863770
  40.9897390  33.2367860  20.5426490  41.4272260  33.7797530  21.1984070
  41.4745120  32.4114810  20.5522830  38.2043190  36.0256890  27.9946750
  38.5346200  35.1577950  27.7625390  38.6334190  36.2315410  28.8251710
  42.8005110  34.3565900  25.6548720  42.5000650  34.2330870  26.5552630
  42.6942600  33.4974490  25.2464450  38.6933400  36.8927480  30.7328380
  38.2564390  37.0728280  31.5652530  39.2611080  37.6502100  30.5910100
  54.3295580  36.3944480  35.0205690  53.7297570  36.4537040  34.2769610
  54.4589480  35.4549460  35.1502540  55.5697030  34.1362300  20.3575400
  54.7389990  34.2038950  20.8282630  55.7468860  35.0266420  20.0542260
  55.0253490  30.8809780  22.8609600  55.7872400  31.4506430  22.9669290
  55.0407860  30.3136980  23.6317910  38.5257830  29.4047710  27.0917260
  37.8706670  29.1359350  26.4476960  39.3635780  29.2952190  26.6419240
  56.0313460  31.7359880  27.7051530  56.4022290  30.9527200  27.2987500
  56.6715390  32.4248980  27.5268830  53.0147220  33.1196460  33.1181850
  52.2007060  33.5493620  33.3807640  53.4221420  33.7314870  32.5050900
  55.0772660  31.1744150  20.0182120  55.3521500  32.0823030  19.8901340
  54.8883400  31.1106680  20.9544110  51.4748270  24.1989000  21.3135750
  51.8933150  24.0119980  20.4732410  51.1684330  23.3468050  21.6238680
  54.9738000  29.1113140  25.0111550  54.5981600  28.3441070  24.5792840
  54.2441120  29.4935840  25.4986480  39.5633760  29.7900280  31.6320600
  39.9306800  29.7027680  32.5116620  38.9944580  29.0266830  31.5327460
  54.3637620  28.2584660  34.6451070  54.1323710  28.0297410  33.7449020
  54.6242170  29.1784210  34.5995960  39.1149760  26.7009370  35.5379020
  38.2205810  26.6676130  35.8772730  39.6547310  26.8996160  36.3030270
  52.8025690  23.4841090  37.4230770  53.6795870  23.4924490  37.8064770
  52.8146530  22.7471930  36.8123120  37.7395910  26.6146640  23.0342590
  36.8359990  26.8776840  22.8594250  38.2236530  26.8857810  22.2542550
  54.2488960  27.3370630  28.3118790  54.7726440  26.8433280  27.6808960
  54.8348380  27.4720990  29.0566360  54.4278680  27.4210500  31.8338340
  53.4781390  27.3874040  31.9483330  54.6091690  28.3310610  31.5988110
  40.2823120  25.6712180  20.9436970  40.9914820  25.2495400  20.4584250
  39.5663060  25.7387410  20.3120320  39.9297280  21.7251510  19.9839620
  40.6525410  22.2660450  20.3020840  40.2021800  21.4514930  19.1081160
  53.7388930  26.5943980  24.2511200  54.2348050  26.3614850  25.0360080
  53.5405000  25.7555820  23.8348840  39.6189470  20.9757700  29.8862240
  40.2665660  20.4255080  29.4457400  40.0391310  21.2300850  30.7078050
  55.1676090  25.2304930  26.7848880  55.0575370  25.0760970  27.7231150
  55.9283680  24.7025870  26.5424290  53.5141810  21.1699060  33.2431880
  54.1514030  21.7833200  33.6091070  53.6616700  21.2059720  32.2981110
  56.0566360  23.0612850  20.0255020  56.9815670  22.9294030  19.8173310
  56.0342150  23.1405670  20.9791470  56.1304850  23.8323510  22.6511730
  55.3356350  23.7668630  23.1804640  56.3348130  24.7674150  22.6397080
  39.3721470  21.1313370  32.6287560  39.0236290  21.5877190  33.3945740
  39.0409170  20.2370500  32.7109990  40.9785840  34.3032970  36.7940750
  40.9355470  33.9325880  37.6755210  41.1096850  35.2410540  36.9342570
  44.6791870  35.8592560  32.3950470  44.4383230  36.1267120  31.5080990
  45.6194510  36.0298290  32.4501330  46.8846290  22.3225250  36.1506980
  46.8235180  22.9147080  36.9002390  47.8246670  22.2151210  36.0057240
  49.5220850  21.9795310  35.7899270  50.1361260  22.2974600  35.1280350
  50.0670410  21.4943900  36.4095130  55.9396030  37.8786940  33.1961110
  55.4454310  38.2755810  32.4788240  55.3309320  37.2536150  33.5898390
  40.0442110  20.6589570  35.9038330  40.5925100  20.4777620  35.1404440
  40.1097420  19.8683680  36.4394640  40.8173870  37.2495220  33.9138530
  40.2234190  37.1179920  34.6528570  40.8097710  36.4133360  33.4480630
  50.2628890  20.5427450  32.1168560  49.3888730  20.8762560  31.9141490
  50.1539640  20.0700630  32.9420430  51.1700870  22.7498320  33.5010280
  50.8414230  21.9350080  33.1212010  52.1183170  22.7068130  33.3775970
  53.6235480  38.5210360  30.4747850  53.1638450  39.2726170  30.1005870
  52.9947940  37.8016830  30.4162650  40.4486100  34.6153600  32.8646570
  39.7220160  33.9958890  32.7972520  40.5095250  35.0094210  31.9944650
  44.0531200  36.8298600  29.6495980  44.5696220  36.2185960  29.1244240
  44.7028580  37.3327380  30.1406990  46.7926700  37.7207090  30.4764960
  47.0804510  37.4661390  29.5997970  47.3049920  37.1684450  31.0670530
  48.0103710  21.4597290  31.0561470  47.2275500  21.9342790  31.3358230
  47.7166640  20.5552120  30.9474650  52.5624780  22.1620390  29.1010560
  53.0032870  22.1065490  28.2532160  52.2932370  23.0778400  29.1720740
  54.4263350  21.7935630  27.1119380  54.3651750  20.8496850  26.9650400
  55.2055380  21.9015720  27.6572840  38.7316100  37.9327990  26.0743330
  38.5638140  37.2998670  26.7725220  37.8650610  38.1387390  25.7237520
  39.3544120  21.7644770  23.5775190  40.1123480  21.8773650  23.0039220
  38.8921290  22.6013970  23.5318620  45.8957930  23.8784040  26.5677500
  45.0832440  23.5040930  26.2273380  46.3999570  23.1229120  26.8698690
  50.3982910  20.5426490  27.8060570  51.0012280  21.1146700  28.2809090
  49.6575900  21.1065930  27.5834470  53.5417510  20.9448050  23.0800850
  53.7368140  21.8431500  23.3468280  52.7547380  20.7135130  23.5733800
  40.3378800  36.6261220  23.5193470  39.8126420  37.0069250  22.8155430
  40.2623380  37.2511990  24.2403180  41.7269270  22.2908820  22.1177160
  42.2562030  21.5038620  21.9885110  42.3597590  22.9700010  22.3512690
  43.9207110  22.0283960  25.1722550  43.2909850  21.3271270  25.3392680
  43.3812250  22.7888090  24.9555710  46.8599060  38.6423190  37.8433160
  47.7866370  38.4067460  37.8869120  46.8449490  39.4695190  37.3619190
  44.0462670  21.3067940  37.6075040  43.7646940  21.8101540  36.8435860
  44.4282370  20.5089690  37.2417170  42.9371770  38.5743600  22.3942720
  43.6690590  38.2902880  21.8466610  43.1965440  38.3356880  23.2842100
  42.0986560  34.6908330  22.3989050  41.4695440  35.1593430  22.9474880
  42.2134390  33.8457550  22.8335240  50.6478130  20.7221520  38.1855510
  50.5343580  21.0416130  39.0807030  51.4647870  21.1234030  37.8892790
  53.4276620  37.8693050  37.6674200  54.2201940  37.3742280  37.4600160
  53.7209770  38.5483190  38.2749810  49.5536280  28.7413990   8.5490250
  49.4730330  27.8268600   8.2781960  49.1400700  29.2381060   7.8429960
  47.6854320  30.5193010  10.4299520  46.9096420  30.0393450  10.7198090
  48.3367250  29.8398660  10.2555680  41.7020150  30.8312820  11.3075280
  40.8705030  30.5761530  11.7071790  42.3101130  30.9023590  12.0433200
  51.7061750  34.9253200   9.2098650  51.2443280  34.1540440   9.5385820
  52.5187300  34.9519270   9.7151100  41.6821410  34.8652910  11.5033300
  41.9849450  33.9750650  11.3243520  42.4265000  35.4223130  11.2755550
  40.1112100  25.7914710   5.0917670  39.2228800  26.1330680   4.9897550
  40.3953290  25.5915030   4.1998500  38.0745110  28.3920360  10.9757370
  38.6461220  27.6242560  10.9761010  38.0746650  28.6909120  10.0663980
  47.9325060  37.2111210   8.8302640  47.3136500  37.6668710   8.2597080
  48.7876840  37.3662670   8.4292340  47.1263310  33.1950200  10.4369680
  47.0571590  32.2540140  10.2758810  47.8883170  33.2851610  11.0092250
  39.3169980  23.8004720  12.7626300  39.1372820  22.9030470  13.0429060
  38.9150060  24.3476590  13.4373250  48.1568480  26.0020580  10.6638610
  48.5333300  25.1292460  10.5512280  48.0587990  26.3379280   9.7729050
  42.2873490  24.3746210   6.1256050  42.3940240  25.2749940   6.4324810
  41.3765850  24.3264180   5.8350700  51.9392600  23.4971020   7.5966950
  52.7602220  23.0067590   7.6392430  51.9726680  24.0868680   8.3498790
  39.9356650  26.2965220  11.3708640  40.6166760  26.5603590  11.9896040
  39.6204700  25.4566090  11.7046650  44.1281220  27.3432580  10.4581230
  44.6359440  27.8413550  11.0986250  44.6594460  26.5667780  10.2820590
  56.2292150  25.5137770  14.1610580  55.5244320  25.9019480  13.6425690
  56.4950070  26.2088060  14.7631510  42.4117320  21.9831140  14.7244650
  42.4135760  22.5003530  13.9190550  41.5821630  21.5061320  14.7014580
  48.7988410  32.0950450   6.2234550  48.1805680  32.5599900   5.6597270
  49.3111660  32.7877930   6.6404060  43.6620170  31.6226320  12.9018150
  43.3289550  32.2495240  13.5439220  43.8386850  32.1488200  12.1219820
  52.1754080  25.4371400  10.3694490  51.4709650  25.7256290  10.9497600
  52.5366240  26.2471510  10.0094050  42.0932650  23.6941100  12.7315100
  42.4349460  24.5383150  12.4368970  41.1548460  23.8424840  12.8480440
  42.8739270  33.5907120  14.7167330  43.4913270  34.2658200  14.4351780
  42.0132390  33.9995100  14.6254830  38.1671610  32.7806980   3.5974180
  37.7899590  33.2694080   2.8659080  38.4244680  33.4532260   4.2280710
  53.7916860  35.0546530  12.6321970  53.1080380  35.7245640  12.6238640
  54.3311150  35.2527180  11.8666830  55.2441000  24.8826190  10.7603700
  54.2965910  24.9165170  10.8919130  55.5690990  25.6965140  11.1453060
  45.7760540  21.1823370   9.0559690  46.0835520  20.6270260   8.3395190
  44.8461240  21.3167830   8.8732680  51.3275600  36.8990660  11.3467150
  51.3402760  36.4952950  10.4789410  50.7750820  37.6737950  11.2428580
  52.6221020  33.6206880   6.4357320  52.5117350  32.6781210   6.5606740
  52.6189270  33.9822520   7.3220080  50.7261040  31.8020500  12.6749760
  51.1429830  31.5880610  11.8403220  51.4500860  32.0593290  13.2458380
  48.1641300  29.2472200   5.7919810  47.2370580  29.1809580   6.0208280
  48.3166120  30.1852330   5.6775050  48.1510380  25.5189200   2.7886970
  47.2114050  25.6803160   2.8739430  48.4693640  26.2374880   2.2422960
  54.6723140  30.2007720  12.7666000  53.8441770  30.2700810  12.2916130
  55.2673620  30.7862030  12.2981830  52.1938590  30.8092500   6.2955060
  51.5751010  30.4712050   5.6481360  52.1763040  30.1652260   7.0034250
  51.6365150  26.9877040  13.7120870  51.2236330  27.8130750  13.9660860
  50.9041100  26.4022080  13.5197230  43.7697940  29.7736940   8.5739540
  43.3654940  29.0614190   8.0785440  43.8561060  29.4290180   9.4627580
  44.2379640  33.4604500  10.7378750  43.9407930  32.8549970  10.0586530
  45.1879460  33.4981810  10.6268110  42.4826560  26.5480150  12.3538580
  43.0341150  26.6575490  11.5791830  42.9970070  26.9217750  13.0693810
  52.3265250  37.0336370  14.4001850  51.8495810  37.8408560  14.2074460
  51.6427040  36.3814700  14.5528060  43.3298070  33.1986190  17.3886550
  42.4326600  33.4226160  17.6359950  43.3550940  33.3221130  16.4397950
  50.3703290  30.0479310   3.3027810  50.8096570  29.2101740   3.1565630
  51.0831710  30.6808710   3.3891950  42.1569290  30.0699510  15.9643920
  42.0177060  30.9422310  16.3331320  41.2750650  29.7272320  15.8191860
  48.4798670  34.9875380   7.2709050  48.9194580  35.7299710   6.8564440
  48.4185560  35.2301950   8.1948010  43.9549640  36.0121210  18.1729070
  43.9265070  36.4164160  17.3057500  43.7914610  35.0831570  18.0100670
  40.4702570  28.6681920   6.0746190  40.3500170  29.3944010   5.4627460
  40.1603460  27.8984830   5.5974100  55.9064460  36.7948310  19.4693240
  56.3824180  37.2731200  20.1482320  56.5271620  36.7265800  18.7438740
  38.1087940  31.8397060  11.8814830  38.1868360  31.9745830  10.9370550
  38.7229620  31.1312950  12.0742950  39.3535570  33.5397250   8.2921010
  38.9463650  33.6811840   7.4374610  40.2448580  33.2557410   8.0892220
  55.3097710  33.9861160  16.6293250  55.4360770  33.7473040  15.7110430
  55.3519090  33.1545700  17.1015330  49.1714450  37.6889160  15.1988060
  49.6859120  37.5997170  16.0010490  48.3283530  38.0348860  15.4915970
  51.1468850  37.9744500   4.6272060  50.9869990  37.6847440   5.5253890
  50.9815560  37.1984630   4.0917290  43.6257230  37.7543030   6.4043680
  43.4499710  36.8378570   6.1911480  42.7712970  38.1130320   6.6441480
  50.8494980  35.4832060   3.1870060  50.1560140  35.4809350   2.5272340
  51.5917840  35.0591380   2.7564230  50.4144910  37.1094770   7.2618550
  50.8701860  36.3284150   7.5757170  50.7537430  37.8201590   7.8059730
  55.1621720  26.0393620  17.5942990  54.5465990  26.5473290  17.0658450
  54.8418140  25.1391950  17.5368930  38.1647460  32.8811230  14.4209290
  38.3278500  32.4116590  13.6028660  38.6299910  32.3734790  15.0858130
  42.9366230  22.0116990   9.4569860  42.4934380  22.7926530   9.1254380
  43.4951220  22.3346880  10.1640800  47.2236040  24.8785510  15.0605180
  46.7615410  25.0868530  15.8725120  46.8214150  24.0644860  14.7575850
  52.2240550  26.0994460  16.1901840  51.3734140  25.8000210  16.5110910
  52.0642340  26.3436470  15.2785660  49.3190260  27.5996210  18.2900630
  49.6443670  26.7659960  17.9502860  50.1070590  28.1224730  18.4378960
  46.0525050  21.6327690   4.3375690  45.4279230  21.6287560   5.0629000
  45.9655170  20.7658650   3.9411660  44.9742130  22.5564320  11.3159460
  45.2714460  23.4627150  11.2351480  45.5227690  22.0683100  10.7019030
  42.7280450  27.1350560   7.1851110  42.5021370  26.9187730   8.0897730
  41.9472980  27.5679020   6.8397080  49.9578210  27.1413930   5.7841760
  49.3587100  27.8649730   5.6005380  50.5057820  27.0790710   5.0018210
  45.1679660  28.0336140  17.8511380  45.0723260  27.0930870  17.7011780
  46.0111640  28.2551210  17.4559450  48.5643080  25.7777470   7.8145040
  48.9572650  26.0949670   7.0013730  48.9259930  24.8989350   7.9289560
  40.2990200  24.4449810  16.0045160  39.9053590  25.2925020  16.2117940
  39.6108600  23.8076180  16.1953800  46.8735250  24.5284780  19.0741900
  46.1833570  24.3356980  19.7087990  47.6167550  24.8119420  19.6066200
  37.6007250  22.3678270  10.0375240  37.3120300  22.9381130  10.7500220
  38.3453010  21.8882720  10.4006470  49.1498220  28.3683220  11.9095820
  48.4179340  28.8770030  12.2585920  48.7522560  27.5513200  11.6084600
  45.5875610  25.0437420  10.3148310  45.5911670  24.6027370   9.4652850
  46.4826730  25.3654750  10.4220130  41.4377990  24.9263910   9.2742520
  41.0978040  25.4039140  10.0309570  40.6755310  24.4729030   8.9143620
  45.6495760  26.0449500   3.3055070  45.7708580  26.0035980   4.2540890
  45.2644270  26.9073650   3.1501800  49.6124130  23.8216900  11.3218760
  49.6296870  24.2725550  12.1660610  49.3639710  22.9222540  11.5352200
  44.6617260  28.3550640   2.7038370  44.0934160  27.9068890   2.0774280
  45.3706260  28.7143420   2.1703520  53.0394880  21.2349080  17.1605140
  53.3640650  20.5038740  17.6863120  53.0751390  20.9162720  16.2586130
  39.7386440  32.2562660  16.5805100  39.3541230  31.6156330  17.1788060
  40.0498630  32.9598780  17.1499830  45.8883580  29.1039200  12.0613720
  46.2553710  28.6297770  12.8075060  45.6988640  29.9780770  12.4022060
  38.7524070  23.8482890   8.1907190  38.4670990  23.4838560   9.0285810
  38.6902930  23.1163350   7.5770330  43.6782950  28.1447840  14.3797930
  43.3740020  29.0239820  14.6048290  44.6329410  28.2047630  14.4155370
  42.2064740  32.3508830   4.9764780  41.4327000  31.8106450   4.8163500
  42.9359370  31.8315440   4.6382540  52.9652720  31.3474190  10.7691170
  53.6851840  31.8429480  10.3787280  52.7634540  30.6692080  10.1245040
  48.4262660  22.7412150   4.9120560  47.6127270  22.2425320   4.8365870
  48.2324610  23.5810400   4.4956910  48.3471520  31.4183250  16.6560170
  48.2808830  30.4978920  16.4017760  47.7176660  31.5158690  17.3704810
  51.1411050  27.1131800   3.2082720  52.0290670  27.4249030   3.0334060
  51.1116140  26.2404050   2.8163300  42.2502140  32.0189210   8.6143590
  42.7680810  31.2157470   8.5600480  41.7986160  31.9568350   9.4560420
  47.1371640  33.2855490   3.8870890  47.4787340  34.0297720   3.3914210
  46.3084350  33.5986610   4.2495720  39.7346680  28.9850580  15.5269290
  39.3761620  29.6504430  16.1142630  39.4401240  28.1534130  15.8981910
  42.9359800  29.4434820  18.4108840  42.6359940  29.5892000  17.5136660
  43.7071040  28.8840110  18.3182230  48.2788250  34.2403820  16.4063970
  48.2932790  33.3084780  16.1882880  47.5713350  34.3263580  17.0453740
  53.4125320  28.4243640   2.6762580  53.3289040  28.8557860   1.8259020
  54.1319510  28.8841990   3.1089400  54.4899460  30.8811160  15.7532550
  53.7647650  31.4739940  15.5561940  55.0174920  30.8734700  14.9545920
  54.4412570  35.2785900   5.4044710  53.7988730  34.6241520   5.6788430
  54.0543230  35.6840990   4.6285380  50.0199050  32.6071330   9.2516400
  50.3722870  32.0099460   8.5917770  49.1361380  32.2815560   9.4224650
  46.1062330  33.3669020   6.6586810  46.7933460  33.9138230   7.0394400
  45.3194750  33.9109750   6.6936420  38.2454730  28.9841840   2.1503890
  39.1149580  29.2666640   2.4339810  37.7545050  29.7977710   2.0352700
  45.4089540  30.3715050   6.2712170  45.8652320  31.1820300   6.4972360
  45.0577750  30.0538190   7.1030660  47.7122150  35.8821390  13.5004470
  48.3564370  36.0880770  14.1777890  48.0751590  35.1209790  13.0475320
  41.3101320  20.7152700   6.7434690  41.1815950  20.7070600   7.6919610
  40.4863340  21.0535790   6.3925700  48.9854230  33.8853740  12.2181920
  49.6276460  33.1846900  12.3314090  49.5103580  34.6652180  12.0378810
  50.7591850  34.6848640  15.4217980  51.0948090  35.2715330  16.0995900
  49.8392190  34.5541350  15.6515770  38.6125980  38.1969220   2.7165520
  38.9723620  38.7958560   2.0622790  38.4718320  38.7429110   3.4900550
  38.3095250  22.4743820  16.2041390  37.5953770  22.6740740  16.8094000
  38.7290290  21.6983390  16.5756190  52.4126200  32.0874300   3.6035220
  52.1247900  32.5486990   4.3913100  53.2078370  31.6272070   3.8719440
  38.5967840  36.4624080  17.1907920  38.7058960  35.5218820  17.0503310
  37.9448400  36.7278830  16.5421650  46.5880430  34.7339970  18.5906040
  46.2677300  34.0149210  19.1351730  45.9138790  35.4095040  18.6642100
  44.6294600  35.5800420   3.5339190  44.6204700  36.3130110   2.9183700
  43.7092960  35.3332000   3.6266150  40.2301240  30.8015310   4.2785950
  39.6229190  31.5414210   4.2881250  40.7050590  30.8914670   3.4524150
  49.8034030  24.9666130  13.9542840  50.1714850  24.1461340  14.2822410
  48.9432230  25.0268020  14.3698490  53.1696060  23.9223070   4.7630400
  52.5409220  24.0268740   4.0488630  52.6747980  24.1419850   5.5524280
  45.1380090  26.2009020   6.1788280  44.4296240  26.6695360   6.6201890
  45.4224570  25.5431030   6.8133470  46.7636020  27.6205720  14.1780810
  47.2621270  28.0951540  14.8432660  46.9058970  26.6969240  14.3850840
  49.1695520  22.9259680   7.6184070  49.0463300  22.9445810   6.6693580
  50.1180080  22.9738620   7.7382470  46.2572310  38.1614980   6.8912050
  46.5113810  38.1236370   5.9691420  45.3084790  38.0348310   6.8840300
  43.3415110  24.5094100   3.5538990  44.1905640  24.9464250   3.4879180
  42.9746380  24.8214360   4.3811050  53.9702880  23.8373680  15.0209200
  53.4676480  24.5779080  15.3603010  54.7859540  24.2257680  14.7045990
  52.2624890  29.0806860   8.4670560  51.3215030  29.0957090   8.6418250
  52.5768960  28.2942820   8.9130860  40.9353290  28.1951530   2.7107410
  41.0156880  27.2479040   2.8224810  41.8273040  28.5258410   2.8168070
  54.2650470  36.2515710  10.1424820  54.3897890  37.0746880  10.6148630
  55.1316030  36.0406440   9.7948970  41.7368000  38.3446920   9.8141950
  42.4730480  37.7962380  10.0850520  42.1208920  39.2102930   9.6747940
  38.6213480  34.4120490   5.6883460  37.6953260  34.6541630   5.6788870
  39.0869910  35.2394750   5.5668210  40.7426280  37.5292990  19.0027530
  41.5439010  37.8505040  19.4162930  40.2278100  37.1688570  19.7247440
  49.5790910  33.6372860  18.9502940  48.9729070  33.6604460  18.2098690
  49.2745020  32.9055900  19.4870190  51.0091280  37.3653150  17.5612350
  51.9613030  37.2811170  17.5112590  50.8619500  38.0294860  18.2346140
  53.9000480  36.7447360   3.0604260  53.6141990  36.3312500   2.2458440
  53.7020030  37.6735070   2.9404780  38.4624090  30.0166450  17.9463580
  38.9663110  29.4373730  18.5179810  37.7231510  30.3006680  18.4839950
  45.5162030  31.4237440  17.4799100  44.7507700  31.9922440  17.3953770
  45.6977990  31.1313650  16.5867330  48.6050440  31.8000670   2.1051860
  48.0560540  32.2469970   2.7494600  49.2269700  31.2949920   2.6289530
  52.6585380  33.1542770  18.0374120  53.3994850  33.4918530  17.5341580
  51.8958060  33.3234830  17.4843890  40.4947170  28.1596040  18.8413650
  40.5352510  27.8609910  19.7498880  41.3492670  28.5603650  18.6821170
  44.2725560  30.7591590   4.0017160  44.6941980  30.5931460   4.8448550
  44.3976400  29.9491820   3.5072300  42.4352980  26.7388140  16.8088140
  41.9049440  26.2479090  16.1811480  43.1041050  27.1672340  16.2746070
  51.3331040  31.2057600  16.5729330  51.7472060  31.3602680  17.4219750
  50.3982040  31.3312820  16.7355110  51.8053210  28.5453760  18.5768480
  52.3873980  27.7906080  18.4888960  51.9814980  29.0761200  17.7999960
  42.9225280  23.7050510  16.8885430  42.8282150  23.0871260  16.1636300
  42.3422670  24.4316800  16.6615340  45.6886720  22.2623750  13.9212820
  45.2404020  22.2848010  13.0758370  45.0551920  21.8642770  14.5183120
  46.0946270  31.1578080  14.5425260  46.5134380  32.0010810  14.3701500
  45.1754900  31.2950120  14.3132040  48.4310170  28.8894260  15.9263100
  48.5506380  28.2935400  16.6657940  49.2904170  28.9263950  15.5064400
  50.7698070  29.4431450  14.5025610  50.2433290  29.9674070  13.8990750
  51.1129410  30.0758840  15.1335340  43.9453690  37.4631090  15.6582990
  43.4074780  38.1877150  15.3391690  44.1987650  36.9861430  14.8680330
  45.1978940  25.4315610  17.1838920  45.7878630  25.1231460  17.8716740
  44.3799180  24.9595360  17.3398820  50.0172370  25.0481420  17.4171940
  49.3287890  24.3862960  17.3521930  50.7378390  24.6019690  17.8620400
  50.6472770  21.6433050   3.4762200  50.9275060  20.8000950   3.8321620
  49.8738500  21.8756160   3.9900950  46.8015900  38.6982300  15.9169640
  46.7274600  39.6017440  16.2242010  45.8994740  38.3794200  15.8891710
  47.3501230  37.8640810   3.5396000  48.2452020  38.2025780   3.5614760
  47.3818860  37.1420220   2.9120280  40.9897390  33.2367860   1.7683000
  41.4272260  33.7797530   2.4240580  41.4745120  32.4114810   1.7779340
  38.2043190  36.0256890   9.2203260  38.5346200  35.1577950   8.9881900
  38.6334190  36.2315410  10.0508220  42.8005110  34.3565900   6.8805230
  42.5000650  34.2330870   7.7809140  42.6942600  33.4974490   6.4720960
  38.6933400  36.8927480  11.9584890  38.2564390  37.0728280  12.7909040
  39.2611080  37.6502100  11.8166610  54.3295580  36.3944480  16.2462200
  53.7297570  36.4537040  15.5026120  54.4589480  35.4549460  16.3759050
  55.0253490  30.8809780   4.0866110  55.7872400  31.4506430   4.1925800
  55.0407860  30.3136980   4.8574420  38.5257830  29.4047710   8.3173770
  37.8706670  29.1359350   7.6733470  39.3635780  29.2952190   7.8675750
  56.0313460  31.7359880   8.9308040  56.4022290  30.9527200   8.5244010
  56.6715390  32.4248980   8.7525340  53.0147220  33.1196460  14.3438360
  52.2007060  33.5493620  14.6064150  53.4221420  33.7314870  13.7307410
  51.4748270  24.1989000   2.5392260  51.8933150  24.0119980   1.6988920
  51.1684330  23.3468050   2.8495190  54.9738000  29.1113140   6.2368060
  54.5981600  28.3441070   5.8049350  54.2441120  29.4935840   6.7242990
  39.5633760  29.7900280  12.8577110  39.9306800  29.7027680  13.7373130
  38.9944580  29.0266830  12.7583970  54.3637620  28.2584660  15.8707580
  54.1323710  28.0297410  14.9705530  54.6242170  29.1784210  15.8252470
  39.1149760  26.7009370  16.7635530  38.2205810  26.6676130  17.1029240
  39.6547310  26.8996160  17.5286780  52.8025690  23.4841090  18.6487280
  53.6795870  23.4924490  19.0321280  52.8146530  22.7471930  18.0379630
  37.7395910  26.6146640   4.2599100  36.8359990  26.8776840   4.0850760
  38.2236530  26.8857810   3.4799060  54.2488960  27.3370630   9.5375300
  54.7726440  26.8433280   8.9065470  54.8348380  27.4720990  10.2822870
  54.4278680  27.4210500  13.0594850  53.4781390  27.3874040  13.1739840
  54.6091690  28.3310610  12.8244620  53.7388930  26.5943980   5.4767710
  54.2348050  26.3614850   6.2616590  53.5405000  25.7555820   5.0605350
  39.6189470  20.9757700  11.1118750  40.2665660  20.4255080  10.6713910
  40.0391310  21.2300850  11.9334560  55.1676090  25.2304930   8.0105390
  55.0575370  25.0760970   8.9487660  55.9283680  24.7025870   7.7680800
  53.5141810  21.1699060  14.4688390  54.1514030  21.7833200  14.8347580
  53.6616700  21.2059720  13.5237620  56.1304850  23.8323510   3.8768240
  55.3356350  23.7668630   4.4061150  56.3348130  24.7674150   3.8653590
  53.0723270  37.8715060   7.8706630  53.6682340  37.5499630   7.1941050
  53.3301420  37.3986880   8.6619900  39.3721470  21.1313370  13.8544070
  39.0236290  21.5877190  14.6202250  39.0409170  20.2370500  13.9366500
  40.9785840  34.3032970  18.0197260  40.9355470  33.9325880  18.9011720
  41.1096850  35.2410540  18.1599080  44.6791870  35.8592560  13.6206980
  44.4383230  36.1267120  12.7337500  45.6194510  36.0298290  13.6757840
  46.8846290  22.3225250  17.3763490  46.8235180  22.9147080  18.1258900
  47.8246670  22.2151210  17.2313750  49.5220850  21.9795310  17.0155780
  50.1361260  22.2974600  16.3536860  50.0670410  21.4943900  17.6351640
  55.9396030  37.8786940  14.4217620  55.4454310  38.2755810  13.7044750
  55.3309320  37.2536150  14.8154900  40.0442110  20.6589570  17.1294840
  40.5925100  20.4777620  16.3660950  40.1097420  19.8683680  17.6651150
  40.8173870  37.2495220  15.1395040  40.2234190  37.1179920  15.8785080
  40.8097710  36.4133360  14.6737140  50.2628890  20.5427450  13.3425070
  49.3888730  20.8762560  13.1398000  50.1539640  20.0700630  14.1676940
  51.1700870  22.7498320  14.7266790  50.8414230  21.9350080  14.3468520
  52.1183170  22.7068130  14.6032480  53.6235480  38.5210360  11.7004360
  53.1638450  39.2726170  11.3262380  52.9947940  37.8016830  11.6419160
  40.4486100  34.6153600  14.0903080  39.7220160  33.9958890  14.0229030
  40.5095250  35.0094210  13.2201160  44.0531200  36.8298600  10.8752490
  44.5696220  36.2185960  10.3500750  44.7028580  37.3327380  11.3663500
  46.7926700  37.7207090  11.7021470  47.0804510  37.4661390  10.8254480
  47.3049920  37.1684450  12.2927040  48.0103710  21.4597290  12.2817980
  47.2275500  21.9342790  12.5614740  47.7166640  20.5552120  12.1731160
  52.5624780  22.1620390  10.3267070  53.0032870  22.1065490   9.4788670
  52.2932370  23.0778400  10.3977250  54.4263350  21.7935630   8.3375890
  54.3651750  20.8496850   8.1906910  55.2055380  21.9015720   8.8829350
  38.7316100  37.9327990   7.2999840  38.5638140  37.2998670   7.9981730
  37.8650610  38.1387390   6.9494030  39.3544120  21.7644770   4.8031700
  40.1123480  21.8773650   4.2295730  38.8921290  22.6013970   4.7575130
  45.8957930  23.8784040   7.7934010  45.0832440  23.5040930   7.4529890
  46.3999570  23.1229120   8.0955200  50.3982910  20.5426490   9.0317080
  51.0012280  21.1146700   9.5065600  49.6575900  21.1065930   8.8090980
  53.5417510  20.9448050   4.3057360  53.7368140  21.8431500   4.5724790
  52.7547380  20.7135130   4.7990310  40.3378800  36.6261220   4.7449980
  39.8126420  37.0069250   4.0411940  40.2623380  37.2511990   5.4659690
  41.7269270  22.2908820   3.3433670  42.2562030  21.5038620   3.2141620
  42.3597590  22.9700010   3.5769200  43.9207110  22.0283960   6.3979060
  43.2909850  21.3271270   6.5649190  43.3812250  22.7888090   6.1812220
  46.8599060  38.6423190  19.0689670  47.7866370  38.4067460  19.1125630
  46.8449490  39.4695190  18.5875700  55.0944120  38.1848760   6.0663920
  55.2696310  37.4986500   5.4224840  54.3965690  38.7095810   5.6740590
  44.0462670  21.3067940  18.8331550  43.7646940  21.8101540  18.0692370
  44.4282370  20.5089690  18.4673680  42.9371770  38.5743600   3.6199230
  43.6690590  38.2902880   3.0723120  43.1965440  38.3356880   4.5098610
  42.0986560  34.6908330   3.6245560  41.4695440  35.1593430   4.1731390
  42.2134390  33.8457550   4.0591750  50.6478130  20.7221520  19.4112020
  50.5343580  21.0416130  20.3063540  51.4647870  21.1234030  19.1149300
  53.4276620  37.8693050  18.8930710  54.2201940  37.3742280  18.6856670
  53.7209770  38.5483190  19.5006320  49.5536280   9.9670500 139.9694680
  49.4730330   9.0525110 139.6986390  49.1400700  10.4637570 139.2634390
  47.6854320  11.7449520 141.8503950  46.9096420  11.2649960 142.1402520
  48.3367250  11.0655170 141.6760110  41.7020150  12.0569330 142.7279710
  40.8705030  11.8018040 143.1276220  42.3101130  12.1280100 143.4637630
  51.7061750  16.1509710 140.6303080  51.2443280  15.3796950 140.9590250
  52.5187300  16.1775780 141.1355530  41.6821410  16.0909420 142.9237730
  41.9849450  15.2007160 142.7447950  42.4265000  16.6479640 142.6959980
  40.1112100   7.0171220 136.5122100  39.2228800   7.3587190 136.4101980
  40.3953290   6.8171540 135.6202930  38.0745110   9.6176870 142.3961800
  38.6461220   8.8499070 142.3965440  38.0746650   9.9165630 141.4868410
  47.9325060  18.4367720 140.2507070  47.3136500  18.8925220 139.6801510
  48.7876840  18.5919180 139.8496770  47.1263310  14.4206710 141.8574110
  47.0571590  13.4796650 141.6963240  47.8883170  14.5108120 142.4296680
  39.3169980   5.0261230 144.1830730  39.1372820   4.1286980 144.4633490
  38.9150060   5.5733100 144.8577680  48.1568480   7.2277090 142.0843040
  48.5333300   6.3548970 141.9716710  48.0587990   7.5635790 141.1933480
  42.2873490   5.6002720 137.5460480  42.3940240   6.5006450 137.8529240
  41.3765850   5.5520690 137.2555130  51.9392600   4.7227530 139.0171380
  52.7602220   4.2324100 139.0596860  51.9726680   5.3125190 139.7703220
  39.9356650   7.5221730 142.7913070  40.6166760   7.7860100 143.4100470
  39.6204700   6.6822600 143.1251080  44.1281220   8.5689090 141.8785660
  44.6359440   9.0670060 142.5190680  44.6594460   7.7924290 141.7025020
  56.2292150   6.7394280 145.5815010  55.5244320   7.1275990 145.0630120
  56.4950070   7.4344570 146.1835940  42.4117320   3.2087650 146.1449080
  42.4135760   3.7260040 145.3394980  41.5821630   2.7317830 146.1219010
  48.7988410  13.3206960 137.6438980  48.1805680  13.7856410 137.0801700
  49.3111660  14.0134440 138.0608490  43.6620170  12.8482830 144.3222580
  43.3289550  13.4751750 144.9643650  43.8386850  13.3744710 143.5424250
  52.1754080   6.6627910 141.7898920  51.4709650   6.9512800 142.3702030
  52.5366240   7.4728020 141.4298480  42.0932650   4.9197610 144.1519530
  42.4349460   5.7639660 143.8573400  41.1548460   5.0681350 144.2684870
  42.8739270  14.8163630 146.1371760  43.4913270  15.4914710 145.8556210
  42.0132390  15.2251610 146.0459260  38.1671610  14.0063490 135.0178610
  37.7899590  14.4950590 134.2863510  38.4244680  14.6788770 135.6485140
  53.7916860  16.2803040 144.0526400  53.1080380  16.9502150 144.0443070
  54.3311150  16.4783690 143.2871260  55.2441000   6.1082700 142.1808130
  54.2965910   6.1421680 142.3123560  55.5690990   6.9221650 142.5657490
  45.7760540   2.4079880 140.4764120  46.0835520   1.8526770 139.7599620
  44.8461240   2.5424340 140.2937110  51.3275600  18.1247170 142.7671580
  51.3402760  17.7209460 141.8993840  50.7750820  18.8994460 142.6633010
  52.6221020  14.8463390 137.8561750  52.5117350  13.9037720 137.9811170
  52.6189270  15.2079030 138.7424510  50.7261040  13.0277010 144.0954190
  51.1429830  12.8137120 143.2607650  51.4500860  13.2849800 144.6662810
  48.1641300  10.4728710 137.2124240  47.2370580  10.4066090 137.4412710
  48.3166120  11.4108840 137.0979480  48.1510380   6.7445710 134.2091400
  47.2114050   6.9059670 134.2943860  48.4693640   7.4631390 133.6627390
  54.6723140  11.4264230 144.1870430  53.8441770  11.4957320 143.7120560
  55.2673620  12.0118540 143.7186260  52.1938590  12.0349010 137.7159490
  51.5751010  11.6968560 137.0685790  52.1763040  11.3908770 138.4238680
  51.6365150   8.2133550 145.1325300  51.2236330   9.0387260 145.3865290
  50.9041100   7.6278590 144.9401660  43.7697940  10.9993450 139.9943970
  43.3654940  10.2870700 139.4989870  43.8561060  10.6546690 140.8832010
  44.2379640  14.6861010 142.1583180  43.9407930  14.0806480 141.4790960
  45.1879460  14.7238320 142.0472540  42.4826560   7.7736660 143.7743010
  43.0341150   7.8832000 142.9996260  42.9970070   8.1474260 144.4898240
  52.3265250  18.2592880 145.8206280  51.8495810  19.0665070 145.6278890
  51.6427040  17.6071210 145.9732490  43.3298070  14.4242700 148.8090980
  42.4326600  14.6482670 149.0564380  43.3550940  14.5477640 147.8602380
  50.3703290  11.2735820 134.7232240  50.8096570  10.4358250 134.5770060
  51.0831710  11.9065220 134.8096380  42.1569290  11.2956020 147.3848350
  42.0177060  12.1678820 147.7535750  41.2750650  10.9528830 147.2396290
  48.4798670  16.2131890 138.6913480  48.9194580  16.9556220 138.2768870
  48.4185560  16.4558460 139.6152440  43.9549640  17.2377720 149.5933500
  43.9265070  17.6420670 148.7261930  43.7914610  16.3088080 149.4305100
  53.9520430   2.5278630 133.0373280  53.6393090   2.6205460 133.9372350
  54.7132900   3.1059660 132.9870710  40.4702570   9.8938430 137.4950620
  40.3500170  10.6200520 136.8831890  40.1603460   9.1241340 137.0178530
  38.1087940  13.0653570 143.3019260  38.1868360  13.2002340 142.3574980
  38.7229620  12.3569460 143.4947380  39.3535570  14.7653760 139.7125440
  38.9463650  14.9068350 138.8579040  40.2448580  14.4813920 139.5096650
  55.3097710  15.2117670 148.0497680  55.4360770  14.9729550 147.1314860
  55.3519090  14.3802210 148.5219760  49.1714450  18.9145670 146.6192490
  49.6859120  18.8253680 147.4214920  48.3283530  19.2605370 146.9120400
  51.1468850  19.2001010 136.0476490  50.9869990  18.9103950 136.9458320
  50.9815560  18.4241140 135.5121720  43.6257230  18.9799540 137.8248110
  43.4499710  18.0635080 137.6115910  42.7712970  19.3386830 138.0645910
  50.8494980  16.7088570 134.6074490  50.1560140  16.7065860 133.9476770
  51.5917840  16.2847890 134.1768660  50.4144910  18.3351280 138.6822980
  50.8701860  17.5540660 138.9961600  50.7537430  19.0458100 139.2264160
  55.1621720   7.2650130 149.0147420  54.5465990   7.7729800 148.4862880
  54.8418140   6.3648460 148.9573360  38.1647460  14.1067740 145.8413720
  38.3278500  13.6373100 145.0233090  38.6299910  13.5991300 146.5062560
  42.9366230   3.2373500 140.8774290  42.4934380   4.0183040 140.5458810
  43.4951220   3.5603390 141.5845230  47.2236040   6.1042020 146.4809610
  46.7615410   6.3125040 147.2929550  46.8214150   5.2901370 146.1780280
  52.2240550   7.3250970 147.6106270  51.3734140   7.0256720 147.9315340
  52.0642340   7.5692980 146.6990090  49.3190260   8.8252720 149.7105060
  49.6443670   7.9916470 149.3707290  50.1070590   9.3481240 149.8583390
  46.0525050   2.8584200 135.7580120  45.4279230   2.8544070 136.4833430
  45.9655170   1.9915160 135.3616090  44.9742130   3.7820830 142.7363890
  45.2714460   4.6883660 142.6555910  45.5227690   3.2939610 142.1223460
  42.7280450   8.3607070 138.6055540  42.5021370   8.1444240 139.5102160
  41.9472980   8.7935530 138.2601510  49.9578210   8.3670440 137.2046190
  49.3587100   9.0906240 137.0209810  50.5057820   8.3047220 136.4222640
  45.1679660   9.2592650 149.2715810  45.0723260   8.3187380 149.1216210
  46.0111640   9.4807720 148.8763880  48.5643080   7.0033980 139.2349470
  48.9572650   7.3206180 138.4218160  48.9259930   6.1245860 139.3493990
  40.2990200   5.6706320 147.4249590  39.9053590   6.5181530 147.6322370
  39.6108600   5.0332690 147.6158230  37.6007250   3.5934780 141.4579670
  37.3120300   4.1637640 142.1704650  38.3453010   3.1139230 141.8210900
  37.7877480   7.5354900 132.6682390  37.7052150   8.4785660 132.8097380
  37.4360540   7.3929810 131.7894740  49.1498220   9.5939730 143.3300250
  48.4179340  10.1026540 143.6790350  48.7522560   8.7769710 143.0289030
  45.5875610   6.2693930 141.7352740  45.5911670   5.8283880 140.8857280
  46.4826730   6.5911260 141.8424560  41.4377990   6.1520420 140.6946950
  41.0978040   6.6295650 141.4514000  40.6755310   5.6985540 140.3348050
  45.6495760   7.2706010 134.7259500  45.7708580   7.2292490 135.6745320
  45.2644270   8.1330160 134.5706230  49.6124130   5.0473410 142.7423190
  49.6296870   5.4982060 143.5865040  49.3639710   4.1479050 142.9556630
  44.6617260   9.5807150 134.1242800  44.0934160   9.1325400 133.4978710
  45.3706260   9.9399930 133.5907950  53.0394880   2.4605590 148.5809570
  53.3640650   1.7295250 149.1067550  53.0751390   2.1419230 147.6790560
  39.7386440  13.4819170 148.0009530  39.3541230  12.8412840 148.5992490
  40.0498630  14.1855290 148.5704260  45.8883580  10.3295710 143.4818150
  46.2553710   9.8554280 144.2279490  45.6988640  11.2037280 143.8226490
  38.7524070   5.0739400 139.6111620  38.4670990   4.7095070 140.4490240
  38.6902930   4.3419860 138.9974760  43.6782950   9.3704350 145.8002360
  43.3740020  10.2496330 146.0252720  44.6329410   9.4304140 145.8359800
  42.2064740  13.5765340 136.3969210  41.4327000  13.0362960 136.2367930
  42.9359370  13.0571950 136.0586970  52.9652720  12.5730700 142.1895600
  53.6851840  13.0685990 141.7991710  52.7634540  11.8948590 141.5449470
  48.4262660   3.9668660 136.3324990  47.6127270   3.4681830 136.2570300
  48.2324610   4.8066910 135.9161340  48.3471520  12.6439760 148.0764600
  48.2808830  11.7235430 147.8222190  47.7176660  12.7415200 148.7909240
  51.1411050   8.3388310 134.6287150  52.0290670   8.6505540 134.4538490
  51.1116140   7.4660560 134.2367730  42.2502140  13.2445720 140.0348020
  42.7680810  12.4413980 139.9804910  41.7986160  13.1824860 140.8764850
  47.1371640  14.5112000 135.3075320  47.4787340  15.2554230 134.8118640
  46.3084350  14.8243120 135.6700150  39.7346680  10.2107090 146.9473720
  39.3761620  10.8760940 147.5347060  39.4401240   9.3790640 147.3186340
  42.9359800  10.6691330 149.8313270  42.6359940  10.8148510 148.9341090
  43.7071040  10.1096620 149.7386660  48.2788250  15.4660330 147.8268400
  48.2932790  14.5341290 147.6087310  47.5713350  15.5520090 148.4658170
  53.4125320   9.6500150 134.0967010  53.3289040  10.0814370 133.2463450
  54.1319510  10.1098500 134.5293830  54.4899460  12.1067670 147.1736980
  53.7647650  12.6996450 146.9766370  55.0174920  12.0991210 146.3750350
  54.4412570  16.5042410 136.8249140  53.7988730  15.8498030 137.0992860
  54.0543230  16.9097500 136.0489810  50.0199050  13.8327840 140.6720830
  50.3722870  13.2355970 140.0122200  49.1361380  13.5072070 140.8429080
  46.1062330  14.5925530 138.0791240  46.7933460  15.1394740 138.4598830
  45.3194750  15.1366260 138.1140850  38.2454730  10.2098350 133.5708320
  39.1149580  10.4923150 133.8544240  37.7545050  11.0234220 133.4557130
  45.4089540  11.5971560 137.6916600  45.8652320  12.4076810 137.9176790
  45.0577750  11.2794700 138.5235090  47.7122150  17.1077900 144.9208900
  48.3564370  17.3137280 145.5982320  48.0751590  16.3466300 144.4679750
  41.3101320   1.9409210 138.1639120  41.1815950   1.9327110 139.1124040
  40.4863340   2.2792300 137.8130130  48.9854230  15.1110250 143.6386350
  49.6276460  14.4103410 143.7518520  49.5103580  15.8908690 143.4583240
  52.8309950  15.3958870 133.3625490  52.6047530  14.6789310 133.9550130
  52.4406150  15.1471310 132.5247240  50.7591850  15.9105150 146.8422410
  51.0948090  16.4971840 147.5200330  49.8392190  15.7797860 147.0720200
  38.6125980  19.4225730 134.1369950  38.9723620  20.0215070 133.4827220
  38.4718320  19.9685620 134.9104980  38.3095250   3.7000330 147.6245820
  37.5953770   3.8997250 148.2298430  38.7290290   2.9239900 147.9960620
  52.4126200  13.3130810 135.0239650  52.1247900  13.7743500 135.8117530
  53.2078370  12.8528580 135.2923870  38.5967840  17.6880590 148.6112350
  38.7058960  16.7475330 148.4707740  37.9448400  17.9535340 147.9626080
  44.6294600  16.8056930 134.9543620  44.6204700  17.5386620 134.3388130
  43.7092960  16.5588510 135.0470580  40.2301240  12.0271820 135.6990380
  39.6229190  12.7670720 135.7085680  40.7050590  12.1171180 134.8728580
  49.8034030   6.1922640 145.3747270  50.1714850   5.3717850 145.7026840
  48.9432230   6.2524530 145.7902920  53.1696060   5.1479580 136.1834830
  52.5409220   5.2525250 135.4693060  52.6747980   5.3676360 136.9728710
  47.6154200  16.8685170 133.6168810  47.7166180  16.6649160 132.6870790
  46.7155940  16.6143450 133.8216590  45.1380090   7.4265530 137.5992710
  44.4296240   7.8951870 138.0406320  45.4224570   6.7687540 138.2337900
  46.7636020   8.8462230 145.5985240  47.2621270   9.3208050 146.2637090
  46.9058970   7.9225750 145.8055270  49.1695520   4.1516190 139.0388500
  49.0463300   4.1702320 138.0898010  50.1180080   4.1995130 139.1586900
  46.2572310  19.3871490 138.3116480  46.5113810  19.3492880 137.3895850
  45.3084790  19.2604820 138.3044730  43.3415110   5.7350610 134.9743420
  44.1905640   6.1720760 134.9083610  42.9746380   6.0470870 135.8015480
  53.9702880   5.0630190 146.4413630  53.4676480   5.8035590 146.7807440
  54.7859540   5.4514190 146.1250420  52.2624890  10.3063370 139.8874990
  51.3215030  10.3213600 140.0622680  52.5768960   9.5199330 140.3335290
  42.2406530  11.9882970 133.4478950  43.0069800  11.8764330 134.0104380
  42.3181220  11.2920940 132.7955720  40.9353290   9.4208040 134.1311840
  41.0156880   8.4735550 134.2429240  41.8273040   9.7514920 134.2372500
  54.2650470  17.4772220 141.5629250  54.3897890  18.3003390 142.0353060
  55.1316030  17.2662950 141.2153400  41.7368000  19.5703430 141.2346380
  42.4730480  19.0218890 141.5054950  42.1208920  20.4359440 141.0952370
  38.6213480  15.6377000 137.1087890  37.6953260  15.8798140 137.0993300
  39.0869910  16.4651260 136.9872640  44.8470310  18.7433740 133.0571950
  45.6398920  19.0322570 132.6053740  44.3274660  18.3125910 132.3784430
  51.0091280  18.5909660 148.9816780  51.9613030  18.5067680 148.9317020
  50.8619500  19.2551370 149.6550570  53.9000480  17.9703870 134.4808690
  53.6141990  17.5569010 133.6662870  53.7020030  18.8991580 134.3609210
  38.4624090  11.2422960 149.3668010  38.9663110  10.6630240 149.9384240
  37.7231510  11.5263190 149.9044380  45.3647710  13.9637150 132.9214300
  45.2598350  13.3489500 133.6475680  45.1971930  13.4403040 132.1377310
  45.5162030  12.6493950 148.9003530  44.7507700  13.2178950 148.8158200
  45.6977990  12.3570160 148.0071760  48.6050440  13.0257180 133.5256290
  48.0560540  13.4726480 134.1699030  49.2269700  12.5206430 134.0493960
  52.6585380  14.3799280 149.4578550  53.3994850  14.7175040 148.9546010
  51.8958060  14.5491340 148.9048320  44.2725560  11.9848100 135.4221590
  44.6941980  11.8187970 136.2652980  44.3976400  11.1748330 134.9276730
  42.4352980   7.9644650 148.2292570  41.9049440   7.4735600 147.6015910
  43.1041050   8.3928850 147.6950500  46.7853200  11.0085710 132.6698690
  47.3058860  10.2934730 132.3039840  47.4321600  11.6471580 132.9699200
  51.3331040  12.4314110 147.9933760  51.7472060  12.5859190 148.8424180
  50.3982040  12.5569330 148.1559540  51.8053210   9.7710270 149.9972910
  52.3873980   9.0162590 149.9093390  51.9814980  10.3017710 149.2204390
  42.9225280   4.9307020 148.3089860  42.8282150   4.3127770 147.5840730
  42.3422670   5.6573310 148.0819770  45.6886720   3.4880260 145.3417250
  45.2404020   3.5104520 144.4962800  45.0551920   3.0899280 145.9387550
  46.0946270  12.3834590 145.9629690  46.5134380  13.2267320 145.7905930
  45.1754900  12.5206630 145.7336470  48.4310170  10.1150770 147.3467530
  48.5506380   9.5191910 148.0862370  49.2904170  10.1520460 146.9268830
  50.7698070  10.6687960 145.9230040  50.2433290  11.1930580 145.3195180
  51.1129410  11.3015350 146.5539770  43.1684460   8.0581330 132.3679750
  42.9673520   7.1948690 132.7293090  42.9976510   7.9714690 131.4301350
  43.9453690  18.6887600 147.0787420  43.4074780  19.4133660 146.7596120
  44.1987650  18.2117940 146.2884760  45.1978940   6.6572120 148.6043350
  45.7878630   6.3487970 149.2921170  44.3799180   6.1851870 148.7603250
  50.0172370   6.2737930 148.8376370  49.3287890   5.6119470 148.7726360
  50.7378390   5.8276200 149.2824830  50.6472770   2.8689560 134.8966630
  50.9275060   2.0257460 135.2526050  49.8738500   3.1012670 135.4105380
  41.9667260   5.1581950 132.3557630  42.2693160   5.1649380 131.4476780
  42.7061850   4.8079810 132.8525290  46.8015900  19.9238810 147.3374070
  46.7274600  20.8273950 147.6446440  45.8994740  19.6050710 147.3096140
  45.1852190   4.1016570 133.3413830  44.8374190   3.4240560 132.7616280
  45.3864960   3.6406080 134.1557220  47.3501230  19.0897320 134.9600430
  48.2452020  19.4282290 134.9819190  47.3818860  18.3676730 134.3324710
  40.9897390  14.4624370 133.1887430  41.4272260  15.0054040 133.8445010
  41.4745120  13.6371320 133.1983770  38.2043190  17.2513400 140.6407690
  38.5346200  16.3834460 140.4086330  38.6334190  17.4571920 141.4712650
  42.8005110  15.5822410 138.3009660  42.5000650  15.4587380 139.2013570
  42.6942600  14.7231000 137.8925390  38.6933400  18.1183990 143.3789320
  38.2564390  18.2984790 144.2113470  39.2611080  18.8758610 143.2371040
  54.3295580  17.6200990 147.6666630  53.7297570  17.6793550 146.9230550
  54.4589480  16.6805970 147.7963480  55.5697030  15.3618810 133.0036340
  54.7389990  15.4295460 133.4743570  55.7468860  16.2522930 132.7003200
  55.0253490  12.1066290 135.5070540  55.7872400  12.6762940 135.6130230
  55.0407860  11.5393490 136.2778850  38.5257830  10.6304220 139.7378200
  37.8706670  10.3615860 139.0937900  39.3635780  10.5208700 139.2880180
  56.0313460  12.9616390 140.3512470  56.4022290  12.1783710 139.9448440
  56.6715390  13.6505490 140.1729770  53.0147220  14.3452970 145.7642790
  52.2007060  14.7750130 146.0268580  53.4221420  14.9571380 145.1511840
  55.0772660  12.4000660 132.6643060  55.3521500  13.3079540 132.5362280
  54.8883400  12.3363190 133.6005050  51.4748270   5.4245510 133.9596690
  51.8933150   5.2376490 133.1193350  51.1684330   4.5724560 134.2699620
  54.9738000  10.3369650 137.6572490  54.5981600   9.5697580 137.2253780
  54.2441120  10.7192350 138.1447420  39.5633760  11.0156790 144.2781540
  39.9306800  10.9284190 145.1577560  38.9944580  10.2523340 144.1788400
  54.3637620   9.4841170 147.2912010  54.1323710   9.2553920 146.3909960
  54.6242170  10.4040720 147.2456900  39.1149760   7.9265880 148.1839960
  38.2205810   7.8932640 148.5233670  39.6547310   8.1252670 148.9491210
  37.7395910   7.8403150 135.6803530  36.8359990   8.1033350 135.5055190
  38.2236530   8.1114320 134.9003490  54.2488960   8.5627140 140.9579730
  54.7726440   8.0689790 140.3269900  54.8348380   8.6977500 141.7027300
  54.4278680   8.6467010 144.4799280  53.4781390   8.6130550 144.5944270
  54.6091690   9.5567120 144.2449050  40.2823120   6.8968690 133.5897910
  40.9914820   6.4751910 133.1045190  39.5663060   6.9643920 132.9581260
  39.9297280   2.9508020 132.6300560  40.6525410   3.4916960 132.9481780
  40.2021800   2.6771440 131.7542100  53.7388930   7.8200490 136.8972140
  54.2348050   7.5871360 137.6821020  53.5405000   6.9812330 136.4809780
  39.6189470   2.2014210 142.5323180  40.2665660   1.6511590 142.0918340
  40.0391310   2.4557360 143.3538990  55.1676090   6.4561440 139.4309820
  55.0575370   6.3017480 140.3692090  55.9283680   5.9282380 139.1885230
  53.5141810   2.3955570 145.8892820  54.1514030   3.0089710 146.2552010
  53.6616700   2.4316230 144.9442050  56.0566360   4.2869360 132.6715960
  56.9815670   4.1550540 132.4634250  56.0342150   4.3662180 133.6252410
  56.1304850   5.0580020 135.2972670  55.3356350   4.9925140 135.8265580
  56.3348130   5.9930660 135.2858020  53.0723270  19.0971570 139.2911060
  53.6682340  18.7756140 138.6145480  53.3301420  18.6243390 140.0824330
  39.3721470   2.3569880 145.2748500  39.0236290   2.8133700 146.0406680
  39.0409170   1.4627010 145.3570930  44.6791870  17.0849070 145.0411410
  44.4383230  17.3523630 144.1541930  45.6194510  17.2554800 145.0962270
  46.8846290   3.5481760 148.7967920  46.8235180   4.1403590 149.5463330
  47.8246670   3.4407720 148.6518180  49.5220850   3.2051820 148.4360210
  50.1361260   3.5231110 147.7741290  50.0670410   2.7200410 149.0556070
  55.9396030  19.1043450 145.8422050  55.4454310  19.5012320 145.1249180
  55.3309320  18.4792660 146.2359330  40.8173870  18.4751730 146.5599470
  40.2234190  18.3436430 147.2989510  40.8097710  17.6389870 146.0941570
  51.1700870   3.9754830 146.1471220  50.8414230   3.1606590 145.7672950
  52.1183170   3.9324640 146.0236910  53.6235480  19.7466870 143.1208790
  53.1638450  20.4982680 142.7466810  52.9947940  19.0273340 143.0623590
  40.4486100  15.8410110 145.5107510  39.7220160  15.2215400 145.4433460
  40.5095250  16.2350720 144.6405590  44.0531200  18.0555110 142.2956920
  44.5696220  17.4442470 141.7705180  44.7028580  18.5583890 142.7867930
  46.7926700  18.9463600 143.1225900  47.0804510  18.6917900 142.2458910
  47.3049920  18.3940960 143.7131470  48.0103710   2.6853800 143.7022410
  47.2275500   3.1599300 143.9819170  47.7166640   1.7808630 143.5935590
  52.5624780   3.3876900 141.7471500  53.0032870   3.3322000 140.8993100
  52.2932370   4.3034910 141.8181680  54.4263350   3.0192140 139.7580320
  54.3651750   2.0753360 139.6111340  55.2055380   3.1272230 140.3033780
  38.7316100  19.1584500 138.7204270  38.5638140  18.5255180 139.4186160
  37.8650610  19.3643900 138.3698460  39.3544120   2.9901280 136.2236130
  40.1123480   3.1030160 135.6500160  38.8921290   3.8270480 136.1779560
  45.8957930   5.1040550 139.2138440  45.0832440   4.7297440 138.8734320
  46.3999570   4.3485630 139.5159630  50.3982910   1.7683000 140.4521510
  51.0012280   2.3403210 140.9270030  49.6575900   2.3322440 140.2295410
  53.5417510   2.1704560 135.7261790  53.7368140   3.0688010 135.9929220
  52.7547380   1.9391640 136.2194740  40.3378800  17.8517730 136.1654410
  39.8126420  18.2325760 135.4616370  40.2623380  18.4768500 136.8864120
  41.7269270   3.5165330 134.7638100  42.2562030   2.7295130 134.6346050
  42.3597590   4.1956520 134.9973630  43.9207110   3.2540470 137.8183490
  43.2909850   2.5527780 137.9853620  43.3812250   4.0144600 137.6016650
  55.0944120  19.4105270 137.4868350  55.2696310  18.7243010 136.8429270
  54.3965690  19.9352320 137.0945020  42.9371770  19.8000110 135.0403660
  43.6690590  19.5159390 134.4927550  43.1965440  19.5613390 135.9303040
  42.0986560  15.9164840 135.0449990  41.4695440  16.3849940 135.5935820
  42.2134390  15.0714060 135.4796180  49.5536280   9.9670500 121.1951190
  49.4730330   9.0525110 120.9242900  49.1400700  10.4637570 120.4890900
  47.6854320  11.7449520 123.0760460  46.9096420  11.2649960 123.3659030
  48.3367250  11.0655170 122.9016620  41.7020150  12.0569330 123.9536220
  40.8705030  11.8018040 124.3532730  42.3101130  12.1280100 124.6894140
  51.7061750  16.1509710 121.8559590  51.2443280  15.3796950 122.1846760
  52.5187300  16.1775780 122.3612040  41.6821410  16.0909420 124.1494240
  41.9849450  15.2007160 123.9704460  42.4265000  16.6479640 123.9216490
  40.1112100   7.0171220 117.7378610  39.2228800   7.3587190 117.6358490
  40.3953290   6.8171540 116.8459440  38.0745110   9.6176870 123.6218310
  38.6461220   8.8499070 123.6221950  38.0746650   9.9165630 122.7124920
  47.9325060  18.4367720 121.4763580  47.3136500  18.8925220 120.9058020
  48.7876840  18.5919180 121.0753280  47.1263310  14.4206710 123.0830620
  47.0571590  13.4796650 122.9219750  47.8883170  14.5108120 123.6553190
  39.3169980   5.0261230 125.4087240  39.1372820   4.1286980 125.6890000
  38.9150060   5.5733100 126.0834190  48.1568480   7.2277090 123.3099550
  48.5333300   6.3548970 123.1973220  48.0587990   7.5635790 122.4189990
  42.2873490   5.6002720 118.7716990  42.3940240   6.5006450 119.0785750
  41.3765850   5.5520690 118.4811640  51.9392600   4.7227530 120.2427890
  52.7602220   4.2324100 120.2853370  51.9726680   5.3125190 120.9959730
  39.9356650   7.5221730 124.0169580  40.6166760   7.7860100 124.6356980
  39.6204700   6.6822600 124.3507590  44.1281220   8.5689090 123.1042170
  44.6359440   9.0670060 123.7447190  44.6594460   7.7924290 122.9281530
  56.2292150   6.7394280 126.8071520  55.5244320   7.1275990 126.2886630
  56.4950070   7.4344570 127.4092450  42.4117320   3.2087650 127.3705590
  42.4135760   3.7260040 126.5651490  41.5821630   2.7317830 127.3475520
  48.7988410  13.3206960 118.8695490  48.1805680  13.7856410 118.3058210
  49.3111660  14.0134440 119.2865000  43.6620170  12.8482830 125.5479090
  43.3289550  13.4751750 126.1900160  43.8386850  13.3744710 124.7680760
  52.1754080   6.6627910 123.0155430  51.4709650   6.9512800 123.5958540
  52.5366240   7.4728020 122.6554990  42.0932650   4.9197610 125.3776040
  42.4349460   5.7639660 125.0829910  41.1548460   5.0681350 125.4941380
  42.8739270  14.8163630 127.3628270  43.4913270  15.4914710 127.0812720
  42.0132390  15.2251610 127.2715770  38.1671610  14.0063490 116.2435120
  37.7899590  14.4950590 115.5120020  38.4244680  14.6788770 116.8741650
  53.7916860  16.2803040 125.2782910  53.1080380  16.9502150 125.2699580
  54.3311150  16.4783690 124.5127770  55.2441000   6.1082700 123.4064640
  54.2965910   6.1421680 123.5380070  55.5690990   6.9221650 123.7914000
  45.7760540   2.4079880 121.7020630  46.0835520   1.8526770 120.9856130
  44.8461240   2.5424340 121.5193620  51.3275600  18.1247170 123.9928090
  51.3402760  17.7209460 123.1250350  50.7750820  18.8994460 123.8889520
  52.6221020  14.8463390 119.0818260  52.5117350  13.9037720 119.2067680
  52.6189270  15.2079030 119.9681020  50.7261040  13.0277010 125.3210700
  51.1429830  12.8137120 124.4864160  51.4500860  13.2849800 125.8919320
  48.1641300  10.4728710 118.4380750  47.2370580  10.4066090 118.6669220
  48.3166120  11.4108840 118.3235990  48.1510380   6.7445710 115.4347910
  47.2114050   6.9059670 115.5200370  48.4693640   7.4631390 114.8883900
  54.6723140  11.4264230 125.4126940  53.8441770  11.4957320 124.9377070
  55.2673620  12.0118540 124.9442770  52.1938590  12.0349010 118.9416000
  51.5751010  11.6968560 118.2942300  52.1763040  11.3908770 119.6495190
  51.6365150   8.2133550 126.3581810  51.2236330   9.0387260 126.6121800
  50.9041100   7.6278590 126.1658170  43.7697940  10.9993450 121.2200480
  43.3654940  10.2870700 120.7246380  43.8561060  10.6546690 122.1088520
  44.2379640  14.6861010 123.3839690  43.9407930  14.0806480 122.7047470
  45.1879460  14.7238320 123.2729050  42.4826560   7.7736660 124.9999520
  43.0341150   7.8832000 124.2252770  42.9970070   8.1474260 125.7154750
  52.3265250  18.2592880 127.0462790  51.8495810  19.0665070 126.8535400
  51.6427040  17.6071210 127.1989000  43.3298070  14.4242700 130.0347490
  42.4326600  14.6482670 130.2820890  43.3550940  14.5477640 129.0858890
  50.3703290  11.2735820 115.9488750  50.8096570  10.4358250 115.8026570
  51.0831710  11.9065220 116.0352890  42.1569290  11.2956020 128.6104860
  42.0177060  12.1678820 128.9792260  41.2750650  10.9528830 128.4652800
  48.4798670  16.2131890 119.9169990  48.9194580  16.9556220 119.5025380
  48.4185560  16.4558460 120.8408950  43.9549640  17.2377720 130.8190010
  43.9265070  17.6420670 129.9518440  43.7914610  16.3088080 130.6561610
  53.9520430   2.5278630 114.2629790  53.6393090   2.6205460 115.1628860
  54.7132900   3.1059660 114.2127220  40.4702570   9.8938430 118.7207130
  40.3500170  10.6200520 118.1088400  40.1603460   9.1241340 118.2435040
  55.9064460  18.0204820 132.1154180  56.3824180  18.4987710 132.7943260
  56.5271620  17.9522310 131.3899680  38.1087940  13.0653570 124.5275770
  38.1868360  13.2002340 123.5831490  38.7229620  12.3569460 124.7203890
  39.3535570  14.7653760 120.9381950  38.9463650  14.9068350 120.0835550
  40.2448580  14.4813920 120.7353160  55.3097710  15.2117670 129.2754190
  55.4360770  14.9729550 128.3571370  55.3519090  14.3802210 129.7476270
  49.1714450  18.9145670 127.8449000  49.6859120  18.8253680 128.6471430
  48.3283530  19.2605370 128.1376910  51.1468850  19.2001010 117.2733000
  50.9869990  18.9103950 118.1714830  50.9815560  18.4241140 116.7378230
  43.6257230  18.9799540 119.0504620  43.4499710  18.0635080 118.8372420
  42.7712970  19.3386830 119.2902420  50.8494980  16.7088570 115.8331000
  50.1560140  16.7065860 115.1733280  51.5917840  16.2847890 115.4025170
  50.4144910  18.3351280 119.9079490  50.8701860  17.5540660 120.2218110
  50.7537430  19.0458100 120.4520670  55.1621720   7.2650130 130.2403930
  54.5465990   7.7729800 129.7119390  54.8418140   6.3648460 130.1829870
  38.1647460  14.1067740 127.0670230  38.3278500  13.6373100 126.2489600
  38.6299910  13.5991300 127.7319070  42.9366230   3.2373500 122.1030800
  42.4934380   4.0183040 121.7715320  43.4951220   3.5603390 122.8101740
  47.2236040   6.1042020 127.7066120  46.7615410   6.3125040 128.5186060
  46.8214150   5.2901370 127.4036790  52.2240550   7.3250970 128.8362780
  51.3734140   7.0256720 129.1571850  52.0642340   7.5692980 127.9246600
  49.3190260   8.8252720 130.9361570  49.6443670   7.9916470 130.5963800
  50.1070590   9.3481240 131.0839900  46.0525050   2.8584200 116.9836630
  45.4279230   2.8544070 117.7089940  45.9655170   1.9915160 116.5872600
  44.9742130   3.7820830 123.9620400  45.2714460   4.6883660 123.8812420
  45.5227690   3.2939610 123.3479970  42.7280450   8.3607070 119.8312050
  42.5021370   8.1444240 120.7358670  41.9472980   8.7935530 119.4858020
  49.9578210   8.3670440 118.4302700  49.3587100   9.0906240 118.2466320
  50.5057820   8.3047220 117.6479150  45.1679660   9.2592650 130.4972320
  45.0723260   8.3187380 130.3472720  46.0111640   9.4807720 130.1020390
  48.5643080   7.0033980 120.4605980  48.9572650   7.3206180 119.6474670
  48.9259930   6.1245860 120.5750500  40.2990200   5.6706320 128.6506100
  39.9053590   6.5181530 128.8578880  39.6108600   5.0332690 128.8414740
  46.8735250   5.7541290 131.7202840  46.1833570   5.5613490 132.3548930
  47.6167550   6.0375930 132.2527140  37.6007250   3.5934780 122.6836180
  37.3120300   4.1637640 123.3961160  38.3453010   3.1139230 123.0467410
  37.7877480   7.5354900 113.8938900  37.7052150   8.4785660 114.0353890
  37.4360540   7.3929810 113.0151250  49.1498220   9.5939730 124.5556760
  48.4179340  10.1026540 124.9046860  48.7522560   8.7769710 124.2545540
  45.5875610   6.2693930 122.9609250  45.5911670   5.8283880 122.1113790
  46.4826730   6.5911260 123.0681070  41.4377990   6.1520420 121.9203460
  41.0978040   6.6295650 122.6770510  40.6755310   5.6985540 121.5604560
  45.6495760   7.2706010 115.9516010  45.7708580   7.2292490 116.9001830
  45.2644270   8.1330160 115.7962740  49.6124130   5.0473410 123.9679700
  49.6296870   5.4982060 124.8121550  49.3639710   4.1479050 124.1813140
  44.6617260   9.5807150 115.3499310  44.0934160   9.1325400 114.7235220
  45.3706260   9.9399930 114.8164460  53.0394880   2.4605590 129.8066080
  53.3640650   1.7295250 130.3324060  53.0751390   2.1419230 128.9047070
  39.7386440  13.4819170 129.2266040  39.3541230  12.8412840 129.8249000
  40.0498630  14.1855290 129.7960770  45.8883580  10.3295710 124.7074660
  46.2553710   9.8554280 125.4536000  45.6988640  11.2037280 125.0483000
  38.7524070   5.0739400 120.8368130  38.4670990   4.7095070 121.6746750
  38.6902930   4.3419860 120.2231270  43.6782950   9.3704350 127.0258870
  43.3740020  10.2496330 127.2509230  44.6329410   9.4304140 127.0616310
  42.2064740  13.5765340 117.6225720  41.4327000  13.0362960 117.4624440
  42.9359370  13.0571950 117.2843480  52.9652720  12.5730700 123.4152110
  53.6851840  13.0685990 123.0248220  52.7634540  11.8948590 122.7705980
  48.4262660   3.9668660 117.5581500  47.6127270   3.4681830 117.4826810
  48.2324610   4.8066910 117.1417850  48.3471520  12.6439760 129.3021110
  48.2808830  11.7235430 129.0478700  47.7176660  12.7415200 130.0165750
  51.1411050   8.3388310 115.8543660  52.0290670   8.6505540 115.6795000
  51.1116140   7.4660560 115.4624240  42.2502140  13.2445720 121.2604530
  42.7680810  12.4413980 121.2061420  41.7986160  13.1824860 122.1021360
  47.1371640  14.5112000 116.5331830  47.4787340  15.2554230 116.0375150
  46.3084350  14.8243120 116.8956660  39.7346680  10.2107090 128.1730230
  39.3761620  10.8760940 128.7603570  39.4401240   9.3790640 128.5442850
  42.9359800  10.6691330 131.0569780  42.6359940  10.8148510 130.1597600
  43.7071040  10.1096620 130.9643170  48.2788250  15.4660330 129.0524910
  48.2932790  14.5341290 128.8343820  47.5713350  15.5520090 129.6914680
  53.4125320   9.6500150 115.3223520  53.3289040  10.0814370 114.4719960
  54.1319510  10.1098500 115.7550340  54.4899460  12.1067670 128.3993490
  53.7647650  12.6996450 128.2022880  55.0174920  12.0991210 127.6006860
  54.4412570  16.5042410 118.0505650  53.7988730  15.8498030 118.3249370
  54.0543230  16.9097500 117.2746320  50.0199050  13.8327840 121.8977340
  50.3722870  13.2355970 121.2378710  49.1361380  13.5072070 122.0685590
  46.1062330  14.5925530 119.3047750  46.7933460  15.1394740 119.6855340
  45.3194750  15.1366260 119.3397360  38.2454730  10.2098350 114.7964830
  39.1149580  10.4923150 115.0800750  37.7545050  11.0234220 114.6813640
  45.4089540  11.5971560 118.9173110  45.8652320  12.4076810 119.1433300
  45.0577750  11.2794700 119.7491600  47.7122150  17.1077900 126.1465410
  48.3564370  17.3137280 126.8238830  48.0751590  16.3466300 125.6936260
  41.3101320   1.9409210 119.3895630  41.1815950   1.9327110 120.3380550
  40.4863340   2.2792300 119.0386640  48.9854230  15.1110250 124.8642860
  49.6276460  14.4103410 124.9775030  49.5103580  15.8908690 124.6839750
  52.8309950  15.3958870 114.5882000  52.6047530  14.6789310 115.1806640
  52.4406150  15.1471310 113.7503750  50.7591850  15.9105150 128.0678920
  51.0948090  16.4971840 128.7456840  49.8392190  15.7797860 128.2976710
  38.6125980  19.4225730 115.3626460  38.9723620  20.0215070 114.7083730
  38.4718320  19.9685620 116.1361490  38.3095250   3.7000330 128.8502330
  37.5953770   3.8997250 129.4554940  38.7290290   2.9239900 129.2217130
  52.4126200  13.3130810 116.2496160  52.1247900  13.7743500 117.0374040
  53.2078370  12.8528580 116.5180380  38.5967840  17.6880590 129.8368860
  38.7058960  16.7475330 129.6964250  37.9448400  17.9535340 129.1882590
  46.5880430  15.9596480 131.2366980  46.2677300  15.2405720 131.7812670
  45.9138790  16.6351550 131.3103040  44.6294600  16.8056930 116.1800130
  44.6204700  17.5386620 115.5644640  43.7092960  16.5588510 116.2727090
  40.2301240  12.0271820 116.9246890  39.6229190  12.7670720 116.9342190
  40.7050590  12.1171180 116.0985090  49.8034030   6.1922640 126.6003780
  50.1714850   5.3717850 126.9283350  48.9432230   6.2524530 127.0159430
  53.1696060   5.1479580 117.4091340  52.5409220   5.2525250 116.6949570
  52.6747980   5.3676360 118.1985220  47.6154200  16.8685170 114.8425320
  47.7166180  16.6649160 113.9127300  46.7155940  16.6143450 115.0473100
  45.1380090   7.4265530 118.8249220  44.4296240   7.8951870 119.2662830
  45.4224570   6.7687540 119.4594410  46.7636020   8.8462230 126.8241750
  47.2621270   9.3208050 127.4893600  46.9058970   7.9225750 127.0311780
  49.1695520   4.1516190 120.2645010  49.0463300   4.1702320 119.3154520
  50.1180080   4.1995130 120.3843410  46.2572310  19.3871490 119.5372990
  46.5113810  19.3492880 118.6152360  45.3084790  19.2604820 119.5301240
  43.3415110   5.7350610 116.1999930  44.1905640   6.1720760 116.1340120
  42.9746380   6.0470870 117.0271990  53.9702880   5.0630190 127.6670140
  53.4676480   5.8035590 128.0063950  54.7859540   5.4514190 127.3506930
  52.2624890  10.3063370 121.1131500  51.3215030  10.3213600 121.2879190
  52.5768960   9.5199330 121.5591800  42.2406530  11.9882970 114.6735460
  43.0069800  11.8764330 115.2360890  42.3181220  11.2920940 114.0212230
  40.9353290   9.4208040 115.3568350  41.0156880   8.4735550 115.4685750
  41.8273040   9.7514920 115.4629010  54.2650470  17.4772220 122.7885760
  54.3897890  18.3003390 123.2609570  55.1316030  17.2662950 122.4409910
  41.7368000  19.5703430 122.4602890  42.4730480  19.0218890 122.7311460
  42.1208920  20.4359440 122.3208880  38.6213480  15.6377000 118.3344400
  37.6953260  15.8798140 118.3249810  39.0869910  16.4651260 118.2129150
  40.7426280  18.7549500 131.6488470  41.5439010  19.0761550 132.0623870
  40.2278100  18.3945080 132.3708380  44.8470310  18.7433740 114.2828460
  45.6398920  19.0322570 113.8310250  44.3274660  18.3125910 113.6040940
  49.5790910  14.8629370 131.5963880  48.9729070  14.8860970 130.8559630
  49.2745020  14.1312410 132.1331130  51.0091280  18.5909660 130.2073290
  51.9613030  18.5067680 130.1573530  50.8619500  19.2551370 130.8807080
  53.9000480  17.9703870 115.7065200  53.6141990  17.5569010 114.8919380
  53.7020030  18.8991580 115.5865720  38.4624090  11.2422960 130.5924520
  38.9663110  10.6630240 131.1640750  37.7231510  11.5263190 131.1300890
  45.3647710  13.9637150 114.1470810  45.2598350  13.3489500 114.8732190
  45.1971930  13.4403040 113.3633820  45.5162030  12.6493950 130.1260040
  44.7507700  13.2178950 130.0414710  45.6977990  12.3570160 129.2328270
  48.6050440  13.0257180 114.7512800  48.0560540  13.4726480 115.3955540
  49.2269700  12.5206430 115.2750470  52.6585380  14.3799280 130.6835060
  53.3994850  14.7175040 130.1802520  51.8958060  14.5491340 130.1304830
  40.4947170   9.3852550 131.4874590  40.5352510   9.0866420 132.3959820
  41.3492670   9.7860160 131.3282110  44.2725560  11.9848100 116.6478100
  44.6941980  11.8187970 117.4909490  44.3976400  11.1748330 116.1533240
  42.4352980   7.9644650 129.4549080  41.9049440   7.4735600 128.8272420
  43.1041050   8.3928850 128.9207010  46.7853200  11.0085710 113.8955200
  47.3058860  10.2934730 113.5296350  47.4321600  11.6471580 114.1955710
  51.3331040  12.4314110 129.2190270  51.7472060  12.5859190 130.0680690
  50.3982040  12.5569330 129.3816050  51.8053210   9.7710270 131.2229420
  52.3873980   9.0162590 131.1349900  51.9814980  10.3017710 130.4460900
  42.9225280   4.9307020 129.5346370  42.8282150   4.3127770 128.8097240
  42.3422670   5.6573310 129.3076280  45.6886720   3.4880260 126.5673760
  45.2404020   3.5104520 125.7219310  45.0551920   3.0899280 127.1644060
  46.0946270  12.3834590 127.1886200  46.5134380  13.2267320 127.0162440
  45.1754900  12.5206630 126.9592980  48.4310170  10.1150770 128.5724040
  48.5506380   9.5191910 129.3118880  49.2904170  10.1520460 128.1525340
  50.7698070  10.6687960 127.1486550  50.2433290  11.1930580 126.5451690
  51.1129410  11.3015350 127.7796280  43.1684460   8.0581330 113.5936260
  42.9673520   7.1948690 113.9549600  42.9976510   7.9714690 112.6557860
  43.9453690  18.6887600 128.3043930  43.4074780  19.4133660 127.9852630
  44.1987650  18.2117940 127.5141270  45.1978940   6.6572120 129.8299860
  45.7878630   6.3487970 130.5177680  44.3799180   6.1851870 129.9859760
  50.0172370   6.2737930 130.0632880  49.3287890   5.6119470 129.9982870
  50.7378390   5.8276200 130.5081340  50.6472770   2.8689560 116.1223140
  50.9275060   2.0257460 116.4782560  49.8738500   3.1012670 116.6361890
  41.9667260   5.1581950 113.5814140  42.2693160   5.1649380 112.6733290
  42.7061850   4.8079810 114.0781800  46.8015900  19.9238810 128.5630580
  46.7274600  20.8273950 128.8702950  45.8994740  19.6050710 128.5352650
  45.1852190   4.1016570 114.5670340  44.8374190   3.4240560 113.9872790
  45.3864960   3.6406080 115.3813730  47.3501230  19.0897320 116.1856940
  48.2452020  19.4282290 116.2075700  47.3818860  18.3676730 115.5581220
  40.9897390  14.4624370 114.4143940  41.4272260  15.0054040 115.0701520
  41.4745120  13.6371320 114.4240280  38.2043190  17.2513400 121.8664200
  38.5346200  16.3834460 121.6342840  38.6334190  17.4571920 122.6969160
  42.8005110  15.5822410 119.5266170  42.5000650  15.4587380 120.4270080
  42.6942600  14.7231000 119.1181900  38.6933400  18.1183990 124.6045830
  38.2564390  18.2984790 125.4369980  39.2611080  18.8758610 124.4627550
  54.3295580  17.6200990 128.8923140  53.7297570  17.6793550 128.1487060
  54.4589480  16.6805970 129.0219990  55.5697030  15.3618810 114.2292850
  54.7389990  15.4295460 114.7000080  55.7468860  16.2522930 113.9259710
  55.0253490  12.1066290 116.7327050  55.7872400  12.6762940 116.8386740
  55.0407860  11.5393490 117.5035360  38.5257830  10.6304220 120.9634710
  37.8706670  10.3615860 120.3194410  39.3635780  10.5208700 120.5136690
  56.0313460  12.9616390 121.5768980  56.4022290  12.1783710 121.1704950
  56.6715390  13.6505490 121.3986280  53.0147220  14.3452970 126.9899300
  52.2007060  14.7750130 127.2525090  53.4221420  14.9571380 126.3768350
  55.0772660  12.4000660 113.8899570  55.3521500  13.3079540 113.7618790
  54.8883400  12.3363190 114.8261560  51.4748270   5.4245510 115.1853200
  51.8933150   5.2376490 114.3449860  51.1684330   4.5724560 115.4956130
  54.9738000  10.3369650 118.8829000  54.5981600   9.5697580 118.4510290
  54.2441120  10.7192350 119.3703930  39.5633760  11.0156790 125.5038050
  39.9306800  10.9284190 126.3834070  38.9944580  10.2523340 125.4044910
  54.3637620   9.4841170 128.5168520  54.1323710   9.2553920 127.6166470
  54.6242170  10.4040720 128.4713410  39.1149760   7.9265880 129.4096470
  38.2205810   7.8932640 129.7490180  39.6547310   8.1252670 130.1747720
  52.8025690   4.7097600 131.2948220  53.6795870   4.7181000 131.6782220
  52.8146530   3.9728440 130.6840570  37.7395910   7.8403150 116.9060040
  36.8359990   8.1033350 116.7311700  38.2236530   8.1114320 116.1260000
  54.2488960   8.5627140 122.1836240  54.7726440   8.0689790 121.5526410
  54.8348380   8.6977500 122.9283810  54.4278680   8.6467010 125.7055790
  53.4781390   8.6130550 125.8200780  54.6091690   9.5567120 125.4705560
  40.2823120   6.8968690 114.8154420  40.9914820   6.4751910 114.3301700
  39.5663060   6.9643920 114.1837770  39.9297280   2.9508020 113.8557070
  40.6525410   3.4916960 114.1738290  40.2021800   2.6771440 112.9798610
  53.7388930   7.8200490 118.1228650  54.2348050   7.5871360 118.9077530
  53.5405000   6.9812330 117.7066290  39.6189470   2.2014210 123.7579690
  40.2665660   1.6511590 123.3174850  40.0391310   2.4557360 124.5795500
  55.1676090   6.4561440 120.6566330  55.0575370   6.3017480 121.5948600
  55.9283680   5.9282380 120.4141740  53.5141810   2.3955570 127.1149330
  54.1514030   3.0089710 127.4808520  53.6616700   2.4316230 126.1698560
  56.0566360   4.2869360 113.8972470  56.9815670   4.1550540 113.6890760
  56.0342150   4.3662180 114.8508920  56.1304850   5.0580020 116.5229180
  55.3356350   4.9925140 117.0522090  56.3348130   5.9930660 116.5114530
  53.0723270  19.0971570 120.5167570  53.6682340  18.7756140 119.8401990
  53.3301420  18.6243390 121.3080840  39.3721470   2.3569880 126.5005010
  39.0236290   2.8133700 127.2663190  39.0409170   1.4627010 126.5827440
  40.9785840  15.5289480 130.6658200  40.9355470  15.1582390 131.5472660
  41.1096850  16.4667050 130.8060020  44.6791870  17.0849070 126.2667920
  44.4383230  17.3523630 125.3798440  45.6194510  17.2554800 126.3218780
  46.8846290   3.5481760 130.0224430  46.8235180   4.1403590 130.7719840
  47.8246670   3.4407720 129.8774690  49.5220850   3.2051820 129.6616720
  50.1361260   3.5231110 128.9997800  50.0670410   2.7200410 130.2812580
  55.9396030  19.1043450 127.0678560  55.4454310  19.5012320 126.3505690
  55.3309320  18.4792660 127.4615840  40.8173870  18.4751730 127.7855980
  40.2234190  18.3436430 128.5246020  40.8097710  17.6389870 127.3198080
  51.1700870   3.9754830 127.3727730  50.8414230   3.1606590 126.9929460
  52.1183170   3.9324640 127.2493420  53.6235480  19.7466870 124.3465300
  53.1638450  20.4982680 123.9723320  52.9947940  19.0273340 124.2880100
  40.4486100  15.8410110 126.7364020  39.7220160  15.2215400 126.6689970
  40.5095250  16.2350720 125.8662100  44.0531200  18.0555110 123.5213430
  44.5696220  17.4442470 122.9961690  44.7028580  18.5583890 124.0124440
  46.7926700  18.9463600 124.3482410  47.0804510  18.6917900 123.4715420
  47.3049920  18.3940960 124.9387980  48.0103710   2.6853800 124.9278920
  47.2275500   3.1599300 125.2075680  47.7166640   1.7808630 124.8192100
  52.5624780   3.3876900 122.9728010  53.0032870   3.3322000 122.1249610
  52.2932370   4.3034910 123.0438190  54.4263350   3.0192140 120.9836830
  54.3651750   2.0753360 120.8367850  55.2055380   3.1272230 121.5290290
  38.7316100  19.1584500 119.9460780  38.5638140  18.5255180 120.6442670
  37.8650610  19.3643900 119.5954970  39.3544120   2.9901280 117.4492640
  40.1123480   3.1030160 116.8756670  38.8921290   3.8270480 117.4036070
  45.8957930   5.1040550 120.4394950  45.0832440   4.7297440 120.0990830
  46.3999570   4.3485630 120.7416140  50.3982910   1.7683000 121.6778020
  51.0012280   2.3403210 122.1526540  49.6575900   2.3322440 121.4551920
  53.5417510   2.1704560 116.9518300  53.7368140   3.0688010 117.2185730
  52.7547380   1.9391640 117.4451250  40.3378800  17.8517730 117.3910920
  39.8126420  18.2325760 116.6872880  40.2623380  18.4768500 118.1120630
  41.7269270   3.5165330 115.9894610  42.2562030   2.7295130 115.8602560
  42.3597590   4.1956520 116.2230140  43.9207110   3.2540470 119.0440000
  43.2909850   2.5527780 119.2110130  43.3812250   4.0144600 118.8273160
  46.8599060  19.8679700 131.7150610  47.7866370  19.6323970 131.7586570
  46.8449490  20.6951700 131.2336640  55.0944120  19.4105270 118.7124860
  55.2696310  18.7243010 118.0685780  54.3965690  19.9352320 118.3201530
  44.0462670   2.5324450 131.4792490  43.7646940   3.0358050 130.7153310
  44.4282370   1.7346200 131.1134620  42.9371770  19.8000110 116.2660170
  43.6690590  19.5159390 115.7184060  43.1965440  19.5613390 117.1559550
  42.0986560  15.9164840 116.2706500  41.4695440  16.3849940 116.8192330
  42.2134390  15.0714060 116.7052690  50.6478130   1.9478030 132.0572960
  50.5343580   2.2672640 132.9524480  51.4647870   2.3490540 131.7610240
  53.4276620  19.0949560 131.5391650  54.2201940  18.5998790 131.3317610
  53.7209770  19.7739700 132.1467260  49.5536280   9.9670500 102.4207700
  49.4730330   9.0525110 102.1499410  49.1400700  10.4637570 101.7147410
  47.6854320  11.7449520 104.3016970  46.9096420  11.2649960 104.5915540
  48.3367250  11.0655170 104.1273130  41.7020150  12.0569330 105.1792730
  40.8705030  11.8018040 105.5789240  42.3101130  12.1280100 105.9150650
  51.7061750  16.1509710 103.0816100  51.2443280  15.3796950 103.4103270
  52.5187300  16.1775780 103.5868550  41.6821410  16.0909420 105.3750750
  41.9849450  15.2007160 105.1960970  42.4265000  16.6479640 105.1473000
  40.1112100   7.0171220  98.9635120  39.2228800   7.3587190  98.8615000
  40.3953290   6.8171540  98.0715950  38.0745110   9.6176870 104.8474820
  38.6461220   8.8499070 104.8478460  38.0746650   9.9165630 103.9381430
  47.9325060  18.4367720 102.7020090  47.3136500  18.8925220 102.1314530
  48.7876840  18.5919180 102.3009790  47.1263310  14.4206710 104.3087130
  47.0571590  13.4796650 104.1476260  47.8883170  14.5108120 104.8809700
  39.3169980   5.0261230 106.6343750  39.1372820   4.1286980 106.9146510
  38.9150060   5.5733100 107.3090700  48.1568480   7.2277090 104.5356060
  48.5333300   6.3548970 104.4229730  48.0587990   7.5635790 103.6446500
  42.2873490   5.6002720  99.9973500  42.3940240   6.5006450 100.3042260
  41.3765850   5.5520690  99.7068150  51.9392600   4.7227530 101.4684400
  52.7602220   4.2324100 101.5109880  51.9726680   5.3125190 102.2216240
  39.9356650   7.5221730 105.2426090  40.6166760   7.7860100 105.8613490
  39.6204700   6.6822600 105.5764100  44.1281220   8.5689090 104.3298680
  44.6359440   9.0670060 104.9703700  44.6594460   7.7924290 104.1538040
  56.2292150   6.7394280 108.0328030  55.5244320   7.1275990 107.5143140
  56.4950070   7.4344570 108.6348960  42.4117320   3.2087650 108.5962100
  42.4135760   3.7260040 107.7908000  41.5821630   2.7317830 108.5732030
  48.7988410  13.3206960 100.0952000  48.1805680  13.7856410  99.5314720
  49.3111660  14.0134440 100.5121510  43.6620170  12.8482830 106.7735600
  43.3289550  13.4751750 107.4156670  43.8386850  13.3744710 105.9937270
  52.1754080   6.6627910 104.2411940  51.4709650   6.9512800 104.8215050
  52.5366240   7.4728020 103.8811500  42.0932650   4.9197610 106.6032550
  42.4349460   5.7639660 106.3086420  41.1548460   5.0681350 106.7197890
  42.8739270  14.8163630 108.5884780  43.4913270  15.4914710 108.3069230
  42.0132390  15.2251610 108.4972280  38.1671610  14.0063490  97.4691630
  37.7899590  14.4950590  96.7376530  38.4244680  14.6788770  98.0998160
  53.7916860  16.2803040 106.5039420  53.1080380  16.9502150 106.4956090
  54.3311150  16.4783690 105.7384280  55.2441000   6.1082700 104.6321150
  54.2965910   6.1421680 104.7636580  55.5690990   6.9221650 105.0170510
  45.7760540   2.4079880 102.9277140  46.0835520   1.8526770 102.2112640
  44.8461240   2.5424340 102.7450130  51.3275600  18.1247170 105.2184600
  51.3402760  17.7209460 104.3506860  50.7750820  18.8994460 105.1146030
  52.6221020  14.8463390 100.3074770  52.5117350  13.9037720 100.4324190
  52.6189270  15.2079030 101.1937530  50.7261040  13.0277010 106.5467210
  51.1429830  12.8137120 105.7120670  51.4500860  13.2849800 107.1175830
  48.1641300  10.4728710  99.6637260  47.2370580  10.4066090  99.8925730
  48.3166120  11.4108840  99.5492500  48.1510380   6.7445710  96.6604420
  47.2114050   6.9059670  96.7456880  48.4693640   7.4631390  96.1140410
  54.6723140  11.4264230 106.6383450  53.8441770  11.4957320 106.1633580
  55.2673620  12.0118540 106.1699280  52.1938590  12.0349010 100.1672510
  51.5751010  11.6968560  99.5198810  52.1763040  11.3908770 100.8751700
  51.6365150   8.2133550 107.5838320  51.2236330   9.0387260 107.8378310
  50.9041100   7.6278590 107.3914680  43.7697940  10.9993450 102.4456990
  43.3654940  10.2870700 101.9502890  43.8561060  10.6546690 103.3345030
  44.2379640  14.6861010 104.6096200  43.9407930  14.0806480 103.9303980
  45.1879460  14.7238320 104.4985560  42.4826560   7.7736660 106.2256030
  43.0341150   7.8832000 105.4509280  42.9970070   8.1474260 106.9411260
  52.3265250  18.2592880 108.2719300  51.8495810  19.0665070 108.0791910
  51.6427040  17.6071210 108.4245510  43.3298070  14.4242700 111.2604000
  42.4326600  14.6482670 111.5077400  43.3550940  14.5477640 110.3115400
  50.3703290  11.2735820  97.1745260  50.8096570  10.4358250  97.0283080
  51.0831710  11.9065220  97.2609400  42.1569290  11.2956020 109.8361370
  42.0177060  12.1678820 110.2048770  41.2750650  10.9528830 109.6909310
  48.4798670  16.2131890 101.1426500  48.9194580  16.9556220 100.7281890
  48.4185560  16.4558460 102.0665460  43.9549640  17.2377720 112.0446520
  43.9265070  17.6420670 111.1774950  43.7914610  16.3088080 111.8818120
  53.9520430   2.5278630  95.4886300  53.6393090   2.6205460  96.3885370
  54.7132900   3.1059660  95.4383730  40.4702570   9.8938430  99.9463640
  40.3500170  10.6200520  99.3344910  40.1603460   9.1241340  99.4691550
  55.9064460  18.0204820 113.3410690  56.3824180  18.4987710 114.0199770
  56.5271620  17.9522310 112.6156190  38.1087940  13.0653570 105.7532280
  38.1868360  13.2002340 104.8088000  38.7229620  12.3569460 105.9460400
  39.3535570  14.7653760 102.1638460  38.9463650  14.9068350 101.3092060
  40.2448580  14.4813920 101.9609670  55.3097710  15.2117670 110.5010700
  55.4360770  14.9729550 109.5827880  55.3519090  14.3802210 110.9732780
  49.1714450  18.9145670 109.0705510  49.6859120  18.8253680 109.8727940
  48.3283530  19.2605370 109.3633420  51.1468850  19.2001010  98.4989510
  50.9869990  18.9103950  99.3971340  50.9815560  18.4241140  97.9634740
  43.6257230  18.9799540 100.2761130  43.4499710  18.0635080 100.0628930
  42.7712970  19.3386830 100.5158930  50.8494980  16.7088570  97.0587510
  50.1560140  16.7065860  96.3989790  51.5917840  16.2847890  96.6281680
  50.4144910  18.3351280 101.1336000  50.8701860  17.5540660 101.4474620
  50.7537430  19.0458100 101.6777180  55.1621720   7.2650130 111.4660440
  54.5465990   7.7729800 110.9375900  54.8418140   6.3648460 111.4086380
  38.1647460  14.1067740 108.2926740  38.3278500  13.6373100 107.4746110
  38.6299910  13.5991300 108.9575580  42.9366230   3.2373500 103.3287310
  42.4934380   4.0183040 102.9971830  43.4951220   3.5603390 104.0358250
  47.2236040   6.1042020 108.9322630  46.7615410   6.3125040 109.7442570
  46.8214150   5.2901370 108.6293300  52.2240550   7.3250970 110.0619290
  51.3734140   7.0256720 110.3828360  52.0642340   7.5692980 109.1503110
  49.3190260   8.8252720 112.1618080  49.6443670   7.9916470 111.8220310
  50.1070590   9.3481240 112.3096410  46.0525050   2.8584200  98.2093140
  45.4279230   2.8544070  98.9346450  45.9655170   1.9915160  97.8129110
  44.9742130   3.7820830 105.1876910  45.2714460   4.6883660 105.1068930
  45.5227690   3.2939610 104.5736480  42.7280450   8.3607070 101.0568560
  42.5021370   8.1444240 101.9615180  41.9472980   8.7935530 100.7114530
  49.9578210   8.3670440  99.6559210  49.3587100   9.0906240  99.4722830
  50.5057820   8.3047220  98.8735660  45.1679660   9.2592650 111.7228830
  45.0723260   8.3187380 111.5729230  46.0111640   9.4807720 111.3276900
  48.5643080   7.0033980 101.6862490  48.9572650   7.3206180 100.8731180
  48.9259930   6.1245860 101.8007010  40.2990200   5.6706320 109.8762610
  39.9053590   6.5181530 110.0835390  39.6108600   5.0332690 110.0671250
  46.8735250   5.7541290 112.9459350  46.1833570   5.5613490 113.5805440
  47.6167550   6.0375930 113.4783650  37.6007250   3.5934780 103.9092690
  37.3120300   4.1637640 104.6217670  38.3453010   3.1139230 104.2723920
  37.7877480   7.5354900  95.1195410  37.7052150   8.4785660  95.2610400
  37.4360540   7.3929810  94.2407760  49.1498220   9.5939730 105.7813270
  48.4179340  10.1026540 106.1303370  48.7522560   8.7769710 105.4802050
  45.5875610   6.2693930 104.1865760  45.5911670   5.8283880 103.3370300
  46.4826730   6.5911260 104.2937580  41.4377990   6.1520420 103.1459970
  41.0978040   6.6295650 103.9027020  40.6755310   5.6985540 102.7861070
  45.6495760   7.2706010  97.1772520  45.7708580   7.2292490  98.1258340
  45.2644270   8.1330160  97.0219250  49.6124130   5.0473410 105.1936210
  49.6296870   5.4982060 106.0378060  49.3639710   4.1479050 105.4069650
  44.6617260   9.5807150  96.5755820  44.0934160   9.1325400  95.9491730
  45.3706260   9.9399930  96.0420970  53.0394880   2.4605590 111.0322590
  53.3640650   1.7295250 111.5580570  53.0751390   2.1419230 110.1303580
  39.7386440  13.4819170 110.4522550  39.3541230  12.8412840 111.0505510
  40.0498630  14.1855290 111.0217280  45.8883580  10.3295710 105.9331170
  46.2553710   9.8554280 106.6792510  45.6988640  11.2037280 106.2739510
  38.7524070   5.0739400 102.0624640  38.4670990   4.7095070 102.9003260
  38.6902930   4.3419860 101.4487780  43.6782950   9.3704350 108.2515380
  43.3740020  10.2496330 108.4765740  44.6329410   9.4304140 108.2872820
  42.2064740  13.5765340  98.8482230  41.4327000  13.0362960  98.6880950
  42.9359370  13.0571950  98.5099990  52.9652720  12.5730700 104.6408620
  53.6851840  13.0685990 104.2504730  52.7634540  11.8948590 103.9962490
  48.4262660   3.9668660  98.7838010  47.6127270   3.4681830  98.7083320
  48.2324610   4.8066910  98.3674360  48.3471520  12.6439760 110.5277620
  48.2808830  11.7235430 110.2735210  47.7176660  12.7415200 111.2422260
  51.1411050   8.3388310  97.0800170  52.0290670   8.6505540  96.9051510
  51.1116140   7.4660560  96.6880750  42.2502140  13.2445720 102.4861040
  42.7680810  12.4413980 102.4317930  41.7986160  13.1824860 103.3277870
  47.1371640  14.5112000  97.7588340  47.4787340  15.2554230  97.2631660
  46.3084350  14.8243120  98.1213170  39.7346680  10.2107090 109.3986740
  39.3761620  10.8760940 109.9860080  39.4401240   9.3790640 109.7699360
  42.9359800  10.6691330 112.2826290  42.6359940  10.8148510 111.3854110
  43.7071040  10.1096620 112.1899680  48.2788250  15.4660330 110.2781420
  48.2932790  14.5341290 110.0600330  47.5713350  15.5520090 110.9171190
  53.4125320   9.6500150  96.5480030  53.3289040  10.0814370  95.6976470
  54.1319510  10.1098500  96.9806850  54.4899460  12.1067670 109.6250000
  53.7647650  12.6996450 109.4279390  55.0174920  12.0991210 108.8263370
  54.4412570  16.5042410  99.2762160  53.7988730  15.8498030  99.5505880
  54.0543230  16.9097500  98.5002830  50.0199050  13.8327840 103.1233850
  50.3722870  13.2355970 102.4635220  49.1361380  13.5072070 103.2942100
  46.1062330  14.5925530 100.5304260  46.7933460  15.1394740 100.9111850
  45.3194750  15.1366260 100.5653870  38.2454730  10.2098350  96.0221340
  39.1149580  10.4923150  96.3057260  37.7545050  11.0234220  95.9070150
  45.4089540  11.5971560 100.1429620  45.8652320  12.4076810 100.3689810
  45.0577750  11.2794700 100.9748110  47.7122150  17.1077900 107.3721920
  48.3564370  17.3137280 108.0495340  48.0751590  16.3466300 106.9192770
  41.3101320   1.9409210 100.6152140  41.1815950   1.9327110 101.5637060
  40.4863340   2.2792300 100.2643150  48.9854230  15.1110250 106.0899370
  49.6276460  14.4103410 106.2031540  49.5103580  15.8908690 105.9096260
  52.8309950  15.3958870  95.8138510  52.6047530  14.6789310  96.4063150
  52.4406150  15.1471310  94.9760260  50.7591850  15.9105150 109.2935430
  51.0948090  16.4971840 109.9713350  49.8392190  15.7797860 109.5233220
  38.6125980  19.4225730  96.5882970  38.9723620  20.0215070  95.9340240
  38.4718320  19.9685620  97.3618000  38.3095250   3.7000330 110.0758840
  37.5953770   3.8997250 110.6811450  38.7290290   2.9239900 110.4473640
  52.4126200  13.3130810  97.4752670  52.1247900  13.7743500  98.2630550
  53.2078370  12.8528580  97.7436890  38.5967840  17.6880590 111.0625370
  38.7058960  16.7475330 110.9220760  37.9448400  17.9535340 110.4139100
  46.5880430  15.9596480 112.4623490  46.2677300  15.2405720 113.0069180
  45.9138790  16.6351550 112.5359550  44.6294600  16.8056930  97.4056640
  44.6204700  17.5386620  96.7901150  43.7092960  16.5588510  97.4983600
  40.2301240  12.0271820  98.1503400  39.6229190  12.7670720  98.1598700
  40.7050590  12.1171180  97.3241600  49.8034030   6.1922640 107.8260290
  50.1714850   5.3717850 108.1539860  48.9432230   6.2524530 108.2415940
  53.1696060   5.1479580  98.6347850  52.5409220   5.2525250  97.9206080
  52.6747980   5.3676360  99.4241730  47.6154200  16.8685170  96.0681830
  47.7166180  16.6649160  95.1383810  46.7155940  16.6143450  96.2729610
  45.1380090   7.4265530 100.0505730  44.4296240   7.8951870 100.4919340
  45.4224570   6.7687540 100.6850920  46.7636020   8.8462230 108.0498260
  47.2621270   9.3208050 108.7150110  46.9058970   7.9225750 108.2568290
  49.1695520   4.1516190 101.4901520  49.0463300   4.1702320 100.5411030
  50.1180080   4.1995130 101.6099920  46.2572310  19.3871490 100.7629500
  46.5113810  19.3492880  99.8408870  45.3084790  19.2604820 100.7557750
  43.3415110   5.7350610  97.4256440  44.1905640   6.1720760  97.3596630
  42.9746380   6.0470870  98.2528500  53.9702880   5.0630190 108.8926650
  53.4676480   5.8035590 109.2320460  54.7859540   5.4514190 108.5763440
  52.2624890  10.3063370 102.3388010  51.3215030  10.3213600 102.5135700
  52.5768960   9.5199330 102.7848310  42.2406530  11.9882970  95.8991970
  43.0069800  11.8764330  96.4617400  42.3181220  11.2920940  95.2468740
  40.9353290   9.4208040  96.5824860  41.0156880   8.4735550  96.6942260
  41.8273040   9.7514920  96.6885520  54.2650470  17.4772220 104.0142270
  54.3897890  18.3003390 104.4866080  55.1316030  17.2662950 103.6666420
  41.7368000  19.5703430 103.6859400  42.4730480  19.0218890 103.9567970
  42.1208920  20.4359440 103.5465390  38.6213480  15.6377000  99.5600910
  37.6953260  15.8798140  99.5506320  39.0869910  16.4651260  99.4385660
  40.7426280  18.7549500 112.8744980  41.5439010  19.0761550 113.2880380
  40.2278100  18.3945080 113.5964890  44.8470310  18.7433740  95.5084970
  45.6398920  19.0322570  95.0566760  44.3274660  18.3125910  94.8297450
  49.5790910  14.8629370 112.8220390  48.9729070  14.8860970 112.0816140
  49.2745020  14.1312410 113.3587640  51.0091280  18.5909660 111.4329800
  51.9613030  18.5067680 111.3830040  50.8619500  19.2551370 112.1063590
  53.9000480  17.9703870  96.9321710  53.6141990  17.5569010  96.1175890
  53.7020030  18.8991580  96.8122230  38.4624090  11.2422960 111.8181030
  38.9663110  10.6630240 112.3897260  37.7231510  11.5263190 112.3557400
  45.3647710  13.9637150  95.3727320  45.2598350  13.3489500  96.0988700
  45.1971930  13.4403040  94.5890330  45.5162030  12.6493950 111.3516550
  44.7507700  13.2178950 111.2671220  45.6977990  12.3570160 110.4584780
  48.6050440  13.0257180  95.9769310  48.0560540  13.4726480  96.6212050
  49.2269700  12.5206430  96.5006980  52.6585380  14.3799280 111.9091570
  53.3994850  14.7175040 111.4059030  51.8958060  14.5491340 111.3561340
  40.4947170   9.3852550 112.7131100  40.5352510   9.0866420 113.6216330
  41.3492670   9.7860160 112.5538620  44.2725560  11.9848100  97.8734610
  44.6941980  11.8187970  98.7166000  44.3976400  11.1748330  97.3789750
  42.4352980   7.9644650 110.6805590  41.9049440   7.4735600 110.0528930
  43.1041050   8.3928850 110.1463520  46.7853200  11.0085710  95.1211710
  47.3058860  10.2934730  94.7552860  47.4321600  11.6471580  95.4212220
  51.3331040  12.4314110 110.4446780  51.7472060  12.5859190 111.2937200
  50.3982040  12.5569330 110.6072560  51.8053210   9.7710270 112.4485930
  52.3873980   9.0162590 112.3606410  51.9814980  10.3017710 111.6717410
  42.9225280   4.9307020 110.7602880  42.8282150   4.3127770 110.0353750
  42.3422670   5.6573310 110.5332790  45.6886720   3.4880260 107.7930270
  45.2404020   3.5104520 106.9475820  45.0551920   3.0899280 108.3900570
  46.0946270  12.3834590 108.4142710  46.5134380  13.2267320 108.2418950
  45.1754900  12.5206630 108.1849490  48.4310170  10.1150770 109.7980550
  48.5506380   9.5191910 110.5375390  49.2904170  10.1520460 109.3781850
  50.7698070  10.6687960 108.3743060  50.2433290  11.1930580 107.7708200
  51.1129410  11.3015350 109.0052790  43.1684460   8.0581330  94.8192770
  42.9673520   7.1948690  95.1806110  42.9976510   7.9714690  93.8814370
  43.9453690  18.6887600 109.5300440  43.4074780  19.4133660 109.2109140
  44.1987650  18.2117940 108.7397780  45.1978940   6.6572120 111.0556370
  45.7878630   6.3487970 111.7434190  44.3799180   6.1851870 111.2116270
  50.0172370   6.2737930 111.2889390  49.3287890   5.6119470 111.2239380
  50.7378390   5.8276200 111.7337850  50.6472770   2.8689560  97.3479650
  50.9275060   2.0257460  97.7039070  49.8738500   3.1012670  97.8618400
  41.9667260   5.1581950  94.8070650  42.2693160   5.1649380  93.8989800
  42.7061850   4.8079810  95.3038310  46.8015900  19.9238810 109.7887090
  46.7274600  20.8273950 110.0959460  45.8994740  19.6050710 109.7609160
  45.1852190   4.1016570  95.7926850  44.8374190   3.4240560  95.2129300
  45.3864960   3.6406080  96.6070240  47.3501230  19.0897320  97.4113450
  48.2452020  19.4282290  97.4332210  47.3818860  18.3676730  96.7837730
  40.9897390  14.4624370  95.6400450  41.4272260  15.0054040  96.2958030
  41.4745120  13.6371320  95.6496790  38.2043190  17.2513400 103.0920710
  38.5346200  16.3834460 102.8599350  38.6334190  17.4571920 103.9225670
  42.8005110  15.5822410 100.7522680  42.5000650  15.4587380 101.6526590
  42.6942600  14.7231000 100.3438410  38.6933400  18.1183990 105.8302340
  38.2564390  18.2984790 106.6626490  39.2611080  18.8758610 105.6884060
  54.3295580  17.6200990 110.1179650  53.7297570  17.6793550 109.3743570
  54.4589480  16.6805970 110.2476500  55.5697030  15.3618810  95.4549360
  54.7389990  15.4295460  95.9256590  55.7468860  16.2522930  95.1516220
  55.0253490  12.1066290  97.9583560  55.7872400  12.6762940  98.0643250
  55.0407860  11.5393490  98.7291870  38.5257830  10.6304220 102.1891220
  37.8706670  10.3615860 101.5450920  39.3635780  10.5208700 101.7393200
  56.0313460  12.9616390 102.8025490  56.4022290  12.1783710 102.3961460
  56.6715390  13.6505490 102.6242790  53.0147220  14.3452970 108.2155810
  52.2007060  14.7750130 108.4781600  53.4221420  14.9571380 107.6024860
  55.0772660  12.4000660  95.1156080  55.3521500  13.3079540  94.9875300
  54.8883400  12.3363190  96.0518070  51.4748270   5.4245510  96.4109710
  51.8933150   5.2376490  95.5706370  51.1684330   4.5724560  96.7212640
  54.9738000  10.3369650 100.1085510  54.5981600   9.5697580  99.6766800
  54.2441120  10.7192350 100.5960440  39.5633760  11.0156790 106.7294560
  39.9306800  10.9284190 107.6090580  38.9944580  10.2523340 106.6301420
  54.3637620   9.4841170 109.7425030  54.1323710   9.2553920 108.8422980
  54.6242170  10.4040720 109.6969920  39.1149760   7.9265880 110.6352980
  38.2205810   7.8932640 110.9746690  39.6547310   8.1252670 111.4004230
  52.8025690   4.7097600 112.5204730  53.6795870   4.7181000 112.9038730
  52.8146530   3.9728440 111.9097080  37.7395910   7.8403150  98.1316550
  36.8359990   8.1033350  97.9568210  38.2236530   8.1114320  97.3516510
  54.2488960   8.5627140 103.4092750  54.7726440   8.0689790 102.7782920
  54.8348380   8.6977500 104.1540320  54.4278680   8.6467010 106.9312300
  53.4781390   8.6130550 107.0457290  54.6091690   9.5567120 106.6962070
  40.2823120   6.8968690  96.0410930  40.9914820   6.4751910  95.5558210
  39.5663060   6.9643920  95.4094280  39.9297280   2.9508020  95.0813580
  40.6525410   3.4916960  95.3994800  40.2021800   2.6771440  94.2055120
  53.7388930   7.8200490  99.3485160  54.2348050   7.5871360 100.1334040
  53.5405000   6.9812330  98.9322800  39.6189470   2.2014210 104.9836200
  40.2665660   1.6511590 104.5431360  40.0391310   2.4557360 105.8052010
  55.1676090   6.4561440 101.8822840  55.0575370   6.3017480 102.8205110
  55.9283680   5.9282380 101.6398250  53.5141810   2.3955570 108.3405840
  54.1514030   3.0089710 108.7065030  53.6616700   2.4316230 107.3955070
  56.0566360   4.2869360  95.1228980  56.9815670   4.1550540  94.9147270
  56.0342150   4.3662180  96.0765430  56.1304850   5.0580020  97.7485690
  55.3356350   4.9925140  98.2778600  56.3348130   5.9930660  97.7371040
  53.0723270  19.0971570 101.7424080  53.6682340  18.7756140 101.0658500
  53.3301420  18.6243390 102.5337350  39.3721470   2.3569880 107.7261520
  39.0236290   2.8133700 108.4919700  39.0409170   1.4627010 107.8083950
  40.9785840  15.5289480 111.8914710  40.9355470  15.1582390 112.7729170
  41.1096850  16.4667050 112.0316530  44.6791870  17.0849070 107.4924430
  44.4383230  17.3523630 106.6054950  45.6194510  17.2554800 107.5475290
  46.8846290   3.5481760 111.2480940  46.8235180   4.1403590 111.9976350
  47.8246670   3.4407720 111.1031200  49.5220850   3.2051820 110.8873230
  50.1361260   3.5231110 110.2254310  50.0670410   2.7200410 111.5069090
  55.9396030  19.1043450 108.2935070  55.4454310  19.5012320 107.5762200
  55.3309320  18.4792660 108.6872350  40.8173870  18.4751730 109.0112490
  40.2234190  18.3436430 109.7502530  40.8097710  17.6389870 108.5454590
  51.1700870   3.9754830 108.5984240  50.8414230   3.1606590 108.2185970
  52.1183170   3.9324640 108.4749930  53.6235480  19.7466870 105.5721810
  53.1638450  20.4982680 105.1979830  52.9947940  19.0273340 105.5136610
  40.4486100  15.8410110 107.9620530  39.7220160  15.2215400 107.8946480
  40.5095250  16.2350720 107.0918610  44.0531200  18.0555110 104.7469940
  44.5696220  17.4442470 104.2218200  44.7028580  18.5583890 105.2380950
  46.7926700  18.9463600 105.5738920  47.0804510  18.6917900 104.6971930
  47.3049920  18.3940960 106.1644490  48.0103710   2.6853800 106.1535430
  47.2275500   3.1599300 106.4332190  47.7166640   1.7808630 106.0448610
  52.5624780   3.3876900 104.1984520  53.0032870   3.3322000 103.3506120
  52.2932370   4.3034910 104.2694700  54.4263350   3.0192140 102.2093340
  54.3651750   2.0753360 102.0624360  55.2055380   3.1272230 102.7546800
  38.7316100  19.1584500 101.1717290  38.5638140  18.5255180 101.8699180
  37.8650610  19.3643900 100.8211480  39.3544120   2.9901280  98.6749150
  40.1123480   3.1030160  98.1013180  38.8921290   3.8270480  98.6292580
  45.8957930   5.1040550 101.6651460  45.0832440   4.7297440 101.3247340
  46.3999570   4.3485630 101.9672650  50.3982910   1.7683000 102.9034530
  51.0012280   2.3403210 103.3783050  49.6575900   2.3322440 102.6808430
  53.5417510   2.1704560  98.1774810  53.7368140   3.0688010  98.4442240
  52.7547380   1.9391640  98.6707760  40.3378800  17.8517730  98.6167430
  39.8126420  18.2325760  97.9129390  40.2623380  18.4768500  99.3377140
  41.7269270   3.5165330  97.2151120  42.2562030   2.7295130  97.0859070
  42.3597590   4.1956520  97.4486650  43.9207110   3.2540470 100.2696510
  43.2909850   2.5527780 100.4366640  43.3812250   4.0144600 100.0529670
  46.8599060  19.8679700 112.9407120  47.7866370  19.6323970 112.9843080
  46.8449490  20.6951700 112.4593150  55.0944120  19.4105270  99.9381370
  55.2696310  18.7243010  99.2942290  54.3965690  19.9352320  99.5458040
  44.0462670   2.5324450 112.7049000  43.7646940   3.0358050 111.9409820
  44.4282370   1.7346200 112.3391130  42.9371770  19.8000110  97.4916680
  43.6690590  19.5159390  96.9440570  43.1965440  19.5613390  98.3816060
  42.0986560  15.9164840  97.4963010  41.4695440  16.3849940  98.0448840
  42.2134390  15.0714060  97.9309200  50.6478130   1.9478030 113.2829470
  50.5343580   2.2672640 114.1780990  51.4647870   2.3490540 112.9866750
  53.4276620  19.0949560 112.7648160  54.2201940  18.5998790 112.5574120
  53.7209770  19.7739700 113.3723770  49.5536280   9.9670500  83.6464210
  49.4730330   9.0525110  83.3755920  49.1400700  10.4637570  82.9403920
  47.6854320  11.7449520  85.5273480  46.9096420  11.2649960  85.8172050
  48.3367250  11.0655170  85.3529640  41.7020150  12.0569330  86.4049240
  40.8705030  11.8018040  86.8045750  42.3101130  12.1280100  87.1407160
  51.7061750  16.1509710  84.3072610  51.2443280  15.3796950  84.6359780
  52.5187300  16.1775780  84.8125060  41.6821410  16.0909420  86.6007260
  41.9849450  15.2007160  86.4217480  42.4265000  16.6479640  86.3729510
  40.1112100   7.0171220  80.1891630  39.2228800   7.3587190  80.0871510
  40.3953290   6.8171540  79.2972460  38.0745110   9.6176870  86.0731330
  38.6461220   8.8499070  86.0734970  38.0746650   9.9165630  85.1637940
  47.9325060  18.4367720  83.9276600  47.3136500  18.8925220  83.3571040
  48.7876840  18.5919180  83.5266300  47.1263310  14.4206710  85.5343640
  47.0571590  13.4796650  85.3732770  47.8883170  14.5108120  86.1066210
  39.3169980   5.0261230  87.8600260  39.1372820   4.1286980  88.1403020
  38.9150060   5.5733100  88.5347210  48.1568480   7.2277090  85.7612570
  48.5333300   6.3548970  85.6486240  48.0587990   7.5635790  84.8703010
  42.2873490   5.6002720  81.2230010  42.3940240   6.5006450  81.5298770
  41.3765850   5.5520690  80.9324660  51.9392600   4.7227530  82.6940910
  52.7602220   4.2324100  82.7366390  51.9726680   5.3125190  83.4472750
  39.9356650   7.5221730  86.4682600  40.6166760   7.7860100  87.0870000
  39.6204700   6.6822600  86.8020610  44.1281220   8.5689090  85.5555190
  44.6359440   9.0670060  86.1960210  44.6594460   7.7924290  85.3794550
  56.2292150   6.7394280  89.2584540  55.5244320   7.1275990  88.7399650
  56.4950070   7.4344570  89.8605470  42.4117320   3.2087650  89.8218610
  42.4135760   3.7260040  89.0164510  41.5821630   2.7317830  89.7988540
  48.7988410  13.3206960  81.3208510  48.1805680  13.7856410  80.7571230
  49.3111660  14.0134440  81.7378020  43.6620170  12.8482830  87.9992110
  43.3289550  13.4751750  88.6413180  43.8386850  13.3744710  87.2193780
  52.1754080   6.6627910  85.4668450  51.4709650   6.9512800  86.0471560
  52.5366240   7.4728020  85.1068010  42.0932650   4.9197610  87.8289060
  42.4349460   5.7639660  87.5342930  41.1548460   5.0681350  87.9454400
  42.8739270  14.8163630  89.8141290  43.4913270  15.4914710  89.5325740
  42.0132390  15.2251610  89.7228790  38.1671610  14.0063490  78.6948140
  37.7899590  14.4950590  77.9633040  38.4244680  14.6788770  79.3254670
  53.7916860  16.2803040  87.7295930  53.1080380  16.9502150  87.7212600
  54.3311150  16.4783690  86.9640790  55.2441000   6.1082700  85.8577660
  54.2965910   6.1421680  85.9893090  55.5690990   6.9221650  86.2427020
  45.7760540   2.4079880  84.1533650  46.0835520   1.8526770  83.4369150
  44.8461240   2.5424340  83.9706640  51.3275600  18.1247170  86.4441110
  51.3402760  17.7209460  85.5763370  50.7750820  18.8994460  86.3402540
  52.6221020  14.8463390  81.5331280  52.5117350  13.9037720  81.6580700
  52.6189270  15.2079030  82.4194040  50.7261040  13.0277010  87.7723720
  51.1429830  12.8137120  86.9377180  51.4500860  13.2849800  88.3432340
  48.1641300  10.4728710  80.8893770  47.2370580  10.4066090  81.1182240
  48.3166120  11.4108840  80.7749010  48.1510380   6.7445710  77.8860930
  47.2114050   6.9059670  77.9713390  48.4693640   7.4631390  77.3396920
  54.6723140  11.4264230  87.8639960  53.8441770  11.4957320  87.3890090
  55.2673620  12.0118540  87.3955790  52.1938590  12.0349010  81.3929020
  51.5751010  11.6968560  80.7455320  52.1763040  11.3908770  82.1008210
  51.6365150   8.2133550  88.8094830  51.2236330   9.0387260  89.0634820
  50.9041100   7.6278590  88.6171190  43.7697940  10.9993450  83.6713500
  43.3654940  10.2870700  83.1759400  43.8561060  10.6546690  84.5601540
  44.2379640  14.6861010  85.8352710  43.9407930  14.0806480  85.1560490
  45.1879460  14.7238320  85.7242070  42.4826560   7.7736660  87.4512540
  43.0341150   7.8832000  86.6765790  42.9970070   8.1474260  88.1667770
  52.3265250  18.2592880  89.4975810  51.8495810  19.0665070  89.3048420
  51.6427040  17.6071210  89.6502020  43.3298070  14.4242700  92.4860510
  42.4326600  14.6482670  92.7333910  43.3550940  14.5477640  91.5371910
  50.3703290  11.2735820  78.4001770  50.8096570  10.4358250  78.2539590
  51.0831710  11.9065220  78.4865910  42.1569290  11.2956020  91.0617880
  42.0177060  12.1678820  91.4305280  41.2750650  10.9528830  90.9165820
  48.4798670  16.2131890  82.3683010  48.9194580  16.9556220  81.9538400
  48.4185560  16.4558460  83.2921970  43.9549640  17.2377720  93.2703030
  43.9265070  17.6420670  92.4031460  43.7914610  16.3088080  93.1074630
  53.9520430   2.5278630  76.7142810  53.6393090   2.6205460  77.6141880
  54.7132900   3.1059660  76.6640240  40.4702570   9.8938430  81.1720150
  40.3500170  10.6200520  80.5601420  40.1603460   9.1241340  80.6948060
  55.9064460  18.0204820  94.5667200  56.3824180  18.4987710  95.2456280
  56.5271620  17.9522310  93.8412700  38.1087940  13.0653570  86.9788790
  38.1868360  13.2002340  86.0344510  38.7229620  12.3569460  87.1716910
  39.3535570  14.7653760  83.3894970  38.9463650  14.9068350  82.5348570
  40.2448580  14.4813920  83.1866180  55.3097710  15.2117670  91.7267210
  55.4360770  14.9729550  90.8084390  55.3519090  14.3802210  92.1989290
  49.1714450  18.9145670  90.2962020  49.6859120  18.8253680  91.0984450
  48.3283530  19.2605370  90.5889930  51.1468850  19.2001010  79.7246020
  50.9869990  18.9103950  80.6227850  50.9815560  18.4241140  79.1891250
  43.6257230  18.9799540  81.5017640  43.4499710  18.0635080  81.2885440
  42.7712970  19.3386830  81.7415440  50.8494980  16.7088570  78.2844020
  50.1560140  16.7065860  77.6246300  51.5917840  16.2847890  77.8538190
  50.4144910  18.3351280  82.3592510  50.8701860  17.5540660  82.6731130
  50.7537430  19.0458100  82.9033690  55.1621720   7.2650130  92.6916950
  54.5465990   7.7729800  92.1632410  54.8418140   6.3648460  92.6342890
  38.1647460  14.1067740  89.5183250  38.3278500  13.6373100  88.7002620
  38.6299910  13.5991300  90.1832090  42.9366230   3.2373500  84.5543820
  42.4934380   4.0183040  84.2228340  43.4951220   3.5603390  85.2614760
  47.2236040   6.1042020  90.1579140  46.7615410   6.3125040  90.9699080
  46.8214150   5.2901370  89.8549810  52.2240550   7.3250970  91.2875800
  51.3734140   7.0256720  91.6084870  52.0642340   7.5692980  90.3759620
  49.3190260   8.8252720  93.3874590  49.6443670   7.9916470  93.0476820
  50.1070590   9.3481240  93.5352920  46.0525050   2.8584200  79.4349650
  45.4279230   2.8544070  80.1602960  45.9655170   1.9915160  79.0385620
  44.9742130   3.7820830  86.4133420  45.2714460   4.6883660  86.3325440
  45.5227690   3.2939610  85.7992990  42.7280450   8.3607070  82.2825070
  42.5021370   8.1444240  83.1871690  41.9472980   8.7935530  81.9371040
  49.9578210   8.3670440  80.8815720  49.3587100   9.0906240  80.6979340
  50.5057820   8.3047220  80.0992170  45.1679660   9.2592650  92.9485340
  45.0723260   8.3187380  92.7985740  46.0111640   9.4807720  92.5533410
  48.5643080   7.0033980  82.9119000  48.9572650   7.3206180  82.0987690
  48.9259930   6.1245860  83.0263520  40.2990200   5.6706320  91.1019120
  39.9053590   6.5181530  91.3091900  39.6108600   5.0332690  91.2927760
  46.8735250   5.7541290  94.1715860  46.1833570   5.5613490  94.8061950
  47.6167550   6.0375930  94.7040160  37.6007250   3.5934780  85.1349200
  37.3120300   4.1637640  85.8474180  38.3453010   3.1139230  85.4980430
  37.7877480   7.5354900  76.3451920  37.7052150   8.4785660  76.4866910
  37.4360540   7.3929810  75.4664270  49.1498220   9.5939730  87.0069780
  48.4179340  10.1026540  87.3559880  48.7522560   8.7769710  86.7058560
  45.5875610   6.2693930  85.4122270  45.5911670   5.8283880  84.5626810
  46.4826730   6.5911260  85.5194090  41.4377990   6.1520420  84.3716480
  41.0978040   6.6295650  85.1283530  40.6755310   5.6985540  84.0117580
  45.6495760   7.2706010  78.4029030  45.7708580   7.2292490  79.3514850
  45.2644270   8.1330160  78.2475760  49.6124130   5.0473410  86.4192720
  49.6296870   5.4982060  87.2634570  49.3639710   4.1479050  86.6326160
  44.6617260   9.5807150  77.8012330  44.0934160   9.1325400  77.1748240
  45.3706260   9.9399930  77.2677480  53.0394880   2.4605590  92.2579100
  53.3640650   1.7295250  92.7837080  53.0751390   2.1419230  91.3560090
  39.7386440  13.4819170  91.6779060  39.3541230  12.8412840  92.2762020
  40.0498630  14.1855290  92.2473790  45.8883580  10.3295710  87.1587680
  46.2553710   9.8554280  87.9049020  45.6988640  11.2037280  87.4996020
  38.7524070   5.0739400  83.2881150  38.4670990   4.7095070  84.1259770
  38.6902930   4.3419860  82.6744290  43.6782950   9.3704350  89.4771890
  43.3740020  10.2496330  89.7022250  44.6329410   9.4304140  89.5129330
  42.2064740  13.5765340  80.0738740  41.4327000  13.0362960  79.9137460
  42.9359370  13.0571950  79.7356500  52.9652720  12.5730700  85.8665130
  53.6851840  13.0685990  85.4761240  52.7634540  11.8948590  85.2219000
  48.4262660   3.9668660  80.0094520  47.6127270   3.4681830  79.9339830
  48.2324610   4.8066910  79.5930870  48.3471520  12.6439760  91.7534130
  48.2808830  11.7235430  91.4991720  47.7176660  12.7415200  92.4678770
  51.1411050   8.3388310  78.3056680  52.0290670   8.6505540  78.1308020
  51.1116140   7.4660560  77.9137260  42.2502140  13.2445720  83.7117550
  42.7680810  12.4413980  83.6574440  41.7986160  13.1824860  84.5534380
  47.1371640  14.5112000  78.9844850  47.4787340  15.2554230  78.4888170
  46.3084350  14.8243120  79.3469680  39.7346680  10.2107090  90.6243250
  39.3761620  10.8760940  91.2116590  39.4401240   9.3790640  90.9955870
  42.9359800  10.6691330  93.5082800  42.6359940  10.8148510  92.6110620
  43.7071040  10.1096620  93.4156190  48.2788250  15.4660330  91.5037930
  48.2932790  14.5341290  91.2856840  47.5713350  15.5520090  92.1427700
  53.4125320   9.6500150  77.7736540  53.3289040  10.0814370  76.9232980
  54.1319510  10.1098500  78.2063360  54.4899460  12.1067670  90.8506510
  53.7647650  12.6996450  90.6535900  55.0174920  12.0991210  90.0519880
  54.4412570  16.5042410  80.5018670  53.7988730  15.8498030  80.7762390
  54.0543230  16.9097500  79.7259340  50.0199050  13.8327840  84.3490360
  50.3722870  13.2355970  83.6891730  49.1361380  13.5072070  84.5198610
  46.1062330  14.5925530  81.7560770  46.7933460  15.1394740  82.1368360
  45.3194750  15.1366260  81.7910380  38.2454730  10.2098350  77.2477850
  39.1149580  10.4923150  77.5313770  37.7545050  11.0234220  77.1326660
  45.4089540  11.5971560  81.3686130  45.8652320  12.4076810  81.5946320
  45.0577750  11.2794700  82.2004620  47.7122150  17.1077900  88.5978430
  48.3564370  17.3137280  89.2751850  48.0751590  16.3466300  88.1449280
  41.3101320   1.9409210  81.8408650  41.1815950   1.9327110  82.7893570
  40.4863340   2.2792300  81.4899660  48.9854230  15.1110250  87.3155880
  49.6276460  14.4103410  87.4288050  49.5103580  15.8908690  87.1352770
  52.8309950  15.3958870  77.0395020  52.6047530  14.6789310  77.6319660
  52.4406150  15.1471310  76.2016770  50.7591850  15.9105150  90.5191940
  51.0948090  16.4971840  91.1969860  49.8392190  15.7797860  90.7489730
  38.6125980  19.4225730  77.8139480  38.9723620  20.0215070  77.1596750
  38.4718320  19.9685620  78.5874510  38.3095250   3.7000330  91.3015350
  37.5953770   3.8997250  91.9067960  38.7290290   2.9239900  91.6730150
  52.4126200  13.3130810  78.7009180  52.1247900  13.7743500  79.4887060
  53.2078370  12.8528580  78.9693400  38.5967840  17.6880590  92.2881880
  38.7058960  16.7475330  92.1477270  37.9448400  17.9535340  91.6395610
  46.5880430  15.9596480  93.6880000  46.2677300  15.2405720  94.2325690
  45.9138790  16.6351550  93.7616060  44.6294600  16.8056930  78.6313150
  44.6204700  17.5386620  78.0157660  43.7092960  16.5588510  78.7240110
  40.2301240  12.0271820  79.3759910  39.6229190  12.7670720  79.3855210
  40.7050590  12.1171180  78.5498110  49.8034030   6.1922640  89.0516800
  50.1714850   5.3717850  89.3796370  48.9432230   6.2524530  89.4672450
  53.1696060   5.1479580  79.8604360  52.5409220   5.2525250  79.1462590
  52.6747980   5.3676360  80.6498240  47.6154200  16.8685170  77.2938340
  47.7166180  16.6649160  76.3640320  46.7155940  16.6143450  77.4986120
  45.1380090   7.4265530  81.2762240  44.4296240   7.8951870  81.7175850
  45.4224570   6.7687540  81.9107430  46.7636020   8.8462230  89.2754770
  47.2621270   9.3208050  89.9406620  46.9058970   7.9225750  89.4824800
  49.1695520   4.1516190  82.7158030  49.0463300   4.1702320  81.7667540
  50.1180080   4.1995130  82.8356430  46.2572310  19.3871490  81.9886010
  46.5113810  19.3492880  81.0665380  45.3084790  19.2604820  81.9814260
  43.3415110   5.7350610  78.6512950  44.1905640   6.1720760  78.5853140
  42.9746380   6.0470870  79.4785010  53.9702880   5.0630190  90.1183160
  53.4676480   5.8035590  90.4576970  54.7859540   5.4514190  89.8019950
  52.2624890  10.3063370  83.5644520  51.3215030  10.3213600  83.7392210
  52.5768960   9.5199330  84.0104820  42.2406530  11.9882970  77.1248480
  43.0069800  11.8764330  77.6873910  42.3181220  11.2920940  76.4725250
  40.9353290   9.4208040  77.8081370  41.0156880   8.4735550  77.9198770
  41.8273040   9.7514920  77.9142030  54.2650470  17.4772220  85.2398780
  54.3897890  18.3003390  85.7122590  55.1316030  17.2662950  84.8922930
  41.7368000  19.5703430  84.9115910  42.4730480  19.0218890  85.1824480
  42.1208920  20.4359440  84.7721900  38.6213480  15.6377000  80.7857420
  37.6953260  15.8798140  80.7762830  39.0869910  16.4651260  80.6642170
  40.7426280  18.7549500  94.1001490  41.5439010  19.0761550  94.5136890
  40.2278100  18.3945080  94.8221400  44.8470310  18.7433740  76.7341480
  45.6398920  19.0322570  76.2823270  44.3274660  18.3125910  76.0553960
  49.5790910  14.8629370  94.0476900  48.9729070  14.8860970  93.3072650
  49.2745020  14.1312410  94.5844150  51.0091280  18.5909660  92.6586310
  51.9613030  18.5067680  92.6086550  50.8619500  19.2551370  93.3320100
  53.9000480  17.9703870  78.1578220  53.6141990  17.5569010  77.3432400
  53.7020030  18.8991580  78.0378740  38.4624090  11.2422960  93.0437540
  38.9663110  10.6630240  93.6153770  37.7231510  11.5263190  93.5813910
  45.3647710  13.9637150  76.5983830  45.2598350  13.3489500  77.3245210
  45.1971930  13.4403040  75.8146840  45.5162030  12.6493950  92.5773060
  44.7507700  13.2178950  92.4927730  45.6977990  12.3570160  91.6841290
  48.6050440  13.0257180  77.2025820  48.0560540  13.4726480  77.8468560
  49.2269700  12.5206430  77.7263490  52.6585380  14.3799280  93.1348080
  53.3994850  14.7175040  92.6315540  51.8958060  14.5491340  92.5817850
  40.4947170   9.3852550  93.9387610  40.5352510   9.0866420  94.8472840
  41.3492670   9.7860160  93.7795130  44.2725560  11.9848100  79.0991120
  44.6941980  11.8187970  79.9422510  44.3976400  11.1748330  78.6046260
  42.4352980   7.9644650  91.9062100  41.9049440   7.4735600  91.2785440
  43.1041050   8.3928850  91.3720030  46.7853200  11.0085710  76.3468220
  47.3058860  10.2934730  75.9809370  47.4321600  11.6471580  76.6468730
  51.3331040  12.4314110  91.6703290  51.7472060  12.5859190  92.5193710
  50.3982040  12.5569330  91.8329070  51.8053210   9.7710270  93.6742440
  52.3873980   9.0162590  93.5862920  51.9814980  10.3017710  92.8973920
  42.9225280   4.9307020  91.9859390  42.8282150   4.3127770  91.2610260
  42.3422670   5.6573310  91.7589300  45.6886720   3.4880260  89.0186780
  45.2404020   3.5104520  88.1732330  45.0551920   3.0899280  89.6157080
  46.0946270  12.3834590  89.6399220  46.5134380  13.2267320  89.4675460
  45.1754900  12.5206630  89.4106000  48.4310170  10.1150770  91.0237060
  48.5506380   9.5191910  91.7631900  49.2904170  10.1520460  90.6038360
  50.7698070  10.6687960  89.5999570  50.2433290  11.1930580  88.9964710
  51.1129410  11.3015350  90.2309300  43.1684460   8.0581330  76.0449280
  42.9673520   7.1948690  76.4062620  42.9976510   7.9714690  75.1070880
  43.9453690  18.6887600  90.7556950  43.4074780  19.4133660  90.4365650
  44.1987650  18.2117940  89.9654290  45.1978940   6.6572120  92.2812880
  45.7878630   6.3487970  92.9690700  44.3799180   6.1851870  92.4372780
  50.0172370   6.2737930  92.5145900  49.3287890   5.6119470  92.4495890
  50.7378390   5.8276200  92.9594360  50.6472770   2.8689560  78.5736160
  50.9275060   2.0257460  78.9295580  49.8738500   3.1012670  79.0874910
  41.9667260   5.1581950  76.0327160  42.2693160   5.1649380  75.1246310
  42.7061850   4.8079810  76.5294820  46.8015900  19.9238810  91.0143600
  46.7274600  20.8273950  91.3215970  45.8994740  19.6050710  90.9865670
  45.1852190   4.1016570  77.0183360  44.8374190   3.4240560  76.4385810
  45.3864960   3.6406080  77.8326750  47.3501230  19.0897320  78.6369960
  48.2452020  19.4282290  78.6588720  47.3818860  18.3676730  78.0094240
  40.9897390  14.4624370  76.8656960  41.4272260  15.0054040  77.5214540
  41.4745120  13.6371320  76.8753300  38.2043190  17.2513400  84.3177220
  38.5346200  16.3834460  84.0855860  38.6334190  17.4571920  85.1482180
  42.8005110  15.5822410  81.9779190  42.5000650  15.4587380  82.8783100
  42.6942600  14.7231000  81.5694920  38.6933400  18.1183990  87.0558850
  38.2564390  18.2984790  87.8883000  39.2611080  18.8758610  86.9140570
  54.3295580  17.6200990  91.3436160  53.7297570  17.6793550  90.6000080
  54.4589480  16.6805970  91.4733010  55.5697030  15.3618810  76.6805870
  54.7389990  15.4295460  77.1513100  55.7468860  16.2522930  76.3772730
  55.0253490  12.1066290  79.1840070  55.7872400  12.6762940  79.2899760
  55.0407860  11.5393490  79.9548380  38.5257830  10.6304220  83.4147730
  37.8706670  10.3615860  82.7707430  39.3635780  10.5208700  82.9649710
  56.0313460  12.9616390  84.0282000  56.4022290  12.1783710  83.6217970
  56.6715390  13.6505490  83.8499300  53.0147220  14.3452970  89.4412320
  52.2007060  14.7750130  89.7038110  53.4221420  14.9571380  88.8281370
  55.0772660  12.4000660  76.3412590  55.3521500  13.3079540  76.2131810
  54.8883400  12.3363190  77.2774580  51.4748270   5.4245510  77.6366220
  51.8933150   5.2376490  76.7962880  51.1684330   4.5724560  77.9469150
  54.9738000  10.3369650  81.3342020  54.5981600   9.5697580  80.9023310
  54.2441120  10.7192350  81.8216950  39.5633760  11.0156790  87.9551070
  39.9306800  10.9284190  88.8347090  38.9944580  10.2523340  87.8557930
  54.3637620   9.4841170  90.9681540  54.1323710   9.2553920  90.0679490
  54.6242170  10.4040720  90.9226430  39.1149760   7.9265880  91.8609490
  38.2205810   7.8932640  92.2003200  39.6547310   8.1252670  92.6260740
  52.8025690   4.7097600  93.7461240  53.6795870   4.7181000  94.1295240
  52.8146530   3.9728440  93.1353590  37.7395910   7.8403150  79.3573060
  36.8359990   8.1033350  79.1824720  38.2236530   8.1114320  78.5773020
  54.2488960   8.5627140  84.6349260  54.7726440   8.0689790  84.0039430
  54.8348380   8.6977500  85.3796830  54.4278680   8.6467010  88.1568810
  53.4781390   8.6130550  88.2713800  54.6091690   9.5567120  87.9218580
  40.2823120   6.8968690  77.2667440  40.9914820   6.4751910  76.7814720
  39.5663060   6.9643920  76.6350790  39.9297280   2.9508020  76.3070090
  40.6525410   3.4916960  76.6251310  40.2021800   2.6771440  75.4311630
  53.7388930   7.8200490  80.5741670  54.2348050   7.5871360  81.3590550
  53.5405000   6.9812330  80.1579310  39.6189470   2.2014210  86.2092710
  40.2665660   1.6511590  85.7687870  40.0391310   2.4557360  87.0308520
  55.1676090   6.4561440  83.1079350  55.0575370   6.3017480  84.0461620
  55.9283680   5.9282380  82.8654760  53.5141810   2.3955570  89.5662350
  54.1514030   3.0089710  89.9321540  53.6616700   2.4316230  88.6211580
  56.0566360   4.2869360  76.3485490  56.9815670   4.1550540  76.1403780
  56.0342150   4.3662180  77.3021940  56.1304850   5.0580020  78.9742200
  55.3356350   4.9925140  79.5035110  56.3348130   5.9930660  78.9627550
  53.0723270  19.0971570  82.9680590  53.6682340  18.7756140  82.2915010
  53.3301420  18.6243390  83.7593860  39.3721470   2.3569880  88.9518030
  39.0236290   2.8133700  89.7176210  39.0409170   1.4627010  89.0340460
  40.9785840  15.5289480  93.1171220  40.9355470  15.1582390  93.9985680
  41.1096850  16.4667050  93.2573040  44.6791870  17.0849070  88.7180940
  44.4383230  17.3523630  87.8311460  45.6194510  17.2554800  88.7731800
  46.8846290   3.5481760  92.4737450  46.8235180   4.1403590  93.2232860
  47.8246670   3.4407720  92.3287710  49.5220850   3.2051820  92.1129740
  50.1361260   3.5231110  91.4510820  50.0670410   2.7200410  92.7325600
  55.9396030  19.1043450  89.5191580  55.4454310  19.5012320  88.8018710
  55.3309320  18.4792660  89.9128860  40.8173870  18.4751730  90.2369000
  40.2234190  18.3436430  90.9759040  40.8097710  17.6389870  89.7711100
  51.1700870   3.9754830  89.8240750  50.8414230   3.1606590  89.4442480
  52.1183170   3.9324640  89.7006440  53.6235480  19.7466870  86.7978320
  53.1638450  20.4982680  86.4236340  52.9947940  19.0273340  86.7393120
  40.4486100  15.8410110  89.1877040  39.7220160  15.2215400  89.1202990
  40.5095250  16.2350720  88.3175120  44.0531200  18.0555110  85.9726450
  44.5696220  17.4442470  85.4474710  44.7028580  18.5583890  86.4637460
  46.7926700  18.9463600  86.7995430  47.0804510  18.6917900  85.9228440
  47.3049920  18.3940960  87.3901000  48.0103710   2.6853800  87.3791940
  47.2275500   3.1599300  87.6588700  47.7166640   1.7808630  87.2705120
  52.5624780   3.3876900  85.4241030  53.0032870   3.3322000  84.5762630
  52.2932370   4.3034910  85.4951210  54.4263350   3.0192140  83.4349850
  54.3651750   2.0753360  83.2880870  55.2055380   3.1272230  83.9803310
  38.7316100  19.1584500  82.3973800  38.5638140  18.5255180  83.0955690
  37.8650610  19.3643900  82.0467990  39.3544120   2.9901280  79.9005660
  40.1123480   3.1030160  79.3269690  38.8921290   3.8270480  79.8549090
  45.8957930   5.1040550  82.8907970  45.0832440   4.7297440  82.5503850
  46.3999570   4.3485630  83.1929160  50.3982910   1.7683000  84.1291040
  51.0012280   2.3403210  84.6039560  49.6575900   2.3322440  83.9064940
  53.5417510   2.1704560  79.4031320  53.7368140   3.0688010  79.6698750
  52.7547380   1.9391640  79.8964270  40.3378800  17.8517730  79.8423940
  39.8126420  18.2325760  79.1385900  40.2623380  18.4768500  80.5633650
  41.7269270   3.5165330  78.4407630  42.2562030   2.7295130  78.3115580
  42.3597590   4.1956520  78.6743160  43.9207110   3.2540470  81.4953020
  43.2909850   2.5527780  81.6623150  43.3812250   4.0144600  81.2786180
  46.8599060  19.8679700  94.1663630  47.7866370  19.6323970  94.2099590
  46.8449490  20.6951700  93.6849660  55.0944120  19.4105270  81.1637880
  55.2696310  18.7243010  80.5198800  54.3965690  19.9352320  80.7714550
  44.0462670   2.5324450  93.9305510  43.7646940   3.0358050  93.1666330
  44.4282370   1.7346200  93.5647640  42.9371770  19.8000110  78.7173190
  43.6690590  19.5159390  78.1697080  43.1965440  19.5613390  79.6072570
  42.0986560  15.9164840  78.7219520  41.4695440  16.3849940  79.2705350
  42.2134390  15.0714060  79.1565710  50.6478130   1.9478030  94.5085980
  50.5343580   2.2672640  95.4037500  51.4647870   2.3490540  94.2123260
  53.4276620  19.0949560  93.9904670  54.2201940  18.5998790  93.7830630
  53.7209770  19.7739700  94.5980280  49.5536280   9.9670500  64.8720720
  49.4730330   9.0525110  64.6012430  49.1400700  10.4637570  64.1660430
  47.6854320  11.7449520  66.7529990  46.9096420  11.2649960  67.0428560
  48.3367250  11.0655170  66.5786150  41.7020150  12.0569330  67.6305750
  40.8705030  11.8018040  68.0302260  42.3101130  12.1280100  68.3663670
  41.6821410  16.0909420  67.8263770  41.9849450  15.2007160  67.6473990
  42.4265000  16.6479640  67.5986020  40.1112100   7.0171220  61.4148140
  39.2228800   7.3587190  61.3128020  40.3953290   6.8171540  60.5228970
  38.0745110   9.6176870  67.2987840  38.6461220   8.8499070  67.2991480
  38.0746650   9.9165630  66.3894450  47.1263310  14.4206710  66.7600150
  47.0571590  13.4796650  66.5989280  47.8883170  14.5108120  67.3322720
  39.3169980   5.0261230  69.0856770  39.1372820   4.1286980  69.3659530
  38.9150060   5.5733100  69.7603720  48.1568480   7.2277090  66.9869080
  48.5333300   6.3548970  66.8742750  48.0587990   7.5635790  66.0959520
  42.2873490   5.6002720  62.4486520  42.3940240   6.5006450  62.7555280
  41.3765850   5.5520690  62.1581170  51.9392600   4.7227530  63.9197420
  52.7602220   4.2324100  63.9622900  51.9726680   5.3125190  64.6729260
  39.9356650   7.5221730  67.6939110  40.6166760   7.7860100  68.3126510
  39.6204700   6.6822600  68.0277120  44.1281220   8.5689090  66.7811700
  44.6359440   9.0670060  67.4216720  44.6594460   7.7924290  66.6051060
  56.2292150   6.7394280  70.4841050  55.5244320   7.1275990  69.9656160
  56.4950070   7.4344570  71.0861980  42.4117320   3.2087650  71.0475120
  42.4135760   3.7260040  70.2421020  41.5821630   2.7317830  71.0245050
  48.7988410  13.3206960  62.5465020  48.1805680  13.7856410  61.9827740
  49.3111660  14.0134440  62.9634530  43.6620170  12.8482830  69.2248620
  43.3289550  13.4751750  69.8669690  43.8386850  13.3744710  68.4450290
  52.1754080   6.6627910  66.6924960  51.4709650   6.9512800  67.2728070
  52.5366240   7.4728020  66.3324520  42.0932650   4.9197610  69.0545570
  42.4349460   5.7639660  68.7599440  41.1548460   5.0681350  69.1710910
  42.8739270  14.8163630  71.0397800  43.4913270  15.4914710  70.7582250
  42.0132390  15.2251610  70.9485300  38.1671610  14.0063490  59.9204650
  37.7899590  14.4950590  59.1889550  38.4244680  14.6788770  60.5511180
  55.2441000   6.1082700  67.0834170  54.2965910   6.1421680  67.2149600
  55.5690990   6.9221650  67.4683530  45.7760540   2.4079880  65.3790160
  46.0835520   1.8526770  64.6625660  44.8461240   2.5424340  65.1963150
  50.7261040  13.0277010  68.9980230  51.1429830  12.8137120  68.1633690
  51.4500860  13.2849800  69.5688850  48.1641300  10.4728710  62.1150280
  47.2370580  10.4066090  62.3438750  48.3166120  11.4108840  62.0005520
  48.1510380   6.7445710  59.1117440  47.2114050   6.9059670  59.1969900
  48.4693640   7.4631390  58.5653430  54.6723140  11.4264230  69.0896470
  53.8441770  11.4957320  68.6146600  55.2673620  12.0118540  68.6212300
  52.1938590  12.0349010  62.6185530  51.5751010  11.6968560  61.9711830
  52.1763040  11.3908770  63.3264720  51.6365150   8.2133550  70.0351340
  51.2236330   9.0387260  70.2891330  50.9041100   7.6278590  69.8427700
  43.7697940  10.9993450  64.8970010  43.3654940  10.2870700  64.4015910
  43.8561060  10.6546690  65.7858050  44.2379640  14.6861010  67.0609220
  43.9407930  14.0806480  66.3817000  45.1879460  14.7238320  66.9498580
  42.4826560   7.7736660  68.6769050  43.0341150   7.8832000  67.9022300
  42.9970070   8.1474260  69.3924280  43.3298070  14.4242700  73.7117020
  42.4326600  14.6482670  73.9590420  43.3550940  14.5477640  72.7628420
  50.3703290  11.2735820  59.6258280  50.8096570  10.4358250  59.4796100
  51.0831710  11.9065220  59.7122420  42.1569290  11.2956020  72.2874390
  42.0177060  12.1678820  72.6561790  41.2750650  10.9528830  72.1422330
  43.9549640  17.2377720  74.4959540  43.9265070  17.6420670  73.6287970
  43.7914610  16.3088080  74.3331140  53.9520430   2.5278630  57.9399320
  53.6393090   2.6205460  58.8398390  54.7132900   3.1059660  57.8896750
  40.4702570   9.8938430  62.3976660  40.3500170  10.6200520  61.7857930
  40.1603460   9.1241340  61.9204570  55.9064460  18.0204820  75.7923710
  56.3824180  18.4987710  76.4712790  56.5271620  17.9522310  75.0669210
  38.1087940  13.0653570  68.2045300  38.1868360  13.2002340  67.2601020
  38.7229620  12.3569460  68.3973420  39.3535570  14.7653760  64.6151480
  38.9463650  14.9068350  63.7605080  40.2448580  14.4813920  64.4122690
  55.3097710  15.2117670  72.9523720  55.4360770  14.9729550  72.0340900
  55.3519090  14.3802210  73.4245800  49.1714450  18.9145670  71.5218530
  49.6859120  18.8253680  72.3240960  48.3283530  19.2605370  71.8146440
  51.1468850  19.2001010  60.9502530  50.9869990  18.9103950  61.8484360
  50.9815560  18.4241140  60.4147760  43.6257230  18.9799540  62.7274150
  43.4499710  18.0635080  62.5141950  42.7712970  19.3386830  62.9671950
  50.8494980  16.7088570  59.5100530  50.1560140  16.7065860  58.8502810
  51.5917840  16.2847890  59.0794700  55.1621720   7.2650130  73.9173460
  54.5465990   7.7729800  73.3888920  54.8418140   6.3648460  73.8599400
  38.1647460  14.1067740  70.7439760  38.3278500  13.6373100  69.9259130
  38.6299910  13.5991300  71.4088600  42.9366230   3.2373500  65.7800330
  42.4934380   4.0183040  65.4484850  43.4951220   3.5603390  66.4871270
  47.2236040   6.1042020  71.3835650  46.7615410   6.3125040  72.1955590
  46.8214150   5.2901370  71.0806320  52.2240550   7.3250970  72.5132310
  51.3734140   7.0256720  72.8341380  52.0642340   7.5692980  71.6016130
  49.3190260   8.8252720  74.6131100  49.6443670   7.9916470  74.2733330
  50.1070590   9.3481240  74.7609430  46.0525050   2.8584200  60.6606160
  45.4279230   2.8544070  61.3859470  45.9655170   1.9915160  60.2642130
  44.9742130   3.7820830  67.6389930  45.2714460   4.6883660  67.5581950
  45.5227690   3.2939610  67.0249500  42.7280450   8.3607070  63.5081580
  42.5021370   8.1444240  64.4128200  41.9472980   8.7935530  63.1627550
  49.9578210   8.3670440  62.1072230  49.3587100   9.0906240  61.9235850
  50.5057820   8.3047220  61.3248680  45.1679660   9.2592650  74.1741850
  45.0723260   8.3187380  74.0242250  46.0111640   9.4807720  73.7789920
  48.5643080   7.0033980  64.1375510  48.9572650   7.3206180  63.3244200
  48.9259930   6.1245860  64.2520030  40.2990200   5.6706320  72.3275630
  39.9053590   6.5181530  72.5348410  39.6108600   5.0332690  72.5184270
  46.8735250   5.7541290  75.3972370  46.1833570   5.5613490  76.0318460
  47.6167550   6.0375930  75.9296670  37.6007250   3.5934780  66.3605710
  37.3120300   4.1637640  67.0730690  38.3453010   3.1139230  66.7236940
  37.7877480   7.5354900  57.5708430  37.7052150   8.4785660  57.7123420
  37.4360540   7.3929810  56.6920780  49.1498220   9.5939730  68.2326290
  48.4179340  10.1026540  68.5816390  48.7522560   8.7769710  67.9315070
  45.5875610   6.2693930  66.6378780  45.5911670   5.8283880  65.7883320
  46.4826730   6.5911260  66.7450600  41.4377990   6.1520420  65.5972990
  41.0978040   6.6295650  66.3540040  40.6755310   5.6985540  65.2374090
  45.6495760   7.2706010  59.6285540  45.7708580   7.2292490  60.5771360
  45.2644270   8.1330160  59.4732270  49.6124130   5.0473410  67.6449230
  49.6296870   5.4982060  68.4891080  49.3639710   4.1479050  67.8582670
  44.6617260   9.5807150  59.0268840  44.0934160   9.1325400  58.4004750
  45.3706260   9.9399930  58.4933990  53.0394880   2.4605590  73.4835610
  53.3640650   1.7295250  74.0093590  53.0751390   2.1419230  72.5816600
  39.7386440  13.4819170  72.9035570  39.3541230  12.8412840  73.5018530
  40.0498630  14.1855290  73.4730300  45.8883580  10.3295710  68.3844190
  46.2553710   9.8554280  69.1305530  45.6988640  11.2037280  68.7252530
  38.7524070   5.0739400  64.5137660  38.4670990   4.7095070  65.3516280
  38.6902930   4.3419860  63.9000800  43.6782950   9.3704350  70.7028400
  43.3740020  10.2496330  70.9278760  44.6329410   9.4304140  70.7385840
  42.2064740  13.5765340  61.2995250  41.4327000  13.0362960  61.1393970
  42.9359370  13.0571950  60.9613010  52.9652720  12.5730700  67.0921640
  53.6851840  13.0685990  66.7017750  52.7634540  11.8948590  66.4475510
  48.4262660   3.9668660  61.2351030  47.6127270   3.4681830  61.1596340
  48.2324610   4.8066910  60.8187380  48.3471520  12.6439760  72.9790640
  48.2808830  11.7235430  72.7248230  47.7176660  12.7415200  73.6935280
  51.1411050   8.3388310  59.5313190  52.0290670   8.6505540  59.3564530
  51.1116140   7.4660560  59.1393770  42.2502140  13.2445720  64.9374060
  42.7680810  12.4413980  64.8830950  41.7986160  13.1824860  65.7790890
  47.1371640  14.5112000  60.2101360  47.4787340  15.2554230  59.7144680
  46.3084350  14.8243120  60.5726190  39.7346680  10.2107090  71.8499760
  39.3761620  10.8760940  72.4373100  39.4401240   9.3790640  72.2212380
  42.9359800  10.6691330  74.7339310  42.6359940  10.8148510  73.8367130
  43.7071040  10.1096620  74.6412700  48.2788250  15.4660330  72.7294440
  48.2932790  14.5341290  72.5113350  47.5713350  15.5520090  73.3684210
  53.4125320   9.6500150  58.9993050  53.3289040  10.0814370  58.1489490
  54.1319510  10.1098500  59.4319870  54.4899460  12.1067670  72.0763020
  53.7647650  12.6996450  71.8792410  55.0174920  12.0991210  71.2776390
  50.0199050  13.8327840  65.5746870  50.3722870  13.2355970  64.9148240
  49.1361380  13.5072070  65.7455120  46.1062330  14.5925530  62.9817280
  46.7933460  15.1394740  63.3624870  45.3194750  15.1366260  63.0166890
  38.2454730  10.2098350  58.4734360  39.1149580  10.4923150  58.7570280
  37.7545050  11.0234220  58.3583170  45.4089540  11.5971560  62.5942640
  45.8652320  12.4076810  62.8202830  45.0577750  11.2794700  63.4261130
  47.7122150  17.1077900  69.8234940  48.3564370  17.3137280  70.5008360
  48.0751590  16.3466300  69.3705790  41.3101320   1.9409210  63.0665160
  41.1815950   1.9327110  64.0150080  40.4863340   2.2792300  62.7156170
  48.9854230  15.1110250  68.5412390  49.6276460  14.4103410  68.6544560
  49.5103580  15.8908690  68.3609280  52.8309950  15.3958870  58.2651530
  52.6047530  14.6789310  58.8576170  52.4406150  15.1471310  57.4273280
  50.7591850  15.9105150  71.7448450  51.0948090  16.4971840  72.4226370
  49.8392190  15.7797860  71.9746240  38.6125980  19.4225730  59.0395990
  38.9723620  20.0215070  58.3853260  38.4718320  19.9685620  59.8131020
  38.3095250   3.7000330  72.5271860  37.5953770   3.8997250  73.1324470
  38.7290290   2.9239900  72.8986660  52.4126200  13.3130810  59.9265690
  52.1247900  13.7743500  60.7143570  53.2078370  12.8528580  60.1949910
  38.5967840  17.6880590  73.5138390  38.7058960  16.7475330  73.3733780
  37.9448400  17.9535340  72.8652120  46.5880430  15.9596480  74.9136510
  46.2677300  15.2405720  75.4582200  45.9138790  16.6351550  74.9872570
  44.6294600  16.8056930  59.8569660  44.6204700  17.5386620  59.2414170
  43.7092960  16.5588510  59.9496620  40.2301240  12.0271820  60.6016420
  39.6229190  12.7670720  60.6111720  40.7050590  12.1171180  59.7754620
  49.8034030   6.1922640  70.2773310  50.1714850   5.3717850  70.6052880
  48.9432230   6.2524530  70.6928960  53.1696060   5.1479580  61.0860870
  52.5409220   5.2525250  60.3719100  52.6747980   5.3676360  61.8754750
  47.6154200  16.8685170  58.5194850  47.7166180  16.6649160  57.5896830
  46.7155940  16.6143450  58.7242630  45.1380090   7.4265530  62.5018750
  44.4296240   7.8951870  62.9432360  45.4224570   6.7687540  63.1363940
  46.7636020   8.8462230  70.5011280  47.2621270   9.3208050  71.1663130
  46.9058970   7.9225750  70.7081310  49.1695520   4.1516190  63.9414540
  49.0463300   4.1702320  62.9924050  50.1180080   4.1995130  64.0612940
  46.2572310  19.3871490  63.2142520  46.5113810  19.3492880  62.2921890
  45.3084790  19.2604820  63.2070770  43.3415110   5.7350610  59.8769460
  44.1905640   6.1720760  59.8109650  42.9746380   6.0470870  60.7041520
  53.9702880   5.0630190  71.3439670  53.4676480   5.8035590  71.6833480
  54.7859540   5.4514190  71.0276460  52.2624890  10.3063370  64.7901030
  51.3215030  10.3213600  64.9648720  52.5768960   9.5199330  65.2361330
  42.2406530  11.9882970  58.3504990  43.0069800  11.8764330  58.9130420
  42.3181220  11.2920940  57.6981760  40.9353290   9.4208040  59.0337880
  41.0156880   8.4735550  59.1455280  41.8273040   9.7514920  59.1398540
  41.7368000  19.5703430  66.1372420  42.4730480  19.0218890  66.4080990
  42.1208920  20.4359440  65.9978410  38.6213480  15.6377000  62.0113930
  37.6953260  15.8798140  62.0019340  39.0869910  16.4651260  61.8898680
  40.7426280  18.7549500  75.3258000  41.5439010  19.0761550  75.7393400
  40.2278100  18.3945080  76.0477910  44.8470310  18.7433740  57.9597990
  45.6398920  19.0322570  57.5079780  44.3274660  18.3125910  57.2810470
  49.5790910  14.8629370  75.2733410  48.9729070  14.8860970  74.5329160
  49.2745020  14.1312410  75.8100660  51.0091280  18.5909660  73.8842820
  51.9613030  18.5067680  73.8343060  50.8619500  19.2551370  74.5576610
  53.9000480  17.9703870  59.3834730  53.6141990  17.5569010  58.5688910
  53.7020030  18.8991580  59.2635250  38.4624090  11.2422960  74.2694050
  38.9663110  10.6630240  74.8410280  37.7231510  11.5263190  74.8070420
  45.3647710  13.9637150  57.8240340  45.2598350  13.3489500  58.5501720
  45.1971930  13.4403040  57.0403350  45.5162030  12.6493950  73.8029570
  44.7507700  13.2178950  73.7184240  45.6977990  12.3570160  72.9097800
  48.6050440  13.0257180  58.4282330  48.0560540  13.4726480  59.0725070
  49.2269700  12.5206430  58.9520000  52.6585380  14.3799280  74.3604590
  53.3994850  14.7175040  73.8572050  51.8958060  14.5491340  73.8074360
  40.4947170   9.3852550  75.1644120  40.5352510   9.0866420  76.0729350
  41.3492670   9.7860160  75.0051640  44.2725560  11.9848100  60.3247630
  44.6941980  11.8187970  61.1679020  44.3976400  11.1748330  59.8302770
  42.4352980   7.9644650  73.1318610  41.9049440   7.4735600  72.5041950
  43.1041050   8.3928850  72.5976540  46.7853200  11.0085710  57.5724730
  47.3058860  10.2934730  57.2065880  47.4321600  11.6471580  57.8725240
  51.3331040  12.4314110  72.8959800  51.7472060  12.5859190  73.7450220
  50.3982040  12.5569330  73.0585580  51.8053210   9.7710270  74.8998950
  52.3873980   9.0162590  74.8119430  51.9814980  10.3017710  74.1230430
  42.9225280   4.9307020  73.2115900  42.8282150   4.3127770  72.4866770
  42.3422670   5.6573310  72.9845810  45.6886720   3.4880260  70.2443290
  45.2404020   3.5104520  69.3988840  45.0551920   3.0899280  70.8413590
  46.0946270  12.3834590  70.8655730  46.5134380  13.2267320  70.6931970
  45.1754900  12.5206630  70.6362510  48.4310170  10.1150770  72.2493570
  48.5506380   9.5191910  72.9888410  49.2904170  10.1520460  71.8294870
  50.7698070  10.6687960  70.8256080  50.2433290  11.1930580  70.2221220
  51.1129410  11.3015350  71.4565810  43.1684460   8.0581330  57.2705790
  42.9673520   7.1948690  57.6319130  42.9976510   7.9714690  56.3327390
  43.9453690  18.6887600  71.9813460  43.4074780  19.4133660  71.6622160
  44.1987650  18.2117940  71.1910800  45.1978940   6.6572120  73.5069390
  45.7878630   6.3487970  74.1947210  44.3799180   6.1851870  73.6629290
  50.0172370   6.2737930  73.7402410  49.3287890   5.6119470  73.6752400
  50.7378390   5.8276200  74.1850870  50.6472770   2.8689560  59.7992670
  50.9275060   2.0257460  60.1552090  49.8738500   3.1012670  60.3131420
  41.9667260   5.1581950  57.2583670  42.2693160   5.1649380  56.3502820
  42.7061850   4.8079810  57.7551330  46.8015900  19.9238810  72.2400110
  46.7274600  20.8273950  72.5472480  45.8994740  19.6050710  72.2122180
  45.1852190   4.1016570  58.2439870  44.8374190   3.4240560  57.6642320
  45.3864960   3.6406080  59.0583260  47.3501230  19.0897320  59.8626470
  48.2452020  19.4282290  59.8845230  47.3818860  18.3676730  59.2350750
  40.9897390  14.4624370  58.0913470  41.4272260  15.0054040  58.7471050
  41.4745120  13.6371320  58.1009810  38.2043190  17.2513400  65.5433730
  38.5346200  16.3834460  65.3112370  38.6334190  17.4571920  66.3738690
  42.8005110  15.5822410  63.2035700  42.5000650  15.4587380  64.1039610
  42.6942600  14.7231000  62.7951430  38.6933400  18.1183990  68.2815360
  38.2564390  18.2984790  69.1139510  39.2611080  18.8758610  68.1397080
  54.3295580  17.6200990  72.5692670  53.7297570  17.6793550  71.8256590
  54.4589480  16.6805970  72.6989520  55.5697030  15.3618810  57.9062380
  54.7389990  15.4295460  58.3769610  55.7468860  16.2522930  57.6029240
  55.0253490  12.1066290  60.4096580  55.7872400  12.6762940  60.5156270
  55.0407860  11.5393490  61.1804890  38.5257830  10.6304220  64.6404240
  37.8706670  10.3615860  63.9963940  39.3635780  10.5208700  64.1906220
  56.0313460  12.9616390  65.2538510  56.4022290  12.1783710  64.8474480
  56.6715390  13.6505490  65.0755810  53.0147220  14.3452970  70.6668830
  52.2007060  14.7750130  70.9294620  53.4221420  14.9571380  70.0537880
  55.0772660  12.4000660  57.5669100  55.3521500  13.3079540  57.4388320
  54.8883400  12.3363190  58.5031090  51.4748270   5.4245510  58.8622730
  51.8933150   5.2376490  58.0219390  51.1684330   4.5724560  59.1725660
  54.9738000  10.3369650  62.5598530  54.5981600   9.5697580  62.1279820
  54.2441120  10.7192350  63.0473460  39.5633760  11.0156790  69.1807580
  39.9306800  10.9284190  70.0603600  38.9944580  10.2523340  69.0814440
  54.3637620   9.4841170  72.1938050  54.1323710   9.2553920  71.2936000
  54.6242170  10.4040720  72.1482940  39.1149760   7.9265880  73.0866000
  38.2205810   7.8932640  73.4259710  39.6547310   8.1252670  73.8517250
  52.8025690   4.7097600  74.9717750  53.6795870   4.7181000  75.3551750
  52.8146530   3.9728440  74.3610100  37.7395910   7.8403150  60.5829570
  36.8359990   8.1033350  60.4081230  38.2236530   8.1114320  59.8029530
  54.2488960   8.5627140  65.8605770  54.7726440   8.0689790  65.2295940
  54.8348380   8.6977500  66.6053340  54.4278680   8.6467010  69.3825320
  53.4781390   8.6130550  69.4970310  54.6091690   9.5567120  69.1475090
  40.2823120   6.8968690  58.4923950  40.9914820   6.4751910  58.0071230
  39.5663060   6.9643920  57.8607300  39.9297280   2.9508020  57.5326600
  40.6525410   3.4916960  57.8507820  40.2021800   2.6771440  56.6568140
  53.7388930   7.8200490  61.7998180  54.2348050   7.5871360  62.5847060
  53.5405000   6.9812330  61.3835820  39.6189470   2.2014210  67.4349220
  40.2665660   1.6511590  66.9944380  40.0391310   2.4557360  68.2565030
  55.1676090   6.4561440  64.3335860  55.0575370   6.3017480  65.2718130
  55.9283680   5.9282380  64.0911270  53.5141810   2.3955570  70.7918860
  54.1514030   3.0089710  71.1578050  53.6616700   2.4316230  69.8468090
  56.0566360   4.2869360  57.5742000  56.9815670   4.1550540  57.3660290
  56.0342150   4.3662180  58.5278450  56.1304850   5.0580020  60.1998710
  55.3356350   4.9925140  60.7291620  56.3348130   5.9930660  60.1884060
  39.3721470   2.3569880  70.1774540  39.0236290   2.8133700  70.9432720
  39.0409170   1.4627010  70.2596970  40.9785840  15.5289480  74.3427730
  40.9355470  15.1582390  75.2242190  41.1096850  16.4667050  74.4829550
  44.6791870  17.0849070  69.9437450  44.4383230  17.3523630  69.0567970
  45.6194510  17.2554800  69.9988310  46.8846290   3.5481760  73.6993960
  46.8235180   4.1403590  74.4489370  47.8246670   3.4407720  73.5544220
  49.5220850   3.2051820  73.3386250  50.1361260   3.5231110  72.6767330
  50.0670410   2.7200410  73.9582110  55.9396030  19.1043450  70.7448090
  55.4454310  19.5012320  70.0275220  55.3309320  18.4792660  71.1385370
  40.8173870  18.4751730  71.4625510  40.2234190  18.3436430  72.2015550
  40.8097710  17.6389870  70.9967610  51.1700870   3.9754830  71.0497260
  50.8414230   3.1606590  70.6698990  52.1183170   3.9324640  70.9262950
  40.4486100  15.8410110  70.4133550  39.7220160  15.2215400  70.3459500
  40.5095250  16.2350720  69.5431630  44.0531200  18.0555110  67.1982960
  44.5696220  17.4442470  66.6731220  44.7028580  18.5583890  67.6893970
  46.7926700  18.9463600  68.0251940  47.0804510  18.6917900  67.1484950
  47.3049920  18.3940960  68.6157510  48.0103710   2.6853800  68.6048450
  47.2275500   3.1599300  68.8845210  47.7166640   1.7808630  68.4961630
  52.5624780   3.3876900  66.6497540  53.0032870   3.3322000  65.8019140
  52.2932370   4.3034910  66.7207720  54.4263350   3.0192140  64.6606360
  54.3651750   2.0753360  64.5137380  55.2055380   3.1272230  65.2059820
  38.7316100  19.1584500  63.6230310  38.5638140  18.5255180  64.3212200
  37.8650610  19.3643900  63.2724500  39.3544120   2.9901280  61.1262170
  40.1123480   3.1030160  60.5526200  38.8921290   3.8270480  61.0805600
  45.8957930   5.1040550  64.1164480  45.0832440   4.7297440  63.7760360
  46.3999570   4.3485630  64.4185670  50.3982910   1.7683000  65.3547550
  51.0012280   2.3403210  65.8296070  49.6575900   2.3322440  65.1321450
  53.5417510   2.1704560  60.6287830  53.7368140   3.0688010  60.8955260
  52.7547380   1.9391640  61.1220780  40.3378800  17.8517730  61.0680450
  39.8126420  18.2325760  60.3642410  40.2623380  18.4768500  61.7890160
  41.7269270   3.5165330  59.6664140  42.2562030   2.7295130  59.5372090
  42.3597590   4.1956520  59.8999670  43.9207110   3.2540470  62.7209530
  43.2909850   2.5527780  62.8879660  43.3812250   4.0144600  62.5042690
  46.8599060  19.8679700  75.3920140  47.7866370  19.6323970  75.4356100
  46.8449490  20.6951700  74.9106170  44.0462670   2.5324450  75.1562020
  43.7646940   3.0358050  74.3922840  44.4282370   1.7346200  74.7904150
  42.9371770  19.8000110  59.9429700  43.6690590  19.5159390  59.3953590
  43.1965440  19.5613390  60.8329080  42.0986560  15.9164840  59.9476030
  41.4695440  16.3849940  60.4961860  42.2134390  15.0714060  60.3822220
  50.6478130   1.9478030  75.7342490  50.5343580   2.2672640  76.6294010
  51.4647870   2.3490540  75.4379770  53.4276620  19.0949560  75.2161180
  54.2201940  18.5998790  75.0087140  53.7209770  19.7739700  75.8236790
  49.5536280   9.9670500  46.0977230  49.4730330   9.0525110  45.8268940
  49.1400700  10.4637570  45.3916940  47.6854320  11.7449520  47.9786500
  46.9096420  11.2649960  48.2685070  48.3367250  11.0655170  47.8042660
  41.7020150  12.0569330  48.8562260  40.8705030  11.8018040  49.2558770
  42.3101130  12.1280100  49.5920180  51.7061750  16.1509710  46.7585630
  51.2443280  15.3796950  47.0872800  52.5187300  16.1775780  47.2638080
  41.6821410  16.0909420  49.0520280  41.9849450  15.2007160  48.8730500
  42.4265000  16.6479640  48.8242530  40.1112100   7.0171220  42.6404650
  39.2228800   7.3587190  42.5384530  40.3953290   6.8171540  41.7485480
  38.0745110   9.6176870  48.5244350  38.6461220   8.8499070  48.5247990
  38.0746650   9.9165630  47.6150960  47.9325060  18.4367720  46.3789620
  47.3136500  18.8925220  45.8084060  48.7876840  18.5919180  45.9779320
  47.1263310  14.4206710  47.9856660  47.0571590  13.4796650  47.8245790
  47.8883170  14.5108120  48.5579230  39.3169980   5.0261230  50.3113280
  39.1372820   4.1286980  50.5916040  38.9150060   5.5733100  50.9860230
  48.1568480   7.2277090  48.2125590  48.5333300   6.3548970  48.0999260
  48.0587990   7.5635790  47.3216030  42.2873490   5.6002720  43.6743030
  42.3940240   6.5006450  43.9811790  41.3765850   5.5520690  43.3837680
  51.9392600   4.7227530  45.1453930  52.7602220   4.2324100  45.1879410
  51.9726680   5.3125190  45.8985770  39.9356650   7.5221730  48.9195620
  40.6166760   7.7860100  49.5383020  39.6204700   6.6822600  49.2533630
  44.1281220   8.5689090  48.0068210  44.6359440   9.0670060  48.6473230
  44.6594460   7.7924290  47.8307570  56.2292150   6.7394280  51.7097560
  55.5244320   7.1275990  51.1912670  56.4950070   7.4344570  52.3118490
  42.4117320   3.2087650  52.2731630  42.4135760   3.7260040  51.4677530
  41.5821630   2.7317830  52.2501560  48.7988410  13.3206960  43.7721530
  48.1805680  13.7856410  43.2084250  49.3111660  14.0134440  44.1891040
  43.6620170  12.8482830  50.4505130  43.3289550  13.4751750  51.0926200
  43.8386850  13.3744710  49.6706800  52.1754080   6.6627910  47.9181470
  51.4709650   6.9512800  48.4984580  52.5366240   7.4728020  47.5581030
  42.0932650   4.9197610  50.2802080  42.4349460   5.7639660  49.9855950
  41.1548460   5.0681350  50.3967420  42.8739270  14.8163630  52.2654310
  43.4913270  15.4914710  51.9838760  42.0132390  15.2251610  52.1741810
  38.1671610  14.0063490  41.1461160  37.7899590  14.4950590  40.4146060
  38.4244680  14.6788770  41.7767690  53.7916860  16.2803040  50.1808950
  53.1080380  16.9502150  50.1725620  54.3311150  16.4783690  49.4153810
  55.2441000   6.1082700  48.3090680  54.2965910   6.1421680  48.4406110
  55.5690990   6.9221650  48.6940040  45.7760540   2.4079880  46.6046670
  46.0835520   1.8526770  45.8882170  44.8461240   2.5424340  46.4219660
  51.3275600  18.1247170  48.8954130  51.3402760  17.7209460  48.0276390
  50.7750820  18.8994460  48.7915560  52.6221020  14.8463390  43.9844300
  52.5117350  13.9037720  44.1093720  52.6189270  15.2079030  44.8707060
  50.7261040  13.0277010  50.2236740  51.1429830  12.8137120  49.3890200
  51.4500860  13.2849800  50.7945360  48.1641300  10.4728710  43.3406790
  47.2370580  10.4066090  43.5695260  48.3166120  11.4108840  43.2262030
  48.1510380   6.7445710  40.3373950  47.2114050   6.9059670  40.4226410
  48.4693640   7.4631390  39.7909940  54.6723140  11.4264230  50.3152980
  53.8441770  11.4957320  49.8403110  55.2673620  12.0118540  49.8468810
  52.1938590  12.0349010  43.8442040  51.5751010  11.6968560  43.1968340
  52.1763040  11.3908770  44.5521230  51.6365150   8.2133550  51.2607850
  51.2236330   9.0387260  51.5147840  50.9041100   7.6278590  51.0684210
  43.7697940  10.9993450  46.1226520  43.3654940  10.2870700  45.6272420
  43.8561060  10.6546690  47.0114560  44.2379640  14.6861010  48.2865730
  43.9407930  14.0806480  47.6073510  45.1879460  14.7238320  48.1755090
  42.4826560   7.7736660  49.9025560  43.0341150   7.8832000  49.1278810
  42.9970070   8.1474260  50.6180790  52.3265250  18.2592880  51.9488830
  51.8495810  19.0665070  51.7561440  51.6427040  17.6071210  52.1015040
  43.3298070  14.4242700  54.9373530  42.4326600  14.6482670  55.1846930
  43.3550940  14.5477640  53.9884930  50.3703290  11.2735820  40.8514790
  50.8096570  10.4358250  40.7052610  51.0831710  11.9065220  40.9378930
  42.1569290  11.2956020  53.5130900  42.0177060  12.1678820  53.8818300
  41.2750650  10.9528830  53.3678840  48.4798670  16.2131890  44.8196030
  48.9194580  16.9556220  44.4051420  48.4185560  16.4558460  45.7434990
  43.9549640  17.2377720  55.7216050  43.9265070  17.6420670  54.8544480
  43.7914610  16.3088080  55.5587650  53.9520430   2.5278630  39.1655830
  53.6393090   2.6205460  40.0654900  54.7132900   3.1059660  39.1153260
  40.4702570   9.8938430  43.6233170  40.3500170  10.6200520  43.0114440
  40.1603460   9.1241340  43.1461080  55.9064460  18.0204820  57.0180220
  56.3824180  18.4987710  57.6969300  56.5271620  17.9522310  56.2925720
  38.1087940  13.0653570  49.4301810  38.1868360  13.2002340  48.4857530
  38.7229620  12.3569460  49.6229930  39.3535570  14.7653760  45.8407990
  38.9463650  14.9068350  44.9861590  40.2448580  14.4813920  45.6379200
  55.3097710  15.2117670  54.1780230  55.4360770  14.9729550  53.2597410
  55.3519090  14.3802210  54.6502310  49.1714450  18.9145670  52.7475040
  49.6859120  18.8253680  53.5497470  48.3283530  19.2605370  53.0402950
  51.1468850  19.2001010  42.1759040  50.9869990  18.9103950  43.0740870
  50.9815560  18.4241140  41.6404270  43.6257230  18.9799540  43.9530660
  43.4499710  18.0635080  43.7398460  42.7712970  19.3386830  44.1928460
  50.8494980  16.7088570  40.7357040  50.1560140  16.7065860  40.0759320
  51.5917840  16.2847890  40.3051210  50.4144910  18.3351280  44.8105530
  50.8701860  17.5540660  45.1244150  50.7537430  19.0458100  45.3546710
  55.1621720   7.2650130  55.1429970  54.5465990   7.7729800  54.6145430
  54.8418140   6.3648460  55.0855910  38.1647460  14.1067740  51.9696270
  38.3278500  13.6373100  51.1515640  38.6299910  13.5991300  52.6345110
  42.9366230   3.2373500  47.0056840  42.4934380   4.0183040  46.6741360
  43.4951220   3.5603390  47.7127780  47.2236040   6.1042020  52.6092160
  46.7615410   6.3125040  53.4212100  46.8214150   5.2901370  52.3062830
  52.2240550   7.3250970  53.7388820  51.3734140   7.0256720  54.0597890
  52.0642340   7.5692980  52.8272640  49.3190260   8.8252720  55.8387610
  49.6443670   7.9916470  55.4989840  50.1070590   9.3481240  55.9865940
  46.0525050   2.8584200  41.8862670  45.4279230   2.8544070  42.6115980
  45.9655170   1.9915160  41.4898640  44.9742130   3.7820830  48.8646440
  45.2714460   4.6883660  48.7838460  45.5227690   3.2939610  48.2506010
  42.7280450   8.3607070  44.7338090  42.5021370   8.1444240  45.6384710
  41.9472980   8.7935530  44.3884060  49.9578210   8.3670440  43.3328740
  49.3587100   9.0906240  43.1492360  50.5057820   8.3047220  42.5505190
  45.1679660   9.2592650  55.3998360  45.0723260   8.3187380  55.2498760
  46.0111640   9.4807720  55.0046430  48.5643080   7.0033980  45.3632020
  48.9572650   7.3206180  44.5500710  48.9259930   6.1245860  45.4776540
  40.2990200   5.6706320  53.5532140  39.9053590   6.5181530  53.7604920
  39.6108600   5.0332690  53.7440780  46.8735250   5.7541290  56.6228880
  46.1833570   5.5613490  57.2574970  47.6167550   6.0375930  57.1553180
  37.6007250   3.5934780  47.5862220  37.3120300   4.1637640  48.2987200
  38.3453010   3.1139230  47.9493450  37.7877480   7.5354900  38.7964940
  37.7052150   8.4785660  38.9379930  37.4360540   7.3929810  37.9177290
  49.1498220   9.5939730  49.4582800  48.4179340  10.1026540  49.8072900
  48.7522560   8.7769710  49.1571580  45.5875610   6.2693930  47.8635290
  45.5911670   5.8283880  47.0139830  46.4826730   6.5911260  47.9707110
  41.4377990   6.1520420  46.8229500  41.0978040   6.6295650  47.5796550
  40.6755310   5.6985540  46.4630600  45.6495760   7.2706010  40.8542050
  45.7708580   7.2292490  41.8027870  45.2644270   8.1330160  40.6988780
  49.6124130   5.0473410  48.8705740  49.6296870   5.4982060  49.7147590
  49.3639710   4.1479050  49.0839180  44.6617260   9.5807150  40.2525350
  44.0934160   9.1325400  39.6261260  45.3706260   9.9399930  39.7190500
  53.0394880   2.4605590  54.7092120  53.3640650   1.7295250  55.2350100
  53.0751390   2.1419230  53.8073110  39.7386440  13.4819170  54.1292080
  39.3541230  12.8412840  54.7275040  40.0498630  14.1855290  54.6986810
  45.8883580  10.3295710  49.6100700  46.2553710   9.8554280  50.3562040
  45.6988640  11.2037280  49.9509040  38.7524070   5.0739400  45.7394170
  38.4670990   4.7095070  46.5772790  38.6902930   4.3419860  45.1257310
  43.6782950   9.3704350  51.9284910  43.3740020  10.2496330  52.1535270
  44.6329410   9.4304140  51.9642350  42.2064740  13.5765340  42.5251760
  41.4327000  13.0362960  42.3650480  42.9359370  13.0571950  42.1869520
  52.9652720  12.5730700  48.3178150  53.6851840  13.0685990  47.9274260
  52.7634540  11.8948590  47.6732020  48.4262660   3.9668660  42.4607540
  47.6127270   3.4681830  42.3852850  48.2324610   4.8066910  42.0443890
  48.3471520  12.6439760  54.2047150  48.2808830  11.7235430  53.9504740
  47.7176660  12.7415200  54.9191790  51.1411050   8.3388310  40.7569700
  52.0290670   8.6505540  40.5821040  51.1116140   7.4660560  40.3650280
  42.2502140  13.2445720  46.1630570  42.7680810  12.4413980  46.1087460
  41.7986160  13.1824860  47.0047400  47.1371640  14.5112000  41.4357870
  47.4787340  15.2554230  40.9401190  46.3084350  14.8243120  41.7982700
  39.7346680  10.2107090  53.0756270  39.3761620  10.8760940  53.6629610
  39.4401240   9.3790640  53.4468890  42.9359800  10.6691330  55.9595820
  42.6359940  10.8148510  55.0623640  43.7071040  10.1096620  55.8669210
  48.2788250  15.4660330  53.9550950  48.2932790  14.5341290  53.7369860
  47.5713350  15.5520090  54.5940720  53.4125320   9.6500150  40.2249560
  53.3289040  10.0814370  39.3746000  54.1319510  10.1098500  40.6576380
  54.4899460  12.1067670  53.3019530  53.7647650  12.6996450  53.1048920
  55.0174920  12.0991210  52.5032900  54.4412570  16.5042410  42.9531690
  53.7988730  15.8498030  43.2275410  54.0543230  16.9097500  42.1772360
  50.0199050  13.8327840  46.8003380  50.3722870  13.2355970  46.1404750
  49.1361380  13.5072070  46.9711630  46.1062330  14.5925530  44.2073790
  46.7933460  15.1394740  44.5881380  45.3194750  15.1366260  44.2423400
  38.2454730  10.2098350  39.6990870  39.1149580  10.4923150  39.9826790
  37.7545050  11.0234220  39.5839680  45.4089540  11.5971560  43.8199150
  45.8652320  12.4076810  44.0459340  45.0577750  11.2794700  44.6517640
  47.7122150  17.1077900  51.0491450  48.3564370  17.3137280  51.7264870
  48.0751590  16.3466300  50.5962300  41.3101320   1.9409210  44.2921670
  41.1815950   1.9327110  45.2406590  40.4863340   2.2792300  43.9412680
  48.9854230  15.1110250  49.7668900  49.6276460  14.4103410  49.8801070
  49.5103580  15.8908690  49.5865790  52.8309950  15.3958870  39.4908040
  52.6047530  14.6789310  40.0832680  52.4406150  15.1471310  38.6529790
  50.7591850  15.9105150  52.9704960  51.0948090  16.4971840  53.6482880
  49.8392190  15.7797860  53.2002750  38.6125980  19.4225730  40.2652500
  38.9723620  20.0215070  39.6109770  38.4718320  19.9685620  41.0387530
  38.3095250   3.7000330  53.7528370  37.5953770   3.8997250  54.3580980
  38.7290290   2.9239900  54.1243170  52.4126200  13.3130810  41.1522200
  52.1247900  13.7743500  41.9400080  53.2078370  12.8528580  41.4206420
  38.5967840  17.6880590  54.7394900  38.7058960  16.7475330  54.5990290
  37.9448400  17.9535340  54.0908630  46.5880430  15.9596480  56.1393020
  46.2677300  15.2405720  56.6838710  45.9138790  16.6351550  56.2129080
  44.6294600  16.8056930  41.0826170  44.6204700  17.5386620  40.4670680
  43.7092960  16.5588510  41.1753130  40.2301240  12.0271820  41.8272930
  39.6229190  12.7670720  41.8368230  40.7050590  12.1171180  41.0011130
  49.8034030   6.1922640  51.5029820  50.1714850   5.3717850  51.8309390
  48.9432230   6.2524530  51.9185470  53.1696060   5.1479580  42.3117380
  52.5409220   5.2525250  41.5975610  52.6747980   5.3676360  43.1011260
  47.6154200  16.8685170  39.7451360  47.7166180  16.6649160  38.8153340
  46.7155940  16.6143450  39.9499140  45.1380090   7.4265530  43.7275260
  44.4296240   7.8951870  44.1688870  45.4224570   6.7687540  44.3620450
  46.7636020   8.8462230  51.7267790  47.2621270   9.3208050  52.3919640
  46.9058970   7.9225750  51.9337820  49.1695520   4.1516190  45.1671050
  49.0463300   4.1702320  44.2180560  50.1180080   4.1995130  45.2869450
  46.2572310  19.3871490  44.4399030  46.5113810  19.3492880  43.5178400
  45.3084790  19.2604820  44.4327280  43.3415110   5.7350610  41.1025970
  44.1905640   6.1720760  41.0366160  42.9746380   6.0470870  41.9298030
  53.9702880   5.0630190  52.5696180  53.4676480   5.8035590  52.9089990
  54.7859540   5.4514190  52.2532970  52.2624890  10.3063370  46.0157540
  51.3215030  10.3213600  46.1905230  52.5768960   9.5199330  46.4617840
  42.2406530  11.9882970  39.5761500  43.0069800  11.8764330  40.1386930
  42.3181220  11.2920940  38.9238270  40.9353290   9.4208040  40.2594390
  41.0156880   8.4735550  40.3711790  41.8273040   9.7514920  40.3655050
  54.2650470  17.4772220  47.6911800  54.3897890  18.3003390  48.1635610
  55.1316030  17.2662950  47.3435950  41.7368000  19.5703430  47.3628930
  42.4730480  19.0218890  47.6337500  42.1208920  20.4359440  47.2234920
  38.6213480  15.6377000  43.2370440  37.6953260  15.8798140  43.2275850
  39.0869910  16.4651260  43.1155190  40.7426280  18.7549500  56.5514510
  41.5439010  19.0761550  56.9649910  40.2278100  18.3945080  57.2734420
  44.8470310  18.7433740  39.1854500  45.6398920  19.0322570  38.7336290
  44.3274660  18.3125910  38.5066980  49.5790910  14.8629370  56.4989920
  48.9729070  14.8860970  55.7585670  49.2745020  14.1312410  57.0357170
  51.0091280  18.5909660  55.1099330  51.9613030  18.5067680  55.0599570
  50.8619500  19.2551370  55.7833120  53.9000480  17.9703870  40.6091240
  53.6141990  17.5569010  39.7945420  53.7020030  18.8991580  40.4891760
  38.4624090  11.2422960  55.4950560  38.9663110  10.6630240  56.0666790
  37.7231510  11.5263190  56.0326930  45.3647710  13.9637150  39.0496850
  45.2598350  13.3489500  39.7758230  45.1971930  13.4403040  38.2659860
  45.5162030  12.6493950  55.0286080  44.7507700  13.2178950  54.9440750
  45.6977990  12.3570160  54.1354310  48.6050440  13.0257180  39.6538840
  48.0560540  13.4726480  40.2981580  49.2269700  12.5206430  40.1776510
  52.6585380  14.3799280  55.5861100  53.3994850  14.7175040  55.0828560
  51.8958060  14.5491340  55.0330870  40.4947170   9.3852550  56.3900630
  40.5352510   9.0866420  57.2985860  41.3492670   9.7860160  56.2308150
  44.2725560  11.9848100  41.5504140  44.6941980  11.8187970  42.3935530
  44.3976400  11.1748330  41.0559280  42.4352980   7.9644650  54.3575120
  41.9049440   7.4735600  53.7298460  43.1041050   8.3928850  53.8233050
  46.7853200  11.0085710  38.7981240  47.3058860  10.2934730  38.4322390
  47.4321600  11.6471580  39.0981750  51.3331040  12.4314110  54.1216310
  51.7472060  12.5859190  54.9706730  50.3982040  12.5569330  54.2842090
  51.8053210   9.7710270  56.1255460  52.3873980   9.0162590  56.0375940
  51.9814980  10.3017710  55.3486940  42.9225280   4.9307020  54.4372410
  42.8282150   4.3127770  53.7123280  42.3422670   5.6573310  54.2102320
  45.6886720   3.4880260  51.4699800  45.2404020   3.5104520  50.6245350
  45.0551920   3.0899280  52.0670100  46.0946270  12.3834590  52.0912240
  46.5134380  13.2267320  51.9188480  45.1754900  12.5206630  51.8619020
  48.4310170  10.1150770  53.4750080  48.5506380   9.5191910  54.2144920
  49.2904170  10.1520460  53.0551380  50.7698070  10.6687960  52.0512590
  50.2433290  11.1930580  51.4477730  51.1129410  11.3015350  52.6822320
  43.1684460   8.0581330  38.4962300  42.9673520   7.1948690  38.8575640
  42.9976510   7.9714690  37.5583900  43.9453690  18.6887600  53.2069970
  43.4074780  19.4133660  52.8878670  44.1987650  18.2117940  52.4167310
  45.1978940   6.6572120  54.7325900  45.7878630   6.3487970  55.4203720
  44.3799180   6.1851870  54.8885800  50.0172370   6.2737930  54.9658920
  49.3287890   5.6119470  54.9008910  50.7378390   5.8276200  55.4107380
  50.6472770   2.8689560  41.0249180  50.9275060   2.0257460  41.3808600
  49.8738500   3.1012670  41.5387930  41.9667260   5.1581950  38.4840180
  42.2693160   5.1649380  37.5759330  42.7061850   4.8079810  38.9807840
  46.8015900  19.9238810  53.4656620  46.7274600  20.8273950  53.7728990
  45.8994740  19.6050710  53.4378690  45.1852190   4.1016570  39.4696380
  44.8374190   3.4240560  38.8898830  45.3864960   3.6406080  40.2839770
  47.3501230  19.0897320  41.0882980  48.2452020  19.4282290  41.1101740
  47.3818860  18.3676730  40.4607260  40.9897390  14.4624370  39.3169980
  41.4272260  15.0054040  39.9727560  41.4745120  13.6371320  39.3266320
  38.2043190  17.2513400  46.7690240  38.5346200  16.3834460  46.5368880
  38.6334190  17.4571920  47.5995200  42.8005110  15.5822410  44.4292210
  42.5000650  15.4587380  45.3296120  42.6942600  14.7231000  44.0207940
  38.6933400  18.1183990  49.5071870  38.2564390  18.2984790  50.3396020
  39.2611080  18.8758610  49.3653590  54.3295580  17.6200990  53.7949180
  53.7297570  17.6793550  53.0513100  54.4589480  16.6805970  53.9246030
  55.5697030  15.3618810  39.1318890  54.7389990  15.4295460  39.6026120
  55.7468860  16.2522930  38.8285750  55.0253490  12.1066290  41.6353090
  55.7872400  12.6762940  41.7412780  55.0407860  11.5393490  42.4061400
  38.5257830  10.6304220  45.8660750  37.8706670  10.3615860  45.2220450
  39.3635780  10.5208700  45.4162730  56.0313460  12.9616390  46.4795020
  56.4022290  12.1783710  46.0730990  56.6715390  13.6505490  46.3012320
  53.0147220  14.3452970  51.8925340  52.2007060  14.7750130  52.1551130
  53.4221420  14.9571380  51.2794390  55.0772660  12.4000660  38.7925610
  55.3521500  13.3079540  38.6644830  54.8883400  12.3363190  39.7287600
  51.4748270   5.4245510  40.0879240  51.8933150   5.2376490  39.2475900
  51.1684330   4.5724560  40.3982170  54.9738000  10.3369650  43.7855040
  54.5981600   9.5697580  43.3536330  54.2441120  10.7192350  44.2729970
  39.5633760  11.0156790  50.4064090  39.9306800  10.9284190  51.2860110
  38.9944580  10.2523340  50.3070950  54.3637620   9.4841170  53.4194560
  54.1323710   9.2553920  52.5192510  54.6242170  10.4040720  53.3739450
  39.1149760   7.9265880  54.3122510  38.2205810   7.8932640  54.6516220
  39.6547310   8.1252670  55.0773760  52.8025690   4.7097600  56.1974260
  53.6795870   4.7181000  56.5808260  52.8146530   3.9728440  55.5866610
  37.7395910   7.8403150  41.8086080  36.8359990   8.1033350  41.6337740
  38.2236530   8.1114320  41.0286040  54.2488960   8.5627140  47.0862280
  54.7726440   8.0689790  46.4552450  54.8348380   8.6977500  47.8309850
  54.4278680   8.6467010  50.6081830  53.4781390   8.6130550  50.7226820
  54.6091690   9.5567120  50.3731600  40.2823120   6.8968690  39.7180460
  40.9914820   6.4751910  39.2327740  39.5663060   6.9643920  39.0863810
  39.9297280   2.9508020  38.7583110  40.6525410   3.4916960  39.0764330
  40.2021800   2.6771440  37.8824650  53.7388930   7.8200490  43.0254690
  54.2348050   7.5871360  43.8103570  53.5405000   6.9812330  42.6092330
  39.6189470   2.2014210  48.6605730  40.2665660   1.6511590  48.2200890
  40.0391310   2.4557360  49.4821540  55.1676090   6.4561440  45.5592370
  55.0575370   6.3017480  46.4974640  55.9283680   5.9282380  45.3167780
  53.5141810   2.3955570  52.0175370  54.1514030   3.0089710  52.3834560
  53.6616700   2.4316230  51.0724600  56.0566360   4.2869360  38.7998510
  56.9815670   4.1550540  38.5916800  56.0342150   4.3662180  39.7534960
  56.1304850   5.0580020  41.4255220  55.3356350   4.9925140  41.9548130
  56.3348130   5.9930660  41.4140570  53.0723270  19.0971570  45.4193610
  53.6682340  18.7756140  44.7428030  53.3301420  18.6243390  46.2106880
  39.3721470   2.3569880  51.4031050  39.0236290   2.8133700  52.1689230
  39.0409170   1.4627010  51.4853480  40.9785840  15.5289480  55.5684240
  40.9355470  15.1582390  56.4498700  41.1096850  16.4667050  55.7086060
  44.6791870  17.0849070  51.1693960  44.4383230  17.3523630  50.2824480
  45.6194510  17.2554800  51.2244820  46.8846290   3.5481760  54.9250470
  46.8235180   4.1403590  55.6745880  47.8246670   3.4407720  54.7800730
  49.5220850   3.2051820  54.5642760  50.1361260   3.5231110  53.9023840
  50.0670410   2.7200410  55.1838620  55.9396030  19.1043450  51.9704600
  55.4454310  19.5012320  51.2531730  55.3309320  18.4792660  52.3641880
  40.8173870  18.4751730  52.6882020  40.2234190  18.3436430  53.4272060
  40.8097710  17.6389870  52.2224120  51.1700870   3.9754830  52.2753770
  50.8414230   3.1606590  51.8955500  52.1183170   3.9324640  52.1519460
  53.6235480  19.7466870  49.2491340  53.1638450  20.4982680  48.8749360
  52.9947940  19.0273340  49.1906140  40.4486100  15.8410110  51.6390060
  39.7220160  15.2215400  51.5716010  40.5095250  16.2350720  50.7688140
  44.0531200  18.0555110  48.4239470  44.5696220  17.4442470  47.8987730
  44.7028580  18.5583890  48.9150480  46.7926700  18.9463600  49.2508450
  47.0804510  18.6917900  48.3741460  47.3049920  18.3940960  49.8414020
  48.0103710   2.6853800  49.8304960  47.2275500   3.1599300  50.1101720
  47.7166640   1.7808630  49.7218140  52.5624780   3.3876900  47.8754050
  53.0032870   3.3322000  47.0275650  52.2932370   4.3034910  47.9464230
  54.4263350   3.0192140  45.8862870  54.3651750   2.0753360  45.7393890
  55.2055380   3.1272230  46.4316330  38.7316100  19.1584500  44.8486820
  38.5638140  18.5255180  45.5468710  37.8650610  19.3643900  44.4981010
  39.3544120   2.9901280  42.3518680  40.1123480   3.1030160  41.7782710
  38.8921290   3.8270480  42.3062110  45.8957930   5.1040550  45.3420990
  45.0832440   4.7297440  45.0016870  46.3999570   4.3485630  45.6442180
  50.3982910   1.7683000  46.5804060  51.0012280   2.3403210  47.0552580
  49.6575900   2.3322440  46.3577960  53.5417510   2.1704560  41.8544340
  53.7368140   3.0688010  42.1211770  52.7547380   1.9391640  42.3477290
  40.3378800  17.8517730  42.2936960  39.8126420  18.2325760  41.5898920
  40.2623380  18.4768500  43.0146670  41.7269270   3.5165330  40.8920650
  42.2562030   2.7295130  40.7628600  42.3597590   4.1956520  41.1256180
  43.9207110   3.2540470  43.9466040  43.2909850   2.5527780  44.1136170
  43.3812250   4.0144600  43.7299200  46.8599060  19.8679700  56.6176650
  47.7866370  19.6323970  56.6612610  46.8449490  20.6951700  56.1362680
  55.0944120  19.4105270  43.6150900  55.2696310  18.7243010  42.9711820
  54.3965690  19.9352320  43.2227570  44.0462670   2.5324450  56.3818530
  43.7646940   3.0358050  55.6179350  44.4282370   1.7346200  56.0160660
  42.9371770  19.8000110  41.1686210  43.6690590  19.5159390  40.6210100
  43.1965440  19.5613390  42.0585590  42.0986560  15.9164840  41.1732540
  41.4695440  16.3849940  41.7218370  42.2134390  15.0714060  41.6078730
  50.6478130   1.9478030  56.9599000  50.5343580   2.2672640  57.8550520
  51.4647870   2.3490540  56.6636280  53.4276620  19.0949560  56.4417690
  54.2201940  18.5998790  56.2343650  53.7209770  19.7739700  57.0493300
  49.5536280   9.9670500  27.3233740  49.4730330   9.0525110  27.0525450
  49.1400700  10.4637570  26.6173450  47.6854320  11.7449520  29.2043010
  46.9096420  11.2649960  29.4941580  48.3367250  11.0655170  29.0299170
  41.7020150  12.0569330  30.0818770  40.8705030  11.8018040  30.4815280
  42.3101130  12.1280100  30.8176690  51.7061750  16.1509710  27.9842140
  51.2443280  15.3796950  28.3129310  52.5187300  16.1775780  28.4894590
  41.6821410  16.0909420  30.2776790  41.9849450  15.2007160  30.0987010
  42.4265000  16.6479640  30.0499040  40.1112100   7.0171220  23.8661160
  39.2228800   7.3587190  23.7641040  40.3953290   6.8171540  22.9741990
  38.0745110   9.6176870  29.7500860  38.6461220   8.8499070  29.7504500
  38.0746650   9.9165630  28.8407470  47.9325060  18.4367720  27.6046130
  47.3136500  18.8925220  27.0340570  48.7876840  18.5919180  27.2035830
  47.1263310  14.4206710  29.2113170  47.0571590  13.4796650  29.0502300
  47.8883170  14.5108120  29.7835740  39.3169980   5.0261230  31.5369790
  39.1372820   4.1286980  31.8172550  38.9150060   5.5733100  32.2116740
  48.1568480   7.2277090  29.4382100  48.5333300   6.3548970  29.3255770
  48.0587990   7.5635790  28.5472540  42.2873490   5.6002720  24.8999540
  42.3940240   6.5006450  25.2068300  41.3765850   5.5520690  24.6094190
  51.9392600   4.7227530  26.3710440  52.7602220   4.2324100  26.4135920
  51.9726680   5.3125190  27.1242280  39.9356650   7.5221730  30.1452130
  40.6166760   7.7860100  30.7639530  39.6204700   6.6822600  30.4790140
  44.1281220   8.5689090  29.2324720  44.6359440   9.0670060  29.8729740
  44.6594460   7.7924290  29.0564080  56.2292150   6.7394280  32.9354070
  55.5244320   7.1275990  32.4169180  56.4950070   7.4344570  33.5375000
  42.4117320   3.2087650  33.4988140  42.4135760   3.7260040  32.6934040
  41.5821630   2.7317830  33.4758070  48.7988410  13.3206960  24.9978040
  48.1805680  13.7856410  24.4340760  49.3111660  14.0134440  25.4147550
  43.6620170  12.8482830  31.6761640  43.3289550  13.4751750  32.3182710
  43.8386850  13.3744710  30.8963310  52.1754080   6.6627910  29.1437980
  51.4709650   6.9512800  29.7241090  52.5366240   7.4728020  28.7837540
  42.0932650   4.9197610  31.5058590  42.4349460   5.7639660  31.2112460
  41.1548460   5.0681350  31.6223930  42.8739270  14.8163630  33.4910820
  43.4913270  15.4914710  33.2095270  42.0132390  15.2251610  33.3998320
  38.1671610  14.0063490  22.3717670  37.7899590  14.4950590  21.6402570
  38.4244680  14.6788770  23.0024200  53.7916860  16.2803040  31.4065460
  53.1080380  16.9502150  31.3982130  54.3311150  16.4783690  30.6410320
  55.2441000   6.1082700  29.5347190  54.2965910   6.1421680  29.6662620
  55.5690990   6.9221650  29.9196550  45.7760540   2.4079880  27.8303180
  46.0835520   1.8526770  27.1138680  44.8461240   2.5424340  27.6476170
  51.3275600  18.1247170  30.1210640  51.3402760  17.7209460  29.2532900
  50.7750820  18.8994460  30.0172070  52.6221020  14.8463390  25.2100810
  52.5117350  13.9037720  25.3350230  52.6189270  15.2079030  26.0963570
  50.7261040  13.0277010  31.4493250  51.1429830  12.8137120  30.6146710
  51.4500860  13.2849800  32.0201870  48.1641300  10.4728710  24.5663300
  47.2370580  10.4066090  24.7951770  48.3166120  11.4108840  24.4518540
  48.1510380   6.7445710  21.5630460  47.2114050   6.9059670  21.6482920
  48.4693640   7.4631390  21.0166450  54.6723140  11.4264230  31.5409490
  53.8441770  11.4957320  31.0659620  55.2673620  12.0118540  31.0725320
  52.1938590  12.0349010  25.0698550  51.5751010  11.6968560  24.4224850
  52.1763040  11.3908770  25.7777740  51.6365150   8.2133550  32.4864360
  51.2236330   9.0387260  32.7404350  50.9041100   7.6278590  32.2940720
  43.7697940  10.9993450  27.3483030  43.3654940  10.2870700  26.8528930
  43.8561060  10.6546690  28.2371070  44.2379640  14.6861010  29.5122240
  43.9407930  14.0806480  28.8330020  45.1879460  14.7238320  29.4011600
  42.4826560   7.7736660  31.1282070  43.0341150   7.8832000  30.3535320
  42.9970070   8.1474260  31.8437300  52.3265250  18.2592880  33.1745340
  51.8495810  19.0665070  32.9817950  51.6427040  17.6071210  33.3271550
  43.3298070  14.4242700  36.1630040  42.4326600  14.6482670  36.4103440
  43.3550940  14.5477640  35.2141440  50.3703290  11.2735820  22.0771300
  50.8096570  10.4358250  21.9309120  51.0831710  11.9065220  22.1635440
  42.1569290  11.2956020  34.7387410  42.0177060  12.1678820  35.1074810
  41.2750650  10.9528830  34.5935350  48.4798670  16.2131890  26.0452540
  48.9194580  16.9556220  25.6307930  48.4185560  16.4558460  26.9691500
  43.9549640  17.2377720  36.9472560  43.9265070  17.6420670  36.0800990
  43.7914610  16.3088080  36.7844160  53.9520430   2.5278630  20.3912340
  53.6393090   2.6205460  21.2911410  54.7132900   3.1059660  20.3409770
  40.4702570   9.8938430  24.8489680  40.3500170  10.6200520  24.2370950
  40.1603460   9.1241340  24.3717590  55.9064460  18.0204820  38.2436730
  56.3824180  18.4987710  38.9225810  56.5271620  17.9522310  37.5182230
  38.1087940  13.0653570  30.6558320  38.1868360  13.2002340  29.7114040
  38.7229620  12.3569460  30.8486440  39.3535570  14.7653760  27.0664500
  38.9463650  14.9068350  26.2118100  40.2448580  14.4813920  26.8635710
  55.3097710  15.2117670  35.4036740  55.4360770  14.9729550  34.4853920
  55.3519090  14.3802210  35.8758820  49.1714450  18.9145670  33.9731550
  49.6859120  18.8253680  34.7753980  48.3283530  19.2605370  34.2659460
  51.1468850  19.2001010  23.4015550  50.9869990  18.9103950  24.2997380
  50.9815560  18.4241140  22.8660780  43.6257230  18.9799540  25.1787170
  43.4499710  18.0635080  24.9654970  42.7712970  19.3386830  25.4184970
  50.8494980  16.7088570  21.9613550  50.1560140  16.7065860  21.3015830
  51.5917840  16.2847890  21.5307720  50.4144910  18.3351280  26.0362040
  50.8701860  17.5540660  26.3500660  50.7537430  19.0458100  26.5803220
  55.1621720   7.2650130  36.3686480  54.5465990   7.7729800  35.8401940
  54.8418140   6.3648460  36.3112420  38.1647460  14.1067740  33.1952780
  38.3278500  13.6373100  32.3772150  38.6299910  13.5991300  33.8601620
  42.9366230   3.2373500  28.2313350  42.4934380   4.0183040  27.8997870
  43.4951220   3.5603390  28.9384290  47.2236040   6.1042020  33.8348670
  46.7615410   6.3125040  34.6468610  46.8214150   5.2901370  33.5319340
  52.2240550   7.3250970  34.9645330  51.3734140   7.0256720  35.2854400
  52.0642340   7.5692980  34.0529150  49.3190260   8.8252720  37.0644120
  49.6443670   7.9916470  36.7246350  50.1070590   9.3481240  37.2122450
  46.0525050   2.8584200  23.1119180  45.4279230   2.8544070  23.8372490
  45.9655170   1.9915160  22.7155150  44.9742130   3.7820830  30.0902950
  45.2714460   4.6883660  30.0094970  45.5227690   3.2939610  29.4762520
  42.7280450   8.3607070  25.9594600  42.5021370   8.1444240  26.8641220
  41.9472980   8.7935530  25.6140570  49.9578210   8.3670440  24.5585250
  49.3587100   9.0906240  24.3748870  50.5057820   8.3047220  23.7761700
  45.1679660   9.2592650  36.6254870  45.0723260   8.3187380  36.4755270
  46.0111640   9.4807720  36.2302940  48.5643080   7.0033980  26.5888530
  48.9572650   7.3206180  25.7757220  48.9259930   6.1245860  26.7033050
  40.2990200   5.6706320  34.7788650  39.9053590   6.5181530  34.9861430
  39.6108600   5.0332690  34.9697290  46.8735250   5.7541290  37.8485390
  46.1833570   5.5613490  38.4831480  47.6167550   6.0375930  38.3809690
  37.6007250   3.5934780  28.8118730  37.3120300   4.1637640  29.5243710
  38.3453010   3.1139230  29.1749960  37.7877480   7.5354900  20.0221450
  37.7052150   8.4785660  20.1636440  37.4360540   7.3929810  19.1433800
  49.1498220   9.5939730  30.6839310  48.4179340  10.1026540  31.0329410
  48.7522560   8.7769710  30.3828090  45.5875610   6.2693930  29.0891800
  45.5911670   5.8283880  28.2396340  46.4826730   6.5911260  29.1963620
  41.4377990   6.1520420  28.0486010  41.0978040   6.6295650  28.8053060
  40.6755310   5.6985540  27.6887110  45.6495760   7.2706010  22.0798560
  45.7708580   7.2292490  23.0284380  45.2644270   8.1330160  21.9245290
  49.6124130   5.0473410  30.0962250  49.6296870   5.4982060  30.9404100
  49.3639710   4.1479050  30.3095690  44.6617260   9.5807150  21.4781860
  44.0934160   9.1325400  20.8517770  45.3706260   9.9399930  20.9447010
  53.0394880   2.4605590  35.9348630  53.3640650   1.7295250  36.4606610
  53.0751390   2.1419230  35.0329620  39.7386440  13.4819170  35.3548590
  39.3541230  12.8412840  35.9531550  40.0498630  14.1855290  35.9243320
  45.8883580  10.3295710  30.8357210  46.2553710   9.8554280  31.5818550
  45.6988640  11.2037280  31.1765550  38.7524070   5.0739400  26.9650680
  38.4670990   4.7095070  27.8029300  38.6902930   4.3419860  26.3513820
  43.6782950   9.3704350  33.1541420  43.3740020  10.2496330  33.3791780
  44.6329410   9.4304140  33.1898860  42.2064740  13.5765340  23.7508270
  41.4327000  13.0362960  23.5906990  42.9359370  13.0571950  23.4126030
  52.9652720  12.5730700  29.5434660  53.6851840  13.0685990  29.1530770
  52.7634540  11.8948590  28.8988530  48.4262660   3.9668660  23.6864050
  47.6127270   3.4681830  23.6109360  48.2324610   4.8066910  23.2700400
  48.3471520  12.6439760  35.4303660  48.2808830  11.7235430  35.1761250
  47.7176660  12.7415200  36.1448300  51.1411050   8.3388310  21.9826210
  52.0290670   8.6505540  21.8077550  51.1116140   7.4660560  21.5906790
  42.2502140  13.2445720  27.3887080  42.7680810  12.4413980  27.3343970
  41.7986160  13.1824860  28.2303910  47.1371640  14.5112000  22.6614380
  47.4787340  15.2554230  22.1657700  46.3084350  14.8243120  23.0239210
  39.7346680  10.2107090  34.3012780  39.3761620  10.8760940  34.8886120
  39.4401240   9.3790640  34.6725400  42.9359800  10.6691330  37.1852330
  42.6359940  10.8148510  36.2880150  43.7071040  10.1096620  37.0925720
  48.2788250  15.4660330  35.1807460  48.2932790  14.5341290  34.9626370
  47.5713350  15.5520090  35.8197230  53.4125320   9.6500150  21.4506070
  53.3289040  10.0814370  20.6002510  54.1319510  10.1098500  21.8832890
  54.4899460  12.1067670  34.5276040  53.7647650  12.6996450  34.3305430
  55.0174920  12.0991210  33.7289410  54.4412570  16.5042410  24.1788200
  53.7988730  15.8498030  24.4531920  54.0543230  16.9097500  23.4028870
  50.0199050  13.8327840  28.0259890  50.3722870  13.2355970  27.3661260
  49.1361380  13.5072070  28.1968140  46.1062330  14.5925530  25.4330300
  46.7933460  15.1394740  25.8137890  45.3194750  15.1366260  25.4679910
  38.2454730  10.2098350  20.9247380  39.1149580  10.4923150  21.2083300
  37.7545050  11.0234220  20.8096190  45.4089540  11.5971560  25.0455660
  45.8652320  12.4076810  25.2715850  45.0577750  11.2794700  25.8774150
  47.7122150  17.1077900  32.2747960  48.3564370  17.3137280  32.9521380
  48.0751590  16.3466300  31.8218810  41.3101320   1.9409210  25.5178180
  41.1815950   1.9327110  26.4663100  40.4863340   2.2792300  25.1669190
  48.9854230  15.1110250  30.9925410  49.6276460  14.4103410  31.1057580
  49.5103580  15.8908690  30.8122300  52.8309950  15.3958870  20.7164550
  52.6047530  14.6789310  21.3089190  52.4406150  15.1471310  19.8786300
  50.7591850  15.9105150  34.1961470  51.0948090  16.4971840  34.8739390
  49.8392190  15.7797860  34.4259260  38.6125980  19.4225730  21.4909010
  38.9723620  20.0215070  20.8366280  38.4718320  19.9685620  22.2644040
  38.3095250   3.7000330  34.9784880  37.5953770   3.8997250  35.5837490
  38.7290290   2.9239900  35.3499680  52.4126200  13.3130810  22.3778710
  52.1247900  13.7743500  23.1656590  53.2078370  12.8528580  22.6462930
  38.5967840  17.6880590  35.9651410  38.7058960  16.7475330  35.8246800
  37.9448400  17.9535340  35.3165140  46.5880430  15.9596480  37.3649530
  46.2677300  15.2405720  37.9095220  45.9138790  16.6351550  37.4385590
  44.6294600  16.8056930  22.3082680  44.6204700  17.5386620  21.6927190
  43.7092960  16.5588510  22.4009640  40.2301240  12.0271820  23.0529440
  39.6229190  12.7670720  23.0624740  40.7050590  12.1171180  22.2267640
  49.8034030   6.1922640  32.7286330  50.1714850   5.3717850  33.0565900
  48.9432230   6.2524530  33.1441980  53.1696060   5.1479580  23.5373890
  52.5409220   5.2525250  22.8232120  52.6747980   5.3676360  24.3267770
  47.6154200  16.8685170  20.9707870  47.7166180  16.6649160  20.0409850
  46.7155940  16.6143450  21.1755650  45.1380090   7.4265530  24.9531770
  44.4296240   7.8951870  25.3945380  45.4224570   6.7687540  25.5876960
  46.7636020   8.8462230  32.9524300  47.2621270   9.3208050  33.6176150
  46.9058970   7.9225750  33.1594330  49.1695520   4.1516190  26.3927560
  49.0463300   4.1702320  25.4437070  50.1180080   4.1995130  26.5125960
  46.2572310  19.3871490  25.6655540  46.5113810  19.3492880  24.7434910
  45.3084790  19.2604820  25.6583790  43.3415110   5.7350610  22.3282480
  44.1905640   6.1720760  22.2622670  42.9746380   6.0470870  23.1554540
  53.9702880   5.0630190  33.7952690  53.4676480   5.8035590  34.1346500
  54.7859540   5.4514190  33.4789480  52.2624890  10.3063370  27.2414050
  51.3215030  10.3213600  27.4161740  52.5768960   9.5199330  27.6874350
  42.2406530  11.9882970  20.8018010  43.0069800  11.8764330  21.3643440
  42.3181220  11.2920940  20.1494780  40.9353290   9.4208040  21.4850900
  41.0156880   8.4735550  21.5968300  41.8273040   9.7514920  21.5911560
  54.2650470  17.4772220  28.9168310  54.3897890  18.3003390  29.3892120
  55.1316030  17.2662950  28.5692460  41.7368000  19.5703430  28.5885440
  42.4730480  19.0218890  28.8594010  42.1208920  20.4359440  28.4491430
  38.6213480  15.6377000  24.4626950  37.6953260  15.8798140  24.4532360
  39.0869910  16.4651260  24.3411700  40.7426280  18.7549500  37.7771020
  41.5439010  19.0761550  38.1906420  40.2278100  18.3945080  38.4990930
  44.8470310  18.7433740  20.4111010  45.6398920  19.0322570  19.9592800
  44.3274660  18.3125910  19.7323490  49.5790910  14.8629370  37.7246430
  48.9729070  14.8860970  36.9842180  49.2745020  14.1312410  38.2613680
  51.0091280  18.5909660  36.3355840  51.9613030  18.5067680  36.2856080
  50.8619500  19.2551370  37.0089630  53.9000480  17.9703870  21.8347750
  53.6141990  17.5569010  21.0201930  53.7020030  18.8991580  21.7148270
  38.4624090  11.2422960  36.7207070  38.9663110  10.6630240  37.2923300
  37.7231510  11.5263190  37.2583440  45.3647710  13.9637150  20.2753360
  45.2598350  13.3489500  21.0014740  45.1971930  13.4403040  19.4916370
  45.5162030  12.6493950  36.2542590  44.7507700  13.2178950  36.1697260
  45.6977990  12.3570160  35.3610820  48.6050440  13.0257180  20.8795350
  48.0560540  13.4726480  21.5238090  49.2269700  12.5206430  21.4033020
  52.6585380  14.3799280  36.8117610  53.3994850  14.7175040  36.3085070
  51.8958060  14.5491340  36.2587380  40.4947170   9.3852550  37.6157140
  40.5352510   9.0866420  38.5242370  41.3492670   9.7860160  37.4564660
  44.2725560  11.9848100  22.7760650  44.6941980  11.8187970  23.6192040
  44.3976400  11.1748330  22.2815790  42.4352980   7.9644650  35.5831630
  41.9049440   7.4735600  34.9554970  43.1041050   8.3928850  35.0489560
  46.7853200  11.0085710  20.0237750  47.3058860  10.2934730  19.6578900
  47.4321600  11.6471580  20.3238260  51.3331040  12.4314110  35.3472820
  51.7472060  12.5859190  36.1963240  50.3982040  12.5569330  35.5098600
  51.8053210   9.7710270  37.3511970  52.3873980   9.0162590  37.2632450
  51.9814980  10.3017710  36.5743450  42.9225280   4.9307020  35.6628920
  42.8282150   4.3127770  34.9379790  42.3422670   5.6573310  35.4358830
  45.6886720   3.4880260  32.6956310  45.2404020   3.5104520  31.8501860
  45.0551920   3.0899280  33.2926610  46.0946270  12.3834590  33.3168750
  46.5134380  13.2267320  33.1444990  45.1754900  12.5206630  33.0875530
  48.4310170  10.1150770  34.7006590  48.5506380   9.5191910  35.4401430
  49.2904170  10.1520460  34.2807890  50.7698070  10.6687960  33.2769100
  50.2433290  11.1930580  32.6734240  51.1129410  11.3015350  33.9078830
  43.1684460   8.0581330  19.7218810  42.9673520   7.1948690  20.0832150
  42.9976510   7.9714690  18.7840410  43.9453690  18.6887600  34.4326480
  43.4074780  19.4133660  34.1135180  44.1987650  18.2117940  33.6423820
  45.1978940   6.6572120  35.9582410  45.7878630   6.3487970  36.6460230
  44.3799180   6.1851870  36.1142310  50.0172370   6.2737930  36.1915430
  49.3287890   5.6119470  36.1265420  50.7378390   5.8276200  36.6363890
  50.6472770   2.8689560  22.2505690  50.9275060   2.0257460  22.6065110
  49.8738500   3.1012670  22.7644440  41.9667260   5.1581950  19.7096690
  42.2693160   5.1649380  18.8015840  42.7061850   4.8079810  20.2064350
  46.8015900  19.9238810  34.6913130  46.7274600  20.8273950  34.9985500
  45.8994740  19.6050710  34.6635200  45.1852190   4.1016570  20.6952890
  44.8374190   3.4240560  20.1155340  45.3864960   3.6406080  21.5096280
  47.3501230  19.0897320  22.3139490  48.2452020  19.4282290  22.3358250
  47.3818860  18.3676730  21.6863770  40.9897390  14.4624370  20.5426490
  41.4272260  15.0054040  21.1984070  41.4745120  13.6371320  20.5522830
  38.2043190  17.2513400  27.9946750  38.5346200  16.3834460  27.7625390
  38.6334190  17.4571920  28.8251710  42.8005110  15.5822410  25.6548720
  42.5000650  15.4587380  26.5552630  42.6942600  14.7231000  25.2464450
  38.6933400  18.1183990  30.7328380  38.2564390  18.2984790  31.5652530
  39.2611080  18.8758610  30.5910100  54.3295580  17.6200990  35.0205690
  53.7297570  17.6793550  34.2769610  54.4589480  16.6805970  35.1502540
  55.5697030  15.3618810  20.3575400  54.7389990  15.4295460  20.8282630
  55.7468860  16.2522930  20.0542260  55.0253490  12.1066290  22.8609600
  55.7872400  12.6762940  22.9669290  55.0407860  11.5393490  23.6317910
  38.5257830  10.6304220  27.0917260  37.8706670  10.3615860  26.4476960
  39.3635780  10.5208700  26.6419240  56.0313460  12.9616390  27.7051530
  56.4022290  12.1783710  27.2987500  56.6715390  13.6505490  27.5268830
  53.0147220  14.3452970  33.1181850  52.2007060  14.7750130  33.3807640
  53.4221420  14.9571380  32.5050900  55.0772660  12.4000660  20.0182120
  55.3521500  13.3079540  19.8901340  54.8883400  12.3363190  20.9544110
  51.4748270   5.4245510  21.3135750  51.8933150   5.2376490  20.4732410
  51.1684330   4.5724560  21.6238680  54.9738000  10.3369650  25.0111550
  54.5981600   9.5697580  24.5792840  54.2441120  10.7192350  25.4986480
  39.5633760  11.0156790  31.6320600  39.9306800  10.9284190  32.5116620
  38.9944580  10.2523340  31.5327460  54.3637620   9.4841170  34.6451070
  54.1323710   9.2553920  33.7449020  54.6242170  10.4040720  34.5995960
  39.1149760   7.9265880  35.5379020  38.2205810   7.8932640  35.8772730
  39.6547310   8.1252670  36.3030270  52.8025690   4.7097600  37.4230770
  53.6795870   4.7181000  37.8064770  52.8146530   3.9728440  36.8123120
  37.7395910   7.8403150  23.0342590  36.8359990   8.1033350  22.8594250
  38.2236530   8.1114320  22.2542550  54.2488960   8.5627140  28.3118790
  54.7726440   8.0689790  27.6808960  54.8348380   8.6977500  29.0566360
  54.4278680   8.6467010  31.8338340  53.4781390   8.6130550  31.9483330
  54.6091690   9.5567120  31.5988110  40.2823120   6.8968690  20.9436970
  40.9914820   6.4751910  20.4584250  39.5663060   6.9643920  20.3120320
  39.9297280   2.9508020  19.9839620  40.6525410   3.4916960  20.3020840
  40.2021800   2.6771440  19.1081160  53.7388930   7.8200490  24.2511200
  54.2348050   7.5871360  25.0360080  53.5405000   6.9812330  23.8348840
  39.6189470   2.2014210  29.8862240  40.2665660   1.6511590  29.4457400
  40.0391310   2.4557360  30.7078050  55.1676090   6.4561440  26.7848880
  55.0575370   6.3017480  27.7231150  55.9283680   5.9282380  26.5424290
  53.5141810   2.3955570  33.2431880  54.1514030   3.0089710  33.6091070
  53.6616700   2.4316230  32.2981110  56.0566360   4.2869360  20.0255020
  56.9815670   4.1550540  19.8173310  56.0342150   4.3662180  20.9791470
  56.1304850   5.0580020  22.6511730  55.3356350   4.9925140  23.1804640
  56.3348130   5.9930660  22.6397080  53.0723270  19.0971570  26.6450120
  53.6682340  18.7756140  25.9684540  53.3301420  18.6243390  27.4363390
  39.3721470   2.3569880  32.6287560  39.0236290   2.8133700  33.3945740
  39.0409170   1.4627010  32.7109990  40.9785840  15.5289480  36.7940750
  40.9355470  15.1582390  37.6755210  41.1096850  16.4667050  36.9342570
  44.6791870  17.0849070  32.3950470  44.4383230  17.3523630  31.5080990
  45.6194510  17.2554800  32.4501330  46.8846290   3.5481760  36.1506980
  46.8235180   4.1403590  36.9002390  47.8246670   3.4407720  36.0057240
  49.5220850   3.2051820  35.7899270  50.1361260   3.5231110  35.1280350
  50.0670410   2.7200410  36.4095130  55.9396030  19.1043450  33.1961110
  55.4454310  19.5012320  32.4788240  55.3309320  18.4792660  33.5898390
  40.8173870  18.4751730  33.9138530  40.2234190  18.3436430  34.6528570
  40.8097710  17.6389870  33.4480630  51.1700870   3.9754830  33.5010280
  50.8414230   3.1606590  33.1212010  52.1183170   3.9324640  33.3775970
  53.6235480  19.7466870  30.4747850  53.1638450  20.4982680  30.1005870
  52.9947940  19.0273340  30.4162650  40.4486100  15.8410110  32.8646570
  39.7220160  15.2215400  32.7972520  40.5095250  16.2350720  31.9944650
  44.0531200  18.0555110  29.6495980  44.5696220  17.4442470  29.1244240
  44.7028580  18.5583890  30.1406990  46.7926700  18.9463600  30.4764960
  47.0804510  18.6917900  29.5997970  47.3049920  18.3940960  31.0670530
  48.0103710   2.6853800  31.0561470  47.2275500   3.1599300  31.3358230
  47.7166640   1.7808630  30.9474650  52.5624780   3.3876900  29.1010560
  53.0032870   3.3322000  28.2532160  52.2932370   4.3034910  29.1720740
  54.4263350   3.0192140  27.1119380  54.3651750   2.0753360  26.9650400
  55.2055380   3.1272230  27.6572840  38.7316100  19.1584500  26.0743330
  38.5638140  18.5255180  26.7725220  37.8650610  19.3643900  25.7237520
  39.3544120   2.9901280  23.5775190  40.1123480   3.1030160  23.0039220
  38.8921290   3.8270480  23.5318620  45.8957930   5.1040550  26.5677500
  45.0832440   4.7297440  26.2273380  46.3999570   4.3485630  26.8698690
  50.3982910   1.7683000  27.8060570  51.0012280   2.3403210  28.2809090
  49.6575900   2.3322440  27.5834470  53.5417510   2.1704560  23.0800850
  53.7368140   3.0688010  23.3468280  52.7547380   1.9391640  23.5733800
  40.3378800  17.8517730  23.5193470  39.8126420  18.2325760  22.8155430
  40.2623380  18.4768500  24.2403180  41.7269270   3.5165330  22.1177160
  42.2562030   2.7295130  21.9885110  42.3597590   4.1956520  22.3512690
  43.9207110   3.2540470  25.1722550  43.2909850   2.5527780  25.3392680
  43.3812250   4.0144600  24.9555710  46.8599060  19.8679700  37.8433160
  47.7866370  19.6323970  37.8869120  46.8449490  20.6951700  37.3619190
  55.0944120  19.4105270  24.8407410  55.2696310  18.7243010  24.1968330
  54.3965690  19.9352320  24.4484080  44.0462670   2.5324450  37.6075040
  43.7646940   3.0358050  36.8435860  44.4282370   1.7346200  37.2417170
  42.9371770  19.8000110  22.3942720  43.6690590  19.5159390  21.8466610
  43.1965440  19.5613390  23.2842100  42.0986560  15.9164840  22.3989050
  41.4695440  16.3849940  22.9474880  42.2134390  15.0714060  22.8335240
  50.6478130   1.9478030  38.1855510  50.5343580   2.2672640  39.0807030
  51.4647870   2.3490540  37.8892790  53.4276620  19.0949560  37.6674200
  54.2201940  18.5998790  37.4600160  53.7209770  19.7739700  38.2749810
  49.5536280   9.9670500   8.5490250  49.4730330   9.0525110   8.2781960
  49.1400700  10.4637570   7.8429960  47.6854320  11.7449520  10.4299520
  46.9096420  11.2649960  10.7198090  48.3367250  11.0655170  10.2555680
  41.7020150  12.0569330  11.3075280  40.8705030  11.8018040  11.7071790
  42.3101130  12.1280100  12.0433200  51.7061750  16.1509710   9.2098650
  51.2443280  15.3796950   9.5385820  52.5187300  16.1775780   9.7151100
  41.6821410  16.0909420  11.5033300  41.9849450  15.2007160  11.3243520
  42.4265000  16.6479640  11.2755550  40.1112100   7.0171220   5.0917670
  39.2228800   7.3587190   4.9897550  40.3953290   6.8171540   4.1998500
  38.0745110   9.6176870  10.9757370  38.6461220   8.8499070  10.9761010
  38.0746650   9.9165630  10.0663980  47.9325060  18.4367720   8.8302640
  47.3136500  18.8925220   8.2597080  48.7876840  18.5919180   8.4292340
  47.1263310  14.4206710  10.4369680  47.0571590  13.4796650  10.2758810
  47.8883170  14.5108120  11.0092250  39.3169980   5.0261230  12.7626300
  39.1372820   4.1286980  13.0429060  38.9150060   5.5733100  13.4373250
  48.1568480   7.2277090  10.6638610  48.5333300   6.3548970  10.5512280
  48.0587990   7.5635790   9.7729050  42.2873490   5.6002720   6.1256050
  42.3940240   6.5006450   6.4324810  41.3765850   5.5520690   5.8350700
  51.9392600   4.7227530   7.5966950  52.7602220   4.2324100   7.6392430
  51.9726680   5.3125190   8.3498790  39.9356650   7.5221730  11.3708640
  40.6166760   7.7860100  11.9896040  39.6204700   6.6822600  11.7046650
  44.1281220   8.5689090  10.4581230  44.6359440   9.0670060  11.0986250
  44.6594460   7.7924290  10.2820590  56.2292150   6.7394280  14.1610580
  55.5244320   7.1275990  13.6425690  56.4950070   7.4344570  14.7631510
  42.4117320   3.2087650  14.7244650  42.4135760   3.7260040  13.9190550
  41.5821630   2.7317830  14.7014580  48.7988410  13.3206960   6.2234550
  48.1805680  13.7856410   5.6597270  49.3111660  14.0134440   6.6404060
  43.6620170  12.8482830  12.9018150  43.3289550  13.4751750  13.5439220
  43.8386850  13.3744710  12.1219820  52.1754080   6.6627910  10.3694490
  51.4709650   6.9512800  10.9497600  52.5366240   7.4728020  10.0094050
  42.0932650   4.9197610  12.7315100  42.4349460   5.7639660  12.4368970
  41.1548460   5.0681350  12.8480440  42.8739270  14.8163630  14.7167330
  43.4913270  15.4914710  14.4351780  42.0132390  15.2251610  14.6254830
  38.1671610  14.0063490   3.5974180  37.7899590  14.4950590   2.8659080
  38.4244680  14.6788770   4.2280710  53.7916860  16.2803040  12.6321970
  53.1080380  16.9502150  12.6238640  54.3311150  16.4783690  11.8666830
  55.2441000   6.1082700  10.7603700  54.2965910   6.1421680  10.8919130
  55.5690990   6.9221650  11.1453060  45.7760540   2.4079880   9.0559690
  46.0835520   1.8526770   8.3395190  44.8461240   2.5424340   8.8732680
  51.3275600  18.1247170  11.3467150  51.3402760  17.7209460  10.4789410
  50.7750820  18.8994460  11.2428580  52.6221020  14.8463390   6.4357320
  52.5117350  13.9037720   6.5606740  52.6189270  15.2079030   7.3220080
  50.7261040  13.0277010  12.6749760  51.1429830  12.8137120  11.8403220
  51.4500860  13.2849800  13.2458380  48.1641300  10.4728710   5.7919810
  47.2370580  10.4066090   6.0208280  48.3166120  11.4108840   5.6775050
  48.1510380   6.7445710   2.7886970  47.2114050   6.9059670   2.8739430
  48.4693640   7.4631390   2.2422960  54.6723140  11.4264230  12.7666000
  53.8441770  11.4957320  12.2916130  55.2673620  12.0118540  12.2981830
  52.1938590  12.0349010   6.2955060  51.5751010  11.6968560   5.6481360
  52.1763040  11.3908770   7.0034250  51.6365150   8.2133550  13.7120870
  51.2236330   9.0387260  13.9660860  50.9041100   7.6278590  13.5197230
  43.7697940  10.9993450   8.5739540  43.3654940  10.2870700   8.0785440
  43.8561060  10.6546690   9.4627580  44.2379640  14.6861010  10.7378750
  43.9407930  14.0806480  10.0586530  45.1879460  14.7238320  10.6268110
  42.4826560   7.7736660  12.3538580  43.0341150   7.8832000  11.5791830
  42.9970070   8.1474260  13.0693810  52.3265250  18.2592880  14.4001850
  51.8495810  19.0665070  14.2074460  51.6427040  17.6071210  14.5528060
  43.3298070  14.4242700  17.3886550  42.4326600  14.6482670  17.6359950
  43.3550940  14.5477640  16.4397950  50.3703290  11.2735820   3.3027810
  50.8096570  10.4358250   3.1565630  51.0831710  11.9065220   3.3891950
  42.1569290  11.2956020  15.9643920  42.0177060  12.1678820  16.3331320
  41.2750650  10.9528830  15.8191860  48.4798670  16.2131890   7.2709050
  48.9194580  16.9556220   6.8564440  48.4185560  16.4558460   8.1948010
  43.9549640  17.2377720  18.1729070  43.9265070  17.6420670  17.3057500
  43.7914610  16.3088080  18.0100670  40.4702570   9.8938430   6.0746190
  40.3500170  10.6200520   5.4627460  40.1603460   9.1241340   5.5974100
  55.9064460  18.0204820  19.4693240  56.3824180  18.4987710  20.1482320
  56.5271620  17.9522310  18.7438740  38.1087940  13.0653570  11.8814830
  38.1868360  13.2002340  10.9370550  38.7229620  12.3569460  12.0742950
  39.3535570  14.7653760   8.2921010  38.9463650  14.9068350   7.4374610
  40.2448580  14.4813920   8.0892220  55.3097710  15.2117670  16.6293250
  55.4360770  14.9729550  15.7110430  55.3519090  14.3802210  17.1015330
  49.1714450  18.9145670  15.1988060  49.6859120  18.8253680  16.0010490
  48.3283530  19.2605370  15.4915970  51.1468850  19.2001010   4.6272060
  50.9869990  18.9103950   5.5253890  50.9815560  18.4241140   4.0917290
  43.6257230  18.9799540   6.4043680  43.4499710  18.0635080   6.1911480
  42.7712970  19.3386830   6.6441480  50.8494980  16.7088570   3.1870060
  50.1560140  16.7065860   2.5272340  51.5917840  16.2847890   2.7564230
  50.4144910  18.3351280   7.2618550  50.8701860  17.5540660   7.5757170
  50.7537430  19.0458100   7.8059730  55.1621720   7.2650130  17.5942990
  54.5465990   7.7729800  17.0658450  54.8418140   6.3648460  17.5368930
  38.1647460  14.1067740  14.4209290  38.3278500  13.6373100  13.6028660
  38.6299910  13.5991300  15.0858130  42.9366230   3.2373500   9.4569860
  42.4934380   4.0183040   9.1254380  43.4951220   3.5603390  10.1640800
  47.2236040   6.1042020  15.0605180  46.7615410   6.3125040  15.8725120
  46.8214150   5.2901370  14.7575850  52.2240550   7.3250970  16.1901840
  51.3734140   7.0256720  16.5110910  52.0642340   7.5692980  15.2785660
  49.3190260   8.8252720  18.2900630  49.6443670   7.9916470  17.9502860
  50.1070590   9.3481240  18.4378960  46.0525050   2.8584200   4.3375690
  45.4279230   2.8544070   5.0629000  45.9655170   1.9915160   3.9411660
  44.9742130   3.7820830  11.3159460  45.2714460   4.6883660  11.2351480
  45.5227690   3.2939610  10.7019030  42.7280450   8.3607070   7.1851110
  42.5021370   8.1444240   8.0897730  41.9472980   8.7935530   6.8397080
  49.9578210   8.3670440   5.7841760  49.3587100   9.0906240   5.6005380
  50.5057820   8.3047220   5.0018210  45.1679660   9.2592650  17.8511380
  45.0723260   8.3187380  17.7011780  46.0111640   9.4807720  17.4559450
  48.5643080   7.0033980   7.8145040  48.9572650   7.3206180   7.0013730
  48.9259930   6.1245860   7.9289560  40.2990200   5.6706320  16.0045160
  39.9053590   6.5181530  16.2117940  39.6108600   5.0332690  16.1953800
  46.8735250   5.7541290  19.0741900  46.1833570   5.5613490  19.7087990
  47.6167550   6.0375930  19.6066200  37.6007250   3.5934780  10.0375240
  37.3120300   4.1637640  10.7500220  38.3453010   3.1139230  10.4006470
  49.1498220   9.5939730  11.9095820  48.4179340  10.1026540  12.2585920
  48.7522560   8.7769710  11.6084600  45.5875610   6.2693930  10.3148310
  45.5911670   5.8283880   9.4652850  46.4826730   6.5911260  10.4220130
  41.4377990   6.1520420   9.2742520  41.0978040   6.6295650  10.0309570
  40.6755310   5.6985540   8.9143620  45.6495760   7.2706010   3.3055070
  45.7708580   7.2292490   4.2540890  45.2644270   8.1330160   3.1501800
  49.6124130   5.0473410  11.3218760  49.6296870   5.4982060  12.1660610
  49.3639710   4.1479050  11.5352200  44.6617260   9.5807150   2.7038370
  44.0934160   9.1325400   2.0774280  45.3706260   9.9399930   2.1703520
  53.0394880   2.4605590  17.1605140  53.3640650   1.7295250  17.6863120
  53.0751390   2.1419230  16.2586130  39.7386440  13.4819170  16.5805100
  39.3541230  12.8412840  17.1788060  40.0498630  14.1855290  17.1499830
  45.8883580  10.3295710  12.0613720  46.2553710   9.8554280  12.8075060
  45.6988640  11.2037280  12.4022060  38.7524070   5.0739400   8.1907190
  38.4670990   4.7095070   9.0285810  38.6902930   4.3419860   7.5770330
  43.6782950   9.3704350  14.3797930  43.3740020  10.2496330  14.6048290
  44.6329410   9.4304140  14.4155370  42.2064740  13.5765340   4.9764780
  41.4327000  13.0362960   4.8163500  42.9359370  13.0571950   4.6382540
  52.9652720  12.5730700  10.7691170  53.6851840  13.0685990  10.3787280
  52.7634540  11.8948590  10.1245040  48.4262660   3.9668660   4.9120560
  47.6127270   3.4681830   4.8365870  48.2324610   4.8066910   4.4956910
  48.3471520  12.6439760  16.6560170  48.2808830  11.7235430  16.4017760
  47.7176660  12.7415200  17.3704810  51.1411050   8.3388310   3.2082720
  52.0290670   8.6505540   3.0334060  51.1116140   7.4660560   2.8163300
  42.2502140  13.2445720   8.6143590  42.7680810  12.4413980   8.5600480
  41.7986160  13.1824860   9.4560420  47.1371640  14.5112000   3.8870890
  47.4787340  15.2554230   3.3914210  46.3084350  14.8243120   4.2495720
  39.7346680  10.2107090  15.5269290  39.3761620  10.8760940  16.1142630
  39.4401240   9.3790640  15.8981910  42.9359800  10.6691330  18.4108840
  42.6359940  10.8148510  17.5136660  43.7071040  10.1096620  18.3182230
  48.2788250  15.4660330  16.4063970  48.2932790  14.5341290  16.1882880
  47.5713350  15.5520090  17.0453740  53.4125320   9.6500150   2.6762580
  53.3289040  10.0814370   1.8259020  54.1319510  10.1098500   3.1089400
  54.4899460  12.1067670  15.7532550  53.7647650  12.6996450  15.5561940
  55.0174920  12.0991210  14.9545920  54.4412570  16.5042410   5.4044710
  53.7988730  15.8498030   5.6788430  54.0543230  16.9097500   4.6285380
  50.0199050  13.8327840   9.2516400  50.3722870  13.2355970   8.5917770
  49.1361380  13.5072070   9.4224650  46.1062330  14.5925530   6.6586810
  46.7933460  15.1394740   7.0394400  45.3194750  15.1366260   6.6936420
  38.2454730  10.2098350   2.1503890  39.1149580  10.4923150   2.4339810
  37.7545050  11.0234220   2.0352700  45.4089540  11.5971560   6.2712170
  45.8652320  12.4076810   6.4972360  45.0577750  11.2794700   7.1030660
  47.7122150  17.1077900  13.5004470  48.3564370  17.3137280  14.1777890
  48.0751590  16.3466300  13.0475320  41.3101320   1.9409210   6.7434690
  41.1815950   1.9327110   7.6919610  40.4863340   2.2792300   6.3925700
  48.9854230  15.1110250  12.2181920  49.6276460  14.4103410  12.3314090
  49.5103580  15.8908690  12.0378810  50.7591850  15.9105150  15.4217980
  51.0948090  16.4971840  16.0995900  49.8392190  15.7797860  15.6515770
  38.6125980  19.4225730   2.7165520  38.9723620  20.0215070   2.0622790
  38.4718320  19.9685620   3.4900550  38.3095250   3.7000330  16.2041390
  37.5953770   3.8997250  16.8094000  38.7290290   2.9239900  16.5756190
  52.4126200  13.3130810   3.6035220  52.1247900  13.7743500   4.3913100
  53.2078370  12.8528580   3.8719440  38.5967840  17.6880590  17.1907920
  38.7058960  16.7475330  17.0503310  37.9448400  17.9535340  16.5421650
  46.5880430  15.9596480  18.5906040  46.2677300  15.2405720  19.1351730
  45.9138790  16.6351550  18.6642100  44.6294600  16.8056930   3.5339190
  44.6204700  17.5386620   2.9183700  43.7092960  16.5588510   3.6266150
  40.2301240  12.0271820   4.2785950  39.6229190  12.7670720   4.2881250
  40.7050590  12.1171180   3.4524150  49.8034030   6.1922640  13.9542840
  50.1714850   5.3717850  14.2822410  48.9432230   6.2524530  14.3698490
  53.1696060   5.1479580   4.7630400  52.5409220   5.2525250   4.0488630
  52.6747980   5.3676360   5.5524280  45.1380090   7.4265530   6.1788280
  44.4296240   7.8951870   6.6201890  45.4224570   6.7687540   6.8133470
  46.7636020   8.8462230  14.1780810  47.2621270   9.3208050  14.8432660
  46.9058970   7.9225750  14.3850840  49.1695520   4.1516190   7.6184070
  49.0463300   4.1702320   6.6693580  50.1180080   4.1995130   7.7382470
  46.2572310  19.3871490   6.8912050  46.5113810  19.3492880   5.9691420
  45.3084790  19.2604820   6.8840300  43.3415110   5.7350610   3.5538990
  44.1905640   6.1720760   3.4879180  42.9746380   6.0470870   4.3811050
  53.9702880   5.0630190  15.0209200  53.4676480   5.8035590  15.3603010
  54.7859540   5.4514190  14.7045990  52.2624890  10.3063370   8.4670560
  51.3215030  10.3213600   8.6418250  52.5768960   9.5199330   8.9130860
  40.9353290   9.4208040   2.7107410  41.0156880   8.4735550   2.8224810
  41.8273040   9.7514920   2.8168070  54.2650470  17.4772220  10.1424820
  54.3897890  18.3003390  10.6148630  55.1316030  17.2662950   9.7948970
  41.7368000  19.5703430   9.8141950  42.4730480  19.0218890  10.0850520
  42.1208920  20.4359440   9.6747940  38.6213480  15.6377000   5.6883460
  37.6953260  15.8798140   5.6788870  39.0869910  16.4651260   5.5668210
  40.7426280  18.7549500  19.0027530  41.5439010  19.0761550  19.4162930
  40.2278100  18.3945080  19.7247440  49.5790910  14.8629370  18.9502940
  48.9729070  14.8860970  18.2098690  49.2745020  14.1312410  19.4870190
  51.0091280  18.5909660  17.5612350  51.9613030  18.5067680  17.5112590
  50.8619500  19.2551370  18.2346140  53.9000480  17.9703870   3.0604260
  53.6141990  17.5569010   2.2458440  53.7020030  18.8991580   2.9404780
  38.4624090  11.2422960  17.9463580  38.9663110  10.6630240  18.5179810
  37.7231510  11.5263190  18.4839950  45.5162030  12.6493950  17.4799100
  44.7507700  13.2178950  17.3953770  45.6977990  12.3570160  16.5867330
  48.6050440  13.0257180   2.1051860  48.0560540  13.4726480   2.7494600
  49.2269700  12.5206430   2.6289530  52.6585380  14.3799280  18.0374120
  53.3994850  14.7175040  17.5341580  51.8958060  14.5491340  17.4843890
  40.4947170   9.3852550  18.8413650  40.5352510   9.0866420  19.7498880
  41.3492670   9.7860160  18.6821170  44.2725560  11.9848100   4.0017160
  44.6941980  11.8187970   4.8448550  44.3976400  11.1748330   3.5072300
  42.4352980   7.9644650  16.8088140  41.9049440   7.4735600  16.1811480
  43.1041050   8.3928850  16.2746070  51.3331040  12.4314110  16.5729330
  51.7472060  12.5859190  17.4219750  50.3982040  12.5569330  16.7355110
  51.8053210   9.7710270  18.5768480  52.3873980   9.0162590  18.4888960
  51.9814980  10.3017710  17.7999960  42.9225280   4.9307020  16.8885430
  42.8282150   4.3127770  16.1636300  42.3422670   5.6573310  16.6615340
  45.6886720   3.4880260  13.9212820  45.2404020   3.5104520  13.0758370
  45.0551920   3.0899280  14.5183120  46.0946270  12.3834590  14.5425260
  46.5134380  13.2267320  14.3701500  45.1754900  12.5206630  14.3132040
  48.4310170  10.1150770  15.9263100  48.5506380   9.5191910  16.6657940
  49.2904170  10.1520460  15.5064400  50.7698070  10.6687960  14.5025610
  50.2433290  11.1930580  13.8990750  51.1129410  11.3015350  15.1335340
  43.9453690  18.6887600  15.6582990  43.4074780  19.4133660  15.3391690
  44.1987650  18.2117940  14.8680330  45.1978940   6.6572120  17.1838920
  45.7878630   6.3487970  17.8716740  44.3799180   6.1851870  17.3398820
  50.0172370   6.2737930  17.4171940  49.3287890   5.6119470  17.3521930
  50.7378390   5.8276200  17.8620400  50.6472770   2.8689560   3.4762200
  50.9275060   2.0257460   3.8321620  49.8738500   3.1012670   3.9900950
  46.8015900  19.9238810  15.9169640  46.7274600  20.8273950  16.2242010
  45.8994740  19.6050710  15.8891710  47.3501230  19.0897320   3.5396000
  48.2452020  19.4282290   3.5614760  47.3818860  18.3676730   2.9120280
  40.9897390  14.4624370   1.7683000  41.4272260  15.0054040   2.4240580
  41.4745120  13.6371320   1.7779340  38.2043190  17.2513400   9.2203260
  38.5346200  16.3834460   8.9881900  38.6334190  17.4571920  10.0508220
  42.8005110  15.5822410   6.8805230  42.5000650  15.4587380   7.7809140
  42.6942600  14.7231000   6.4720960  38.6933400  18.1183990  11.9584890
  38.2564390  18.2984790  12.7909040  39.2611080  18.8758610  11.8166610
  54.3295580  17.6200990  16.2462200  53.7297570  17.6793550  15.5026120
  54.4589480  16.6805970  16.3759050  55.0253490  12.1066290   4.0866110
  55.7872400  12.6762940   4.1925800  55.0407860  11.5393490   4.8574420
  38.5257830  10.6304220   8.3173770  37.8706670  10.3615860   7.6733470
  39.3635780  10.5208700   7.8675750  56.0313460  12.9616390   8.9308040
  56.4022290  12.1783710   8.5244010  56.6715390  13.6505490   8.7525340
  53.0147220  14.3452970  14.3438360  52.2007060  14.7750130  14.6064150
  53.4221420  14.9571380  13.7307410  51.4748270   5.4245510   2.5392260
  51.8933150   5.2376490   1.6988920  51.1684330   4.5724560   2.8495190
  54.9738000  10.3369650   6.2368060  54.5981600   9.5697580   5.8049350
  54.2441120  10.7192350   6.7242990  39.5633760  11.0156790  12.8577110
  39.9306800  10.9284190  13.7373130  38.9944580  10.2523340  12.7583970
  54.3637620   9.4841170  15.8707580  54.1323710   9.2553920  14.9705530
  54.6242170  10.4040720  15.8252470  39.1149760   7.9265880  16.7635530
  38.2205810   7.8932640  17.1029240  39.6547310   8.1252670  17.5286780
  52.8025690   4.7097600  18.6487280  53.6795870   4.7181000  19.0321280
  52.8146530   3.9728440  18.0379630  37.7395910   7.8403150   4.2599100
  36.8359990   8.1033350   4.0850760  38.2236530   8.1114320   3.4799060
  54.2488960   8.5627140   9.5375300  54.7726440   8.0689790   8.9065470
  54.8348380   8.6977500  10.2822870  54.4278680   8.6467010  13.0594850
  53.4781390   8.6130550  13.1739840  54.6091690   9.5567120  12.8244620
  53.7388930   7.8200490   5.4767710  54.2348050   7.5871360   6.2616590
  53.5405000   6.9812330   5.0605350  39.6189470   2.2014210  11.1118750
  40.2665660   1.6511590  10.6713910  40.0391310   2.4557360  11.9334560
  55.1676090   6.4561440   8.0105390  55.0575370   6.3017480   8.9487660
  55.9283680   5.9282380   7.7680800  53.5141810   2.3955570  14.4688390
  54.1514030   3.0089710  14.8347580  53.6616700   2.4316230  13.5237620
  56.1304850   5.0580020   3.8768240  55.3356350   4.9925140   4.4061150
  56.3348130   5.9930660   3.8653590  53.0723270  19.0971570   7.8706630
  53.6682340  18.7756140   7.1941050  53.3301420  18.6243390   8.6619900
  39.3721470   2.3569880  13.8544070  39.0236290   2.8133700  14.6202250
  39.0409170   1.4627010  13.9366500  40.9785840  15.5289480  18.0197260
  40.9355470  15.1582390  18.9011720  41.1096850  16.4667050  18.1599080
  44.6791870  17.0849070  13.6206980  44.4383230  17.3523630  12.7337500
  45.6194510  17.2554800  13.6757840  46.8846290   3.5481760  17.3763490
  46.8235180   4.1403590  18.1258900  47.8246670   3.4407720  17.2313750
  49.5220850   3.2051820  17.0155780  50.1361260   3.5231110  16.3536860
  50.0670410   2.7200410  17.6351640  55.9396030  19.1043450  14.4217620
  55.4454310  19.5012320  13.7044750  55.3309320  18.4792660  14.8154900
  40.8173870  18.4751730  15.1395040  40.2234190  18.3436430  15.8785080
  40.8097710  17.6389870  14.6737140  51.1700870   3.9754830  14.7266790
  50.8414230   3.1606590  14.3468520  52.1183170   3.9324640  14.6032480
  53.6235480  19.7466870  11.7004360  53.1638450  20.4982680  11.3262380
  52.9947940  19.0273340  11.6419160  40.4486100  15.8410110  14.0903080
  39.7220160  15.2215400  14.0229030  40.5095250  16.2350720  13.2201160
  44.0531200  18.0555110  10.8752490  44.5696220  17.4442470  10.3500750
  44.7028580  18.5583890  11.3663500  46.7926700  18.9463600  11.7021470
  47.0804510  18.6917900  10.8254480  47.3049920  18.3940960  12.2927040
  48.0103710   2.6853800  12.2817980  47.2275500   3.1599300  12.5614740
  47.7166640   1.7808630  12.1731160  52.5624780   3.3876900  10.3267070
  53.0032870   3.3322000   9.4788670  52.2932370   4.3034910  10.3977250
  54.4263350   3.0192140   8.3375890  54.3651750   2.0753360   8.1906910
  55.2055380   3.1272230   8.8829350  38.7316100  19.1584500   7.2999840
  38.5638140  18.5255180   7.9981730  37.8650610  19.3643900   6.9494030
  39.3544120   2.9901280   4.8031700  40.1123480   3.1030160   4.2295730
  38.8921290   3.8270480   4.7575130  45.8957930   5.1040550   7.7934010
  45.0832440   4.7297440   7.4529890  46.3999570   4.3485630   8.0955200
  50.3982910   1.7683000   9.0317080  51.0012280   2.3403210   9.5065600
  49.6575900   2.3322440   8.8090980  53.5417510   2.1704560   4.3057360
  53.7368140   3.0688010   4.5724790  52.7547380   1.9391640   4.7990310
  40.3378800  17.8517730   4.7449980  39.8126420  18.2325760   4.0411940
  40.2623380  18.4768500   5.4659690  41.7269270   3.5165330   3.3433670
  42.2562030   2.7295130   3.2141620  42.3597590   4.1956520   3.5769200
  43.9207110   3.2540470   6.3979060  43.2909850   2.5527780   6.5649190
  43.3812250   4.0144600   6.1812220  46.8599060  19.8679700  19.0689670
  47.7866370  19.6323970  19.1125630  46.8449490  20.6951700  18.5875700
  55.0944120  19.4105270   6.0663920  55.2696310  18.7243010   5.4224840
  54.3965690  19.9352320   5.6740590  44.0462670   2.5324450  18.8331550
  43.7646940   3.0358050  18.0692370  44.4282370   1.7346200  18.4673680
  42.9371770  19.8000110   3.6199230  43.6690590  19.5159390   3.0723120
  43.1965440  19.5613390   4.5098610  42.0986560  15.9164840   3.6245560
  41.4695440  16.3849940   4.1731390  42.2134390  15.0714060   4.0591750
  50.6478130   1.9478030  19.4112020  50.5343580   2.2672640  20.3063540
  51.4647870   2.3490540  19.1149300  53.4276620  19.0949560  18.8930710
  54.2201940  18.5998790  18.6856670  53.7209770  19.7739700  19.5006320
  30.7792790 141.3874930 139.9694680  30.6986840 140.4729540 139.6986390
  30.3657210 141.8842000 139.2634390  28.9110830 143.1653950 141.8503950
  28.1352930 142.6854390 142.1402520  29.5623760 142.4859600 141.6760110
  22.9276660 143.4773760 142.7279710  22.0961540 143.2222470 143.1276220
  23.5357640 143.5484530 143.4637630  32.9318260 147.5714140 140.6303080
  32.4699790 146.8001380 140.9590250  33.7443810 147.5980210 141.1355530
  22.9077920 147.5113850 142.9237730  23.2105960 146.6211590 142.7447950
  23.6521510 148.0684070 142.6959980  21.3368610 138.4375650 136.5122100
  20.4485310 138.7791620 136.4101980  21.6209800 138.2375970 135.6202930
  19.3001620 141.0381300 142.3961800  19.8717730 140.2703500 142.3965440
  19.3003160 141.3370060 141.4868410  29.1581570 149.8572150 140.2507070
  28.5393010 150.3129650 139.6801510  30.0133350 150.0123610 139.8496770
  28.3519820 145.8411140 141.8574110  28.2828100 144.9001080 141.6963240
  29.1139680 145.9312550 142.4296680  20.5426490 136.4465660 144.1830730
  20.3629330 135.5491410 144.4633490  20.1406570 136.9937530 144.8577680
  29.3824990 138.6481520 142.0843040  29.7589810 137.7753400 141.9716710
  29.2844500 138.9840220 141.1933480  23.5130000 137.0207150 137.5460480
  23.6196750 137.9210880 137.8529240  22.6022360 136.9725120 137.2555130
  33.1649110 136.1431960 139.0171380  33.9858730 135.6528530 139.0596860
  33.1983190 136.7329620 139.7703220  21.1613160 138.9426160 142.7913070
  21.8423270 139.2064530 143.4100470  20.8461210 138.1027030 143.1251080
  25.3537730 139.9893520 141.8785660  25.8615950 140.4874490 142.5190680
  25.8850970 139.2128720 141.7025020  37.4548660 138.1598710 145.5815010
  36.7500830 138.5480420 145.0630120  37.7206580 138.8549000 146.1835940
  23.6373830 134.6292080 146.1449080  23.6392270 135.1464470 145.3394980
  22.8078140 134.1522260 146.1219010  30.0244920 144.7411390 137.6438980
  29.4062190 145.2060840 137.0801700  30.5368170 145.4338870 138.0608490
  24.8876680 144.2687260 144.3222580  24.5546060 144.8956180 144.9643650
  25.0643360 144.7949140 143.5424250  33.4010590 138.0832340 141.7898920
  32.6966160 138.3717230 142.3702030  33.7622750 138.8932450 141.4298480
  23.3189160 136.3402040 144.1519530  23.6605970 137.1844090 143.8573400
  22.3804970 136.4885780 144.2684870  24.0995780 146.2368060 146.1371760
  24.7169780 146.9119140 145.8556210  23.2388900 146.6456040 146.0459260
  19.3928120 145.4267920 135.0178610  19.0156100 145.9155020 134.2863510
  19.6501190 146.0993200 135.6485140  35.0173370 147.7007470 144.0526400
  34.3336890 148.3706580 144.0443070  35.5567660 147.8988120 143.2871260
  36.4697510 137.5287130 142.1808130  35.5222420 137.5626110 142.3123560
  36.7947500 138.3426080 142.5657490  27.0017050 133.8284310 140.4764120
  27.3092030 133.2731200 139.7599620  26.0717750 133.9628770 140.2937110
  32.5532110 149.5451600 142.7671580  32.5659270 149.1413890 141.8993840
  32.0007330 150.3198890 142.6633010  33.8477530 146.2667820 137.8561750
  33.7373860 145.3242150 137.9811170  33.8445780 146.6283460 138.7424510
  31.9517550 144.4481440 144.0954190  32.3686340 144.2341550 143.2607650
  32.6757370 144.7054230 144.6662810  29.3897810 141.8933140 137.2124240
  28.4627090 141.8270520 137.4412710  29.5422630 142.8313270 137.0979480
  29.3766890 138.1650140 134.2091400  28.4370560 138.3264100 134.2943860
  29.6950150 138.8835820 133.6627390  35.8979650 142.8468660 144.1870430
  35.0698280 142.9161750 143.7120560  36.4930130 143.4322970 143.7186260
  33.4195100 143.4553440 137.7159490  32.8007520 143.1172990 137.0685790
  33.4019550 142.8113200 138.4238680  32.8621660 139.6337980 145.1325300
  32.4492840 140.4591690 145.3865290  32.1297610 139.0483020 144.9401660
  24.9954450 142.4197880 139.9943970  24.5911450 141.7075130 139.4989870
  25.0817570 142.0751120 140.8832010  25.4636150 146.1065440 142.1583180
  25.1664440 145.5010910 141.4790960  26.4135970 146.1442750 142.0472540
  23.7083070 139.1941090 143.7743010  24.2597660 139.3036430 142.9996260
  24.2226580 139.5678690 144.4898240  33.5521760 149.6797310 145.8206280
  33.0752320 150.4869500 145.6278890  32.8683550 149.0275640 145.9732490
  24.5554580 145.8447130 148.8090980  23.6583110 146.0687100 149.0564380
  24.5807450 145.9682070 147.8602380  31.5959800 142.6940250 134.7232240
  32.0353080 141.8562680 134.5770060  32.3088220 143.3269650 134.8096380
  23.3825800 142.7160450 147.3848350  23.2433570 143.5883250 147.7535750
  22.5007160 142.3733260 147.2396290  29.7055180 147.6336320 138.6913480
  30.1451090 148.3760650 138.2768870  29.6442070 147.8762890 139.6152440
  25.1806150 148.6582150 149.5933500  25.1521580 149.0625100 148.7261930
  25.0171120 147.7292510 149.4305100  35.1776940 133.9483060 133.0373280
  34.8649600 134.0409890 133.9372350  35.9389410 134.5264090 132.9870710
  21.6959080 141.3142860 137.4950620  21.5756680 142.0404950 136.8831890
  21.3859970 140.5445770 137.0178530  19.3344450 144.4858000 143.3019260
  19.4124870 144.6206770 142.3574980  19.9486130 143.7773890 143.4947380
  20.5792080 146.1858190 139.7125440  20.1720160 146.3272780 138.8579040
  21.4705090 145.9018350 139.5096650  36.5354220 146.6322100 148.0497680
  36.6617280 146.3933980 147.1314860  36.5775600 145.8006640 148.5219760
  30.3970960 150.3350100 146.6192490  30.9115630 150.2458110 147.4214920
  29.5540040 150.6809800 146.9120400  32.3725360 150.6205440 136.0476490
  32.2126500 150.3308380 136.9458320  32.2072070 149.8445570 135.5121720
  24.8513740 150.4003970 137.8248110  24.6756220 149.4839510 137.6115910
  23.9969480 150.7591260 138.0645910  32.0751490 148.1293000 134.6074490
  31.3816650 148.1270290 133.9476770  32.8174350 147.7052320 134.1768660
  31.6401420 149.7555710 138.6822980  32.0958370 148.9745090 138.9961600
  31.9793940 150.4662530 139.2264160  36.3878230 138.6854560 149.0147420
  35.7722500 139.1934230 148.4862880  36.0674650 137.7852890 148.9573360
  19.3903970 145.5272170 145.8413720  19.5535010 145.0577530 145.0233090
  19.8556420 145.0195730 146.5062560  24.1622740 134.6577930 140.8774290
  23.7190890 135.4387470 140.5458810  24.7207730 134.9807820 141.5845230
  28.4492550 137.5246450 146.4809610  27.9871920 137.7329470 147.2929550
  28.0470660 136.7105800 146.1780280  33.4497060 138.7455400 147.6106270
  32.5990650 138.4461150 147.9315340  33.2898850 138.9897410 146.6990090
  30.5446770 140.2457150 149.7105060  30.8700180 139.4120900 149.3707290
  31.3327100 140.7685670 149.8583390  27.2781560 134.2788630 135.7580120
  26.6535740 134.2748500 136.4833430  27.1911680 133.4119590 135.3616090
  26.1998640 135.2025260 142.7363890  26.4970970 136.1088090 142.6555910
  26.7484200 134.7144040 142.1223460  23.9536960 139.7811500 138.6055540
  23.7277880 139.5648670 139.5102160  23.1729490 140.2139960 138.2601510
  31.1834720 139.7874870 137.2046190  30.5843610 140.5110670 137.0209810
  31.7314330 139.7251650 136.4222640  26.3936170 140.6797080 149.2715810
  26.2979770 139.7391810 149.1216210  27.2368150 140.9012150 148.8763880
  29.7899590 138.4238410 139.2349470  30.1829160 138.7410610 138.4218160
  30.1516440 137.5450290 139.3493990  21.5246710 137.0910750 147.4249590
  21.1310100 137.9385960 147.6322370  20.8365110 136.4537120 147.6158230
  18.8263760 135.0139210 141.4579670  18.5376810 135.5842070 142.1704650
  19.5709520 134.5343660 141.8210900  19.0133990 138.9559330 132.6682390
  18.9308660 139.8990090 132.8097380  18.6617050 138.8134240 131.7894740
  30.3754730 141.0144160 143.3300250  29.6435850 141.5230970 143.6790350
  29.9779070 140.1974140 143.0289030  26.8132120 137.6898360 141.7352740
  26.8168180 137.2488310 140.8857280  27.7083240 138.0115690 141.8424560
  22.6634500 137.5724850 140.6946950  22.3234550 138.0500080 141.4514000
  21.9011820 137.1189970 140.3348050  26.8752270 138.6910440 134.7259500
  26.9965090 138.6496920 135.6745320  26.4900780 139.5534590 134.5706230
  30.8380640 136.4677840 142.7423190  30.8553380 136.9186490 143.5865040
  30.5896220 135.5683480 142.9556630  25.8873770 141.0011580 134.1242800
  25.3190670 140.5529830 133.4978710  26.5962770 141.3604360 133.5907950
  34.2651390 133.8810020 148.5809570  34.5897160 133.1499680 149.1067550
  34.3007900 133.5623660 147.6790560  20.9642950 144.9023600 148.0009530
  20.5797740 144.2617270 148.5992490  21.2755140 145.6059720 148.5704260
  27.1140090 141.7500140 143.4818150  27.4810220 141.2758710 144.2279490
  26.9245150 142.6241710 143.8226490  19.9780580 136.4943830 139.6111620
  19.6927500 136.1299500 140.4490240  19.9159440 135.7624290 138.9974760
  24.9039460 140.7908780 145.8002360  24.5996530 141.6700760 146.0252720
  25.8585920 140.8508570 145.8359800  23.4321250 144.9969770 136.3969210
  22.6583510 144.4567390 136.2367930  24.1615880 144.4776380 136.0586970
  34.1909230 143.9935130 142.1895600  34.9108350 144.4890420 141.7991710
  33.9891050 143.3153020 141.5449470  29.6519170 135.3873090 136.3324990
  28.8383780 134.8886260 136.2570300  29.4581120 136.2271340 135.9161340
  29.5728030 144.0644190 148.0764600  29.5065340 143.1439860 147.8222190
  28.9433170 144.1619630 148.7909240  32.3667560 139.7592740 134.6287150
  33.2547180 140.0709970 134.4538490  32.3372650 138.8864990 134.2367730
  23.4758650 144.6650150 140.0348020  23.9937320 143.8618410 139.9804910
  23.0242670 144.6029290 140.8764850  28.3628150 145.9316430 135.3075320
  28.7043850 146.6758660 134.8118640  27.5340860 146.2447550 135.6700150
  20.9603190 141.6311520 146.9473720  20.6018130 142.2965370 147.5347060
  20.6657750 140.7995070 147.3186340  24.1616310 142.0895760 149.8313270
  23.8616450 142.2352940 148.9341090  24.9327550 141.5301050 149.7386660
  29.5044760 146.8864760 147.8268400  29.5189300 145.9545720 147.6087310
  28.7969860 146.9724520 148.4658170  34.6381830 141.0704580 134.0967010
  34.5545550 141.5018800 133.2463450  35.3576020 141.5302930 134.5293830
  35.7155970 143.5272100 147.1736980  34.9904160 144.1200880 146.9766370
  36.2431430 143.5195640 146.3750350  35.6669080 147.9246840 136.8249140
  35.0245240 147.2702460 137.0992860  35.2799740 148.3301930 136.0489810
  31.2455560 145.2532270 140.6720830  31.5979380 144.6560400 140.0122200
  30.3617890 144.9276500 140.8429080  27.3318840 146.0129960 138.0791240
  28.0189970 146.5599170 138.4598830  26.5451260 146.5570690 138.1140850
  19.4711240 141.6302780 133.5708320  20.3406090 141.9127580 133.8544240
  18.9801560 142.4438650 133.4557130  26.6346050 143.0175990 137.6916600
  27.0908830 143.8281240 137.9176790  26.2834260 142.6999130 138.5235090
  28.9378660 148.5282330 144.9208900  29.5820880 148.7341710 145.5982320
  29.3008100 147.7670730 144.4679750  22.5357830 133.3613640 138.1639120
  22.4072460 133.3531540 139.1124040  21.7119850 133.6996730 137.8130130
  30.2110740 146.5314680 143.6386350  30.8532970 145.8307840 143.7518520
  30.7360090 147.3113120 143.4583240  34.0566460 146.8163300 133.3625490
  33.8304040 146.0993740 133.9550130  33.6662660 146.5675740 132.5247240
  31.9848360 147.3309580 146.8422410  32.3204600 147.9176270 147.5200330
  31.0648700 147.2002290 147.0720200  19.8382490 150.8430160 134.1369950
  20.1980130 151.4419500 133.4827220  19.6974830 151.3890050 134.9104980
  19.5351760 135.1204760 147.6245820  18.8210280 135.3201680 148.2298430
  19.9546800 134.3444330 147.9960620  33.6382710 144.7335240 135.0239650
  33.3504410 145.1947930 135.8117530  34.4334880 144.2733010 135.2923870
  19.8224350 149.1085020 148.6112350  19.9315470 148.1679760 148.4707740
  19.1704910 149.3739770 147.9626080  25.8551110 148.2261360 134.9543620
  25.8461210 148.9591050 134.3388130  24.9349470 147.9792940 135.0470580
  21.4557750 143.4476250 135.6990380  20.8485700 144.1875150 135.7085680
  21.9307100 143.5375610 134.8728580  31.0290540 137.6127070 145.3747270
  31.3971360 136.7922280 145.7026840  30.1688740 137.6728960 145.7902920
  34.3952570 136.5684010 136.1834830  33.7665730 136.6729680 135.4693060
  33.9004490 136.7880790 136.9728710  28.8410710 148.2889600 133.6168810
  28.9422690 148.0853590 132.6870790  27.9412450 148.0347880 133.8216590
  26.3636600 138.8469960 137.5992710  25.6552750 139.3156300 138.0406320
  26.6481080 138.1891970 138.2337900  27.9892530 140.2666660 145.5985240
  28.4877780 140.7412480 146.2637090  28.1315480 139.3430180 145.8055270
  30.3952030 135.5720620 139.0388500  30.2719810 135.5906750 138.0898010
  31.3436590 135.6199560 139.1586900  27.4828820 150.8075920 138.3116480
  27.7370320 150.7697310 137.3895850  26.5341300 150.6809250 138.3044730
  24.5671620 137.1555040 134.9743420  25.4162150 137.5925190 134.9083610
  24.2002890 137.4675300 135.8015480  35.1959390 136.4834620 146.4413630
  34.6932990 137.2240020 146.7807440  36.0116050 136.8718620 146.1250420
  33.4881400 141.7267800 139.8874990  32.5471540 141.7418030 140.0622680
  33.8025470 140.9403760 140.3335290  23.4663040 143.4087400 133.4478950
  24.2326310 143.2968760 134.0104380  23.5437730 142.7125370 132.7955720
  22.1609800 140.8412470 134.1311840  22.2413390 139.8939980 134.2429240
  23.0529550 141.1719350 134.2372500  35.4906980 148.8976650 141.5629250
  35.6154400 149.7207820 142.0353060  36.3572540 148.6867380 141.2153400
  19.8469990 147.0581430 137.1087890  18.9209770 147.3002570 137.0993300
  20.3126420 147.8855690 136.9872640  26.0726820 150.1638170 133.0571950
  26.8655430 150.4527000 132.6053740  25.5531170 149.7330340 132.3784430
  32.2347790 150.0114090 148.9816780  33.1869540 149.9272110 148.9317020
  32.0876010 150.6755800 149.6550570  35.1256990 149.3908300 134.4808690
  34.8398500 148.9773440 133.6662870  34.9276540 150.3196010 134.3609210
  19.6880600 142.6627390 149.3668010  20.1919620 142.0834670 149.9384240
  18.9488020 142.9467620 149.9044380  26.5904220 145.3841580 132.9214300
  26.4854860 144.7693930 133.6475680  26.4228440 144.8607470 132.1377310
  26.7418540 144.0698380 148.9003530  25.9764210 144.6383380 148.8158200
  26.9234500 143.7774590 148.0071760  29.8306950 144.4461610 133.5256290
  29.2817050 144.8930910 134.1699030  30.4526210 143.9410860 134.0493960
  33.8841890 145.8003710 149.4578550  34.6251360 146.1379470 148.9546010
  33.1214570 145.9695770 148.9048320  25.4982070 143.4052530 135.4221590
  25.9198490 143.2392400 136.2652980  25.6232910 142.5952760 134.9276730
  23.6609490 139.3849080 148.2292570  23.1305950 138.8940030 147.6015910
  24.3297560 139.8133280 147.6950500  28.0109710 142.4290140 132.6698690
  28.5315370 141.7139160 132.3039840  28.6578110 143.0676010 132.9699200
  32.5587550 143.8518540 147.9933760  32.9728570 144.0063620 148.8424180
  31.6238550 143.9773760 148.1559540  33.0309720 141.1914700 149.9972910
  33.6130490 140.4367020 149.9093390  33.2071490 141.7222140 149.2204390
  24.1481790 136.3511450 148.3089860  24.0538660 135.7332200 147.5840730
  23.5679180 137.0777740 148.0819770  26.9143230 134.9084690 145.3417250
  26.4660530 134.9308950 144.4962800  26.2808430 134.5103710 145.9387550
  27.3202780 143.8039020 145.9629690  27.7390890 144.6471750 145.7905930
  26.4011410 143.9411060 145.7336470  29.6566680 141.5355200 147.3467530
  29.7762890 140.9396340 148.0862370  30.5160680 141.5724890 146.9268830
  31.9954580 142.0892390 145.9230040  31.4689800 142.6135010 145.3195180
  32.3385920 142.7219780 146.5539770  24.3940970 139.4785760 132.3679750
  24.1930030 138.6153120 132.7293090  24.2233020 139.3919120 131.4301350
  25.1710200 150.1092030 147.0787420  24.6331290 150.8338090 146.7596120
  25.4244160 149.6322370 146.2884760  26.4235450 138.0776550 148.6043350
  27.0135140 137.7692400 149.2921170  25.6055690 137.6056300 148.7603250
  31.2428880 137.6942360 148.8376370  30.5544400 137.0323900 148.7726360
  31.9634900 137.2480630 149.2824830  31.8729280 134.2893990 134.8966630
  32.1531570 133.4461890 135.2526050  31.0995010 134.5217100 135.4105380
  23.1923770 136.5786380 132.3557630  23.4949670 136.5853810 131.4476780
  23.9318360 136.2284240 132.8525290  26.4108700 135.5221000 133.3413830
  26.0630700 134.8444990 132.7616280  26.6121470 135.0610510 134.1557220
  28.5757740 150.5101750 134.9600430  29.4708530 150.8486720 134.9819190
  28.6075370 149.7881160 134.3324710  22.2153900 145.8828800 133.1887430
  22.6528770 146.4258470 133.8445010  22.7001630 145.0575750 133.1983770
  19.4299700 148.6717830 140.6407690  19.7602710 147.8038890 140.4086330
  19.8590700 148.8776350 141.4712650  24.0261620 147.0026840 138.3009660
  23.7257160 146.8791810 139.2013570  23.9199110 146.1435430 137.8925390
  19.9189910 149.5388420 143.3789320  19.4820900 149.7189220 144.2113470
  20.4867590 150.2963040 143.2371040  35.5552090 149.0405420 147.6666630
  34.9554080 149.0997980 146.9230550  35.6845990 148.1010400 147.7963480
  36.7953540 146.7823240 133.0036340  35.9646500 146.8499890 133.4743570
  36.9725370 147.6727360 132.7003200  36.2510000 143.5270720 135.5070540
  37.0128910 144.0967370 135.6130230  36.2664370 142.9597920 136.2778850
  19.7514340 142.0508650 139.7378200  19.0963180 141.7820290 139.0937900
  20.5892290 141.9413130 139.2880180  37.2569970 144.3820820 140.3512470
  37.6278800 143.5988140 139.9448440  37.8971900 145.0709920 140.1729770
  34.2403730 145.7657400 145.7642790  33.4263570 146.1954560 146.0268580
  34.6477930 146.3775810 145.1511840  36.3029170 143.8205090 132.6643060
  36.5778010 144.7283970 132.5362280  36.1139910 143.7567620 133.6005050
  32.7004780 136.8449940 133.9596690  33.1189660 136.6580920 133.1193350
  32.3940840 135.9928990 134.2699620  36.1994510 141.7574080 137.6572490
  35.8238110 140.9902010 137.2253780  35.4697630 142.1396780 138.1447420
  20.7890270 142.4361220 144.2781540  21.1563310 142.3488620 145.1577560
  20.2201090 141.6727770 144.1788400  35.5894130 140.9045600 147.2912010
  35.3580220 140.6758350 146.3909960  35.8498680 141.8245150 147.2456900
  20.3406270 139.3470310 148.1839960  19.4462320 139.3137070 148.5233670
  20.8803820 139.5457100 148.9491210  18.9652420 139.2607580 135.6803530
  18.0616500 139.5237780 135.5055190  19.4493040 139.5318750 134.9003490
  35.4745470 139.9831570 140.9579730  35.9982950 139.4894220 140.3269900
  36.0604890 140.1181930 141.7027300  35.6535190 140.0671440 144.4799280
  34.7037900 140.0334980 144.5944270  35.8348200 140.9771550 144.2449050
  21.5079630 138.3173120 133.5897910  22.2171330 137.8956340 133.1045190
  20.7919570 138.3848350 132.9581260  21.1553790 134.3712450 132.6300560
  21.8781920 134.9121390 132.9481780  21.4278310 134.0975870 131.7542100
  34.9645440 139.2404920 136.8972140  35.4604560 139.0075790 137.6821020
  34.7661510 138.4016760 136.4809780  20.8445980 133.6218640 142.5323180
  21.4922170 133.0716020 142.0918340  21.2647820 133.8761790 143.3538990
  36.3932600 137.8765870 139.4309820  36.2831880 137.7221910 140.3692090
  37.1540190 137.3486810 139.1885230  34.7398320 133.8160000 145.8892820
  35.3770540 134.4294140 146.2552010  34.8873210 133.8520660 144.9442050
  37.2822870 135.7073790 132.6715960  38.2072180 135.5754970 132.4634250
  37.2598660 135.7866610 133.6252410  37.3561360 136.4784450 135.2972670
  36.5612860 136.4129570 135.8265580  37.5604640 137.4135090 135.2858020
  34.2979780 150.5176000 139.2911060  34.8938850 150.1960570 138.6145480
  34.5557930 150.0447820 140.0824330  20.5977980 133.7774310 145.2748500
  20.2492800 134.2338130 146.0406680  20.2665680 132.8831440 145.3570930
  25.9048380 148.5053500 145.0411410  25.6639740 148.7728060 144.1541930
  26.8451020 148.6759230 145.0962270  28.1102800 134.9686190 148.7967920
  28.0491690 135.5608020 149.5463330  29.0503180 134.8612150 148.6518180
  30.7477360 134.6256250 148.4360210  31.3617770 134.9435540 147.7741290
  31.2926920 134.1404840 149.0556070  37.1652540 150.5247880 145.8422050
  36.6710820 150.9216750 145.1249180  36.5565830 149.8997090 146.2359330
  21.2698620 133.3050510 148.5499270  21.8181610 133.1238560 147.7865380
  21.3353930 132.5144620 149.0855580  22.0430380 149.8956160 146.5599470
  21.4490700 149.7640860 147.2989510  22.0354220 149.0594300 146.0941570
  31.4885400 133.1888390 144.7629500  30.6145240 133.5223500 144.5602430
  31.3796150 132.7161570 145.5881370  32.3957380 135.3959260 146.1471220
  32.0670740 134.5811020 145.7672950  33.3439680 135.3529070 146.0236910
  21.6742610 147.2614540 145.5107510  20.9476670 146.6419830 145.4433460
  21.7351760 147.6555150 144.6405590  25.2787710 149.4759540 142.2956920
  25.7952730 148.8646900 141.7705180  25.9285090 149.9788320 142.7867930
  28.0183210 150.3668030 143.1225900  28.3061020 150.1122330 142.2458910
  28.5306430 149.8145390 143.7131470  29.2360220 134.1058230 143.7022410
  28.4532010 134.5803730 143.9819170  28.9423150 133.2013060 143.5935590
  33.7881290 134.8081330 141.7471500  34.2289380 134.7526430 140.8993100
  33.5188880 135.7239340 141.8181680  35.6519860 134.4396570 139.7580320
  35.5908260 133.4957790 139.6111340  36.4311890 134.5476660 140.3033780
  19.9572610 150.5788930 138.7204270  19.7894650 149.9459610 139.4186160
  19.0907120 150.7848330 138.3698460  20.5800630 134.4105710 136.2236130
  21.3379990 134.5234590 135.6500160  20.1177800 135.2474910 136.1779560
  27.1214440 136.5244980 139.2138440  26.3088950 136.1501870 138.8734320
  27.6256080 135.7690060 139.5159630  31.6239420 133.1887430 140.4521510
  32.2268790 133.7607640 140.9270030  30.8832410 133.7526870 140.2295410
  34.7674020 133.5908990 135.7261790  34.9624650 134.4892440 135.9929220
  33.9803890 133.3596070 136.2194740  21.5635310 149.2722160 136.1654410
  21.0382930 149.6530190 135.4616370  21.4879890 149.8972930 136.8864120
  22.9525780 134.9369760 134.7638100  23.4818540 134.1499560 134.6346050
  23.5854100 135.6160950 134.9973630  25.1463620 134.6744900 137.8183490
  24.5166360 133.9732210 137.9853620  24.6068760 135.4349030 137.6016650
  36.3200630 150.8309700 137.4868350  36.4952820 150.1447440 136.8429270
  35.6222200 151.3556750 137.0945020  24.1628280 151.2204540 135.0403660
  24.8947100 150.9363820 134.4927550  24.4221950 150.9817820 135.9303040
  23.3243070 147.3369270 135.0449990  22.6951950 147.8054370 135.5935820
  23.4390900 146.4918490 135.4796180  30.7792790 141.3874930 121.1951190
  30.6986840 140.4729540 120.9242900  30.3657210 141.8842000 120.4890900
  28.9110830 143.1653950 123.0760460  28.1352930 142.6854390 123.3659030
  29.5623760 142.4859600 122.9016620  22.9276660 143.4773760 123.9536220
  22.0961540 143.2222470 124.3532730  23.5357640 143.5484530 124.6894140
  32.9318260 147.5714140 121.8559590  32.4699790 146.8001380 122.1846760
  33.7443810 147.5980210 122.3612040  22.9077920 147.5113850 124.1494240
  23.2105960 146.6211590 123.9704460  23.6521510 148.0684070 123.9216490
  21.3368610 138.4375650 117.7378610  20.4485310 138.7791620 117.6358490
  21.6209800 138.2375970 116.8459440  19.3001620 141.0381300 123.6218310
  19.8717730 140.2703500 123.6221950  19.3003160 141.3370060 122.7124920
  29.1581570 149.8572150 121.4763580  28.5393010 150.3129650 120.9058020
  30.0133350 150.0123610 121.0753280  28.3519820 145.8411140 123.0830620
  28.2828100 144.9001080 122.9219750  29.1139680 145.9312550 123.6553190
  20.5426490 136.4465660 125.4087240  20.3629330 135.5491410 125.6890000
  20.1406570 136.9937530 126.0834190  29.3824990 138.6481520 123.3099550
  29.7589810 137.7753400 123.1973220  29.2844500 138.9840220 122.4189990
  23.5130000 137.0207150 118.7716990  23.6196750 137.9210880 119.0785750
  22.6022360 136.9725120 118.4811640  33.1649110 136.1431960 120.2427890
  33.9858730 135.6528530 120.2853370  33.1983190 136.7329620 120.9959730
  21.1613160 138.9426160 124.0169580  21.8423270 139.2064530 124.6356980
  20.8461210 138.1027030 124.3507590  25.3537730 139.9893520 123.1042170
  25.8615950 140.4874490 123.7447190  25.8850970 139.2128720 122.9281530
  37.4548660 138.1598710 126.8071520  36.7500830 138.5480420 126.2886630
  37.7206580 138.8549000 127.4092450  23.6373830 134.6292080 127.3705590
  23.6392270 135.1464470 126.5651490  22.8078140 134.1522260 127.3475520
  30.0244920 144.7411390 118.8695490  29.4062190 145.2060840 118.3058210
  30.5368170 145.4338870 119.2865000  24.8876680 144.2687260 125.5479090
  24.5546060 144.8956180 126.1900160  25.0643360 144.7949140 124.7680760
  33.4010590 138.0832340 123.0155430  32.6966160 138.3717230 123.5958540
  33.7622750 138.8932450 122.6554990  23.3189160 136.3402040 125.3776040
  23.6605970 137.1844090 125.0829910  22.3804970 136.4885780 125.4941380
  24.0995780 146.2368060 127.3628270  24.7169780 146.9119140 127.0812720
  23.2388900 146.6456040 127.2715770  19.3928120 145.4267920 116.2435120
  19.0156100 145.9155020 115.5120020  19.6501190 146.0993200 116.8741650
  35.0173370 147.7007470 125.2782910  34.3336890 148.3706580 125.2699580
  35.5567660 147.8988120 124.5127770  36.4697510 137.5287130 123.4064640
  35.5222420 137.5626110 123.5380070  36.7947500 138.3426080 123.7914000
  27.0017050 133.8284310 121.7020630  27.3092030 133.2731200 120.9856130
  26.0717750 133.9628770 121.5193620  32.5532110 149.5451600 123.9928090
  32.5659270 149.1413890 123.1250350  32.0007330 150.3198890 123.8889520
  33.8477530 146.2667820 119.0818260  33.7373860 145.3242150 119.2067680
  33.8445780 146.6283460 119.9681020  31.9517550 144.4481440 125.3210700
  32.3686340 144.2341550 124.4864160  32.6757370 144.7054230 125.8919320
  29.3897810 141.8933140 118.4380750  28.4627090 141.8270520 118.6669220
  29.5422630 142.8313270 118.3235990  29.3766890 138.1650140 115.4347910
  28.4370560 138.3264100 115.5200370  29.6950150 138.8835820 114.8883900
  35.8979650 142.8468660 125.4126940  35.0698280 142.9161750 124.9377070
  36.4930130 143.4322970 124.9442770  33.4195100 143.4553440 118.9416000
  32.8007520 143.1172990 118.2942300  33.4019550 142.8113200 119.6495190
  32.8621660 139.6337980 126.3581810  32.4492840 140.4591690 126.6121800
  32.1297610 139.0483020 126.1658170  24.9954450 142.4197880 121.2200480
  24.5911450 141.7075130 120.7246380  25.0817570 142.0751120 122.1088520
  25.4636150 146.1065440 123.3839690  25.1664440 145.5010910 122.7047470
  26.4135970 146.1442750 123.2729050  23.7083070 139.1941090 124.9999520
  24.2597660 139.3036430 124.2252770  24.2226580 139.5678690 125.7154750
  33.5521760 149.6797310 127.0462790  33.0752320 150.4869500 126.8535400
  32.8683550 149.0275640 127.1989000  24.5554580 145.8447130 130.0347490
  23.6583110 146.0687100 130.2820890  24.5807450 145.9682070 129.0858890
  31.5959800 142.6940250 115.9488750  32.0353080 141.8562680 115.8026570
  32.3088220 143.3269650 116.0352890  23.3825800 142.7160450 128.6104860
  23.2433570 143.5883250 128.9792260  22.5007160 142.3733260 128.4652800
  29.7055180 147.6336320 119.9169990  30.1451090 148.3760650 119.5025380
  29.6442070 147.8762890 120.8408950  25.1806150 148.6582150 130.8190010
  25.1521580 149.0625100 129.9518440  25.0171120 147.7292510 130.6561610
  35.1776940 133.9483060 114.2629790  34.8649600 134.0409890 115.1628860
  35.9389410 134.5264090 114.2127220  21.6959080 141.3142860 118.7207130
  21.5756680 142.0404950 118.1088400  21.3859970 140.5445770 118.2435040
  37.1320970 149.4409250 132.1154180  37.6080690 149.9192140 132.7943260
  37.7528130 149.3726740 131.3899680  19.3344450 144.4858000 124.5275770
  19.4124870 144.6206770 123.5831490  19.9486130 143.7773890 124.7203890
  20.5792080 146.1858190 120.9381950  20.1720160 146.3272780 120.0835550
  21.4705090 145.9018350 120.7353160  36.5354220 146.6322100 129.2754190
  36.6617280 146.3933980 128.3571370  36.5775600 145.8006640 129.7476270
  30.3970960 150.3350100 127.8449000  30.9115630 150.2458110 128.6471430
  29.5540040 150.6809800 128.1376910  32.3725360 150.6205440 117.2733000
  32.2126500 150.3308380 118.1714830  32.2072070 149.8445570 116.7378230
  24.8513740 150.4003970 119.0504620  24.6756220 149.4839510 118.8372420
  23.9969480 150.7591260 119.2902420  32.0751490 148.1293000 115.8331000
  31.3816650 148.1270290 115.1733280  32.8174350 147.7052320 115.4025170
  31.6401420 149.7555710 119.9079490  32.0958370 148.9745090 120.2218110
  31.9793940 150.4662530 120.4520670  36.3878230 138.6854560 130.2403930
  35.7722500 139.1934230 129.7119390  36.0674650 137.7852890 130.1829870
  19.3903970 145.5272170 127.0670230  19.5535010 145.0577530 126.2489600
  19.8556420 145.0195730 127.7319070  24.1622740 134.6577930 122.1030800
  23.7190890 135.4387470 121.7715320  24.7207730 134.9807820 122.8101740
  28.4492550 137.5246450 127.7066120  27.9871920 137.7329470 128.5186060
  28.0470660 136.7105800 127.4036790  33.4497060 138.7455400 128.8362780
  32.5990650 138.4461150 129.1571850  33.2898850 138.9897410 127.9246600
  30.5446770 140.2457150 130.9361570  30.8700180 139.4120900 130.5963800
  31.3327100 140.7685670 131.0839900  27.2781560 134.2788630 116.9836630
  26.6535740 134.2748500 117.7089940  27.1911680 133.4119590 116.5872600
  26.1998640 135.2025260 123.9620400  26.4970970 136.1088090 123.8812420
  26.7484200 134.7144040 123.3479970  23.9536960 139.7811500 119.8312050
  23.7277880 139.5648670 120.7358670  23.1729490 140.2139960 119.4858020
  31.1834720 139.7874870 118.4302700  30.5843610 140.5110670 118.2466320
  31.7314330 139.7251650 117.6479150  26.3936170 140.6797080 130.4972320
  26.2979770 139.7391810 130.3472720  27.2368150 140.9012150 130.1020390
  29.7899590 138.4238410 120.4605980  30.1829160 138.7410610 119.6474670
  30.1516440 137.5450290 120.5750500  21.5246710 137.0910750 128.6506100
  21.1310100 137.9385960 128.8578880  20.8365110 136.4537120 128.8414740
  28.0991760 137.1745720 131.7202840  27.4090080 136.9817920 132.3548930
  28.8424060 137.4580360 132.2527140  18.8263760 135.0139210 122.6836180
  18.5376810 135.5842070 123.3961160  19.5709520 134.5343660 123.0467410
  19.0133990 138.9559330 113.8938900  18.9308660 139.8990090 114.0353890
  18.6617050 138.8134240 113.0151250  30.3754730 141.0144160 124.5556760
  29.6435850 141.5230970 124.9046860  29.9779070 140.1974140 124.2545540
  26.8132120 137.6898360 122.9609250  26.8168180 137.2488310 122.1113790
  27.7083240 138.0115690 123.0681070  22.6634500 137.5724850 121.9203460
  22.3234550 138.0500080 122.6770510  21.9011820 137.1189970 121.5604560
  26.8752270 138.6910440 115.9516010  26.9965090 138.6496920 116.9001830
  26.4900780 139.5534590 115.7962740  30.8380640 136.4677840 123.9679700
  30.8553380 136.9186490 124.8121550  30.5896220 135.5683480 124.1813140
  25.8873770 141.0011580 115.3499310  25.3190670 140.5529830 114.7235220
  26.5962770 141.3604360 114.8164460  34.2651390 133.8810020 129.8066080
  34.5897160 133.1499680 130.3324060  34.3007900 133.5623660 128.9047070
  20.9642950 144.9023600 129.2266040  20.5797740 144.2617270 129.8249000
  21.2755140 145.6059720 129.7960770  27.1140090 141.7500140 124.7074660
  27.4810220 141.2758710 125.4536000  26.9245150 142.6241710 125.0483000
  19.9780580 136.4943830 120.8368130  19.6927500 136.1299500 121.6746750
  19.9159440 135.7624290 120.2231270  24.9039460 140.7908780 127.0258870
  24.5996530 141.6700760 127.2509230  25.8585920 140.8508570 127.0616310
  23.4321250 144.9969770 117.6225720  22.6583510 144.4567390 117.4624440
  24.1615880 144.4776380 117.2843480  34.1909230 143.9935130 123.4152110
  34.9108350 144.4890420 123.0248220  33.9891050 143.3153020 122.7705980
  29.6519170 135.3873090 117.5581500  28.8383780 134.8886260 117.4826810
  29.4581120 136.2271340 117.1417850  29.5728030 144.0644190 129.3021110
  29.5065340 143.1439860 129.0478700  28.9433170 144.1619630 130.0165750
  32.3667560 139.7592740 115.8543660  33.2547180 140.0709970 115.6795000
  32.3372650 138.8864990 115.4624240  23.4758650 144.6650150 121.2604530
  23.9937320 143.8618410 121.2061420  23.0242670 144.6029290 122.1021360
  28.3628150 145.9316430 116.5331830  28.7043850 146.6758660 116.0375150
  27.5340860 146.2447550 116.8956660  20.9603190 141.6311520 128.1730230
  20.6018130 142.2965370 128.7603570  20.6657750 140.7995070 128.5442850
  24.1616310 142.0895760 131.0569780  23.8616450 142.2352940 130.1597600
  24.9327550 141.5301050 130.9643170  29.5044760 146.8864760 129.0524910
  29.5189300 145.9545720 128.8343820  28.7969860 146.9724520 129.6914680
  34.6381830 141.0704580 115.3223520  34.5545550 141.5018800 114.4719960
  35.3576020 141.5302930 115.7550340  35.7155970 143.5272100 128.3993490
  34.9904160 144.1200880 128.2022880  36.2431430 143.5195640 127.6006860
  35.6669080 147.9246840 118.0505650  35.0245240 147.2702460 118.3249370
  35.2799740 148.3301930 117.2746320  31.2455560 145.2532270 121.8977340
  31.5979380 144.6560400 121.2378710  30.3617890 144.9276500 122.0685590
  27.3318840 146.0129960 119.3047750  28.0189970 146.5599170 119.6855340
  26.5451260 146.5570690 119.3397360  19.4711240 141.6302780 114.7964830
  20.3406090 141.9127580 115.0800750  18.9801560 142.4438650 114.6813640
  26.6346050 143.0175990 118.9173110  27.0908830 143.8281240 119.1433300
  26.2834260 142.6999130 119.7491600  28.9378660 148.5282330 126.1465410
  29.5820880 148.7341710 126.8238830  29.3008100 147.7670730 125.6936260
  22.5357830 133.3613640 119.3895630  22.4072460 133.3531540 120.3380550
  21.7119850 133.6996730 119.0386640  30.2110740 146.5314680 124.8642860
  30.8532970 145.8307840 124.9775030  30.7360090 147.3113120 124.6839750
  34.0566460 146.8163300 114.5882000  33.8304040 146.0993740 115.1806640
  33.6662660 146.5675740 113.7503750  31.9848360 147.3309580 128.0678920
  32.3204600 147.9176270 128.7456840  31.0648700 147.2002290 128.2976710
  19.8382490 150.8430160 115.3626460  20.1980130 151.4419500 114.7083730
  19.6974830 151.3890050 116.1361490  19.5351760 135.1204760 128.8502330
  18.8210280 135.3201680 129.4554940  19.9546800 134.3444330 129.2217130
  33.6382710 144.7335240 116.2496160  33.3504410 145.1947930 117.0374040
  34.4334880 144.2733010 116.5180380  19.8224350 149.1085020 129.8368860
  19.9315470 148.1679760 129.6964250  19.1704910 149.3739770 129.1882590
  27.8136940 147.3800910 131.2366980  27.4933810 146.6610150 131.7812670
  27.1395300 148.0555980 131.3103040  25.8551110 148.2261360 116.1800130
  25.8461210 148.9591050 115.5644640  24.9349470 147.9792940 116.2727090
  21.4557750 143.4476250 116.9246890  20.8485700 144.1875150 116.9342190
  21.9307100 143.5375610 116.0985090  31.0290540 137.6127070 126.6003780
  31.3971360 136.7922280 126.9283350  30.1688740 137.6728960 127.0159430
  34.3952570 136.5684010 117.4091340  33.7665730 136.6729680 116.6949570
  33.9004490 136.7880790 118.1985220  28.8410710 148.2889600 114.8425320
  28.9422690 148.0853590 113.9127300  27.9412450 148.0347880 115.0473100
  26.3636600 138.8469960 118.8249220  25.6552750 139.3156300 119.2662830
  26.6481080 138.1891970 119.4594410  27.9892530 140.2666660 126.8241750
  28.4877780 140.7412480 127.4893600  28.1315480 139.3430180 127.0311780
  30.3952030 135.5720620 120.2645010  30.2719810 135.5906750 119.3154520
  31.3436590 135.6199560 120.3843410  27.4828820 150.8075920 119.5372990
  27.7370320 150.7697310 118.6152360  26.5341300 150.6809250 119.5301240
  24.5671620 137.1555040 116.1999930  25.4162150 137.5925190 116.1340120
  24.2002890 137.4675300 117.0271990  35.1959390 136.4834620 127.6670140
  34.6932990 137.2240020 128.0063950  36.0116050 136.8718620 127.3506930
  33.4881400 141.7267800 121.1131500  32.5471540 141.7418030 121.2879190
  33.8025470 140.9403760 121.5591800  23.4663040 143.4087400 114.6735460
  24.2326310 143.2968760 115.2360890  23.5437730 142.7125370 114.0212230
  22.1609800 140.8412470 115.3568350  22.2413390 139.8939980 115.4685750
  23.0529550 141.1719350 115.4629010  35.4906980 148.8976650 122.7885760
  35.6154400 149.7207820 123.2609570  36.3572540 148.6867380 122.4409910
  19.8469990 147.0581430 118.3344400  18.9209770 147.3002570 118.3249810
  20.3126420 147.8855690 118.2129150  21.9682790 150.1753930 131.6488470
  22.7695520 150.4965980 132.0623870  21.4534610 149.8149510 132.3708380
  26.0726820 150.1638170 114.2828460  26.8655430 150.4527000 113.8310250
  25.5531170 149.7330340 113.6040940  30.8047420 146.2833800 131.5963880
  30.1985580 146.3065400 130.8559630  30.5001530 145.5516840 132.1331130
  32.2347790 150.0114090 130.2073290  33.1869540 149.9272110 130.1573530
  32.0876010 150.6755800 130.8807080  35.1256990 149.3908300 115.7065200
  34.8398500 148.9773440 114.8919380  34.9276540 150.3196010 115.5865720
  19.6880600 142.6627390 130.5924520  20.1919620 142.0834670 131.1640750
  18.9488020 142.9467620 131.1300890  26.5904220 145.3841580 114.1470810
  26.4854860 144.7693930 114.8732190  26.4228440 144.8607470 113.3633820
  26.7418540 144.0698380 130.1260040  25.9764210 144.6383380 130.0414710
  26.9234500 143.7774590 129.2328270  29.8306950 144.4461610 114.7512800
  29.2817050 144.8930910 115.3955540  30.4526210 143.9410860 115.2750470
  33.8841890 145.8003710 130.6835060  34.6251360 146.1379470 130.1802520
  33.1214570 145.9695770 130.1304830  21.7203680 140.8056980 131.4874590
  21.7609020 140.5070850 132.3959820  22.5749180 141.2064590 131.3282110
  25.4982070 143.4052530 116.6478100  25.9198490 143.2392400 117.4909490
  25.6232910 142.5952760 116.1533240  23.6609490 139.3849080 129.4549080
  23.1305950 138.8940030 128.8272420  24.3297560 139.8133280 128.9207010
  28.0109710 142.4290140 113.8955200  28.5315370 141.7139160 113.5296350
  28.6578110 143.0676010 114.1955710  32.5587550 143.8518540 129.2190270
  32.9728570 144.0063620 130.0680690  31.6238550 143.9773760 129.3816050
  33.0309720 141.1914700 131.2229420  33.6130490 140.4367020 131.1349900
  33.2071490 141.7222140 130.4460900  24.1481790 136.3511450 129.5346370
  24.0538660 135.7332200 128.8097240  23.5679180 137.0777740 129.3076280
  26.9143230 134.9084690 126.5673760  26.4660530 134.9308950 125.7219310
  26.2808430 134.5103710 127.1644060  27.3202780 143.8039020 127.1886200
  27.7390890 144.6471750 127.0162440  26.4011410 143.9411060 126.9592980
  29.6566680 141.5355200 128.5724040  29.7762890 140.9396340 129.3118880
  30.5160680 141.5724890 128.1525340  31.9954580 142.0892390 127.1486550
  31.4689800 142.6135010 126.5451690  32.3385920 142.7219780 127.7796280
  24.3940970 139.4785760 113.5936260  24.1930030 138.6153120 113.9549600
  24.2233020 139.3919120 112.6557860  25.1710200 150.1092030 128.3043930
  24.6331290 150.8338090 127.9852630  25.4244160 149.6322370 127.5141270
  26.4235450 138.0776550 129.8299860  27.0135140 137.7692400 130.5177680
  25.6055690 137.6056300 129.9859760  31.2428880 137.6942360 130.0632880
  30.5544400 137.0323900 129.9982870  31.9634900 137.2480630 130.5081340
  31.8729280 134.2893990 116.1223140  32.1531570 133.4461890 116.4782560
  31.0995010 134.5217100 116.6361890  23.1923770 136.5786380 113.5814140
  23.4949670 136.5853810 112.6733290  23.9318360 136.2284240 114.0781800
  26.4108700 135.5221000 114.5670340  26.0630700 134.8444990 113.9872790
  26.6121470 135.0610510 115.3813730  28.5757740 150.5101750 116.1856940
  29.4708530 150.8486720 116.2075700  28.6075370 149.7881160 115.5581220
  22.2153900 145.8828800 114.4143940  22.6528770 146.4258470 115.0701520
  22.7001630 145.0575750 114.4240280  19.4299700 148.6717830 121.8664200
  19.7602710 147.8038890 121.6342840  19.8590700 148.8776350 122.6969160
  24.0261620 147.0026840 119.5266170  23.7257160 146.8791810 120.4270080
  23.9199110 146.1435430 119.1181900  19.9189910 149.5388420 124.6045830
  19.4820900 149.7189220 125.4369980  20.4867590 150.2963040 124.4627550
  35.5552090 149.0405420 128.8923140  34.9554080 149.0997980 128.1487060
  35.6845990 148.1010400 129.0219990  36.7953540 146.7823240 114.2292850
  35.9646500 146.8499890 114.7000080  36.9725370 147.6727360 113.9259710
  36.2510000 143.5270720 116.7327050  37.0128910 144.0967370 116.8386740
  36.2664370 142.9597920 117.5035360  19.7514340 142.0508650 120.9634710
  19.0963180 141.7820290 120.3194410  20.5892290 141.9413130 120.5136690
  37.2569970 144.3820820 121.5768980  37.6278800 143.5988140 121.1704950
  37.8971900 145.0709920 121.3986280  34.2403730 145.7657400 126.9899300
  33.4263570 146.1954560 127.2525090  34.6477930 146.3775810 126.3768350
  36.3029170 143.8205090 113.8899570  36.5778010 144.7283970 113.7618790
  36.1139910 143.7567620 114.8261560  32.7004780 136.8449940 115.1853200
  33.1189660 136.6580920 114.3449860  32.3940840 135.9928990 115.4956130
  36.1994510 141.7574080 118.8829000  35.8238110 140.9902010 118.4510290
  35.4697630 142.1396780 119.3703930  20.7890270 142.4361220 125.5038050
  21.1563310 142.3488620 126.3834070  20.2201090 141.6727770 125.4044910
  35.5894130 140.9045600 128.5168520  35.3580220 140.6758350 127.6166470
  35.8498680 141.8245150 128.4713410  20.3406270 139.3470310 129.4096470
  19.4462320 139.3137070 129.7490180  20.8803820 139.5457100 130.1747720
  34.0282200 136.1302030 131.2948220  34.9052380 136.1385430 131.6782220
  34.0403040 135.3932870 130.6840570  18.9652420 139.2607580 116.9060040
  18.0616500 139.5237780 116.7311700  19.4493040 139.5318750 116.1260000
  35.4745470 139.9831570 122.1836240  35.9982950 139.4894220 121.5526410
  36.0604890 140.1181930 122.9283810  35.6535190 140.0671440 125.7055790
  34.7037900 140.0334980 125.8200780  35.8348200 140.9771550 125.4705560
  21.5079630 138.3173120 114.8154420  22.2171330 137.8956340 114.3301700
  20.7919570 138.3848350 114.1837770  21.1553790 134.3712450 113.8557070
  21.8781920 134.9121390 114.1738290  21.4278310 134.0975870 112.9798610
  34.9645440 139.2404920 118.1228650  35.4604560 139.0075790 118.9077530
  34.7661510 138.4016760 117.7066290  20.8445980 133.6218640 123.7579690
  21.4922170 133.0716020 123.3174850  21.2647820 133.8761790 124.5795500
  36.3932600 137.8765870 120.6566330  36.2831880 137.7221910 121.5948600
  37.1540190 137.3486810 120.4141740  34.7398320 133.8160000 127.1149330
  35.3770540 134.4294140 127.4808520  34.8873210 133.8520660 126.1698560
  37.2822870 135.7073790 113.8972470  38.2072180 135.5754970 113.6890760
  37.2598660 135.7866610 114.8508920  37.3561360 136.4784450 116.5229180
  36.5612860 136.4129570 117.0522090  37.5604640 137.4135090 116.5114530
  34.2979780 150.5176000 120.5167570  34.8938850 150.1960570 119.8401990
  34.5557930 150.0447820 121.3080840  20.5977980 133.7774310 126.5005010
  20.2492800 134.2338130 127.2663190  20.2665680 132.8831440 126.5827440
  22.2042350 146.9493910 130.6658200  22.1611980 146.5786820 131.5472660
  22.3353360 147.8871480 130.8060020  25.9048380 148.5053500 126.2667920
  25.6639740 148.7728060 125.3798440  26.8451020 148.6759230 126.3218780
  28.1102800 134.9686190 130.0224430  28.0491690 135.5608020 130.7719840
  29.0503180 134.8612150 129.8774690  30.7477360 134.6256250 129.6616720
  31.3617770 134.9435540 128.9997800  31.2926920 134.1404840 130.2812580
  37.1652540 150.5247880 127.0678560  36.6710820 150.9216750 126.3505690
  36.5565830 149.8997090 127.4615840  21.2698620 133.3050510 129.7755780
  21.8181610 133.1238560 129.0121890  21.3353930 132.5144620 130.3112090
  22.0430380 149.8956160 127.7855980  21.4490700 149.7640860 128.5246020
  22.0354220 149.0594300 127.3198080  31.4885400 133.1888390 125.9886010
  30.6145240 133.5223500 125.7858940  31.3796150 132.7161570 126.8137880
  32.3957380 135.3959260 127.3727730  32.0670740 134.5811020 126.9929460
  33.3439680 135.3529070 127.2493420  21.6742610 147.2614540 126.7364020
  20.9476670 146.6419830 126.6689970  21.7351760 147.6555150 125.8662100
  25.2787710 149.4759540 123.5213430  25.7952730 148.8646900 122.9961690
  25.9285090 149.9788320 124.0124440  28.0183210 150.3668030 124.3482410
  28.3061020 150.1122330 123.4715420  28.5306430 149.8145390 124.9387980
  29.2360220 134.1058230 124.9278920  28.4532010 134.5803730 125.2075680
  28.9423150 133.2013060 124.8192100  33.7881290 134.8081330 122.9728010
  34.2289380 134.7526430 122.1249610  33.5188880 135.7239340 123.0438190
  35.6519860 134.4396570 120.9836830  35.5908260 133.4957790 120.8367850
  36.4311890 134.5476660 121.5290290  19.9572610 150.5788930 119.9460780
  19.7894650 149.9459610 120.6442670  19.0907120 150.7848330 119.5954970
  20.5800630 134.4105710 117.4492640  21.3379990 134.5234590 116.8756670
  20.1177800 135.2474910 117.4036070  27.1214440 136.5244980 120.4394950
  26.3088950 136.1501870 120.0990830  27.6256080 135.7690060 120.7416140
  31.6239420 133.1887430 121.6778020  32.2268790 133.7607640 122.1526540
  30.8832410 133.7526870 121.4551920  34.7674020 133.5908990 116.9518300
  34.9624650 134.4892440 117.2185730  33.9803890 133.3596070 117.4451250
  21.5635310 149.2722160 117.3910920  21.0382930 149.6530190 116.6872880
  21.4879890 149.8972930 118.1120630  22.9525780 134.9369760 115.9894610
  23.4818540 134.1499560 115.8602560  23.5854100 135.6160950 116.2230140
  25.1463620 134.6744900 119.0440000  24.5166360 133.9732210 119.2110130
  24.6068760 135.4349030 118.8273160  36.3200630 150.8309700 118.7124860
  36.4952820 150.1447440 118.0685780  35.6222200 151.3556750 118.3201530
  25.2719180 133.9528880 131.4792490  24.9903450 134.4562480 130.7153310
  25.6538880 133.1550630 131.1134620  24.1628280 151.2204540 116.2660170
  24.8947100 150.9363820 115.7184060  24.4221950 150.9817820 117.1559550
  23.3243070 147.3369270 116.2706500  22.6951950 147.8054370 116.8192330
  23.4390900 146.4918490 116.7052690  31.8734640 133.3682460 132.0572960
  31.7600090 133.6877070 132.9524480  32.6904380 133.7694970 131.7610240
  34.6533130 150.5153990 131.5391650  35.4458450 150.0203220 131.3317610
  34.9466280 151.1944130 132.1467260  30.7792790 141.3874930 102.4207700
  30.6986840 140.4729540 102.1499410  30.3657210 141.8842000 101.7147410
  28.9110830 143.1653950 104.3016970  28.1352930 142.6854390 104.5915540
  29.5623760 142.4859600 104.1273130  22.9276660 143.4773760 105.1792730
  22.0961540 143.2222470 105.5789240  23.5357640 143.5484530 105.9150650
  32.9318260 147.5714140 103.0816100  32.4699790 146.8001380 103.4103270
  33.7443810 147.5980210 103.5868550  22.9077920 147.5113850 105.3750750
  23.2105960 146.6211590 105.1960970  23.6521510 148.0684070 105.1473000
  21.3368610 138.4375650  98.9635120  20.4485310 138.7791620  98.8615000
  21.6209800 138.2375970  98.0715950  19.3001620 141.0381300 104.8474820
  19.8717730 140.2703500 104.8478460  19.3003160 141.3370060 103.9381430
  29.1581570 149.8572150 102.7020090  28.5393010 150.3129650 102.1314530
  30.0133350 150.0123610 102.3009790  28.3519820 145.8411140 104.3087130
  28.2828100 144.9001080 104.1476260  29.1139680 145.9312550 104.8809700
  20.5426490 136.4465660 106.6343750  20.3629330 135.5491410 106.9146510
  20.1406570 136.9937530 107.3090700  29.3824990 138.6481520 104.5356060
  29.7589810 137.7753400 104.4229730  29.2844500 138.9840220 103.6446500
  23.5130000 137.0207150  99.9973500  23.6196750 137.9210880 100.3042260
  22.6022360 136.9725120  99.7068150  33.1649110 136.1431960 101.4684400
  33.9858730 135.6528530 101.5109880  33.1983190 136.7329620 102.2216240
  21.1613160 138.9426160 105.2426090  21.8423270 139.2064530 105.8613490
  20.8461210 138.1027030 105.5764100  25.3537730 139.9893520 104.3298680
  25.8615950 140.4874490 104.9703700  25.8850970 139.2128720 104.1538040
  37.4548660 138.1598710 108.0328030  36.7500830 138.5480420 107.5143140
  37.7206580 138.8549000 108.6348960  23.6373830 134.6292080 108.5962100
  23.6392270 135.1464470 107.7908000  22.8078140 134.1522260 108.5732030
  30.0244920 144.7411390 100.0952000  29.4062190 145.2060840  99.5314720
  30.5368170 145.4338870 100.5121510  24.8876680 144.2687260 106.7735600
  24.5546060 144.8956180 107.4156670  25.0643360 144.7949140 105.9937270
  33.4010590 138.0832340 104.2411940  32.6966160 138.3717230 104.8215050
  33.7622750 138.8932450 103.8811500  23.3189160 136.3402040 106.6032550
  23.6605970 137.1844090 106.3086420  22.3804970 136.4885780 106.7197890
  24.0995780 146.2368060 108.5884780  24.7169780 146.9119140 108.3069230
  23.2388900 146.6456040 108.4972280  19.3928120 145.4267920  97.4691630
  19.0156100 145.9155020  96.7376530  19.6501190 146.0993200  98.0998160
  35.0173370 147.7007470 106.5039420  34.3336890 148.3706580 106.4956090
  35.5567660 147.8988120 105.7384280  36.4697510 137.5287130 104.6321150
  35.5222420 137.5626110 104.7636580  36.7947500 138.3426080 105.0170510
  27.0017050 133.8284310 102.9277140  27.3092030 133.2731200 102.2112640
  26.0717750 133.9628770 102.7450130  32.5532110 149.5451600 105.2184600
  32.5659270 149.1413890 104.3506860  32.0007330 150.3198890 105.1146030
  33.8477530 146.2667820 100.3074770  33.7373860 145.3242150 100.4324190
  33.8445780 146.6283460 101.1937530  31.9517550 144.4481440 106.5467210
  32.3686340 144.2341550 105.7120670  32.6757370 144.7054230 107.1175830
  29.3897810 141.8933140  99.6637260  28.4627090 141.8270520  99.8925730
  29.5422630 142.8313270  99.5492500  29.3766890 138.1650140  96.6604420
  28.4370560 138.3264100  96.7456880  29.6950150 138.8835820  96.1140410
  35.8979650 142.8468660 106.6383450  35.0698280 142.9161750 106.1633580
  36.4930130 143.4322970 106.1699280  33.4195100 143.4553440 100.1672510
  32.8007520 143.1172990  99.5198810  33.4019550 142.8113200 100.8751700
  32.8621660 139.6337980 107.5838320  32.4492840 140.4591690 107.8378310
  32.1297610 139.0483020 107.3914680  24.9954450 142.4197880 102.4456990
  24.5911450 141.7075130 101.9502890  25.0817570 142.0751120 103.3345030
  25.4636150 146.1065440 104.6096200  25.1664440 145.5010910 103.9303980
  26.4135970 146.1442750 104.4985560  23.7083070 139.1941090 106.2256030
  24.2597660 139.3036430 105.4509280  24.2226580 139.5678690 106.9411260
  33.5521760 149.6797310 108.2719300  33.0752320 150.4869500 108.0791910
  32.8683550 149.0275640 108.4245510  24.5554580 145.8447130 111.2604000
  23.6583110 146.0687100 111.5077400  24.5807450 145.9682070 110.3115400
  31.5959800 142.6940250  97.1745260  32.0353080 141.8562680  97.0283080
  32.3088220 143.3269650  97.2609400  23.3825800 142.7160450 109.8361370
  23.2433570 143.5883250 110.2048770  22.5007160 142.3733260 109.6909310
  29.7055180 147.6336320 101.1426500  30.1451090 148.3760650 100.7281890
  29.6442070 147.8762890 102.0665460  25.1806150 148.6582150 112.0446520
  25.1521580 149.0625100 111.1774950  25.0171120 147.7292510 111.8818120
  35.1776940 133.9483060  95.4886300  34.8649600 134.0409890  96.3885370
  35.9389410 134.5264090  95.4383730  21.6959080 141.3142860  99.9463640
  21.5756680 142.0404950  99.3344910  21.3859970 140.5445770  99.4691550
  37.1320970 149.4409250 113.3410690  37.6080690 149.9192140 114.0199770
  37.7528130 149.3726740 112.6156190  19.3344450 144.4858000 105.7532280
  19.4124870 144.6206770 104.8088000  19.9486130 143.7773890 105.9460400
  20.5792080 146.1858190 102.1638460  20.1720160 146.3272780 101.3092060
  21.4705090 145.9018350 101.9609670  36.5354220 146.6322100 110.5010700
  36.6617280 146.3933980 109.5827880  36.5775600 145.8006640 110.9732780
  30.3970960 150.3350100 109.0705510  30.9115630 150.2458110 109.8727940
  29.5540040 150.6809800 109.3633420  32.3725360 150.6205440  98.4989510
  32.2126500 150.3308380  99.3971340  32.2072070 149.8445570  97.9634740
  24.8513740 150.4003970 100.2761130  24.6756220 149.4839510 100.0628930
  23.9969480 150.7591260 100.5158930  32.0751490 148.1293000  97.0587510
  31.3816650 148.1270290  96.3989790  32.8174350 147.7052320  96.6281680
  31.6401420 149.7555710 101.1336000  32.0958370 148.9745090 101.4474620
  31.9793940 150.4662530 101.6777180  36.3878230 138.6854560 111.4660440
  35.7722500 139.1934230 110.9375900  36.0674650 137.7852890 111.4086380
  19.3903970 145.5272170 108.2926740  19.5535010 145.0577530 107.4746110
  19.8556420 145.0195730 108.9575580  24.1622740 134.6577930 103.3287310
  23.7190890 135.4387470 102.9971830  24.7207730 134.9807820 104.0358250
  28.4492550 137.5246450 108.9322630  27.9871920 137.7329470 109.7442570
  28.0470660 136.7105800 108.6293300  33.4497060 138.7455400 110.0619290
  32.5990650 138.4461150 110.3828360  33.2898850 138.9897410 109.1503110
  30.5446770 140.2457150 112.1618080  30.8700180 139.4120900 111.8220310
  31.3327100 140.7685670 112.3096410  27.2781560 134.2788630  98.2093140
  26.6535740 134.2748500  98.9346450  27.1911680 133.4119590  97.8129110
  26.1998640 135.2025260 105.1876910  26.4970970 136.1088090 105.1068930
  26.7484200 134.7144040 104.5736480  23.9536960 139.7811500 101.0568560
  23.7277880 139.5648670 101.9615180  23.1729490 140.2139960 100.7114530
  31.1834720 139.7874870  99.6559210  30.5843610 140.5110670  99.4722830
  31.7314330 139.7251650  98.8735660  26.3936170 140.6797080 111.7228830
  26.2979770 139.7391810 111.5729230  27.2368150 140.9012150 111.3276900
  29.7899590 138.4238410 101.6862490  30.1829160 138.7410610 100.8731180
  30.1516440 137.5450290 101.8007010  21.5246710 137.0910750 109.8762610
  21.1310100 137.9385960 110.0835390  20.8365110 136.4537120 110.0671250
  28.0991760 137.1745720 112.9459350  27.4090080 136.9817920 113.5805440
  28.8424060 137.4580360 113.4783650  18.8263760 135.0139210 103.9092690
  18.5376810 135.5842070 104.6217670  19.5709520 134.5343660 104.2723920
  19.0133990 138.9559330  95.1195410  18.9308660 139.8990090  95.2610400
  18.6617050 138.8134240  94.2407760  30.3754730 141.0144160 105.7813270
  29.6435850 141.5230970 106.1303370  29.9779070 140.1974140 105.4802050
  26.8132120 137.6898360 104.1865760  26.8168180 137.2488310 103.3370300
  27.7083240 138.0115690 104.2937580  22.6634500 137.5724850 103.1459970
  22.3234550 138.0500080 103.9027020  21.9011820 137.1189970 102.7861070
  26.8752270 138.6910440  97.1772520  26.9965090 138.6496920  98.1258340
  26.4900780 139.5534590  97.0219250  30.8380640 136.4677840 105.1936210
  30.8553380 136.9186490 106.0378060  30.5896220 135.5683480 105.4069650
  25.8873770 141.0011580  96.5755820  25.3190670 140.5529830  95.9491730
  26.5962770 141.3604360  96.0420970  34.2651390 133.8810020 111.0322590
  34.5897160 133.1499680 111.5580570  34.3007900 133.5623660 110.1303580
  20.9642950 144.9023600 110.4522550  20.5797740 144.2617270 111.0505510
  21.2755140 145.6059720 111.0217280  27.1140090 141.7500140 105.9331170
  27.4810220 141.2758710 106.6792510  26.9245150 142.6241710 106.2739510
  19.9780580 136.4943830 102.0624640  19.6927500 136.1299500 102.9003260
  19.9159440 135.7624290 101.4487780  24.9039460 140.7908780 108.2515380
  24.5996530 141.6700760 108.4765740  25.8585920 140.8508570 108.2872820
  23.4321250 144.9969770  98.8482230  22.6583510 144.4567390  98.6880950
  24.1615880 144.4776380  98.5099990  34.1909230 143.9935130 104.6408620
  34.9108350 144.4890420 104.2504730  33.9891050 143.3153020 103.9962490
  29.6519170 135.3873090  98.7838010  28.8383780 134.8886260  98.7083320
  29.4581120 136.2271340  98.3674360  29.5728030 144.0644190 110.5277620
  29.5065340 143.1439860 110.2735210  28.9433170 144.1619630 111.2422260
  32.3667560 139.7592740  97.0800170  33.2547180 140.0709970  96.9051510
  32.3372650 138.8864990  96.6880750  23.4758650 144.6650150 102.4861040
  23.9937320 143.8618410 102.4317930  23.0242670 144.6029290 103.3277870
  28.3628150 145.9316430  97.7588340  28.7043850 146.6758660  97.2631660
  27.5340860 146.2447550  98.1213170  20.9603190 141.6311520 109.3986740
  20.6018130 142.2965370 109.9860080  20.6657750 140.7995070 109.7699360
  24.1616310 142.0895760 112.2826290  23.8616450 142.2352940 111.3854110
  24.9327550 141.5301050 112.1899680  29.5044760 146.8864760 110.2781420
  29.5189300 145.9545720 110.0600330  28.7969860 146.9724520 110.9171190
  34.6381830 141.0704580  96.5480030  34.5545550 141.5018800  95.6976470
  35.3576020 141.5302930  96.9806850  35.7155970 143.5272100 109.6250000
  34.9904160 144.1200880 109.4279390  36.2431430 143.5195640 108.8263370
  35.6669080 147.9246840  99.2762160  35.0245240 147.2702460  99.5505880
  35.2799740 148.3301930  98.5002830  31.2455560 145.2532270 103.1233850
  31.5979380 144.6560400 102.4635220  30.3617890 144.9276500 103.2942100
  27.3318840 146.0129960 100.5304260  28.0189970 146.5599170 100.9111850
  26.5451260 146.5570690 100.5653870  19.4711240 141.6302780  96.0221340
  20.3406090 141.9127580  96.3057260  18.9801560 142.4438650  95.9070150
  26.6346050 143.0175990 100.1429620  27.0908830 143.8281240 100.3689810
  26.2834260 142.6999130 100.9748110  28.9378660 148.5282330 107.3721920
  29.5820880 148.7341710 108.0495340  29.3008100 147.7670730 106.9192770
  22.5357830 133.3613640 100.6152140  22.4072460 133.3531540 101.5637060
  21.7119850 133.6996730 100.2643150  30.2110740 146.5314680 106.0899370
  30.8532970 145.8307840 106.2031540  30.7360090 147.3113120 105.9096260
  34.0566460 146.8163300  95.8138510  33.8304040 146.0993740  96.4063150
  33.6662660 146.5675740  94.9760260  31.9848360 147.3309580 109.2935430
  32.3204600 147.9176270 109.9713350  31.0648700 147.2002290 109.5233220
  19.8382490 150.8430160  96.5882970  20.1980130 151.4419500  95.9340240
  19.6974830 151.3890050  97.3618000  19.5351760 135.1204760 110.0758840
  18.8210280 135.3201680 110.6811450  19.9546800 134.3444330 110.4473640
  33.6382710 144.7335240  97.4752670  33.3504410 145.1947930  98.2630550
  34.4334880 144.2733010  97.7436890  19.8224350 149.1085020 111.0625370
  19.9315470 148.1679760 110.9220760  19.1704910 149.3739770 110.4139100
  27.8136940 147.3800910 112.4623490  27.4933810 146.6610150 113.0069180
  27.1395300 148.0555980 112.5359550  25.8551110 148.2261360  97.4056640
  25.8461210 148.9591050  96.7901150  24.9349470 147.9792940  97.4983600
  21.4557750 143.4476250  98.1503400  20.8485700 144.1875150  98.1598700
  21.9307100 143.5375610  97.3241600  31.0290540 137.6127070 107.8260290
  31.3971360 136.7922280 108.1539860  30.1688740 137.6728960 108.2415940
  34.3952570 136.5684010  98.6347850  33.7665730 136.6729680  97.9206080
  33.9004490 136.7880790  99.4241730  28.8410710 148.2889600  96.0681830
  28.9422690 148.0853590  95.1383810  27.9412450 148.0347880  96.2729610
  26.3636600 138.8469960 100.0505730  25.6552750 139.3156300 100.4919340
  26.6481080 138.1891970 100.6850920  27.9892530 140.2666660 108.0498260
  28.4877780 140.7412480 108.7150110  28.1315480 139.3430180 108.2568290
  30.3952030 135.5720620 101.4901520  30.2719810 135.5906750 100.5411030
  31.3436590 135.6199560 101.6099920  27.4828820 150.8075920 100.7629500
  27.7370320 150.7697310  99.8408870  26.5341300 150.6809250 100.7557750
  24.5671620 137.1555040  97.4256440  25.4162150 137.5925190  97.3596630
  24.2002890 137.4675300  98.2528500  35.1959390 136.4834620 108.8926650
  34.6932990 137.2240020 109.2320460  36.0116050 136.8718620 108.5763440
  33.4881400 141.7267800 102.3388010  32.5471540 141.7418030 102.5135700
  33.8025470 140.9403760 102.7848310  23.4663040 143.4087400  95.8991970
  24.2326310 143.2968760  96.4617400  23.5437730 142.7125370  95.2468740
  22.1609800 140.8412470  96.5824860  22.2413390 139.8939980  96.6942260
  23.0529550 141.1719350  96.6885520  35.4906980 148.8976650 104.0142270
  35.6154400 149.7207820 104.4866080  36.3572540 148.6867380 103.6666420
  19.8469990 147.0581430  99.5600910  18.9209770 147.3002570  99.5506320
  20.3126420 147.8855690  99.4385660  21.9682790 150.1753930 112.8744980
  22.7695520 150.4965980 113.2880380  21.4534610 149.8149510 113.5964890
  26.0726820 150.1638170  95.5084970  26.8655430 150.4527000  95.0566760
  25.5531170 149.7330340  94.8297450  30.8047420 146.2833800 112.8220390
  30.1985580 146.3065400 112.0816140  30.5001530 145.5516840 113.3587640
  32.2347790 150.0114090 111.4329800  33.1869540 149.9272110 111.3830040
  32.0876010 150.6755800 112.1063590  35.1256990 149.3908300  96.9321710
  34.8398500 148.9773440  96.1175890  34.9276540 150.3196010  96.8122230
  19.6880600 142.6627390 111.8181030  20.1919620 142.0834670 112.3897260
  18.9488020 142.9467620 112.3557400  26.5904220 145.3841580  95.3727320
  26.4854860 144.7693930  96.0988700  26.4228440 144.8607470  94.5890330
  26.7418540 144.0698380 111.3516550  25.9764210 144.6383380 111.2671220
  26.9234500 143.7774590 110.4584780  29.8306950 144.4461610  95.9769310
  29.2817050 144.8930910  96.6212050  30.4526210 143.9410860  96.5006980
  33.8841890 145.8003710 111.9091570  34.6251360 146.1379470 111.4059030
  33.1214570 145.9695770 111.3561340  21.7203680 140.8056980 112.7131100
  21.7609020 140.5070850 113.6216330  22.5749180 141.2064590 112.5538620
  25.4982070 143.4052530  97.8734610  25.9198490 143.2392400  98.7166000
  25.6232910 142.5952760  97.3789750  23.6609490 139.3849080 110.6805590
  23.1305950 138.8940030 110.0528930  24.3297560 139.8133280 110.1463520
  28.0109710 142.4290140  95.1211710  28.5315370 141.7139160  94.7552860
  28.6578110 143.0676010  95.4212220  32.5587550 143.8518540 110.4446780
  32.9728570 144.0063620 111.2937200  31.6238550 143.9773760 110.6072560
  33.0309720 141.1914700 112.4485930  33.6130490 140.4367020 112.3606410
  33.2071490 141.7222140 111.6717410  24.1481790 136.3511450 110.7602880
  24.0538660 135.7332200 110.0353750  23.5679180 137.0777740 110.5332790
  26.9143230 134.9084690 107.7930270  26.4660530 134.9308950 106.9475820
  26.2808430 134.5103710 108.3900570  27.3202780 143.8039020 108.4142710
  27.7390890 144.6471750 108.2418950  26.4011410 143.9411060 108.1849490
  29.6566680 141.5355200 109.7980550  29.7762890 140.9396340 110.5375390
  30.5160680 141.5724890 109.3781850  31.9954580 142.0892390 108.3743060
  31.4689800 142.6135010 107.7708200  32.3385920 142.7219780 109.0052790
  24.3940970 139.4785760  94.8192770  24.1930030 138.6153120  95.1806110
  24.2233020 139.3919120  93.8814370  25.1710200 150.1092030 109.5300440
  24.6331290 150.8338090 109.2109140  25.4244160 149.6322370 108.7397780
  26.4235450 138.0776550 111.0556370  27.0135140 137.7692400 111.7434190
  25.6055690 137.6056300 111.2116270  31.2428880 137.6942360 111.2889390
  30.5544400 137.0323900 111.2239380  31.9634900 137.2480630 111.7337850
  31.8729280 134.2893990  97.3479650  32.1531570 133.4461890  97.7039070
  31.0995010 134.5217100  97.8618400  23.1923770 136.5786380  94.8070650
  23.4949670 136.5853810  93.8989800  23.9318360 136.2284240  95.3038310
  26.4108700 135.5221000  95.7926850  26.0630700 134.8444990  95.2129300
  26.6121470 135.0610510  96.6070240  28.5757740 150.5101750  97.4113450
  29.4708530 150.8486720  97.4332210  28.6075370 149.7881160  96.7837730
  22.2153900 145.8828800  95.6400450  22.6528770 146.4258470  96.2958030
  22.7001630 145.0575750  95.6496790  19.4299700 148.6717830 103.0920710
  19.7602710 147.8038890 102.8599350  19.8590700 148.8776350 103.9225670
  24.0261620 147.0026840 100.7522680  23.7257160 146.8791810 101.6526590
  23.9199110 146.1435430 100.3438410  19.9189910 149.5388420 105.8302340
  19.4820900 149.7189220 106.6626490  20.4867590 150.2963040 105.6884060
  35.5552090 149.0405420 110.1179650  34.9554080 149.0997980 109.3743570
  35.6845990 148.1010400 110.2476500  36.7953540 146.7823240  95.4549360
  35.9646500 146.8499890  95.9256590  36.9725370 147.6727360  95.1516220
  36.2510000 143.5270720  97.9583560  37.0128910 144.0967370  98.0643250
  36.2664370 142.9597920  98.7291870  19.7514340 142.0508650 102.1891220
  19.0963180 141.7820290 101.5450920  20.5892290 141.9413130 101.7393200
  37.2569970 144.3820820 102.8025490  37.6278800 143.5988140 102.3961460
  37.8971900 145.0709920 102.6242790  34.2403730 145.7657400 108.2155810
  33.4263570 146.1954560 108.4781600  34.6477930 146.3775810 107.6024860
  36.3029170 143.8205090  95.1156080  36.5778010 144.7283970  94.9875300
  36.1139910 143.7567620  96.0518070  32.7004780 136.8449940  96.4109710
  33.1189660 136.6580920  95.5706370  32.3940840 135.9928990  96.7212640
  36.1994510 141.7574080 100.1085510  35.8238110 140.9902010  99.6766800
  35.4697630 142.1396780 100.5960440  20.7890270 142.4361220 106.7294560
  21.1563310 142.3488620 107.6090580  20.2201090 141.6727770 106.6301420
  35.5894130 140.9045600 109.7425030  35.3580220 140.6758350 108.8422980
  35.8498680 141.8245150 109.6969920  20.3406270 139.3470310 110.6352980
  19.4462320 139.3137070 110.9746690  20.8803820 139.5457100 111.4004230
  34.0282200 136.1302030 112.5204730  34.9052380 136.1385430 112.9038730
  34.0403040 135.3932870 111.9097080  18.9652420 139.2607580  98.1316550
  18.0616500 139.5237780  97.9568210  19.4493040 139.5318750  97.3516510
  35.4745470 139.9831570 103.4092750  35.9982950 139.4894220 102.7782920
  36.0604890 140.1181930 104.1540320  35.6535190 140.0671440 106.9312300
  34.7037900 140.0334980 107.0457290  35.8348200 140.9771550 106.6962070
  21.5079630 138.3173120  96.0410930  22.2171330 137.8956340  95.5558210
  20.7919570 138.3848350  95.4094280  21.1553790 134.3712450  95.0813580
  21.8781920 134.9121390  95.3994800  21.4278310 134.0975870  94.2055120
  34.9645440 139.2404920  99.3485160  35.4604560 139.0075790 100.1334040
  34.7661510 138.4016760  98.9322800  20.8445980 133.6218640 104.9836200
  21.4922170 133.0716020 104.5431360  21.2647820 133.8761790 105.8052010
  36.3932600 137.8765870 101.8822840  36.2831880 137.7221910 102.8205110
  37.1540190 137.3486810 101.6398250  34.7398320 133.8160000 108.3405840
  35.3770540 134.4294140 108.7065030  34.8873210 133.8520660 107.3955070
  37.2822870 135.7073790  95.1228980  38.2072180 135.5754970  94.9147270
  37.2598660 135.7866610  96.0765430  37.3561360 136.4784450  97.7485690
  36.5612860 136.4129570  98.2778600  37.5604640 137.4135090  97.7371040
  34.2979780 150.5176000 101.7424080  34.8938850 150.1960570 101.0658500
  34.5557930 150.0447820 102.5337350  20.5977980 133.7774310 107.7261520
  20.2492800 134.2338130 108.4919700  20.2665680 132.8831440 107.8083950
  22.2042350 146.9493910 111.8914710  22.1611980 146.5786820 112.7729170
  22.3353360 147.8871480 112.0316530  25.9048380 148.5053500 107.4924430
  25.6639740 148.7728060 106.6054950  26.8451020 148.6759230 107.5475290
  28.1102800 134.9686190 111.2480940  28.0491690 135.5608020 111.9976350
  29.0503180 134.8612150 111.1031200  30.7477360 134.6256250 110.8873230
  31.3617770 134.9435540 110.2254310  31.2926920 134.1404840 111.5069090
  37.1652540 150.5247880 108.2935070  36.6710820 150.9216750 107.5762200
  36.5565830 149.8997090 108.6872350  21.2698620 133.3050510 111.0012290
  21.8181610 133.1238560 110.2378400  21.3353930 132.5144620 111.5368600
  22.0430380 149.8956160 109.0112490  21.4490700 149.7640860 109.7502530
  22.0354220 149.0594300 108.5454590  31.4885400 133.1888390 107.2142520
  30.6145240 133.5223500 107.0115450  31.3796150 132.7161570 108.0394390
  32.3957380 135.3959260 108.5984240  32.0670740 134.5811020 108.2185970
  33.3439680 135.3529070 108.4749930  21.6742610 147.2614540 107.9620530
  20.9476670 146.6419830 107.8946480  21.7351760 147.6555150 107.0918610
  25.2787710 149.4759540 104.7469940  25.7952730 148.8646900 104.2218200
  25.9285090 149.9788320 105.2380950  28.0183210 150.3668030 105.5738920
  28.3061020 150.1122330 104.6971930  28.5306430 149.8145390 106.1644490
  29.2360220 134.1058230 106.1535430  28.4532010 134.5803730 106.4332190
  28.9423150 133.2013060 106.0448610  33.7881290 134.8081330 104.1984520
  34.2289380 134.7526430 103.3506120  33.5188880 135.7239340 104.2694700
  35.6519860 134.4396570 102.2093340  35.5908260 133.4957790 102.0624360
  36.4311890 134.5476660 102.7546800  19.9572610 150.5788930 101.1717290
  19.7894650 149.9459610 101.8699180  19.0907120 150.7848330 100.8211480
  20.5800630 134.4105710  98.6749150  21.3379990 134.5234590  98.1013180
  20.1177800 135.2474910  98.6292580  27.1214440 136.5244980 101.6651460
  26.3088950 136.1501870 101.3247340  27.6256080 135.7690060 101.9672650
  31.6239420 133.1887430 102.9034530  32.2268790 133.7607640 103.3783050
  30.8832410 133.7526870 102.6808430  34.7674020 133.5908990  98.1774810
  34.9624650 134.4892440  98.4442240  33.9803890 133.3596070  98.6707760
  21.5635310 149.2722160  98.6167430  21.0382930 149.6530190  97.9129390
  21.4879890 149.8972930  99.3377140  22.9525780 134.9369760  97.2151120
  23.4818540 134.1499560  97.0859070  23.5854100 135.6160950  97.4486650
  25.1463620 134.6744900 100.2696510  24.5166360 133.9732210 100.4366640
  24.6068760 135.4349030 100.0529670  36.3200630 150.8309700  99.9381370
  36.4952820 150.1447440  99.2942290  35.6222200 151.3556750  99.5458040
  25.2719180 133.9528880 112.7049000  24.9903450 134.4562480 111.9409820
  25.6538880 133.1550630 112.3391130  24.1628280 151.2204540  97.4916680
  24.8947100 150.9363820  96.9440570  24.4221950 150.9817820  98.3816060
  23.3243070 147.3369270  97.4963010  22.6951950 147.8054370  98.0448840
  23.4390900 146.4918490  97.9309200  31.8734640 133.3682460 113.2829470
  31.7600090 133.6877070 114.1780990  32.6904380 133.7694970 112.9866750
  34.6533130 150.5153990 112.7648160  35.4458450 150.0203220 112.5574120
  34.9466280 151.1944130 113.3723770  30.7792790 141.3874930  83.6464210
  30.6986840 140.4729540  83.3755920  30.3657210 141.8842000  82.9403920
  28.9110830 143.1653950  85.5273480  28.1352930 142.6854390  85.8172050
  29.5623760 142.4859600  85.3529640  22.9276660 143.4773760  86.4049240
  22.0961540 143.2222470  86.8045750  23.5357640 143.5484530  87.1407160
  32.9318260 147.5714140  84.3072610  32.4699790 146.8001380  84.6359780
  33.7443810 147.5980210  84.8125060  22.9077920 147.5113850  86.6007260
  23.2105960 146.6211590  86.4217480  23.6521510 148.0684070  86.3729510
  21.3368610 138.4375650  80.1891630  20.4485310 138.7791620  80.0871510
  21.6209800 138.2375970  79.2972460  19.3001620 141.0381300  86.0731330
  19.8717730 140.2703500  86.0734970  19.3003160 141.3370060  85.1637940
  29.1581570 149.8572150  83.9276600  28.5393010 150.3129650  83.3571040
  30.0133350 150.0123610  83.5266300  28.3519820 145.8411140  85.5343640
  28.2828100 144.9001080  85.3732770  29.1139680 145.9312550  86.1066210
  20.5426490 136.4465660  87.8600260  20.3629330 135.5491410  88.1403020
  20.1406570 136.9937530  88.5347210  29.3824990 138.6481520  85.7612570
  29.7589810 137.7753400  85.6486240  29.2844500 138.9840220  84.8703010
  23.5130000 137.0207150  81.2230010  23.6196750 137.9210880  81.5298770
  22.6022360 136.9725120  80.9324660  33.1649110 136.1431960  82.6940910
  33.9858730 135.6528530  82.7366390  33.1983190 136.7329620  83.4472750
  21.1613160 138.9426160  86.4682600  21.8423270 139.2064530  87.0870000
  20.8461210 138.1027030  86.8020610  25.3537730 139.9893520  85.5555190
  25.8615950 140.4874490  86.1960210  25.8850970 139.2128720  85.3794550
  37.4548660 138.1598710  89.2584540  36.7500830 138.5480420  88.7399650
  37.7206580 138.8549000  89.8605470  23.6373830 134.6292080  89.8218610
  23.6392270 135.1464470  89.0164510  22.8078140 134.1522260  89.7988540
  30.0244920 144.7411390  81.3208510  29.4062190 145.2060840  80.7571230
  30.5368170 145.4338870  81.7378020  24.8876680 144.2687260  87.9992110
  24.5546060 144.8956180  88.6413180  25.0643360 144.7949140  87.2193780
  33.4010590 138.0832340  85.4668450  32.6966160 138.3717230  86.0471560
  33.7622750 138.8932450  85.1068010  23.3189160 136.3402040  87.8289060
  23.6605970 137.1844090  87.5342930  22.3804970 136.4885780  87.9454400
  24.0995780 146.2368060  89.8141290  24.7169780 146.9119140  89.5325740
  23.2388900 146.6456040  89.7228790  19.3928120 145.4267920  78.6948140
  19.0156100 145.9155020  77.9633040  19.6501190 146.0993200  79.3254670
  35.0173370 147.7007470  87.7295930  34.3336890 148.3706580  87.7212600
  35.5567660 147.8988120  86.9640790  36.4697510 137.5287130  85.8577660
  35.5222420 137.5626110  85.9893090  36.7947500 138.3426080  86.2427020
  27.0017050 133.8284310  84.1533650  27.3092030 133.2731200  83.4369150
  26.0717750 133.9628770  83.9706640  32.5532110 149.5451600  86.4441110
  32.5659270 149.1413890  85.5763370  32.0007330 150.3198890  86.3402540
  33.8477530 146.2667820  81.5331280  33.7373860 145.3242150  81.6580700
  33.8445780 146.6283460  82.4194040  31.9517550 144.4481440  87.7723720
  32.3686340 144.2341550  86.9377180  32.6757370 144.7054230  88.3432340
  29.3897810 141.8933140  80.8893770  28.4627090 141.8270520  81.1182240
  29.5422630 142.8313270  80.7749010  29.3766890 138.1650140  77.8860930
  28.4370560 138.3264100  77.9713390  29.6950150 138.8835820  77.3396920
  35.8979650 142.8468660  87.8639960  35.0698280 142.9161750  87.3890090
  36.4930130 143.4322970  87.3955790  33.4195100 143.4553440  81.3929020
  32.8007520 143.1172990  80.7455320  33.4019550 142.8113200  82.1008210
  32.8621660 139.6337980  88.8094830  32.4492840 140.4591690  89.0634820
  32.1297610 139.0483020  88.6171190  24.9954450 142.4197880  83.6713500
  24.5911450 141.7075130  83.1759400  25.0817570 142.0751120  84.5601540
  25.4636150 146.1065440  85.8352710  25.1664440 145.5010910  85.1560490
  26.4135970 146.1442750  85.7242070  23.7083070 139.1941090  87.4512540
  24.2597660 139.3036430  86.6765790  24.2226580 139.5678690  88.1667770
  33.5521760 149.6797310  89.4975810  33.0752320 150.4869500  89.3048420
  32.8683550 149.0275640  89.6502020  24.5554580 145.8447130  92.4860510
  23.6583110 146.0687100  92.7333910  24.5807450 145.9682070  91.5371910
  31.5959800 142.6940250  78.4001770  32.0353080 141.8562680  78.2539590
  32.3088220 143.3269650  78.4865910  23.3825800 142.7160450  91.0617880
  23.2433570 143.5883250  91.4305280  22.5007160 142.3733260  90.9165820
  29.7055180 147.6336320  82.3683010  30.1451090 148.3760650  81.9538400
  29.6442070 147.8762890  83.2921970  25.1806150 148.6582150  93.2703030
  25.1521580 149.0625100  92.4031460  25.0171120 147.7292510  93.1074630
  35.1776940 133.9483060  76.7142810  34.8649600 134.0409890  77.6141880
  35.9389410 134.5264090  76.6640240  21.6959080 141.3142860  81.1720150
  21.5756680 142.0404950  80.5601420  21.3859970 140.5445770  80.6948060
  37.1320970 149.4409250  94.5667200  37.6080690 149.9192140  95.2456280
  37.7528130 149.3726740  93.8412700  19.3344450 144.4858000  86.9788790
  19.4124870 144.6206770  86.0344510  19.9486130 143.7773890  87.1716910
  20.5792080 146.1858190  83.3894970  20.1720160 146.3272780  82.5348570
  21.4705090 145.9018350  83.1866180  36.5354220 146.6322100  91.7267210
  36.6617280 146.3933980  90.8084390  36.5775600 145.8006640  92.1989290
  30.3970960 150.3350100  90.2962020  30.9115630 150.2458110  91.0984450
  29.5540040 150.6809800  90.5889930  32.3725360 150.6205440  79.7246020
  32.2126500 150.3308380  80.6227850  32.2072070 149.8445570  79.1891250
  24.8513740 150.4003970  81.5017640  24.6756220 149.4839510  81.2885440
  23.9969480 150.7591260  81.7415440  32.0751490 148.1293000  78.2844020
  31.3816650 148.1270290  77.6246300  32.8174350 147.7052320  77.8538190
  31.6401420 149.7555710  82.3592510  32.0958370 148.9745090  82.6731130
  31.9793940 150.4662530  82.9033690  36.3878230 138.6854560  92.6916950
  35.7722500 139.1934230  92.1632410  36.0674650 137.7852890  92.6342890
  19.3903970 145.5272170  89.5183250  19.5535010 145.0577530  88.7002620
  19.8556420 145.0195730  90.1832090  24.1622740 134.6577930  84.5543820
  23.7190890 135.4387470  84.2228340  24.7207730 134.9807820  85.2614760
  28.4492550 137.5246450  90.1579140  27.9871920 137.7329470  90.9699080
  28.0470660 136.7105800  89.8549810  33.4497060 138.7455400  91.2875800
  32.5990650 138.4461150  91.6084870  33.2898850 138.9897410  90.3759620
  30.5446770 140.2457150  93.3874590  30.8700180 139.4120900  93.0476820
  31.3327100 140.7685670  93.5352920  27.2781560 134.2788630  79.4349650
  26.6535740 134.2748500  80.1602960  27.1911680 133.4119590  79.0385620
  26.1998640 135.2025260  86.4133420  26.4970970 136.1088090  86.3325440
  26.7484200 134.7144040  85.7992990  23.9536960 139.7811500  82.2825070
  23.7277880 139.5648670  83.1871690  23.1729490 140.2139960  81.9371040
  31.1834720 139.7874870  80.8815720  30.5843610 140.5110670  80.6979340
  31.7314330 139.7251650  80.0992170  26.3936170 140.6797080  92.9485340
  26.2979770 139.7391810  92.7985740  27.2368150 140.9012150  92.5533410
  29.7899590 138.4238410  82.9119000  30.1829160 138.7410610  82.0987690
  30.1516440 137.5450290  83.0263520  21.5246710 137.0910750  91.1019120
  21.1310100 137.9385960  91.3091900  20.8365110 136.4537120  91.2927760
  28.0991760 137.1745720  94.1715860  27.4090080 136.9817920  94.8061950
  28.8424060 137.4580360  94.7040160  18.8263760 135.0139210  85.1349200
  18.5376810 135.5842070  85.8474180  19.5709520 134.5343660  85.4980430
  19.0133990 138.9559330  76.3451920  18.9308660 139.8990090  76.4866910
  18.6617050 138.8134240  75.4664270  30.3754730 141.0144160  87.0069780
  29.6435850 141.5230970  87.3559880  29.9779070 140.1974140  86.7058560
  26.8132120 137.6898360  85.4122270  26.8168180 137.2488310  84.5626810
  27.7083240 138.0115690  85.5194090  22.6634500 137.5724850  84.3716480
  22.3234550 138.0500080  85.1283530  21.9011820 137.1189970  84.0117580
  26.8752270 138.6910440  78.4029030  26.9965090 138.6496920  79.3514850
  26.4900780 139.5534590  78.2475760  30.8380640 136.4677840  86.4192720
  30.8553380 136.9186490  87.2634570  30.5896220 135.5683480  86.6326160
  25.8873770 141.0011580  77.8012330  25.3190670 140.5529830  77.1748240
  26.5962770 141.3604360  77.2677480  34.2651390 133.8810020  92.2579100
  34.5897160 133.1499680  92.7837080  34.3007900 133.5623660  91.3560090
  20.9642950 144.9023600  91.6779060  20.5797740 144.2617270  92.2762020
  21.2755140 145.6059720  92.2473790  27.1140090 141.7500140  87.1587680
  27.4810220 141.2758710  87.9049020  26.9245150 142.6241710  87.4996020
  19.9780580 136.4943830  83.2881150  19.6927500 136.1299500  84.1259770
  19.9159440 135.7624290  82.6744290  24.9039460 140.7908780  89.4771890
  24.5996530 141.6700760  89.7022250  25.8585920 140.8508570  89.5129330
  23.4321250 144.9969770  80.0738740  22.6583510 144.4567390  79.9137460
  24.1615880 144.4776380  79.7356500  34.1909230 143.9935130  85.8665130
  34.9108350 144.4890420  85.4761240  33.9891050 143.3153020  85.2219000
  29.6519170 135.3873090  80.0094520  28.8383780 134.8886260  79.9339830
  29.4581120 136.2271340  79.5930870  29.5728030 144.0644190  91.7534130
  29.5065340 143.1439860  91.4991720  28.9433170 144.1619630  92.4678770
  32.3667560 139.7592740  78.3056680  33.2547180 140.0709970  78.1308020
  32.3372650 138.8864990  77.9137260  23.4758650 144.6650150  83.7117550
  23.9937320 143.8618410  83.6574440  23.0242670 144.6029290  84.5534380
  28.3628150 145.9316430  78.9844850  28.7043850 146.6758660  78.4888170
  27.5340860 146.2447550  79.3469680  20.9603190 141.6311520  90.6243250
  20.6018130 142.2965370  91.2116590  20.6657750 140.7995070  90.9955870
  24.1616310 142.0895760  93.5082800  23.8616450 142.2352940  92.6110620
  24.9327550 141.5301050  93.4156190  29.5044760 146.8864760  91.5037930
  29.5189300 145.9545720  91.2856840  28.7969860 146.9724520  92.1427700
  34.6381830 141.0704580  77.7736540  34.5545550 141.5018800  76.9232980
  35.3576020 141.5302930  78.2063360  35.7155970 143.5272100  90.8506510
  34.9904160 144.1200880  90.6535900  36.2431430 143.5195640  90.0519880
  35.6669080 147.9246840  80.5018670  35.0245240 147.2702460  80.7762390
  35.2799740 148.3301930  79.7259340  31.2455560 145.2532270  84.3490360
  31.5979380 144.6560400  83.6891730  30.3617890 144.9276500  84.5198610
  27.3318840 146.0129960  81.7560770  28.0189970 146.5599170  82.1368360
  26.5451260 146.5570690  81.7910380  19.4711240 141.6302780  77.2477850
  20.3406090 141.9127580  77.5313770  18.9801560 142.4438650  77.1326660
  26.6346050 143.0175990  81.3686130  27.0908830 143.8281240  81.5946320
  26.2834260 142.6999130  82.2004620  28.9378660 148.5282330  88.5978430
  29.5820880 148.7341710  89.2751850  29.3008100 147.7670730  88.1449280
  22.5357830 133.3613640  81.8408650  22.4072460 133.3531540  82.7893570
  21.7119850 133.6996730  81.4899660  30.2110740 146.5314680  87.3155880
  30.8532970 145.8307840  87.4288050  30.7360090 147.3113120  87.1352770
  34.0566460 146.8163300  77.0395020  33.8304040 146.0993740  77.6319660
  33.6662660 146.5675740  76.2016770  31.9848360 147.3309580  90.5191940
  32.3204600 147.9176270  91.1969860  31.0648700 147.2002290  90.7489730
  19.8382490 150.8430160  77.8139480  20.1980130 151.4419500  77.1596750
  19.6974830 151.3890050  78.5874510  19.5351760 135.1204760  91.3015350
  18.8210280 135.3201680  91.9067960  19.9546800 134.3444330  91.6730150
  33.6382710 144.7335240  78.7009180  33.3504410 145.1947930  79.4887060
  34.4334880 144.2733010  78.9693400  19.8224350 149.1085020  92.2881880
  19.9315470 148.1679760  92.1477270  19.1704910 149.3739770  91.6395610
  27.8136940 147.3800910  93.6880000  27.4933810 146.6610150  94.2325690
  27.1395300 148.0555980  93.7616060  25.8551110 148.2261360  78.6313150
  25.8461210 148.9591050  78.0157660  24.9349470 147.9792940  78.7240110
  21.4557750 143.4476250  79.3759910  20.8485700 144.1875150  79.3855210
  21.9307100 143.5375610  78.5498110  31.0290540 137.6127070  89.0516800
  31.3971360 136.7922280  89.3796370  30.1688740 137.6728960  89.4672450
  34.3952570 136.5684010  79.8604360  33.7665730 136.6729680  79.1462590
  33.9004490 136.7880790  80.6498240  28.8410710 148.2889600  77.2938340
  28.9422690 148.0853590  76.3640320  27.9412450 148.0347880  77.4986120
  26.3636600 138.8469960  81.2762240  25.6552750 139.3156300  81.7175850
  26.6481080 138.1891970  81.9107430  27.9892530 140.2666660  89.2754770
  28.4877780 140.7412480  89.9406620  28.1315480 139.3430180  89.4824800
  30.3952030 135.5720620  82.7158030  30.2719810 135.5906750  81.7667540
  31.3436590 135.6199560  82.8356430  27.4828820 150.8075920  81.9886010
  27.7370320 150.7697310  81.0665380  26.5341300 150.6809250  81.9814260
  24.5671620 137.1555040  78.6512950  25.4162150 137.5925190  78.5853140
  24.2002890 137.4675300  79.4785010  35.1959390 136.4834620  90.1183160
  34.6932990 137.2240020  90.4576970  36.0116050 136.8718620  89.8019950
  33.4881400 141.7267800  83.5644520  32.5471540 141.7418030  83.7392210
  33.8025470 140.9403760  84.0104820  23.4663040 143.4087400  77.1248480
  24.2326310 143.2968760  77.6873910  23.5437730 142.7125370  76.4725250
  22.1609800 140.8412470  77.8081370  22.2413390 139.8939980  77.9198770
  23.0529550 141.1719350  77.9142030  35.4906980 148.8976650  85.2398780
  35.6154400 149.7207820  85.7122590  36.3572540 148.6867380  84.8922930
  19.8469990 147.0581430  80.7857420  18.9209770 147.3002570  80.7762830
  20.3126420 147.8855690  80.6642170  21.9682790 150.1753930  94.1001490
  22.7695520 150.4965980  94.5136890  21.4534610 149.8149510  94.8221400
  26.0726820 150.1638170  76.7341480  26.8655430 150.4527000  76.2823270
  25.5531170 149.7330340  76.0553960  30.8047420 146.2833800  94.0476900
  30.1985580 146.3065400  93.3072650  30.5001530 145.5516840  94.5844150
  32.2347790 150.0114090  92.6586310  33.1869540 149.9272110  92.6086550
  32.0876010 150.6755800  93.3320100  35.1256990 149.3908300  78.1578220
  34.8398500 148.9773440  77.3432400  34.9276540 150.3196010  78.0378740
  19.6880600 142.6627390  93.0437540  20.1919620 142.0834670  93.6153770
  18.9488020 142.9467620  93.5813910  26.5904220 145.3841580  76.5983830
  26.4854860 144.7693930  77.3245210  26.4228440 144.8607470  75.8146840
  26.7418540 144.0698380  92.5773060  25.9764210 144.6383380  92.4927730
  26.9234500 143.7774590  91.6841290  29.8306950 144.4461610  77.2025820
  29.2817050 144.8930910  77.8468560  30.4526210 143.9410860  77.7263490
  33.8841890 145.8003710  93.1348080  34.6251360 146.1379470  92.6315540
  33.1214570 145.9695770  92.5817850  21.7203680 140.8056980  93.9387610
  21.7609020 140.5070850  94.8472840  22.5749180 141.2064590  93.7795130
  25.4982070 143.4052530  79.0991120  25.9198490 143.2392400  79.9422510
  25.6232910 142.5952760  78.6046260  23.6609490 139.3849080  91.9062100
  23.1305950 138.8940030  91.2785440  24.3297560 139.8133280  91.3720030
  28.0109710 142.4290140  76.3468220  28.5315370 141.7139160  75.9809370
  28.6578110 143.0676010  76.6468730  32.5587550 143.8518540  91.6703290
  32.9728570 144.0063620  92.5193710  31.6238550 143.9773760  91.8329070
  33.0309720 141.1914700  93.6742440  33.6130490 140.4367020  93.5862920
  33.2071490 141.7222140  92.8973920  24.1481790 136.3511450  91.9859390
  24.0538660 135.7332200  91.2610260  23.5679180 137.0777740  91.7589300
  26.9143230 134.9084690  89.0186780  26.4660530 134.9308950  88.1732330
  26.2808430 134.5103710  89.6157080  27.3202780 143.8039020  89.6399220
  27.7390890 144.6471750  89.4675460  26.4011410 143.9411060  89.4106000
  29.6566680 141.5355200  91.0237060  29.7762890 140.9396340  91.7631900
  30.5160680 141.5724890  90.6038360  31.9954580 142.0892390  89.5999570
  31.4689800 142.6135010  88.9964710  32.3385920 142.7219780  90.2309300
  24.3940970 139.4785760  76.0449280  24.1930030 138.6153120  76.4062620
  24.2233020 139.3919120  75.1070880  25.1710200 150.1092030  90.7556950
  24.6331290 150.8338090  90.4365650  25.4244160 149.6322370  89.9654290
  26.4235450 138.0776550  92.2812880  27.0135140 137.7692400  92.9690700
  25.6055690 137.6056300  92.4372780  31.2428880 137.6942360  92.5145900
  30.5544400 137.0323900  92.4495890  31.9634900 137.2480630  92.9594360
  31.8729280 134.2893990  78.5736160  32.1531570 133.4461890  78.9295580
  31.0995010 134.5217100  79.0874910  23.1923770 136.5786380  76.0327160
  23.4949670 136.5853810  75.1246310  23.9318360 136.2284240  76.5294820
  26.4108700 135.5221000  77.0183360  26.0630700 134.8444990  76.4385810
  26.6121470 135.0610510  77.8326750  28.5757740 150.5101750  78.6369960
  29.4708530 150.8486720  78.6588720  28.6075370 149.7881160  78.0094240
  22.2153900 145.8828800  76.8656960  22.6528770 146.4258470  77.5214540
  22.7001630 145.0575750  76.8753300  19.4299700 148.6717830  84.3177220
  19.7602710 147.8038890  84.0855860  19.8590700 148.8776350  85.1482180
  24.0261620 147.0026840  81.9779190  23.7257160 146.8791810  82.8783100
  23.9199110 146.1435430  81.5694920  19.9189910 149.5388420  87.0558850
  19.4820900 149.7189220  87.8883000  20.4867590 150.2963040  86.9140570
  35.5552090 149.0405420  91.3436160  34.9554080 149.0997980  90.6000080
  35.6845990 148.1010400  91.4733010  36.7953540 146.7823240  76.6805870
  35.9646500 146.8499890  77.1513100  36.9725370 147.6727360  76.3772730
  36.2510000 143.5270720  79.1840070  37.0128910 144.0967370  79.2899760
  36.2664370 142.9597920  79.9548380  19.7514340 142.0508650  83.4147730
  19.0963180 141.7820290  82.7707430  20.5892290 141.9413130  82.9649710
  37.2569970 144.3820820  84.0282000  37.6278800 143.5988140  83.6217970
  37.8971900 145.0709920  83.8499300  34.2403730 145.7657400  89.4412320
  33.4263570 146.1954560  89.7038110  34.6477930 146.3775810  88.8281370
  36.3029170 143.8205090  76.3412590  36.5778010 144.7283970  76.2131810
  36.1139910 143.7567620  77.2774580  32.7004780 136.8449940  77.6366220
  33.1189660 136.6580920  76.7962880  32.3940840 135.9928990  77.9469150
  36.1994510 141.7574080  81.3342020  35.8238110 140.9902010  80.9023310
  35.4697630 142.1396780  81.8216950  20.7890270 142.4361220  87.9551070
  21.1563310 142.3488620  88.8347090  20.2201090 141.6727770  87.8557930
  35.5894130 140.9045600  90.9681540  35.3580220 140.6758350  90.0679490
  35.8498680 141.8245150  90.9226430  20.3406270 139.3470310  91.8609490
  19.4462320 139.3137070  92.2003200  20.8803820 139.5457100  92.6260740
  34.0282200 136.1302030  93.7461240  34.9052380 136.1385430  94.1295240
  34.0403040 135.3932870  93.1353590  18.9652420 139.2607580  79.3573060
  18.0616500 139.5237780  79.1824720  19.4493040 139.5318750  78.5773020
  35.4745470 139.9831570  84.6349260  35.9982950 139.4894220  84.0039430
  36.0604890 140.1181930  85.3796830  35.6535190 140.0671440  88.1568810
  34.7037900 140.0334980  88.2713800  35.8348200 140.9771550  87.9218580
  21.5079630 138.3173120  77.2667440  22.2171330 137.8956340  76.7814720
  20.7919570 138.3848350  76.6350790  21.1553790 134.3712450  76.3070090
  21.8781920 134.9121390  76.6251310  21.4278310 134.0975870  75.4311630
  34.9645440 139.2404920  80.5741670  35.4604560 139.0075790  81.3590550
  34.7661510 138.4016760  80.1579310  20.8445980 133.6218640  86.2092710
  21.4922170 133.0716020  85.7687870  21.2647820 133.8761790  87.0308520
  36.3932600 137.8765870  83.1079350  36.2831880 137.7221910  84.0461620
  37.1540190 137.3486810  82.8654760  34.7398320 133.8160000  89.5662350
  35.3770540 134.4294140  89.9321540  34.8873210 133.8520660  88.6211580
  37.2822870 135.7073790  76.3485490  38.2072180 135.5754970  76.1403780
  37.2598660 135.7866610  77.3021940  37.3561360 136.4784450  78.9742200
  36.5612860 136.4129570  79.5035110  37.5604640 137.4135090  78.9627550
  34.2979780 150.5176000  82.9680590  34.8938850 150.1960570  82.2915010
  34.5557930 150.0447820  83.7593860  20.5977980 133.7774310  88.9518030
  20.2492800 134.2338130  89.7176210  20.2665680 132.8831440  89.0340460
  22.2042350 146.9493910  93.1171220  22.1611980 146.5786820  93.9985680
  22.3353360 147.8871480  93.2573040  25.9048380 148.5053500  88.7180940
  25.6639740 148.7728060  87.8311460  26.8451020 148.6759230  88.7731800
  28.1102800 134.9686190  92.4737450  28.0491690 135.5608020  93.2232860
  29.0503180 134.8612150  92.3287710  30.7477360 134.6256250  92.1129740
  31.3617770 134.9435540  91.4510820  31.2926920 134.1404840  92.7325600
  37.1652540 150.5247880  89.5191580  36.6710820 150.9216750  88.8018710
  36.5565830 149.8997090  89.9128860  21.2698620 133.3050510  92.2268800
  21.8181610 133.1238560  91.4634910  21.3353930 132.5144620  92.7625110
  22.0430380 149.8956160  90.2369000  21.4490700 149.7640860  90.9759040
  22.0354220 149.0594300  89.7711100  31.4885400 133.1888390  88.4399030
  30.6145240 133.5223500  88.2371960  31.3796150 132.7161570  89.2650900
  32.3957380 135.3959260  89.8240750  32.0670740 134.5811020  89.4442480
  33.3439680 135.3529070  89.7006440  21.6742610 147.2614540  89.1877040
  20.9476670 146.6419830  89.1202990  21.7351760 147.6555150  88.3175120
  25.2787710 149.4759540  85.9726450  25.7952730 148.8646900  85.4474710
  25.9285090 149.9788320  86.4637460  28.0183210 150.3668030  86.7995430
  28.3061020 150.1122330  85.9228440  28.5306430 149.8145390  87.3901000
  29.2360220 134.1058230  87.3791940  28.4532010 134.5803730  87.6588700
  28.9423150 133.2013060  87.2705120  33.7881290 134.8081330  85.4241030
  34.2289380 134.7526430  84.5762630  33.5188880 135.7239340  85.4951210
  35.6519860 134.4396570  83.4349850  35.5908260 133.4957790  83.2880870
  36.4311890 134.5476660  83.9803310  19.9572610 150.5788930  82.3973800
  19.7894650 149.9459610  83.0955690  19.0907120 150.7848330  82.0467990
  20.5800630 134.4105710  79.9005660  21.3379990 134.5234590  79.3269690
  20.1177800 135.2474910  79.8549090  27.1214440 136.5244980  82.8907970
  26.3088950 136.1501870  82.5503850  27.6256080 135.7690060  83.1929160
  31.6239420 133.1887430  84.1291040  32.2268790 133.7607640  84.6039560
  30.8832410 133.7526870  83.9064940  34.7674020 133.5908990  79.4031320
  34.9624650 134.4892440  79.6698750  33.9803890 133.3596070  79.8964270
  21.5635310 149.2722160  79.8423940  21.0382930 149.6530190  79.1385900
  21.4879890 149.8972930  80.5633650  22.9525780 134.9369760  78.4407630
  23.4818540 134.1499560  78.3115580  23.5854100 135.6160950  78.6743160
  25.1463620 134.6744900  81.4953020  24.5166360 133.9732210  81.6623150
  24.6068760 135.4349030  81.2786180  36.3200630 150.8309700  81.1637880
  36.4952820 150.1447440  80.5198800  35.6222200 151.3556750  80.7714550
  25.2719180 133.9528880  93.9305510  24.9903450 134.4562480  93.1666330
  25.6538880 133.1550630  93.5647640  24.1628280 151.2204540  78.7173190
  24.8947100 150.9363820  78.1697080  24.4221950 150.9817820  79.6072570
  23.3243070 147.3369270  78.7219520  22.6951950 147.8054370  79.2705350
  23.4390900 146.4918490  79.1565710  31.8734640 133.3682460  94.5085980
  31.7600090 133.6877070  95.4037500  32.6904380 133.7694970  94.2123260
  34.6533130 150.5153990  93.9904670  35.4458450 150.0203220  93.7830630
  34.9466280 151.1944130  94.5980280  30.7792790 141.3874930  64.8720720
  30.6986840 140.4729540  64.6012430  30.3657210 141.8842000  64.1660430
  28.9110830 143.1653950  66.7529990  28.1352930 142.6854390  67.0428560
  29.5623760 142.4859600  66.5786150  22.9276660 143.4773760  67.6305750
  22.0961540 143.2222470  68.0302260  23.5357640 143.5484530  68.3663670
  32.9318260 147.5714140  65.5329120  32.4699790 146.8001380  65.8616290
  33.7443810 147.5980210  66.0381570  22.9077920 147.5113850  67.8263770
  23.2105960 146.6211590  67.6473990  23.6521510 148.0684070  67.5986020
  21.3368610 138.4375650  61.4148140  20.4485310 138.7791620  61.3128020
  21.6209800 138.2375970  60.5228970  19.3001620 141.0381300  67.2987840
  19.8717730 140.2703500  67.2991480  19.3003160 141.3370060  66.3894450
  29.1581570 149.8572150  65.1533110  28.5393010 150.3129650  64.5827550
  30.0133350 150.0123610  64.7522810  28.3519820 145.8411140  66.7600150
  28.2828100 144.9001080  66.5989280  29.1139680 145.9312550  67.3322720
  20.5426490 136.4465660  69.0856770  20.3629330 135.5491410  69.3659530
  20.1406570 136.9937530  69.7603720  29.3824990 138.6481520  66.9869080
  29.7589810 137.7753400  66.8742750  29.2844500 138.9840220  66.0959520
  23.5130000 137.0207150  62.4486520  23.6196750 137.9210880  62.7555280
  22.6022360 136.9725120  62.1581170  33.1649110 136.1431960  63.9197420
  33.9858730 135.6528530  63.9622900  33.1983190 136.7329620  64.6729260
  21.1613160 138.9426160  67.6939110  21.8423270 139.2064530  68.3126510
  20.8461210 138.1027030  68.0277120  25.3537730 139.9893520  66.7811700
  25.8615950 140.4874490  67.4216720  25.8850970 139.2128720  66.6051060
  37.4548660 138.1598710  70.4841050  36.7500830 138.5480420  69.9656160
  37.7206580 138.8549000  71.0861980  23.6373830 134.6292080  71.0475120
  23.6392270 135.1464470  70.2421020  22.8078140 134.1522260  71.0245050
  30.0244920 144.7411390  62.5465020  29.4062190 145.2060840  61.9827740
  30.5368170 145.4338870  62.9634530  24.8876680 144.2687260  69.2248620
  24.5546060 144.8956180  69.8669690  25.0643360 144.7949140  68.4450290
  33.4010590 138.0832340  66.6924960  32.6966160 138.3717230  67.2728070
  33.7622750 138.8932450  66.3324520  23.3189160 136.3402040  69.0545570
  23.6605970 137.1844090  68.7599440  22.3804970 136.4885780  69.1710910
  24.0995780 146.2368060  71.0397800  24.7169780 146.9119140  70.7582250
  23.2388900 146.6456040  70.9485300  19.3928120 145.4267920  59.9204650
  19.0156100 145.9155020  59.1889550  19.6501190 146.0993200  60.5511180
  35.0173370 147.7007470  68.9552440  34.3336890 148.3706580  68.9469110
  35.5567660 147.8988120  68.1897300  36.4697510 137.5287130  67.0834170
  35.5222420 137.5626110  67.2149600  36.7947500 138.3426080  67.4683530
  27.0017050 133.8284310  65.3790160  27.3092030 133.2731200  64.6625660
  26.0717750 133.9628770  65.1963150  32.5532110 149.5451600  67.6697620
  32.5659270 149.1413890  66.8019880  32.0007330 150.3198890  67.5659050
  33.8477530 146.2667820  62.7587790  33.7373860 145.3242150  62.8837210
  33.8445780 146.6283460  63.6450550  31.9517550 144.4481440  68.9980230
  32.3686340 144.2341550  68.1633690  32.6757370 144.7054230  69.5688850
  29.3897810 141.8933140  62.1150280  28.4627090 141.8270520  62.3438750
  29.5422630 142.8313270  62.0005520  29.3766890 138.1650140  59.1117440
  28.4370560 138.3264100  59.1969900  29.6950150 138.8835820  58.5653430
  35.8979650 142.8468660  69.0896470  35.0698280 142.9161750  68.6146600
  36.4930130 143.4322970  68.6212300  33.4195100 143.4553440  62.6185530
  32.8007520 143.1172990  61.9711830  33.4019550 142.8113200  63.3264720
  32.8621660 139.6337980  70.0351340  32.4492840 140.4591690  70.2891330
  32.1297610 139.0483020  69.8427700  24.9954450 142.4197880  64.8970010
  24.5911450 141.7075130  64.4015910  25.0817570 142.0751120  65.7858050
  25.4636150 146.1065440  67.0609220  25.1664440 145.5010910  66.3817000
  26.4135970 146.1442750  66.9498580  23.7083070 139.1941090  68.6769050
  24.2597660 139.3036430  67.9022300  24.2226580 139.5678690  69.3924280
  33.5521760 149.6797310  70.7232320  33.0752320 150.4869500  70.5304930
  32.8683550 149.0275640  70.8758530  24.5554580 145.8447130  73.7117020
  23.6583110 146.0687100  73.9590420  24.5807450 145.9682070  72.7628420
  31.5959800 142.6940250  59.6258280  32.0353080 141.8562680  59.4796100
  32.3088220 143.3269650  59.7122420  23.3825800 142.7160450  72.2874390
  23.2433570 143.5883250  72.6561790  22.5007160 142.3733260  72.1422330
  29.7055180 147.6336320  63.5939520  30.1451090 148.3760650  63.1794910
  29.6442070 147.8762890  64.5178480  25.1806150 148.6582150  74.4959540
  25.1521580 149.0625100  73.6287970  25.0171120 147.7292510  74.3331140
  35.1776940 133.9483060  57.9399320  34.8649600 134.0409890  58.8398390
  35.9389410 134.5264090  57.8896750  21.6959080 141.3142860  62.3976660
  21.5756680 142.0404950  61.7857930  21.3859970 140.5445770  61.9204570
  37.1320970 149.4409250  75.7923710  37.6080690 149.9192140  76.4712790
  37.7528130 149.3726740  75.0669210  19.3344450 144.4858000  68.2045300
  19.4124870 144.6206770  67.2601020  19.9486130 143.7773890  68.3973420
  20.5792080 146.1858190  64.6151480  20.1720160 146.3272780  63.7605080
  21.4705090 145.9018350  64.4122690  36.5354220 146.6322100  72.9523720
  36.6617280 146.3933980  72.0340900  36.5775600 145.8006640  73.4245800
  30.3970960 150.3350100  71.5218530  30.9115630 150.2458110  72.3240960
  29.5540040 150.6809800  71.8146440  32.3725360 150.6205440  60.9502530
  32.2126500 150.3308380  61.8484360  32.2072070 149.8445570  60.4147760
  24.8513740 150.4003970  62.7274150  24.6756220 149.4839510  62.5141950
  23.9969480 150.7591260  62.9671950  32.0751490 148.1293000  59.5100530
  31.3816650 148.1270290  58.8502810  32.8174350 147.7052320  59.0794700
  31.6401420 149.7555710  63.5849020  32.0958370 148.9745090  63.8987640
  31.9793940 150.4662530  64.1290200  36.3878230 138.6854560  73.9173460
  35.7722500 139.1934230  73.3888920  36.0674650 137.7852890  73.8599400
  19.3903970 145.5272170  70.7439760  19.5535010 145.0577530  69.9259130
  19.8556420 145.0195730  71.4088600  24.1622740 134.6577930  65.7800330
  23.7190890 135.4387470  65.4484850  24.7207730 134.9807820  66.4871270
  28.4492550 137.5246450  71.3835650  27.9871920 137.7329470  72.1955590
  28.0470660 136.7105800  71.0806320  33.4497060 138.7455400  72.5132310
  32.5990650 138.4461150  72.8341380  33.2898850 138.9897410  71.6016130
  30.5446770 140.2457150  74.6131100  30.8700180 139.4120900  74.2733330
  31.3327100 140.7685670  74.7609430  27.2781560 134.2788630  60.6606160
  26.6535740 134.2748500  61.3859470  27.1911680 133.4119590  60.2642130
  26.1998640 135.2025260  67.6389930  26.4970970 136.1088090  67.5581950
  26.7484200 134.7144040  67.0249500  23.9536960 139.7811500  63.5081580
  23.7277880 139.5648670  64.4128200  23.1729490 140.2139960  63.1627550
  31.1834720 139.7874870  62.1072230  30.5843610 140.5110670  61.9235850
  31.7314330 139.7251650  61.3248680  26.3936170 140.6797080  74.1741850
  26.2979770 139.7391810  74.0242250  27.2368150 140.9012150  73.7789920
  29.7899590 138.4238410  64.1375510  30.1829160 138.7410610  63.3244200
  30.1516440 137.5450290  64.2520030  21.5246710 137.0910750  72.3275630
  21.1310100 137.9385960  72.5348410  20.8365110 136.4537120  72.5184270
  28.0991760 137.1745720  75.3972370  27.4090080 136.9817920  76.0318460
  28.8424060 137.4580360  75.9296670  18.8263760 135.0139210  66.3605710
  18.5376810 135.5842070  67.0730690  19.5709520 134.5343660  66.7236940
  19.0133990 138.9559330  57.5708430  18.9308660 139.8990090  57.7123420
  18.6617050 138.8134240  56.6920780  30.3754730 141.0144160  68.2326290
  29.6435850 141.5230970  68.5816390  29.9779070 140.1974140  67.9315070
  26.8132120 137.6898360  66.6378780  26.8168180 137.2488310  65.7883320
  27.7083240 138.0115690  66.7450600  22.6634500 137.5724850  65.5972990
  22.3234550 138.0500080  66.3540040  21.9011820 137.1189970  65.2374090
  26.8752270 138.6910440  59.6285540  26.9965090 138.6496920  60.5771360
  26.4900780 139.5534590  59.4732270  30.8380640 136.4677840  67.6449230
  30.8553380 136.9186490  68.4891080  30.5896220 135.5683480  67.8582670
  25.8873770 141.0011580  59.0268840  25.3190670 140.5529830  58.4004750
  26.5962770 141.3604360  58.4933990  34.2651390 133.8810020  73.4835610
  34.5897160 133.1499680  74.0093590  34.3007900 133.5623660  72.5816600
  20.9642950 144.9023600  72.9035570  20.5797740 144.2617270  73.5018530
  21.2755140 145.6059720  73.4730300  27.1140090 141.7500140  68.3844190
  27.4810220 141.2758710  69.1305530  26.9245150 142.6241710  68.7252530
  19.9780580 136.4943830  64.5137660  19.6927500 136.1299500  65.3516280
  19.9159440 135.7624290  63.9000800  24.9039460 140.7908780  70.7028400
  24.5996530 141.6700760  70.9278760  25.8585920 140.8508570  70.7385840
  23.4321250 144.9969770  61.2995250  22.6583510 144.4567390  61.1393970
  24.1615880 144.4776380  60.9613010  34.1909230 143.9935130  67.0921640
  34.9108350 144.4890420  66.7017750  33.9891050 143.3153020  66.4475510
  29.6519170 135.3873090  61.2351030  28.8383780 134.8886260  61.1596340
  29.4581120 136.2271340  60.8187380  29.5728030 144.0644190  72.9790640
  29.5065340 143.1439860  72.7248230  28.9433170 144.1619630  73.6935280
  32.3667560 139.7592740  59.5313190  33.2547180 140.0709970  59.3564530
  32.3372650 138.8864990  59.1393770  23.4758650 144.6650150  64.9374060
  23.9937320 143.8618410  64.8830950  23.0242670 144.6029290  65.7790890
  28.3628150 145.9316430  60.2101360  28.7043850 146.6758660  59.7144680
  27.5340860 146.2447550  60.5726190  20.9603190 141.6311520  71.8499760
  20.6018130 142.2965370  72.4373100  20.6657750 140.7995070  72.2212380
  24.1616310 142.0895760  74.7339310  23.8616450 142.2352940  73.8367130
  24.9327550 141.5301050  74.6412700  29.5044760 146.8864760  72.7294440
  29.5189300 145.9545720  72.5113350  28.7969860 146.9724520  73.3684210
  34.6381830 141.0704580  58.9993050  34.5545550 141.5018800  58.1489490
  35.3576020 141.5302930  59.4319870  35.7155970 143.5272100  72.0763020
  34.9904160 144.1200880  71.8792410  36.2431430 143.5195640  71.2776390
  35.6669080 147.9246840  61.7275180  35.0245240 147.2702460  62.0018900
  35.2799740 148.3301930  60.9515850  31.2455560 145.2532270  65.5746870
  31.5979380 144.6560400  64.9148240  30.3617890 144.9276500  65.7455120
  27.3318840 146.0129960  62.9817280  28.0189970 146.5599170  63.3624870
  26.5451260 146.5570690  63.0166890  19.4711240 141.6302780  58.4734360
  20.3406090 141.9127580  58.7570280  18.9801560 142.4438650  58.3583170
  26.6346050 143.0175990  62.5942640  27.0908830 143.8281240  62.8202830
  26.2834260 142.6999130  63.4261130  28.9378660 148.5282330  69.8234940
  29.5820880 148.7341710  70.5008360  29.3008100 147.7670730  69.3705790
  22.5357830 133.3613640  63.0665160  22.4072460 133.3531540  64.0150080
  21.7119850 133.6996730  62.7156170  30.2110740 146.5314680  68.5412390
  30.8532970 145.8307840  68.6544560  30.7360090 147.3113120  68.3609280
  34.0566460 146.8163300  58.2651530  33.8304040 146.0993740  58.8576170
  33.6662660 146.5675740  57.4273280  31.9848360 147.3309580  71.7448450
  32.3204600 147.9176270  72.4226370  31.0648700 147.2002290  71.9746240
  19.8382490 150.8430160  59.0395990  20.1980130 151.4419500  58.3853260
  19.6974830 151.3890050  59.8131020  19.5351760 135.1204760  72.5271860
  18.8210280 135.3201680  73.1324470  19.9546800 134.3444330  72.8986660
  33.6382710 144.7335240  59.9265690  33.3504410 145.1947930  60.7143570
  34.4334880 144.2733010  60.1949910  19.8224350 149.1085020  73.5138390
  19.9315470 148.1679760  73.3733780  19.1704910 149.3739770  72.8652120
  27.8136940 147.3800910  74.9136510  27.4933810 146.6610150  75.4582200
  27.1395300 148.0555980  74.9872570  25.8551110 148.2261360  59.8569660
  25.8461210 148.9591050  59.2414170  24.9349470 147.9792940  59.9496620
  21.4557750 143.4476250  60.6016420  20.8485700 144.1875150  60.6111720
  21.9307100 143.5375610  59.7754620  31.0290540 137.6127070  70.2773310
  31.3971360 136.7922280  70.6052880  30.1688740 137.6728960  70.6928960
  34.3952570 136.5684010  61.0860870  33.7665730 136.6729680  60.3719100
  33.9004490 136.7880790  61.8754750  28.8410710 148.2889600  58.5194850
  28.9422690 148.0853590  57.5896830  27.9412450 148.0347880  58.7242630
  26.3636600 138.8469960  62.5018750  25.6552750 139.3156300  62.9432360
  26.6481080 138.1891970  63.1363940  27.9892530 140.2666660  70.5011280
  28.4877780 140.7412480  71.1663130  28.1315480 139.3430180  70.7081310
  30.3952030 135.5720620  63.9414540  30.2719810 135.5906750  62.9924050
  31.3436590 135.6199560  64.0612940  27.4828820 150.8075920  63.2142520
  27.7370320 150.7697310  62.2921890  26.5341300 150.6809250  63.2070770
  24.5671620 137.1555040  59.8769460  25.4162150 137.5925190  59.8109650
  24.2002890 137.4675300  60.7041520  35.1959390 136.4834620  71.3439670
  34.6932990 137.2240020  71.6833480  36.0116050 136.8718620  71.0276460
  33.4881400 141.7267800  64.7901030  32.5471540 141.7418030  64.9648720
  33.8025470 140.9403760  65.2361330  23.4663040 143.4087400  58.3504990
  24.2326310 143.2968760  58.9130420  23.5437730 142.7125370  57.6981760
  22.1609800 140.8412470  59.0337880  22.2413390 139.8939980  59.1455280
  23.0529550 141.1719350  59.1398540  35.4906980 148.8976650  66.4655290
  35.6154400 149.7207820  66.9379100  36.3572540 148.6867380  66.1179440
  19.8469990 147.0581430  62.0113930  18.9209770 147.3002570  62.0019340
  20.3126420 147.8855690  61.8898680  21.9682790 150.1753930  75.3258000
  22.7695520 150.4965980  75.7393400  21.4534610 149.8149510  76.0477910
  26.0726820 150.1638170  57.9597990  26.8655430 150.4527000  57.5079780
  25.5531170 149.7330340  57.2810470  30.8047420 146.2833800  75.2733410
  30.1985580 146.3065400  74.5329160  30.5001530 145.5516840  75.8100660
  32.2347790 150.0114090  73.8842820  33.1869540 149.9272110  73.8343060
  32.0876010 150.6755800  74.5576610  35.1256990 149.3908300  59.3834730
  34.8398500 148.9773440  58.5688910  34.9276540 150.3196010  59.2635250
  19.6880600 142.6627390  74.2694050  20.1919620 142.0834670  74.8410280
  18.9488020 142.9467620  74.8070420  26.5904220 145.3841580  57.8240340
  26.4854860 144.7693930  58.5501720  26.4228440 144.8607470  57.0403350
  26.7418540 144.0698380  73.8029570  25.9764210 144.6383380  73.7184240
  26.9234500 143.7774590  72.9097800  29.8306950 144.4461610  58.4282330
  29.2817050 144.8930910  59.0725070  30.4526210 143.9410860  58.9520000
  33.8841890 145.8003710  74.3604590  34.6251360 146.1379470  73.8572050
  33.1214570 145.9695770  73.8074360  21.7203680 140.8056980  75.1644120
  21.7609020 140.5070850  76.0729350  22.5749180 141.2064590  75.0051640
  25.4982070 143.4052530  60.3247630  25.9198490 143.2392400  61.1679020
  25.6232910 142.5952760  59.8302770  23.6609490 139.3849080  73.1318610
  23.1305950 138.8940030  72.5041950  24.3297560 139.8133280  72.5976540
  28.0109710 142.4290140  57.5724730  28.5315370 141.7139160  57.2065880
  28.6578110 143.0676010  57.8725240  32.5587550 143.8518540  72.8959800
  32.9728570 144.0063620  73.7450220  31.6238550 143.9773760  73.0585580
  33.0309720 141.1914700  74.8998950  33.6130490 140.4367020  74.8119430
  33.2071490 141.7222140  74.1230430  24.1481790 136.3511450  73.2115900
  24.0538660 135.7332200  72.4866770  23.5679180 137.0777740  72.9845810
  26.9143230 134.9084690  70.2443290  26.4660530 134.9308950  69.3988840
  26.2808430 134.5103710  70.8413590  27.3202780 143.8039020  70.8655730
  27.7390890 144.6471750  70.6931970  26.4011410 143.9411060  70.6362510
  29.6566680 141.5355200  72.2493570  29.7762890 140.9396340  72.9888410
  30.5160680 141.5724890  71.8294870  31.9954580 142.0892390  70.8256080
  31.4689800 142.6135010  70.2221220  32.3385920 142.7219780  71.4565810
  24.3940970 139.4785760  57.2705790  24.1930030 138.6153120  57.6319130
  24.2233020 139.3919120  56.3327390  25.1710200 150.1092030  71.9813460
  24.6331290 150.8338090  71.6622160  25.4244160 149.6322370  71.1910800
  26.4235450 138.0776550  73.5069390  27.0135140 137.7692400  74.1947210
  25.6055690 137.6056300  73.6629290  31.2428880 137.6942360  73.7402410
  30.5544400 137.0323900  73.6752400  31.9634900 137.2480630  74.1850870
  31.8729280 134.2893990  59.7992670  32.1531570 133.4461890  60.1552090
  31.0995010 134.5217100  60.3131420  23.1923770 136.5786380  57.2583670
  23.4949670 136.5853810  56.3502820  23.9318360 136.2284240  57.7551330
  26.4108700 135.5221000  58.2439870  26.0630700 134.8444990  57.6642320
  26.6121470 135.0610510  59.0583260  28.5757740 150.5101750  59.8626470
  29.4708530 150.8486720  59.8845230  28.6075370 149.7881160  59.2350750
  22.2153900 145.8828800  58.0913470  22.6528770 146.4258470  58.7471050
  22.7001630 145.0575750  58.1009810  19.4299700 148.6717830  65.5433730
  19.7602710 147.8038890  65.3112370  19.8590700 148.8776350  66.3738690
  24.0261620 147.0026840  63.2035700  23.7257160 146.8791810  64.1039610
  23.9199110 146.1435430  62.7951430  19.9189910 149.5388420  68.2815360
  19.4820900 149.7189220  69.1139510  20.4867590 150.2963040  68.1397080
  35.5552090 149.0405420  72.5692670  34.9554080 149.0997980  71.8256590
  35.6845990 148.1010400  72.6989520  36.7953540 146.7823240  57.9062380
  35.9646500 146.8499890  58.3769610  36.9725370 147.6727360  57.6029240
  36.2510000 143.5270720  60.4096580  37.0128910 144.0967370  60.5156270
  36.2664370 142.9597920  61.1804890  19.7514340 142.0508650  64.6404240
  19.0963180 141.7820290  63.9963940  20.5892290 141.9413130  64.1906220
  37.2569970 144.3820820  65.2538510  37.6278800 143.5988140  64.8474480
  37.8971900 145.0709920  65.0755810  34.2403730 145.7657400  70.6668830
  33.4263570 146.1954560  70.9294620  34.6477930 146.3775810  70.0537880
  36.3029170 143.8205090  57.5669100  36.5778010 144.7283970  57.4388320
  36.1139910 143.7567620  58.5031090  32.7004780 136.8449940  58.8622730
  33.1189660 136.6580920  58.0219390  32.3940840 135.9928990  59.1725660
  36.1994510 141.7574080  62.5598530  35.8238110 140.9902010  62.1279820
  35.4697630 142.1396780  63.0473460  20.7890270 142.4361220  69.1807580
  21.1563310 142.3488620  70.0603600  20.2201090 141.6727770  69.0814440
  35.5894130 140.9045600  72.1938050  35.3580220 140.6758350  71.2936000
  35.8498680 141.8245150  72.1482940  20.3406270 139.3470310  73.0866000
  19.4462320 139.3137070  73.4259710  20.8803820 139.5457100  73.8517250
  34.0282200 136.1302030  74.9717750  34.9052380 136.1385430  75.3551750
  34.0403040 135.3932870  74.3610100  18.9652420 139.2607580  60.5829570
  18.0616500 139.5237780  60.4081230  19.4493040 139.5318750  59.8029530
  35.4745470 139.9831570  65.8605770  35.9982950 139.4894220  65.2295940
  36.0604890 140.1181930  66.6053340  35.6535190 140.0671440  69.3825320
  34.7037900 140.0334980  69.4970310  35.8348200 140.9771550  69.1475090
  21.5079630 138.3173120  58.4923950  22.2171330 137.8956340  58.0071230
  20.7919570 138.3848350  57.8607300  21.1553790 134.3712450  57.5326600
  21.8781920 134.9121390  57.8507820  21.4278310 134.0975870  56.6568140
  34.9645440 139.2404920  61.7998180  35.4604560 139.0075790  62.5847060
  34.7661510 138.4016760  61.3835820  20.8445980 133.6218640  67.4349220
  21.4922170 133.0716020  66.9944380  21.2647820 133.8761790  68.2565030
  36.3932600 137.8765870  64.3335860  36.2831880 137.7221910  65.2718130
  37.1540190 137.3486810  64.0911270  34.7398320 133.8160000  70.7918860
  35.3770540 134.4294140  71.1578050  34.8873210 133.8520660  69.8468090
  37.2822870 135.7073790  57.5742000  38.2072180 135.5754970  57.3660290
  37.2598660 135.7866610  58.5278450  37.3561360 136.4784450  60.1998710
  36.5612860 136.4129570  60.7291620  37.5604640 137.4135090  60.1884060
  34.2979780 150.5176000  64.1937100  34.8938850 150.1960570  63.5171520
  34.5557930 150.0447820  64.9850370  20.5977980 133.7774310  70.1774540
  20.2492800 134.2338130  70.9432720  20.2665680 132.8831440  70.2596970
  22.2042350 146.9493910  74.3427730  22.1611980 146.5786820  75.2242190
  22.3353360 147.8871480  74.4829550  25.9048380 148.5053500  69.9437450
  25.6639740 148.7728060  69.0567970  26.8451020 148.6759230  69.9988310
  28.1102800 134.9686190  73.6993960  28.0491690 135.5608020  74.4489370
  29.0503180 134.8612150  73.5544220  30.7477360 134.6256250  73.3386250
  31.3617770 134.9435540  72.6767330  31.2926920 134.1404840  73.9582110
  37.1652540 150.5247880  70.7448090  36.6710820 150.9216750  70.0275220
  36.5565830 149.8997090  71.1385370  21.2698620 133.3050510  73.4525310
  21.8181610 133.1238560  72.6891420  21.3353930 132.5144620  73.9881620
  22.0430380 149.8956160  71.4625510  21.4490700 149.7640860  72.2015550
  22.0354220 149.0594300  70.9967610  31.4885400 133.1888390  69.6655540
  30.6145240 133.5223500  69.4628470  31.3796150 132.7161570  70.4907410
  32.3957380 135.3959260  71.0497260  32.0670740 134.5811020  70.6698990
  33.3439680 135.3529070  70.9262950  21.6742610 147.2614540  70.4133550
  20.9476670 146.6419830  70.3459500  21.7351760 147.6555150  69.5431630
  25.2787710 149.4759540  67.1982960  25.7952730 148.8646900  66.6731220
  25.9285090 149.9788320  67.6893970  28.0183210 150.3668030  68.0251940
  28.3061020 150.1122330  67.1484950  28.5306430 149.8145390  68.6157510
  29.2360220 134.1058230  68.6048450  28.4532010 134.5803730  68.8845210
  28.9423150 133.2013060  68.4961630  33.7881290 134.8081330  66.6497540
  34.2289380 134.7526430  65.8019140  33.5188880 135.7239340  66.7207720
  35.6519860 134.4396570  64.6606360  35.5908260 133.4957790  64.5137380
  36.4311890 134.5476660  65.2059820  19.9572610 150.5788930  63.6230310
  19.7894650 149.9459610  64.3212200  19.0907120 150.7848330  63.2724500
  20.5800630 134.4105710  61.1262170  21.3379990 134.5234590  60.5526200
  20.1177800 135.2474910  61.0805600  27.1214440 136.5244980  64.1164480
  26.3088950 136.1501870  63.7760360  27.6256080 135.7690060  64.4185670
  31.6239420 133.1887430  65.3547550  32.2268790 133.7607640  65.8296070
  30.8832410 133.7526870  65.1321450  34.7674020 133.5908990  60.6287830
  34.9624650 134.4892440  60.8955260  33.9803890 133.3596070  61.1220780
  21.5635310 149.2722160  61.0680450  21.0382930 149.6530190  60.3642410
  21.4879890 149.8972930  61.7890160  22.9525780 134.9369760  59.6664140
  23.4818540 134.1499560  59.5372090  23.5854100 135.6160950  59.8999670
  25.1463620 134.6744900  62.7209530  24.5166360 133.9732210  62.8879660
  24.6068760 135.4349030  62.5042690  36.3200630 150.8309700  62.3894390
  36.4952820 150.1447440  61.7455310  35.6222200 151.3556750  61.9971060
  25.2719180 133.9528880  75.1562020  24.9903450 134.4562480  74.3922840
  25.6538880 133.1550630  74.7904150  24.1628280 151.2204540  59.9429700
  24.8947100 150.9363820  59.3953590  24.4221950 150.9817820  60.8329080
  23.3243070 147.3369270  59.9476030  22.6951950 147.8054370  60.4961860
  23.4390900 146.4918490  60.3822220  31.8734640 133.3682460  75.7342490
  31.7600090 133.6877070  76.6294010  32.6904380 133.7694970  75.4379770
  34.6533130 150.5153990  75.2161180  35.4458450 150.0203220  75.0087140
  34.9466280 151.1944130  75.8236790  30.7792790 141.3874930  46.0977230
  30.6986840 140.4729540  45.8268940  30.3657210 141.8842000  45.3916940
  28.9110830 143.1653950  47.9786500  28.1352930 142.6854390  48.2685070
  29.5623760 142.4859600  47.8042660  22.9276660 143.4773760  48.8562260
  22.0961540 143.2222470  49.2558770  23.5357640 143.5484530  49.5920180
  32.9318260 147.5714140  46.7585630  32.4699790 146.8001380  47.0872800
  33.7443810 147.5980210  47.2638080  22.9077920 147.5113850  49.0520280
  23.2105960 146.6211590  48.8730500  23.6521510 148.0684070  48.8242530
  21.3368610 138.4375650  42.6404650  20.4485310 138.7791620  42.5384530
  21.6209800 138.2375970  41.7485480  19.3001620 141.0381300  48.5244350
  19.8717730 140.2703500  48.5247990  19.3003160 141.3370060  47.6150960
  29.1581570 149.8572150  46.3789620  28.5393010 150.3129650  45.8084060
  30.0133350 150.0123610  45.9779320  28.3519820 145.8411140  47.9856660
  28.2828100 144.9001080  47.8245790  29.1139680 145.9312550  48.5579230
  20.5426490 136.4465660  50.3113280  20.3629330 135.5491410  50.5916040
  20.1406570 136.9937530  50.9860230  29.3824990 138.6481520  48.2125590
  29.7589810 137.7753400  48.0999260  29.2844500 138.9840220  47.3216030
  23.5130000 137.0207150  43.6743030  23.6196750 137.9210880  43.9811790
  22.6022360 136.9725120  43.3837680  33.1649110 136.1431960  45.1453930
  33.9858730 135.6528530  45.1879410  33.1983190 136.7329620  45.8985770
  21.1613160 138.9426160  48.9195620  21.8423270 139.2064530  49.5383020
  20.8461210 138.1027030  49.2533630  25.3537730 139.9893520  48.0068210
  25.8615950 140.4874490  48.6473230  25.8850970 139.2128720  47.8307570
  37.4548660 138.1598710  51.7097560  36.7500830 138.5480420  51.1912670
  37.7206580 138.8549000  52.3118490  23.6373830 134.6292080  52.2731630
  23.6392270 135.1464470  51.4677530  22.8078140 134.1522260  52.2501560
  30.0244920 144.7411390  43.7721530  29.4062190 145.2060840  43.2084250
  30.5368170 145.4338870  44.1891040  24.8876680 144.2687260  50.4505130
  24.5546060 144.8956180  51.0926200  25.0643360 144.7949140  49.6706800
  33.4010590 138.0832340  47.9181470  32.6966160 138.3717230  48.4984580
  33.7622750 138.8932450  47.5581030  23.3189160 136.3402040  50.2802080
  23.6605970 137.1844090  49.9855950  22.3804970 136.4885780  50.3967420
  24.0995780 146.2368060  52.2654310  24.7169780 146.9119140  51.9838760
  23.2388900 146.6456040  52.1741810  19.3928120 145.4267920  41.1461160
  19.0156100 145.9155020  40.4146060  19.6501190 146.0993200  41.7767690
  35.0173370 147.7007470  50.1808950  34.3336890 148.3706580  50.1725620
  35.5567660 147.8988120  49.4153810  36.4697510 137.5287130  48.3090680
  35.5222420 137.5626110  48.4406110  36.7947500 138.3426080  48.6940040
  27.0017050 133.8284310  46.6046670  27.3092030 133.2731200  45.8882170
  26.0717750 133.9628770  46.4219660  32.5532110 149.5451600  48.8954130
  32.5659270 149.1413890  48.0276390  32.0007330 150.3198890  48.7915560
  33.8477530 146.2667820  43.9844300  33.7373860 145.3242150  44.1093720
  33.8445780 146.6283460  44.8707060  31.9517550 144.4481440  50.2236740
  32.3686340 144.2341550  49.3890200  32.6757370 144.7054230  50.7945360
  29.3897810 141.8933140  43.3406790  28.4627090 141.8270520  43.5695260
  29.5422630 142.8313270  43.2262030  29.3766890 138.1650140  40.3373950
  28.4370560 138.3264100  40.4226410  29.6950150 138.8835820  39.7909940
  35.8979650 142.8468660  50.3152980  35.0698280 142.9161750  49.8403110
  36.4930130 143.4322970  49.8468810  33.4195100 143.4553440  43.8442040
  32.8007520 143.1172990  43.1968340  33.4019550 142.8113200  44.5521230
  32.8621660 139.6337980  51.2607850  32.4492840 140.4591690  51.5147840
  32.1297610 139.0483020  51.0684210  24.9954450 142.4197880  46.1226520
  24.5911450 141.7075130  45.6272420  25.0817570 142.0751120  47.0114560
  25.4636150 146.1065440  48.2865730  25.1664440 145.5010910  47.6073510
  26.4135970 146.1442750  48.1755090  23.7083070 139.1941090  49.9025560
  24.2597660 139.3036430  49.1278810  24.2226580 139.5678690  50.6180790
  33.5521760 149.6797310  51.9488830  33.0752320 150.4869500  51.7561440
  32.8683550 149.0275640  52.1015040  24.5554580 145.8447130  54.9373530
  23.6583110 146.0687100  55.1846930  24.5807450 145.9682070  53.9884930
  31.5959800 142.6940250  40.8514790  32.0353080 141.8562680  40.7052610
  32.3088220 143.3269650  40.9378930  23.3825800 142.7160450  53.5130900
  23.2433570 143.5883250  53.8818300  22.5007160 142.3733260  53.3678840
  29.7055180 147.6336320  44.8196030  30.1451090 148.3760650  44.4051420
  29.6442070 147.8762890  45.7434990  25.1806150 148.6582150  55.7216050
  25.1521580 149.0625100  54.8544480  25.0171120 147.7292510  55.5587650
  35.1776940 133.9483060  39.1655830  34.8649600 134.0409890  40.0654900
  35.9389410 134.5264090  39.1153260  21.6959080 141.3142860  43.6233170
  21.5756680 142.0404950  43.0114440  21.3859970 140.5445770  43.1461080
  37.1320970 149.4409250  57.0180220  37.6080690 149.9192140  57.6969300
  37.7528130 149.3726740  56.2925720  19.3344450 144.4858000  49.4301810
  19.4124870 144.6206770  48.4857530  19.9486130 143.7773890  49.6229930
  20.5792080 146.1858190  45.8407990  20.1720160 146.3272780  44.9861590
  21.4705090 145.9018350  45.6379200  36.5354220 146.6322100  54.1780230
  36.6617280 146.3933980  53.2597410  36.5775600 145.8006640  54.6502310
  30.3970960 150.3350100  52.7475040  30.9115630 150.2458110  53.5497470
  29.5540040 150.6809800  53.0402950  32.3725360 150.6205440  42.1759040
  32.2126500 150.3308380  43.0740870  32.2072070 149.8445570  41.6404270
  24.8513740 150.4003970  43.9530660  24.6756220 149.4839510  43.7398460
  23.9969480 150.7591260  44.1928460  32.0751490 148.1293000  40.7357040
  31.3816650 148.1270290  40.0759320  32.8174350 147.7052320  40.3051210
  31.6401420 149.7555710  44.8105530  32.0958370 148.9745090  45.1244150
  31.9793940 150.4662530  45.3546710  36.3878230 138.6854560  55.1429970
  35.7722500 139.1934230  54.6145430  36.0674650 137.7852890  55.0855910
  19.3903970 145.5272170  51.9696270  19.5535010 145.0577530  51.1515640
  19.8556420 145.0195730  52.6345110  24.1622740 134.6577930  47.0056840
  23.7190890 135.4387470  46.6741360  24.7207730 134.9807820  47.7127780
  28.4492550 137.5246450  52.6092160  27.9871920 137.7329470  53.4212100
  28.0470660 136.7105800  52.3062830  33.4497060 138.7455400  53.7388820
  32.5990650 138.4461150  54.0597890  33.2898850 138.9897410  52.8272640
  30.5446770 140.2457150  55.8387610  30.8700180 139.4120900  55.4989840
  31.3327100 140.7685670  55.9865940  27.2781560 134.2788630  41.8862670
  26.6535740 134.2748500  42.6115980  27.1911680 133.4119590  41.4898640
  26.1998640 135.2025260  48.8646440  26.4970970 136.1088090  48.7838460
  26.7484200 134.7144040  48.2506010  23.9536960 139.7811500  44.7338090
  23.7277880 139.5648670  45.6384710  23.1729490 140.2139960  44.3884060
  31.1834720 139.7874870  43.3328740  30.5843610 140.5110670  43.1492360
  31.7314330 139.7251650  42.5505190  26.3936170 140.6797080  55.3998360
  26.2979770 139.7391810  55.2498760  27.2368150 140.9012150  55.0046430
  29.7899590 138.4238410  45.3632020  30.1829160 138.7410610  44.5500710
  30.1516440 137.5450290  45.4776540  21.5246710 137.0910750  53.5532140
  21.1310100 137.9385960  53.7604920  20.8365110 136.4537120  53.7440780
  28.0991760 137.1745720  56.6228880  27.4090080 136.9817920  57.2574970
  28.8424060 137.4580360  57.1553180  18.8263760 135.0139210  47.5862220
  18.5376810 135.5842070  48.2987200  19.5709520 134.5343660  47.9493450
  19.0133990 138.9559330  38.7964940  18.9308660 139.8990090  38.9379930
  18.6617050 138.8134240  37.9177290  30.3754730 141.0144160  49.4582800
  29.6435850 141.5230970  49.8072900  29.9779070 140.1974140  49.1571580
  26.8132120 137.6898360  47.8635290  26.8168180 137.2488310  47.0139830
  27.7083240 138.0115690  47.9707110  22.6634500 137.5724850  46.8229500
  22.3234550 138.0500080  47.5796550  21.9011820 137.1189970  46.4630600
  26.8752270 138.6910440  40.8542050  26.9965090 138.6496920  41.8027870
  26.4900780 139.5534590  40.6988780  30.8380640 136.4677840  48.8705740
  30.8553380 136.9186490  49.7147590  30.5896220 135.5683480  49.0839180
  25.8873770 141.0011580  40.2525350  25.3190670 140.5529830  39.6261260
  26.5962770 141.3604360  39.7190500  34.2651390 133.8810020  54.7092120
  34.5897160 133.1499680  55.2350100  34.3007900 133.5623660  53.8073110
  20.9642950 144.9023600  54.1292080  20.5797740 144.2617270  54.7275040
  21.2755140 145.6059720  54.6986810  27.1140090 141.7500140  49.6100700
  27.4810220 141.2758710  50.3562040  26.9245150 142.6241710  49.9509040
  19.9780580 136.4943830  45.7394170  19.6927500 136.1299500  46.5772790
  19.9159440 135.7624290  45.1257310  24.9039460 140.7908780  51.9284910
  24.5996530 141.6700760  52.1535270  25.8585920 140.8508570  51.9642350
  23.4321250 144.9969770  42.5251760  22.6583510 144.4567390  42.3650480
  24.1615880 144.4776380  42.1869520  34.1909230 143.9935130  48.3178150
  34.9108350 144.4890420  47.9274260  33.9891050 143.3153020  47.6732020
  29.6519170 135.3873090  42.4607540  28.8383780 134.8886260  42.3852850
  29.4581120 136.2271340  42.0443890  29.5728030 144.0644190  54.2047150
  29.5065340 143.1439860  53.9504740  28.9433170 144.1619630  54.9191790
  32.3667560 139.7592740  40.7569700  33.2547180 140.0709970  40.5821040
  32.3372650 138.8864990  40.3650280  23.4758650 144.6650150  46.1630570
  23.9937320 143.8618410  46.1087460  23.0242670 144.6029290  47.0047400
  28.3628150 145.9316430  41.4357870  28.7043850 146.6758660  40.9401190
  27.5340860 146.2447550  41.7982700  20.9603190 141.6311520  53.0756270
  20.6018130 142.2965370  53.6629610  20.6657750 140.7995070  53.4468890
  24.1616310 142.0895760  55.9595820  23.8616450 142.2352940  55.0623640
  24.9327550 141.5301050  55.8669210  29.5044760 146.8864760  53.9550950
  29.5189300 145.9545720  53.7369860  28.7969860 146.9724520  54.5940720
  34.6381830 141.0704580  40.2249560  34.5545550 141.5018800  39.3746000
  35.3576020 141.5302930  40.6576380  35.7155970 143.5272100  53.3019530
  34.9904160 144.1200880  53.1048920  36.2431430 143.5195640  52.5032900
  35.6669080 147.9246840  42.9531690  35.0245240 147.2702460  43.2275410
  35.2799740 148.3301930  42.1772360  31.2455560 145.2532270  46.8003380
  31.5979380 144.6560400  46.1404750  30.3617890 144.9276500  46.9711630
  27.3318840 146.0129960  44.2073790  28.0189970 146.5599170  44.5881380
  26.5451260 146.5570690  44.2423400  19.4711240 141.6302780  39.6990870
  20.3406090 141.9127580  39.9826790  18.9801560 142.4438650  39.5839680
  26.6346050 143.0175990  43.8199150  27.0908830 143.8281240  44.0459340
  26.2834260 142.6999130  44.6517640  28.9378660 148.5282330  51.0491450
  29.5820880 148.7341710  51.7264870  29.3008100 147.7670730  50.5962300
  22.5357830 133.3613640  44.2921670  22.4072460 133.3531540  45.2406590
  21.7119850 133.6996730  43.9412680  30.2110740 146.5314680  49.7668900
  30.8532970 145.8307840  49.8801070  30.7360090 147.3113120  49.5865790
  34.0566460 146.8163300  39.4908040  33.8304040 146.0993740  40.0832680
  33.6662660 146.5675740  38.6529790  31.9848360 147.3309580  52.9704960
  32.3204600 147.9176270  53.6482880  31.0648700 147.2002290  53.2002750
  19.8382490 150.8430160  40.2652500  20.1980130 151.4419500  39.6109770
  19.6974830 151.3890050  41.0387530  19.5351760 135.1204760  53.7528370
  18.8210280 135.3201680  54.3580980  19.9546800 134.3444330  54.1243170
  33.6382710 144.7335240  41.1522200  33.3504410 145.1947930  41.9400080
  34.4334880 144.2733010  41.4206420  19.8224350 149.1085020  54.7394900
  19.9315470 148.1679760  54.5990290  19.1704910 149.3739770  54.0908630
  27.8136940 147.3800910  56.1393020  27.4933810 146.6610150  56.6838710
  27.1395300 148.0555980  56.2129080  25.8551110 148.2261360  41.0826170
  25.8461210 148.9591050  40.4670680  24.9349470 147.9792940  41.1753130
  21.4557750 143.4476250  41.8272930  20.8485700 144.1875150  41.8368230
  21.9307100 143.5375610  41.0011130  31.0290540 137.6127070  51.5029820
  31.3971360 136.7922280  51.8309390  30.1688740 137.6728960  51.9185470
  34.3952570 136.5684010  42.3117380  33.7665730 136.6729680  41.5975610
  33.9004490 136.7880790  43.1011260  28.8410710 148.2889600  39.7451360
  28.9422690 148.0853590  38.8153340  27.9412450 148.0347880  39.9499140
  26.3636600 138.8469960  43.7275260  25.6552750 139.3156300  44.1688870
  26.6481080 138.1891970  44.3620450  27.9892530 140.2666660  51.7267790
  28.4877780 140.7412480  52.3919640  28.1315480 139.3430180  51.9337820
  30.3952030 135.5720620  45.1671050  30.2719810 135.5906750  44.2180560
  31.3436590 135.6199560  45.2869450  27.4828820 150.8075920  44.4399030
  27.7370320 150.7697310  43.5178400  26.5341300 150.6809250  44.4327280
  24.5671620 137.1555040  41.1025970  25.4162150 137.5925190  41.0366160
  24.2002890 137.4675300  41.9298030  35.1959390 136.4834620  52.5696180
  34.6932990 137.2240020  52.9089990  36.0116050 136.8718620  52.2532970
  33.4881400 141.7267800  46.0157540  32.5471540 141.7418030  46.1905230
  33.8025470 140.9403760  46.4617840  23.4663040 143.4087400  39.5761500
  24.2326310 143.2968760  40.1386930  23.5437730 142.7125370  38.9238270
  22.1609800 140.8412470  40.2594390  22.2413390 139.8939980  40.3711790
  23.0529550 141.1719350  40.3655050  35.4906980 148.8976650  47.6911800
  35.6154400 149.7207820  48.1635610  36.3572540 148.6867380  47.3435950
  19.8469990 147.0581430  43.2370440  18.9209770 147.3002570  43.2275850
  20.3126420 147.8855690  43.1155190  21.9682790 150.1753930  56.5514510
  22.7695520 150.4965980  56.9649910  21.4534610 149.8149510  57.2734420
  26.0726820 150.1638170  39.1854500  26.8655430 150.4527000  38.7336290
  25.5531170 149.7330340  38.5066980  30.8047420 146.2833800  56.4989920
  30.1985580 146.3065400  55.7585670  30.5001530 145.5516840  57.0357170
  32.2347790 150.0114090  55.1099330  33.1869540 149.9272110  55.0599570
  32.0876010 150.6755800  55.7833120  35.1256990 149.3908300  40.6091240
  34.8398500 148.9773440  39.7945420  34.9276540 150.3196010  40.4891760
  19.6880600 142.6627390  55.4950560  20.1919620 142.0834670  56.0666790
  18.9488020 142.9467620  56.0326930  26.5904220 145.3841580  39.0496850
  26.4854860 144.7693930  39.7758230  26.4228440 144.8607470  38.2659860
  26.7418540 144.0698380  55.0286080  25.9764210 144.6383380  54.9440750
  26.9234500 143.7774590  54.1354310  29.8306950 144.4461610  39.6538840
  29.2817050 144.8930910  40.2981580  30.4526210 143.9410860  40.1776510
  33.8841890 145.8003710  55.5861100  34.6251360 146.1379470  55.0828560
  33.1214570 145.9695770  55.0330870  21.7203680 140.8056980  56.3900630
  21.7609020 140.5070850  57.2985860  22.5749180 141.2064590  56.2308150
  25.4982070 143.4052530  41.5504140  25.9198490 143.2392400  42.3935530
  25.6232910 142.5952760  41.0559280  23.6609490 139.3849080  54.3575120
  23.1305950 138.8940030  53.7298460  24.3297560 139.8133280  53.8233050
  28.0109710 142.4290140  38.7981240  28.5315370 141.7139160  38.4322390
  28.6578110 143.0676010  39.0981750  32.5587550 143.8518540  54.1216310
  32.9728570 144.0063620  54.9706730  31.6238550 143.9773760  54.2842090
  33.0309720 141.1914700  56.1255460  33.6130490 140.4367020  56.0375940
  33.2071490 141.7222140  55.3486940  24.1481790 136.3511450  54.4372410
  24.0538660 135.7332200  53.7123280  23.5679180 137.0777740  54.2102320
  26.9143230 134.9084690  51.4699800  26.4660530 134.9308950  50.6245350
  26.2808430 134.5103710  52.0670100  27.3202780 143.8039020  52.0912240
  27.7390890 144.6471750  51.9188480  26.4011410 143.9411060  51.8619020
  29.6566680 141.5355200  53.4750080  29.7762890 140.9396340  54.2144920
  30.5160680 141.5724890  53.0551380  31.9954580 142.0892390  52.0512590
  31.4689800 142.6135010  51.4477730  32.3385920 142.7219780  52.6822320
  24.3940970 139.4785760  38.4962300  24.1930030 138.6153120  38.8575640
  24.2233020 139.3919120  37.5583900  25.1710200 150.1092030  53.2069970
  24.6331290 150.8338090  52.8878670  25.4244160 149.6322370  52.4167310
  26.4235450 138.0776550  54.7325900  27.0135140 137.7692400  55.4203720
  25.6055690 137.6056300  54.8885800  31.2428880 137.6942360  54.9658920
  30.5544400 137.0323900  54.9008910  31.9634900 137.2480630  55.4107380
  31.8729280 134.2893990  41.0249180  32.1531570 133.4461890  41.3808600
  31.0995010 134.5217100  41.5387930  23.1923770 136.5786380  38.4840180
  23.4949670 136.5853810  37.5759330  23.9318360 136.2284240  38.9807840
  26.4108700 135.5221000  39.4696380  26.0630700 134.8444990  38.8898830
  26.6121470 135.0610510  40.2839770  28.5757740 150.5101750  41.0882980
  29.4708530 150.8486720  41.1101740  28.6075370 149.7881160  40.4607260
  22.2153900 145.8828800  39.3169980  22.6528770 146.4258470  39.9727560
  22.7001630 145.0575750  39.3266320  19.4299700 148.6717830  46.7690240
  19.7602710 147.8038890  46.5368880  19.8590700 148.8776350  47.5995200
  24.0261620 147.0026840  44.4292210  23.7257160 146.8791810  45.3296120
  23.9199110 146.1435430  44.0207940  19.9189910 149.5388420  49.5071870
  19.4820900 149.7189220  50.3396020  20.4867590 150.2963040  49.3653590
  35.5552090 149.0405420  53.7949180  34.9554080 149.0997980  53.0513100
  35.6845990 148.1010400  53.9246030  36.7953540 146.7823240  39.1318890
  35.9646500 146.8499890  39.6026120  36.9725370 147.6727360  38.8285750
  36.2510000 143.5270720  41.6353090  37.0128910 144.0967370  41.7412780
  36.2664370 142.9597920  42.4061400  19.7514340 142.0508650  45.8660750
  19.0963180 141.7820290  45.2220450  20.5892290 141.9413130  45.4162730
  37.2569970 144.3820820  46.4795020  37.6278800 143.5988140  46.0730990
  37.8971900 145.0709920  46.3012320  34.2403730 145.7657400  51.8925340
  33.4263570 146.1954560  52.1551130  34.6477930 146.3775810  51.2794390
  36.3029170 143.8205090  38.7925610  36.5778010 144.7283970  38.6644830
  36.1139910 143.7567620  39.7287600  32.7004780 136.8449940  40.0879240
  33.1189660 136.6580920  39.2475900  32.3940840 135.9928990  40.3982170
  36.1994510 141.7574080  43.7855040  35.8238110 140.9902010  43.3536330
  35.4697630 142.1396780  44.2729970  20.7890270 142.4361220  50.4064090
  21.1563310 142.3488620  51.2860110  20.2201090 141.6727770  50.3070950
  35.5894130 140.9045600  53.4194560  35.3580220 140.6758350  52.5192510
  35.8498680 141.8245150  53.3739450  20.3406270 139.3470310  54.3122510
  19.4462320 139.3137070  54.6516220  20.8803820 139.5457100  55.0773760
  34.0282200 136.1302030  56.1974260  34.9052380 136.1385430  56.5808260
  34.0403040 135.3932870  55.5866610  18.9652420 139.2607580  41.8086080
  18.0616500 139.5237780  41.6337740  19.4493040 139.5318750  41.0286040
  35.4745470 139.9831570  47.0862280  35.9982950 139.4894220  46.4552450
  36.0604890 140.1181930  47.8309850  35.6535190 140.0671440  50.6081830
  34.7037900 140.0334980  50.7226820  35.8348200 140.9771550  50.3731600
  21.5079630 138.3173120  39.7180460  22.2171330 137.8956340  39.2327740
  20.7919570 138.3848350  39.0863810  21.1553790 134.3712450  38.7583110
  21.8781920 134.9121390  39.0764330  21.4278310 134.0975870  37.8824650
  34.9645440 139.2404920  43.0254690  35.4604560 139.0075790  43.8103570
  34.7661510 138.4016760  42.6092330  20.8445980 133.6218640  48.6605730
  21.4922170 133.0716020  48.2200890  21.2647820 133.8761790  49.4821540
  36.3932600 137.8765870  45.5592370  36.2831880 137.7221910  46.4974640
  37.1540190 137.3486810  45.3167780  34.7398320 133.8160000  52.0175370
  35.3770540 134.4294140  52.3834560  34.8873210 133.8520660  51.0724600
  37.2822870 135.7073790  38.7998510  38.2072180 135.5754970  38.5916800
  37.2598660 135.7866610  39.7534960  37.3561360 136.4784450  41.4255220
  36.5612860 136.4129570  41.9548130  37.5604640 137.4135090  41.4140570
  34.2979780 150.5176000  45.4193610  34.8938850 150.1960570  44.7428030
  34.5557930 150.0447820  46.2106880  20.5977980 133.7774310  51.4031050
  20.2492800 134.2338130  52.1689230  20.2665680 132.8831440  51.4853480
  22.2042350 146.9493910  55.5684240  22.1611980 146.5786820  56.4498700
  22.3353360 147.8871480  55.7086060  25.9048380 148.5053500  51.1693960
  25.6639740 148.7728060  50.2824480  26.8451020 148.6759230  51.2244820
  28.1102800 134.9686190  54.9250470  28.0491690 135.5608020  55.6745880
  29.0503180 134.8612150  54.7800730  30.7477360 134.6256250  54.5642760
  31.3617770 134.9435540  53.9023840  31.2926920 134.1404840  55.1838620
  37.1652540 150.5247880  51.9704600  36.6710820 150.9216750  51.2531730
  36.5565830 149.8997090  52.3641880  21.2698620 133.3050510  54.6781820
  21.8181610 133.1238560  53.9147930  21.3353930 132.5144620  55.2138130
  22.0430380 149.8956160  52.6882020  21.4490700 149.7640860  53.4272060
  22.0354220 149.0594300  52.2224120  31.4885400 133.1888390  50.8912050
  30.6145240 133.5223500  50.6884980  31.3796150 132.7161570  51.7163920
  32.3957380 135.3959260  52.2753770  32.0670740 134.5811020  51.8955500
  33.3439680 135.3529070  52.1519460  21.6742610 147.2614540  51.6390060
  20.9476670 146.6419830  51.5716010  21.7351760 147.6555150  50.7688140
  25.2787710 149.4759540  48.4239470  25.7952730 148.8646900  47.8987730
  25.9285090 149.9788320  48.9150480  28.0183210 150.3668030  49.2508450
  28.3061020 150.1122330  48.3741460  28.5306430 149.8145390  49.8414020
  29.2360220 134.1058230  49.8304960  28.4532010 134.5803730  50.1101720
  28.9423150 133.2013060  49.7218140  33.7881290 134.8081330  47.8754050
  34.2289380 134.7526430  47.0275650  33.5188880 135.7239340  47.9464230
  35.6519860 134.4396570  45.8862870  35.5908260 133.4957790  45.7393890
  36.4311890 134.5476660  46.4316330  19.9572610 150.5788930  44.8486820
  19.7894650 149.9459610  45.5468710  19.0907120 150.7848330  44.4981010
  20.5800630 134.4105710  42.3518680  21.3379990 134.5234590  41.7782710
  20.1177800 135.2474910  42.3062110  27.1214440 136.5244980  45.3420990
  26.3088950 136.1501870  45.0016870  27.6256080 135.7690060  45.6442180
  31.6239420 133.1887430  46.5804060  32.2268790 133.7607640  47.0552580
  30.8832410 133.7526870  46.3577960  34.7674020 133.5908990  41.8544340
  34.9624650 134.4892440  42.1211770  33.9803890 133.3596070  42.3477290
  21.5635310 149.2722160  42.2936960  21.0382930 149.6530190  41.5898920
  21.4879890 149.8972930  43.0146670  22.9525780 134.9369760  40.8920650
  23.4818540 134.1499560  40.7628600  23.5854100 135.6160950  41.1256180
  25.1463620 134.6744900  43.9466040  24.5166360 133.9732210  44.1136170
  24.6068760 135.4349030  43.7299200  36.3200630 150.8309700  43.6150900
  36.4952820 150.1447440  42.9711820  35.6222200 151.3556750  43.2227570
  25.2719180 133.9528880  56.3818530  24.9903450 134.4562480  55.6179350
  25.6538880 133.1550630  56.0160660  24.1628280 151.2204540  41.1686210
  24.8947100 150.9363820  40.6210100  24.4221950 150.9817820  42.0585590
  23.3243070 147.3369270  41.1732540  22.6951950 147.8054370  41.7218370
  23.4390900 146.4918490  41.6078730  31.8734640 133.3682460  56.9599000
  31.7600090 133.6877070  57.8550520  32.6904380 133.7694970  56.6636280
  34.6533130 150.5153990  56.4417690  35.4458450 150.0203220  56.2343650
  34.9466280 151.1944130  57.0493300  30.7792790 141.3874930  27.3233740
  30.6986840 140.4729540  27.0525450  30.3657210 141.8842000  26.6173450
  28.9110830 143.1653950  29.2043010  28.1352930 142.6854390  29.4941580
  29.5623760 142.4859600  29.0299170  22.9276660 143.4773760  30.0818770
  22.0961540 143.2222470  30.4815280  23.5357640 143.5484530  30.8176690
  32.9318260 147.5714140  27.9842140  32.4699790 146.8001380  28.3129310
  33.7443810 147.5980210  28.4894590  22.9077920 147.5113850  30.2776790
  23.2105960 146.6211590  30.0987010  23.6521510 148.0684070  30.0499040
  21.3368610 138.4375650  23.8661160  20.4485310 138.7791620  23.7641040
  21.6209800 138.2375970  22.9741990  19.3001620 141.0381300  29.7500860
  19.8717730 140.2703500  29.7504500  19.3003160 141.3370060  28.8407470
  29.1581570 149.8572150  27.6046130  28.5393010 150.3129650  27.0340570
  30.0133350 150.0123610  27.2035830  28.3519820 145.8411140  29.2113170
  28.2828100 144.9001080  29.0502300  29.1139680 145.9312550  29.7835740
  20.5426490 136.4465660  31.5369790  20.3629330 135.5491410  31.8172550
  20.1406570 136.9937530  32.2116740  29.3824990 138.6481520  29.4382100
  29.7589810 137.7753400  29.3255770  29.2844500 138.9840220  28.5472540
  23.5130000 137.0207150  24.8999540  23.6196750 137.9210880  25.2068300
  22.6022360 136.9725120  24.6094190  33.1649110 136.1431960  26.3710440
  33.9858730 135.6528530  26.4135920  33.1983190 136.7329620  27.1242280
  21.1613160 138.9426160  30.1452130  21.8423270 139.2064530  30.7639530
  20.8461210 138.1027030  30.4790140  25.3537730 139.9893520  29.2324720
  25.8615950 140.4874490  29.8729740  25.8850970 139.2128720  29.0564080
  37.4548660 138.1598710  32.9354070  36.7500830 138.5480420  32.4169180
  37.7206580 138.8549000  33.5375000  23.6373830 134.6292080  33.4988140
  23.6392270 135.1464470  32.6934040  22.8078140 134.1522260  33.4758070
  30.0244920 144.7411390  24.9978040  29.4062190 145.2060840  24.4340760
  30.5368170 145.4338870  25.4147550  24.8876680 144.2687260  31.6761640
  24.5546060 144.8956180  32.3182710  25.0643360 144.7949140  30.8963310
  33.4010590 138.0832340  29.1437980  32.6966160 138.3717230  29.7241090
  33.7622750 138.8932450  28.7837540  23.3189160 136.3402040  31.5058590
  23.6605970 137.1844090  31.2112460  22.3804970 136.4885780  31.6223930
  24.0995780 146.2368060  33.4910820  24.7169780 146.9119140  33.2095270
  23.2388900 146.6456040  33.3998320  19.3928120 145.4267920  22.3717670
  19.0156100 145.9155020  21.6402570  19.6501190 146.0993200  23.0024200
  35.0173370 147.7007470  31.4065460  34.3336890 148.3706580  31.3982130
  35.5567660 147.8988120  30.6410320  36.4697510 137.5287130  29.5347190
  35.5222420 137.5626110  29.6662620  36.7947500 138.3426080  29.9196550
  27.0017050 133.8284310  27.8303180  27.3092030 133.2731200  27.1138680
  26.0717750 133.9628770  27.6476170  32.5532110 149.5451600  30.1210640
  32.5659270 149.1413890  29.2532900  32.0007330 150.3198890  30.0172070
  33.8477530 146.2667820  25.2100810  33.7373860 145.3242150  25.3350230
  33.8445780 146.6283460  26.0963570  31.9517550 144.4481440  31.4493250
  32.3686340 144.2341550  30.6146710  32.6757370 144.7054230  32.0201870
  29.3897810 141.8933140  24.5663300  28.4627090 141.8270520  24.7951770
  29.5422630 142.8313270  24.4518540  29.3766890 138.1650140  21.5630460
  28.4370560 138.3264100  21.6482920  29.6950150 138.8835820  21.0166450
  35.8979650 142.8468660  31.5409490  35.0698280 142.9161750  31.0659620
  36.4930130 143.4322970  31.0725320  33.4195100 143.4553440  25.0698550
  32.8007520 143.1172990  24.4224850  33.4019550 142.8113200  25.7777740
  32.8621660 139.6337980  32.4864360  32.4492840 140.4591690  32.7404350
  32.1297610 139.0483020  32.2940720  24.9954450 142.4197880  27.3483030
  24.5911450 141.7075130  26.8528930  25.0817570 142.0751120  28.2371070
  25.4636150 146.1065440  29.5122240  25.1664440 145.5010910  28.8330020
  26.4135970 146.1442750  29.4011600  23.7083070 139.1941090  31.1282070
  24.2597660 139.3036430  30.3535320  24.2226580 139.5678690  31.8437300
  33.5521760 149.6797310  33.1745340  33.0752320 150.4869500  32.9817950
  32.8683550 149.0275640  33.3271550  24.5554580 145.8447130  36.1630040
  23.6583110 146.0687100  36.4103440  24.5807450 145.9682070  35.2141440
  31.5959800 142.6940250  22.0771300  32.0353080 141.8562680  21.9309120
  32.3088220 143.3269650  22.1635440  23.3825800 142.7160450  34.7387410
  23.2433570 143.5883250  35.1074810  22.5007160 142.3733260  34.5935350
  29.7055180 147.6336320  26.0452540  30.1451090 148.3760650  25.6307930
  29.6442070 147.8762890  26.9691500  25.1806150 148.6582150  36.9472560
  25.1521580 149.0625100  36.0800990  25.0171120 147.7292510  36.7844160
  35.1776940 133.9483060  20.3912340  34.8649600 134.0409890  21.2911410
  35.9389410 134.5264090  20.3409770  21.6959080 141.3142860  24.8489680
  21.5756680 142.0404950  24.2370950  21.3859970 140.5445770  24.3717590
  37.1320970 149.4409250  38.2436730  37.6080690 149.9192140  38.9225810
  37.7528130 149.3726740  37.5182230  19.3344450 144.4858000  30.6558320
  19.4124870 144.6206770  29.7114040  19.9486130 143.7773890  30.8486440
  20.5792080 146.1858190  27.0664500  20.1720160 146.3272780  26.2118100
  21.4705090 145.9018350  26.8635710  36.5354220 146.6322100  35.4036740
  36.6617280 146.3933980  34.4853920  36.5775600 145.8006640  35.8758820
  30.3970960 150.3350100  33.9731550  30.9115630 150.2458110  34.7753980
  29.5540040 150.6809800  34.2659460  32.3725360 150.6205440  23.4015550
  32.2126500 150.3308380  24.2997380  32.2072070 149.8445570  22.8660780
  24.8513740 150.4003970  25.1787170  24.6756220 149.4839510  24.9654970
  23.9969480 150.7591260  25.4184970  32.0751490 148.1293000  21.9613550
  31.3816650 148.1270290  21.3015830  32.8174350 147.7052320  21.5307720
  31.6401420 149.7555710  26.0362040  32.0958370 148.9745090  26.3500660
  31.9793940 150.4662530  26.5803220  36.3878230 138.6854560  36.3686480
  35.7722500 139.1934230  35.8401940  36.0674650 137.7852890  36.3112420
  19.3903970 145.5272170  33.1952780  19.5535010 145.0577530  32.3772150
  19.8556420 145.0195730  33.8601620  24.1622740 134.6577930  28.2313350
  23.7190890 135.4387470  27.8997870  24.7207730 134.9807820  28.9384290
  28.4492550 137.5246450  33.8348670  27.9871920 137.7329470  34.6468610
  28.0470660 136.7105800  33.5319340  33.4497060 138.7455400  34.9645330
  32.5990650 138.4461150  35.2854400  33.2898850 138.9897410  34.0529150
  30.5446770 140.2457150  37.0644120  30.8700180 139.4120900  36.7246350
  31.3327100 140.7685670  37.2122450  27.2781560 134.2788630  23.1119180
  26.6535740 134.2748500  23.8372490  27.1911680 133.4119590  22.7155150
  26.1998640 135.2025260  30.0902950  26.4970970 136.1088090  30.0094970
  26.7484200 134.7144040  29.4762520  23.9536960 139.7811500  25.9594600
  23.7277880 139.5648670  26.8641220  23.1729490 140.2139960  25.6140570
  31.1834720 139.7874870  24.5585250  30.5843610 140.5110670  24.3748870
  31.7314330 139.7251650  23.7761700  26.3936170 140.6797080  36.6254870
  26.2979770 139.7391810  36.4755270  27.2368150 140.9012150  36.2302940
  29.7899590 138.4238410  26.5888530  30.1829160 138.7410610  25.7757220
  30.1516440 137.5450290  26.7033050  21.5246710 137.0910750  34.7788650
  21.1310100 137.9385960  34.9861430  20.8365110 136.4537120  34.9697290
  28.0991760 137.1745720  37.8485390  27.4090080 136.9817920  38.4831480
  28.8424060 137.4580360  38.3809690  18.8263760 135.0139210  28.8118730
  18.5376810 135.5842070  29.5243710  19.5709520 134.5343660  29.1749960
  19.0133990 138.9559330  20.0221450  18.9308660 139.8990090  20.1636440
  18.6617050 138.8134240  19.1433800  30.3754730 141.0144160  30.6839310
  29.6435850 141.5230970  31.0329410  29.9779070 140.1974140  30.3828090
  26.8132120 137.6898360  29.0891800  26.8168180 137.2488310  28.2396340
  27.7083240 138.0115690  29.1963620  22.6634500 137.5724850  28.0486010
  22.3234550 138.0500080  28.8053060  21.9011820 137.1189970  27.6887110
  26.8752270 138.6910440  22.0798560  26.9965090 138.6496920  23.0284380
  26.4900780 139.5534590  21.9245290  30.8380640 136.4677840  30.0962250
  30.8553380 136.9186490  30.9404100  30.5896220 135.5683480  30.3095690
  25.8873770 141.0011580  21.4781860  25.3190670 140.5529830  20.8517770
  26.5962770 141.3604360  20.9447010  34.2651390 133.8810020  35.9348630
  34.5897160 133.1499680  36.4606610  34.3007900 133.5623660  35.0329620
  20.9642950 144.9023600  35.3548590  20.5797740 144.2617270  35.9531550
  21.2755140 145.6059720  35.9243320  27.1140090 141.7500140  30.8357210
  27.4810220 141.2758710  31.5818550  26.9245150 142.6241710  31.1765550
  19.9780580 136.4943830  26.9650680  19.6927500 136.1299500  27.8029300
  19.9159440 135.7624290  26.3513820  24.9039460 140.7908780  33.1541420
  24.5996530 141.6700760  33.3791780  25.8585920 140.8508570  33.1898860
  23.4321250 144.9969770  23.7508270  22.6583510 144.4567390  23.5906990
  24.1615880 144.4776380  23.4126030  34.1909230 143.9935130  29.5434660
  34.9108350 144.4890420  29.1530770  33.9891050 143.3153020  28.8988530
  29.6519170 135.3873090  23.6864050  28.8383780 134.8886260  23.6109360
  29.4581120 136.2271340  23.2700400  29.5728030 144.0644190  35.4303660
  29.5065340 143.1439860  35.1761250  28.9433170 144.1619630  36.1448300
  32.3667560 139.7592740  21.9826210  33.2547180 140.0709970  21.8077550
  32.3372650 138.8864990  21.5906790  23.4758650 144.6650150  27.3887080
  23.9937320 143.8618410  27.3343970  23.0242670 144.6029290  28.2303910
  28.3628150 145.9316430  22.6614380  28.7043850 146.6758660  22.1657700
  27.5340860 146.2447550  23.0239210  20.9603190 141.6311520  34.3012780
  20.6018130 142.2965370  34.8886120  20.6657750 140.7995070  34.6725400
  24.1616310 142.0895760  37.1852330  23.8616450 142.2352940  36.2880150
  24.9327550 141.5301050  37.0925720  29.5044760 146.8864760  35.1807460
  29.5189300 145.9545720  34.9626370  28.7969860 146.9724520  35.8197230
  34.6381830 141.0704580  21.4506070  34.5545550 141.5018800  20.6002510
  35.3576020 141.5302930  21.8832890  35.7155970 143.5272100  34.5276040
  34.9904160 144.1200880  34.3305430  36.2431430 143.5195640  33.7289410
  35.6669080 147.9246840  24.1788200  35.0245240 147.2702460  24.4531920
  35.2799740 148.3301930  23.4028870  31.2455560 145.2532270  28.0259890
  31.5979380 144.6560400  27.3661260  30.3617890 144.9276500  28.1968140
  27.3318840 146.0129960  25.4330300  28.0189970 146.5599170  25.8137890
  26.5451260 146.5570690  25.4679910  19.4711240 141.6302780  20.9247380
  20.3406090 141.9127580  21.2083300  18.9801560 142.4438650  20.8096190
  26.6346050 143.0175990  25.0455660  27.0908830 143.8281240  25.2715850
  26.2834260 142.6999130  25.8774150  28.9378660 148.5282330  32.2747960
  29.5820880 148.7341710  32.9521380  29.3008100 147.7670730  31.8218810
  22.5357830 133.3613640  25.5178180  22.4072460 133.3531540  26.4663100
  21.7119850 133.6996730  25.1669190  30.2110740 146.5314680  30.9925410
  30.8532970 145.8307840  31.1057580  30.7360090 147.3113120  30.8122300
  34.0566460 146.8163300  20.7164550  33.8304040 146.0993740  21.3089190
  33.6662660 146.5675740  19.8786300  31.9848360 147.3309580  34.1961470
  32.3204600 147.9176270  34.8739390  31.0648700 147.2002290  34.4259260
  19.8382490 150.8430160  21.4909010  20.1980130 151.4419500  20.8366280
  19.6974830 151.3890050  22.2644040  19.5351760 135.1204760  34.9784880
  18.8210280 135.3201680  35.5837490  19.9546800 134.3444330  35.3499680
  33.6382710 144.7335240  22.3778710  33.3504410 145.1947930  23.1656590
  34.4334880 144.2733010  22.6462930  19.8224350 149.1085020  35.9651410
  19.9315470 148.1679760  35.8246800  19.1704910 149.3739770  35.3165140
  27.8136940 147.3800910  37.3649530  27.4933810 146.6610150  37.9095220
  27.1395300 148.0555980  37.4385590  25.8551110 148.2261360  22.3082680
  25.8461210 148.9591050  21.6927190  24.9349470 147.9792940  22.4009640
  21.4557750 143.4476250  23.0529440  20.8485700 144.1875150  23.0624740
  21.9307100 143.5375610  22.2267640  31.0290540 137.6127070  32.7286330
  31.3971360 136.7922280  33.0565900  30.1688740 137.6728960  33.1441980
  34.3952570 136.5684010  23.5373890  33.7665730 136.6729680  22.8232120
  33.9004490 136.7880790  24.3267770  28.8410710 148.2889600  20.9707870
  28.9422690 148.0853590  20.0409850  27.9412450 148.0347880  21.1755650
  26.3636600 138.8469960  24.9531770  25.6552750 139.3156300  25.3945380
  26.6481080 138.1891970  25.5876960  27.9892530 140.2666660  32.9524300
  28.4877780 140.7412480  33.6176150  28.1315480 139.3430180  33.1594330
  30.3952030 135.5720620  26.3927560  30.2719810 135.5906750  25.4437070
  31.3436590 135.6199560  26.5125960  27.4828820 150.8075920  25.6655540
  27.7370320 150.7697310  24.7434910  26.5341300 150.6809250  25.6583790
  24.5671620 137.1555040  22.3282480  25.4162150 137.5925190  22.2622670
  24.2002890 137.4675300  23.1554540  35.1959390 136.4834620  33.7952690
  34.6932990 137.2240020  34.1346500  36.0116050 136.8718620  33.4789480
  33.4881400 141.7267800  27.2414050  32.5471540 141.7418030  27.4161740
  33.8025470 140.9403760  27.6874350  23.4663040 143.4087400  20.8018010
  24.2326310 143.2968760  21.3643440  23.5437730 142.7125370  20.1494780
  22.1609800 140.8412470  21.4850900  22.2413390 139.8939980  21.5968300
  23.0529550 141.1719350  21.5911560  35.4906980 148.8976650  28.9168310
  35.6154400 149.7207820  29.3892120  36.3572540 148.6867380  28.5692460
  19.8469990 147.0581430  24.4626950  18.9209770 147.3002570  24.4532360
  20.3126420 147.8855690  24.3411700  21.9682790 150.1753930  37.7771020
  22.7695520 150.4965980  38.1906420  21.4534610 149.8149510  38.4990930
  26.0726820 150.1638170  20.4111010  26.8655430 150.4527000  19.9592800
  25.5531170 149.7330340  19.7323490  30.8047420 146.2833800  37.7246430
  30.1985580 146.3065400  36.9842180  30.5001530 145.5516840  38.2613680
  32.2347790 150.0114090  36.3355840  33.1869540 149.9272110  36.2856080
  32.0876010 150.6755800  37.0089630  35.1256990 149.3908300  21.8347750
  34.8398500 148.9773440  21.0201930  34.9276540 150.3196010  21.7148270
  19.6880600 142.6627390  36.7207070  20.1919620 142.0834670  37.2923300
  18.9488020 142.9467620  37.2583440  26.5904220 145.3841580  20.2753360
  26.4854860 144.7693930  21.0014740  26.4228440 144.8607470  19.4916370
  26.7418540 144.0698380  36.2542590  25.9764210 144.6383380  36.1697260
  26.9234500 143.7774590  35.3610820  29.8306950 144.4461610  20.8795350
  29.2817050 144.8930910  21.5238090  30.4526210 143.9410860  21.4033020
  33.8841890 145.8003710  36.8117610  34.6251360 146.1379470  36.3085070
  33.1214570 145.9695770  36.2587380  21.7203680 140.8056980  37.6157140
  21.7609020 140.5070850  38.5242370  22.5749180 141.2064590  37.4564660
  25.4982070 143.4052530  22.7760650  25.9198490 143.2392400  23.6192040
  25.6232910 142.5952760  22.2815790  23.6609490 139.3849080  35.5831630
  23.1305950 138.8940030  34.9554970  24.3297560 139.8133280  35.0489560
  28.0109710 142.4290140  20.0237750  28.5315370 141.7139160  19.6578900
  28.6578110 143.0676010  20.3238260  32.5587550 143.8518540  35.3472820
  32.9728570 144.0063620  36.1963240  31.6238550 143.9773760  35.5098600
  33.0309720 141.1914700  37.3511970  33.6130490 140.4367020  37.2632450
  33.2071490 141.7222140  36.5743450  24.1481790 136.3511450  35.6628920
  24.0538660 135.7332200  34.9379790  23.5679180 137.0777740  35.4358830
  26.9143230 134.9084690  32.6956310  26.4660530 134.9308950  31.8501860
  26.2808430 134.5103710  33.2926610  27.3202780 143.8039020  33.3168750
  27.7390890 144.6471750  33.1444990  26.4011410 143.9411060  33.0875530
  29.6566680 141.5355200  34.7006590  29.7762890 140.9396340  35.4401430
  30.5160680 141.5724890  34.2807890  31.9954580 142.0892390  33.2769100
  31.4689800 142.6135010  32.6734240  32.3385920 142.7219780  33.9078830
  24.3940970 139.4785760  19.7218810  24.1930030 138.6153120  20.0832150
  24.2233020 139.3919120  18.7840410  25.1710200 150.1092030  34.4326480
  24.6331290 150.8338090  34.1135180  25.4244160 149.6322370  33.6423820
  26.4235450 138.0776550  35.9582410  27.0135140 137.7692400  36.6460230
  25.6055690 137.6056300  36.1142310  31.2428880 137.6942360  36.1915430
  30.5544400 137.0323900  36.1265420  31.9634900 137.2480630  36.6363890
  31.8729280 134.2893990  22.2505690  32.1531570 133.4461890  22.6065110
  31.0995010 134.5217100  22.7644440  23.1923770 136.5786380  19.7096690
  23.4949670 136.5853810  18.8015840  23.9318360 136.2284240  20.2064350
  26.4108700 135.5221000  20.6952890  26.0630700 134.8444990  20.1155340
  26.6121470 135.0610510  21.5096280  28.5757740 150.5101750  22.3139490
  29.4708530 150.8486720  22.3358250  28.6075370 149.7881160  21.6863770
  22.2153900 145.8828800  20.5426490  22.6528770 146.4258470  21.1984070
  22.7001630 145.0575750  20.5522830  19.4299700 148.6717830  27.9946750
  19.7602710 147.8038890  27.7625390  19.8590700 148.8776350  28.8251710
  24.0261620 147.0026840  25.6548720  23.7257160 146.8791810  26.5552630
  23.9199110 146.1435430  25.2464450  19.9189910 149.5388420  30.7328380
  19.4820900 149.7189220  31.5652530  20.4867590 150.2963040  30.5910100
  35.5552090 149.0405420  35.0205690  34.9554080 149.0997980  34.2769610
  35.6845990 148.1010400  35.1502540  36.7953540 146.7823240  20.3575400
  35.9646500 146.8499890  20.8282630  36.9725370 147.6727360  20.0542260
  36.2510000 143.5270720  22.8609600  37.0128910 144.0967370  22.9669290
  36.2664370 142.9597920  23.6317910  19.7514340 142.0508650  27.0917260
  19.0963180 141.7820290  26.4476960  20.5892290 141.9413130  26.6419240
  37.2569970 144.3820820  27.7051530  37.6278800 143.5988140  27.2987500
  37.8971900 145.0709920  27.5268830  34.2403730 145.7657400  33.1181850
  33.4263570 146.1954560  33.3807640  34.6477930 146.3775810  32.5050900
  36.3029170 143.8205090  20.0182120  36.5778010 144.7283970  19.8901340
  36.1139910 143.7567620  20.9544110  32.7004780 136.8449940  21.3135750
  33.1189660 136.6580920  20.4732410  32.3940840 135.9928990  21.6238680
  36.1994510 141.7574080  25.0111550  35.8238110 140.9902010  24.5792840
  35.4697630 142.1396780  25.4986480  20.7890270 142.4361220  31.6320600
  21.1563310 142.3488620  32.5116620  20.2201090 141.6727770  31.5327460
  35.5894130 140.9045600  34.6451070  35.3580220 140.6758350  33.7449020
  35.8498680 141.8245150  34.5995960  20.3406270 139.3470310  35.5379020
  19.4462320 139.3137070  35.8772730  20.8803820 139.5457100  36.3030270
  34.0282200 136.1302030  37.4230770  34.9052380 136.1385430  37.8064770
  34.0403040 135.3932870  36.8123120  18.9652420 139.2607580  23.0342590
  18.0616500 139.5237780  22.8594250  19.4493040 139.5318750  22.2542550
  35.4745470 139.9831570  28.3118790  35.9982950 139.4894220  27.6808960
  36.0604890 140.1181930  29.0566360  35.6535190 140.0671440  31.8338340
  34.7037900 140.0334980  31.9483330  35.8348200 140.9771550  31.5988110
  21.5079630 138.3173120  20.9436970  22.2171330 137.8956340  20.4584250
  20.7919570 138.3848350  20.3120320  21.1553790 134.3712450  19.9839620
  21.8781920 134.9121390  20.3020840  21.4278310 134.0975870  19.1081160
  34.9645440 139.2404920  24.2511200  35.4604560 139.0075790  25.0360080
  34.7661510 138.4016760  23.8348840  20.8445980 133.6218640  29.8862240
  21.4922170 133.0716020  29.4457400  21.2647820 133.8761790  30.7078050
  36.3932600 137.8765870  26.7848880  36.2831880 137.7221910  27.7231150
  37.1540190 137.3486810  26.5424290  34.7398320 133.8160000  33.2431880
  35.3770540 134.4294140  33.6091070  34.8873210 133.8520660  32.2981110
  37.2822870 135.7073790  20.0255020  38.2072180 135.5754970  19.8173310
  37.2598660 135.7866610  20.9791470  37.3561360 136.4784450  22.6511730
  36.5612860 136.4129570  23.1804640  37.5604640 137.4135090  22.6397080
  34.2979780 150.5176000  26.6450120  34.8938850 150.1960570  25.9684540
  34.5557930 150.0447820  27.4363390  20.5977980 133.7774310  32.6287560
  20.2492800 134.2338130  33.3945740  20.2665680 132.8831440  32.7109990
  22.2042350 146.9493910  36.7940750  22.1611980 146.5786820  37.6755210
  22.3353360 147.8871480  36.9342570  25.9048380 148.5053500  32.3950470
  25.6639740 148.7728060  31.5080990  26.8451020 148.6759230  32.4501330
  28.1102800 134.9686190  36.1506980  28.0491690 135.5608020  36.9002390
  29.0503180 134.8612150  36.0057240  30.7477360 134.6256250  35.7899270
  31.3617770 134.9435540  35.1280350  31.2926920 134.1404840  36.4095130
  37.1652540 150.5247880  33.1961110  36.6710820 150.9216750  32.4788240
  36.5565830 149.8997090  33.5898390  21.2698620 133.3050510  35.9038330
  21.8181610 133.1238560  35.1404440  21.3353930 132.5144620  36.4394640
  22.0430380 149.8956160  33.9138530  21.4490700 149.7640860  34.6528570
  22.0354220 149.0594300  33.4480630  31.4885400 133.1888390  32.1168560
  30.6145240 133.5223500  31.9141490  31.3796150 132.7161570  32.9420430
  32.3957380 135.3959260  33.5010280  32.0670740 134.5811020  33.1212010
  33.3439680 135.3529070  33.3775970  21.6742610 147.2614540  32.8646570
  20.9476670 146.6419830  32.7972520  21.7351760 147.6555150  31.9944650
  25.2787710 149.4759540  29.6495980  25.7952730 148.8646900  29.1244240
  25.9285090 149.9788320  30.1406990  28.0183210 150.3668030  30.4764960
  28.3061020 150.1122330  29.5997970  28.5306430 149.8145390  31.0670530
  29.2360220 134.1058230  31.0561470  28.4532010 134.5803730  31.3358230
  28.9423150 133.2013060  30.9474650  33.7881290 134.8081330  29.1010560
  34.2289380 134.7526430  28.2532160  33.5188880 135.7239340  29.1720740
  35.6519860 134.4396570  27.1119380  35.5908260 133.4957790  26.9650400
  36.4311890 134.5476660  27.6572840  19.9572610 150.5788930  26.0743330
  19.7894650 149.9459610  26.7725220  19.0907120 150.7848330  25.7237520
  20.5800630 134.4105710  23.5775190  21.3379990 134.5234590  23.0039220
  20.1177800 135.2474910  23.5318620  27.1214440 136.5244980  26.5677500
  26.3088950 136.1501870  26.2273380  27.6256080 135.7690060  26.8698690
  31.6239420 133.1887430  27.8060570  32.2268790 133.7607640  28.2809090
  30.8832410 133.7526870  27.5834470  34.7674020 133.5908990  23.0800850
  34.9624650 134.4892440  23.3468280  33.9803890 133.3596070  23.5733800
  21.5635310 149.2722160  23.5193470  21.0382930 149.6530190  22.8155430
  21.4879890 149.8972930  24.2403180  22.9525780 134.9369760  22.1177160
  23.4818540 134.1499560  21.9885110  23.5854100 135.6160950  22.3512690
  25.1463620 134.6744900  25.1722550  24.5166360 133.9732210  25.3392680
  24.6068760 135.4349030  24.9555710  36.3200630 150.8309700  24.8407410
  36.4952820 150.1447440  24.1968330  35.6222200 151.3556750  24.4484080
  25.2719180 133.9528880  37.6075040  24.9903450 134.4562480  36.8435860
  25.6538880 133.1550630  37.2417170  24.1628280 151.2204540  22.3942720
  24.8947100 150.9363820  21.8466610  24.4221950 150.9817820  23.2842100
  23.3243070 147.3369270  22.3989050  22.6951950 147.8054370  22.9474880
  23.4390900 146.4918490  22.8335240  31.8734640 133.3682460  38.1855510
  31.7600090 133.6877070  39.0807030  32.6904380 133.7694970  37.8892790
  34.6533130 150.5153990  37.6674200  35.4458450 150.0203220  37.4600160
  34.9466280 151.1944130  38.2749810  30.7792790 141.3874930   8.5490250
  30.6986840 140.4729540   8.2781960  30.3657210 141.8842000   7.8429960
  28.9110830 143.1653950  10.4299520  28.1352930 142.6854390  10.7198090
  29.5623760 142.4859600  10.2555680  22.9276660 143.4773760  11.3075280
  22.0961540 143.2222470  11.7071790  23.5357640 143.5484530  12.0433200
  32.9318260 147.5714140   9.2098650  32.4699790 146.8001380   9.5385820
  33.7443810 147.5980210   9.7151100  22.9077920 147.5113850  11.5033300
  23.2105960 146.6211590  11.3243520  23.6521510 148.0684070  11.2755550
  21.3368610 138.4375650   5.0917670  20.4485310 138.7791620   4.9897550
  21.6209800 138.2375970   4.1998500  19.3001620 141.0381300  10.9757370
  19.8717730 140.2703500  10.9761010  19.3003160 141.3370060  10.0663980
  29.1581570 149.8572150   8.8302640  28.5393010 150.3129650   8.2597080
  30.0133350 150.0123610   8.4292340  28.3519820 145.8411140  10.4369680
  28.2828100 144.9001080  10.2758810  29.1139680 145.9312550  11.0092250
  20.5426490 136.4465660  12.7626300  20.3629330 135.5491410  13.0429060
  20.1406570 136.9937530  13.4373250  29.3824990 138.6481520  10.6638610
  29.7589810 137.7753400  10.5512280  29.2844500 138.9840220   9.7729050
  23.5130000 137.0207150   6.1256050  23.6196750 137.9210880   6.4324810
  22.6022360 136.9725120   5.8350700  33.1649110 136.1431960   7.5966950
  33.9858730 135.6528530   7.6392430  33.1983190 136.7329620   8.3498790
  21.1613160 138.9426160  11.3708640  21.8423270 139.2064530  11.9896040
  20.8461210 138.1027030  11.7046650  25.3537730 139.9893520  10.4581230
  25.8615950 140.4874490  11.0986250  25.8850970 139.2128720  10.2820590
  37.4548660 138.1598710  14.1610580  36.7500830 138.5480420  13.6425690
  37.7206580 138.8549000  14.7631510  23.6373830 134.6292080  14.7244650
  23.6392270 135.1464470  13.9190550  22.8078140 134.1522260  14.7014580
  30.0244920 144.7411390   6.2234550  29.4062190 145.2060840   5.6597270
  30.5368170 145.4338870   6.6404060  24.8876680 144.2687260  12.9018150
  24.5546060 144.8956180  13.5439220  25.0643360 144.7949140  12.1219820
  33.4010590 138.0832340  10.3694490  32.6966160 138.3717230  10.9497600
  33.7622750 138.8932450  10.0094050  23.3189160 136.3402040  12.7315100
  23.6605970 137.1844090  12.4368970  22.3804970 136.4885780  12.8480440
  24.0995780 146.2368060  14.7167330  24.7169780 146.9119140  14.4351780
  23.2388900 146.6456040  14.6254830  19.3928120 145.4267920   3.5974180
  19.0156100 145.9155020   2.8659080  19.6501190 146.0993200   4.2280710
  35.0173370 147.7007470  12.6321970  34.3336890 148.3706580  12.6238640
  35.5567660 147.8988120  11.8666830  36.4697510 137.5287130  10.7603700
  35.5222420 137.5626110  10.8919130  36.7947500 138.3426080  11.1453060
  27.0017050 133.8284310   9.0559690  27.3092030 133.2731200   8.3395190
  26.0717750 133.9628770   8.8732680  32.5532110 149.5451600  11.3467150
  32.5659270 149.1413890  10.4789410  32.0007330 150.3198890  11.2428580
  33.8477530 146.2667820   6.4357320  33.7373860 145.3242150   6.5606740
  33.8445780 146.6283460   7.3220080  31.9517550 144.4481440  12.6749760
  32.3686340 144.2341550  11.8403220  32.6757370 144.7054230  13.2458380
  29.3897810 141.8933140   5.7919810  28.4627090 141.8270520   6.0208280
  29.5422630 142.8313270   5.6775050  29.3766890 138.1650140   2.7886970
  28.4370560 138.3264100   2.8739430  29.6950150 138.8835820   2.2422960
  35.8979650 142.8468660  12.7666000  35.0698280 142.9161750  12.2916130
  36.4930130 143.4322970  12.2981830  33.4195100 143.4553440   6.2955060
  32.8007520 143.1172990   5.6481360  33.4019550 142.8113200   7.0034250
  32.8621660 139.6337980  13.7120870  32.4492840 140.4591690  13.9660860
  32.1297610 139.0483020  13.5197230  24.9954450 142.4197880   8.5739540
  24.5911450 141.7075130   8.0785440  25.0817570 142.0751120   9.4627580
  25.4636150 146.1065440  10.7378750  25.1664440 145.5010910  10.0586530
  26.4135970 146.1442750  10.6268110  23.7083070 139.1941090  12.3538580
  24.2597660 139.3036430  11.5791830  24.2226580 139.5678690  13.0693810
  33.5521760 149.6797310  14.4001850  33.0752320 150.4869500  14.2074460
  32.8683550 149.0275640  14.5528060  24.5554580 145.8447130  17.3886550
  23.6583110 146.0687100  17.6359950  24.5807450 145.9682070  16.4397950
  31.5959800 142.6940250   3.3027810  32.0353080 141.8562680   3.1565630
  32.3088220 143.3269650   3.3891950  23.3825800 142.7160450  15.9643920
  23.2433570 143.5883250  16.3331320  22.5007160 142.3733260  15.8191860
  29.7055180 147.6336320   7.2709050  30.1451090 148.3760650   6.8564440
  29.6442070 147.8762890   8.1948010  25.1806150 148.6582150  18.1729070
  25.1521580 149.0625100  17.3057500  25.0171120 147.7292510  18.0100670
  21.6959080 141.3142860   6.0746190  21.5756680 142.0404950   5.4627460
  21.3859970 140.5445770   5.5974100  37.1320970 149.4409250  19.4693240
  37.6080690 149.9192140  20.1482320  37.7528130 149.3726740  18.7438740
  19.3344450 144.4858000  11.8814830  19.4124870 144.6206770  10.9370550
  19.9486130 143.7773890  12.0742950  20.5792080 146.1858190   8.2921010
  20.1720160 146.3272780   7.4374610  21.4705090 145.9018350   8.0892220
  36.5354220 146.6322100  16.6293250  36.6617280 146.3933980  15.7110430
  36.5775600 145.8006640  17.1015330  30.3970960 150.3350100  15.1988060
  30.9115630 150.2458110  16.0010490  29.5540040 150.6809800  15.4915970
  32.3725360 150.6205440   4.6272060  32.2126500 150.3308380   5.5253890
  32.2072070 149.8445570   4.0917290  24.8513740 150.4003970   6.4043680
  24.6756220 149.4839510   6.1911480  23.9969480 150.7591260   6.6441480
  32.0751490 148.1293000   3.1870060  31.3816650 148.1270290   2.5272340
  32.8174350 147.7052320   2.7564230  31.6401420 149.7555710   7.2618550
  32.0958370 148.9745090   7.5757170  31.9793940 150.4662530   7.8059730
  36.3878230 138.6854560  17.5942990  35.7722500 139.1934230  17.0658450
  36.0674650 137.7852890  17.5368930  19.3903970 145.5272170  14.4209290
  19.5535010 145.0577530  13.6028660  19.8556420 145.0195730  15.0858130
  24.1622740 134.6577930   9.4569860  23.7190890 135.4387470   9.1254380
  24.7207730 134.9807820  10.1640800  28.4492550 137.5246450  15.0605180
  27.9871920 137.7329470  15.8725120  28.0470660 136.7105800  14.7575850
  33.4497060 138.7455400  16.1901840  32.5990650 138.4461150  16.5110910
  33.2898850 138.9897410  15.2785660  30.5446770 140.2457150  18.2900630
  30.8700180 139.4120900  17.9502860  31.3327100 140.7685670  18.4378960
  27.2781560 134.2788630   4.3375690  26.6535740 134.2748500   5.0629000
  27.1911680 133.4119590   3.9411660  26.1998640 135.2025260  11.3159460
  26.4970970 136.1088090  11.2351480  26.7484200 134.7144040  10.7019030
  23.9536960 139.7811500   7.1851110  23.7277880 139.5648670   8.0897730
  23.1729490 140.2139960   6.8397080  31.1834720 139.7874870   5.7841760
  30.5843610 140.5110670   5.6005380  31.7314330 139.7251650   5.0018210
  26.3936170 140.6797080  17.8511380  26.2979770 139.7391810  17.7011780
  27.2368150 140.9012150  17.4559450  29.7899590 138.4238410   7.8145040
  30.1829160 138.7410610   7.0013730  30.1516440 137.5450290   7.9289560
  21.5246710 137.0910750  16.0045160  21.1310100 137.9385960  16.2117940
  20.8365110 136.4537120  16.1953800  28.0991760 137.1745720  19.0741900
  27.4090080 136.9817920  19.7087990  28.8424060 137.4580360  19.6066200
  18.8263760 135.0139210  10.0375240  18.5376810 135.5842070  10.7500220
  19.5709520 134.5343660  10.4006470  30.3754730 141.0144160  11.9095820
  29.6435850 141.5230970  12.2585920  29.9779070 140.1974140  11.6084600
  26.8132120 137.6898360  10.3148310  26.8168180 137.2488310   9.4652850
  27.7083240 138.0115690  10.4220130  22.6634500 137.5724850   9.2742520
  22.3234550 138.0500080  10.0309570  21.9011820 137.1189970   8.9143620
  26.8752270 138.6910440   3.3055070  26.9965090 138.6496920   4.2540890
  26.4900780 139.5534590   3.1501800  30.8380640 136.4677840  11.3218760
  30.8553380 136.9186490  12.1660610  30.5896220 135.5683480  11.5352200
  25.8873770 141.0011580   2.7038370  25.3190670 140.5529830   2.0774280
  26.5962770 141.3604360   2.1703520  34.2651390 133.8810020  17.1605140
  34.5897160 133.1499680  17.6863120  34.3007900 133.5623660  16.2586130
  20.9642950 144.9023600  16.5805100  20.5797740 144.2617270  17.1788060
  21.2755140 145.6059720  17.1499830  27.1140090 141.7500140  12.0613720
  27.4810220 141.2758710  12.8075060  26.9245150 142.6241710  12.4022060
  19.9780580 136.4943830   8.1907190  19.6927500 136.1299500   9.0285810
  19.9159440 135.7624290   7.5770330  24.9039460 140.7908780  14.3797930
  24.5996530 141.6700760  14.6048290  25.8585920 140.8508570  14.4155370
  23.4321250 144.9969770   4.9764780  22.6583510 144.4567390   4.8163500
  24.1615880 144.4776380   4.6382540  34.1909230 143.9935130  10.7691170
  34.9108350 144.4890420  10.3787280  33.9891050 143.3153020  10.1245040
  29.6519170 135.3873090   4.9120560  28.8383780 134.8886260   4.8365870
  29.4581120 136.2271340   4.4956910  29.5728030 144.0644190  16.6560170
  29.5065340 143.1439860  16.4017760  28.9433170 144.1619630  17.3704810
  32.3667560 139.7592740   3.2082720  33.2547180 140.0709970   3.0334060
  32.3372650 138.8864990   2.8163300  23.4758650 144.6650150   8.6143590
  23.9937320 143.8618410   8.5600480  23.0242670 144.6029290   9.4560420
  28.3628150 145.9316430   3.8870890  28.7043850 146.6758660   3.3914210
  27.5340860 146.2447550   4.2495720  20.9603190 141.6311520  15.5269290
  20.6018130 142.2965370  16.1142630  20.6657750 140.7995070  15.8981910
  24.1616310 142.0895760  18.4108840  23.8616450 142.2352940  17.5136660
  24.9327550 141.5301050  18.3182230  29.5044760 146.8864760  16.4063970
  29.5189300 145.9545720  16.1882880  28.7969860 146.9724520  17.0453740
  34.6381830 141.0704580   2.6762580  34.5545550 141.5018800   1.8259020
  35.3576020 141.5302930   3.1089400  35.7155970 143.5272100  15.7532550
  34.9904160 144.1200880  15.5561940  36.2431430 143.5195640  14.9545920
  35.6669080 147.9246840   5.4044710  35.0245240 147.2702460   5.6788430
  35.2799740 148.3301930   4.6285380  31.2455560 145.2532270   9.2516400
  31.5979380 144.6560400   8.5917770  30.3617890 144.9276500   9.4224650
  27.3318840 146.0129960   6.6586810  28.0189970 146.5599170   7.0394400
  26.5451260 146.5570690   6.6936420  19.4711240 141.6302780   2.1503890
  20.3406090 141.9127580   2.4339810  18.9801560 142.4438650   2.0352700
  26.6346050 143.0175990   6.2712170  27.0908830 143.8281240   6.4972360
  26.2834260 142.6999130   7.1030660  28.9378660 148.5282330  13.5004470
  29.5820880 148.7341710  14.1777890  29.3008100 147.7670730  13.0475320
  22.5357830 133.3613640   6.7434690  22.4072460 133.3531540   7.6919610
  21.7119850 133.6996730   6.3925700  30.2110740 146.5314680  12.2181920
  30.8532970 145.8307840  12.3314090  30.7360090 147.3113120  12.0378810
  31.9848360 147.3309580  15.4217980  32.3204600 147.9176270  16.0995900
  31.0648700 147.2002290  15.6515770  19.8382490 150.8430160   2.7165520
  20.1980130 151.4419500   2.0622790  19.6974830 151.3890050   3.4900550
  19.5351760 135.1204760  16.2041390  18.8210280 135.3201680  16.8094000
  19.9546800 134.3444330  16.5756190  33.6382710 144.7335240   3.6035220
  33.3504410 145.1947930   4.3913100  34.4334880 144.2733010   3.8719440
  19.8224350 149.1085020  17.1907920  19.9315470 148.1679760  17.0503310
  19.1704910 149.3739770  16.5421650  27.8136940 147.3800910  18.5906040
  27.4933810 146.6610150  19.1351730  27.1395300 148.0555980  18.6642100
  25.8551110 148.2261360   3.5339190  25.8461210 148.9591050   2.9183700
  24.9349470 147.9792940   3.6266150  21.4557750 143.4476250   4.2785950
  20.8485700 144.1875150   4.2881250  21.9307100 143.5375610   3.4524150
  31.0290540 137.6127070  13.9542840  31.3971360 136.7922280  14.2822410
  30.1688740 137.6728960  14.3698490  34.3952570 136.5684010   4.7630400
  33.7665730 136.6729680   4.0488630  33.9004490 136.7880790   5.5524280
  26.3636600 138.8469960   6.1788280  25.6552750 139.3156300   6.6201890
  26.6481080 138.1891970   6.8133470  27.9892530 140.2666660  14.1780810
  28.4877780 140.7412480  14.8432660  28.1315480 139.3430180  14.3850840
  30.3952030 135.5720620   7.6184070  30.2719810 135.5906750   6.6693580
  31.3436590 135.6199560   7.7382470  27.4828820 150.8075920   6.8912050
  27.7370320 150.7697310   5.9691420  26.5341300 150.6809250   6.8840300
  24.5671620 137.1555040   3.5538990  25.4162150 137.5925190   3.4879180
  24.2002890 137.4675300   4.3811050  35.1959390 136.4834620  15.0209200
  34.6932990 137.2240020  15.3603010  36.0116050 136.8718620  14.7045990
  33.4881400 141.7267800   8.4670560  32.5471540 141.7418030   8.6418250
  33.8025470 140.9403760   8.9130860  22.1609800 140.8412470   2.7107410
  22.2413390 139.8939980   2.8224810  23.0529550 141.1719350   2.8168070
  35.4906980 148.8976650  10.1424820  35.6154400 149.7207820  10.6148630
  36.3572540 148.6867380   9.7948970  19.8469990 147.0581430   5.6883460
  18.9209770 147.3002570   5.6788870  20.3126420 147.8855690   5.5668210
  21.9682790 150.1753930  19.0027530  22.7695520 150.4965980  19.4162930
  21.4534610 149.8149510  19.7247440  30.8047420 146.2833800  18.9502940
  30.1985580 146.3065400  18.2098690  30.5001530 145.5516840  19.4870190
  32.2347790 150.0114090  17.5612350  33.1869540 149.9272110  17.5112590
  32.0876010 150.6755800  18.2346140  35.1256990 149.3908300   3.0604260
  34.8398500 148.9773440   2.2458440  34.9276540 150.3196010   2.9404780
  19.6880600 142.6627390  17.9463580  20.1919620 142.0834670  18.5179810
  18.9488020 142.9467620  18.4839950  26.7418540 144.0698380  17.4799100
  25.9764210 144.6383380  17.3953770  26.9234500 143.7774590  16.5867330
  29.8306950 144.4461610   2.1051860  29.2817050 144.8930910   2.7494600
  30.4526210 143.9410860   2.6289530  33.8841890 145.8003710  18.0374120
  34.6251360 146.1379470  17.5341580  33.1214570 145.9695770  17.4843890
  21.7203680 140.8056980  18.8413650  21.7609020 140.5070850  19.7498880
  22.5749180 141.2064590  18.6821170  25.4982070 143.4052530   4.0017160
  25.9198490 143.2392400   4.8448550  25.6232910 142.5952760   3.5072300
  23.6609490 139.3849080  16.8088140  23.1305950 138.8940030  16.1811480
  24.3297560 139.8133280  16.2746070  32.5587550 143.8518540  16.5729330
  32.9728570 144.0063620  17.4219750  31.6238550 143.9773760  16.7355110
  33.0309720 141.1914700  18.5768480  33.6130490 140.4367020  18.4888960
  33.2071490 141.7222140  17.7999960  24.1481790 136.3511450  16.8885430
  24.0538660 135.7332200  16.1636300  23.5679180 137.0777740  16.6615340
  26.9143230 134.9084690  13.9212820  26.4660530 134.9308950  13.0758370
  26.2808430 134.5103710  14.5183120  27.3202780 143.8039020  14.5425260
  27.7390890 144.6471750  14.3701500  26.4011410 143.9411060  14.3132040
  29.6566680 141.5355200  15.9263100  29.7762890 140.9396340  16.6657940
  30.5160680 141.5724890  15.5064400  31.9954580 142.0892390  14.5025610
  31.4689800 142.6135010  13.8990750  32.3385920 142.7219780  15.1335340
  25.1710200 150.1092030  15.6582990  24.6331290 150.8338090  15.3391690
  25.4244160 149.6322370  14.8680330  26.4235450 138.0776550  17.1838920
  27.0135140 137.7692400  17.8716740  25.6055690 137.6056300  17.3398820
  31.2428880 137.6942360  17.4171940  30.5544400 137.0323900  17.3521930
  31.9634900 137.2480630  17.8620400  31.8729280 134.2893990   3.4762200
  32.1531570 133.4461890   3.8321620  31.0995010 134.5217100   3.9900950
  28.5757740 150.5101750   3.5396000  29.4708530 150.8486720   3.5614760
  28.6075370 149.7881160   2.9120280  22.2153900 145.8828800   1.7683000
  22.6528770 146.4258470   2.4240580  22.7001630 145.0575750   1.7779340
  19.4299700 148.6717830   9.2203260  19.7602710 147.8038890   8.9881900
  19.8590700 148.8776350  10.0508220  24.0261620 147.0026840   6.8805230
  23.7257160 146.8791810   7.7809140  23.9199110 146.1435430   6.4720960
  19.9189910 149.5388420  11.9584890  19.4820900 149.7189220  12.7909040
  20.4867590 150.2963040  11.8166610  35.5552090 149.0405420  16.2462200
  34.9554080 149.0997980  15.5026120  35.6845990 148.1010400  16.3759050
  36.2510000 143.5270720   4.0866110  37.0128910 144.0967370   4.1925800
  36.2664370 142.9597920   4.8574420  19.7514340 142.0508650   8.3173770
  19.0963180 141.7820290   7.6733470  20.5892290 141.9413130   7.8675750
  37.2569970 144.3820820   8.9308040  37.6278800 143.5988140   8.5244010
  37.8971900 145.0709920   8.7525340  34.2403730 145.7657400  14.3438360
  33.4263570 146.1954560  14.6064150  34.6477930 146.3775810  13.7307410
  32.7004780 136.8449940   2.5392260  33.1189660 136.6580920   1.6988920
  32.3940840 135.9928990   2.8495190  36.1994510 141.7574080   6.2368060
  35.8238110 140.9902010   5.8049350  35.4697630 142.1396780   6.7242990
  20.7890270 142.4361220  12.8577110  21.1563310 142.3488620  13.7373130
  20.2201090 141.6727770  12.7583970  35.5894130 140.9045600  15.8707580
  35.3580220 140.6758350  14.9705530  35.8498680 141.8245150  15.8252470
  20.3406270 139.3470310  16.7635530  19.4462320 139.3137070  17.1029240
  20.8803820 139.5457100  17.5286780  34.0282200 136.1302030  18.6487280
  34.9052380 136.1385430  19.0321280  34.0403040 135.3932870  18.0379630
  18.9652420 139.2607580   4.2599100  18.0616500 139.5237780   4.0850760
  19.4493040 139.5318750   3.4799060  35.4745470 139.9831570   9.5375300
  35.9982950 139.4894220   8.9065470  36.0604890 140.1181930  10.2822870
  35.6535190 140.0671440  13.0594850  34.7037900 140.0334980  13.1739840
  35.8348200 140.9771550  12.8244620  34.9645440 139.2404920   5.4767710
  35.4604560 139.0075790   6.2616590  34.7661510 138.4016760   5.0605350
  20.8445980 133.6218640  11.1118750  21.4922170 133.0716020  10.6713910
  21.2647820 133.8761790  11.9334560  36.3932600 137.8765870   8.0105390
  36.2831880 137.7221910   8.9487660  37.1540190 137.3486810   7.7680800
  34.7398320 133.8160000  14.4688390  35.3770540 134.4294140  14.8347580
  34.8873210 133.8520660  13.5237620  37.3561360 136.4784450   3.8768240
  36.5612860 136.4129570   4.4061150  37.5604640 137.4135090   3.8653590
  34.2979780 150.5176000   7.8706630  34.8938850 150.1960570   7.1941050
  34.5557930 150.0447820   8.6619900  20.5977980 133.7774310  13.8544070
  20.2492800 134.2338130  14.6202250  20.2665680 132.8831440  13.9366500
  22.2042350 146.9493910  18.0197260  22.1611980 146.5786820  18.9011720
  22.3353360 147.8871480  18.1599080  25.9048380 148.5053500  13.6206980
  25.6639740 148.7728060  12.7337500  26.8451020 148.6759230  13.6757840
  28.1102800 134.9686190  17.3763490  28.0491690 135.5608020  18.1258900
  29.0503180 134.8612150  17.2313750  30.7477360 134.6256250  17.0155780
  31.3617770 134.9435540  16.3536860  31.2926920 134.1404840  17.6351640
  37.1652540 150.5247880  14.4217620  36.6710820 150.9216750  13.7044750
  36.5565830 149.8997090  14.8154900  21.2698620 133.3050510  17.1294840
  21.8181610 133.1238560  16.3660950  21.3353930 132.5144620  17.6651150
  22.0430380 149.8956160  15.1395040  21.4490700 149.7640860  15.8785080
  22.0354220 149.0594300  14.6737140  31.4885400 133.1888390  13.3425070
  30.6145240 133.5223500  13.1398000  31.3796150 132.7161570  14.1676940
  32.3957380 135.3959260  14.7266790  32.0670740 134.5811020  14.3468520
  33.3439680 135.3529070  14.6032480  21.6742610 147.2614540  14.0903080
  20.9476670 146.6419830  14.0229030  21.7351760 147.6555150  13.2201160
  25.2787710 149.4759540  10.8752490  25.7952730 148.8646900  10.3500750
  25.9285090 149.9788320  11.3663500  28.0183210 150.3668030  11.7021470
  28.3061020 150.1122330  10.8254480  28.5306430 149.8145390  12.2927040
  29.2360220 134.1058230  12.2817980  28.4532010 134.5803730  12.5614740
  28.9423150 133.2013060  12.1731160  33.7881290 134.8081330  10.3267070
  34.2289380 134.7526430   9.4788670  33.5188880 135.7239340  10.3977250
  35.6519860 134.4396570   8.3375890  35.5908260 133.4957790   8.1906910
  36.4311890 134.5476660   8.8829350  19.9572610 150.5788930   7.2999840
  19.7894650 149.9459610   7.9981730  19.0907120 150.7848330   6.9494030
  20.5800630 134.4105710   4.8031700  21.3379990 134.5234590   4.2295730
  20.1177800 135.2474910   4.7575130  27.1214440 136.5244980   7.7934010
  26.3088950 136.1501870   7.4529890  27.6256080 135.7690060   8.0955200
  31.6239420 133.1887430   9.0317080  32.2268790 133.7607640   9.5065600
  30.8832410 133.7526870   8.8090980  34.7674020 133.5908990   4.3057360
  34.9624650 134.4892440   4.5724790  33.9803890 133.3596070   4.7990310
  21.5635310 149.2722160   4.7449980  21.0382930 149.6530190   4.0411940
  21.4879890 149.8972930   5.4659690  22.9525780 134.9369760   3.3433670
  23.4818540 134.1499560   3.2141620  23.5854100 135.6160950   3.5769200
  25.1463620 134.6744900   6.3979060  24.5166360 133.9732210   6.5649190
  24.6068760 135.4349030   6.1812220  36.3200630 150.8309700   6.0663920
  36.4952820 150.1447440   5.4224840  35.6222200 151.3556750   5.6740590
  25.2719180 133.9528880  18.8331550  24.9903450 134.4562480  18.0692370
  25.6538880 133.1550630  18.4673680  24.1628280 151.2204540   3.6199230
  24.8947100 150.9363820   3.0723120  24.4221950 150.9817820   4.5098610
  23.3243070 147.3369270   3.6245560  22.6951950 147.8054370   4.1731390
  23.4390900 146.4918490   4.0591750  31.8734640 133.3682460  19.4112020
  31.7600090 133.6877070  20.3063540  32.6904380 133.7694970  19.1149300
  34.6533130 150.5153990  18.8930710  35.4458450 150.0203220  18.6856670
  34.9466280 151.1944130  19.5006320  30.7792790 122.6131440 139.9694680
  30.6986840 121.6986050 139.6986390  30.3657210 123.1098510 139.2634390
  28.9110830 124.3910460 141.8503950  28.1352930 123.9110900 142.1402520
  29.5623760 123.7116110 141.6760110  22.9276660 124.7030270 142.7279710
  22.0961540 124.4478980 143.1276220  23.5357640 124.7741040 143.4637630
  32.9318260 128.7970650 140.6303080  32.4699790 128.0257890 140.9590250
  33.7443810 128.8236720 141.1355530  22.9077920 128.7370360 142.9237730
  23.2105960 127.8468100 142.7447950  23.6521510 129.2940580 142.6959980
  21.3368610 119.6632160 136.5122100  20.4485310 120.0048130 136.4101980
  21.6209800 119.4632480 135.6202930  19.3001620 122.2637810 142.3961800
  19.8717730 121.4960010 142.3965440  19.3003160 122.5626570 141.4868410
  29.1581570 131.0828660 140.2507070  28.5393010 131.5386160 139.6801510
  30.0133350 131.2380120 139.8496770  28.3519820 127.0667650 141.8574110
  28.2828100 126.1257590 141.6963240  29.1139680 127.1569060 142.4296680
  20.5426490 117.6722170 144.1830730  20.3629330 116.7747920 144.4633490
  20.1406570 118.2194040 144.8577680  29.3824990 119.8738030 142.0843040
  29.7589810 119.0009910 141.9716710  29.2844500 120.2096730 141.1933480
  23.5130000 118.2463660 137.5460480  23.6196750 119.1467390 137.8529240
  22.6022360 118.1981630 137.2555130  33.1649110 117.3688470 139.0171380
  33.9858730 116.8785040 139.0596860  33.1983190 117.9586130 139.7703220
  21.1613160 120.1682670 142.7913070  21.8423270 120.4321040 143.4100470
  20.8461210 119.3283540 143.1251080  25.3537730 121.2150030 141.8785660
  25.8615950 121.7131000 142.5190680  25.8850970 120.4385230 141.7025020
  37.4548660 119.3855220 145.5815010  36.7500830 119.7736930 145.0630120
  37.7206580 120.0805510 146.1835940  23.6373830 115.8548590 146.1449080
  23.6392270 116.3720980 145.3394980  22.8078140 115.3778770 146.1219010
  30.0244920 125.9667900 137.6438980  29.4062190 126.4317350 137.0801700
  30.5368170 126.6595380 138.0608490  24.8876680 125.4943770 144.3222580
  24.5546060 126.1212690 144.9643650  25.0643360 126.0205650 143.5424250
  33.4010590 119.3088850 141.7898920  32.6966160 119.5973740 142.3702030
  33.7622750 120.1188960 141.4298480  23.3189160 117.5658550 144.1519530
  23.6605970 118.4100600 143.8573400  22.3804970 117.7142290 144.2684870
  24.0995780 127.4624570 146.1371760  24.7169780 128.1375650 145.8556210
  23.2388900 127.8712550 146.0459260  19.3928120 126.6524430 135.0178610
  19.0156100 127.1411530 134.2863510  19.6501190 127.3249710 135.6485140
  35.0173370 128.9263980 144.0526400  34.3336890 129.5963090 144.0443070
  35.5567660 129.1244630 143.2871260  36.4697510 118.7543640 142.1808130
  35.5222420 118.7882620 142.3123560  36.7947500 119.5682590 142.5657490
  27.0017050 115.0540820 140.4764120  27.3092030 114.4987710 139.7599620
  26.0717750 115.1885280 140.2937110  32.5532110 130.7708110 142.7671580
  32.5659270 130.3670400 141.8993840  32.0007330 131.5455400 142.6633010
  33.8477530 127.4924330 137.8561750  33.7373860 126.5498660 137.9811170
  33.8445780 127.8539970 138.7424510  31.9517550 125.6737950 144.0954190
  32.3686340 125.4598060 143.2607650  32.6757370 125.9310740 144.6662810
  29.3897810 123.1189650 137.2124240  28.4627090 123.0527030 137.4412710
  29.5422630 124.0569780 137.0979480  29.3766890 119.3906650 134.2091400
  28.4370560 119.5520610 134.2943860  29.6950150 120.1092330 133.6627390
  35.8979650 124.0725170 144.1870430  35.0698280 124.1418260 143.7120560
  36.4930130 124.6579480 143.7186260  33.4195100 124.6809950 137.7159490
  32.8007520 124.3429500 137.0685790  33.4019550 124.0369710 138.4238680
  32.8621660 120.8594490 145.1325300  32.4492840 121.6848200 145.3865290
  32.1297610 120.2739530 144.9401660  24.9954450 123.6454390 139.9943970
  24.5911450 122.9331640 139.4989870  25.0817570 123.3007630 140.8832010
  25.4636150 127.3321950 142.1583180  25.1664440 126.7267420 141.4790960
  26.4135970 127.3699260 142.0472540  23.7083070 120.4197600 143.7743010
  24.2597660 120.5292940 142.9996260  24.2226580 120.7935200 144.4898240
  33.5521760 130.9053820 145.8206280  33.0752320 131.7126010 145.6278890
  32.8683550 130.2532150 145.9732490  24.5554580 127.0703640 148.8090980
  23.6583110 127.2943610 149.0564380  24.5807450 127.1938580 147.8602380
  31.5959800 123.9196760 134.7232240  32.0353080 123.0819190 134.5770060
  32.3088220 124.5526160 134.8096380  23.3825800 123.9416960 147.3848350
  23.2433570 124.8139760 147.7535750  22.5007160 123.5989770 147.2396290
  29.7055180 128.8592830 138.6913480  30.1451090 129.6017160 138.2768870
  29.6442070 129.1019400 139.6152440  25.1806150 129.8838660 149.5933500
  25.1521580 130.2881610 148.7261930  25.0171120 128.9549020 149.4305100
  35.1776940 115.1739570 133.0373280  34.8649600 115.2666400 133.9372350
  35.9389410 115.7520600 132.9870710  21.6959080 122.5399370 137.4950620
  21.5756680 123.2661460 136.8831890  21.3859970 121.7702280 137.0178530
  19.3344450 125.7114510 143.3019260  19.4124870 125.8463280 142.3574980
  19.9486130 125.0030400 143.4947380  20.5792080 127.4114700 139.7125440
  20.1720160 127.5529290 138.8579040  21.4705090 127.1274860 139.5096650
  36.5354220 127.8578610 148.0497680  36.6617280 127.6190490 147.1314860
  36.5775600 127.0263150 148.5219760  30.3970960 131.5606610 146.6192490
  30.9115630 131.4714620 147.4214920  29.5540040 131.9066310 146.9120400
  32.3725360 131.8461950 136.0476490  32.2126500 131.5564890 136.9458320
  32.2072070 131.0702080 135.5121720  24.8513740 131.6260480 137.8248110
  24.6756220 130.7096020 137.6115910  23.9969480 131.9847770 138.0645910
  32.0751490 129.3549510 134.6074490  31.3816650 129.3526800 133.9476770
  32.8174350 128.9308830 134.1768660  31.6401420 130.9812220 138.6822980
  32.0958370 130.2001600 138.9961600  31.9793940 131.6919040 139.2264160
  36.3878230 119.9111070 149.0147420  35.7722500 120.4190740 148.4862880
  36.0674650 119.0109400 148.9573360  19.3903970 126.7528680 145.8413720
  19.5535010 126.2834040 145.0233090  19.8556420 126.2452240 146.5062560
  24.1622740 115.8834440 140.8774290  23.7190890 116.6643980 140.5458810
  24.7207730 116.2064330 141.5845230  28.4492550 118.7502960 146.4809610
  27.9871920 118.9585980 147.2929550  28.0470660 117.9362310 146.1780280
  33.4497060 119.9711910 147.6106270  32.5990650 119.6717660 147.9315340
  33.2898850 120.2153920 146.6990090  30.5446770 121.4713660 149.7105060
  30.8700180 120.6377410 149.3707290  31.3327100 121.9942180 149.8583390
  27.2781560 115.5045140 135.7580120  26.6535740 115.5005010 136.4833430
  27.1911680 114.6376100 135.3616090  26.1998640 116.4281770 142.7363890
  26.4970970 117.3344600 142.6555910  26.7484200 115.9400550 142.1223460
  23.9536960 121.0068010 138.6055540  23.7277880 120.7905180 139.5102160
  23.1729490 121.4396470 138.2601510  31.1834720 121.0131380 137.2046190
  30.5843610 121.7367180 137.0209810  31.7314330 120.9508160 136.4222640
  26.3936170 121.9053590 149.2715810  26.2979770 120.9648320 149.1216210
  27.2368150 122.1268660 148.8763880  29.7899590 119.6494920 139.2349470
  30.1829160 119.9667120 138.4218160  30.1516440 118.7706800 139.3493990
  21.5246710 118.3167260 147.4249590  21.1310100 119.1642470 147.6322370
  20.8365110 117.6793630 147.6158230  18.8263760 116.2395720 141.4579670
  18.5376810 116.8098580 142.1704650  19.5709520 115.7600170 141.8210900
  19.0133990 120.1815840 132.6682390  18.9308660 121.1246600 132.8097380
  18.6617050 120.0390750 131.7894740  30.3754730 122.2400670 143.3300250
  29.6435850 122.7487480 143.6790350  29.9779070 121.4230650 143.0289030
  26.8132120 118.9154870 141.7352740  26.8168180 118.4744820 140.8857280
  27.7083240 119.2372200 141.8424560  22.6634500 118.7981360 140.6946950
  22.3234550 119.2756590 141.4514000  21.9011820 118.3446480 140.3348050
  26.8752270 119.9166950 134.7259500  26.9965090 119.8753430 135.6745320
  26.4900780 120.7791100 134.5706230  30.8380640 117.6934350 142.7423190
  30.8553380 118.1443000 143.5865040  30.5896220 116.7939990 142.9556630
  25.8873770 122.2268090 134.1242800  25.3190670 121.7786340 133.4978710
  26.5962770 122.5860870 133.5907950  34.2651390 115.1066530 148.5809570
  34.5897160 114.3756190 149.1067550  34.3007900 114.7880170 147.6790560
  20.9642950 126.1280110 148.0009530  20.5797740 125.4873780 148.5992490
  21.2755140 126.8316230 148.5704260  27.1140090 122.9756650 143.4818150
  27.4810220 122.5015220 144.2279490  26.9245150 123.8498220 143.8226490
  19.9780580 117.7200340 139.6111620  19.6927500 117.3556010 140.4490240
  19.9159440 116.9880800 138.9974760  24.9039460 122.0165290 145.8002360
  24.5996530 122.8957270 146.0252720  25.8585920 122.0765080 145.8359800
  23.4321250 126.2226280 136.3969210  22.6583510 125.6823900 136.2367930
  24.1615880 125.7032890 136.0586970  34.1909230 125.2191640 142.1895600
  34.9108350 125.7146930 141.7991710  33.9891050 124.5409530 141.5449470
  29.6519170 116.6129600 136.3324990  28.8383780 116.1142770 136.2570300
  29.4581120 117.4527850 135.9161340  29.5728030 125.2900700 148.0764600
  29.5065340 124.3696370 147.8222190  28.9433170 125.3876140 148.7909240
  32.3667560 120.9849250 134.6287150  33.2547180 121.2966480 134.4538490
  32.3372650 120.1121500 134.2367730  23.4758650 125.8906660 140.0348020
  23.9937320 125.0874920 139.9804910  23.0242670 125.8285800 140.8764850
  28.3628150 127.1572940 135.3075320  28.7043850 127.9015170 134.8118640
  27.5340860 127.4704060 135.6700150  20.9603190 122.8568030 146.9473720
  20.6018130 123.5221880 147.5347060  20.6657750 122.0251580 147.3186340
  24.1616310 123.3152270 149.8313270  23.8616450 123.4609450 148.9341090
  24.9327550 122.7557560 149.7386660  29.5044760 128.1121270 147.8268400
  29.5189300 127.1802230 147.6087310  28.7969860 128.1981030 148.4658170
  34.6381830 122.2961090 134.0967010  34.5545550 122.7275310 133.2463450
  35.3576020 122.7559440 134.5293830  35.7155970 124.7528610 147.1736980
  34.9904160 125.3457390 146.9766370  36.2431430 124.7452150 146.3750350
  35.6669080 129.1503350 136.8249140  35.0245240 128.4958970 137.0992860
  35.2799740 129.5558440 136.0489810  31.2455560 126.4788780 140.6720830
  31.5979380 125.8816910 140.0122200  30.3617890 126.1533010 140.8429080
  27.3318840 127.2386470 138.0791240  28.0189970 127.7855680 138.4598830
  26.5451260 127.7827200 138.1140850  19.4711240 122.8559290 133.5708320
  20.3406090 123.1384090 133.8544240  18.9801560 123.6695160 133.4557130
  26.6346050 124.2432500 137.6916600  27.0908830 125.0537750 137.9176790
  26.2834260 123.9255640 138.5235090  28.9378660 129.7538840 144.9208900
  29.5820880 129.9598220 145.5982320  29.3008100 128.9927240 144.4679750
  22.5357830 114.5870150 138.1639120  22.4072460 114.5788050 139.1124040
  21.7119850 114.9253240 137.8130130  30.2110740 127.7571190 143.6386350
  30.8532970 127.0564350 143.7518520  30.7360090 128.5369630 143.4583240
  34.0566460 128.0419810 133.3625490  33.8304040 127.3250250 133.9550130
  33.6662660 127.7932250 132.5247240  31.9848360 128.5566090 146.8422410
  32.3204600 129.1432780 147.5200330  31.0648700 128.4258800 147.0720200
  19.8382490 132.0686670 134.1369950  20.1980130 132.6676010 133.4827220
  19.6974830 132.6146560 134.9104980  19.5351760 116.3461270 147.6245820
  18.8210280 116.5458190 148.2298430  19.9546800 115.5700840 147.9960620
  33.6382710 125.9591750 135.0239650  33.3504410 126.4204440 135.8117530
  34.4334880 125.4989520 135.2923870  19.8224350 130.3341530 148.6112350
  19.9315470 129.3936270 148.4707740  19.1704910 130.5996280 147.9626080
  25.8551110 129.4517870 134.9543620  25.8461210 130.1847560 134.3388130
  24.9349470 129.2049450 135.0470580  21.4557750 124.6732760 135.6990380
  20.8485700 125.4131660 135.7085680  21.9307100 124.7632120 134.8728580
  31.0290540 118.8383580 145.3747270  31.3971360 118.0178790 145.7026840
  30.1688740 118.8985470 145.7902920  34.3952570 117.7940520 136.1834830
  33.7665730 117.8986190 135.4693060  33.9004490 118.0137300 136.9728710
  28.8410710 129.5146110 133.6168810  28.9422690 129.3110100 132.6870790
  27.9412450 129.2604390 133.8216590  26.3636600 120.0726470 137.5992710
  25.6552750 120.5412810 138.0406320  26.6481080 119.4148480 138.2337900
  27.9892530 121.4923170 145.5985240  28.4877780 121.9668990 146.2637090
  28.1315480 120.5686690 145.8055270  30.3952030 116.7977130 139.0388500
  30.2719810 116.8163260 138.0898010  31.3436590 116.8456070 139.1586900
  27.4828820 132.0332430 138.3116480  27.7370320 131.9953820 137.3895850
  26.5341300 131.9065760 138.3044730  24.5671620 118.3811550 134.9743420
  25.4162150 118.8181700 134.9083610  24.2002890 118.6931810 135.8015480
  35.1959390 117.7091130 146.4413630  34.6932990 118.4496530 146.7807440
  36.0116050 118.0975130 146.1250420  33.4881400 122.9524310 139.8874990
  32.5471540 122.9674540 140.0622680  33.8025470 122.1660270 140.3335290
  23.4663040 124.6343910 133.4478950  24.2326310 124.5225270 134.0104380
  23.5437730 123.9381880 132.7955720  22.1609800 122.0668980 134.1311840
  22.2413390 121.1196490 134.2429240  23.0529550 122.3975860 134.2372500
  35.4906980 130.1233160 141.5629250  35.6154400 130.9464330 142.0353060
  36.3572540 129.9123890 141.2153400  22.9624510 132.2164370 141.2346380
  23.6986990 131.6679830 141.5054950  23.3465430 133.0820380 141.0952370
  19.8469990 128.2837940 137.1087890  18.9209770 128.5259080 137.0993300
  20.3126420 129.1112200 136.9872640  26.0726820 131.3894680 133.0571950
  26.8655430 131.6783510 132.6053740  25.5531170 130.9586850 132.3784430
  32.2347790 131.2370600 148.9816780  33.1869540 131.1528620 148.9317020
  32.0876010 131.9012310 149.6550570  35.1256990 130.6164810 134.4808690
  34.8398500 130.2029950 133.6662870  34.9276540 131.5452520 134.3609210
  19.6880600 123.8883900 149.3668010  20.1919620 123.3091180 149.9384240
  18.9488020 124.1724130 149.9044380  26.5904220 126.6098090 132.9214300
  26.4854860 125.9950440 133.6475680  26.4228440 126.0863980 132.1377310
  26.7418540 125.2954890 148.9003530  25.9764210 125.8639890 148.8158200
  26.9234500 125.0031100 148.0071760  29.8306950 125.6718120 133.5256290
  29.2817050 126.1187420 134.1699030  30.4526210 125.1667370 134.0493960
  33.8841890 127.0260220 149.4578550  34.6251360 127.3635980 148.9546010
  33.1214570 127.1952280 148.9048320  25.4982070 124.6309040 135.4221590
  25.9198490 124.4648910 136.2652980  25.6232910 123.8209270 134.9276730
  23.6609490 120.6105590 148.2292570  23.1305950 120.1196540 147.6015910
  24.3297560 121.0389790 147.6950500  28.0109710 123.6546650 132.6698690
  28.5315370 122.9395670 132.3039840  28.6578110 124.2932520 132.9699200
  32.5587550 125.0775050 147.9933760  32.9728570 125.2320130 148.8424180
  31.6238550 125.2030270 148.1559540  33.0309720 122.4171210 149.9972910
  33.6130490 121.6623530 149.9093390  33.2071490 122.9478650 149.2204390
  24.1481790 117.5767960 148.3089860  24.0538660 116.9588710 147.5840730
  23.5679180 118.3034250 148.0819770  26.9143230 116.1341200 145.3417250
  26.4660530 116.1565460 144.4962800  26.2808430 115.7360220 145.9387550
  27.3202780 125.0295530 145.9629690  27.7390890 125.8728260 145.7905930
  26.4011410 125.1667570 145.7336470  29.6566680 122.7611710 147.3467530
  29.7762890 122.1652850 148.0862370  30.5160680 122.7981400 146.9268830
  31.9954580 123.3148900 145.9230040  31.4689800 123.8391520 145.3195180
  32.3385920 123.9476290 146.5539770  24.3940970 120.7042270 132.3679750
  24.1930030 119.8409630 132.7293090  24.2233020 120.6175630 131.4301350
  25.1710200 131.3348540 147.0787420  24.6331290 132.0594600 146.7596120
  25.4244160 130.8578880 146.2884760  26.4235450 119.3033060 148.6043350
  27.0135140 118.9948910 149.2921170  25.6055690 118.8312810 148.7603250
  31.2428880 118.9198870 148.8376370  30.5544400 118.2580410 148.7726360
  31.9634900 118.4737140 149.2824830  31.8729280 115.5150500 134.8966630
  32.1531570 114.6718400 135.2526050  31.0995010 115.7473610 135.4105380
  23.1923770 117.8042890 132.3557630  23.4949670 117.8110320 131.4476780
  23.9318360 117.4540750 132.8525290  28.0272410 132.5699750 147.3374070
  27.9531110 133.4734890 147.6446440  27.1251250 132.2511650 147.3096140
  26.4108700 116.7477510 133.3413830  26.0630700 116.0701500 132.7616280
  26.6121470 116.2867020 134.1557220  28.5757740 131.7358260 134.9600430
  29.4708530 132.0743230 134.9819190  28.6075370 131.0137670 134.3324710
  22.2153900 127.1085310 133.1887430  22.6528770 127.6514980 133.8445010
  22.7001630 126.2832260 133.1983770  19.4299700 129.8974340 140.6407690
  19.7602710 129.0295400 140.4086330  19.8590700 130.1032860 141.4712650
  24.0261620 128.2283350 138.3009660  23.7257160 128.1048320 139.2013570
  23.9199110 127.3691940 137.8925390  19.9189910 130.7644930 143.3789320
  19.4820900 130.9445730 144.2113470  20.4867590 131.5219550 143.2371040
  35.5552090 130.2661930 147.6666630  34.9554080 130.3254490 146.9230550
  35.6845990 129.3266910 147.7963480  36.7953540 128.0079750 133.0036340
  35.9646500 128.0756400 133.4743570  36.9725370 128.8983870 132.7003200
  36.2510000 124.7527230 135.5070540  37.0128910 125.3223880 135.6130230
  36.2664370 124.1854430 136.2778850  19.7514340 123.2765160 139.7378200
  19.0963180 123.0076800 139.0937900  20.5892290 123.1669640 139.2880180
  37.2569970 125.6077330 140.3512470  37.6278800 124.8244650 139.9448440
  37.8971900 126.2966430 140.1729770  34.2403730 126.9913910 145.7642790
  33.4263570 127.4211070 146.0268580  34.6477930 127.6032320 145.1511840
  36.3029170 125.0461600 132.6643060  36.5778010 125.9540480 132.5362280
  36.1139910 124.9824130 133.6005050  32.7004780 118.0706450 133.9596690
  33.1189660 117.8837430 133.1193350  32.3940840 117.2185500 134.2699620
  36.1994510 122.9830590 137.6572490  35.8238110 122.2158520 137.2253780
  35.4697630 123.3653290 138.1447420  20.7890270 123.6617730 144.2781540
  21.1563310 123.5745130 145.1577560  20.2201090 122.8984280 144.1788400
  35.5894130 122.1302110 147.2912010  35.3580220 121.9014860 146.3909960
  35.8498680 123.0501660 147.2456900  20.3406270 120.5726820 148.1839960
  19.4462320 120.5393580 148.5233670  20.8803820 120.7713610 148.9491210
  18.9652420 120.4864090 135.6803530  18.0616500 120.7494290 135.5055190
  19.4493040 120.7575260 134.9003490  35.4745470 121.2088080 140.9579730
  35.9982950 120.7150730 140.3269900  36.0604890 121.3438440 141.7027300
  35.6535190 121.2927950 144.4799280  34.7037900 121.2591490 144.5944270
  35.8348200 122.2028060 144.2449050  21.5079630 119.5429630 133.5897910
  22.2171330 119.1212850 133.1045190  20.7919570 119.6104860 132.9581260
  21.1553790 115.5968960 132.6300560  21.8781920 116.1377900 132.9481780
  21.4278310 115.3232380 131.7542100  34.9645440 120.4661430 136.8972140
  35.4604560 120.2332300 137.6821020  34.7661510 119.6273270 136.4809780
  20.8445980 114.8475150 142.5323180  21.4922170 114.2972530 142.0918340
  21.2647820 115.1018300 143.3538990  36.3932600 119.1022380 139.4309820
  36.2831880 118.9478420 140.3692090  37.1540190 118.5743320 139.1885230
  34.7398320 115.0416510 145.8892820  35.3770540 115.6550650 146.2552010
  34.8873210 115.0777170 144.9442050  37.2822870 116.9330300 132.6715960
  38.2072180 116.8011480 132.4634250  37.2598660 117.0123120 133.6252410
  37.3561360 117.7040960 135.2972670  36.5612860 117.6386080 135.8265580
  37.5604640 118.6391600 135.2858020  34.2979780 131.7432510 139.2911060
  34.8938850 131.4217080 138.6145480  34.5557930 131.2704330 140.0824330
  20.5977980 115.0030820 145.2748500  20.2492800 115.4594640 146.0406680
  20.2665680 114.1087950 145.3570930  25.9048380 129.7310010 145.0411410
  25.6639740 129.9984570 144.1541930  26.8451020 129.9015740 145.0962270
  28.1102800 116.1942700 148.7967920  28.0491690 116.7864530 149.5463330
  29.0503180 116.0868660 148.6518180  30.7477360 115.8512760 148.4360210
  31.3617770 116.1692050 147.7741290  31.2926920 115.3661350 149.0556070
  37.1652540 131.7504390 145.8422050  36.6710820 132.1473260 145.1249180
  36.5565830 131.1253600 146.2359330  21.2698620 114.5307020 148.5499270
  21.8181610 114.3495070 147.7865380  21.3353930 113.7401130 149.0855580
  22.0430380 131.1212670 146.5599470  21.4490700 130.9897370 147.2989510
  22.0354220 130.2850810 146.0941570  31.4885400 114.4144900 144.7629500
  30.6145240 114.7480010 144.5602430  31.3796150 113.9418080 145.5881370
  32.3957380 116.6215770 146.1471220  32.0670740 115.8067530 145.7672950
  33.3439680 116.5785580 146.0236910  34.8491990 132.3927810 143.1208790
  34.3894960 133.1443620 142.7466810  34.2204450 131.6734280 143.0623590
  21.6742610 128.4871050 145.5107510  20.9476670 127.8676340 145.4433460
  21.7351760 128.8811660 144.6405590  25.2787710 130.7016050 142.2956920
  25.7952730 130.0903410 141.7705180  25.9285090 131.2044830 142.7867930
  28.0183210 131.5924540 143.1225900  28.3061020 131.3378840 142.2458910
  28.5306430 131.0401900 143.7131470  29.2360220 115.3314740 143.7022410
  28.4532010 115.8060240 143.9819170  28.9423150 114.4269570 143.5935590
  33.7881290 116.0337840 141.7471500  34.2289380 115.9782940 140.8993100
  33.5188880 116.9495850 141.8181680  35.6519860 115.6653080 139.7580320
  35.5908260 114.7214300 139.6111340  36.4311890 115.7733170 140.3033780
  19.9572610 131.8045440 138.7204270  19.7894650 131.1716120 139.4186160
  19.0907120 132.0104840 138.3698460  20.5800630 115.6362220 136.2236130
  21.3379990 115.7491100 135.6500160  20.1177800 116.4731420 136.1779560
  27.1214440 117.7501490 139.2138440  26.3088950 117.3758380 138.8734320
  27.6256080 116.9946570 139.5159630  31.6239420 114.4143940 140.4521510
  32.2268790 114.9864150 140.9270030  30.8832410 114.9783380 140.2295410
  34.7674020 114.8165500 135.7261790  34.9624650 115.7148950 135.9929220
  33.9803890 114.5852580 136.2194740  21.5635310 130.4978670 136.1654410
  21.0382930 130.8786700 135.4616370  21.4879890 131.1229440 136.8864120
  22.9525780 116.1626270 134.7638100  23.4818540 115.3756070 134.6346050
  23.5854100 116.8417460 134.9973630  25.1463620 115.9001410 137.8183490
  24.5166360 115.1988720 137.9853620  24.6068760 116.6605540 137.6016650
  36.3200630 132.0566210 137.4868350  36.4952820 131.3703950 136.8429270
  35.6222200 132.5813260 137.0945020  24.1628280 132.4461050 135.0403660
  24.8947100 132.1620330 134.4927550  24.4221950 132.2074330 135.9303040
  23.3243070 128.5625780 135.0449990  22.6951950 129.0310880 135.5935820
  23.4390900 127.7175000 135.4796180  30.7792790 122.6131440 121.1951190
  30.6986840 121.6986050 120.9242900  30.3657210 123.1098510 120.4890900
  28.9110830 124.3910460 123.0760460  28.1352930 123.9110900 123.3659030
  29.5623760 123.7116110 122.9016620  22.9276660 124.7030270 123.9536220
  22.0961540 124.4478980 124.3532730  23.5357640 124.7741040 124.6894140
  32.9318260 128.7970650 121.8559590  32.4699790 128.0257890 122.1846760
  33.7443810 128.8236720 122.3612040  22.9077920 128.7370360 124.1494240
  23.2105960 127.8468100 123.9704460  23.6521510 129.2940580 123.9216490
  21.3368610 119.6632160 117.7378610  20.4485310 120.0048130 117.6358490
  21.6209800 119.4632480 116.8459440  19.3001620 122.2637810 123.6218310
  19.8717730 121.4960010 123.6221950  19.3003160 122.5626570 122.7124920
  29.1581570 131.0828660 121.4763580  28.5393010 131.5386160 120.9058020
  30.0133350 131.2380120 121.0753280  28.3519820 127.0667650 123.0830620
  28.2828100 126.1257590 122.9219750  29.1139680 127.1569060 123.6553190
  20.5426490 117.6722170 125.4087240  20.3629330 116.7747920 125.6890000
  20.1406570 118.2194040 126.0834190  29.3824990 119.8738030 123.3099550
  29.7589810 119.0009910 123.1973220  29.2844500 120.2096730 122.4189990
  23.5130000 118.2463660 118.7716990  23.6196750 119.1467390 119.0785750
  22.6022360 118.1981630 118.4811640  33.1649110 117.3688470 120.2427890
  33.9858730 116.8785040 120.2853370  33.1983190 117.9586130 120.9959730
  21.1613160 120.1682670 124.0169580  21.8423270 120.4321040 124.6356980
  20.8461210 119.3283540 124.3507590  25.3537730 121.2150030 123.1042170
  25.8615950 121.7131000 123.7447190  25.8850970 120.4385230 122.9281530
  37.4548660 119.3855220 126.8071520  36.7500830 119.7736930 126.2886630
  37.7206580 120.0805510 127.4092450  23.6373830 115.8548590 127.3705590
  23.6392270 116.3720980 126.5651490  22.8078140 115.3778770 127.3475520
  30.0244920 125.9667900 118.8695490  29.4062190 126.4317350 118.3058210
  30.5368170 126.6595380 119.2865000  24.8876680 125.4943770 125.5479090
  24.5546060 126.1212690 126.1900160  25.0643360 126.0205650 124.7680760
  33.4010590 119.3088850 123.0155430  32.6966160 119.5973740 123.5958540
  33.7622750 120.1188960 122.6554990  23.3189160 117.5658550 125.3776040
  23.6605970 118.4100600 125.0829910  22.3804970 117.7142290 125.4941380
  24.0995780 127.4624570 127.3628270  24.7169780 128.1375650 127.0812720
  23.2388900 127.8712550 127.2715770  19.3928120 126.6524430 116.2435120
  19.0156100 127.1411530 115.5120020  19.6501190 127.3249710 116.8741650
  35.0173370 128.9263980 125.2782910  34.3336890 129.5963090 125.2699580
  35.5567660 129.1244630 124.5127770  36.4697510 118.7543640 123.4064640
  35.5222420 118.7882620 123.5380070  36.7947500 119.5682590 123.7914000
  27.0017050 115.0540820 121.7020630  27.3092030 114.4987710 120.9856130
  26.0717750 115.1885280 121.5193620  32.5532110 130.7708110 123.9928090
  32.5659270 130.3670400 123.1250350  32.0007330 131.5455400 123.8889520
  33.8477530 127.4924330 119.0818260  33.7373860 126.5498660 119.2067680
  33.8445780 127.8539970 119.9681020  31.9517550 125.6737950 125.3210700
  32.3686340 125.4598060 124.4864160  32.6757370 125.9310740 125.8919320
  29.3897810 123.1189650 118.4380750  28.4627090 123.0527030 118.6669220
  29.5422630 124.0569780 118.3235990  29.3766890 119.3906650 115.4347910
  28.4370560 119.5520610 115.5200370  29.6950150 120.1092330 114.8883900
  35.8979650 124.0725170 125.4126940  35.0698280 124.1418260 124.9377070
  36.4930130 124.6579480 124.9442770  33.4195100 124.6809950 118.9416000
  32.8007520 124.3429500 118.2942300  33.4019550 124.0369710 119.6495190
  32.8621660 120.8594490 126.3581810  32.4492840 121.6848200 126.6121800
  32.1297610 120.2739530 126.1658170  24.9954450 123.6454390 121.2200480
  24.5911450 122.9331640 120.7246380  25.0817570 123.3007630 122.1088520
  25.4636150 127.3321950 123.3839690  25.1664440 126.7267420 122.7047470
  26.4135970 127.3699260 123.2729050  23.7083070 120.4197600 124.9999520
  24.2597660 120.5292940 124.2252770  24.2226580 120.7935200 125.7154750
  33.5521760 130.9053820 127.0462790  33.0752320 131.7126010 126.8535400
  32.8683550 130.2532150 127.1989000  24.5554580 127.0703640 130.0347490
  23.6583110 127.2943610 130.2820890  24.5807450 127.1938580 129.0858890
  31.5959800 123.9196760 115.9488750  32.0353080 123.0819190 115.8026570
  32.3088220 124.5526160 116.0352890  23.3825800 123.9416960 128.6104860
  23.2433570 124.8139760 128.9792260  22.5007160 123.5989770 128.4652800
  29.7055180 128.8592830 119.9169990  30.1451090 129.6017160 119.5025380
  29.6442070 129.1019400 120.8408950  25.1806150 129.8838660 130.8190010
  25.1521580 130.2881610 129.9518440  25.0171120 128.9549020 130.6561610
  35.1776940 115.1739570 114.2629790  34.8649600 115.2666400 115.1628860
  35.9389410 115.7520600 114.2127220  21.6959080 122.5399370 118.7207130
  21.5756680 123.2661460 118.1088400  21.3859970 121.7702280 118.2435040
  37.1320970 130.6665760 132.1154180  37.6080690 131.1448650 132.7943260
  37.7528130 130.5983250 131.3899680  19.3344450 125.7114510 124.5275770
  19.4124870 125.8463280 123.5831490  19.9486130 125.0030400 124.7203890
  20.5792080 127.4114700 120.9381950  20.1720160 127.5529290 120.0835550
  21.4705090 127.1274860 120.7353160  36.5354220 127.8578610 129.2754190
  36.6617280 127.6190490 128.3571370  36.5775600 127.0263150 129.7476270
  30.3970960 131.5606610 127.8449000  30.9115630 131.4714620 128.6471430
  29.5540040 131.9066310 128.1376910  32.3725360 131.8461950 117.2733000
  32.2126500 131.5564890 118.1714830  32.2072070 131.0702080 116.7378230
  24.8513740 131.6260480 119.0504620  24.6756220 130.7096020 118.8372420
  23.9969480 131.9847770 119.2902420  32.0751490 129.3549510 115.8331000
  31.3816650 129.3526800 115.1733280  32.8174350 128.9308830 115.4025170
  31.6401420 130.9812220 119.9079490  32.0958370 130.2001600 120.2218110
  31.9793940 131.6919040 120.4520670  36.3878230 119.9111070 130.2403930
  35.7722500 120.4190740 129.7119390  36.0674650 119.0109400 130.1829870
  19.3903970 126.7528680 127.0670230  19.5535010 126.2834040 126.2489600
  19.8556420 126.2452240 127.7319070  24.1622740 115.8834440 122.1030800
  23.7190890 116.6643980 121.7715320  24.7207730 116.2064330 122.8101740
  28.4492550 118.7502960 127.7066120  27.9871920 118.9585980 128.5186060
  28.0470660 117.9362310 127.4036790  33.4497060 119.9711910 128.8362780
  32.5990650 119.6717660 129.1571850  33.2898850 120.2153920 127.9246600
  30.5446770 121.4713660 130.9361570  30.8700180 120.6377410 130.5963800
  31.3327100 121.9942180 131.0839900  27.2781560 115.5045140 116.9836630
  26.6535740 115.5005010 117.7089940  27.1911680 114.6376100 116.5872600
  26.1998640 116.4281770 123.9620400  26.4970970 117.3344600 123.8812420
  26.7484200 115.9400550 123.3479970  23.9536960 121.0068010 119.8312050
  23.7277880 120.7905180 120.7358670  23.1729490 121.4396470 119.4858020
  31.1834720 121.0131380 118.4302700  30.5843610 121.7367180 118.2466320
  31.7314330 120.9508160 117.6479150  26.3936170 121.9053590 130.4972320
  26.2979770 120.9648320 130.3472720  27.2368150 122.1268660 130.1020390
  29.7899590 119.6494920 120.4605980  30.1829160 119.9667120 119.6474670
  30.1516440 118.7706800 120.5750500  21.5246710 118.3167260 128.6506100
  21.1310100 119.1642470 128.8578880  20.8365110 117.6793630 128.8414740
  28.0991760 118.4002230 131.7202840  27.4090080 118.2074430 132.3548930
  28.8424060 118.6836870 132.2527140  18.8263760 116.2395720 122.6836180
  18.5376810 116.8098580 123.3961160  19.5709520 115.7600170 123.0467410
  19.0133990 120.1815840 113.8938900  18.9308660 121.1246600 114.0353890
  18.6617050 120.0390750 113.0151250  30.3754730 122.2400670 124.5556760
  29.6435850 122.7487480 124.9046860  29.9779070 121.4230650 124.2545540
  26.8132120 118.9154870 122.9609250  26.8168180 118.4744820 122.1113790
  27.7083240 119.2372200 123.0681070  22.6634500 118.7981360 121.9203460
  22.3234550 119.2756590 122.6770510  21.9011820 118.3446480 121.5604560
  26.8752270 119.9166950 115.9516010  26.9965090 119.8753430 116.9001830
  26.4900780 120.7791100 115.7962740  30.8380640 117.6934350 123.9679700
  30.8553380 118.1443000 124.8121550  30.5896220 116.7939990 124.1813140
  25.8873770 122.2268090 115.3499310  25.3190670 121.7786340 114.7235220
  26.5962770 122.5860870 114.8164460  34.2651390 115.1066530 129.8066080
  34.5897160 114.3756190 130.3324060  34.3007900 114.7880170 128.9047070
  20.9642950 126.1280110 129.2266040  20.5797740 125.4873780 129.8249000
  21.2755140 126.8316230 129.7960770  27.1140090 122.9756650 124.7074660
  27.4810220 122.5015220 125.4536000  26.9245150 123.8498220 125.0483000
  19.9780580 117.7200340 120.8368130  19.6927500 117.3556010 121.6746750
  19.9159440 116.9880800 120.2231270  24.9039460 122.0165290 127.0258870
  24.5996530 122.8957270 127.2509230  25.8585920 122.0765080 127.0616310
  23.4321250 126.2226280 117.6225720  22.6583510 125.6823900 117.4624440
  24.1615880 125.7032890 117.2843480  34.1909230 125.2191640 123.4152110
  34.9108350 125.7146930 123.0248220  33.9891050 124.5409530 122.7705980
  29.6519170 116.6129600 117.5581500  28.8383780 116.1142770 117.4826810
  29.4581120 117.4527850 117.1417850  29.5728030 125.2900700 129.3021110
  29.5065340 124.3696370 129.0478700  28.9433170 125.3876140 130.0165750
  32.3667560 120.9849250 115.8543660  33.2547180 121.2966480 115.6795000
  32.3372650 120.1121500 115.4624240  23.4758650 125.8906660 121.2604530
  23.9937320 125.0874920 121.2061420  23.0242670 125.8285800 122.1021360
  28.3628150 127.1572940 116.5331830  28.7043850 127.9015170 116.0375150
  27.5340860 127.4704060 116.8956660  20.9603190 122.8568030 128.1730230
  20.6018130 123.5221880 128.7603570  20.6657750 122.0251580 128.5442850
  24.1616310 123.3152270 131.0569780  23.8616450 123.4609450 130.1597600
  24.9327550 122.7557560 130.9643170  29.5044760 128.1121270 129.0524910
  29.5189300 127.1802230 128.8343820  28.7969860 128.1981030 129.6914680
  34.6381830 122.2961090 115.3223520  34.5545550 122.7275310 114.4719960
  35.3576020 122.7559440 115.7550340  35.7155970 124.7528610 128.3993490
  34.9904160 125.3457390 128.2022880  36.2431430 124.7452150 127.6006860
  35.6669080 129.1503350 118.0505650  35.0245240 128.4958970 118.3249370
  35.2799740 129.5558440 117.2746320  31.2455560 126.4788780 121.8977340
  31.5979380 125.8816910 121.2378710  30.3617890 126.1533010 122.0685590
  27.3318840 127.2386470 119.3047750  28.0189970 127.7855680 119.6855340
  26.5451260 127.7827200 119.3397360  19.4711240 122.8559290 114.7964830
  20.3406090 123.1384090 115.0800750  18.9801560 123.6695160 114.6813640
  26.6346050 124.2432500 118.9173110  27.0908830 125.0537750 119.1433300
  26.2834260 123.9255640 119.7491600  28.9378660 129.7538840 126.1465410
  29.5820880 129.9598220 126.8238830  29.3008100 128.9927240 125.6936260
  22.5357830 114.5870150 119.3895630  22.4072460 114.5788050 120.3380550
  21.7119850 114.9253240 119.0386640  30.2110740 127.7571190 124.8642860
  30.8532970 127.0564350 124.9775030  30.7360090 128.5369630 124.6839750
  34.0566460 128.0419810 114.5882000  33.8304040 127.3250250 115.1806640
  33.6662660 127.7932250 113.7503750  31.9848360 128.5566090 128.0678920
  32.3204600 129.1432780 128.7456840  31.0648700 128.4258800 128.2976710
  19.8382490 132.0686670 115.3626460  20.1980130 132.6676010 114.7083730
  19.6974830 132.6146560 116.1361490  19.5351760 116.3461270 128.8502330
  18.8210280 116.5458190 129.4554940  19.9546800 115.5700840 129.2217130
  33.6382710 125.9591750 116.2496160  33.3504410 126.4204440 117.0374040
  34.4334880 125.4989520 116.5180380  19.8224350 130.3341530 129.8368860
  19.9315470 129.3936270 129.6964250  19.1704910 130.5996280 129.1882590
  27.8136940 128.6057420 131.2366980  27.4933810 127.8866660 131.7812670
  27.1395300 129.2812490 131.3103040  25.8551110 129.4517870 116.1800130
  25.8461210 130.1847560 115.5644640  24.9349470 129.2049450 116.2727090
  21.4557750 124.6732760 116.9246890  20.8485700 125.4131660 116.9342190
  21.9307100 124.7632120 116.0985090  31.0290540 118.8383580 126.6003780
  31.3971360 118.0178790 126.9283350  30.1688740 118.8985470 127.0159430
  34.3952570 117.7940520 117.4091340  33.7665730 117.8986190 116.6949570
  33.9004490 118.0137300 118.1985220  28.8410710 129.5146110 114.8425320
  28.9422690 129.3110100 113.9127300  27.9412450 129.2604390 115.0473100
  26.3636600 120.0726470 118.8249220  25.6552750 120.5412810 119.2662830
  26.6481080 119.4148480 119.4594410  27.9892530 121.4923170 126.8241750
  28.4877780 121.9668990 127.4893600  28.1315480 120.5686690 127.0311780
  30.3952030 116.7977130 120.2645010  30.2719810 116.8163260 119.3154520
  31.3436590 116.8456070 120.3843410  27.4828820 132.0332430 119.5372990
  27.7370320 131.9953820 118.6152360  26.5341300 131.9065760 119.5301240
  24.5671620 118.3811550 116.1999930  25.4162150 118.8181700 116.1340120
  24.2002890 118.6931810 117.0271990  35.1959390 117.7091130 127.6670140
  34.6932990 118.4496530 128.0063950  36.0116050 118.0975130 127.3506930
  33.4881400 122.9524310 121.1131500  32.5471540 122.9674540 121.2879190
  33.8025470 122.1660270 121.5591800  23.4663040 124.6343910 114.6735460
  24.2326310 124.5225270 115.2360890  23.5437730 123.9381880 114.0212230
  22.1609800 122.0668980 115.3568350  22.2413390 121.1196490 115.4685750
  23.0529550 122.3975860 115.4629010  35.4906980 130.1233160 122.7885760
  35.6154400 130.9464330 123.2609570  36.3572540 129.9123890 122.4409910
  22.9624510 132.2164370 122.4602890  23.6986990 131.6679830 122.7311460
  23.3465430 133.0820380 122.3208880  19.8469990 128.2837940 118.3344400
  18.9209770 128.5259080 118.3249810  20.3126420 129.1112200 118.2129150
  21.9682790 131.4010440 131.6488470  22.7695520 131.7222490 132.0623870
  21.4534610 131.0406020 132.3708380  26.0726820 131.3894680 114.2828460
  26.8655430 131.6783510 113.8310250  25.5531170 130.9586850 113.6040940
  30.8047420 127.5090310 131.5963880  30.1985580 127.5321910 130.8559630
  30.5001530 126.7773350 132.1331130  32.2347790 131.2370600 130.2073290
  33.1869540 131.1528620 130.1573530  32.0876010 131.9012310 130.8807080
  35.1256990 130.6164810 115.7065200  34.8398500 130.2029950 114.8919380
  34.9276540 131.5452520 115.5865720  19.6880600 123.8883900 130.5924520
  20.1919620 123.3091180 131.1640750  18.9488020 124.1724130 131.1300890
  26.5904220 126.6098090 114.1470810  26.4854860 125.9950440 114.8732190
  26.4228440 126.0863980 113.3633820  26.7418540 125.2954890 130.1260040
  25.9764210 125.8639890 130.0414710  26.9234500 125.0031100 129.2328270
  29.8306950 125.6718120 114.7512800  29.2817050 126.1187420 115.3955540
  30.4526210 125.1667370 115.2750470  33.8841890 127.0260220 130.6835060
  34.6251360 127.3635980 130.1802520  33.1214570 127.1952280 130.1304830
  21.7203680 122.0313490 131.4874590  21.7609020 121.7327360 132.3959820
  22.5749180 122.4321100 131.3282110  25.4982070 124.6309040 116.6478100
  25.9198490 124.4648910 117.4909490  25.6232910 123.8209270 116.1533240
  23.6609490 120.6105590 129.4549080  23.1305950 120.1196540 128.8272420
  24.3297560 121.0389790 128.9207010  28.0109710 123.6546650 113.8955200
  28.5315370 122.9395670 113.5296350  28.6578110 124.2932520 114.1955710
  32.5587550 125.0775050 129.2190270  32.9728570 125.2320130 130.0680690
  31.6238550 125.2030270 129.3816050  33.0309720 122.4171210 131.2229420
  33.6130490 121.6623530 131.1349900  33.2071490 122.9478650 130.4460900
  24.1481790 117.5767960 129.5346370  24.0538660 116.9588710 128.8097240
  23.5679180 118.3034250 129.3076280  26.9143230 116.1341200 126.5673760
  26.4660530 116.1565460 125.7219310  26.2808430 115.7360220 127.1644060
  27.3202780 125.0295530 127.1886200  27.7390890 125.8728260 127.0162440
  26.4011410 125.1667570 126.9592980  29.6566680 122.7611710 128.5724040
  29.7762890 122.1652850 129.3118880  30.5160680 122.7981400 128.1525340
  31.9954580 123.3148900 127.1486550  31.4689800 123.8391520 126.5451690
  32.3385920 123.9476290 127.7796280  24.3940970 120.7042270 113.5936260
  24.1930030 119.8409630 113.9549600  24.2233020 120.6175630 112.6557860
  25.1710200 131.3348540 128.3043930  24.6331290 132.0594600 127.9852630
  25.4244160 130.8578880 127.5141270  26.4235450 119.3033060 129.8299860
  27.0135140 118.9948910 130.5177680  25.6055690 118.8312810 129.9859760
  31.2428880 118.9198870 130.0632880  30.5544400 118.2580410 129.9982870
  31.9634900 118.4737140 130.5081340  31.8729280 115.5150500 116.1223140
  32.1531570 114.6718400 116.4782560  31.0995010 115.7473610 116.6361890
  23.1923770 117.8042890 113.5814140  23.4949670 117.8110320 112.6733290
  23.9318360 117.4540750 114.0781800  28.0272410 132.5699750 128.5630580
  27.9531110 133.4734890 128.8702950  27.1251250 132.2511650 128.5352650
  26.4108700 116.7477510 114.5670340  26.0630700 116.0701500 113.9872790
  26.6121470 116.2867020 115.3813730  28.5757740 131.7358260 116.1856940
  29.4708530 132.0743230 116.2075700  28.6075370 131.0137670 115.5581220
  22.2153900 127.1085310 114.4143940  22.6528770 127.6514980 115.0701520
  22.7001630 126.2832260 114.4240280  19.4299700 129.8974340 121.8664200
  19.7602710 129.0295400 121.6342840  19.8590700 130.1032860 122.6969160
  24.0261620 128.2283350 119.5266170  23.7257160 128.1048320 120.4270080
  23.9199110 127.3691940 119.1181900  19.9189910 130.7644930 124.6045830
  19.4820900 130.9445730 125.4369980  20.4867590 131.5219550 124.4627550
  35.5552090 130.2661930 128.8923140  34.9554080 130.3254490 128.1487060
  35.6845990 129.3266910 129.0219990  36.7953540 128.0079750 114.2292850
  35.9646500 128.0756400 114.7000080  36.9725370 128.8983870 113.9259710
  36.2510000 124.7527230 116.7327050  37.0128910 125.3223880 116.8386740
  36.2664370 124.1854430 117.5035360  19.7514340 123.2765160 120.9634710
  19.0963180 123.0076800 120.3194410  20.5892290 123.1669640 120.5136690
  37.2569970 125.6077330 121.5768980  37.6278800 124.8244650 121.1704950
  37.8971900 126.2966430 121.3986280  34.2403730 126.9913910 126.9899300
  33.4263570 127.4211070 127.2525090  34.6477930 127.6032320 126.3768350
  36.3029170 125.0461600 113.8899570  36.5778010 125.9540480 113.7618790
  36.1139910 124.9824130 114.8261560  32.7004780 118.0706450 115.1853200
  33.1189660 117.8837430 114.3449860  32.3940840 117.2185500 115.4956130
  36.1994510 122.9830590 118.8829000  35.8238110 122.2158520 118.4510290
  35.4697630 123.3653290 119.3703930  20.7890270 123.6617730 125.5038050
  21.1563310 123.5745130 126.3834070  20.2201090 122.8984280 125.4044910
  35.5894130 122.1302110 128.5168520  35.3580220 121.9014860 127.6166470
  35.8498680 123.0501660 128.4713410  20.3406270 120.5726820 129.4096470
  19.4462320 120.5393580 129.7490180  20.8803820 120.7713610 130.1747720
  34.0282200 117.3558540 131.2948220  34.9052380 117.3641940 131.6782220
  34.0403040 116.6189380 130.6840570  18.9652420 120.4864090 116.9060040
  18.0616500 120.7494290 116.7311700  19.4493040 120.7575260 116.1260000
  35.4745470 121.2088080 122.1836240  35.9982950 120.7150730 121.5526410
  36.0604890 121.3438440 122.9283810  35.6535190 121.2927950 125.7055790
  34.7037900 121.2591490 125.8200780  35.8348200 122.2028060 125.4705560
  21.5079630 119.5429630 114.8154420  22.2171330 119.1212850 114.3301700
  20.7919570 119.6104860 114.1837770  21.1553790 115.5968960 113.8557070
  21.8781920 116.1377900 114.1738290  21.4278310 115.3232380 112.9798610
  34.9645440 120.4661430 118.1228650  35.4604560 120.2332300 118.9077530
  34.7661510 119.6273270 117.7066290  20.8445980 114.8475150 123.7579690
  21.4922170 114.2972530 123.3174850  21.2647820 115.1018300 124.5795500
  36.3932600 119.1022380 120.6566330  36.2831880 118.9478420 121.5948600
  37.1540190 118.5743320 120.4141740  34.7398320 115.0416510 127.1149330
  35.3770540 115.6550650 127.4808520  34.8873210 115.0777170 126.1698560
  37.2822870 116.9330300 113.8972470  38.2072180 116.8011480 113.6890760
  37.2598660 117.0123120 114.8508920  37.3561360 117.7040960 116.5229180
  36.5612860 117.6386080 117.0522090  37.5604640 118.6391600 116.5114530
  34.2979780 131.7432510 120.5167570  34.8938850 131.4217080 119.8401990
  34.5557930 131.2704330 121.3080840  20.5977980 115.0030820 126.5005010
  20.2492800 115.4594640 127.2663190  20.2665680 114.1087950 126.5827440
  22.2042350 128.1750420 130.6658200  22.1611980 127.8043330 131.5472660
  22.3353360 129.1127990 130.8060020  25.9048380 129.7310010 126.2667920
  25.6639740 129.9984570 125.3798440  26.8451020 129.9015740 126.3218780
  28.1102800 116.1942700 130.0224430  28.0491690 116.7864530 130.7719840
  29.0503180 116.0868660 129.8774690  30.7477360 115.8512760 129.6616720
  31.3617770 116.1692050 128.9997800  31.2926920 115.3661350 130.2812580
  37.1652540 131.7504390 127.0678560  36.6710820 132.1473260 126.3505690
  36.5565830 131.1253600 127.4615840  21.2698620 114.5307020 129.7755780
  21.8181610 114.3495070 129.0121890  21.3353930 113.7401130 130.3112090
  22.0430380 131.1212670 127.7855980  21.4490700 130.9897370 128.5246020
  22.0354220 130.2850810 127.3198080  31.4885400 114.4144900 125.9886010
  30.6145240 114.7480010 125.7858940  31.3796150 113.9418080 126.8137880
  32.3957380 116.6215770 127.3727730  32.0670740 115.8067530 126.9929460
  33.3439680 116.5785580 127.2493420  34.8491990 132.3927810 124.3465300
  34.3894960 133.1443620 123.9723320  34.2204450 131.6734280 124.2880100
  21.6742610 128.4871050 126.7364020  20.9476670 127.8676340 126.6689970
  21.7351760 128.8811660 125.8662100  25.2787710 130.7016050 123.5213430
  25.7952730 130.0903410 122.9961690  25.9285090 131.2044830 124.0124440
  28.0183210 131.5924540 124.3482410  28.3061020 131.3378840 123.4715420
  28.5306430 131.0401900 124.9387980  29.2360220 115.3314740 124.9278920
  28.4532010 115.8060240 125.2075680  28.9423150 114.4269570 124.8192100
  33.7881290 116.0337840 122.9728010  34.2289380 115.9782940 122.1249610
  33.5188880 116.9495850 123.0438190  35.6519860 115.6653080 120.9836830
  35.5908260 114.7214300 120.8367850  36.4311890 115.7733170 121.5290290
  19.9572610 131.8045440 119.9460780  19.7894650 131.1716120 120.6442670
  19.0907120 132.0104840 119.5954970  20.5800630 115.6362220 117.4492640
  21.3379990 115.7491100 116.8756670  20.1177800 116.4731420 117.4036070
  27.1214440 117.7501490 120.4394950  26.3088950 117.3758380 120.0990830
  27.6256080 116.9946570 120.7416140  31.6239420 114.4143940 121.6778020
  32.2268790 114.9864150 122.1526540  30.8832410 114.9783380 121.4551920
  34.7674020 114.8165500 116.9518300  34.9624650 115.7148950 117.2185730
  33.9803890 114.5852580 117.4451250  21.5635310 130.4978670 117.3910920
  21.0382930 130.8786700 116.6872880  21.4879890 131.1229440 118.1120630
  22.9525780 116.1626270 115.9894610  23.4818540 115.3756070 115.8602560
  23.5854100 116.8417460 116.2230140  25.1463620 115.9001410 119.0440000
  24.5166360 115.1988720 119.2110130  24.6068760 116.6605540 118.8273160
  28.0855570 132.5140640 131.7150610  29.0122880 132.2784910 131.7586570
  28.0706000 133.3412640 131.2336640  36.3200630 132.0566210 118.7124860
  36.4952820 131.3703950 118.0685780  35.6222200 132.5813260 118.3201530
  25.2719180 115.1785390 131.4792490  24.9903450 115.6818990 130.7153310
  25.6538880 114.3807140 131.1134620  24.1628280 132.4461050 116.2660170
  24.8947100 132.1620330 115.7184060  24.4221950 132.2074330 117.1559550
  23.3243070 128.5625780 116.2706500  22.6951950 129.0310880 116.8192330
  23.4390900 127.7175000 116.7052690  31.8734640 114.5938970 132.0572960
  31.7600090 114.9133580 132.9524480  32.6904380 114.9951480 131.7610240
  34.6533130 131.7410500 131.5391650  35.4458450 131.2459730 131.3317610
  34.9466280 132.4200640 132.1467260  30.7792790 122.6131440 102.4207700
  30.6986840 121.6986050 102.1499410  30.3657210 123.1098510 101.7147410
  28.9110830 124.3910460 104.3016970  28.1352930 123.9110900 104.5915540
  29.5623760 123.7116110 104.1273130  22.9276660 124.7030270 105.1792730
  22.0961540 124.4478980 105.5789240  23.5357640 124.7741040 105.9150650
  32.9318260 128.7970650 103.0816100  32.4699790 128.0257890 103.4103270
  33.7443810 128.8236720 103.5868550  22.9077920 128.7370360 105.3750750
  23.2105960 127.8468100 105.1960970  23.6521510 129.2940580 105.1473000
  21.3368610 119.6632160  98.9635120  20.4485310 120.0048130  98.8615000
  21.6209800 119.4632480  98.0715950  19.3001620 122.2637810 104.8474820
  19.8717730 121.4960010 104.8478460  19.3003160 122.5626570 103.9381430
  29.1581570 131.0828660 102.7020090  28.5393010 131.5386160 102.1314530
  30.0133350 131.2380120 102.3009790  28.3519820 127.0667650 104.3087130
  28.2828100 126.1257590 104.1476260  29.1139680 127.1569060 104.8809700
  20.5426490 117.6722170 106.6343750  20.3629330 116.7747920 106.9146510
  20.1406570 118.2194040 107.3090700  29.3824990 119.8738030 104.5356060
  29.7589810 119.0009910 104.4229730  29.2844500 120.2096730 103.6446500
  23.5130000 118.2463660  99.9973500  23.6196750 119.1467390 100.3042260
  22.6022360 118.1981630  99.7068150  33.1649110 117.3688470 101.4684400
  33.9858730 116.8785040 101.5109880  33.1983190 117.9586130 102.2216240
  21.1613160 120.1682670 105.2426090  21.8423270 120.4321040 105.8613490
  20.8461210 119.3283540 105.5764100  25.3537730 121.2150030 104.3298680
  25.8615950 121.7131000 104.9703700  25.8850970 120.4385230 104.1538040
  37.4548660 119.3855220 108.0328030  36.7500830 119.7736930 107.5143140
  37.7206580 120.0805510 108.6348960  23.6373830 115.8548590 108.5962100
  23.6392270 116.3720980 107.7908000  22.8078140 115.3778770 108.5732030
  30.0244920 125.9667900 100.0952000  29.4062190 126.4317350  99.5314720
  30.5368170 126.6595380 100.5121510  24.8876680 125.4943770 106.7735600
  24.5546060 126.1212690 107.4156670  25.0643360 126.0205650 105.9937270
  33.4010590 119.3088850 104.2411940  32.6966160 119.5973740 104.8215050
  33.7622750 120.1188960 103.8811500  23.3189160 117.5658550 106.6032550
  23.6605970 118.4100600 106.3086420  22.3804970 117.7142290 106.7197890
  24.0995780 127.4624570 108.5884780  24.7169780 128.1375650 108.3069230
  23.2388900 127.8712550 108.4972280  19.3928120 126.6524430  97.4691630
  19.0156100 127.1411530  96.7376530  19.6501190 127.3249710  98.0998160
  35.0173370 128.9263980 106.5039420  34.3336890 129.5963090 106.4956090
  35.5567660 129.1244630 105.7384280  36.4697510 118.7543640 104.6321150
  35.5222420 118.7882620 104.7636580  36.7947500 119.5682590 105.0170510
  27.0017050 115.0540820 102.9277140  27.3092030 114.4987710 102.2112640
  26.0717750 115.1885280 102.7450130  32.5532110 130.7708110 105.2184600
  32.5659270 130.3670400 104.3506860  32.0007330 131.5455400 105.1146030
  33.8477530 127.4924330 100.3074770  33.7373860 126.5498660 100.4324190
  33.8445780 127.8539970 101.1937530  31.9517550 125.6737950 106.5467210
  32.3686340 125.4598060 105.7120670  32.6757370 125.9310740 107.1175830
  29.3897810 123.1189650  99.6637260  28.4627090 123.0527030  99.8925730
  29.5422630 124.0569780  99.5492500  29.3766890 119.3906650  96.6604420
  28.4370560 119.5520610  96.7456880  29.6950150 120.1092330  96.1140410
  35.8979650 124.0725170 106.6383450  35.0698280 124.1418260 106.1633580
  36.4930130 124.6579480 106.1699280  33.4195100 124.6809950 100.1672510
  32.8007520 124.3429500  99.5198810  33.4019550 124.0369710 100.8751700
  32.8621660 120.8594490 107.5838320  32.4492840 121.6848200 107.8378310
  32.1297610 120.2739530 107.3914680  24.9954450 123.6454390 102.4456990
  24.5911450 122.9331640 101.9502890  25.0817570 123.3007630 103.3345030
  25.4636150 127.3321950 104.6096200  25.1664440 126.7267420 103.9303980
  26.4135970 127.3699260 104.4985560  23.7083070 120.4197600 106.2256030
  24.2597660 120.5292940 105.4509280  24.2226580 120.7935200 106.9411260
  33.5521760 130.9053820 108.2719300  33.0752320 131.7126010 108.0791910
  32.8683550 130.2532150 108.4245510  24.5554580 127.0703640 111.2604000
  23.6583110 127.2943610 111.5077400  24.5807450 127.1938580 110.3115400
  31.5959800 123.9196760  97.1745260  32.0353080 123.0819190  97.0283080
  32.3088220 124.5526160  97.2609400  23.3825800 123.9416960 109.8361370
  23.2433570 124.8139760 110.2048770  22.5007160 123.5989770 109.6909310
  29.7055180 128.8592830 101.1426500  30.1451090 129.6017160 100.7281890
  29.6442070 129.1019400 102.0665460  25.1806150 129.8838660 112.0446520
  25.1521580 130.2881610 111.1774950  25.0171120 128.9549020 111.8818120
  21.6959080 122.5399370  99.9463640  21.5756680 123.2661460  99.3344910
  21.3859970 121.7702280  99.4691550  37.1320970 130.6665760 113.3410690
  37.6080690 131.1448650 114.0199770  37.7528130 130.5983250 112.6156190
  19.3344450 125.7114510 105.7532280  19.4124870 125.8463280 104.8088000
  19.9486130 125.0030400 105.9460400  20.5792080 127.4114700 102.1638460
  20.1720160 127.5529290 101.3092060  21.4705090 127.1274860 101.9609670
  36.5354220 127.8578610 110.5010700  36.6617280 127.6190490 109.5827880
  36.5775600 127.0263150 110.9732780  30.3970960 131.5606610 109.0705510
  30.9115630 131.4714620 109.8727940  29.5540040 131.9066310 109.3633420
  32.3725360 131.8461950  98.4989510  32.2126500 131.5564890  99.3971340
  32.2072070 131.0702080  97.9634740  24.8513740 131.6260480 100.2761130
  24.6756220 130.7096020 100.0628930  23.9969480 131.9847770 100.5158930
  32.0751490 129.3549510  97.0587510  31.3816650 129.3526800  96.3989790
  32.8174350 128.9308830  96.6281680  31.6401420 130.9812220 101.1336000
  32.0958370 130.2001600 101.4474620  31.9793940 131.6919040 101.6777180
  36.3878230 119.9111070 111.4660440  35.7722500 120.4190740 110.9375900
  36.0674650 119.0109400 111.4086380  19.3903970 126.7528680 108.2926740
  19.5535010 126.2834040 107.4746110  19.8556420 126.2452240 108.9575580
  24.1622740 115.8834440 103.3287310  23.7190890 116.6643980 102.9971830
  24.7207730 116.2064330 104.0358250  28.4492550 118.7502960 108.9322630
  27.9871920 118.9585980 109.7442570  28.0470660 117.9362310 108.6293300
  33.4497060 119.9711910 110.0619290  32.5990650 119.6717660 110.3828360
  33.2898850 120.2153920 109.1503110  30.5446770 121.4713660 112.1618080
  30.8700180 120.6377410 111.8220310  31.3327100 121.9942180 112.3096410
  27.2781560 115.5045140  98.2093140  26.6535740 115.5005010  98.9346450
  27.1911680 114.6376100  97.8129110  26.1998640 116.4281770 105.1876910
  26.4970970 117.3344600 105.1068930  26.7484200 115.9400550 104.5736480
  23.9536960 121.0068010 101.0568560  23.7277880 120.7905180 101.9615180
  23.1729490 121.4396470 100.7114530  31.1834720 121.0131380  99.6559210
  30.5843610 121.7367180  99.4722830  31.7314330 120.9508160  98.8735660
  26.3936170 121.9053590 111.7228830  26.2979770 120.9648320 111.5729230
  27.2368150 122.1268660 111.3276900  29.7899590 119.6494920 101.6862490
  30.1829160 119.9667120 100.8731180  30.1516440 118.7706800 101.8007010
  21.5246710 118.3167260 109.8762610  21.1310100 119.1642470 110.0835390
  20.8365110 117.6793630 110.0671250  28.0991760 118.4002230 112.9459350
  27.4090080 118.2074430 113.5805440  28.8424060 118.6836870 113.4783650
  18.8263760 116.2395720 103.9092690  18.5376810 116.8098580 104.6217670
  19.5709520 115.7600170 104.2723920  19.0133990 120.1815840  95.1195410
  18.9308660 121.1246600  95.2610400  18.6617050 120.0390750  94.2407760
  30.3754730 122.2400670 105.7813270  29.6435850 122.7487480 106.1303370
  29.9779070 121.4230650 105.4802050  26.8132120 118.9154870 104.1865760
  26.8168180 118.4744820 103.3370300  27.7083240 119.2372200 104.2937580
  22.6634500 118.7981360 103.1459970  22.3234550 119.2756590 103.9027020
  21.9011820 118.3446480 102.7861070  26.8752270 119.9166950  97.1772520
  26.9965090 119.8753430  98.1258340  26.4900780 120.7791100  97.0219250
  30.8380640 117.6934350 105.1936210  30.8553380 118.1443000 106.0378060
  30.5896220 116.7939990 105.4069650  25.8873770 122.2268090  96.5755820
  25.3190670 121.7786340  95.9491730  26.5962770 122.5860870  96.0420970
  34.2651390 115.1066530 111.0322590  34.5897160 114.3756190 111.5580570
  34.3007900 114.7880170 110.1303580  20.9642950 126.1280110 110.4522550
  20.5797740 125.4873780 111.0505510  21.2755140 126.8316230 111.0217280
  27.1140090 122.9756650 105.9331170  27.4810220 122.5015220 106.6792510
  26.9245150 123.8498220 106.2739510  19.9780580 117.7200340 102.0624640
  19.6927500 117.3556010 102.9003260  19.9159440 116.9880800 101.4487780
  24.9039460 122.0165290 108.2515380  24.5996530 122.8957270 108.4765740
  25.8585920 122.0765080 108.2872820  23.4321250 126.2226280  98.8482230
  22.6583510 125.6823900  98.6880950  24.1615880 125.7032890  98.5099990
  34.1909230 125.2191640 104.6408620  34.9108350 125.7146930 104.2504730
  33.9891050 124.5409530 103.9962490  29.6519170 116.6129600  98.7838010
  28.8383780 116.1142770  98.7083320  29.4581120 117.4527850  98.3674360
  29.5728030 125.2900700 110.5277620  29.5065340 124.3696370 110.2735210
  28.9433170 125.3876140 111.2422260  32.3667560 120.9849250  97.0800170
  33.2547180 121.2966480  96.9051510  32.3372650 120.1121500  96.6880750
  23.4758650 125.8906660 102.4861040  23.9937320 125.0874920 102.4317930
  23.0242670 125.8285800 103.3277870  28.3628150 127.1572940  97.7588340
  28.7043850 127.9015170  97.2631660  27.5340860 127.4704060  98.1213170
  20.9603190 122.8568030 109.3986740  20.6018130 123.5221880 109.9860080
  20.6657750 122.0251580 109.7699360  24.1616310 123.3152270 112.2826290
  23.8616450 123.4609450 111.3854110  24.9327550 122.7557560 112.1899680
  29.5044760 128.1121270 110.2781420  29.5189300 127.1802230 110.0600330
  28.7969860 128.1981030 110.9171190  34.6381830 122.2961090  96.5480030
  34.5545550 122.7275310  95.6976470  35.3576020 122.7559440  96.9806850
  35.7155970 124.7528610 109.6250000  34.9904160 125.3457390 109.4279390
  36.2431430 124.7452150 108.8263370  35.6669080 129.1503350  99.2762160
  35.0245240 128.4958970  99.5505880  35.2799740 129.5558440  98.5002830
  31.2455560 126.4788780 103.1233850  31.5979380 125.8816910 102.4635220
  30.3617890 126.1533010 103.2942100  27.3318840 127.2386470 100.5304260
  28.0189970 127.7855680 100.9111850  26.5451260 127.7827200 100.5653870
  19.4711240 122.8559290  96.0221340  20.3406090 123.1384090  96.3057260
  18.9801560 123.6695160  95.9070150  26.6346050 124.2432500 100.1429620
  27.0908830 125.0537750 100.3689810  26.2834260 123.9255640 100.9748110
  28.9378660 129.7538840 107.3721920  29.5820880 129.9598220 108.0495340
  29.3008100 128.9927240 106.9192770  22.5357830 114.5870150 100.6152140
  22.4072460 114.5788050 101.5637060  21.7119850 114.9253240 100.2643150
  30.2110740 127.7571190 106.0899370  30.8532970 127.0564350 106.2031540
  30.7360090 128.5369630 105.9096260  34.0566460 128.0419810  95.8138510
  33.8304040 127.3250250  96.4063150  33.6662660 127.7932250  94.9760260
  31.9848360 128.5566090 109.2935430  32.3204600 129.1432780 109.9713350
  31.0648700 128.4258800 109.5233220  19.8382490 132.0686670  96.5882970
  20.1980130 132.6676010  95.9340240  19.6974830 132.6146560  97.3618000
  19.5351760 116.3461270 110.0758840  18.8210280 116.5458190 110.6811450
  19.9546800 115.5700840 110.4473640  33.6382710 125.9591750  97.4752670
  33.3504410 126.4204440  98.2630550  34.4334880 125.4989520  97.7436890
  19.8224350 130.3341530 111.0625370  19.9315470 129.3936270 110.9220760
  19.1704910 130.5996280 110.4139100  27.8136940 128.6057420 112.4623490
  27.4933810 127.8866660 113.0069180  27.1395300 129.2812490 112.5359550
  25.8551110 129.4517870  97.4056640  25.8461210 130.1847560  96.7901150
  24.9349470 129.2049450  97.4983600  21.4557750 124.6732760  98.1503400
  20.8485700 125.4131660  98.1598700  21.9307100 124.7632120  97.3241600
  31.0290540 118.8383580 107.8260290  31.3971360 118.0178790 108.1539860
  30.1688740 118.8985470 108.2415940  34.3952570 117.7940520  98.6347850
  33.7665730 117.8986190  97.9206080  33.9004490 118.0137300  99.4241730
  28.8410710 129.5146110  96.0681830  28.9422690 129.3110100  95.1383810
  27.9412450 129.2604390  96.2729610  26.3636600 120.0726470 100.0505730
  25.6552750 120.5412810 100.4919340  26.6481080 119.4148480 100.6850920
  27.9892530 121.4923170 108.0498260  28.4877780 121.9668990 108.7150110
  28.1315480 120.5686690 108.2568290  30.3952030 116.7977130 101.4901520
  30.2719810 116.8163260 100.5411030  31.3436590 116.8456070 101.6099920
  27.4828820 132.0332430 100.7629500  27.7370320 131.9953820  99.8408870
  26.5341300 131.9065760 100.7557750  24.5671620 118.3811550  97.4256440
  25.4162150 118.8181700  97.3596630  24.2002890 118.6931810  98.2528500
  35.1959390 117.7091130 108.8926650  34.6932990 118.4496530 109.2320460
  36.0116050 118.0975130 108.5763440  33.4881400 122.9524310 102.3388010
  32.5471540 122.9674540 102.5135700  33.8025470 122.1660270 102.7848310
  23.4663040 124.6343910  95.8991970  24.2326310 124.5225270  96.4617400
  23.5437730 123.9381880  95.2468740  22.1609800 122.0668980  96.5824860
  22.2413390 121.1196490  96.6942260  23.0529550 122.3975860  96.6885520
  35.4906980 130.1233160 104.0142270  35.6154400 130.9464330 104.4866080
  36.3572540 129.9123890 103.6666420  22.9624510 132.2164370 103.6859400
  23.6986990 131.6679830 103.9567970  23.3465430 133.0820380 103.5465390
  19.8469990 128.2837940  99.5600910  18.9209770 128.5259080  99.5506320
  20.3126420 129.1112200  99.4385660  21.9682790 131.4010440 112.8744980
  22.7695520 131.7222490 113.2880380  21.4534610 131.0406020 113.5964890
  26.0726820 131.3894680  95.5084970  26.8655430 131.6783510  95.0566760
  25.5531170 130.9586850  94.8297450  30.8047420 127.5090310 112.8220390
  30.1985580 127.5321910 112.0816140  30.5001530 126.7773350 113.3587640
  32.2347790 131.2370600 111.4329800  33.1869540 131.1528620 111.3830040
  32.0876010 131.9012310 112.1063590  35.1256990 130.6164810  96.9321710
  34.8398500 130.2029950  96.1175890  34.9276540 131.5452520  96.8122230
  19.6880600 123.8883900 111.8181030  20.1919620 123.3091180 112.3897260
  18.9488020 124.1724130 112.3557400  26.5904220 126.6098090  95.3727320
  26.4854860 125.9950440  96.0988700  26.4228440 126.0863980  94.5890330
  26.7418540 125.2954890 111.3516550  25.9764210 125.8639890 111.2671220
  26.9234500 125.0031100 110.4584780  29.8306950 125.6718120  95.9769310
  29.2817050 126.1187420  96.6212050  30.4526210 125.1667370  96.5006980
  33.8841890 127.0260220 111.9091570  34.6251360 127.3635980 111.4059030
  33.1214570 127.1952280 111.3561340  21.7203680 122.0313490 112.7131100
  21.7609020 121.7327360 113.6216330  22.5749180 122.4321100 112.5538620
  25.4982070 124.6309040  97.8734610  25.9198490 124.4648910  98.7166000
  25.6232910 123.8209270  97.3789750  23.6609490 120.6105590 110.6805590
  23.1305950 120.1196540 110.0528930  24.3297560 121.0389790 110.1463520
  28.0109710 123.6546650  95.1211710  28.5315370 122.9395670  94.7552860
  28.6578110 124.2932520  95.4212220  32.5587550 125.0775050 110.4446780
  32.9728570 125.2320130 111.2937200  31.6238550 125.2030270 110.6072560
  33.0309720 122.4171210 112.4485930  33.6130490 121.6623530 112.3606410
  33.2071490 122.9478650 111.6717410  24.1481790 117.5767960 110.7602880
  24.0538660 116.9588710 110.0353750  23.5679180 118.3034250 110.5332790
  26.9143230 116.1341200 107.7930270  26.4660530 116.1565460 106.9475820
  26.2808430 115.7360220 108.3900570  27.3202780 125.0295530 108.4142710
  27.7390890 125.8728260 108.2418950  26.4011410 125.1667570 108.1849490
  29.6566680 122.7611710 109.7980550  29.7762890 122.1652850 110.5375390
  30.5160680 122.7981400 109.3781850  31.9954580 123.3148900 108.3743060
  31.4689800 123.8391520 107.7708200  32.3385920 123.9476290 109.0052790
  24.3940970 120.7042270  94.8192770  24.1930030 119.8409630  95.1806110
  24.2233020 120.6175630  93.8814370  25.1710200 131.3348540 109.5300440
  24.6331290 132.0594600 109.2109140  25.4244160 130.8578880 108.7397780
  26.4235450 119.3033060 111.0556370  27.0135140 118.9948910 111.7434190
  25.6055690 118.8312810 111.2116270  31.2428880 118.9198870 111.2889390
  30.5544400 118.2580410 111.2239380  31.9634900 118.4737140 111.7337850
  23.1923770 117.8042890  94.8070650  23.4949670 117.8110320  93.8989800
  23.9318360 117.4540750  95.3038310  28.0272410 132.5699750 109.7887090
  27.9531110 133.4734890 110.0959460  27.1251250 132.2511650 109.7609160
  26.4108700 116.7477510  95.7926850  26.0630700 116.0701500  95.2129300
  26.6121470 116.2867020  96.6070240  28.5757740 131.7358260  97.4113450
  29.4708530 132.0743230  97.4332210  28.6075370 131.0137670  96.7837730
  22.2153900 127.1085310  95.6400450  22.6528770 127.6514980  96.2958030
  22.7001630 126.2832260  95.6496790  19.4299700 129.8974340 103.0920710
  19.7602710 129.0295400 102.8599350  19.8590700 130.1032860 103.9225670
  24.0261620 128.2283350 100.7522680  23.7257160 128.1048320 101.6526590
  23.9199110 127.3691940 100.3438410  19.9189910 130.7644930 105.8302340
  19.4820900 130.9445730 106.6626490  20.4867590 131.5219550 105.6884060
  35.5552090 130.2661930 110.1179650  34.9554080 130.3254490 109.3743570
  35.6845990 129.3266910 110.2476500  36.7953540 128.0079750  95.4549360
  35.9646500 128.0756400  95.9256590  36.9725370 128.8983870  95.1516220
  36.2510000 124.7527230  97.9583560  37.0128910 125.3223880  98.0643250
  36.2664370 124.1854430  98.7291870  19.7514340 123.2765160 102.1891220
  19.0963180 123.0076800 101.5450920  20.5892290 123.1669640 101.7393200
  37.2569970 125.6077330 102.8025490  37.6278800 124.8244650 102.3961460
  37.8971900 126.2966430 102.6242790  34.2403730 126.9913910 108.2155810
  33.4263570 127.4211070 108.4781600  34.6477930 127.6032320 107.6024860
  36.3029170 125.0461600  95.1156080  36.5778010 125.9540480  94.9875300
  36.1139910 124.9824130  96.0518070  32.7004780 118.0706450  96.4109710
  33.1189660 117.8837430  95.5706370  32.3940840 117.2185500  96.7212640
  36.1994510 122.9830590 100.1085510  35.8238110 122.2158520  99.6766800
  35.4697630 123.3653290 100.5960440  20.7890270 123.6617730 106.7294560
  21.1563310 123.5745130 107.6090580  20.2201090 122.8984280 106.6301420
  35.5894130 122.1302110 109.7425030  35.3580220 121.9014860 108.8422980
  35.8498680 123.0501660 109.6969920  20.3406270 120.5726820 110.6352980
  19.4462320 120.5393580 110.9746690  20.8803820 120.7713610 111.4004230
  34.0282200 117.3558540 112.5204730  34.9052380 117.3641940 112.9038730
  34.0403040 116.6189380 111.9097080  18.9652420 120.4864090  98.1316550
  18.0616500 120.7494290  97.9568210  19.4493040 120.7575260  97.3516510
  35.4745470 121.2088080 103.4092750  35.9982950 120.7150730 102.7782920
  36.0604890 121.3438440 104.1540320  35.6535190 121.2927950 106.9312300
  34.7037900 121.2591490 107.0457290  35.8348200 122.2028060 106.6962070
  21.5079630 119.5429630  96.0410930  22.2171330 119.1212850  95.5558210
  20.7919570 119.6104860  95.4094280  21.1553790 115.5968960  95.0813580
  21.8781920 116.1377900  95.3994800  21.4278310 115.3232380  94.2055120
  34.9645440 120.4661430  99.3485160  35.4604560 120.2332300 100.1334040
  34.7661510 119.6273270  98.9322800  20.8445980 114.8475150 104.9836200
  21.4922170 114.2972530 104.5431360  21.2647820 115.1018300 105.8052010
  36.3932600 119.1022380 101.8822840  36.2831880 118.9478420 102.8205110
  37.1540190 118.5743320 101.6398250  34.7398320 115.0416510 108.3405840
  35.3770540 115.6550650 108.7065030  34.8873210 115.0777170 107.3955070
  37.2822870 116.9330300  95.1228980  38.2072180 116.8011480  94.9147270
  37.2598660 117.0123120  96.0765430  37.3561360 117.7040960  97.7485690
  36.5612860 117.6386080  98.2778600  37.5604640 118.6391600  97.7371040
  34.2979780 131.7432510 101.7424080  34.8938850 131.4217080 101.0658500
  34.5557930 131.2704330 102.5337350  20.5977980 115.0030820 107.7261520
  20.2492800 115.4594640 108.4919700  20.2665680 114.1087950 107.8083950
  22.2042350 128.1750420 111.8914710  22.1611980 127.8043330 112.7729170
  22.3353360 129.1127990 112.0316530  25.9048380 129.7310010 107.4924430
  25.6639740 129.9984570 106.6054950  26.8451020 129.9015740 107.5475290
  28.1102800 116.1942700 111.2480940  28.0491690 116.7864530 111.9976350
  29.0503180 116.0868660 111.1031200  30.7477360 115.8512760 110.8873230
  31.3617770 116.1692050 110.2254310  31.2926920 115.3661350 111.5069090
  37.1652540 131.7504390 108.2935070  36.6710820 132.1473260 107.5762200
  36.5565830 131.1253600 108.6872350  21.2698620 114.5307020 111.0012290
  21.8181610 114.3495070 110.2378400  21.3353930 113.7401130 111.5368600
  22.0430380 131.1212670 109.0112490  21.4490700 130.9897370 109.7502530
  22.0354220 130.2850810 108.5454590  31.4885400 114.4144900 107.2142520
  30.6145240 114.7480010 107.0115450  31.3796150 113.9418080 108.0394390
  32.3957380 116.6215770 108.5984240  32.0670740 115.8067530 108.2185970
  33.3439680 116.5785580 108.4749930  34.8491990 132.3927810 105.5721810
  34.3894960 133.1443620 105.1979830  34.2204450 131.6734280 105.5136610
  21.6742610 128.4871050 107.9620530  20.9476670 127.8676340 107.8946480
  21.7351760 128.8811660 107.0918610  25.2787710 130.7016050 104.7469940
  25.7952730 130.0903410 104.2218200  25.9285090 131.2044830 105.2380950
  28.0183210 131.5924540 105.5738920  28.3061020 131.3378840 104.6971930
  28.5306430 131.0401900 106.1644490  29.2360220 115.3314740 106.1535430
  28.4532010 115.8060240 106.4332190  28.9423150 114.4269570 106.0448610
  33.7881290 116.0337840 104.1984520  34.2289380 115.9782940 103.3506120
  33.5188880 116.9495850 104.2694700  35.6519860 115.6653080 102.2093340
  35.5908260 114.7214300 102.0624360  36.4311890 115.7733170 102.7546800
  19.9572610 131.8045440 101.1717290  19.7894650 131.1716120 101.8699180
  19.0907120 132.0104840 100.8211480  20.5800630 115.6362220  98.6749150
  21.3379990 115.7491100  98.1013180  20.1177800 116.4731420  98.6292580
  27.1214440 117.7501490 101.6651460  26.3088950 117.3758380 101.3247340
  27.6256080 116.9946570 101.9672650  31.6239420 114.4143940 102.9034530
  32.2268790 114.9864150 103.3783050  30.8832410 114.9783380 102.6808430
  21.5635310 130.4978670  98.6167430  21.0382930 130.8786700  97.9129390
  21.4879890 131.1229440  99.3377140  22.9525780 116.1626270  97.2151120
  23.4818540 115.3756070  97.0859070  23.5854100 116.8417460  97.4486650
  25.1463620 115.9001410 100.2696510  24.5166360 115.1988720 100.4366640
  24.6068760 116.6605540 100.0529670  28.0855570 132.5140640 112.9407120
  29.0122880 132.2784910 112.9843080  28.0706000 133.3412640 112.4593150
  36.3200630 132.0566210  99.9381370  36.4952820 131.3703950  99.2942290
  35.6222200 132.5813260  99.5458040  25.2719180 115.1785390 112.7049000
  24.9903450 115.6818990 111.9409820  25.6538880 114.3807140 112.3391130
  24.1628280 132.4461050  97.4916680  24.8947100 132.1620330  96.9440570
  24.4221950 132.2074330  98.3816060  23.3243070 128.5625780  97.4963010
  22.6951950 129.0310880  98.0448840  23.4390900 127.7175000  97.9309200
  31.8734640 114.5938970 113.2829470  31.7600090 114.9133580 114.1780990
  32.6904380 114.9951480 112.9866750  34.6533130 131.7410500 112.7648160
  35.4458450 131.2459730 112.5574120  34.9466280 132.4200640 113.3723770
  30.7792790 122.6131440  83.6464210  30.6986840 121.6986050  83.3755920
  30.3657210 123.1098510  82.9403920  28.9110830 124.3910460  85.5273480
  28.1352930 123.9110900  85.8172050  29.5623760 123.7116110  85.3529640
  22.9276660 124.7030270  86.4049240  22.0961540 124.4478980  86.8045750
  23.5357640 124.7741040  87.1407160  32.9318260 128.7970650  84.3072610
  32.4699790 128.0257890  84.6359780  33.7443810 128.8236720  84.8125060
  22.9077920 128.7370360  86.6007260  23.2105960 127.8468100  86.4217480
  23.6521510 129.2940580  86.3729510  21.3368610 119.6632160  80.1891630
  20.4485310 120.0048130  80.0871510  21.6209800 119.4632480  79.2972460
  19.3001620 122.2637810  86.0731330  19.8717730 121.4960010  86.0734970
  19.3003160 122.5626570  85.1637940  29.1581570 131.0828660  83.9276600
  28.5393010 131.5386160  83.3571040  30.0133350 131.2380120  83.5266300
  28.3519820 127.0667650  85.5343640  28.2828100 126.1257590  85.3732770
  29.1139680 127.1569060  86.1066210  20.5426490 117.6722170  87.8600260
  20.3629330 116.7747920  88.1403020  20.1406570 118.2194040  88.5347210
  29.3824990 119.8738030  85.7612570  29.7589810 119.0009910  85.6486240
  29.2844500 120.2096730  84.8703010  23.5130000 118.2463660  81.2230010
  23.6196750 119.1467390  81.5298770  22.6022360 118.1981630  80.9324660
  21.1613160 120.1682670  86.4682600  21.8423270 120.4321040  87.0870000
  20.8461210 119.3283540  86.8020610  25.3537730 121.2150030  85.5555190
  25.8615950 121.7131000  86.1960210  25.8850970 120.4385230  85.3794550
  37.4548660 119.3855220  89.2584540  36.7500830 119.7736930  88.7399650
  37.7206580 120.0805510  89.8605470  23.6373830 115.8548590  89.8218610
  23.6392270 116.3720980  89.0164510  22.8078140 115.3778770  89.7988540
  30.0244920 125.9667900  81.3208510  29.4062190 126.4317350  80.7571230
  30.5368170 126.6595380  81.7378020  24.8876680 125.4943770  87.9992110
  24.5546060 126.1212690  88.6413180  25.0643360 126.0205650  87.2193780
  33.4010590 119.3088850  85.4668450  32.6966160 119.5973740  86.0471560
  33.7622750 120.1188960  85.1068010  23.3189160 117.5658550  87.8289060
  23.6605970 118.4100600  87.5342930  22.3804970 117.7142290  87.9454400
  24.0995780 127.4624570  89.8141290  24.7169780 128.1375650  89.5325740
  23.2388900 127.8712550  89.7228790  19.3928120 126.6524430  78.6948140
  19.0156100 127.1411530  77.9633040  19.6501190 127.3249710  79.3254670
  35.0173370 128.9263980  87.7295930  34.3336890 129.5963090  87.7212600
  35.5567660 129.1244630  86.9640790  36.4697510 118.7543640  85.8577660
  35.5222420 118.7882620  85.9893090  36.7947500 119.5682590  86.2427020
  27.0017050 115.0540820  84.1533650  27.3092030 114.4987710  83.4369150
  26.0717750 115.1885280  83.9706640  32.5532110 130.7708110  86.4441110
  32.5659270 130.3670400  85.5763370  32.0007330 131.5455400  86.3402540
  33.8477530 127.4924330  81.5331280  33.7373860 126.5498660  81.6580700
  33.8445780 127.8539970  82.4194040  31.9517550 125.6737950  87.7723720
  32.3686340 125.4598060  86.9377180  32.6757370 125.9310740  88.3432340
  29.3897810 123.1189650  80.8893770  28.4627090 123.0527030  81.1182240
  29.5422630 124.0569780  80.7749010  29.3766890 119.3906650  77.8860930
  28.4370560 119.5520610  77.9713390  29.6950150 120.1092330  77.3396920
  35.8979650 124.0725170  87.8639960  35.0698280 124.1418260  87.3890090
  36.4930130 124.6579480  87.3955790  33.4195100 124.6809950  81.3929020
  32.8007520 124.3429500  80.7455320  33.4019550 124.0369710  82.1008210
  32.8621660 120.8594490  88.8094830  32.4492840 121.6848200  89.0634820
  32.1297610 120.2739530  88.6171190  24.9954450 123.6454390  83.6713500
  24.5911450 122.9331640  83.1759400  25.0817570 123.3007630  84.5601540
  25.4636150 127.3321950  85.8352710  25.1664440 126.7267420  85.1560490
  26.4135970 127.3699260  85.7242070  23.7083070 120.4197600  87.4512540
  24.2597660 120.5292940  86.6765790  24.2226580 120.7935200  88.1667770
  33.5521760 130.9053820  89.4975810  33.0752320 131.7126010  89.3048420
  32.8683550 130.2532150  89.6502020  24.5554580 127.0703640  92.4860510
  23.6583110 127.2943610  92.7333910  24.5807450 127.1938580  91.5371910
  31.5959800 123.9196760  78.4001770  32.0353080 123.0819190  78.2539590
  32.3088220 124.5526160  78.4865910  23.3825800 123.9416960  91.0617880
  23.2433570 124.8139760  91.4305280  22.5007160 123.5989770  90.9165820
  29.7055180 128.8592830  82.3683010  30.1451090 129.6017160  81.9538400
  29.6442070 129.1019400  83.2921970  25.1806150 129.8838660  93.2703030
  25.1521580 130.2881610  92.4031460  25.0171120 128.9549020  93.1074630
  21.6959080 122.5399370  81.1720150  21.5756680 123.2661460  80.5601420
  21.3859970 121.7702280  80.6948060  37.1320970 130.6665760  94.5667200
  37.6080690 131.1448650  95.2456280  37.7528130 130.5983250  93.8412700
  19.3344450 125.7114510  86.9788790  19.4124870 125.8463280  86.0344510
  19.9486130 125.0030400  87.1716910  20.5792080 127.4114700  83.3894970
  20.1720160 127.5529290  82.5348570  21.4705090 127.1274860  83.1866180
  36.5354220 127.8578610  91.7267210  36.6617280 127.6190490  90.8084390
  36.5775600 127.0263150  92.1989290  30.3970960 131.5606610  90.2962020
  30.9115630 131.4714620  91.0984450  29.5540040 131.9066310  90.5889930
  32.3725360 131.8461950  79.7246020  32.2126500 131.5564890  80.6227850
  32.2072070 131.0702080  79.1891250  24.8513740 131.6260480  81.5017640
  24.6756220 130.7096020  81.2885440  23.9969480 131.9847770  81.7415440
  32.0751490 129.3549510  78.2844020  31.3816650 129.3526800  77.6246300
  32.8174350 128.9308830  77.8538190  31.6401420 130.9812220  82.3592510
  32.0958370 130.2001600  82.6731130  31.9793940 131.6919040  82.9033690
  36.3878230 119.9111070  92.6916950  35.7722500 120.4190740  92.1632410
  36.0674650 119.0109400  92.6342890  19.3903970 126.7528680  89.5183250
  19.5535010 126.2834040  88.7002620  19.8556420 126.2452240  90.1832090
  24.1622740 115.8834440  84.5543820  23.7190890 116.6643980  84.2228340
  24.7207730 116.2064330  85.2614760  28.4492550 118.7502960  90.1579140
  27.9871920 118.9585980  90.9699080  28.0470660 117.9362310  89.8549810
  33.4497060 119.9711910  91.2875800  32.5990650 119.6717660  91.6084870
  33.2898850 120.2153920  90.3759620  30.5446770 121.4713660  93.3874590
  30.8700180 120.6377410  93.0476820  31.3327100 121.9942180  93.5352920
  27.2781560 115.5045140  79.4349650  26.6535740 115.5005010  80.1602960
  27.1911680 114.6376100  79.0385620  26.1998640 116.4281770  86.4133420
  26.4970970 117.3344600  86.3325440  26.7484200 115.9400550  85.7992990
  23.9536960 121.0068010  82.2825070  23.7277880 120.7905180  83.1871690
  23.1729490 121.4396470  81.9371040  31.1834720 121.0131380  80.8815720
  30.5843610 121.7367180  80.6979340  31.7314330 120.9508160  80.0992170
  26.3936170 121.9053590  92.9485340  26.2979770 120.9648320  92.7985740
  27.2368150 122.1268660  92.5533410  29.7899590 119.6494920  82.9119000
  30.1829160 119.9667120  82.0987690  30.1516440 118.7706800  83.0263520
  21.5246710 118.3167260  91.1019120  21.1310100 119.1642470  91.3091900
  20.8365110 117.6793630  91.2927760  28.0991760 118.4002230  94.1715860
  27.4090080 118.2074430  94.8061950  28.8424060 118.6836870  94.7040160
  18.8263760 116.2395720  85.1349200  18.5376810 116.8098580  85.8474180
  19.5709520 115.7600170  85.4980430  19.0133990 120.1815840  76.3451920
  18.9308660 121.1246600  76.4866910  18.6617050 120.0390750  75.4664270
  30.3754730 122.2400670  87.0069780  29.6435850 122.7487480  87.3559880
  29.9779070 121.4230650  86.7058560  26.8132120 118.9154870  85.4122270
  26.8168180 118.4744820  84.5626810  27.7083240 119.2372200  85.5194090
  22.6634500 118.7981360  84.3716480  22.3234550 119.2756590  85.1283530
  21.9011820 118.3446480  84.0117580  26.8752270 119.9166950  78.4029030
  26.9965090 119.8753430  79.3514850  26.4900780 120.7791100  78.2475760
  30.8380640 117.6934350  86.4192720  30.8553380 118.1443000  87.2634570
  30.5896220 116.7939990  86.6326160  25.8873770 122.2268090  77.8012330
  25.3190670 121.7786340  77.1748240  26.5962770 122.5860870  77.2677480
  34.2651390 115.1066530  92.2579100  34.5897160 114.3756190  92.7837080
  34.3007900 114.7880170  91.3560090  20.9642950 126.1280110  91.6779060
  20.5797740 125.4873780  92.2762020  21.2755140 126.8316230  92.2473790
  27.1140090 122.9756650  87.1587680  27.4810220 122.5015220  87.9049020
  26.9245150 123.8498220  87.4996020  19.9780580 117.7200340  83.2881150
  19.6927500 117.3556010  84.1259770  19.9159440 116.9880800  82.6744290
  24.9039460 122.0165290  89.4771890  24.5996530 122.8957270  89.7022250
  25.8585920 122.0765080  89.5129330  23.4321250 126.2226280  80.0738740
  22.6583510 125.6823900  79.9137460  24.1615880 125.7032890  79.7356500
  34.1909230 125.2191640  85.8665130  34.9108350 125.7146930  85.4761240
  33.9891050 124.5409530  85.2219000  29.6519170 116.6129600  80.0094520
  28.8383780 116.1142770  79.9339830  29.4581120 117.4527850  79.5930870
  29.5728030 125.2900700  91.7534130  29.5065340 124.3696370  91.4991720
  28.9433170 125.3876140  92.4678770  23.4758650 125.8906660  83.7117550
  23.9937320 125.0874920  83.6574440  23.0242670 125.8285800  84.5534380
  28.3628150 127.1572940  78.9844850  28.7043850 127.9015170  78.4888170
  27.5340860 127.4704060  79.3469680  20.9603190 122.8568030  90.6243250
  20.6018130 123.5221880  91.2116590  20.6657750 122.0251580  90.9955870
  24.1616310 123.3152270  93.5082800  23.8616450 123.4609450  92.6110620
  24.9327550 122.7557560  93.4156190  29.5044760 128.1121270  91.5037930
  29.5189300 127.1802230  91.2856840  28.7969860 128.1981030  92.1427700
  35.7155970 124.7528610  90.8506510  34.9904160 125.3457390  90.6535900
  36.2431430 124.7452150  90.0519880  35.6669080 129.1503350  80.5018670
  35.0245240 128.4958970  80.7762390  35.2799740 129.5558440  79.7259340
  31.2455560 126.4788780  84.3490360  31.5979380 125.8816910  83.6891730
  30.3617890 126.1533010  84.5198610  27.3318840 127.2386470  81.7560770
  28.0189970 127.7855680  82.1368360  26.5451260 127.7827200  81.7910380
  19.4711240 122.8559290  77.2477850  20.3406090 123.1384090  77.5313770
  18.9801560 123.6695160  77.1326660  26.6346050 124.2432500  81.3686130
  27.0908830 125.0537750  81.5946320  26.2834260 123.9255640  82.2004620
  28.9378660 129.7538840  88.5978430  29.5820880 129.9598220  89.2751850
  29.3008100 128.9927240  88.1449280  22.5357830 114.5870150  81.8408650
  22.4072460 114.5788050  82.7893570  21.7119850 114.9253240  81.4899660
  30.2110740 127.7571190  87.3155880  30.8532970 127.0564350  87.4288050
  30.7360090 128.5369630  87.1352770  34.0566460 128.0419810  77.0395020
  33.8304040 127.3250250  77.6319660  33.6662660 127.7932250  76.2016770
  31.9848360 128.5566090  90.5191940  32.3204600 129.1432780  91.1969860
  31.0648700 128.4258800  90.7489730  19.8382490 132.0686670  77.8139480
  20.1980130 132.6676010  77.1596750  19.6974830 132.6146560  78.5874510
  19.5351760 116.3461270  91.3015350  18.8210280 116.5458190  91.9067960
  19.9546800 115.5700840  91.6730150  33.6382710 125.9591750  78.7009180
  33.3504410 126.4204440  79.4887060  34.4334880 125.4989520  78.9693400
  19.8224350 130.3341530  92.2881880  19.9315470 129.3936270  92.1477270
  19.1704910 130.5996280  91.6395610  27.8136940 128.6057420  93.6880000
  27.4933810 127.8866660  94.2325690  27.1395300 129.2812490  93.7616060
  25.8551110 129.4517870  78.6313150  25.8461210 130.1847560  78.0157660
  24.9349470 129.2049450  78.7240110  21.4557750 124.6732760  79.3759910
  20.8485700 125.4131660  79.3855210  21.9307100 124.7632120  78.5498110
  31.0290540 118.8383580  89.0516800  31.3971360 118.0178790  89.3796370
  30.1688740 118.8985470  89.4672450  28.8410710 129.5146110  77.2938340
  28.9422690 129.3110100  76.3640320  27.9412450 129.2604390  77.4986120
  26.3636600 120.0726470  81.2762240  25.6552750 120.5412810  81.7175850
  26.6481080 119.4148480  81.9107430  27.9892530 121.4923170  89.2754770
  28.4877780 121.9668990  89.9406620  28.1315480 120.5686690  89.4824800
  30.3952030 116.7977130  82.7158030  30.2719810 116.8163260  81.7667540
  31.3436590 116.8456070  82.8356430  27.4828820 132.0332430  81.9886010
  27.7370320 131.9953820  81.0665380  26.5341300 131.9065760  81.9814260
  24.5671620 118.3811550  78.6512950  25.4162150 118.8181700  78.5853140
  24.2002890 118.6931810  79.4785010  35.1959390 117.7091130  90.1183160
  34.6932990 118.4496530  90.4576970  36.0116050 118.0975130  89.8019950
  33.4881400 122.9524310  83.5644520  32.5471540 122.9674540  83.7392210
  33.8025470 122.1660270  84.0104820  23.4663040 124.6343910  77.1248480
  24.2326310 124.5225270  77.6873910  23.5437730 123.9381880  76.4725250
  22.1609800 122.0668980  77.8081370  22.2413390 121.1196490  77.9198770
  23.0529550 122.3975860  77.9142030  35.4906980 130.1233160  85.2398780
  35.6154400 130.9464330  85.7122590  36.3572540 129.9123890  84.8922930
  22.9624510 132.2164370  84.9115910  23.6986990 131.6679830  85.1824480
  23.3465430 133.0820380  84.7721900  19.8469990 128.2837940  80.7857420
  18.9209770 128.5259080  80.7762830  20.3126420 129.1112200  80.6642170
  21.9682790 131.4010440  94.1001490  22.7695520 131.7222490  94.5136890
  21.4534610 131.0406020  94.8221400  26.0726820 131.3894680  76.7341480
  26.8655430 131.6783510  76.2823270  25.5531170 130.9586850  76.0553960
  30.8047420 127.5090310  94.0476900  30.1985580 127.5321910  93.3072650
  30.5001530 126.7773350  94.5844150  32.2347790 131.2370600  92.6586310
  33.1869540 131.1528620  92.6086550  32.0876010 131.9012310  93.3320100
  35.1256990 130.6164810  78.1578220  34.8398500 130.2029950  77.3432400
  34.9276540 131.5452520  78.0378740  19.6880600 123.8883900  93.0437540
  20.1919620 123.3091180  93.6153770  18.9488020 124.1724130  93.5813910
  26.5904220 126.6098090  76.5983830  26.4854860 125.9950440  77.3245210
  26.4228440 126.0863980  75.8146840  26.7418540 125.2954890  92.5773060
  25.9764210 125.8639890  92.4927730  26.9234500 125.0031100  91.6841290
  29.8306950 125.6718120  77.2025820  29.2817050 126.1187420  77.8468560
  30.4526210 125.1667370  77.7263490  33.8841890 127.0260220  93.1348080
  34.6251360 127.3635980  92.6315540  33.1214570 127.1952280  92.5817850
  21.7203680 122.0313490  93.9387610  21.7609020 121.7327360  94.8472840
  22.5749180 122.4321100  93.7795130  25.4982070 124.6309040  79.0991120
  25.9198490 124.4648910  79.9422510  25.6232910 123.8209270  78.6046260
  23.6609490 120.6105590  91.9062100  23.1305950 120.1196540  91.2785440
  24.3297560 121.0389790  91.3720030  28.0109710 123.6546650  76.3468220
  28.5315370 122.9395670  75.9809370  28.6578110 124.2932520  76.6468730
  32.5587550 125.0775050  91.6703290  32.9728570 125.2320130  92.5193710
  31.6238550 125.2030270  91.8329070  33.0309720 122.4171210  93.6742440
  33.6130490 121.6623530  93.5862920  33.2071490 122.9478650  92.8973920
  24.1481790 117.5767960  91.9859390  24.0538660 116.9588710  91.2610260
  23.5679180 118.3034250  91.7589300  26.9143230 116.1341200  89.0186780
  26.4660530 116.1565460  88.1732330  26.2808430 115.7360220  89.6157080
  27.3202780 125.0295530  89.6399220  27.7390890 125.8728260  89.4675460
  26.4011410 125.1667570  89.4106000  29.6566680 122.7611710  91.0237060
  29.7762890 122.1652850  91.7631900  30.5160680 122.7981400  90.6038360
  31.9954580 123.3148900  89.5999570  31.4689800 123.8391520  88.9964710
  32.3385920 123.9476290  90.2309300  24.3940970 120.7042270  76.0449280
  24.1930030 119.8409630  76.4062620  24.2233020 120.6175630  75.1070880
  25.1710200 131.3348540  90.7556950  24.6331290 132.0594600  90.4365650
  25.4244160 130.8578880  89.9654290  26.4235450 119.3033060  92.2812880
  27.0135140 118.9948910  92.9690700  25.6055690 118.8312810  92.4372780
  31.2428880 118.9198870  92.5145900  30.5544400 118.2580410  92.4495890
  31.9634900 118.4737140  92.9594360  31.8729280 115.5150500  78.5736160
  32.1531570 114.6718400  78.9295580  31.0995010 115.7473610  79.0874910
  23.1923770 117.8042890  76.0327160  23.4949670 117.8110320  75.1246310
  23.9318360 117.4540750  76.5294820  28.0272410 132.5699750  91.0143600
  27.9531110 133.4734890  91.3215970  27.1251250 132.2511650  90.9865670
  26.4108700 116.7477510  77.0183360  26.0630700 116.0701500  76.4385810
  26.6121470 116.2867020  77.8326750  28.5757740 131.7358260  78.6369960
  29.4708530 132.0743230  78.6588720  28.6075370 131.0137670  78.0094240
  22.2153900 127.1085310  76.8656960  22.6528770 127.6514980  77.5214540
  22.7001630 126.2832260  76.8753300  19.4299700 129.8974340  84.3177220
  19.7602710 129.0295400  84.0855860  19.8590700 130.1032860  85.1482180
  24.0261620 128.2283350  81.9779190  23.7257160 128.1048320  82.8783100
  23.9199110 127.3691940  81.5694920  19.9189910 130.7644930  87.0558850
  19.4820900 130.9445730  87.8883000  20.4867590 131.5219550  86.9140570
  35.5552090 130.2661930  91.3436160  34.9554080 130.3254490  90.6000080
  35.6845990 129.3266910  91.4733010  36.7953540 128.0079750  76.6805870
  35.9646500 128.0756400  77.1513100  36.9725370 128.8983870  76.3772730
  36.2510000 124.7527230  79.1840070  37.0128910 125.3223880  79.2899760
  36.2664370 124.1854430  79.9548380  19.7514340 123.2765160  83.4147730
  19.0963180 123.0076800  82.7707430  20.5892290 123.1669640  82.9649710
  37.2569970 125.6077330  84.0282000  37.6278800 124.8244650  83.6217970
  37.8971900 126.2966430  83.8499300  34.2403730 126.9913910  89.4412320
  33.4263570 127.4211070  89.7038110  34.6477930 127.6032320  88.8281370
  36.3029170 125.0461600  76.3412590  36.5778010 125.9540480  76.2131810
  36.1139910 124.9824130  77.2774580  32.7004780 118.0706450  77.6366220
  33.1189660 117.8837430  76.7962880  32.3940840 117.2185500  77.9469150
  20.7890270 123.6617730  87.9551070  21.1563310 123.5745130  88.8347090
  20.2201090 122.8984280  87.8557930  35.5894130 122.1302110  90.9681540
  35.3580220 121.9014860  90.0679490  35.8498680 123.0501660  90.9226430
  20.3406270 120.5726820  91.8609490  19.4462320 120.5393580  92.2003200
  20.8803820 120.7713610  92.6260740  34.0282200 117.3558540  93.7461240
  34.9052380 117.3641940  94.1295240  34.0403040 116.6189380  93.1353590
  18.9652420 120.4864090  79.3573060  18.0616500 120.7494290  79.1824720
  19.4493040 120.7575260  78.5773020  35.4745470 121.2088080  84.6349260
  35.9982950 120.7150730  84.0039430  36.0604890 121.3438440  85.3796830
  35.6535190 121.2927950  88.1568810  34.7037900 121.2591490  88.2713800
  35.8348200 122.2028060  87.9218580  21.5079630 119.5429630  77.2667440
  22.2171330 119.1212850  76.7814720  20.7919570 119.6104860  76.6350790
  21.1553790 115.5968960  76.3070090  21.8781920 116.1377900  76.6251310
  21.4278310 115.3232380  75.4311630  20.8445980 114.8475150  86.2092710
  21.4922170 114.2972530  85.7687870  21.2647820 115.1018300  87.0308520
  34.7398320 115.0416510  89.5662350  35.3770540 115.6550650  89.9321540
  34.8873210 115.0777170  88.6211580  37.2822870 116.9330300  76.3485490
  38.2072180 116.8011480  76.1403780  37.2598660 117.0123120  77.3021940
  34.2979780 131.7432510  82.9680590  34.8938850 131.4217080  82.2915010
  34.5557930 131.2704330  83.7593860  20.5977980 115.0030820  88.9518030
  20.2492800 115.4594640  89.7176210  20.2665680 114.1087950  89.0340460
  22.2042350 128.1750420  93.1171220  22.1611980 127.8043330  93.9985680
  22.3353360 129.1127990  93.2573040  25.9048380 129.7310010  88.7180940
  25.6639740 129.9984570  87.8311460  26.8451020 129.9015740  88.7731800
  28.1102800 116.1942700  92.4737450  28.0491690 116.7864530  93.2232860
  29.0503180 116.0868660  92.3287710  37.1652540 131.7504390  89.5191580
  36.6710820 132.1473260  88.8018710  36.5565830 131.1253600  89.9128860
  21.2698620 114.5307020  92.2268800  21.8181610 114.3495070  91.4634910
  21.3353930 113.7401130  92.7625110  22.0430380 131.1212670  90.2369000
  21.4490700 130.9897370  90.9759040  22.0354220 130.2850810  89.7711100
  31.4885400 114.4144900  88.4399030  30.6145240 114.7480010  88.2371960
  31.3796150 113.9418080  89.2650900  32.3957380 116.6215770  89.8240750
  32.0670740 115.8067530  89.4442480  33.3439680 116.5785580  89.7006440
  34.8491990 132.3927810  86.7978320  34.3894960 133.1443620  86.4236340
  34.2204450 131.6734280  86.7393120  21.6742610 128.4871050  89.1877040
  20.9476670 127.8676340  89.1202990  21.7351760 128.8811660  88.3175120
  25.2787710 130.7016050  85.9726450  25.7952730 130.0903410  85.4474710
  25.9285090 131.2044830  86.4637460  28.0183210 131.5924540  86.7995430
  28.3061020 131.3378840  85.9228440  28.5306430 131.0401900  87.3901000
  29.2360220 115.3314740  87.3791940  28.4532010 115.8060240  87.6588700
  28.9423150 114.4269570  87.2705120  33.7881290 116.0337840  85.4241030
  34.2289380 115.9782940  84.5762630  33.5188880 116.9495850  85.4951210
  19.9572610 131.8045440  82.3973800  19.7894650 131.1716120  83.0955690
  19.0907120 132.0104840  82.0467990  20.5800630 115.6362220  79.9005660
  21.3379990 115.7491100  79.3269690  20.1177800 116.4731420  79.8549090
  27.1214440 117.7501490  82.8907970  26.3088950 117.3758380  82.5503850
  27.6256080 116.9946570  83.1929160  31.6239420 114.4143940  84.1291040
  32.2268790 114.9864150  84.6039560  30.8832410 114.9783380  83.9064940
  21.5635310 130.4978670  79.8423940  21.0382930 130.8786700  79.1385900
  21.4879890 131.1229440  80.5633650  22.9525780 116.1626270  78.4407630
  23.4818540 115.3756070  78.3115580  23.5854100 116.8417460  78.6743160
  25.1463620 115.9001410  81.4953020  24.5166360 115.1988720  81.6623150
  24.6068760 116.6605540  81.2786180  28.0855570 132.5140640  94.1663630
  29.0122880 132.2784910  94.2099590  28.0706000 133.3412640  93.6849660
  36.3200630 132.0566210  81.1637880  36.4952820 131.3703950  80.5198800
  35.6222200 132.5813260  80.7714550  25.2719180 115.1785390  93.9305510
  24.9903450 115.6818990  93.1666330  25.6538880 114.3807140  93.5647640
  24.1628280 132.4461050  78.7173190  24.8947100 132.1620330  78.1697080
  24.4221950 132.2074330  79.6072570  23.3243070 128.5625780  78.7219520
  22.6951950 129.0310880  79.2705350  23.4390900 127.7175000  79.1565710
  34.6533130 131.7410500  93.9904670  35.4458450 131.2459730  93.7830630
  34.9466280 132.4200640  94.5980280  28.9110830 124.3910460  66.7529990
  28.1352930 123.9110900  67.0428560  29.5623760 123.7116110  66.5786150
  22.9276660 124.7030270  67.6305750  22.0961540 124.4478980  68.0302260
  23.5357640 124.7741040  68.3663670  32.9318260 128.7970650  65.5329120
  32.4699790 128.0257890  65.8616290  33.7443810 128.8236720  66.0381570
  22.9077920 128.7370360  67.8263770  23.2105960 127.8468100  67.6473990
  23.6521510 129.2940580  67.5986020  21.3368610 119.6632160  61.4148140
  20.4485310 120.0048130  61.3128020  21.6209800 119.4632480  60.5228970
  19.3001620 122.2637810  67.2987840  19.8717730 121.4960010  67.2991480
  19.3003160 122.5626570  66.3894450  29.1581570 131.0828660  65.1533110
  28.5393010 131.5386160  64.5827550  30.0133350 131.2380120  64.7522810
  28.3519820 127.0667650  66.7600150  28.2828100 126.1257590  66.5989280
  29.1139680 127.1569060  67.3322720  20.5426490 117.6722170  69.0856770
  20.3629330 116.7747920  69.3659530  20.1406570 118.2194040  69.7603720
  23.5130000 118.2463660  62.4486520  23.6196750 119.1467390  62.7555280
  22.6022360 118.1981630  62.1581170  21.1613160 120.1682670  67.6939110
  21.8423270 120.4321040  68.3126510  20.8461210 119.3283540  68.0277120
  25.3537730 121.2150030  66.7811700  25.8615950 121.7131000  67.4216720
  25.8850970 120.4385230  66.6051060  23.6373830 115.8548590  71.0475120
  23.6392270 116.3720980  70.2421020  22.8078140 115.3778770  71.0245050
  30.0244920 125.9667900  62.5465020  29.4062190 126.4317350  61.9827740
  30.5368170 126.6595380  62.9634530  24.8876680 125.4943770  69.2248620
  24.5546060 126.1212690  69.8669690  25.0643360 126.0205650  68.4450290
  23.3189160 117.5658550  69.0545570  23.6605970 118.4100600  68.7599440
  22.3804970 117.7142290  69.1710910  24.0995780 127.4624570  71.0397800
  24.7169780 128.1375650  70.7582250  23.2388900 127.8712550  70.9485300
  19.3928120 126.6524430  59.9204650  19.0156100 127.1411530  59.1889550
  19.6501190 127.3249710  60.5511180  35.0173370 128.9263980  68.9552440
  34.3336890 129.5963090  68.9469110  35.5567660 129.1244630  68.1897300
  27.0017050 115.0540820  65.3790160  27.3092030 114.4987710  64.6625660
  26.0717750 115.1885280  65.1963150  32.5532110 130.7708110  67.6697620
  32.5659270 130.3670400  66.8019880  32.0007330 131.5455400  67.5659050
  33.8477530 127.4924330  62.7587790  33.7373860 126.5498660  62.8837210
  33.8445780 127.8539970  63.6450550  31.9517550 125.6737950  68.9980230
  32.3686340 125.4598060  68.1633690  32.6757370 125.9310740  69.5688850
  29.3897810 123.1189650  62.1150280  28.4627090 123.0527030  62.3438750
  29.5422630 124.0569780  62.0005520  29.3766890 119.3906650  59.1117440
  28.4370560 119.5520610  59.1969900  29.6950150 120.1092330  58.5653430
  35.8979650 124.0725170  69.0896470  35.0698280 124.1418260  68.6146600
  36.4930130 124.6579480  68.6212300  33.4195100 124.6809950  62.6185530
  32.8007520 124.3429500  61.9711830  33.4019550 124.0369710  63.3264720
  32.8621660 120.8594490  70.0351340  32.4492840 121.6848200  70.2891330
  32.1297610 120.2739530  69.8427700  24.9954450 123.6454390  64.8970010
  24.5911450 122.9331640  64.4015910  25.0817570 123.3007630  65.7858050
  25.4636150 127.3321950  67.0609220  25.1664440 126.7267420  66.3817000
  26.4135970 127.3699260  66.9498580  23.7083070 120.4197600  68.6769050
  24.2597660 120.5292940  67.9022300  24.2226580 120.7935200  69.3924280
  33.5521760 130.9053820  70.7232320  33.0752320 131.7126010  70.5304930
  32.8683550 130.2532150  70.8758530  24.5554580 127.0703640  73.7117020
  23.6583110 127.2943610  73.9590420  24.5807450 127.1938580  72.7628420
  31.5959800 123.9196760  59.6258280  32.0353080 123.0819190  59.4796100
  32.3088220 124.5526160  59.7122420  23.3825800 123.9416960  72.2874390
  23.2433570 124.8139760  72.6561790  22.5007160 123.5989770  72.1422330
  29.7055180 128.8592830  63.5939520  30.1451090 129.6017160  63.1794910
  29.6442070 129.1019400  64.5178480  25.1806150 129.8838660  74.4959540
  25.1521580 130.2881610  73.6287970  25.0171120 128.9549020  74.3331140
  35.1776940 115.1739570  57.9399320  34.8649600 115.2666400  58.8398390
  35.9389410 115.7520600  57.8896750  21.6959080 122.5399370  62.3976660
  21.5756680 123.2661460  61.7857930  21.3859970 121.7702280  61.9204570
  37.1320970 130.6665760  75.7923710  37.6080690 131.1448650  76.4712790
  37.7528130 130.5983250  75.0669210  19.3344450 125.7114510  68.2045300
  19.4124870 125.8463280  67.2601020  19.9486130 125.0030400  68.3973420
  20.5792080 127.4114700  64.6151480  20.1720160 127.5529290  63.7605080
  21.4705090 127.1274860  64.4122690  36.5354220 127.8578610  72.9523720
  36.6617280 127.6190490  72.0340900  36.5775600 127.0263150  73.4245800
  30.3970960 131.5606610  71.5218530  30.9115630 131.4714620  72.3240960
  29.5540040 131.9066310  71.8146440  32.3725360 131.8461950  60.9502530
  32.2126500 131.5564890  61.8484360  32.2072070 131.0702080  60.4147760
  24.8513740 131.6260480  62.7274150  24.6756220 130.7096020  62.5141950
  23.9969480 131.9847770  62.9671950  32.0751490 129.3549510  59.5100530
  31.3816650 129.3526800  58.8502810  32.8174350 128.9308830  59.0794700
  31.6401420 130.9812220  63.5849020  32.0958370 130.2001600  63.8987640
  31.9793940 131.6919040  64.1290200  19.3903970 126.7528680  70.7439760
  19.5535010 126.2834040  69.9259130  19.8556420 126.2452240  71.4088600
  24.1622740 115.8834440  65.7800330  23.7190890 116.6643980  65.4484850
  24.7207730 116.2064330  66.4871270  28.4492550 118.7502960  71.3835650
  27.9871920 118.9585980  72.1955590  28.0470660 117.9362310  71.0806320
  33.4497060 119.9711910  72.5132310  32.5990650 119.6717660  72.8341380
  33.2898850 120.2153920  71.6016130  30.5446770 121.4713660  74.6131100
  30.8700180 120.6377410  74.2733330  31.3327100 121.9942180  74.7609430
  27.2781560 115.5045140  60.6606160  26.6535740 115.5005010  61.3859470
  27.1911680 114.6376100  60.2642130  26.1998640 116.4281770  67.6389930
  26.4970970 117.3344600  67.5581950  26.7484200 115.9400550  67.0249500
  23.9536960 121.0068010  63.5081580  23.7277880 120.7905180  64.4128200
  23.1729490 121.4396470  63.1627550  26.3936170 121.9053590  74.1741850
  26.2979770 120.9648320  74.0242250  27.2368150 122.1268660  73.7789920
  21.5246710 118.3167260  72.3275630  21.1310100 119.1642470  72.5348410
  20.8365110 117.6793630  72.5184270  28.0991760 118.4002230  75.3972370
  27.4090080 118.2074430  76.0318460  28.8424060 118.6836870  75.9296670
  18.8263760 116.2395720  66.3605710  18.5376810 116.8098580  67.0730690
  19.5709520 115.7600170  66.7236940  19.0133990 120.1815840  57.5708430
  18.9308660 121.1246600  57.7123420  18.6617050 120.0390750  56.6920780
  30.3754730 122.2400670  68.2326290  29.6435850 122.7487480  68.5816390
  29.9779070 121.4230650  67.9315070  26.8132120 118.9154870  66.6378780
  26.8168180 118.4744820  65.7883320  27.7083240 119.2372200  66.7450600
  22.6634500 118.7981360  65.5972990  22.3234550 119.2756590  66.3540040
  21.9011820 118.3446480  65.2374090  26.8752270 119.9166950  59.6285540
  26.9965090 119.8753430  60.5771360  26.4900780 120.7791100  59.4732270
  30.8380640 117.6934350  67.6449230  30.8553380 118.1443000  68.4891080
  30.5896220 116.7939990  67.8582670  25.8873770 122.2268090  59.0268840
  25.3190670 121.7786340  58.4004750  26.5962770 122.5860870  58.4933990
  20.9642950 126.1280110  72.9035570  20.5797740 125.4873780  73.5018530
  21.2755140 126.8316230  73.4730300  27.1140090 122.9756650  68.3844190
  27.4810220 122.5015220  69.1305530  26.9245150 123.8498220  68.7252530
  19.9780580 117.7200340  64.5137660  19.6927500 117.3556010  65.3516280
  19.9159440 116.9880800  63.9000800  24.9039460 122.0165290  70.7028400
  24.5996530 122.8957270  70.9278760  25.8585920 122.0765080  70.7385840
  23.4321250 126.2226280  61.2995250  22.6583510 125.6823900  61.1393970
  24.1615880 125.7032890  60.9613010  34.1909230 125.2191640  67.0921640
  34.9108350 125.7146930  66.7017750  33.9891050 124.5409530  66.4475510
  29.5728030 125.2900700  72.9790640  29.5065340 124.3696370  72.7248230
  28.9433170 125.3876140  73.6935280  32.3667560 120.9849250  59.5313190
  33.2547180 121.2966480  59.3564530  32.3372650 120.1121500  59.1393770
  23.4758650 125.8906660  64.9374060  23.9937320 125.0874920  64.8830950
  23.0242670 125.8285800  65.7790890  28.3628150 127.1572940  60.2101360
  28.7043850 127.9015170  59.7144680  27.5340860 127.4704060  60.5726190
  20.9603190 122.8568030  71.8499760  20.6018130 123.5221880  72.4373100
  20.6657750 122.0251580  72.2212380  24.1616310 123.3152270  74.7339310
  23.8616450 123.4609450  73.8367130  24.9327550 122.7557560  74.6412700
  29.5044760 128.1121270  72.7294440  29.5189300 127.1802230  72.5113350
  28.7969860 128.1981030  73.3684210  34.6381830 122.2961090  58.9993050
  34.5545550 122.7275310  58.1489490  35.3576020 122.7559440  59.4319870
  35.7155970 124.7528610  72.0763020  34.9904160 125.3457390  71.8792410
  36.2431430 124.7452150  71.2776390  35.6669080 129.1503350  61.7275180
  35.0245240 128.4958970  62.0018900  35.2799740 129.5558440  60.9515850
  31.2455560 126.4788780  65.5746870  31.5979380 125.8816910  64.9148240
  30.3617890 126.1533010  65.7455120  27.3318840 127.2386470  62.9817280
  28.0189970 127.7855680  63.3624870  26.5451260 127.7827200  63.0166890
  19.4711240 122.8559290  58.4734360  20.3406090 123.1384090  58.7570280
  18.9801560 123.6695160  58.3583170  26.6346050 124.2432500  62.5942640
  27.0908830 125.0537750  62.8202830  26.2834260 123.9255640  63.4261130
  28.9378660 129.7538840  69.8234940  29.5820880 129.9598220  70.5008360
  29.3008100 128.9927240  69.3705790  22.5357830 114.5870150  63.0665160
  22.4072460 114.5788050  64.0150080  21.7119850 114.9253240  62.7156170
  30.2110740 127.7571190  68.5412390  30.8532970 127.0564350  68.6544560
  30.7360090 128.5369630  68.3609280  34.0566460 128.0419810  58.2651530
  33.8304040 127.3250250  58.8576170  33.6662660 127.7932250  57.4273280
  31.9848360 128.5566090  71.7448450  32.3204600 129.1432780  72.4226370
  31.0648700 128.4258800  71.9746240  19.8382490 132.0686670  59.0395990
  20.1980130 132.6676010  58.3853260  19.6974830 132.6146560  59.8131020
  19.5351760 116.3461270  72.5271860  18.8210280 116.5458190  73.1324470
  19.9546800 115.5700840  72.8986660  33.6382710 125.9591750  59.9265690
  33.3504410 126.4204440  60.7143570  34.4334880 125.4989520  60.1949910
  19.8224350 130.3341530  73.5138390  19.9315470 129.3936270  73.3733780
  19.1704910 130.5996280  72.8652120  27.8136940 128.6057420  74.9136510
  27.4933810 127.8866660  75.4582200  27.1395300 129.2812490  74.9872570
  25.8551110 129.4517870  59.8569660  25.8461210 130.1847560  59.2414170
  24.9349470 129.2049450  59.9496620  21.4557750 124.6732760  60.6016420
  20.8485700 125.4131660  60.6111720  21.9307100 124.7632120  59.7754620
  31.0290540 118.8383580  70.2773310  31.3971360 118.0178790  70.6052880
  30.1688740 118.8985470  70.6928960  28.8410710 129.5146110  58.5194850
  28.9422690 129.3110100  57.5896830  27.9412450 129.2604390  58.7242630
  26.3636600 120.0726470  62.5018750  25.6552750 120.5412810  62.9432360
  26.6481080 119.4148480  63.1363940  27.9892530 121.4923170  70.5011280
  28.4877780 121.9668990  71.1663130  28.1315480 120.5686690  70.7081310
  27.4828820 132.0332430  63.2142520  27.7370320 131.9953820  62.2921890
  26.5341300 131.9065760  63.2070770  24.5671620 118.3811550  59.8769460
  25.4162150 118.8181700  59.8109650  24.2002890 118.6931810  60.7041520
  23.4663040 124.6343910  58.3504990  24.2326310 124.5225270  58.9130420
  23.5437730 123.9381880  57.6981760  22.1609800 122.0668980  59.0337880
  22.2413390 121.1196490  59.1455280  23.0529550 122.3975860  59.1398540
  35.4906980 130.1233160  66.4655290  35.6154400 130.9464330  66.9379100
  36.3572540 129.9123890  66.1179440  22.9624510 132.2164370  66.1372420
  23.6986990 131.6679830  66.4080990  23.3465430 133.0820380  65.9978410
  19.8469990 128.2837940  62.0113930  18.9209770 128.5259080  62.0019340
  20.3126420 129.1112200  61.8898680  21.9682790 131.4010440  75.3258000
  22.7695520 131.7222490  75.7393400  21.4534610 131.0406020  76.0477910
  26.0726820 131.3894680  57.9597990  26.8655430 131.6783510  57.5079780
  25.5531170 130.9586850  57.2810470  30.8047420 127.5090310  75.2733410
  30.1985580 127.5321910  74.5329160  30.5001530 126.7773350  75.8100660
  32.2347790 131.2370600  73.8842820  33.1869540 131.1528620  73.8343060
  32.0876010 131.9012310  74.5576610  35.1256990 130.6164810  59.3834730
  34.8398500 130.2029950  58.5688910  34.9276540 131.5452520  59.2635250
  19.6880600 123.8883900  74.2694050  20.1919620 123.3091180  74.8410280
  18.9488020 124.1724130  74.8070420  26.5904220 126.6098090  57.8240340
  26.4854860 125.9950440  58.5501720  26.4228440 126.0863980  57.0403350
  26.7418540 125.2954890  73.8029570  25.9764210 125.8639890  73.7184240
  26.9234500 125.0031100  72.9097800  29.8306950 125.6718120  58.4282330
  29.2817050 126.1187420  59.0725070  30.4526210 125.1667370  58.9520000
  33.8841890 127.0260220  74.3604590  34.6251360 127.3635980  73.8572050
  33.1214570 127.1952280  73.8074360  21.7203680 122.0313490  75.1644120
  21.7609020 121.7327360  76.0729350  22.5749180 122.4321100  75.0051640
  25.4982070 124.6309040  60.3247630  25.9198490 124.4648910  61.1679020
  25.6232910 123.8209270  59.8302770  23.6609490 120.6105590  73.1318610
  23.1305950 120.1196540  72.5041950  24.3297560 121.0389790  72.5976540
  28.0109710 123.6546650  57.5724730  28.5315370 122.9395670  57.2065880
  28.6578110 124.2932520  57.8725240  32.5587550 125.0775050  72.8959800
  32.9728570 125.2320130  73.7450220  31.6238550 125.2030270  73.0585580
  33.0309720 122.4171210  74.8998950  33.6130490 121.6623530  74.8119430
  33.2071490 122.9478650  74.1230430  24.1481790 117.5767960  73.2115900
  24.0538660 116.9588710  72.4866770  23.5679180 118.3034250  72.9845810
  26.9143230 116.1341200  70.2443290  26.4660530 116.1565460  69.3988840
  26.2808430 115.7360220  70.8413590  27.3202780 125.0295530  70.8655730
  27.7390890 125.8728260  70.6931970  26.4011410 125.1667570  70.6362510
  29.6566680 122.7611710  72.2493570  29.7762890 122.1652850  72.9888410
  30.5160680 122.7981400  71.8294870  31.9954580 123.3148900  70.8256080
  31.4689800 123.8391520  70.2221220  32.3385920 123.9476290  71.4565810
  24.3940970 120.7042270  57.2705790  24.1930030 119.8409630  57.6319130
  24.2233020 120.6175630  56.3327390  25.1710200 131.3348540  71.9813460
  24.6331290 132.0594600  71.6622160  25.4244160 130.8578880  71.1910800
  26.4235450 119.3033060  73.5069390  27.0135140 118.9948910  74.1947210
  25.6055690 118.8312810  73.6629290  31.2428880 118.9198870  73.7402410
  30.5544400 118.2580410  73.6752400  31.9634900 118.4737140  74.1850870
  31.8729280 115.5150500  59.7992670  32.1531570 114.6718400  60.1552090
  31.0995010 115.7473610  60.3131420  23.1923770 117.8042890  57.2583670
  23.4949670 117.8110320  56.3502820  23.9318360 117.4540750  57.7551330
  28.0272410 132.5699750  72.2400110  27.9531110 133.4734890  72.5472480
  27.1251250 132.2511650  72.2122180  26.4108700 116.7477510  58.2439870
  26.0630700 116.0701500  57.6642320  26.6121470 116.2867020  59.0583260
  28.5757740 131.7358260  59.8626470  29.4708530 132.0743230  59.8845230
  28.6075370 131.0137670  59.2350750  22.2153900 127.1085310  58.0913470
  22.6528770 127.6514980  58.7471050  22.7001630 126.2832260  58.1009810
  19.4299700 129.8974340  65.5433730  19.7602710 129.0295400  65.3112370
  19.8590700 130.1032860  66.3738690  24.0261620 128.2283350  63.2035700
  23.7257160 128.1048320  64.1039610  23.9199110 127.3691940  62.7951430
  19.9189910 130.7644930  68.2815360  19.4820900 130.9445730  69.1139510
  20.4867590 131.5219550  68.1397080  35.5552090 130.2661930  72.5692670
  34.9554080 130.3254490  71.8256590  35.6845990 129.3266910  72.6989520
  36.7953540 128.0079750  57.9062380  35.9646500 128.0756400  58.3769610
  36.9725370 128.8983870  57.6029240  36.2510000 124.7527230  60.4096580
  37.0128910 125.3223880  60.5156270  36.2664370 124.1854430  61.1804890
  19.7514340 123.2765160  64.6404240  19.0963180 123.0076800  63.9963940
  20.5892290 123.1669640  64.1906220  37.2569970 125.6077330  65.2538510
  37.6278800 124.8244650  64.8474480  37.8971900 126.2966430  65.0755810
  34.2403730 126.9913910  70.6668830  33.4263570 127.4211070  70.9294620
  34.6477930 127.6032320  70.0537880  36.3029170 125.0461600  57.5669100
  36.5778010 125.9540480  57.4388320  36.1139910 124.9824130  58.5031090
  32.7004780 118.0706450  58.8622730  33.1189660 117.8837430  58.0219390
  32.3940840 117.2185500  59.1725660  36.1994510 122.9830590  62.5598530
  35.8238110 122.2158520  62.1279820  35.4697630 123.3653290  63.0473460
  20.7890270 123.6617730  69.1807580  21.1563310 123.5745130  70.0603600
  20.2201090 122.8984280  69.0814440  20.3406270 120.5726820  73.0866000
  19.4462320 120.5393580  73.4259710  20.8803820 120.7713610  73.8517250
  18.9652420 120.4864090  60.5829570  18.0616500 120.7494290  60.4081230
  19.4493040 120.7575260  59.8029530  21.5079630 119.5429630  58.4923950
  22.2171330 119.1212850  58.0071230  20.7919570 119.6104860  57.8607300
  21.1553790 115.5968960  57.5326600  21.8781920 116.1377900  57.8507820
  21.4278310 115.3232380  56.6568140  34.9645440 120.4661430  61.7998180
  35.4604560 120.2332300  62.5847060  34.7661510 119.6273270  61.3835820
  20.8445980 114.8475150  67.4349220  21.4922170 114.2972530  66.9944380
  21.2647820 115.1018300  68.2565030  37.3561360 117.7040960  60.1998710
  36.5612860 117.6386080  60.7291620  37.5604640 118.6391600  60.1884060
  34.2979780 131.7432510  64.1937100  34.8938850 131.4217080  63.5171520
  34.5557930 131.2704330  64.9850370  20.5977980 115.0030820  70.1774540
  20.2492800 115.4594640  70.9432720  20.2665680 114.1087950  70.2596970
  22.2042350 128.1750420  74.3427730  22.1611980 127.8043330  75.2242190
  22.3353360 129.1127990  74.4829550  25.9048380 129.7310010  69.9437450
  25.6639740 129.9984570  69.0567970  26.8451020 129.9015740  69.9988310
  28.1102800 116.1942700  73.6993960  28.0491690 116.7864530  74.4489370
  29.0503180 116.0868660  73.5544220  37.1652540 131.7504390  70.7448090
  36.6710820 132.1473260  70.0275220  36.5565830 131.1253600  71.1385370
  21.2698620 114.5307020  73.4525310  21.8181610 114.3495070  72.6891420
  21.3353930 113.7401130  73.9881620  22.0430380 131.1212670  71.4625510
  21.4490700 130.9897370  72.2015550  22.0354220 130.2850810  70.9967610
  31.4885400 114.4144900  69.6655540  30.6145240 114.7480010  69.4628470
  31.3796150 113.9418080  70.4907410  34.8491990 132.3927810  68.0234830
  34.3894960 133.1443620  67.6492850  34.2204450 131.6734280  67.9649630
  21.6742610 128.4871050  70.4133550  20.9476670 127.8676340  70.3459500
  21.7351760 128.8811660  69.5431630  25.2787710 130.7016050  67.1982960
  25.7952730 130.0903410  66.6731220  25.9285090 131.2044830  67.6893970
  28.0183210 131.5924540  68.0251940  28.3061020 131.3378840  67.1484950
  28.5306430 131.0401900  68.6157510  29.2360220 115.3314740  68.6048450
  28.4532010 115.8060240  68.8845210  28.9423150 114.4269570  68.4961630
  33.7881290 116.0337840  66.6497540  34.2289380 115.9782940  65.8019140
  33.5188880 116.9495850  66.7207720  35.6519860 115.6653080  64.6606360
  35.5908260 114.7214300  64.5137380  36.4311890 115.7733170  65.2059820
  19.9572610 131.8045440  63.6230310  19.7894650 131.1716120  64.3212200
  19.0907120 132.0104840  63.2724500  20.5800630 115.6362220  61.1262170
  21.3379990 115.7491100  60.5526200  20.1177800 116.4731420  61.0805600
  34.7674020 114.8165500  60.6287830  34.9624650 115.7148950  60.8955260
  33.9803890 114.5852580  61.1220780  21.5635310 130.4978670  61.0680450
  21.0382930 130.8786700  60.3642410  21.4879890 131.1229440  61.7890160
  22.9525780 116.1626270  59.6664140  23.4818540 115.3756070  59.5372090
  23.5854100 116.8417460  59.8999670  25.1463620 115.9001410  62.7209530
  24.5166360 115.1988720  62.8879660  24.6068760 116.6605540  62.5042690
  28.0855570 132.5140640  75.3920140  29.0122880 132.2784910  75.4356100
  28.0706000 133.3412640  74.9106170  36.3200630 132.0566210  62.3894390
  36.4952820 131.3703950  61.7455310  35.6222200 132.5813260  61.9971060
  25.2719180 115.1785390  75.1562020  24.9903450 115.6818990  74.3922840
  25.6538880 114.3807140  74.7904150  24.1628280 132.4461050  59.9429700
  24.8947100 132.1620330  59.3953590  24.4221950 132.2074330  60.8329080
  23.3243070 128.5625780  59.9476030  22.6951950 129.0310880  60.4961860
  23.4390900 127.7175000  60.3822220  34.6533130 131.7410500  75.2161180
  35.4458450 131.2459730  75.0087140  34.9466280 132.4200640  75.8236790
  30.7792790 122.6131440  46.0977230  30.6986840 121.6986050  45.8268940
  30.3657210 123.1098510  45.3916940  28.9110830 124.3910460  47.9786500
  28.1352930 123.9110900  48.2685070  29.5623760 123.7116110  47.8042660
  22.9276660 124.7030270  48.8562260  22.0961540 124.4478980  49.2558770
  23.5357640 124.7741040  49.5920180  32.9318260 128.7970650  46.7585630
  32.4699790 128.0257890  47.0872800  33.7443810 128.8236720  47.2638080
  22.9077920 128.7370360  49.0520280  23.2105960 127.8468100  48.8730500
  23.6521510 129.2940580  48.8242530  21.3368610 119.6632160  42.6404650
  20.4485310 120.0048130  42.5384530  21.6209800 119.4632480  41.7485480
  19.3001620 122.2637810  48.5244350  19.8717730 121.4960010  48.5247990
  19.3003160 122.5626570  47.6150960  29.1581570 131.0828660  46.3789620
  28.5393010 131.5386160  45.8084060  30.0133350 131.2380120  45.9779320
  28.3519820 127.0667650  47.9856660  28.2828100 126.1257590  47.8245790
  29.1139680 127.1569060  48.5579230  20.5426490 117.6722170  50.3113280
  20.3629330 116.7747920  50.5916040  20.1406570 118.2194040  50.9860230
  29.3824990 119.8738030  48.2125590  29.7589810 119.0009910  48.0999260
  29.2844500 120.2096730  47.3216030  23.5130000 118.2463660  43.6743030
  23.6196750 119.1467390  43.9811790  22.6022360 118.1981630  43.3837680
  33.1649110 117.3688470  45.1453930  33.9858730 116.8785040  45.1879410
  33.1983190 117.9586130  45.8985770  21.1613160 120.1682670  48.9195620
  21.8423270 120.4321040  49.5383020  20.8461210 119.3283540  49.2533630
  25.3537730 121.2150030  48.0068210  25.8615950 121.7131000  48.6473230
  25.8850970 120.4385230  47.8307570  23.6373830 115.8548590  52.2731630
  23.6392270 116.3720980  51.4677530  22.8078140 115.3778770  52.2501560
  30.0244920 125.9667900  43.7721530  29.4062190 126.4317350  43.2084250
  30.5368170 126.6595380  44.1891040  24.8876680 125.4943770  50.4505130
  24.5546060 126.1212690  51.0926200  25.0643360 126.0205650  49.6706800
  33.4010590 119.3088850  47.9181470  32.6966160 119.5973740  48.4984580
  33.7622750 120.1188960  47.5581030  23.3189160 117.5658550  50.2802080
  23.6605970 118.4100600  49.9855950  22.3804970 117.7142290  50.3967420
  24.0995780 127.4624570  52.2654310  24.7169780 128.1375650  51.9838760
  23.2388900 127.8712550  52.1741810  19.3928120 126.6524430  41.1461160
  19.0156100 127.1411530  40.4146060  19.6501190 127.3249710  41.7767690
  35.0173370 128.9263980  50.1808950  34.3336890 129.5963090  50.1725620
  35.5567660 129.1244630  49.4153810  36.4697510 118.7543640  48.3090680
  35.5222420 118.7882620  48.4406110  36.7947500 119.5682590  48.6940040
  27.0017050 115.0540820  46.6046670  27.3092030 114.4987710  45.8882170
  26.0717750 115.1885280  46.4219660  32.5532110 130.7708110  48.8954130
  32.5659270 130.3670400  48.0276390  32.0007330 131.5455400  48.7915560
  33.8477530 127.4924330  43.9844300  33.7373860 126.5498660  44.1093720
  33.8445780 127.8539970  44.8707060  31.9517550 125.6737950  50.2236740
  32.3686340 125.4598060  49.3890200  32.6757370 125.9310740  50.7945360
  29.3897810 123.1189650  43.3406790  28.4627090 123.0527030  43.5695260
  29.5422630 124.0569780  43.2262030  29.3766890 119.3906650  40.3373950
  28.4370560 119.5520610  40.4226410  29.6950150 120.1092330  39.7909940
  35.8979650 124.0725170  50.3152980  35.0698280 124.1418260  49.8403110
  36.4930130 124.6579480  49.8468810  33.4195100 124.6809950  43.8442040
  32.8007520 124.3429500  43.1968340  33.4019550 124.0369710  44.5521230
  24.9954450 123.6454390  46.1226520  24.5911450 122.9331640  45.6272420
  25.0817570 123.3007630  47.0114560  25.4636150 127.3321950  48.2865730
  25.1664440 126.7267420  47.6073510  26.4135970 127.3699260  48.1755090
  23.7083070 120.4197600  49.9025560  24.2597660 120.5292940  49.1278810
  24.2226580 120.7935200  50.6180790  33.5521760 130.9053820  51.9488830
  33.0752320 131.7126010  51.7561440  32.8683550 130.2532150  52.1015040
  24.5554580 127.0703640  54.9373530  23.6583110 127.2943610  55.1846930
  24.5807450 127.1938580  53.9884930  31.5959800 123.9196760  40.8514790
  32.0353080 123.0819190  40.7052610  32.3088220 124.5526160  40.9378930
  23.3825800 123.9416960  53.5130900  23.2433570 124.8139760  53.8818300
  22.5007160 123.5989770  53.3678840  29.7055180 128.8592830  44.8196030
  30.1451090 129.6017160  44.4051420  29.6442070 129.1019400  45.7434990
  25.1806150 129.8838660  55.7216050  25.1521580 130.2881610  54.8544480
  25.0171120 128.9549020  55.5587650  35.1776940 115.1739570  39.1655830
  34.8649600 115.2666400  40.0654900  35.9389410 115.7520600  39.1153260
  21.6959080 122.5399370  43.6233170  21.5756680 123.2661460  43.0114440
  21.3859970 121.7702280  43.1461080  37.1320970 130.6665760  57.0180220
  37.6080690 131.1448650  57.6969300  37.7528130 130.5983250  56.2925720
  19.3344450 125.7114510  49.4301810  19.4124870 125.8463280  48.4857530
  19.9486130 125.0030400  49.6229930  20.5792080 127.4114700  45.8407990
  20.1720160 127.5529290  44.9861590  21.4705090 127.1274860  45.6379200
  36.5354220 127.8578610  54.1780230  36.6617280 127.6190490  53.2597410
  36.5775600 127.0263150  54.6502310  30.3970960 131.5606610  52.7475040
  30.9115630 131.4714620  53.5497470  29.5540040 131.9066310  53.0402950
  32.3725360 131.8461950  42.1759040  32.2126500 131.5564890  43.0740870
  32.2072070 131.0702080  41.6404270  24.8513740 131.6260480  43.9530660
  24.6756220 130.7096020  43.7398460  23.9969480 131.9847770  44.1928460
  32.0751490 129.3549510  40.7357040  31.3816650 129.3526800  40.0759320
  32.8174350 128.9308830  40.3051210  31.6401420 130.9812220  44.8105530
  32.0958370 130.2001600  45.1244150  31.9793940 131.6919040  45.3546710
  19.3903970 126.7528680  51.9696270  19.5535010 126.2834040  51.1515640
  19.8556420 126.2452240  52.6345110  24.1622740 115.8834440  47.0056840
  23.7190890 116.6643980  46.6741360  24.7207730 116.2064330  47.7127780
  28.4492550 118.7502960  52.6092160  27.9871920 118.9585980  53.4212100
  28.0470660 117.9362310  52.3062830  27.2781560 115.5045140  41.8862670
  26.6535740 115.5005010  42.6115980  27.1911680 114.6376100  41.4898640
  26.1998640 116.4281770  48.8646440  26.4970970 117.3344600  48.7838460
  26.7484200 115.9400550  48.2506010  23.9536960 121.0068010  44.7338090
  23.7277880 120.7905180  45.6384710  23.1729490 121.4396470  44.3884060
  31.1834720 121.0131380  43.3328740  30.5843610 121.7367180  43.1492360
  31.7314330 120.9508160  42.5505190  26.3936170 121.9053590  55.3998360
  26.2979770 120.9648320  55.2498760  27.2368150 122.1268660  55.0046430
  29.7899590 119.6494920  45.3632020  30.1829160 119.9667120  44.5500710
  30.1516440 118.7706800  45.4776540  21.5246710 118.3167260  53.5532140
  21.1310100 119.1642470  53.7604920  20.8365110 117.6793630  53.7440780
  28.0991760 118.4002230  56.6228880  27.4090080 118.2074430  57.2574970
  28.8424060 118.6836870  57.1553180  18.8263760 116.2395720  47.5862220
  18.5376810 116.8098580  48.2987200  19.5709520 115.7600170  47.9493450
  19.0133990 120.1815840  38.7964940  18.9308660 121.1246600  38.9379930
  18.6617050 120.0390750  37.9177290  30.3754730 122.2400670  49.4582800
  29.6435850 122.7487480  49.8072900  29.9779070 121.4230650  49.1571580
  26.8132120 118.9154870  47.8635290  26.8168180 118.4744820  47.0139830
  27.7083240 119.2372200  47.9707110  22.6634500 118.7981360  46.8229500
  22.3234550 119.2756590  47.5796550  21.9011820 118.3446480  46.4630600
  26.8752270 119.9166950  40.8542050  26.9965090 119.8753430  41.8027870
  26.4900780 120.7791100  40.6988780  30.8380640 117.6934350  48.8705740
  30.8553380 118.1443000  49.7147590  30.5896220 116.7939990  49.0839180
  25.8873770 122.2268090  40.2525350  25.3190670 121.7786340  39.6261260
  26.5962770 122.5860870  39.7190500  20.9642950 126.1280110  54.1292080
  20.5797740 125.4873780  54.7275040  21.2755140 126.8316230  54.6986810
  27.1140090 122.9756650  49.6100700  27.4810220 122.5015220  50.3562040
  26.9245150 123.8498220  49.9509040  19.9780580 117.7200340  45.7394170
  19.6927500 117.3556010  46.5772790  19.9159440 116.9880800  45.1257310
  24.9039460 122.0165290  51.9284910  24.5996530 122.8957270  52.1535270
  25.8585920 122.0765080  51.9642350  23.4321250 126.2226280  42.5251760
  22.6583510 125.6823900  42.3650480  24.1615880 125.7032890  42.1869520
  34.1909230 125.2191640  48.3178150  34.9108350 125.7146930  47.9274260
  33.9891050 124.5409530  47.6732020  29.6519170 116.6129600  42.4607540
  28.8383780 116.1142770  42.3852850  29.4581120 117.4527850  42.0443890
  29.5728030 125.2900700  54.2047150  29.5065340 124.3696370  53.9504740
  28.9433170 125.3876140  54.9191790  32.3667560 120.9849250  40.7569700
  33.2547180 121.2966480  40.5821040  32.3372650 120.1121500  40.3650280
  23.4758650 125.8906660  46.1630570  23.9937320 125.0874920  46.1087460
  23.0242670 125.8285800  47.0047400  28.3628150 127.1572940  41.4357870
  28.7043850 127.9015170  40.9401190  27.5340860 127.4704060  41.7982700
  20.9603190 122.8568030  53.0756270  20.6018130 123.5221880  53.6629610
  20.6657750 122.0251580  53.4468890  24.1616310 123.3152270  55.9595820
  23.8616450 123.4609450  55.0623640  24.9327550 122.7557560  55.8669210
  29.5044760 128.1121270  53.9550950  29.5189300 127.1802230  53.7369860
  28.7969860 128.1981030  54.5940720  34.6381830 122.2961090  40.2249560
  34.5545550 122.7275310  39.3746000  35.3576020 122.7559440  40.6576380
  35.7155970 124.7528610  53.3019530  34.9904160 125.3457390  53.1048920
  36.2431430 124.7452150  52.5032900  35.6669080 129.1503350  42.9531690
  35.0245240 128.4958970  43.2275410  35.2799740 129.5558440  42.1772360
  31.2455560 126.4788780  46.8003380  31.5979380 125.8816910  46.1404750
  30.3617890 126.1533010  46.9711630  27.3318840 127.2386470  44.2073790
  28.0189970 127.7855680  44.5881380  26.5451260 127.7827200  44.2423400
  19.4711240 122.8559290  39.6990870  20.3406090 123.1384090  39.9826790
  18.9801560 123.6695160  39.5839680  26.6346050 124.2432500  43.8199150
  27.0908830 125.0537750  44.0459340  26.2834260 123.9255640  44.6517640
  28.9378660 129.7538840  51.0491450  29.5820880 129.9598220  51.7264870
  29.3008100 128.9927240  50.5962300  22.5357830 114.5870150  44.2921670
  22.4072460 114.5788050  45.2406590  21.7119850 114.9253240  43.9412680
  30.2110740 127.7571190  49.7668900  30.8532970 127.0564350  49.8801070
  30.7360090 128.5369630  49.5865790  34.0566460 128.0419810  39.4908040
  33.8304040 127.3250250  40.0832680  33.6662660 127.7932250  38.6529790
  31.9848360 128.5566090  52.9704960  32.3204600 129.1432780  53.6482880
  31.0648700 128.4258800  53.2002750  19.8382490 132.0686670  40.2652500
  20.1980130 132.6676010  39.6109770  19.6974830 132.6146560  41.0387530
  19.5351760 116.3461270  53.7528370  18.8210280 116.5458190  54.3580980
  19.9546800 115.5700840  54.1243170  33.6382710 125.9591750  41.1522200
  33.3504410 126.4204440  41.9400080  34.4334880 125.4989520  41.4206420
  19.8224350 130.3341530  54.7394900  19.9315470 129.3936270  54.5990290
  19.1704910 130.5996280  54.0908630  27.8136940 128.6057420  56.1393020
  27.4933810 127.8866660  56.6838710  27.1395300 129.2812490  56.2129080
  25.8551110 129.4517870  41.0826170  25.8461210 130.1847560  40.4670680
  24.9349470 129.2049450  41.1753130  21.4557750 124.6732760  41.8272930
  20.8485700 125.4131660  41.8368230  21.9307100 124.7632120  41.0011130
  34.3952570 117.7940520  42.3117380  33.7665730 117.8986190  41.5975610
  33.9004490 118.0137300  43.1011260  28.8410710 129.5146110  39.7451360
  28.9422690 129.3110100  38.8153340  27.9412450 129.2604390  39.9499140
  26.3636600 120.0726470  43.7275260  25.6552750 120.5412810  44.1688870
  26.6481080 119.4148480  44.3620450  27.9892530 121.4923170  51.7267790
  28.4877780 121.9668990  52.3919640  28.1315480 120.5686690  51.9337820
  30.3952030 116.7977130  45.1671050  30.2719810 116.8163260  44.2180560
  31.3436590 116.8456070  45.2869450  27.4828820 132.0332430  44.4399030
  27.7370320 131.9953820  43.5178400  26.5341300 131.9065760  44.4327280
  24.5671620 118.3811550  41.1025970  25.4162150 118.8181700  41.0366160
  24.2002890 118.6931810  41.9298030  33.4881400 122.9524310  46.0157540
  32.5471540 122.9674540  46.1905230  33.8025470 122.1660270  46.4617840
  23.4663040 124.6343910  39.5761500  24.2326310 124.5225270  40.1386930
  23.5437730 123.9381880  38.9238270  22.1609800 122.0668980  40.2594390
  22.2413390 121.1196490  40.3711790  23.0529550 122.3975860  40.3655050
  35.4906980 130.1233160  47.6911800  35.6154400 130.9464330  48.1635610
  36.3572540 129.9123890  47.3435950  22.9624510 132.2164370  47.3628930
  23.6986990 131.6679830  47.6337500  23.3465430 133.0820380  47.2234920
  19.8469990 128.2837940  43.2370440  18.9209770 128.5259080  43.2275850
  20.3126420 129.1112200  43.1155190  21.9682790 131.4010440  56.5514510
  22.7695520 131.7222490  56.9649910  21.4534610 131.0406020  57.2734420
  26.0726820 131.3894680  39.1854500  26.8655430 131.6783510  38.7336290
  25.5531170 130.9586850  38.5066980  30.8047420 127.5090310  56.4989920
  30.1985580 127.5321910  55.7585670  30.5001530 126.7773350  57.0357170
  32.2347790 131.2370600  55.1099330  33.1869540 131.1528620  55.0599570
  32.0876010 131.9012310  55.7833120  35.1256990 130.6164810  40.6091240
  34.8398500 130.2029950  39.7945420  34.9276540 131.5452520  40.4891760
  19.6880600 123.8883900  55.4950560  20.1919620 123.3091180  56.0666790
  18.9488020 124.1724130  56.0326930  26.5904220 126.6098090  39.0496850
  26.4854860 125.9950440  39.7758230  26.4228440 126.0863980  38.2659860
  26.7418540 125.2954890  55.0286080  25.9764210 125.8639890  54.9440750
  26.9234500 125.0031100  54.1354310  29.8306950 125.6718120  39.6538840
  29.2817050 126.1187420  40.2981580  30.4526210 125.1667370  40.1776510
  33.8841890 127.0260220  55.5861100  34.6251360 127.3635980  55.0828560
  33.1214570 127.1952280  55.0330870  21.7203680 122.0313490  56.3900630
  21.7609020 121.7327360  57.2985860  22.5749180 122.4321100  56.2308150
  25.4982070 124.6309040  41.5504140  25.9198490 124.4648910  42.3935530
  25.6232910 123.8209270  41.0559280  23.6609490 120.6105590  54.3575120
  23.1305950 120.1196540  53.7298460  24.3297560 121.0389790  53.8233050
  28.0109710 123.6546650  38.7981240  28.5315370 122.9395670  38.4322390
  28.6578110 124.2932520  39.0981750  32.5587550 125.0775050  54.1216310
  32.9728570 125.2320130  54.9706730  31.6238550 125.2030270  54.2842090
  33.0309720 122.4171210  56.1255460  33.6130490 121.6623530  56.0375940
  33.2071490 122.9478650  55.3486940  24.1481790 117.5767960  54.4372410
  24.0538660 116.9588710  53.7123280  23.5679180 118.3034250  54.2102320
  26.9143230 116.1341200  51.4699800  26.4660530 116.1565460  50.6245350
  26.2808430 115.7360220  52.0670100  27.3202780 125.0295530  52.0912240
  27.7390890 125.8728260  51.9188480  26.4011410 125.1667570  51.8619020
  29.6566680 122.7611710  53.4750080  29.7762890 122.1652850  54.2144920
  30.5160680 122.7981400  53.0551380  31.9954580 123.3148900  52.0512590
  31.4689800 123.8391520  51.4477730  32.3385920 123.9476290  52.6822320
  24.3940970 120.7042270  38.4962300  24.1930030 119.8409630  38.8575640
  24.2233020 120.6175630  37.5583900  25.1710200 131.3348540  53.2069970
  24.6331290 132.0594600  52.8878670  25.4244160 130.8578880  52.4167310
  26.4235450 119.3033060  54.7325900  27.0135140 118.9948910  55.4203720
  25.6055690 118.8312810  54.8885800  31.8729280 115.5150500  41.0249180
  32.1531570 114.6718400  41.3808600  31.0995010 115.7473610  41.5387930
  23.1923770 117.8042890  38.4840180  23.4949670 117.8110320  37.5759330
  23.9318360 117.4540750  38.9807840  28.0272410 132.5699750  53.4656620
  27.9531110 133.4734890  53.7728990  27.1251250 132.2511650  53.4378690
  26.4108700 116.7477510  39.4696380  26.0630700 116.0701500  38.8898830
  26.6121470 116.2867020  40.2839770  28.5757740 131.7358260  41.0882980
  29.4708530 132.0743230  41.1101740  28.6075370 131.0137670  40.4607260
  22.2153900 127.1085310  39.3169980  22.6528770 127.6514980  39.9727560
  22.7001630 126.2832260  39.3266320  19.4299700 129.8974340  46.7690240
  19.7602710 129.0295400  46.5368880  19.8590700 130.1032860  47.5995200
  24.0261620 128.2283350  44.4292210  23.7257160 128.1048320  45.3296120
  23.9199110 127.3691940  44.0207940  19.9189910 130.7644930  49.5071870
  19.4820900 130.9445730  50.3396020  20.4867590 131.5219550  49.3653590
  35.5552090 130.2661930  53.7949180  34.9554080 130.3254490  53.0513100
  35.6845990 129.3266910  53.9246030  36.7953540 128.0079750  39.1318890
  35.9646500 128.0756400  39.6026120  36.9725370 128.8983870  38.8285750
  36.2510000 124.7527230  41.6353090  37.0128910 125.3223880  41.7412780
  36.2664370 124.1854430  42.4061400  19.7514340 123.2765160  45.8660750
  19.0963180 123.0076800  45.2220450  20.5892290 123.1669640  45.4162730
  37.2569970 125.6077330  46.4795020  37.6278800 124.8244650  46.0730990
  37.8971900 126.2966430  46.3012320  34.2403730 126.9913910  51.8925340
  33.4263570 127.4211070  52.1551130  34.6477930 127.6032320  51.2794390
  36.3029170 125.0461600  38.7925610  36.5778010 125.9540480  38.6644830
  36.1139910 124.9824130  39.7287600  32.7004780 118.0706450  40.0879240
  33.1189660 117.8837430  39.2475900  32.3940840 117.2185500  40.3982170
  36.1994510 122.9830590  43.7855040  35.8238110 122.2158520  43.3536330
  35.4697630 123.3653290  44.2729970  20.7890270 123.6617730  50.4064090
  21.1563310 123.5745130  51.2860110  20.2201090 122.8984280  50.3070950
  20.3406270 120.5726820  54.3122510  19.4462320 120.5393580  54.6516220
  20.8803820 120.7713610  55.0773760  18.9652420 120.4864090  41.8086080
  18.0616500 120.7494290  41.6337740  19.4493040 120.7575260  41.0286040
  35.4745470 121.2088080  47.0862280  35.9982950 120.7150730  46.4552450
  36.0604890 121.3438440  47.8309850  21.5079630 119.5429630  39.7180460
  22.2171330 119.1212850  39.2327740  20.7919570 119.6104860  39.0863810
  21.1553790 115.5968960  38.7583110  21.8781920 116.1377900  39.0764330
  21.4278310 115.3232380  37.8824650  34.9645440 120.4661430  43.0254690
  35.4604560 120.2332300  43.8103570  34.7661510 119.6273270  42.6092330
  20.8445980 114.8475150  48.6605730  21.4922170 114.2972530  48.2200890
  21.2647820 115.1018300  49.4821540  36.3932600 119.1022380  45.5592370
  36.2831880 118.9478420  46.4974640  37.1540190 118.5743320  45.3167780
  37.2822870 116.9330300  38.7998510  38.2072180 116.8011480  38.5916800
  37.2598660 117.0123120  39.7534960  37.3561360 117.7040960  41.4255220
  36.5612860 117.6386080  41.9548130  37.5604640 118.6391600  41.4140570
  34.2979780 131.7432510  45.4193610  34.8938850 131.4217080  44.7428030
  34.5557930 131.2704330  46.2106880  20.5977980 115.0030820  51.4031050
  20.2492800 115.4594640  52.1689230  20.2665680 114.1087950  51.4853480
  22.2042350 128.1750420  55.5684240  22.1611980 127.8043330  56.4498700
  22.3353360 129.1127990  55.7086060  25.9048380 129.7310010  51.1693960
  25.6639740 129.9984570  50.2824480  26.8451020 129.9015740  51.2244820
  37.1652540 131.7504390  51.9704600  36.6710820 132.1473260  51.2531730
  36.5565830 131.1253600  52.3641880  21.2698620 114.5307020  54.6781820
  21.8181610 114.3495070  53.9147930  21.3353930 113.7401130  55.2138130
  22.0430380 131.1212670  52.6882020  21.4490700 130.9897370  53.4272060
  22.0354220 130.2850810  52.2224120  34.8491990 132.3927810  49.2491340
  34.3894960 133.1443620  48.8749360  34.2204450 131.6734280  49.1906140
  21.6742610 128.4871050  51.6390060  20.9476670 127.8676340  51.5716010
  21.7351760 128.8811660  50.7688140  25.2787710 130.7016050  48.4239470
  25.7952730 130.0903410  47.8987730  25.9285090 131.2044830  48.9150480
  28.0183210 131.5924540  49.2508450  28.3061020 131.3378840  48.3741460
  28.5306430 131.0401900  49.8414020  29.2360220 115.3314740  49.8304960
  28.4532010 115.8060240  50.1101720  28.9423150 114.4269570  49.7218140
  33.7881290 116.0337840  47.8754050  34.2289380 115.9782940  47.0275650
  33.5188880 116.9495850  47.9464230  35.6519860 115.6653080  45.8862870
  35.5908260 114.7214300  45.7393890  36.4311890 115.7733170  46.4316330
  19.9572610 131.8045440  44.8486820  19.7894650 131.1716120  45.5468710
  19.0907120 132.0104840  44.4981010  20.5800630 115.6362220  42.3518680
  21.3379990 115.7491100  41.7782710  20.1177800 116.4731420  42.3062110
  27.1214440 117.7501490  45.3420990  26.3088950 117.3758380  45.0016870
  27.6256080 116.9946570  45.6442180  31.6239420 114.4143940  46.5804060
  32.2268790 114.9864150  47.0552580  30.8832410 114.9783380  46.3577960
  34.7674020 114.8165500  41.8544340  34.9624650 115.7148950  42.1211770
  33.9803890 114.5852580  42.3477290  21.5635310 130.4978670  42.2936960
  21.0382930 130.8786700  41.5898920  21.4879890 131.1229440  43.0146670
  22.9525780 116.1626270  40.8920650  23.4818540 115.3756070  40.7628600
  23.5854100 116.8417460  41.1256180  25.1463620 115.9001410  43.9466040
  24.5166360 115.1988720  44.1136170  24.6068760 116.6605540  43.7299200
  28.0855570 132.5140640  56.6176650  29.0122880 132.2784910  56.6612610
  28.0706000 133.3412640  56.1362680  36.3200630 132.0566210  43.6150900
  36.4952820 131.3703950  42.9711820  35.6222200 132.5813260  43.2227570
  25.2719180 115.1785390  56.3818530  24.9903450 115.6818990  55.6179350
  25.6538880 114.3807140  56.0160660  24.1628280 132.4461050  41.1686210
  24.8947100 132.1620330  40.6210100  24.4221950 132.2074330  42.0585590
  23.3243070 128.5625780  41.1732540  22.6951950 129.0310880  41.7218370
  23.4390900 127.7175000  41.6078730  34.6533130 131.7410500  56.4417690
  35.4458450 131.2459730  56.2343650  34.9466280 132.4200640  57.0493300
  30.7792790 122.6131440  27.3233740  30.6986840 121.6986050  27.0525450
  30.3657210 123.1098510  26.6173450  28.9110830 124.3910460  29.2043010
  28.1352930 123.9110900  29.4941580  29.5623760 123.7116110  29.0299170
  22.9276660 124.7030270  30.0818770  22.0961540 124.4478980  30.4815280
  23.5357640 124.7741040  30.8176690  32.9318260 128.7970650  27.9842140
  32.4699790 128.0257890  28.3129310  33.7443810 128.8236720  28.4894590
  22.9077920 128.7370360  30.2776790  23.2105960 127.8468100  30.0987010
  23.6521510 129.2940580  30.0499040  21.3368610 119.6632160  23.8661160
  20.4485310 120.0048130  23.7641040  21.6209800 119.4632480  22.9741990
  19.3001620 122.2637810  29.7500860  19.8717730 121.4960010  29.7504500
  19.3003160 122.5626570  28.8407470  29.1581570 131.0828660  27.6046130
  28.5393010 131.5386160  27.0340570  30.0133350 131.2380120  27.2035830
  28.3519820 127.0667650  29.2113170  28.2828100 126.1257590  29.0502300
  29.1139680 127.1569060  29.7835740  20.5426490 117.6722170  31.5369790
  20.3629330 116.7747920  31.8172550  20.1406570 118.2194040  32.2116740
  29.3824990 119.8738030  29.4382100  29.7589810 119.0009910  29.3255770
  29.2844500 120.2096730  28.5472540  23.5130000 118.2463660  24.8999540
  23.6196750 119.1467390  25.2068300  22.6022360 118.1981630  24.6094190
  33.1649110 117.3688470  26.3710440  33.9858730 116.8785040  26.4135920
  33.1983190 117.9586130  27.1242280  21.1613160 120.1682670  30.1452130
  21.8423270 120.4321040  30.7639530  20.8461210 119.3283540  30.4790140
  25.3537730 121.2150030  29.2324720  25.8615950 121.7131000  29.8729740
  25.8850970 120.4385230  29.0564080  37.4548660 119.3855220  32.9354070
  36.7500830 119.7736930  32.4169180  37.7206580 120.0805510  33.5375000
  23.6373830 115.8548590  33.4988140  23.6392270 116.3720980  32.6934040
  22.8078140 115.3778770  33.4758070  30.0244920 125.9667900  24.9978040
  29.4062190 126.4317350  24.4340760  30.5368170 126.6595380  25.4147550
  24.8876680 125.4943770  31.6761640  24.5546060 126.1212690  32.3182710
  25.0643360 126.0205650  30.8963310  33.4010590 119.3088850  29.1437980
  32.6966160 119.5973740  29.7241090  33.7622750 120.1188960  28.7837540
  23.3189160 117.5658550  31.5058590  23.6605970 118.4100600  31.2112460
  22.3804970 117.7142290  31.6223930  24.0995780 127.4624570  33.4910820
  24.7169780 128.1375650  33.2095270  23.2388900 127.8712550  33.3998320
  19.3928120 126.6524430  22.3717670  19.0156100 127.1411530  21.6402570
  19.6501190 127.3249710  23.0024200  35.0173370 128.9263980  31.4065460
  34.3336890 129.5963090  31.3982130  35.5567660 129.1244630  30.6410320
  36.4697510 118.7543640  29.5347190  35.5222420 118.7882620  29.6662620
  36.7947500 119.5682590  29.9196550  27.0017050 115.0540820  27.8303180
  27.3092030 114.4987710  27.1138680  26.0717750 115.1885280  27.6476170
  32.5532110 130.7708110  30.1210640  32.5659270 130.3670400  29.2532900
  32.0007330 131.5455400  30.0172070  33.8477530 127.4924330  25.2100810
  33.7373860 126.5498660  25.3350230  33.8445780 127.8539970  26.0963570
  31.9517550 125.6737950  31.4493250  32.3686340 125.4598060  30.6146710
  32.6757370 125.9310740  32.0201870  29.3897810 123.1189650  24.5663300
  28.4627090 123.0527030  24.7951770  29.5422630 124.0569780  24.4518540
  29.3766890 119.3906650  21.5630460  28.4370560 119.5520610  21.6482920
  29.6950150 120.1092330  21.0166450  35.8979650 124.0725170  31.5409490
  35.0698280 124.1418260  31.0659620  36.4930130 124.6579480  31.0725320
  33.4195100 124.6809950  25.0698550  32.8007520 124.3429500  24.4224850
  33.4019550 124.0369710  25.7777740  32.8621660 120.8594490  32.4864360
  32.4492840 121.6848200  32.7404350  32.1297610 120.2739530  32.2940720
  24.9954450 123.6454390  27.3483030  24.5911450 122.9331640  26.8528930
  25.0817570 123.3007630  28.2371070  25.4636150 127.3321950  29.5122240
  25.1664440 126.7267420  28.8330020  26.4135970 127.3699260  29.4011600
  23.7083070 120.4197600  31.1282070  24.2597660 120.5292940  30.3535320
  24.2226580 120.7935200  31.8437300  33.5521760 130.9053820  33.1745340
  33.0752320 131.7126010  32.9817950  32.8683550 130.2532150  33.3271550
  24.5554580 127.0703640  36.1630040  23.6583110 127.2943610  36.4103440
  24.5807450 127.1938580  35.2141440  31.5959800 123.9196760  22.0771300
  32.0353080 123.0819190  21.9309120  32.3088220 124.5526160  22.1635440
  23.3825800 123.9416960  34.7387410  23.2433570 124.8139760  35.1074810
  22.5007160 123.5989770  34.5935350  29.7055180 128.8592830  26.0452540
  30.1451090 129.6017160  25.6307930  29.6442070 129.1019400  26.9691500
  25.1806150 129.8838660  36.9472560  25.1521580 130.2881610  36.0800990
  25.0171120 128.9549020  36.7844160  35.1776940 115.1739570  20.3912340
  34.8649600 115.2666400  21.2911410  35.9389410 115.7520600  20.3409770
  21.6959080 122.5399370  24.8489680  21.5756680 123.2661460  24.2370950
  21.3859970 121.7702280  24.3717590  37.1320970 130.6665760  38.2436730
  37.6080690 131.1448650  38.9225810  37.7528130 130.5983250  37.5182230
  19.3344450 125.7114510  30.6558320  19.4124870 125.8463280  29.7114040
  19.9486130 125.0030400  30.8486440  20.5792080 127.4114700  27.0664500
  20.1720160 127.5529290  26.2118100  21.4705090 127.1274860  26.8635710
  36.5354220 127.8578610  35.4036740  36.6617280 127.6190490  34.4853920
  36.5775600 127.0263150  35.8758820  30.3970960 131.5606610  33.9731550
  30.9115630 131.4714620  34.7753980  29.5540040 131.9066310  34.2659460
  32.3725360 131.8461950  23.4015550  32.2126500 131.5564890  24.2997380
  32.2072070 131.0702080  22.8660780  24.8513740 131.6260480  25.1787170
  24.6756220 130.7096020  24.9654970  23.9969480 131.9847770  25.4184970
  32.0751490 129.3549510  21.9613550  31.3816650 129.3526800  21.3015830
  32.8174350 128.9308830  21.5307720  31.6401420 130.9812220  26.0362040
  32.0958370 130.2001600  26.3500660  31.9793940 131.6919040  26.5803220
  36.3878230 119.9111070  36.3686480  35.7722500 120.4190740  35.8401940
  36.0674650 119.0109400  36.3112420  19.3903970 126.7528680  33.1952780
  19.5535010 126.2834040  32.3772150  19.8556420 126.2452240  33.8601620
  24.1622740 115.8834440  28.2313350  23.7190890 116.6643980  27.8997870
  24.7207730 116.2064330  28.9384290  28.4492550 118.7502960  33.8348670
  27.9871920 118.9585980  34.6468610  28.0470660 117.9362310  33.5319340
  33.4497060 119.9711910  34.9645330  32.5990650 119.6717660  35.2854400
  33.2898850 120.2153920  34.0529150  30.5446770 121.4713660  37.0644120
  30.8700180 120.6377410  36.7246350  31.3327100 121.9942180  37.2122450
  27.2781560 115.5045140  23.1119180  26.6535740 115.5005010  23.8372490
  27.1911680 114.6376100  22.7155150  26.1998640 116.4281770  30.0902950
  26.4970970 117.3344600  30.0094970  26.7484200 115.9400550  29.4762520
  23.9536960 121.0068010  25.9594600  23.7277880 120.7905180  26.8641220
  23.1729490 121.4396470  25.6140570  31.1834720 121.0131380  24.5585250
  30.5843610 121.7367180  24.3748870  31.7314330 120.9508160  23.7761700
  26.3936170 121.9053590  36.6254870  26.2979770 120.9648320  36.4755270
  27.2368150 122.1268660  36.2302940  29.7899590 119.6494920  26.5888530
  30.1829160 119.9667120  25.7757220  30.1516440 118.7706800  26.7033050
  21.5246710 118.3167260  34.7788650  21.1310100 119.1642470  34.9861430
  20.8365110 117.6793630  34.9697290  28.0991760 118.4002230  37.8485390
  27.4090080 118.2074430  38.4831480  28.8424060 118.6836870  38.3809690
  18.8263760 116.2395720  28.8118730  18.5376810 116.8098580  29.5243710
  19.5709520 115.7600170  29.1749960  19.0133990 120.1815840  20.0221450
  18.9308660 121.1246600  20.1636440  18.6617050 120.0390750  19.1433800
  30.3754730 122.2400670  30.6839310  29.6435850 122.7487480  31.0329410
  29.9779070 121.4230650  30.3828090  26.8132120 118.9154870  29.0891800
  26.8168180 118.4744820  28.2396340  27.7083240 119.2372200  29.1963620
  22.6634500 118.7981360  28.0486010  22.3234550 119.2756590  28.8053060
  21.9011820 118.3446480  27.6887110  26.8752270 119.9166950  22.0798560
  26.9965090 119.8753430  23.0284380  26.4900780 120.7791100  21.9245290
  30.8380640 117.6934350  30.0962250  30.8553380 118.1443000  30.9404100
  30.5896220 116.7939990  30.3095690  25.8873770 122.2268090  21.4781860
  25.3190670 121.7786340  20.8517770  26.5962770 122.5860870  20.9447010
  34.2651390 115.1066530  35.9348630  34.5897160 114.3756190  36.4606610
  34.3007900 114.7880170  35.0329620  20.9642950 126.1280110  35.3548590
  20.5797740 125.4873780  35.9531550  21.2755140 126.8316230  35.9243320
  27.1140090 122.9756650  30.8357210  27.4810220 122.5015220  31.5818550
  26.9245150 123.8498220  31.1765550  19.9780580 117.7200340  26.9650680
  19.6927500 117.3556010  27.8029300  19.9159440 116.9880800  26.3513820
  24.9039460 122.0165290  33.1541420  24.5996530 122.8957270  33.3791780
  25.8585920 122.0765080  33.1898860  23.4321250 126.2226280  23.7508270
  22.6583510 125.6823900  23.5906990  24.1615880 125.7032890  23.4126030
  34.1909230 125.2191640  29.5434660  34.9108350 125.7146930  29.1530770
  33.9891050 124.5409530  28.8988530  29.6519170 116.6129600  23.6864050
  28.8383780 116.1142770  23.6109360  29.4581120 117.4527850  23.2700400
  29.5728030 125.2900700  35.4303660  29.5065340 124.3696370  35.1761250
  28.9433170 125.3876140  36.1448300  32.3667560 120.9849250  21.9826210
  33.2547180 121.2966480  21.8077550  32.3372650 120.1121500  21.5906790
  23.4758650 125.8906660  27.3887080  23.9937320 125.0874920  27.3343970
  23.0242670 125.8285800  28.2303910  28.3628150 127.1572940  22.6614380
  28.7043850 127.9015170  22.1657700  27.5340860 127.4704060  23.0239210
  20.9603190 122.8568030  34.3012780  20.6018130 123.5221880  34.8886120
  20.6657750 122.0251580  34.6725400  24.1616310 123.3152270  37.1852330
  23.8616450 123.4609450  36.2880150  24.9327550 122.7557560  37.0925720
  29.5044760 128.1121270  35.1807460  29.5189300 127.1802230  34.9626370
  28.7969860 128.1981030  35.8197230  34.6381830 122.2961090  21.4506070
  34.5545550 122.7275310  20.6002510  35.3576020 122.7559440  21.8832890
  35.7155970 124.7528610  34.5276040  34.9904160 125.3457390  34.3305430
  36.2431430 124.7452150  33.7289410  35.6669080 129.1503350  24.1788200
  35.0245240 128.4958970  24.4531920  35.2799740 129.5558440  23.4028870
  31.2455560 126.4788780  28.0259890  31.5979380 125.8816910  27.3661260
  30.3617890 126.1533010  28.1968140  27.3318840 127.2386470  25.4330300
  28.0189970 127.7855680  25.8137890  26.5451260 127.7827200  25.4679910
  19.4711240 122.8559290  20.9247380  20.3406090 123.1384090  21.2083300
  18.9801560 123.6695160  20.8096190  26.6346050 124.2432500  25.0455660
  27.0908830 125.0537750  25.2715850  26.2834260 123.9255640  25.8774150
  28.9378660 129.7538840  32.2747960  29.5820880 129.9598220  32.9521380
  29.3008100 128.9927240  31.8218810  22.5357830 114.5870150  25.5178180
  22.4072460 114.5788050  26.4663100  21.7119850 114.9253240  25.1669190
  30.2110740 127.7571190  30.9925410  30.8532970 127.0564350  31.1057580
  30.7360090 128.5369630  30.8122300  34.0566460 128.0419810  20.7164550
  33.8304040 127.3250250  21.3089190  33.6662660 127.7932250  19.8786300
  31.9848360 128.5566090  34.1961470  32.3204600 129.1432780  34.8739390
  31.0648700 128.4258800  34.4259260  19.8382490 132.0686670  21.4909010
  20.1980130 132.6676010  20.8366280  19.6974830 132.6146560  22.2644040
  19.5351760 116.3461270  34.9784880  18.8210280 116.5458190  35.5837490
  19.9546800 115.5700840  35.3499680  33.6382710 125.9591750  22.3778710
  33.3504410 126.4204440  23.1656590  34.4334880 125.4989520  22.6462930
  19.8224350 130.3341530  35.9651410  19.9315470 129.3936270  35.8246800
  19.1704910 130.5996280  35.3165140  27.8136940 128.6057420  37.3649530
  27.4933810 127.8866660  37.9095220  27.1395300 129.2812490  37.4385590
  25.8551110 129.4517870  22.3082680  25.8461210 130.1847560  21.6927190
  24.9349470 129.2049450  22.4009640  21.4557750 124.6732760  23.0529440
  20.8485700 125.4131660  23.0624740  21.9307100 124.7632120  22.2267640
  31.0290540 118.8383580  32.7286330  31.3971360 118.0178790  33.0565900
  30.1688740 118.8985470  33.1441980  34.3952570 117.7940520  23.5373890
  33.7665730 117.8986190  22.8232120  33.9004490 118.0137300  24.3267770
  28.8410710 129.5146110  20.9707870  28.9422690 129.3110100  20.0409850
  27.9412450 129.2604390  21.1755650  26.3636600 120.0726470  24.9531770
  25.6552750 120.5412810  25.3945380  26.6481080 119.4148480  25.5876960
  27.9892530 121.4923170  32.9524300  28.4877780 121.9668990  33.6176150
  28.1315480 120.5686690  33.1594330  30.3952030 116.7977130  26.3927560
  30.2719810 116.8163260  25.4437070  31.3436590 116.8456070  26.5125960
  27.4828820 132.0332430  25.6655540  27.7370320 131.9953820  24.7434910
  26.5341300 131.9065760  25.6583790  24.5671620 118.3811550  22.3282480
  25.4162150 118.8181700  22.2622670  24.2002890 118.6931810  23.1554540
  35.1959390 117.7091130  33.7952690  34.6932990 118.4496530  34.1346500
  36.0116050 118.0975130  33.4789480  33.4881400 122.9524310  27.2414050
  32.5471540 122.9674540  27.4161740  33.8025470 122.1660270  27.6874350
  23.4663040 124.6343910  20.8018010  24.2326310 124.5225270  21.3643440
  23.5437730 123.9381880  20.1494780  22.1609800 122.0668980  21.4850900
  22.2413390 121.1196490  21.5968300  23.0529550 122.3975860  21.5911560
  35.4906980 130.1233160  28.9168310  35.6154400 130.9464330  29.3892120
  36.3572540 129.9123890  28.5692460  22.9624510 132.2164370  28.5885440
  23.6986990 131.6679830  28.8594010  23.3465430 133.0820380  28.4491430
  19.8469990 128.2837940  24.4626950  18.9209770 128.5259080  24.4532360
  20.3126420 129.1112200  24.3411700  21.9682790 131.4010440  37.7771020
  22.7695520 131.7222490  38.1906420  21.4534610 131.0406020  38.4990930
  26.0726820 131.3894680  20.4111010  26.8655430 131.6783510  19.9592800
  25.5531170 130.9586850  19.7323490  30.8047420 127.5090310  37.7246430
  30.1985580 127.5321910  36.9842180  30.5001530 126.7773350  38.2613680
  32.2347790 131.2370600  36.3355840  33.1869540 131.1528620  36.2856080
  32.0876010 131.9012310  37.0089630  35.1256990 130.6164810  21.8347750
  34.8398500 130.2029950  21.0201930  34.9276540 131.5452520  21.7148270
  19.6880600 123.8883900  36.7207070  20.1919620 123.3091180  37.2923300
  18.9488020 124.1724130  37.2583440  26.5904220 126.6098090  20.2753360
  26.4854860 125.9950440  21.0014740  26.4228440 126.0863980  19.4916370
  26.7418540 125.2954890  36.2542590  25.9764210 125.8639890  36.1697260
  26.9234500 125.0031100  35.3610820  29.8306950 125.6718120  20.8795350
  29.2817050 126.1187420  21.5238090  30.4526210 125.1667370  21.4033020
  33.8841890 127.0260220  36.8117610  34.6251360 127.3635980  36.3085070
  33.1214570 127.1952280  36.2587380  21.7203680 122.0313490  37.6157140
  21.7609020 121.7327360  38.5242370  22.5749180 122.4321100  37.4564660
  25.4982070 124.6309040  22.7760650  25.9198490 124.4648910  23.6192040
  25.6232910 123.8209270  22.2815790  23.6609490 120.6105590  35.5831630
  23.1305950 120.1196540  34.9554970  24.3297560 121.0389790  35.0489560
  28.0109710 123.6546650  20.0237750  28.5315370 122.9395670  19.6578900
  28.6578110 124.2932520  20.3238260  32.5587550 125.0775050  35.3472820
  32.9728570 125.2320130  36.1963240  31.6238550 125.2030270  35.5098600
  33.0309720 122.4171210  37.3511970  33.6130490 121.6623530  37.2632450
  33.2071490 122.9478650  36.5743450  24.1481790 117.5767960  35.6628920
  24.0538660 116.9588710  34.9379790  23.5679180 118.3034250  35.4358830
  26.9143230 116.1341200  32.6956310  26.4660530 116.1565460  31.8501860
  26.2808430 115.7360220  33.2926610  27.3202780 125.0295530  33.3168750
  27.7390890 125.8728260  33.1444990  26.4011410 125.1667570  33.0875530
  29.6566680 122.7611710  34.7006590  29.7762890 122.1652850  35.4401430
  30.5160680 122.7981400  34.2807890  31.9954580 123.3148900  33.2769100
  31.4689800 123.8391520  32.6734240  32.3385920 123.9476290  33.9078830
  24.3940970 120.7042270  19.7218810  24.1930030 119.8409630  20.0832150
  24.2233020 120.6175630  18.7840410  25.1710200 131.3348540  34.4326480
  24.6331290 132.0594600  34.1135180  25.4244160 130.8578880  33.6423820
  26.4235450 119.3033060  35.9582410  27.0135140 118.9948910  36.6460230
  25.6055690 118.8312810  36.1142310  31.2428880 118.9198870  36.1915430
  30.5544400 118.2580410  36.1265420  31.9634900 118.4737140  36.6363890
  31.8729280 115.5150500  22.2505690  32.1531570 114.6718400  22.6065110
  31.0995010 115.7473610  22.7644440  23.1923770 117.8042890  19.7096690
  23.4949670 117.8110320  18.8015840  23.9318360 117.4540750  20.2064350
  28.0272410 132.5699750  34.6913130  27.9531110 133.4734890  34.9985500
  27.1251250 132.2511650  34.6635200  26.4108700 116.7477510  20.6952890
  26.0630700 116.0701500  20.1155340  26.6121470 116.2867020  21.5096280
  28.5757740 131.7358260  22.3139490  29.4708530 132.0743230  22.3358250
  28.6075370 131.0137670  21.6863770  22.2153900 127.1085310  20.5426490
  22.6528770 127.6514980  21.1984070  22.7001630 126.2832260  20.5522830
  19.4299700 129.8974340  27.9946750  19.7602710 129.0295400  27.7625390
  19.8590700 130.1032860  28.8251710  24.0261620 128.2283350  25.6548720
  23.7257160 128.1048320  26.5552630  23.9199110 127.3691940  25.2464450
  19.9189910 130.7644930  30.7328380  19.4820900 130.9445730  31.5652530
  20.4867590 131.5219550  30.5910100  35.5552090 130.2661930  35.0205690
  34.9554080 130.3254490  34.2769610  35.6845990 129.3266910  35.1502540
  36.7953540 128.0079750  20.3575400  35.9646500 128.0756400  20.8282630
  36.9725370 128.8983870  20.0542260  36.2510000 124.7527230  22.8609600
  37.0128910 125.3223880  22.9669290  36.2664370 124.1854430  23.6317910
  19.7514340 123.2765160  27.0917260  19.0963180 123.0076800  26.4476960
  20.5892290 123.1669640  26.6419240  37.2569970 125.6077330  27.7051530
  37.6278800 124.8244650  27.2987500  37.8971900 126.2966430  27.5268830
  34.2403730 126.9913910  33.1181850  33.4263570 127.4211070  33.3807640
  34.6477930 127.6032320  32.5050900  36.3029170 125.0461600  20.0182120
  36.5778010 125.9540480  19.8901340  36.1139910 124.9824130  20.9544110
  32.7004780 118.0706450  21.3135750  33.1189660 117.8837430  20.4732410
  32.3940840 117.2185500  21.6238680  36.1994510 122.9830590  25.0111550
  35.8238110 122.2158520  24.5792840  35.4697630 123.3653290  25.4986480
  20.7890270 123.6617730  31.6320600  21.1563310 123.5745130  32.5116620
  20.2201090 122.8984280  31.5327460  35.5894130 122.1302110  34.6451070
  35.3580220 121.9014860  33.7449020  35.8498680 123.0501660  34.5995960
  20.3406270 120.5726820  35.5379020  19.4462320 120.5393580  35.8772730
  20.8803820 120.7713610  36.3030270  34.0282200 117.3558540  37.4230770
  34.9052380 117.3641940  37.8064770  34.0403040 116.6189380  36.8123120
  18.9652420 120.4864090  23.0342590  18.0616500 120.7494290  22.8594250
  19.4493040 120.7575260  22.2542550  35.4745470 121.2088080  28.3118790
  35.9982950 120.7150730  27.6808960  36.0604890 121.3438440  29.0566360
  35.6535190 121.2927950  31.8338340  34.7037900 121.2591490  31.9483330
  35.8348200 122.2028060  31.5988110  21.5079630 119.5429630  20.9436970
  22.2171330 119.1212850  20.4584250  20.7919570 119.6104860  20.3120320
  21.1553790 115.5968960  19.9839620  21.8781920 116.1377900  20.3020840
  21.4278310 115.3232380  19.1081160  34.9645440 120.4661430  24.2511200
  35.4604560 120.2332300  25.0360080  34.7661510 119.6273270  23.8348840
  20.8445980 114.8475150  29.8862240  21.4922170 114.2972530  29.4457400
  21.2647820 115.1018300  30.7078050  36.3932600 119.1022380  26.7848880
  36.2831880 118.9478420  27.7231150  37.1540190 118.5743320  26.5424290
  34.7398320 115.0416510  33.2431880  35.3770540 115.6550650  33.6091070
  34.8873210 115.0777170  32.2981110  37.2822870 116.9330300  20.0255020
  38.2072180 116.8011480  19.8173310  37.2598660 117.0123120  20.9791470
  37.3561360 117.7040960  22.6511730  36.5612860 117.6386080  23.1804640
  37.5604640 118.6391600  22.6397080  34.2979780 131.7432510  26.6450120
  34.8938850 131.4217080  25.9684540  34.5557930 131.2704330  27.4363390
  20.5977980 115.0030820  32.6287560  20.2492800 115.4594640  33.3945740
  20.2665680 114.1087950  32.7109990  22.2042350 128.1750420  36.7940750
  22.1611980 127.8043330  37.6755210  22.3353360 129.1127990  36.9342570
  25.9048380 129.7310010  32.3950470  25.6639740 129.9984570  31.5080990
  26.8451020 129.9015740  32.4501330  28.1102800 116.1942700  36.1506980
  28.0491690 116.7864530  36.9002390  29.0503180 116.0868660  36.0057240
  30.7477360 115.8512760  35.7899270  31.3617770 116.1692050  35.1280350
  31.2926920 115.3661350  36.4095130  37.1652540 131.7504390  33.1961110
  36.6710820 132.1473260  32.4788240  36.5565830 131.1253600  33.5898390
  21.2698620 114.5307020  35.9038330  21.8181610 114.3495070  35.1404440
  21.3353930 113.7401130  36.4394640  22.0430380 131.1212670  33.9138530
  21.4490700 130.9897370  34.6528570  22.0354220 130.2850810  33.4480630
  31.4885400 114.4144900  32.1168560  30.6145240 114.7480010  31.9141490
  31.3796150 113.9418080  32.9420430  32.3957380 116.6215770  33.5010280
  32.0670740 115.8067530  33.1212010  33.3439680 116.5785580  33.3775970
  34.8491990 132.3927810  30.4747850  34.3894960 133.1443620  30.1005870
  34.2204450 131.6734280  30.4162650  21.6742610 128.4871050  32.8646570
  20.9476670 127.8676340  32.7972520  21.7351760 128.8811660  31.9944650
  25.2787710 130.7016050  29.6495980  25.7952730 130.0903410  29.1244240
  25.9285090 131.2044830  30.1406990  28.0183210 131.5924540  30.4764960
  28.3061020 131.3378840  29.5997970  28.5306430 131.0401900  31.0670530
  29.2360220 115.3314740  31.0561470  28.4532010 115.8060240  31.3358230
  28.9423150 114.4269570  30.9474650  33.7881290 116.0337840  29.1010560
  34.2289380 115.9782940  28.2532160  33.5188880 116.9495850  29.1720740
  35.6519860 115.6653080  27.1119380  35.5908260 114.7214300  26.9650400
  36.4311890 115.7733170  27.6572840  19.9572610 131.8045440  26.0743330
  19.7894650 131.1716120  26.7725220  19.0907120 132.0104840  25.7237520
  20.5800630 115.6362220  23.5775190  21.3379990 115.7491100  23.0039220
  20.1177800 116.4731420  23.5318620  27.1214440 117.7501490  26.5677500
  26.3088950 117.3758380  26.2273380  27.6256080 116.9946570  26.8698690
  31.6239420 114.4143940  27.8060570  32.2268790 114.9864150  28.2809090
  30.8832410 114.9783380  27.5834470  34.7674020 114.8165500  23.0800850
  34.9624650 115.7148950  23.3468280  33.9803890 114.5852580  23.5733800
  21.5635310 130.4978670  23.5193470  21.0382930 130.8786700  22.8155430
  21.4879890 131.1229440  24.2403180  22.9525780 116.1626270  22.1177160
  23.4818540 115.3756070  21.9885110  23.5854100 116.8417460  22.3512690
  25.1463620 115.9001410  25.1722550  24.5166360 115.1988720  25.3392680
  24.6068760 116.6605540  24.9555710  28.0855570 132.5140640  37.8433160
  29.0122880 132.2784910  37.8869120  28.0706000 133.3412640  37.3619190
  36.3200630 132.0566210  24.8407410  36.4952820 131.3703950  24.1968330
  35.6222200 132.5813260  24.4484080  25.2719180 115.1785390  37.6075040
  24.9903450 115.6818990  36.8435860  25.6538880 114.3807140  37.2417170
  24.1628280 132.4461050  22.3942720  24.8947100 132.1620330  21.8466610
  24.4221950 132.2074330  23.2842100  23.3243070 128.5625780  22.3989050
  22.6951950 129.0310880  22.9474880  23.4390900 127.7175000  22.8335240
  31.8734640 114.5938970  38.1855510  31.7600090 114.9133580  39.0807030
  32.6904380 114.9951480  37.8892790  34.6533130 131.7410500  37.6674200
  35.4458450 131.2459730  37.4600160  34.9466280 132.4200640  38.2749810
  30.7792790 122.6131440   8.5490250  30.6986840 121.6986050   8.2781960
  30.3657210 123.1098510   7.8429960  28.9110830 124.3910460  10.4299520
  28.1352930 123.9110900  10.7198090  29.5623760 123.7116110  10.2555680
  22.9276660 124.7030270  11.3075280  22.0961540 124.4478980  11.7071790
  23.5357640 124.7741040  12.0433200  32.9318260 128.7970650   9.2098650
  32.4699790 128.0257890   9.5385820  33.7443810 128.8236720   9.7151100
  22.9077920 128.7370360  11.5033300  23.2105960 127.8468100  11.3243520
  23.6521510 129.2940580  11.2755550  21.3368610 119.6632160   5.0917670
  20.4485310 120.0048130   4.9897550  21.6209800 119.4632480   4.1998500
  19.3001620 122.2637810  10.9757370  19.8717730 121.4960010  10.9761010
  19.3003160 122.5626570  10.0663980  29.1581570 131.0828660   8.8302640
  28.5393010 131.5386160   8.2597080  30.0133350 131.2380120   8.4292340
  28.3519820 127.0667650  10.4369680  28.2828100 126.1257590  10.2758810
  29.1139680 127.1569060  11.0092250  20.5426490 117.6722170  12.7626300
  20.3629330 116.7747920  13.0429060  20.1406570 118.2194040  13.4373250
  29.3824990 119.8738030  10.6638610  29.7589810 119.0009910  10.5512280
  29.2844500 120.2096730   9.7729050  23.5130000 118.2463660   6.1256050
  23.6196750 119.1467390   6.4324810  22.6022360 118.1981630   5.8350700
  33.1649110 117.3688470   7.5966950  33.9858730 116.8785040   7.6392430
  33.1983190 117.9586130   8.3498790  21.1613160 120.1682670  11.3708640
  21.8423270 120.4321040  11.9896040  20.8461210 119.3283540  11.7046650
  25.3537730 121.2150030  10.4581230  25.8615950 121.7131000  11.0986250
  25.8850970 120.4385230  10.2820590  37.4548660 119.3855220  14.1610580
  36.7500830 119.7736930  13.6425690  37.7206580 120.0805510  14.7631510
  23.6373830 115.8548590  14.7244650  23.6392270 116.3720980  13.9190550
  22.8078140 115.3778770  14.7014580  30.0244920 125.9667900   6.2234550
  29.4062190 126.4317350   5.6597270  30.5368170 126.6595380   6.6404060
  24.8876680 125.4943770  12.9018150  24.5546060 126.1212690  13.5439220
  25.0643360 126.0205650  12.1219820  33.4010590 119.3088850  10.3694490
  32.6966160 119.5973740  10.9497600  33.7622750 120.1188960  10.0094050
  23.3189160 117.5658550  12.7315100  23.6605970 118.4100600  12.4368970
  22.3804970 117.7142290  12.8480440  24.0995780 127.4624570  14.7167330
  24.7169780 128.1375650  14.4351780  23.2388900 127.8712550  14.6254830
  19.3928120 126.6524430   3.5974180  19.0156100 127.1411530   2.8659080
  19.6501190 127.3249710   4.2280710  35.0173370 128.9263980  12.6321970
  34.3336890 129.5963090  12.6238640  35.5567660 129.1244630  11.8666830
  36.4697510 118.7543640  10.7603700  35.5222420 118.7882620  10.8919130
  36.7947500 119.5682590  11.1453060  27.0017050 115.0540820   9.0559690
  27.3092030 114.4987710   8.3395190  26.0717750 115.1885280   8.8732680
  32.5532110 130.7708110  11.3467150  32.5659270 130.3670400  10.4789410
  32.0007330 131.5455400  11.2428580  33.8477530 127.4924330   6.4357320
  33.7373860 126.5498660   6.5606740  33.8445780 127.8539970   7.3220080
  31.9517550 125.6737950  12.6749760  32.3686340 125.4598060  11.8403220
  32.6757370 125.9310740  13.2458380  29.3897810 123.1189650   5.7919810
  28.4627090 123.0527030   6.0208280  29.5422630 124.0569780   5.6775050
  29.3766890 119.3906650   2.7886970  28.4370560 119.5520610   2.8739430
  29.6950150 120.1092330   2.2422960  35.8979650 124.0725170  12.7666000
  35.0698280 124.1418260  12.2916130  36.4930130 124.6579480  12.2981830
  33.4195100 124.6809950   6.2955060  32.8007520 124.3429500   5.6481360
  33.4019550 124.0369710   7.0034250  32.8621660 120.8594490  13.7120870
  32.4492840 121.6848200  13.9660860  32.1297610 120.2739530  13.5197230
  24.9954450 123.6454390   8.5739540  24.5911450 122.9331640   8.0785440
  25.0817570 123.3007630   9.4627580  25.4636150 127.3321950  10.7378750
  25.1664440 126.7267420  10.0586530  26.4135970 127.3699260  10.6268110
  23.7083070 120.4197600  12.3538580  24.2597660 120.5292940  11.5791830
  24.2226580 120.7935200  13.0693810  33.5521760 130.9053820  14.4001850
  33.0752320 131.7126010  14.2074460  32.8683550 130.2532150  14.5528060
  24.5554580 127.0703640  17.3886550  23.6583110 127.2943610  17.6359950
  24.5807450 127.1938580  16.4397950  31.5959800 123.9196760   3.3027810
  32.0353080 123.0819190   3.1565630  32.3088220 124.5526160   3.3891950
  23.3825800 123.9416960  15.9643920  23.2433570 124.8139760  16.3331320
  22.5007160 123.5989770  15.8191860  29.7055180 128.8592830   7.2709050
  30.1451090 129.6017160   6.8564440  29.6442070 129.1019400   8.1948010
  25.1806150 129.8838660  18.1729070  25.1521580 130.2881610  17.3057500
  25.0171120 128.9549020  18.0100670  21.6959080 122.5399370   6.0746190
  21.5756680 123.2661460   5.4627460  21.3859970 121.7702280   5.5974100
  37.1320970 130.6665760  19.4693240  37.6080690 131.1448650  20.1482320
  37.7528130 130.5983250  18.7438740  19.3344450 125.7114510  11.8814830
  19.4124870 125.8463280  10.9370550  19.9486130 125.0030400  12.0742950
  20.5792080 127.4114700   8.2921010  20.1720160 127.5529290   7.4374610
  21.4705090 127.1274860   8.0892220  36.5354220 127.8578610  16.6293250
  36.6617280 127.6190490  15.7110430  36.5775600 127.0263150  17.1015330
  30.3970960 131.5606610  15.1988060  30.9115630 131.4714620  16.0010490
  29.5540040 131.9066310  15.4915970  32.3725360 131.8461950   4.6272060
  32.2126500 131.5564890   5.5253890  32.2072070 131.0702080   4.0917290
  24.8513740 131.6260480   6.4043680  24.6756220 130.7096020   6.1911480
  23.9969480 131.9847770   6.6441480  32.0751490 129.3549510   3.1870060
  31.3816650 129.3526800   2.5272340  32.8174350 128.9308830   2.7564230
  31.6401420 130.9812220   7.2618550  32.0958370 130.2001600   7.5757170
  31.9793940 131.6919040   7.8059730  36.3878230 119.9111070  17.5942990
  35.7722500 120.4190740  17.0658450  36.0674650 119.0109400  17.5368930
  19.3903970 126.7528680  14.4209290  19.5535010 126.2834040  13.6028660
  19.8556420 126.2452240  15.0858130  24.1622740 115.8834440   9.4569860
  23.7190890 116.6643980   9.1254380  24.7207730 116.2064330  10.1640800
  28.4492550 118.7502960  15.0605180  27.9871920 118.9585980  15.8725120
  28.0470660 117.9362310  14.7575850  33.4497060 119.9711910  16.1901840
  32.5990650 119.6717660  16.5110910  33.2898850 120.2153920  15.2785660
  30.5446770 121.4713660  18.2900630  30.8700180 120.6377410  17.9502860
  31.3327100 121.9942180  18.4378960  27.2781560 115.5045140   4.3375690
  26.6535740 115.5005010   5.0629000  27.1911680 114.6376100   3.9411660
  26.1998640 116.4281770  11.3159460  26.4970970 117.3344600  11.2351480
  26.7484200 115.9400550  10.7019030  23.9536960 121.0068010   7.1851110
  23.7277880 120.7905180   8.0897730  23.1729490 121.4396470   6.8397080
  31.1834720 121.0131380   5.7841760  30.5843610 121.7367180   5.6005380
  31.7314330 120.9508160   5.0018210  26.3936170 121.9053590  17.8511380
  26.2979770 120.9648320  17.7011780  27.2368150 122.1268660  17.4559450
  29.7899590 119.6494920   7.8145040  30.1829160 119.9667120   7.0013730
  30.1516440 118.7706800   7.9289560  21.5246710 118.3167260  16.0045160
  21.1310100 119.1642470  16.2117940  20.8365110 117.6793630  16.1953800
  28.0991760 118.4002230  19.0741900  27.4090080 118.2074430  19.7087990
  28.8424060 118.6836870  19.6066200  18.8263760 116.2395720  10.0375240
  18.5376810 116.8098580  10.7500220  19.5709520 115.7600170  10.4006470
  30.3754730 122.2400670  11.9095820  29.6435850 122.7487480  12.2585920
  29.9779070 121.4230650  11.6084600  26.8132120 118.9154870  10.3148310
  26.8168180 118.4744820   9.4652850  27.7083240 119.2372200  10.4220130
  22.6634500 118.7981360   9.2742520  22.3234550 119.2756590  10.0309570
  21.9011820 118.3446480   8.9143620  26.8752270 119.9166950   3.3055070
  26.9965090 119.8753430   4.2540890  26.4900780 120.7791100   3.1501800
  30.8380640 117.6934350  11.3218760  30.8553380 118.1443000  12.1660610
  30.5896220 116.7939990  11.5352200  25.8873770 122.2268090   2.7038370
  25.3190670 121.7786340   2.0774280  26.5962770 122.5860870   2.1703520
  34.2651390 115.1066530  17.1605140  34.5897160 114.3756190  17.6863120
  34.3007900 114.7880170  16.2586130  20.9642950 126.1280110  16.5805100
  20.5797740 125.4873780  17.1788060  21.2755140 126.8316230  17.1499830
  27.1140090 122.9756650  12.0613720  27.4810220 122.5015220  12.8075060
  26.9245150 123.8498220  12.4022060  19.9780580 117.7200340   8.1907190
  19.6927500 117.3556010   9.0285810  19.9159440 116.9880800   7.5770330
  24.9039460 122.0165290  14.3797930  24.5996530 122.8957270  14.6048290
  25.8585920 122.0765080  14.4155370  23.4321250 126.2226280   4.9764780
  22.6583510 125.6823900   4.8163500  24.1615880 125.7032890   4.6382540
  34.1909230 125.2191640  10.7691170  34.9108350 125.7146930  10.3787280
  33.9891050 124.5409530  10.1245040  29.6519170 116.6129600   4.9120560
  28.8383780 116.1142770   4.8365870  29.4581120 117.4527850   4.4956910
  29.5728030 125.2900700  16.6560170  29.5065340 124.3696370  16.4017760
  28.9433170 125.3876140  17.3704810  32.3667560 120.9849250   3.2082720
  33.2547180 121.2966480   3.0334060  32.3372650 120.1121500   2.8163300
  23.4758650 125.8906660   8.6143590  23.9937320 125.0874920   8.5600480
  23.0242670 125.8285800   9.4560420  28.3628150 127.1572940   3.8870890
  28.7043850 127.9015170   3.3914210  27.5340860 127.4704060   4.2495720
  20.9603190 122.8568030  15.5269290  20.6018130 123.5221880  16.1142630
  20.6657750 122.0251580  15.8981910  24.1616310 123.3152270  18.4108840
  23.8616450 123.4609450  17.5136660  24.9327550 122.7557560  18.3182230
  29.5044760 128.1121270  16.4063970  29.5189300 127.1802230  16.1882880
  28.7969860 128.1981030  17.0453740  34.6381830 122.2961090   2.6762580
  34.5545550 122.7275310   1.8259020  35.3576020 122.7559440   3.1089400
  35.7155970 124.7528610  15.7532550  34.9904160 125.3457390  15.5561940
  36.2431430 124.7452150  14.9545920  35.6669080 129.1503350   5.4044710
  35.0245240 128.4958970   5.6788430  35.2799740 129.5558440   4.6285380
  31.2455560 126.4788780   9.2516400  31.5979380 125.8816910   8.5917770
  30.3617890 126.1533010   9.4224650  27.3318840 127.2386470   6.6586810
  28.0189970 127.7855680   7.0394400  26.5451260 127.7827200   6.6936420
  19.4711240 122.8559290   2.1503890  20.3406090 123.1384090   2.4339810
  18.9801560 123.6695160   2.0352700  26.6346050 124.2432500   6.2712170
  27.0908830 125.0537750   6.4972360  26.2834260 123.9255640   7.1030660
  28.9378660 129.7538840  13.5004470  29.5820880 129.9598220  14.1777890
  29.3008100 128.9927240  13.0475320  22.5357830 114.5870150   6.7434690
  22.4072460 114.5788050   7.6919610  21.7119850 114.9253240   6.3925700
  30.2110740 127.7571190  12.2181920  30.8532970 127.0564350  12.3314090
  30.7360090 128.5369630  12.0378810  31.9848360 128.5566090  15.4217980
  32.3204600 129.1432780  16.0995900  31.0648700 128.4258800  15.6515770
  19.8382490 132.0686670   2.7165520  20.1980130 132.6676010   2.0622790
  19.6974830 132.6146560   3.4900550  19.5351760 116.3461270  16.2041390
  18.8210280 116.5458190  16.8094000  19.9546800 115.5700840  16.5756190
  33.6382710 125.9591750   3.6035220  33.3504410 126.4204440   4.3913100
  34.4334880 125.4989520   3.8719440  19.8224350 130.3341530  17.1907920
  19.9315470 129.3936270  17.0503310  19.1704910 130.5996280  16.5421650
  27.8136940 128.6057420  18.5906040  27.4933810 127.8866660  19.1351730
  27.1395300 129.2812490  18.6642100  25.8551110 129.4517870   3.5339190
  25.8461210 130.1847560   2.9183700  24.9349470 129.2049450   3.6266150
  21.4557750 124.6732760   4.2785950  20.8485700 125.4131660   4.2881250
  21.9307100 124.7632120   3.4524150  31.0290540 118.8383580  13.9542840
  31.3971360 118.0178790  14.2822410  30.1688740 118.8985470  14.3698490
  34.3952570 117.7940520   4.7630400  33.7665730 117.8986190   4.0488630
  33.9004490 118.0137300   5.5524280  26.3636600 120.0726470   6.1788280
  25.6552750 120.5412810   6.6201890  26.6481080 119.4148480   6.8133470
  27.9892530 121.4923170  14.1780810  28.4877780 121.9668990  14.8432660
  28.1315480 120.5686690  14.3850840  30.3952030 116.7977130   7.6184070
  30.2719810 116.8163260   6.6693580  31.3436590 116.8456070   7.7382470
  27.4828820 132.0332430   6.8912050  27.7370320 131.9953820   5.9691420
  26.5341300 131.9065760   6.8840300  24.5671620 118.3811550   3.5538990
  25.4162150 118.8181700   3.4879180  24.2002890 118.6931810   4.3811050
  35.1959390 117.7091130  15.0209200  34.6932990 118.4496530  15.3603010
  36.0116050 118.0975130  14.7045990  33.4881400 122.9524310   8.4670560
  32.5471540 122.9674540   8.6418250  33.8025470 122.1660270   8.9130860
  22.1609800 122.0668980   2.7107410  22.2413390 121.1196490   2.8224810
  23.0529550 122.3975860   2.8168070  35.4906980 130.1233160  10.1424820
  35.6154400 130.9464330  10.6148630  36.3572540 129.9123890   9.7948970
  22.9624510 132.2164370   9.8141950  23.6986990 131.6679830  10.0850520
  23.3465430 133.0820380   9.6747940  19.8469990 128.2837940   5.6883460
  18.9209770 128.5259080   5.6788870  20.3126420 129.1112200   5.5668210
  21.9682790 131.4010440  19.0027530  22.7695520 131.7222490  19.4162930
  21.4534610 131.0406020  19.7247440  30.8047420 127.5090310  18.9502940
  30.1985580 127.5321910  18.2098690  30.5001530 126.7773350  19.4870190
  32.2347790 131.2370600  17.5612350  33.1869540 131.1528620  17.5112590
  32.0876010 131.9012310  18.2346140  35.1256990 130.6164810   3.0604260
  34.8398500 130.2029950   2.2458440  34.9276540 131.5452520   2.9404780
  19.6880600 123.8883900  17.9463580  20.1919620 123.3091180  18.5179810
  18.9488020 124.1724130  18.4839950  26.7418540 125.2954890  17.4799100
  25.9764210 125.8639890  17.3953770  26.9234500 125.0031100  16.5867330
  29.8306950 125.6718120   2.1051860  29.2817050 126.1187420   2.7494600
  30.4526210 125.1667370   2.6289530  33.8841890 127.0260220  18.0374120
  34.6251360 127.3635980  17.5341580  33.1214570 127.1952280  17.4843890
  21.7203680 122.0313490  18.8413650  21.7609020 121.7327360  19.7498880
  22.5749180 122.4321100  18.6821170  25.4982070 124.6309040   4.0017160
  25.9198490 124.4648910   4.8448550  25.6232910 123.8209270   3.5072300
  23.6609490 120.6105590  16.8088140  23.1305950 120.1196540  16.1811480
  24.3297560 121.0389790  16.2746070  32.5587550 125.0775050  16.5729330
  32.9728570 125.2320130  17.4219750  31.6238550 125.2030270  16.7355110
  33.0309720 122.4171210  18.5768480  33.6130490 121.6623530  18.4888960
  33.2071490 122.9478650  17.7999960  24.1481790 117.5767960  16.8885430
  24.0538660 116.9588710  16.1636300  23.5679180 118.3034250  16.6615340
  26.9143230 116.1341200  13.9212820  26.4660530 116.1565460  13.0758370
  26.2808430 115.7360220  14.5183120  27.3202780 125.0295530  14.5425260
  27.7390890 125.8728260  14.3701500  26.4011410 125.1667570  14.3132040
  29.6566680 122.7611710  15.9263100  29.7762890 122.1652850  16.6657940
  30.5160680 122.7981400  15.5064400  31.9954580 123.3148900  14.5025610
  31.4689800 123.8391520  13.8990750  32.3385920 123.9476290  15.1335340
  25.1710200 131.3348540  15.6582990  24.6331290 132.0594600  15.3391690
  25.4244160 130.8578880  14.8680330  26.4235450 119.3033060  17.1838920
  27.0135140 118.9948910  17.8716740  25.6055690 118.8312810  17.3398820
  31.2428880 118.9198870  17.4171940  30.5544400 118.2580410  17.3521930
  31.9634900 118.4737140  17.8620400  31.8729280 115.5150500   3.4762200
  32.1531570 114.6718400   3.8321620  31.0995010 115.7473610   3.9900950
  28.0272410 132.5699750  15.9169640  27.9531110 133.4734890  16.2242010
  27.1251250 132.2511650  15.8891710  28.5757740 131.7358260   3.5396000
  29.4708530 132.0743230   3.5614760  28.6075370 131.0137670   2.9120280
  22.2153900 127.1085310   1.7683000  22.6528770 127.6514980   2.4240580
  22.7001630 126.2832260   1.7779340  19.4299700 129.8974340   9.2203260
  19.7602710 129.0295400   8.9881900  19.8590700 130.1032860  10.0508220
  24.0261620 128.2283350   6.8805230  23.7257160 128.1048320   7.7809140
  23.9199110 127.3691940   6.4720960  19.9189910 130.7644930  11.9584890
  19.4820900 130.9445730  12.7909040  20.4867590 131.5219550  11.8166610
  35.5552090 130.2661930  16.2462200  34.9554080 130.3254490  15.5026120
  35.6845990 129.3266910  16.3759050  36.2510000 124.7527230   4.0866110
  37.0128910 125.3223880   4.1925800  36.2664370 124.1854430   4.8574420
  19.7514340 123.2765160   8.3173770  19.0963180 123.0076800   7.6733470
  20.5892290 123.1669640   7.8675750  37.2569970 125.6077330   8.9308040
  37.6278800 124.8244650   8.5244010  37.8971900 126.2966430   8.7525340
  34.2403730 126.9913910  14.3438360  33.4263570 127.4211070  14.6064150
  34.6477930 127.6032320  13.7307410  32.7004780 118.0706450   2.5392260
  33.1189660 117.8837430   1.6988920  32.3940840 117.2185500   2.8495190
  36.1994510 122.9830590   6.2368060  35.8238110 122.2158520   5.8049350
  35.4697630 123.3653290   6.7242990  20.7890270 123.6617730  12.8577110
  21.1563310 123.5745130  13.7373130  20.2201090 122.8984280  12.7583970
  35.5894130 122.1302110  15.8707580  35.3580220 121.9014860  14.9705530
  35.8498680 123.0501660  15.8252470  20.3406270 120.5726820  16.7635530
  19.4462320 120.5393580  17.1029240  20.8803820 120.7713610  17.5286780
  34.0282200 117.3558540  18.6487280  34.9052380 117.3641940  19.0321280
  34.0403040 116.6189380  18.0379630  18.9652420 120.4864090   4.2599100
  18.0616500 120.7494290   4.0850760  19.4493040 120.7575260   3.4799060
  35.4745470 121.2088080   9.5375300  35.9982950 120.7150730   8.9065470
  36.0604890 121.3438440  10.2822870  35.6535190 121.2927950  13.0594850
  34.7037900 121.2591490  13.1739840  35.8348200 122.2028060  12.8244620
  34.9645440 120.4661430   5.4767710  35.4604560 120.2332300   6.2616590
  34.7661510 119.6273270   5.0605350  20.8445980 114.8475150  11.1118750
  21.4922170 114.2972530  10.6713910  21.2647820 115.1018300  11.9334560
  36.3932600 119.1022380   8.0105390  36.2831880 118.9478420   8.9487660
  37.1540190 118.5743320   7.7680800  34.7398320 115.0416510  14.4688390
  35.3770540 115.6550650  14.8347580  34.8873210 115.0777170  13.5237620
  37.3561360 117.7040960   3.8768240  36.5612860 117.6386080   4.4061150
  37.5604640 118.6391600   3.8653590  34.2979780 131.7432510   7.8706630
  34.8938850 131.4217080   7.1941050  34.5557930 131.2704330   8.6619900
  20.5977980 115.0030820  13.8544070  20.2492800 115.4594640  14.6202250
  20.2665680 114.1087950  13.9366500  22.2042350 128.1750420  18.0197260
  22.1611980 127.8043330  18.9011720  22.3353360 129.1127990  18.1599080
  25.9048380 129.7310010  13.6206980  25.6639740 129.9984570  12.7337500
  26.8451020 129.9015740  13.6757840  28.1102800 116.1942700  17.3763490
  28.0491690 116.7864530  18.1258900  29.0503180 116.0868660  17.2313750
  30.7477360 115.8512760  17.0155780  31.3617770 116.1692050  16.3536860
  31.2926920 115.3661350  17.6351640  37.1652540 131.7504390  14.4217620
  36.6710820 132.1473260  13.7044750  36.5565830 131.1253600  14.8154900
  21.2698620 114.5307020  17.1294840  21.8181610 114.3495070  16.3660950
  21.3353930 113.7401130  17.6651150  22.0430380 131.1212670  15.1395040
  21.4490700 130.9897370  15.8785080  22.0354220 130.2850810  14.6737140
  31.4885400 114.4144900  13.3425070  30.6145240 114.7480010  13.1398000
  31.3796150 113.9418080  14.1676940  32.3957380 116.6215770  14.7266790
  32.0670740 115.8067530  14.3468520  33.3439680 116.5785580  14.6032480
  34.8491990 132.3927810  11.7004360  34.3894960 133.1443620  11.3262380
  34.2204450 131.6734280  11.6419160  21.6742610 128.4871050  14.0903080
  20.9476670 127.8676340  14.0229030  21.7351760 128.8811660  13.2201160
  25.2787710 130.7016050  10.8752490  25.7952730 130.0903410  10.3500750
  25.9285090 131.2044830  11.3663500  28.0183210 131.5924540  11.7021470
  28.3061020 131.3378840  10.8254480  28.5306430 131.0401900  12.2927040
  29.2360220 115.3314740  12.2817980  28.4532010 115.8060240  12.5614740
  28.9423150 114.4269570  12.1731160  33.7881290 116.0337840  10.3267070
  34.2289380 115.9782940   9.4788670  33.5188880 116.9495850  10.3977250
  35.6519860 115.6653080   8.3375890  35.5908260 114.7214300   8.1906910
  36.4311890 115.7733170   8.8829350  19.9572610 131.8045440   7.2999840
  19.7894650 131.1716120   7.9981730  19.0907120 132.0104840   6.9494030
  20.5800630 115.6362220   4.8031700  21.3379990 115.7491100   4.2295730
  20.1177800 116.4731420   4.7575130  27.1214440 117.7501490   7.7934010
  26.3088950 117.3758380   7.4529890  27.6256080 116.9946570   8.0955200
  31.6239420 114.4143940   9.0317080  32.2268790 114.9864150   9.5065600
  30.8832410 114.9783380   8.8090980  34.7674020 114.8165500   4.3057360
  34.9624650 115.7148950   4.5724790  33.9803890 114.5852580   4.7990310
  21.5635310 130.4978670   4.7449980  21.0382930 130.8786700   4.0411940
  21.4879890 131.1229440   5.4659690  22.9525780 116.1626270   3.3433670
  23.4818540 115.3756070   3.2141620  23.5854100 116.8417460   3.5769200
  25.1463620 115.9001410   6.3979060  24.5166360 115.1988720   6.5649190
  24.6068760 116.6605540   6.1812220  28.0855570 132.5140640  19.0689670
  29.0122880 132.2784910  19.1125630  28.0706000 133.3412640  18.5875700
  36.3200630 132.0566210   6.0663920  36.4952820 131.3703950   5.4224840
  35.6222200 132.5813260   5.6740590  25.2719180 115.1785390  18.8331550
  24.9903450 115.6818990  18.0692370  25.6538880 114.3807140  18.4673680
  24.1628280 132.4461050   3.6199230  24.8947100 132.1620330   3.0723120
  24.4221950 132.2074330   4.5098610  23.3243070 128.5625780   3.6245560
  22.6951950 129.0310880   4.1731390  23.4390900 127.7175000   4.0591750
  31.8734640 114.5938970  19.4112020  31.7600090 114.9133580  20.3063540
  32.6904380 114.9951480  19.1149300  34.6533130 131.7410500  18.8930710
  35.4458450 131.2459730  18.6856670  34.9466280 132.4200640  19.5006320
  30.7792790 103.8387950 139.9694680  30.6986840 102.9242560 139.6986390
  30.3657210 104.3355020 139.2634390  28.9110830 105.6166970 141.8503950
  28.1352930 105.1367410 142.1402520  29.5623760 104.9372620 141.6760110
  22.9276660 105.9286780 142.7279710  22.0961540 105.6735490 143.1276220
  23.5357640 105.9997550 143.4637630  32.9318260 110.0227160 140.6303080
  32.4699790 109.2514400 140.9590250  33.7443810 110.0493230 141.1355530
  22.9077920 109.9626870 142.9237730  23.2105960 109.0724610 142.7447950
  23.6521510 110.5197090 142.6959980  21.3368610 100.8888670 136.5122100
  20.4485310 101.2304640 136.4101980  21.6209800 100.6888990 135.6202930
  19.3001620 103.4894320 142.3961800  19.8717730 102.7216520 142.3965440
  19.3003160 103.7883080 141.4868410  29.1581570 112.3085170 140.2507070
  28.5393010 112.7642670 139.6801510  30.0133350 112.4636630 139.8496770
  28.3519820 108.2924160 141.8574110  28.2828100 107.3514100 141.6963240
  29.1139680 108.3825570 142.4296680  20.5426490  98.8978680 144.1830730
  20.3629330  98.0004430 144.4633490  20.1406570  99.4450550 144.8577680
  29.3824990 101.0994540 142.0843040  29.7589810 100.2266420 141.9716710
  29.2844500 101.4353240 141.1933480  23.5130000  99.4720170 137.5460480
  23.6196750 100.3723900 137.8529240  22.6022360  99.4238140 137.2555130
  33.1649110  98.5944980 139.0171380  33.9858730  98.1041550 139.0596860
  33.1983190  99.1842640 139.7703220  21.1613160 101.3939180 142.7913070
  21.8423270 101.6577550 143.4100470  20.8461210 100.5540050 143.1251080
  25.3537730 102.4406540 141.8785660  25.8615950 102.9387510 142.5190680
  25.8850970 101.6641740 141.7025020  37.4548660 100.6111730 145.5815010
  36.7500830 100.9993440 145.0630120  37.7206580 101.3062020 146.1835940
  23.6373830  97.0805100 146.1449080  23.6392270  97.5977490 145.3394980
  22.8078140  96.6035280 146.1219010  30.0244920 107.1924410 137.6438980
  29.4062190 107.6573860 137.0801700  30.5368170 107.8851890 138.0608490
  24.8876680 106.7200280 144.3222580  24.5546060 107.3469200 144.9643650
  25.0643360 107.2462160 143.5424250  33.4010590 100.5345360 141.7898920
  32.6966160 100.8230250 142.3702030  33.7622750 101.3445470 141.4298480
  23.3189160  98.7915060 144.1519530  23.6605970  99.6357110 143.8573400
  22.3804970  98.9398800 144.2684870  24.0995780 108.6881080 146.1371760
  24.7169780 109.3632160 145.8556210  23.2388900 109.0969060 146.0459260
  19.3928120 107.8780940 135.0178610  19.0156100 108.3668040 134.2863510
  19.6501190 108.5506220 135.6485140  35.0173370 110.1520490 144.0526400
  34.3336890 110.8219600 144.0443070  35.5567660 110.3501140 143.2871260
  36.4697510  99.9800150 142.1808130  35.5222420 100.0139130 142.3123560
  36.7947500 100.7939100 142.5657490  27.0017050  96.2797330 140.4764120
  27.3092030  95.7244220 139.7599620  26.0717750  96.4141790 140.2937110
  32.5532110 111.9964620 142.7671580  32.5659270 111.5926910 141.8993840
  32.0007330 112.7711910 142.6633010  33.8477530 108.7180840 137.8561750
  33.7373860 107.7755170 137.9811170  33.8445780 109.0796480 138.7424510
  31.9517550 106.8994460 144.0954190  32.3686340 106.6854570 143.2607650
  32.6757370 107.1567250 144.6662810  29.3897810 104.3446160 137.2124240
  28.4627090 104.2783540 137.4412710  29.5422630 105.2826290 137.0979480
  29.3766890 100.6163160 134.2091400  28.4370560 100.7777120 134.2943860
  29.6950150 101.3348840 133.6627390  35.8979650 105.2981680 144.1870430
  35.0698280 105.3674770 143.7120560  36.4930130 105.8835990 143.7186260
  33.4195100 105.9066460 137.7159490  32.8007520 105.5686010 137.0685790
  33.4019550 105.2626220 138.4238680  32.8621660 102.0851000 145.1325300
  32.4492840 102.9104710 145.3865290  32.1297610 101.4996040 144.9401660
  24.9954450 104.8710900 139.9943970  24.5911450 104.1588150 139.4989870
  25.0817570 104.5264140 140.8832010  25.4636150 108.5578460 142.1583180
  25.1664440 107.9523930 141.4790960  26.4135970 108.5955770 142.0472540
  23.7083070 101.6454110 143.7743010  24.2597660 101.7549450 142.9996260
  24.2226580 102.0191710 144.4898240  33.5521760 112.1310330 145.8206280
  33.0752320 112.9382520 145.6278890  32.8683550 111.4788660 145.9732490
  24.5554580 108.2960150 148.8090980  23.6583110 108.5200120 149.0564380
  24.5807450 108.4195090 147.8602380  31.5959800 105.1453270 134.7232240
  32.0353080 104.3075700 134.5770060  32.3088220 105.7782670 134.8096380
  23.3825800 105.1673470 147.3848350  23.2433570 106.0396270 147.7535750
  22.5007160 104.8246280 147.2396290  29.7055180 110.0849340 138.6913480
  30.1451090 110.8273670 138.2768870  29.6442070 110.3275910 139.6152440
  25.1806150 111.1095170 149.5933500  25.1521580 111.5138120 148.7261930
  25.0171120 110.1805530 149.4305100  35.1776940  96.3996080 133.0373280
  34.8649600  96.4922910 133.9372350  35.9389410  96.9777110 132.9870710
  21.6959080 103.7655880 137.4950620  21.5756680 104.4917970 136.8831890
  21.3859970 102.9958790 137.0178530  19.3344450 106.9371020 143.3019260
  19.4124870 107.0719790 142.3574980  19.9486130 106.2286910 143.4947380
  20.5792080 108.6371210 139.7125440  20.1720160 108.7785800 138.8579040
  21.4705090 108.3531370 139.5096650  36.5354220 109.0835120 148.0497680
  36.6617280 108.8447000 147.1314860  36.5775600 108.2519660 148.5219760
  30.3970960 112.7863120 146.6192490  30.9115630 112.6971130 147.4214920
  29.5540040 113.1322820 146.9120400  32.3725360 113.0718460 136.0476490
  32.2126500 112.7821400 136.9458320  32.2072070 112.2958590 135.5121720
  24.8513740 112.8516990 137.8248110  24.6756220 111.9352530 137.6115910
  23.9969480 113.2104280 138.0645910  32.0751490 110.5806020 134.6074490
  31.3816650 110.5783310 133.9476770  32.8174350 110.1565340 134.1768660
  31.6401420 112.2068730 138.6822980  32.0958370 111.4258110 138.9961600
  31.9793940 112.9175550 139.2264160  36.3878230 101.1367580 149.0147420
  35.7722500 101.6447250 148.4862880  36.0674650 100.2365910 148.9573360
  19.3903970 107.9785190 145.8413720  19.5535010 107.5090550 145.0233090
  19.8556420 107.4708750 146.5062560  24.1622740  97.1090950 140.8774290
  23.7190890  97.8900490 140.5458810  24.7207730  97.4320840 141.5845230
  28.4492550  99.9759470 146.4809610  27.9871920 100.1842490 147.2929550
  28.0470660  99.1618820 146.1780280  33.4497060 101.1968420 147.6106270
  32.5990650 100.8974170 147.9315340  33.2898850 101.4410430 146.6990090
  30.5446770 102.6970170 149.7105060  30.8700180 101.8633920 149.3707290
  31.3327100 103.2198690 149.8583390  27.2781560  96.7301650 135.7580120
  26.6535740  96.7261520 136.4833430  27.1911680  95.8632610 135.3616090
  26.1998640  97.6538280 142.7363890  26.4970970  98.5601110 142.6555910
  26.7484200  97.1657060 142.1223460  23.9536960 102.2324520 138.6055540
  23.7277880 102.0161690 139.5102160  23.1729490 102.6652980 138.2601510
  31.1834720 102.2387890 137.2046190  30.5843610 102.9623690 137.0209810
  31.7314330 102.1764670 136.4222640  26.3936170 103.1310100 149.2715810
  26.2979770 102.1904830 149.1216210  27.2368150 103.3525170 148.8763880
  29.7899590 100.8751430 139.2349470  30.1829160 101.1923630 138.4218160
  30.1516440  99.9963310 139.3493990  21.5246710  99.5423770 147.4249590
  21.1310100 100.3898980 147.6322370  20.8365110  98.9050140 147.6158230
  18.8263760  97.4652230 141.4579670  18.5376810  98.0355090 142.1704650
  19.5709520  96.9856680 141.8210900  19.0133990 101.4072350 132.6682390
  18.9308660 102.3503110 132.8097380  18.6617050 101.2647260 131.7894740
  30.3754730 103.4657180 143.3300250  29.6435850 103.9743990 143.6790350
  29.9779070 102.6487160 143.0289030  26.8132120 100.1411380 141.7352740
  26.8168180  99.7001330 140.8857280  27.7083240 100.4628710 141.8424560
  22.6634500 100.0237870 140.6946950  22.3234550 100.5013100 141.4514000
  21.9011820  99.5702990 140.3348050  26.8752270 101.1423460 134.7259500
  26.9965090 101.1009940 135.6745320  26.4900780 102.0047610 134.5706230
  30.8380640  98.9190860 142.7423190  30.8553380  99.3699510 143.5865040
  30.5896220  98.0196500 142.9556630  25.8873770 103.4524600 134.1242800
  25.3190670 103.0042850 133.4978710  26.5962770 103.8117380 133.5907950
  34.2651390  96.3323040 148.5809570  34.5897160  95.6012700 149.1067550
  34.3007900  96.0136680 147.6790560  20.9642950 107.3536620 148.0009530
  20.5797740 106.7130290 148.5992490  21.2755140 108.0572740 148.5704260
  27.1140090 104.2013160 143.4818150  27.4810220 103.7271730 144.2279490
  26.9245150 105.0754730 143.8226490  19.9780580  98.9456850 139.6111620
  19.6927500  98.5812520 140.4490240  19.9159440  98.2137310 138.9974760
  24.9039460 103.2421800 145.8002360  24.5996530 104.1213780 146.0252720
  25.8585920 103.3021590 145.8359800  23.4321250 107.4482790 136.3969210
  22.6583510 106.9080410 136.2367930  24.1615880 106.9289400 136.0586970
  34.1909230 106.4448150 142.1895600  34.9108350 106.9403440 141.7991710
  33.9891050 105.7666040 141.5449470  29.6519170  97.8386110 136.3324990
  28.8383780  97.3399280 136.2570300  29.4581120  98.6784360 135.9161340
  29.5728030 106.5157210 148.0764600  29.5065340 105.5952880 147.8222190
  28.9433170 106.6132650 148.7909240  32.3667560 102.2105760 134.6287150
  33.2547180 102.5222990 134.4538490  32.3372650 101.3378010 134.2367730
  23.4758650 107.1163170 140.0348020  23.9937320 106.3131430 139.9804910
  23.0242670 107.0542310 140.8764850  28.3628150 108.3829450 135.3075320
  28.7043850 109.1271680 134.8118640  27.5340860 108.6960570 135.6700150
  20.9603190 104.0824540 146.9473720  20.6018130 104.7478390 147.5347060
  20.6657750 103.2508090 147.3186340  24.1616310 104.5408780 149.8313270
  23.8616450 104.6865960 148.9341090  24.9327550 103.9814070 149.7386660
  29.5044760 109.3377780 147.8268400  29.5189300 108.4058740 147.6087310
  28.7969860 109.4237540 148.4658170  34.6381830 103.5217600 134.0967010
  34.5545550 103.9531820 133.2463450  35.3576020 103.9815950 134.5293830
  35.7155970 105.9785120 147.1736980  34.9904160 106.5713900 146.9766370
  36.2431430 105.9708660 146.3750350  35.6669080 110.3759860 136.8249140
  35.0245240 109.7215480 137.0992860  35.2799740 110.7814950 136.0489810
  31.2455560 107.7045290 140.6720830  31.5979380 107.1073420 140.0122200
  30.3617890 107.3789520 140.8429080  27.3318840 108.4642980 138.0791240
  28.0189970 109.0112190 138.4598830  26.5451260 109.0083710 138.1140850
  19.4711240 104.0815800 133.5708320  20.3406090 104.3640600 133.8544240
  18.9801560 104.8951670 133.4557130  26.6346050 105.4689010 137.6916600
  27.0908830 106.2794260 137.9176790  26.2834260 105.1512150 138.5235090
  28.9378660 110.9795350 144.9208900  29.5820880 111.1854730 145.5982320
  29.3008100 110.2183750 144.4679750  22.5357830  95.8126660 138.1639120
  22.4072460  95.8044560 139.1124040  21.7119850  96.1509750 137.8130130
  30.2110740 108.9827700 143.6386350  30.8532970 108.2820860 143.7518520
  30.7360090 109.7626140 143.4583240  34.0566460 109.2676320 133.3625490
  33.8304040 108.5506760 133.9550130  33.6662660 109.0188760 132.5247240
  31.9848360 109.7822600 146.8422410  32.3204600 110.3689290 147.5200330
  31.0648700 109.6515310 147.0720200  19.8382490 113.2943180 134.1369950
  20.1980130 113.8932520 133.4827220  19.6974830 113.8403070 134.9104980
  19.5351760  97.5717780 147.6245820  18.8210280  97.7714700 148.2298430
  19.9546800  96.7957350 147.9960620  33.6382710 107.1848260 135.0239650
  33.3504410 107.6460950 135.8117530  34.4334880 106.7246030 135.2923870
  19.8224350 111.5598040 148.6112350  19.9315470 110.6192780 148.4707740
  19.1704910 111.8252790 147.9626080  25.8551110 110.6774380 134.9543620
  25.8461210 111.4104070 134.3388130  24.9349470 110.4305960 135.0470580
  21.4557750 105.8989270 135.6990380  20.8485700 106.6388170 135.7085680
  21.9307100 105.9888630 134.8728580  31.0290540 100.0640090 145.3747270
  31.3971360  99.2435300 145.7026840  30.1688740 100.1241980 145.7902920
  34.3952570  99.0197030 136.1834830  33.7665730  99.1242700 135.4693060
  33.9004490  99.2393810 136.9728710  28.8410710 110.7402620 133.6168810
  28.9422690 110.5366610 132.6870790  27.9412450 110.4860900 133.8216590
  26.3636600 101.2982980 137.5992710  25.6552750 101.7669320 138.0406320
  26.6481080 100.6404990 138.2337900  27.9892530 102.7179680 145.5985240
  28.4877780 103.1925500 146.2637090  28.1315480 101.7943200 145.8055270
  30.3952030  98.0233640 139.0388500  30.2719810  98.0419770 138.0898010
  31.3436590  98.0712580 139.1586900  27.4828820 113.2588940 138.3116480
  27.7370320 113.2210330 137.3895850  26.5341300 113.1322270 138.3044730
  24.5671620  99.6068060 134.9743420  25.4162150 100.0438210 134.9083610
  24.2002890  99.9188320 135.8015480  35.1959390  98.9347640 146.4413630
  34.6932990  99.6753040 146.7807440  36.0116050  99.3231640 146.1250420
  33.4881400 104.1780820 139.8874990  32.5471540 104.1931050 140.0622680
  33.8025470 103.3916780 140.3335290  23.4663040 105.8600420 133.4478950
  24.2326310 105.7481780 134.0104380  23.5437730 105.1638390 132.7955720
  22.1609800 103.2925490 134.1311840  22.2413390 102.3453000 134.2429240
  23.0529550 103.6232370 134.2372500  35.4906980 111.3489670 141.5629250
  35.6154400 112.1720840 142.0353060  36.3572540 111.1380400 141.2153400
  22.9624510 113.4420880 141.2346380  23.6986990 112.8936340 141.5054950
  23.3465430 114.3076890 141.0952370  19.8469990 109.5094450 137.1087890
  18.9209770 109.7515590 137.0993300  20.3126420 110.3368710 136.9872640
  26.0726820 112.6151190 133.0571950  26.8655430 112.9040020 132.6053740
  25.5531170 112.1843360 132.3784430  32.2347790 112.4627110 148.9816780
  33.1869540 112.3785130 148.9317020  32.0876010 113.1268820 149.6550570
  35.1256990 111.8421320 134.4808690  34.8398500 111.4286460 133.6662870
  34.9276540 112.7709030 134.3609210  19.6880600 105.1140410 149.3668010
  20.1919620 104.5347690 149.9384240  18.9488020 105.3980640 149.9044380
  26.5904220 107.8354600 132.9214300  26.4854860 107.2206950 133.6475680
  26.4228440 107.3120490 132.1377310  26.7418540 106.5211400 148.9003530
  25.9764210 107.0896400 148.8158200  26.9234500 106.2287610 148.0071760
  29.8306950 106.8974630 133.5256290  29.2817050 107.3443930 134.1699030
  30.4526210 106.3923880 134.0493960  33.8841890 108.2516730 149.4578550
  34.6251360 108.5892490 148.9546010  33.1214570 108.4208790 148.9048320
  25.4982070 105.8565550 135.4221590  25.9198490 105.6905420 136.2652980
  25.6232910 105.0465780 134.9276730  23.6609490 101.8362100 148.2292570
  23.1305950 101.3453050 147.6015910  24.3297560 102.2646300 147.6950500
  28.0109710 104.8803160 132.6698690  28.5315370 104.1652180 132.3039840
  28.6578110 105.5189030 132.9699200  32.5587550 106.3031560 147.9933760
  32.9728570 106.4576640 148.8424180  31.6238550 106.4286780 148.1559540
  33.0309720 103.6427720 149.9972910  33.6130490 102.8880040 149.9093390
  33.2071490 104.1735160 149.2204390  24.1481790  98.8024470 148.3089860
  24.0538660  98.1845220 147.5840730  23.5679180  99.5290760 148.0819770
  26.9143230  97.3597710 145.3417250  26.4660530  97.3821970 144.4962800
  26.2808430  96.9616730 145.9387550  27.3202780 106.2552040 145.9629690
  27.7390890 107.0984770 145.7905930  26.4011410 106.3924080 145.7336470
  29.6566680 103.9868220 147.3467530  29.7762890 103.3909360 148.0862370
  30.5160680 104.0237910 146.9268830  31.9954580 104.5405410 145.9230040
  31.4689800 105.0648030 145.3195180  32.3385920 105.1732800 146.5539770
  24.3940970 101.9298780 132.3679750  24.1930030 101.0666140 132.7293090
  24.2233020 101.8432140 131.4301350  25.1710200 112.5605050 147.0787420
  24.6331290 113.2851110 146.7596120  25.4244160 112.0835390 146.2884760
  26.4235450 100.5289570 148.6043350  27.0135140 100.2205420 149.2921170
  25.6055690 100.0569320 148.7603250  31.2428880 100.1455380 148.8376370
  30.5544400  99.4836920 148.7726360  31.9634900  99.6993650 149.2824830
  31.8729280  96.7407010 134.8966630  32.1531570  95.8974910 135.2526050
  31.0995010  96.9730120 135.4105380  23.1923770  99.0299400 132.3557630
  23.4949670  99.0366830 131.4476780  23.9318360  98.6797260 132.8525290
  28.0272410 113.7956260 147.3374070  27.9531110 114.6991400 147.6446440
  27.1251250 113.4768160 147.3096140  26.4108700  97.9734020 133.3413830
  26.0630700  97.2958010 132.7616280  26.6121470  97.5123530 134.1557220
  28.5757740 112.9614770 134.9600430  29.4708530 113.2999740 134.9819190
  28.6075370 112.2394180 134.3324710  22.2153900 108.3341820 133.1887430
  22.6528770 108.8771490 133.8445010  22.7001630 107.5088770 133.1983770
  19.4299700 111.1230850 140.6407690  19.7602710 110.2551910 140.4086330
  19.8590700 111.3289370 141.4712650  24.0261620 109.4539860 138.3009660
  23.7257160 109.3304830 139.2013570  23.9199110 108.5948450 137.8925390
  19.9189910 111.9901440 143.3789320  19.4820900 112.1702240 144.2113470
  20.4867590 112.7476060 143.2371040  35.5552090 111.4918440 147.6666630
  34.9554080 111.5511000 146.9230550  35.6845990 110.5523420 147.7963480
  36.7953540 109.2336260 133.0036340  35.9646500 109.3012910 133.4743570
  36.9725370 110.1240380 132.7003200  36.2510000 105.9783740 135.5070540
  37.0128910 106.5480390 135.6130230  36.2664370 105.4110940 136.2778850
  19.7514340 104.5021670 139.7378200  19.0963180 104.2333310 139.0937900
  20.5892290 104.3926150 139.2880180  37.2569970 106.8333840 140.3512470
  37.6278800 106.0501160 139.9448440  37.8971900 107.5222940 140.1729770
  34.2403730 108.2170420 145.7642790  33.4263570 108.6467580 146.0268580
  34.6477930 108.8288830 145.1511840  36.3029170 106.2718110 132.6643060
  36.5778010 107.1796990 132.5362280  36.1139910 106.2080640 133.6005050
  32.7004780  99.2962960 133.9596690  33.1189660  99.1093940 133.1193350
  32.3940840  98.4442010 134.2699620  36.1994510 104.2087100 137.6572490
  35.8238110 103.4415030 137.2253780  35.4697630 104.5909800 138.1447420
  20.7890270 104.8874240 144.2781540  21.1563310 104.8001640 145.1577560
  20.2201090 104.1240790 144.1788400  35.5894130 103.3558620 147.2912010
  35.3580220 103.1271370 146.3909960  35.8498680 104.2758170 147.2456900
  20.3406270 101.7983330 148.1839960  19.4462320 101.7650090 148.5233670
  20.8803820 101.9970120 148.9491210  18.9652420 101.7120600 135.6803530
  18.0616500 101.9750800 135.5055190  19.4493040 101.9831770 134.9003490
  35.4745470 102.4344590 140.9579730  35.9982950 101.9407240 140.3269900
  36.0604890 102.5694950 141.7027300  35.6535190 102.5184460 144.4799280
  34.7037900 102.4848000 144.5944270  35.8348200 103.4284570 144.2449050
  21.5079630 100.7686140 133.5897910  22.2171330 100.3469360 133.1045190
  20.7919570 100.8361370 132.9581260  21.1553790  96.8225470 132.6300560
  21.8781920  97.3634410 132.9481780  21.4278310  96.5488890 131.7542100
  34.9645440 101.6917940 136.8972140  35.4604560 101.4588810 137.6821020
  34.7661510 100.8529780 136.4809780  20.8445980  96.0731660 142.5323180
  21.4922170  95.5229040 142.0918340  21.2647820  96.3274810 143.3538990
  36.3932600 100.3278890 139.4309820  36.2831880 100.1734930 140.3692090
  37.1540190  99.7999830 139.1885230  34.7398320  96.2673020 145.8892820
  35.3770540  96.8807160 146.2552010  34.8873210  96.3033680 144.9442050
  37.2822870  98.1586810 132.6715960  38.2072180  98.0267990 132.4634250
  37.2598660  98.2379630 133.6252410  37.3561360  98.9297470 135.2972670
  36.5612860  98.8642590 135.8265580  37.5604640  99.8648110 135.2858020
  34.2979780 112.9689020 139.2911060  34.8938850 112.6473590 138.6145480
  34.5557930 112.4960840 140.0824330  20.5977980  96.2287330 145.2748500
  20.2492800  96.6851150 146.0406680  20.2665680  95.3344460 145.3570930
  25.9048380 110.9566520 145.0411410  25.6639740 111.2241080 144.1541930
  26.8451020 111.1272250 145.0962270  28.1102800  97.4199210 148.7967920
  28.0491690  98.0121040 149.5463330  29.0503180  97.3125170 148.6518180
  30.7477360  97.0769270 148.4360210  31.3617770  97.3948560 147.7741290
  31.2926920  96.5917860 149.0556070  37.1652540 112.9760900 145.8422050
  36.6710820 113.3729770 145.1249180  36.5565830 112.3510110 146.2359330
  21.2698620  95.7563530 148.5499270  21.8181610  95.5751580 147.7865380
  21.3353930  94.9657640 149.0855580  22.0430380 112.3469180 146.5599470
  21.4490700 112.2153880 147.2989510  22.0354220 111.5107320 146.0941570
  31.4885400  95.6401410 144.7629500  30.6145240  95.9736520 144.5602430
  31.3796150  95.1674590 145.5881370  32.3957380  97.8472280 146.1471220
  32.0670740  97.0324040 145.7672950  33.3439680  97.8042090 146.0236910
  34.8491990 113.6184320 143.1208790  34.3894960 114.3700130 142.7466810
  34.2204450 112.8990790 143.0623590  21.6742610 109.7127560 145.5107510
  20.9476670 109.0932850 145.4433460  21.7351760 110.1068170 144.6405590
  25.2787710 111.9272560 142.2956920  25.7952730 111.3159920 141.7705180
  25.9285090 112.4301340 142.7867930  28.0183210 112.8181050 143.1225900
  28.3061020 112.5635350 142.2458910  28.5306430 112.2658410 143.7131470
  29.2360220  96.5571250 143.7022410  28.4532010  97.0316750 143.9819170
  28.9423150  95.6526080 143.5935590  33.7881290  97.2594350 141.7471500
  34.2289380  97.2039450 140.8993100  33.5188880  98.1752360 141.8181680
  35.6519860  96.8909590 139.7580320  35.5908260  95.9470810 139.6111340
  36.4311890  96.9989680 140.3033780  19.9572610 113.0301950 138.7204270
  19.7894650 112.3972630 139.4186160  19.0907120 113.2361350 138.3698460
  20.5800630  96.8618730 136.2236130  21.3379990  96.9747610 135.6500160
  20.1177800  97.6987930 136.1779560  27.1214440  98.9758000 139.2138440
  26.3088950  98.6014890 138.8734320  27.6256080  98.2203080 139.5159630
  31.6239420  95.6400450 140.4521510  32.2268790  96.2120660 140.9270030
  30.8832410  96.2039890 140.2295410  34.7674020  96.0422010 135.7261790
  34.9624650  96.9405460 135.9929220  33.9803890  95.8109090 136.2194740
  21.5635310 111.7235180 136.1654410  21.0382930 112.1043210 135.4616370
  21.4879890 112.3485950 136.8864120  22.9525780  97.3882780 134.7638100
  23.4818540  96.6012580 134.6346050  23.5854100  98.0673970 134.9973630
  25.1463620  97.1257920 137.8183490  24.5166360  96.4245230 137.9853620
  24.6068760  97.8862050 137.6016650  36.3200630 113.2822720 137.4868350
  36.4952820 112.5960460 136.8429270  35.6222200 113.8069770 137.0945020
  24.1628280 113.6717560 135.0403660  24.8947100 113.3876840 134.4927550
  24.4221950 113.4330840 135.9303040  23.3243070 109.7882290 135.0449990
  22.6951950 110.2567390 135.5935820  23.4390900 108.9431510 135.4796180
  30.7792790 103.8387950 121.1951190  30.6986840 102.9242560 120.9242900
  30.3657210 104.3355020 120.4890900  28.9110830 105.6166970 123.0760460
  28.1352930 105.1367410 123.3659030  29.5623760 104.9372620 122.9016620
  22.9276660 105.9286780 123.9536220  22.0961540 105.6735490 124.3532730
  23.5357640 105.9997550 124.6894140  32.9318260 110.0227160 121.8559590
  32.4699790 109.2514400 122.1846760  33.7443810 110.0493230 122.3612040
  22.9077920 109.9626870 124.1494240  23.2105960 109.0724610 123.9704460
  23.6521510 110.5197090 123.9216490  21.3368610 100.8888670 117.7378610
  20.4485310 101.2304640 117.6358490  21.6209800 100.6888990 116.8459440
  19.3001620 103.4894320 123.6218310  19.8717730 102.7216520 123.6221950
  19.3003160 103.7883080 122.7124920  29.1581570 112.3085170 121.4763580
  28.5393010 112.7642670 120.9058020  30.0133350 112.4636630 121.0753280
  28.3519820 108.2924160 123.0830620  28.2828100 107.3514100 122.9219750
  29.1139680 108.3825570 123.6553190  20.5426490  98.8978680 125.4087240
  20.3629330  98.0004430 125.6890000  20.1406570  99.4450550 126.0834190
  29.3824990 101.0994540 123.3099550  29.7589810 100.2266420 123.1973220
  29.2844500 101.4353240 122.4189990  23.5130000  99.4720170 118.7716990
  23.6196750 100.3723900 119.0785750  22.6022360  99.4238140 118.4811640
  33.1649110  98.5944980 120.2427890  33.9858730  98.1041550 120.2853370
  33.1983190  99.1842640 120.9959730  21.1613160 101.3939180 124.0169580
  21.8423270 101.6577550 124.6356980  20.8461210 100.5540050 124.3507590
  25.3537730 102.4406540 123.1042170  25.8615950 102.9387510 123.7447190
  25.8850970 101.6641740 122.9281530  37.4548660 100.6111730 126.8071520
  36.7500830 100.9993440 126.2886630  37.7206580 101.3062020 127.4092450
  23.6373830  97.0805100 127.3705590  23.6392270  97.5977490 126.5651490
  22.8078140  96.6035280 127.3475520  30.0244920 107.1924410 118.8695490
  29.4062190 107.6573860 118.3058210  30.5368170 107.8851890 119.2865000
  24.8876680 106.7200280 125.5479090  24.5546060 107.3469200 126.1900160
  25.0643360 107.2462160 124.7680760  33.4010590 100.5345360 123.0155430
  32.6966160 100.8230250 123.5958540  33.7622750 101.3445470 122.6554990
  23.3189160  98.7915060 125.3776040  23.6605970  99.6357110 125.0829910
  22.3804970  98.9398800 125.4941380  24.0995780 108.6881080 127.3628270
  24.7169780 109.3632160 127.0812720  23.2388900 109.0969060 127.2715770
  19.3928120 107.8780940 116.2435120  19.0156100 108.3668040 115.5120020
  19.6501190 108.5506220 116.8741650  35.0173370 110.1520490 125.2782910
  34.3336890 110.8219600 125.2699580  35.5567660 110.3501140 124.5127770
  36.4697510  99.9800150 123.4064640  35.5222420 100.0139130 123.5380070
  36.7947500 100.7939100 123.7914000  27.0017050  96.2797330 121.7020630
  27.3092030  95.7244220 120.9856130  26.0717750  96.4141790 121.5193620
  32.5532110 111.9964620 123.9928090  32.5659270 111.5926910 123.1250350
  32.0007330 112.7711910 123.8889520  33.8477530 108.7180840 119.0818260
  33.7373860 107.7755170 119.2067680  33.8445780 109.0796480 119.9681020
  31.9517550 106.8994460 125.3210700  32.3686340 106.6854570 124.4864160
  32.6757370 107.1567250 125.8919320  29.3897810 104.3446160 118.4380750
  28.4627090 104.2783540 118.6669220  29.5422630 105.2826290 118.3235990
  29.3766890 100.6163160 115.4347910  28.4370560 100.7777120 115.5200370
  29.6950150 101.3348840 114.8883900  35.8979650 105.2981680 125.4126940
  35.0698280 105.3674770 124.9377070  36.4930130 105.8835990 124.9442770
  33.4195100 105.9066460 118.9416000  32.8007520 105.5686010 118.2942300
  33.4019550 105.2626220 119.6495190  32.8621660 102.0851000 126.3581810
  32.4492840 102.9104710 126.6121800  32.1297610 101.4996040 126.1658170
  24.9954450 104.8710900 121.2200480  24.5911450 104.1588150 120.7246380
  25.0817570 104.5264140 122.1088520  25.4636150 108.5578460 123.3839690
  25.1664440 107.9523930 122.7047470  26.4135970 108.5955770 123.2729050
  23.7083070 101.6454110 124.9999520  24.2597660 101.7549450 124.2252770
  24.2226580 102.0191710 125.7154750  33.5521760 112.1310330 127.0462790
  33.0752320 112.9382520 126.8535400  32.8683550 111.4788660 127.1989000
  24.5554580 108.2960150 130.0347490  23.6583110 108.5200120 130.2820890
  24.5807450 108.4195090 129.0858890  31.5959800 105.1453270 115.9488750
  32.0353080 104.3075700 115.8026570  32.3088220 105.7782670 116.0352890
  23.3825800 105.1673470 128.6104860  23.2433570 106.0396270 128.9792260
  22.5007160 104.8246280 128.4652800  29.7055180 110.0849340 119.9169990
  30.1451090 110.8273670 119.5025380  29.6442070 110.3275910 120.8408950
  25.1806150 111.1095170 130.8190010  25.1521580 111.5138120 129.9518440
  25.0171120 110.1805530 130.6561610  35.1776940  96.3996080 114.2629790
  34.8649600  96.4922910 115.1628860  35.9389410  96.9777110 114.2127220
  21.6959080 103.7655880 118.7207130  21.5756680 104.4917970 118.1088400
  21.3859970 102.9958790 118.2435040  37.1320970 111.8922270 132.1154180
  37.6080690 112.3705160 132.7943260  37.7528130 111.8239760 131.3899680
  19.3344450 106.9371020 124.5275770  19.4124870 107.0719790 123.5831490
  19.9486130 106.2286910 124.7203890  20.5792080 108.6371210 120.9381950
  20.1720160 108.7785800 120.0835550  21.4705090 108.3531370 120.7353160
  36.5354220 109.0835120 129.2754190  36.6617280 108.8447000 128.3571370
  36.5775600 108.2519660 129.7476270  30.3970960 112.7863120 127.8449000
  30.9115630 112.6971130 128.6471430  29.5540040 113.1322820 128.1376910
  32.3725360 113.0718460 117.2733000  32.2126500 112.7821400 118.1714830
  32.2072070 112.2958590 116.7378230  24.8513740 112.8516990 119.0504620
  24.6756220 111.9352530 118.8372420  23.9969480 113.2104280 119.2902420
  32.0751490 110.5806020 115.8331000  31.3816650 110.5783310 115.1733280
  32.8174350 110.1565340 115.4025170  31.6401420 112.2068730 119.9079490
  32.0958370 111.4258110 120.2218110  31.9793940 112.9175550 120.4520670
  36.3878230 101.1367580 130.2403930  35.7722500 101.6447250 129.7119390
  36.0674650 100.2365910 130.1829870  19.3903970 107.9785190 127.0670230
  19.5535010 107.5090550 126.2489600  19.8556420 107.4708750 127.7319070
  24.1622740  97.1090950 122.1030800  23.7190890  97.8900490 121.7715320
  24.7207730  97.4320840 122.8101740  28.4492550  99.9759470 127.7066120
  27.9871920 100.1842490 128.5186060  28.0470660  99.1618820 127.4036790
  33.4497060 101.1968420 128.8362780  32.5990650 100.8974170 129.1571850
  33.2898850 101.4410430 127.9246600  30.5446770 102.6970170 130.9361570
  30.8700180 101.8633920 130.5963800  31.3327100 103.2198690 131.0839900
  27.2781560  96.7301650 116.9836630  26.6535740  96.7261520 117.7089940
  27.1911680  95.8632610 116.5872600  26.1998640  97.6538280 123.9620400
  26.4970970  98.5601110 123.8812420  26.7484200  97.1657060 123.3479970
  23.9536960 102.2324520 119.8312050  23.7277880 102.0161690 120.7358670
  23.1729490 102.6652980 119.4858020  31.1834720 102.2387890 118.4302700
  30.5843610 102.9623690 118.2466320  31.7314330 102.1764670 117.6479150
  26.3936170 103.1310100 130.4972320  26.2979770 102.1904830 130.3472720
  27.2368150 103.3525170 130.1020390  29.7899590 100.8751430 120.4605980
  30.1829160 101.1923630 119.6474670  30.1516440  99.9963310 120.5750500
  21.5246710  99.5423770 128.6506100  21.1310100 100.3898980 128.8578880
  20.8365110  98.9050140 128.8414740  28.0991760  99.6258740 131.7202840
  27.4090080  99.4330940 132.3548930  28.8424060  99.9093380 132.2527140
  18.8263760  97.4652230 122.6836180  18.5376810  98.0355090 123.3961160
  19.5709520  96.9856680 123.0467410  19.0133990 101.4072350 113.8938900
  18.9308660 102.3503110 114.0353890  18.6617050 101.2647260 113.0151250
  30.3754730 103.4657180 124.5556760  29.6435850 103.9743990 124.9046860
  29.9779070 102.6487160 124.2545540  26.8132120 100.1411380 122.9609250
  26.8168180  99.7001330 122.1113790  27.7083240 100.4628710 123.0681070
  22.6634500 100.0237870 121.9203460  22.3234550 100.5013100 122.6770510
  21.9011820  99.5702990 121.5604560  26.8752270 101.1423460 115.9516010
  26.9965090 101.1009940 116.9001830  26.4900780 102.0047610 115.7962740
  30.8380640  98.9190860 123.9679700  30.8553380  99.3699510 124.8121550
  30.5896220  98.0196500 124.1813140  25.8873770 103.4524600 115.3499310
  25.3190670 103.0042850 114.7235220  26.5962770 103.8117380 114.8164460
  34.2651390  96.3323040 129.8066080  34.5897160  95.6012700 130.3324060
  34.3007900  96.0136680 128.9047070  20.9642950 107.3536620 129.2266040
  20.5797740 106.7130290 129.8249000  21.2755140 108.0572740 129.7960770
  27.1140090 104.2013160 124.7074660  27.4810220 103.7271730 125.4536000
  26.9245150 105.0754730 125.0483000  19.9780580  98.9456850 120.8368130
  19.6927500  98.5812520 121.6746750  19.9159440  98.2137310 120.2231270
  24.9039460 103.2421800 127.0258870  24.5996530 104.1213780 127.2509230
  25.8585920 103.3021590 127.0616310  23.4321250 107.4482790 117.6225720
  22.6583510 106.9080410 117.4624440  24.1615880 106.9289400 117.2843480
  34.1909230 106.4448150 123.4152110  34.9108350 106.9403440 123.0248220
  33.9891050 105.7666040 122.7705980  29.6519170  97.8386110 117.5581500
  28.8383780  97.3399280 117.4826810  29.4581120  98.6784360 117.1417850
  29.5728030 106.5157210 129.3021110  29.5065340 105.5952880 129.0478700
  28.9433170 106.6132650 130.0165750  32.3667560 102.2105760 115.8543660
  33.2547180 102.5222990 115.6795000  32.3372650 101.3378010 115.4624240
  23.4758650 107.1163170 121.2604530  23.9937320 106.3131430 121.2061420
  23.0242670 107.0542310 122.1021360  28.3628150 108.3829450 116.5331830
  28.7043850 109.1271680 116.0375150  27.5340860 108.6960570 116.8956660
  20.9603190 104.0824540 128.1730230  20.6018130 104.7478390 128.7603570
  20.6657750 103.2508090 128.5442850  24.1616310 104.5408780 131.0569780
  23.8616450 104.6865960 130.1597600  24.9327550 103.9814070 130.9643170
  29.5044760 109.3377780 129.0524910  29.5189300 108.4058740 128.8343820
  28.7969860 109.4237540 129.6914680  34.6381830 103.5217600 115.3223520
  34.5545550 103.9531820 114.4719960  35.3576020 103.9815950 115.7550340
  35.7155970 105.9785120 128.3993490  34.9904160 106.5713900 128.2022880
  36.2431430 105.9708660 127.6006860  35.6669080 110.3759860 118.0505650
  35.0245240 109.7215480 118.3249370  35.2799740 110.7814950 117.2746320
  31.2455560 107.7045290 121.8977340  31.5979380 107.1073420 121.2378710
  30.3617890 107.3789520 122.0685590  27.3318840 108.4642980 119.3047750
  28.0189970 109.0112190 119.6855340  26.5451260 109.0083710 119.3397360
  19.4711240 104.0815800 114.7964830  20.3406090 104.3640600 115.0800750
  18.9801560 104.8951670 114.6813640  26.6346050 105.4689010 118.9173110
  27.0908830 106.2794260 119.1433300  26.2834260 105.1512150 119.7491600
  28.9378660 110.9795350 126.1465410  29.5820880 111.1854730 126.8238830
  29.3008100 110.2183750 125.6936260  22.5357830  95.8126660 119.3895630
  22.4072460  95.8044560 120.3380550  21.7119850  96.1509750 119.0386640
  30.2110740 108.9827700 124.8642860  30.8532970 108.2820860 124.9775030
  30.7360090 109.7626140 124.6839750  34.0566460 109.2676320 114.5882000
  33.8304040 108.5506760 115.1806640  33.6662660 109.0188760 113.7503750
  31.9848360 109.7822600 128.0678920  32.3204600 110.3689290 128.7456840
  31.0648700 109.6515310 128.2976710  19.8382490 113.2943180 115.3626460
  20.1980130 113.8932520 114.7083730  19.6974830 113.8403070 116.1361490
  19.5351760  97.5717780 128.8502330  18.8210280  97.7714700 129.4554940
  19.9546800  96.7957350 129.2217130  33.6382710 107.1848260 116.2496160
  33.3504410 107.6460950 117.0374040  34.4334880 106.7246030 116.5180380
  19.8224350 111.5598040 129.8368860  19.9315470 110.6192780 129.6964250
  19.1704910 111.8252790 129.1882590  27.8136940 109.8313930 131.2366980
  27.4933810 109.1123170 131.7812670  27.1395300 110.5069000 131.3103040
  25.8551110 110.6774380 116.1800130  25.8461210 111.4104070 115.5644640
  24.9349470 110.4305960 116.2727090  21.4557750 105.8989270 116.9246890
  20.8485700 106.6388170 116.9342190  21.9307100 105.9888630 116.0985090
  31.0290540 100.0640090 126.6003780  31.3971360  99.2435300 126.9283350
  30.1688740 100.1241980 127.0159430  34.3952570  99.0197030 117.4091340
  33.7665730  99.1242700 116.6949570  33.9004490  99.2393810 118.1985220
  28.8410710 110.7402620 114.8425320  28.9422690 110.5366610 113.9127300
  27.9412450 110.4860900 115.0473100  26.3636600 101.2982980 118.8249220
  25.6552750 101.7669320 119.2662830  26.6481080 100.6404990 119.4594410
  27.9892530 102.7179680 126.8241750  28.4877780 103.1925500 127.4893600
  28.1315480 101.7943200 127.0311780  30.3952030  98.0233640 120.2645010
  30.2719810  98.0419770 119.3154520  31.3436590  98.0712580 120.3843410
  27.4828820 113.2588940 119.5372990  27.7370320 113.2210330 118.6152360
  26.5341300 113.1322270 119.5301240  24.5671620  99.6068060 116.1999930
  25.4162150 100.0438210 116.1340120  24.2002890  99.9188320 117.0271990
  35.1959390  98.9347640 127.6670140  34.6932990  99.6753040 128.0063950
  36.0116050  99.3231640 127.3506930  33.4881400 104.1780820 121.1131500
  32.5471540 104.1931050 121.2879190  33.8025470 103.3916780 121.5591800
  23.4663040 105.8600420 114.6735460  24.2326310 105.7481780 115.2360890
  23.5437730 105.1638390 114.0212230  22.1609800 103.2925490 115.3568350
  22.2413390 102.3453000 115.4685750  23.0529550 103.6232370 115.4629010
  35.4906980 111.3489670 122.7885760  35.6154400 112.1720840 123.2609570
  36.3572540 111.1380400 122.4409910  22.9624510 113.4420880 122.4602890
  23.6986990 112.8936340 122.7311460  23.3465430 114.3076890 122.3208880
  19.8469990 109.5094450 118.3344400  18.9209770 109.7515590 118.3249810
  20.3126420 110.3368710 118.2129150  21.9682790 112.6266950 131.6488470
  22.7695520 112.9479000 132.0623870  21.4534610 112.2662530 132.3708380
  26.0726820 112.6151190 114.2828460  26.8655430 112.9040020 113.8310250
  25.5531170 112.1843360 113.6040940  30.8047420 108.7346820 131.5963880
  30.1985580 108.7578420 130.8559630  30.5001530 108.0029860 132.1331130
  32.2347790 112.4627110 130.2073290  33.1869540 112.3785130 130.1573530
  32.0876010 113.1268820 130.8807080  35.1256990 111.8421320 115.7065200
  34.8398500 111.4286460 114.8919380  34.9276540 112.7709030 115.5865720
  19.6880600 105.1140410 130.5924520  20.1919620 104.5347690 131.1640750
  18.9488020 105.3980640 131.1300890  26.5904220 107.8354600 114.1470810
  26.4854860 107.2206950 114.8732190  26.4228440 107.3120490 113.3633820
  26.7418540 106.5211400 130.1260040  25.9764210 107.0896400 130.0414710
  26.9234500 106.2287610 129.2328270  29.8306950 106.8974630 114.7512800
  29.2817050 107.3443930 115.3955540  30.4526210 106.3923880 115.2750470
  33.8841890 108.2516730 130.6835060  34.6251360 108.5892490 130.1802520
  33.1214570 108.4208790 130.1304830  21.7203680 103.2570000 131.4874590
  21.7609020 102.9583870 132.3959820  22.5749180 103.6577610 131.3282110
  25.4982070 105.8565550 116.6478100  25.9198490 105.6905420 117.4909490
  25.6232910 105.0465780 116.1533240  23.6609490 101.8362100 129.4549080
  23.1305950 101.3453050 128.8272420  24.3297560 102.2646300 128.9207010
  28.0109710 104.8803160 113.8955200  28.5315370 104.1652180 113.5296350
  28.6578110 105.5189030 114.1955710  32.5587550 106.3031560 129.2190270
  32.9728570 106.4576640 130.0680690  31.6238550 106.4286780 129.3816050
  33.0309720 103.6427720 131.2229420  33.6130490 102.8880040 131.1349900
  33.2071490 104.1735160 130.4460900  24.1481790  98.8024470 129.5346370
  24.0538660  98.1845220 128.8097240  23.5679180  99.5290760 129.3076280
  26.9143230  97.3597710 126.5673760  26.4660530  97.3821970 125.7219310
  26.2808430  96.9616730 127.1644060  27.3202780 106.2552040 127.1886200
  27.7390890 107.0984770 127.0162440  26.4011410 106.3924080 126.9592980
  29.6566680 103.9868220 128.5724040  29.7762890 103.3909360 129.3118880
  30.5160680 104.0237910 128.1525340  31.9954580 104.5405410 127.1486550
  31.4689800 105.0648030 126.5451690  32.3385920 105.1732800 127.7796280
  24.3940970 101.9298780 113.5936260  24.1930030 101.0666140 113.9549600
  24.2233020 101.8432140 112.6557860  25.1710200 112.5605050 128.3043930
  24.6331290 113.2851110 127.9852630  25.4244160 112.0835390 127.5141270
  26.4235450 100.5289570 129.8299860  27.0135140 100.2205420 130.5177680
  25.6055690 100.0569320 129.9859760  31.2428880 100.1455380 130.0632880
  30.5544400  99.4836920 129.9982870  31.9634900  99.6993650 130.5081340
  31.8729280  96.7407010 116.1223140  32.1531570  95.8974910 116.4782560
  31.0995010  96.9730120 116.6361890  23.1923770  99.0299400 113.5814140
  23.4949670  99.0366830 112.6733290  23.9318360  98.6797260 114.0781800
  28.0272410 113.7956260 128.5630580  27.9531110 114.6991400 128.8702950
  27.1251250 113.4768160 128.5352650  26.4108700  97.9734020 114.5670340
  26.0630700  97.2958010 113.9872790  26.6121470  97.5123530 115.3813730
  28.5757740 112.9614770 116.1856940  29.4708530 113.2999740 116.2075700
  28.6075370 112.2394180 115.5581220  22.2153900 108.3341820 114.4143940
  22.6528770 108.8771490 115.0701520  22.7001630 107.5088770 114.4240280
  19.4299700 111.1230850 121.8664200  19.7602710 110.2551910 121.6342840
  19.8590700 111.3289370 122.6969160  24.0261620 109.4539860 119.5266170
  23.7257160 109.3304830 120.4270080  23.9199110 108.5948450 119.1181900
  19.9189910 111.9901440 124.6045830  19.4820900 112.1702240 125.4369980
  20.4867590 112.7476060 124.4627550  35.5552090 111.4918440 128.8923140
  34.9554080 111.5511000 128.1487060  35.6845990 110.5523420 129.0219990
  36.2510000 105.9783740 116.7327050  37.0128910 106.5480390 116.8386740
  36.2664370 105.4110940 117.5035360  19.7514340 104.5021670 120.9634710
  19.0963180 104.2333310 120.3194410  20.5892290 104.3926150 120.5136690
  37.2569970 106.8333840 121.5768980  37.6278800 106.0501160 121.1704950
  37.8971900 107.5222940 121.3986280  34.2403730 108.2170420 126.9899300
  33.4263570 108.6467580 127.2525090  34.6477930 108.8288830 126.3768350
  32.7004780  99.2962960 115.1853200  33.1189660  99.1093940 114.3449860
  32.3940840  98.4442010 115.4956130  36.1994510 104.2087100 118.8829000
  35.8238110 103.4415030 118.4510290  35.4697630 104.5909800 119.3703930
  20.7890270 104.8874240 125.5038050  21.1563310 104.8001640 126.3834070
  20.2201090 104.1240790 125.4044910  35.5894130 103.3558620 128.5168520
  35.3580220 103.1271370 127.6166470  35.8498680 104.2758170 128.4713410
  20.3406270 101.7983330 129.4096470  19.4462320 101.7650090 129.7490180
  20.8803820 101.9970120 130.1747720  34.0282200  98.5815050 131.2948220
  34.9052380  98.5898450 131.6782220  34.0403040  97.8445890 130.6840570
  18.9652420 101.7120600 116.9060040  18.0616500 101.9750800 116.7311700
  19.4493040 101.9831770 116.1260000  35.4745470 102.4344590 122.1836240
  35.9982950 101.9407240 121.5526410  36.0604890 102.5694950 122.9283810
  35.6535190 102.5184460 125.7055790  34.7037900 102.4848000 125.8200780
  35.8348200 103.4284570 125.4705560  21.5079630 100.7686140 114.8154420
  22.2171330 100.3469360 114.3301700  20.7919570 100.8361370 114.1837770
  21.1553790  96.8225470 113.8557070  21.8781920  97.3634410 114.1738290
  21.4278310  96.5488890 112.9798610  34.9645440 101.6917940 118.1228650
  35.4604560 101.4588810 118.9077530  34.7661510 100.8529780 117.7066290
  20.8445980  96.0731660 123.7579690  21.4922170  95.5229040 123.3174850
  21.2647820  96.3274810 124.5795500  36.3932600 100.3278890 120.6566330
  36.2831880 100.1734930 121.5948600  37.1540190  99.7999830 120.4141740
  34.7398320  96.2673020 127.1149330  35.3770540  96.8807160 127.4808520
  34.8873210  96.3033680 126.1698560  37.2822870  98.1586810 113.8972470
  38.2072180  98.0267990 113.6890760  37.2598660  98.2379630 114.8508920
  37.3561360  98.9297470 116.5229180  36.5612860  98.8642590 117.0522090
  37.5604640  99.8648110 116.5114530  34.2979780 112.9689020 120.5167570
  34.8938850 112.6473590 119.8401990  34.5557930 112.4960840 121.3080840
  20.5977980  96.2287330 126.5005010  20.2492800  96.6851150 127.2663190
  20.2665680  95.3344460 126.5827440  22.2042350 109.4006930 130.6658200
  22.1611980 109.0299840 131.5472660  22.3353360 110.3384500 130.8060020
  25.9048380 110.9566520 126.2667920  25.6639740 111.2241080 125.3798440
  26.8451020 111.1272250 126.3218780  28.1102800  97.4199210 130.0224430
  28.0491690  98.0121040 130.7719840  29.0503180  97.3125170 129.8774690
  30.7477360  97.0769270 129.6616720  31.3617770  97.3948560 128.9997800
  31.2926920  96.5917860 130.2812580  37.1652540 112.9760900 127.0678560
  36.6710820 113.3729770 126.3505690  36.5565830 112.3510110 127.4615840
  21.2698620  95.7563530 129.7755780  21.8181610  95.5751580 129.0121890
  21.3353930  94.9657640 130.3112090  22.0430380 112.3469180 127.7855980
  21.4490700 112.2153880 128.5246020  22.0354220 111.5107320 127.3198080
  31.4885400  95.6401410 125.9886010  30.6145240  95.9736520 125.7858940
  31.3796150  95.1674590 126.8137880  32.3957380  97.8472280 127.3727730
  32.0670740  97.0324040 126.9929460  33.3439680  97.8042090 127.2493420
  34.8491990 113.6184320 124.3465300  34.3894960 114.3700130 123.9723320
  34.2204450 112.8990790 124.2880100  21.6742610 109.7127560 126.7364020
  20.9476670 109.0932850 126.6689970  21.7351760 110.1068170 125.8662100
  25.2787710 111.9272560 123.5213430  25.7952730 111.3159920 122.9961690
  25.9285090 112.4301340 124.0124440  28.0183210 112.8181050 124.3482410
  28.3061020 112.5635350 123.4715420  28.5306430 112.2658410 124.9387980
  29.2360220  96.5571250 124.9278920  28.4532010  97.0316750 125.2075680
  28.9423150  95.6526080 124.8192100  33.7881290  97.2594350 122.9728010
  34.2289380  97.2039450 122.1249610  33.5188880  98.1752360 123.0438190
  35.6519860  96.8909590 120.9836830  35.5908260  95.9470810 120.8367850
  36.4311890  96.9989680 121.5290290  19.9572610 113.0301950 119.9460780
  19.7894650 112.3972630 120.6442670  19.0907120 113.2361350 119.5954970
  20.5800630  96.8618730 117.4492640  21.3379990  96.9747610 116.8756670
  20.1177800  97.6987930 117.4036070  27.1214440  98.9758000 120.4394950
  26.3088950  98.6014890 120.0990830  27.6256080  98.2203080 120.7416140
  31.6239420  95.6400450 121.6778020  32.2268790  96.2120660 122.1526540
  30.8832410  96.2039890 121.4551920  34.7674020  96.0422010 116.9518300
  34.9624650  96.9405460 117.2185730  33.9803890  95.8109090 117.4451250
  21.5635310 111.7235180 117.3910920  21.0382930 112.1043210 116.6872880
  21.4879890 112.3485950 118.1120630  22.9525780  97.3882780 115.9894610
  23.4818540  96.6012580 115.8602560  23.5854100  98.0673970 116.2230140
  25.1463620  97.1257920 119.0440000  24.5166360  96.4245230 119.2110130
  24.6068760  97.8862050 118.8273160  28.0855570 113.7397150 131.7150610
  29.0122880 113.5041420 131.7586570  28.0706000 114.5669150 131.2336640
  36.3200630 113.2822720 118.7124860  36.4952820 112.5960460 118.0685780
  35.6222200 113.8069770 118.3201530  25.2719180  96.4041900 131.4792490
  24.9903450  96.9075500 130.7153310  25.6538880  95.6063650 131.1134620
  24.1628280 113.6717560 116.2660170  24.8947100 113.3876840 115.7184060
  24.4221950 113.4330840 117.1559550  23.3243070 109.7882290 116.2706500
  22.6951950 110.2567390 116.8192330  23.4390900 108.9431510 116.7052690
  31.8734640  95.8195480 132.0572960  31.7600090  96.1390090 132.9524480
  32.6904380  96.2207990 131.7610240  34.6533130 112.9667010 131.5391650
  35.4458450 112.4716240 131.3317610  34.9466280 113.6457150 132.1467260
  22.9276660 105.9286780 105.1792730  22.0961540 105.6735490 105.5789240
  23.5357640 105.9997550 105.9150650  32.9318260 110.0227160 103.0816100
  32.4699790 109.2514400 103.4103270  33.7443810 110.0493230 103.5868550
  22.9077920 109.9626870 105.3750750  23.2105960 109.0724610 105.1960970
  23.6521510 110.5197090 105.1473000  21.3368610 100.8888670  98.9635120
  20.4485310 101.2304640  98.8615000  21.6209800 100.6888990  98.0715950
  19.3001620 103.4894320 104.8474820  19.8717730 102.7216520 104.8478460
  19.3003160 103.7883080 103.9381430  29.1581570 112.3085170 102.7020090
  28.5393010 112.7642670 102.1314530  30.0133350 112.4636630 102.3009790
  28.3519820 108.2924160 104.3087130  28.2828100 107.3514100 104.1476260
  29.1139680 108.3825570 104.8809700  20.5426490  98.8978680 106.6343750
  20.3629330  98.0004430 106.9146510  20.1406570  99.4450550 107.3090700
  23.5130000  99.4720170  99.9973500  23.6196750 100.3723900 100.3042260
  22.6022360  99.4238140  99.7068150  21.1613160 101.3939180 105.2426090
  21.8423270 101.6577550 105.8613490  20.8461210 100.5540050 105.5764100
  37.4548660 100.6111730 108.0328030  36.7500830 100.9993440 107.5143140
  37.7206580 101.3062020 108.6348960  23.6373830  97.0805100 108.5962100
  23.6392270  97.5977490 107.7908000  22.8078140  96.6035280 108.5732030
  24.8876680 106.7200280 106.7735600  24.5546060 107.3469200 107.4156670
  25.0643360 107.2462160 105.9937270  23.3189160  98.7915060 106.6032550
  23.6605970  99.6357110 106.3086420  22.3804970  98.9398800 106.7197890
  24.0995780 108.6881080 108.5884780  24.7169780 109.3632160 108.3069230
  23.2388900 109.0969060 108.4972280  19.3928120 107.8780940  97.4691630
  19.0156100 108.3668040  96.7376530  19.6501190 108.5506220  98.0998160
  35.0173370 110.1520490 106.5039420  34.3336890 110.8219600 106.4956090
  35.5567660 110.3501140 105.7384280  32.5532110 111.9964620 105.2184600
  32.5659270 111.5926910 104.3506860  32.0007330 112.7711910 105.1146030
  31.9517550 106.8994460 106.5467210  32.3686340 106.6854570 105.7120670
  32.6757370 107.1567250 107.1175830  25.4636150 108.5578460 104.6096200
  25.1664440 107.9523930 103.9303980  26.4135970 108.5955770 104.4985560
  23.7083070 101.6454110 106.2256030  24.2597660 101.7549450 105.4509280
  24.2226580 102.0191710 106.9411260  33.5521760 112.1310330 108.2719300
  33.0752320 112.9382520 108.0791910  32.8683550 111.4788660 108.4245510
  24.5554580 108.2960150 111.2604000  23.6583110 108.5200120 111.5077400
  24.5807450 108.4195090 110.3115400  23.3825800 105.1673470 109.8361370
  23.2433570 106.0396270 110.2048770  22.5007160 104.8246280 109.6909310
  25.1806150 111.1095170 112.0446520  25.1521580 111.5138120 111.1774950
  25.0171120 110.1805530 111.8818120  21.6959080 103.7655880  99.9463640
  21.5756680 104.4917970  99.3344910  21.3859970 102.9958790  99.4691550
  37.1320970 111.8922270 113.3410690  37.6080690 112.3705160 114.0199770
  37.7528130 111.8239760 112.6156190  19.3344450 106.9371020 105.7532280
  19.4124870 107.0719790 104.8088000  19.9486130 106.2286910 105.9460400
  20.5792080 108.6371210 102.1638460  20.1720160 108.7785800 101.3092060
  21.4705090 108.3531370 101.9609670  30.3970960 112.7863120 109.0705510
  30.9115630 112.6971130 109.8727940  29.5540040 113.1322820 109.3633420
  31.6401420 112.2068730 101.1336000  32.0958370 111.4258110 101.4474620
  31.9793940 112.9175550 101.6777180  36.3878230 101.1367580 111.4660440
  35.7722500 101.6447250 110.9375900  36.0674650 100.2365910 111.4086380
  19.3903970 107.9785190 108.2926740  19.5535010 107.5090550 107.4746110
  19.8556420 107.4708750 108.9575580  24.1622740  97.1090950 103.3287310
  23.7190890  97.8900490 102.9971830  24.7207730  97.4320840 104.0358250
  33.4497060 101.1968420 110.0619290  32.5990650 100.8974170 110.3828360
  33.2898850 101.4410430 109.1503110  30.5446770 102.6970170 112.1618080
  30.8700180 101.8633920 111.8220310  31.3327100 103.2198690 112.3096410
  27.2781560  96.7301650  98.2093140  26.6535740  96.7261520  98.9346450
  27.1911680  95.8632610  97.8129110  26.3936170 103.1310100 111.7228830
  26.2979770 102.1904830 111.5729230  27.2368150 103.3525170 111.3276900
  21.5246710  99.5423770 109.8762610  21.1310100 100.3898980 110.0835390
  20.8365110  98.9050140 110.0671250  28.0991760  99.6258740 112.9459350
  27.4090080  99.4330940 113.5805440  28.8424060  99.9093380 113.4783650
  18.8263760  97.4652230 103.9092690  18.5376810  98.0355090 104.6217670
  19.5709520  96.9856680 104.2723920  19.0133990 101.4072350  95.1195410
  18.9308660 102.3503110  95.2610400  18.6617050 101.2647260  94.2407760
  30.3754730 103.4657180 105.7813270  29.6435850 103.9743990 106.1303370
  29.9779070 102.6487160 105.4802050  22.6634500 100.0237870 103.1459970
  22.3234550 100.5013100 103.9027020  21.9011820  99.5702990 102.7861070
  34.2651390  96.3323040 111.0322590  34.5897160  95.6012700 111.5580570
  34.3007900  96.0136680 110.1303580  20.9642950 107.3536620 110.4522550
  20.5797740 106.7130290 111.0505510  21.2755140 108.0572740 111.0217280
  19.9780580  98.9456850 102.0624640  19.6927500  98.5812520 102.9003260
  19.9159440  98.2137310 101.4487780  24.9039460 103.2421800 108.2515380
  24.5996530 104.1213780 108.4765740  25.8585920 103.3021590 108.2872820
  23.4321250 107.4482790  98.8482230  22.6583510 106.9080410  98.6880950
  24.1615880 106.9289400  98.5099990  34.1909230 106.4448150 104.6408620
  34.9108350 106.9403440 104.2504730  33.9891050 105.7666040 103.9962490
  29.6519170  97.8386110  98.7838010  28.8383780  97.3399280  98.7083320
  29.4581120  98.6784360  98.3674360  29.5728030 106.5157210 110.5277620
  29.5065340 105.5952880 110.2735210  28.9433170 106.6132650 111.2422260
  20.9603190 104.0824540 109.3986740  20.6018130 104.7478390 109.9860080
  20.6657750 103.2508090 109.7699360  24.1616310 104.5408780 112.2826290
  23.8616450 104.6865960 111.3854110  24.9327550 103.9814070 112.1899680
  29.5044760 109.3377780 110.2781420  29.5189300 108.4058740 110.0600330
  28.7969860 109.4237540 110.9171190  31.2455560 107.7045290 103.1233850
  31.5979380 107.1073420 102.4635220  30.3617890 107.3789520 103.2942100
  19.4711240 104.0815800  96.0221340  20.3406090 104.3640600  96.3057260
  18.9801560 104.8951670  95.9070150  28.9378660 110.9795350 107.3721920
  29.5820880 111.1854730 108.0495340  29.3008100 110.2183750 106.9192770
  22.5357830  95.8126660 100.6152140  22.4072460  95.8044560 101.5637060
  21.7119850  96.1509750 100.2643150  30.2110740 108.9827700 106.0899370
  30.8532970 108.2820860 106.2031540  30.7360090 109.7626140 105.9096260
  31.9848360 109.7822600 109.2935430  32.3204600 110.3689290 109.9713350
  31.0648700 109.6515310 109.5233220  19.8382490 113.2943180  96.5882970
  20.1980130 113.8932520  95.9340240  19.6974830 113.8403070  97.3618000
  19.5351760  97.5717780 110.0758840  18.8210280  97.7714700 110.6811450
  19.9546800  96.7957350 110.4473640  19.8224350 111.5598040 111.0625370
  19.9315470 110.6192780 110.9220760  19.1704910 111.8252790 110.4139100
  27.8136940 109.8313930 112.4623490  27.4933810 109.1123170 113.0069180
  27.1395300 110.5069000 112.5359550  21.4557750 105.8989270  98.1503400
  20.8485700 106.6388170  98.1598700  21.9307100 105.9888630  97.3241600
  34.3952570  99.0197030  98.6347850  33.7665730  99.1242700  97.9206080
  33.9004490  99.2393810  99.4241730  30.3952030  98.0233640 101.4901520
  30.2719810  98.0419770 100.5411030  31.3436590  98.0712580 101.6099920
  24.5671620  99.6068060  97.4256440  25.4162150 100.0438210  97.3596630
  24.2002890  99.9188320  98.2528500  35.1959390  98.9347640 108.8926650
  34.6932990  99.6753040 109.2320460  36.0116050  99.3231640 108.5763440
  22.1609800 103.2925490  96.5824860  22.2413390 102.3453000  96.6942260
  23.0529550 103.6232370  96.6885520  35.4906980 111.3489670 104.0142270
  35.6154400 112.1720840 104.4866080  36.3572540 111.1380400 103.6666420
  22.9624510 113.4420880 103.6859400  23.6986990 112.8936340 103.9567970
  23.3465430 114.3076890 103.5465390  19.8469990 109.5094450  99.5600910
  18.9209770 109.7515590  99.5506320  20.3126420 110.3368710  99.4385660
  21.9682790 112.6266950 112.8744980  22.7695520 112.9479000 113.2880380
  21.4534610 112.2662530 113.5964890  30.8047420 108.7346820 112.8220390
  30.1985580 108.7578420 112.0816140  30.5001530 108.0029860 113.3587640
  32.2347790 112.4627110 111.4329800  33.1869540 112.3785130 111.3830040
  32.0876010 113.1268820 112.1063590  19.6880600 105.1140410 111.8181030
  20.1919620 104.5347690 112.3897260  18.9488020 105.3980640 112.3557400
  26.5904220 107.8354600  95.3727320  26.4854860 107.2206950  96.0988700
  26.4228440 107.3120490  94.5890330  26.7418540 106.5211400 111.3516550
  25.9764210 107.0896400 111.2671220  26.9234500 106.2287610 110.4584780
  21.7203680 103.2570000 112.7131100  21.7609020 102.9583870 113.6216330
  22.5749180 103.6577610 112.5538620  25.4982070 105.8565550  97.8734610
  25.9198490 105.6905420  98.7166000  25.6232910 105.0465780  97.3789750
  23.6609490 101.8362100 110.6805590  23.1305950 101.3453050 110.0528930
  24.3297560 102.2646300 110.1463520  32.5587550 106.3031560 110.4446780
  32.9728570 106.4576640 111.2937200  31.6238550 106.4286780 110.6072560
  33.0309720 103.6427720 112.4485930  33.6130490 102.8880040 112.3606410
  33.2071490 104.1735160 111.6717410  24.1481790  98.8024470 110.7602880
  24.0538660  98.1845220 110.0353750  23.5679180  99.5290760 110.5332790
  27.3202780 106.2552040 108.4142710  27.7390890 107.0984770 108.2418950
  26.4011410 106.3924080 108.1849490  29.6566680 103.9868220 109.7980550
  29.7762890 103.3909360 110.5375390  30.5160680 104.0237910 109.3781850
  31.9954580 104.5405410 108.3743060  31.4689800 105.0648030 107.7708200
  32.3385920 105.1732800 109.0052790  25.1710200 112.5605050 109.5300440
  24.6331290 113.2851110 109.2109140  25.4244160 112.0835390 108.7397780
  31.8729280  96.7407010  97.3479650  32.1531570  95.8974910  97.7039070
  31.0995010  96.9730120  97.8618400  23.1923770  99.0299400  94.8070650
  23.4949670  99.0366830  93.8989800  23.9318360  98.6797260  95.3038310
  28.0272410 113.7956260 109.7887090  27.9531110 114.6991400 110.0959460
  27.1251250 113.4768160 109.7609160  26.4108700  97.9734020  95.7926850
  26.0630700  97.2958010  95.2129300  26.6121470  97.5123530  96.6070240
  22.2153900 108.3341820  95.6400450  22.6528770 108.8771490  96.2958030
  22.7001630 107.5088770  95.6496790  19.4299700 111.1230850 103.0920710
  19.7602710 110.2551910 102.8599350  19.8590700 111.3289370 103.9225670
  19.9189910 111.9901440 105.8302340  19.4820900 112.1702240 106.6626490
  20.4867590 112.7476060 105.6884060  35.5552090 111.4918440 110.1179650
  34.9554080 111.5511000 109.3743570  35.6845990 110.5523420 110.2476500
  19.7514340 104.5021670 102.1891220  19.0963180 104.2333310 101.5450920
  20.5892290 104.3926150 101.7393200  37.2569970 106.8333840 102.8025490
  37.6278800 106.0501160 102.3961460  37.8971900 107.5222940 102.6242790
  34.2403730 108.2170420 108.2155810  33.4263570 108.6467580 108.4781600
  34.6477930 108.8288830 107.6024860  20.7890270 104.8874240 106.7294560
  21.1563310 104.8001640 107.6090580  20.2201090 104.1240790 106.6301420
  20.3406270 101.7983330 110.6352980  19.4462320 101.7650090 110.9746690
  20.8803820 101.9970120 111.4004230  34.0282200  98.5815050 112.5204730
  34.9052380  98.5898450 112.9038730  34.0403040  97.8445890 111.9097080
  18.9652420 101.7120600  98.1316550  18.0616500 101.9750800  97.9568210
  19.4493040 101.9831770  97.3516510  21.5079630 100.7686140  96.0410930
  22.2171330 100.3469360  95.5558210  20.7919570 100.8361370  95.4094280
  34.9645440 101.6917940  99.3485160  35.4604560 101.4588810 100.1334040
  34.7661510 100.8529780  98.9322800  20.8445980  96.0731660 104.9836200
  21.4922170  95.5229040 104.5431360  21.2647820  96.3274810 105.8052010
  34.7398320  96.2673020 108.3405840  35.3770540  96.8807160 108.7065030
  34.8873210  96.3033680 107.3955070  37.3561360  98.9297470  97.7485690
  36.5612860  98.8642590  98.2778600  37.5604640  99.8648110  97.7371040
  34.2979780 112.9689020 101.7424080  34.8938850 112.6473590 101.0658500
  34.5557930 112.4960840 102.5337350  20.5977980  96.2287330 107.7261520
  20.2492800  96.6851150 108.4919700  20.2665680  95.3344460 107.8083950
  22.2042350 109.4006930 111.8914710  22.1611980 109.0299840 112.7729170
  22.3353360 110.3384500 112.0316530  25.9048380 110.9566520 107.4924430
  25.6639740 111.2241080 106.6054950  26.8451020 111.1272250 107.5475290
  37.1652540 112.9760900 108.2935070  36.6710820 113.3729770 107.5762200
  36.5565830 112.3510110 108.6872350  21.2698620  95.7563530 111.0012290
  21.8181610  95.5751580 110.2378400  21.3353930  94.9657640 111.5368600
  22.0430380 112.3469180 109.0112490  21.4490700 112.2153880 109.7502530
  22.0354220 111.5107320 108.5454590  34.8491990 113.6184320 105.5721810
  34.3894960 114.3700130 105.1979830  34.2204450 112.8990790 105.5136610
  21.6742610 109.7127560 107.9620530  20.9476670 109.0932850 107.8946480
  21.7351760 110.1068170 107.0918610  25.2787710 111.9272560 104.7469940
  25.7952730 111.3159920 104.2218200  25.9285090 112.4301340 105.2380950
  28.0183210 112.8181050 105.5738920  28.3061020 112.5635350 104.6971930
  28.5306430 112.2658410 106.1644490  19.9572610 113.0301950 101.1717290
  19.7894650 112.3972630 101.8699180  19.0907120 113.2361350 100.8211480
  20.5800630  96.8618730  98.6749150  21.3379990  96.9747610  98.1013180
  20.1177800  97.6987930  98.6292580  31.6239420  95.6400450 102.9034530
  32.2268790  96.2120660 103.3783050  30.8832410  96.2039890 102.6808430
  34.7674020  96.0422010  98.1774810  34.9624650  96.9405460  98.4442240
  33.9803890  95.8109090  98.6707760  21.5635310 111.7235180  98.6167430
  21.0382930 112.1043210  97.9129390  21.4879890 112.3485950  99.3377140
  22.9525780  97.3882780  97.2151120  23.4818540  96.6012580  97.0859070
  23.5854100  98.0673970  97.4486650  28.0855570 113.7397150 112.9407120
  29.0122880 113.5041420 112.9843080  28.0706000 114.5669150 112.4593150
  36.3200630 113.2822720  99.9381370  36.4952820 112.5960460  99.2942290
  35.6222200 113.8069770  99.5458040  25.2719180  96.4041900 112.7049000
  24.9903450  96.9075500 111.9409820  25.6538880  95.6063650 112.3391130
  24.1628280 113.6717560  97.4916680  24.8947100 113.3876840  96.9440570
  24.4221950 113.4330840  98.3816060  31.8734640  95.8195480 113.2829470
  31.7600090  96.1390090 114.1780990  32.6904380  96.2207990 112.9866750
  34.6533130 112.9667010 112.7648160  35.4458450 112.4716240 112.5574120
  34.9466280 113.6457150 113.3723770  30.7792790 103.8387950  83.6464210
  30.6986840 102.9242560  83.3755920  30.3657210 104.3355020  82.9403920
  32.9318260 110.0227160  84.3072610  32.4699790 109.2514400  84.6359780
  33.7443810 110.0493230  84.8125060  21.3368610 100.8888670  80.1891630
  20.4485310 101.2304640  80.0871510  21.6209800 100.6888990  79.2972460
  29.1581570 112.3085170  83.9276600  28.5393010 112.7642670  83.3571040
  30.0133350 112.4636630  83.5266300  33.1649110  98.5944980  82.6940910
  33.9858730  98.1041550  82.7366390  33.1983190  99.1842640  83.4472750
  25.3537730 102.4406540  85.5555190  25.8615950 102.9387510  86.1960210
  25.8850970 101.6641740  85.3794550  37.4548660 100.6111730  89.2584540
  36.7500830 100.9993440  88.7399650  37.7206580 101.3062020  89.8605470
  30.0244920 107.1924410  81.3208510  29.4062190 107.6573860  80.7571230
  30.5368170 107.8851890  81.7378020  33.4010590 100.5345360  85.4668450
  32.6966160 100.8230250  86.0471560  33.7622750 101.3445470  85.1068010
  19.3928120 107.8780940  78.6948140  19.0156100 108.3668040  77.9633040
  19.6501190 108.5506220  79.3254670  36.4697510  99.9800150  85.8577660
  35.5222420 100.0139130  85.9893090  36.7947500 100.7939100  86.2427020
  32.5532110 111.9964620  86.4441110  32.5659270 111.5926910  85.5763370
  32.0007330 112.7711910  86.3402540  33.8477530 108.7180840  81.5331280
  33.7373860 107.7755170  81.6580700  33.8445780 109.0796480  82.4194040
  31.9517550 106.8994460  87.7723720  32.3686340 106.6854570  86.9377180
  32.6757370 107.1567250  88.3432340  29.3897810 104.3446160  80.8893770
  28.4627090 104.2783540  81.1182240  29.5422630 105.2826290  80.7749010
  29.3766890 100.6163160  77.8860930  28.4370560 100.7777120  77.9713390
  29.6950150 101.3348840  77.3396920  33.4195100 105.9066460  81.3929020
  32.8007520 105.5686010  80.7455320  33.4019550 105.2626220  82.1008210
  23.7083070 101.6454110  87.4512540  24.2597660 101.7549450  86.6765790
  24.2226580 102.0191710  88.1667770  31.5959800 105.1453270  78.4001770
  32.0353080 104.3075700  78.2539590  32.3088220 105.7782670  78.4865910
  29.7055180 110.0849340  82.3683010  30.1451090 110.8273670  81.9538400
  29.6442070 110.3275910  83.2921970  25.1806150 111.1095170  93.2703030
  25.1521580 111.5138120  92.4031460  25.0171120 110.1805530  93.1074630
  21.6959080 103.7655880  81.1720150  21.5756680 104.4917970  80.5601420
  21.3859970 102.9958790  80.6948060  37.1320970 111.8922270  94.5667200
  37.6080690 112.3705160  95.2456280  37.7528130 111.8239760  93.8412700
  20.5792080 108.6371210  83.3894970  20.1720160 108.7785800  82.5348570
  21.4705090 108.3531370  83.1866180  30.3970960 112.7863120  90.2962020
  30.9115630 112.6971130  91.0984450  29.5540040 113.1322820  90.5889930
  32.3725360 113.0718460  79.7246020  32.2126500 112.7821400  80.6227850
  32.2072070 112.2958590  79.1891250  24.8513740 112.8516990  81.5017640
  24.6756220 111.9352530  81.2885440  23.9969480 113.2104280  81.7415440
  32.0751490 110.5806020  78.2844020  31.3816650 110.5783310  77.6246300
  32.8174350 110.1565340  77.8538190  31.6401420 112.2068730  82.3592510
  32.0958370 111.4258110  82.6731130  31.9793940 112.9175550  82.9033690
  36.3878230 101.1367580  92.6916950  35.7722500 101.6447250  92.1632410
  36.0674650 100.2365910  92.6342890  24.1622740  97.1090950  84.5543820
  23.7190890  97.8900490  84.2228340  24.7207730  97.4320840  85.2614760
  26.1998640  97.6538280  86.4133420  26.4970970  98.5601110  86.3325440
  26.7484200  97.1657060  85.7992990  23.9536960 102.2324520  82.2825070
  23.7277880 102.0161690  83.1871690  23.1729490 102.6652980  81.9371040
  31.1834720 102.2387890  80.8815720  30.5843610 102.9623690  80.6979340
  31.7314330 102.1764670  80.0992170  29.7899590 100.8751430  82.9119000
  30.1829160 101.1923630  82.0987690  30.1516440  99.9963310  83.0263520
  19.0133990 101.4072350  76.3451920  18.9308660 102.3503110  76.4866910
  18.6617050 101.2647260  75.4664270  26.8132120 100.1411380  85.4122270
  26.8168180  99.7001330  84.5626810  27.7083240 100.4628710  85.5194090
  30.8380640  98.9190860  86.4192720  30.8553380  99.3699510  87.2634570
  30.5896220  98.0196500  86.6326160  25.8873770 103.4524600  77.8012330
  25.3190670 103.0042850  77.1748240  26.5962770 103.8117380  77.2677480
  23.4321250 107.4482790  80.0738740  22.6583510 106.9080410  79.9137460
  24.1615880 106.9289400  79.7356500  29.5728030 106.5157210  91.7534130
  29.5065340 105.5952880  91.4991720  28.9433170 106.6132650  92.4678770
  32.3667560 102.2105760  78.3056680  33.2547180 102.5222990  78.1308020
  32.3372650 101.3378010  77.9137260  28.3628150 108.3829450  78.9844850
  28.7043850 109.1271680  78.4888170  27.5340860 108.6960570  79.3469680
  29.5044760 109.3377780  91.5037930  29.5189300 108.4058740  91.2856840
  28.7969860 109.4237540  92.1427700  34.6381830 103.5217600  77.7736540
  34.5545550 103.9531820  76.9232980  35.3576020 103.9815950  78.2063360
  35.6669080 110.3759860  80.5018670  35.0245240 109.7215480  80.7762390
  35.2799740 110.7814950  79.7259340  31.2455560 107.7045290  84.3490360
  31.5979380 107.1073420  83.6891730  30.3617890 107.3789520  84.5198610
  19.4711240 104.0815800  77.2477850  20.3406090 104.3640600  77.5313770
  18.9801560 104.8951670  77.1326660  26.6346050 105.4689010  81.3686130
  27.0908830 106.2794260  81.5946320  26.2834260 105.1512150  82.2004620
  28.9378660 110.9795350  88.5978430  29.5820880 111.1854730  89.2751850
  29.3008100 110.2183750  88.1449280  30.2110740 108.9827700  87.3155880
  30.8532970 108.2820860  87.4288050  30.7360090 109.7626140  87.1352770
  34.0566460 109.2676320  77.0395020  33.8304040 108.5506760  77.6319660
  33.6662660 109.0188760  76.2016770  31.9848360 109.7822600  90.5191940
  32.3204600 110.3689290  91.1969860  31.0648700 109.6515310  90.7489730
  19.8382490 113.2943180  77.8139480  20.1980130 113.8932520  77.1596750
  19.6974830 113.8403070  78.5874510  33.6382710 107.1848260  78.7009180
  33.3504410 107.6460950  79.4887060  34.4334880 106.7246030  78.9693400
  19.8224350 111.5598040  92.2881880  19.9315470 110.6192780  92.1477270
  19.1704910 111.8252790  91.6395610  27.8136940 109.8313930  93.6880000
  27.4933810 109.1123170  94.2325690  27.1395300 110.5069000  93.7616060
  25.8551110 110.6774380  78.6313150  25.8461210 111.4104070  78.0157660
  24.9349470 110.4305960  78.7240110  21.4557750 105.8989270  79.3759910
  20.8485700 106.6388170  79.3855210  21.9307100 105.9888630  78.5498110
  34.3952570  99.0197030  79.8604360  33.7665730  99.1242700  79.1462590
  33.9004490  99.2393810  80.6498240  28.8410710 110.7402620  77.2938340
  28.9422690 110.5366610  76.3640320  27.9412450 110.4860900  77.4986120
  26.3636600 101.2982980  81.2762240  25.6552750 101.7669320  81.7175850
  26.6481080 100.6404990  81.9107430  30.3952030  98.0233640  82.7158030
  30.2719810  98.0419770  81.7667540  31.3436590  98.0712580  82.8356430
  27.4828820 113.2588940  81.9886010  27.7370320 113.2210330  81.0665380
  26.5341300 113.1322270  81.9814260  35.1959390  98.9347640  90.1183160
  34.6932990  99.6753040  90.4576970  36.0116050  99.3231640  89.8019950
  33.4881400 104.1780820  83.5644520  32.5471540 104.1931050  83.7392210
  33.8025470 103.3916780  84.0104820  23.4663040 105.8600420  77.1248480
  24.2326310 105.7481780  77.6873910  23.5437730 105.1638390  76.4725250
  22.1609800 103.2925490  77.8081370  22.2413390 102.3453000  77.9198770
  23.0529550 103.6232370  77.9142030  22.9624510 113.4420880  84.9115910
  23.6986990 112.8936340  85.1824480  23.3465430 114.3076890  84.7721900
  19.8469990 109.5094450  80.7857420  18.9209770 109.7515590  80.7762830
  20.3126420 110.3368710  80.6642170  21.9682790 112.6266950  94.1001490
  22.7695520 112.9479000  94.5136890  21.4534610 112.2662530  94.8221400
  26.0726820 112.6151190  76.7341480  26.8655430 112.9040020  76.2823270
  25.5531170 112.1843360  76.0553960  35.1256990 111.8421320  78.1578220
  34.8398500 111.4286460  77.3432400  34.9276540 112.7709030  78.0378740
  26.5904220 107.8354600  76.5983830  26.4854860 107.2206950  77.3245210
  26.4228440 107.3120490  75.8146840  29.8306950 106.8974630  77.2025820
  29.2817050 107.3443930  77.8468560  30.4526210 106.3923880  77.7263490
  25.4982070 105.8565550  79.0991120  25.9198490 105.6905420  79.9422510
  25.6232910 105.0465780  78.6046260  28.0109710 104.8803160  76.3468220
  28.5315370 104.1652180  75.9809370  28.6578110 105.5189030  76.6468730
  32.5587550 106.3031560  91.6703290  32.9728570 106.4576640  92.5193710
  31.6238550 106.4286780  91.8329070  24.3940970 101.9298780  76.0449280
  24.1930030 101.0666140  76.4062620  24.2233020 101.8432140  75.1070880
  25.1710200 112.5605050  90.7556950  24.6331290 113.2851110  90.4365650
  25.4244160 112.0835390  89.9654290  31.8729280  96.7407010  78.5736160
  32.1531570  95.8974910  78.9295580  31.0995010  96.9730120  79.0874910
  23.1923770  99.0299400  76.0327160  23.4949670  99.0366830  75.1246310
  23.9318360  98.6797260  76.5294820  28.0272410 113.7956260  91.0143600
  27.9531110 114.6991400  91.3215970  27.1251250 113.4768160  90.9865670
  28.5757740 112.9614770  78.6369960  29.4708530 113.2999740  78.6588720
  28.6075370 112.2394180  78.0094240  22.2153900 108.3341820  76.8656960
  22.6528770 108.8771490  77.5214540  22.7001630 107.5088770  76.8753300
  19.4299700 111.1230850  84.3177220  19.7602710 110.2551910  84.0855860
  19.8590700 111.3289370  85.1482180  24.0261620 109.4539860  81.9779190
  23.7257160 109.3304830  82.8783100  23.9199110 108.5948450  81.5694920
  19.9189910 111.9901440  87.0558850  19.4820900 112.1702240  87.8883000
  20.4867590 112.7476060  86.9140570  36.7953540 109.2336260  76.6805870
  35.9646500 109.3012910  77.1513100  36.9725370 110.1240380  76.3772730
  36.2510000 105.9783740  79.1840070  37.0128910 106.5480390  79.2899760
  36.2664370 105.4110940  79.9548380  37.2569970 106.8333840  84.0282000
  37.6278800 106.0501160  83.6217970  37.8971900 107.5222940  83.8499300
  36.3029170 106.2718110  76.3412590  36.5778010 107.1796990  76.2131810
  36.1139910 106.2080640  77.2774580  32.7004780  99.2962960  77.6366220
  33.1189660  99.1093940  76.7962880  32.3940840  98.4442010  77.9469150
  36.1994510 104.2087100  81.3342020  35.8238110 103.4415030  80.9023310
  35.4697630 104.5909800  81.8216950  35.5894130 103.3558620  90.9681540
  35.3580220 103.1271370  90.0679490  35.8498680 104.2758170  90.9226430
  18.9652420 101.7120600  79.3573060  18.0616500 101.9750800  79.1824720
  19.4493040 101.9831770  78.5773020  35.4745470 102.4344590  84.6349260
  35.9982950 101.9407240  84.0039430  36.0604890 102.5694950  85.3796830
  35.6535190 102.5184460  88.1568810  34.7037900 102.4848000  88.2713800
  35.8348200 103.4284570  87.9218580  21.5079630 100.7686140  77.2667440
  22.2171330 100.3469360  76.7814720  20.7919570 100.8361370  76.6350790
  21.1553790  96.8225470  76.3070090  21.8781920  97.3634410  76.6251310
  21.4278310  96.5488890  75.4311630  34.9645440 101.6917940  80.5741670
  35.4604560 101.4588810  81.3590550  34.7661510 100.8529780  80.1579310
  20.8445980  96.0731660  86.2092710  21.4922170  95.5229040  85.7687870
  21.2647820  96.3274810  87.0308520  36.3932600 100.3278890  83.1079350
  36.2831880 100.1734930  84.0461620  37.1540190  99.7999830  82.8654760
  34.7398320  96.2673020  89.5662350  35.3770540  96.8807160  89.9321540
  34.8873210  96.3033680  88.6211580  37.3561360  98.9297470  78.9742200
  36.5612860  98.8642590  79.5035110  37.5604640  99.8648110  78.9627550
  22.2042350 109.4006930  93.1171220  22.1611980 109.0299840  93.9985680
  22.3353360 110.3384500  93.2573040  25.9048380 110.9566520  88.7180940
  25.6639740 111.2241080  87.8311460  26.8451020 111.1272250  88.7731800
  37.1652540 112.9760900  89.5191580  36.6710820 113.3729770  88.8018710
  36.5565830 112.3510110  89.9128860  31.4885400  95.6401410  88.4399030
  30.6145240  95.9736520  88.2371960  31.3796150  95.1674590  89.2650900
  32.3957380  97.8472280  89.8240750  32.0670740  97.0324040  89.4442480
  33.3439680  97.8042090  89.7006440  25.2787710 111.9272560  85.9726450
  25.7952730 111.3159920  85.4474710  25.9285090 112.4301340  86.4637460
  28.0183210 112.8181050  86.7995430  28.3061020 112.5635350  85.9228440
  28.5306430 112.2658410  87.3901000  29.2360220  96.5571250  87.3791940
  28.4532010  97.0316750  87.6588700  28.9423150  95.6526080  87.2705120
  33.7881290  97.2594350  85.4241030  34.2289380  97.2039450  84.5762630
  33.5188880  98.1752360  85.4951210  35.6519860  96.8909590  83.4349850
  35.5908260  95.9470810  83.2880870  36.4311890  96.9989680  83.9803310
  19.9572610 113.0301950  82.3973800  19.7894650 112.3972630  83.0955690
  19.0907120 113.2361350  82.0467990  20.5800630  96.8618730  79.9005660
  21.3379990  96.9747610  79.3269690  20.1177800  97.6987930  79.8549090
  27.1214440  98.9758000  82.8907970  26.3088950  98.6014890  82.5503850
  27.6256080  98.2203080  83.1929160  31.6239420  95.6400450  84.1291040
  32.2268790  96.2120660  84.6039560  30.8832410  96.2039890  83.9064940
  34.7674020  96.0422010  79.4031320  34.9624650  96.9405460  79.6698750
  33.9803890  95.8109090  79.8964270  21.5635310 111.7235180  79.8423940
  21.0382930 112.1043210  79.1385900  21.4879890 112.3485950  80.5633650
  24.1628280 113.6717560  78.7173190  24.8947100 113.3876840  78.1697080
  24.4221950 113.4330840  79.6072570  23.3243070 109.7882290  78.7219520
  22.6951950 110.2567390  79.2705350  23.4390900 108.9431510  79.1565710
  31.8734640  95.8195480  94.5085980  31.7600090  96.1390090  95.4037500
  32.6904380  96.2207990  94.2123260  30.7792790 103.8387950  64.8720720
  30.6986840 102.9242560  64.6012430  30.3657210 104.3355020  64.1660430
  28.9110830 105.6166970  66.7529990  28.1352930 105.1367410  67.0428560
  29.5623760 104.9372620  66.5786150  22.9276660 105.9286780  67.6305750
  22.0961540 105.6735490  68.0302260  23.5357640 105.9997550  68.3663670
  32.9318260 110.0227160  65.5329120  32.4699790 109.2514400  65.8616290
  33.7443810 110.0493230  66.0381570  22.9077920 109.9626870  67.8263770
  23.2105960 109.0724610  67.6473990  23.6521510 110.5197090  67.5986020
  21.3368610 100.8888670  61.4148140  20.4485310 101.2304640  61.3128020
  21.6209800 100.6888990  60.5228970  19.3001620 103.4894320  67.2987840
  19.8717730 102.7216520  67.2991480  19.3003160 103.7883080  66.3894450
  29.1581570 112.3085170  65.1533110  28.5393010 112.7642670  64.5827550
  30.0133350 112.4636630  64.7522810  28.3519820 108.2924160  66.7600150
  28.2828100 107.3514100  66.5989280  29.1139680 108.3825570  67.3322720
  29.3824990 101.0994540  66.9869080  29.7589810 100.2266420  66.8742750
  29.2844500 101.4353240  66.0959520  23.5130000  99.4720170  62.4486520
  23.6196750 100.3723900  62.7555280  22.6022360  99.4238140  62.1581170
  33.1649110  98.5944980  63.9197420  33.9858730  98.1041550  63.9622900
  33.1983190  99.1842640  64.6729260  25.3537730 102.4406540  66.7811700
  25.8615950 102.9387510  67.4216720  25.8850970 101.6641740  66.6051060
  30.0244920 107.1924410  62.5465020  29.4062190 107.6573860  61.9827740
  30.5368170 107.8851890  62.9634530  24.8876680 106.7200280  69.2248620
  24.5546060 107.3469200  69.8669690  25.0643360 107.2462160  68.4450290
  24.0995780 108.6881080  71.0397800  24.7169780 109.3632160  70.7582250
  23.2388900 109.0969060  70.9485300  19.3928120 107.8780940  59.9204650
  19.0156100 108.3668040  59.1889550  19.6501190 108.5506220  60.5511180
  35.0173370 110.1520490  68.9552440  34.3336890 110.8219600  68.9469110
  35.5567660 110.3501140  68.1897300  27.0017050  96.2797330  65.3790160
  27.3092030  95.7244220  64.6625660  26.0717750  96.4141790  65.1963150
  32.5532110 111.9964620  67.6697620  32.5659270 111.5926910  66.8019880
  32.0007330 112.7711910  67.5659050  33.8477530 108.7180840  62.7587790
  33.7373860 107.7755170  62.8837210  33.8445780 109.0796480  63.6450550
  35.8979650 105.2981680  69.0896470  35.0698280 105.3674770  68.6146600
  36.4930130 105.8835990  68.6212300  33.4195100 105.9066460  62.6185530
  32.8007520 105.5686010  61.9711830  33.4019550 105.2626220  63.3264720
  24.9954450 104.8710900  64.8970010  24.5911450 104.1588150  64.4015910
  25.0817570 104.5264140  65.7858050  25.4636150 108.5578460  67.0609220
  25.1664440 107.9523930  66.3817000  26.4135970 108.5955770  66.9498580
  23.7083070 101.6454110  68.6769050  24.2597660 101.7549450  67.9022300
  24.2226580 102.0191710  69.3924280  24.5554580 108.2960150  73.7117020
  23.6583110 108.5200120  73.9590420  24.5807450 108.4195090  72.7628420
  23.3825800 105.1673470  72.2874390  23.2433570 106.0396270  72.6561790
  22.5007160 104.8246280  72.1422330  29.7055180 110.0849340  63.5939520
  30.1451090 110.8273670  63.1794910  29.6442070 110.3275910  64.5178480
  25.1806150 111.1095170  74.4959540  25.1521580 111.5138120  73.6287970
  25.0171120 110.1805530  74.3331140  35.1776940  96.3996080  57.9399320
  34.8649600  96.4922910  58.8398390  35.9389410  96.9777110  57.8896750
  21.6959080 103.7655880  62.3976660  21.5756680 104.4917970  61.7857930
  21.3859970 102.9958790  61.9204570  19.3344450 106.9371020  68.2045300
  19.4124870 107.0719790  67.2601020  19.9486130 106.2286910  68.3973420
  20.5792080 108.6371210  64.6151480  20.1720160 108.7785800  63.7605080
  21.4705090 108.3531370  64.4122690  36.5354220 109.0835120  72.9523720
  36.6617280 108.8447000  72.0340900  36.5775600 108.2519660  73.4245800
  30.3970960 112.7863120  71.5218530  30.9115630 112.6971130  72.3240960
  29.5540040 113.1322820  71.8146440  32.3725360 113.0718460  60.9502530
  32.2126500 112.7821400  61.8484360  32.2072070 112.2958590  60.4147760
  24.8513740 112.8516990  62.7274150  24.6756220 111.9352530  62.5141950
  23.9969480 113.2104280  62.9671950  31.6401420 112.2068730  63.5849020
  32.0958370 111.4258110  63.8987640  31.9793940 112.9175550  64.1290200
  36.3878230 101.1367580  73.9173460  35.7722500 101.6447250  73.3888920
  36.0674650 100.2365910  73.8599400  19.3903970 107.9785190  70.7439760
  19.5535010 107.5090550  69.9259130  19.8556420 107.4708750  71.4088600
  28.4492550  99.9759470  71.3835650  27.9871920 100.1842490  72.1955590
  28.0470660  99.1618820  71.0806320  27.2781560  96.7301650  60.6606160
  26.6535740  96.7261520  61.3859470  27.1911680  95.8632610  60.2642130
  23.9536960 102.2324520  63.5081580  23.7277880 102.0161690  64.4128200
  23.1729490 102.6652980  63.1627550  31.1834720 102.2387890  62.1072230
  30.5843610 102.9623690  61.9235850  31.7314330 102.1764670  61.3248680
  29.7899590 100.8751430  64.1375510  30.1829160 101.1923630  63.3244200
  30.1516440  99.9963310  64.2520030  21.5246710  99.5423770  72.3275630
  21.1310100 100.3898980  72.5348410  20.8365110  98.9050140  72.5184270
  28.0991760  99.6258740  75.3972370  27.4090080  99.4330940  76.0318460
  28.8424060  99.9093380  75.9296670  19.0133990 101.4072350  57.5708430
  18.9308660 102.3503110  57.7123420  18.6617050 101.2647260  56.6920780
  26.8132120 100.1411380  66.6378780  26.8168180  99.7001330  65.7883320
  27.7083240 100.4628710  66.7450600  22.6634500 100.0237870  65.5972990
  22.3234550 100.5013100  66.3540040  21.9011820  99.5702990  65.2374090
  30.8380640  98.9190860  67.6449230  30.8553380  99.3699510  68.4891080
  30.5896220  98.0196500  67.8582670  20.9642950 107.3536620  72.9035570
  20.5797740 106.7130290  73.5018530  21.2755140 108.0572740  73.4730300
  27.1140090 104.2013160  68.3844190  27.4810220 103.7271730  69.1305530
  26.9245150 105.0754730  68.7252530  19.9780580  98.9456850  64.5137660
  19.6927500  98.5812520  65.3516280  19.9159440  98.2137310  63.9000800
  24.9039460 103.2421800  70.7028400  24.5996530 104.1213780  70.9278760
  25.8585920 103.3021590  70.7385840  23.4321250 107.4482790  61.2995250
  22.6583510 106.9080410  61.1393970  24.1615880 106.9289400  60.9613010
  34.1909230 106.4448150  67.0921640  34.9108350 106.9403440  66.7017750
  33.9891050 105.7666040  66.4475510  29.6519170  97.8386110  61.2351030
  28.8383780  97.3399280  61.1596340  29.4581120  98.6784360  60.8187380
  23.4758650 107.1163170  64.9374060  23.9937320 106.3131430  64.8830950
  23.0242670 107.0542310  65.7790890  20.9603190 104.0824540  71.8499760
  20.6018130 104.7478390  72.4373100  20.6657750 103.2508090  72.2212380
  24.1616310 104.5408780  74.7339310  23.8616450 104.6865960  73.8367130
  24.9327550 103.9814070  74.6412700  29.5044760 109.3377780  72.7294440
  29.5189300 108.4058740  72.5113350  28.7969860 109.4237540  73.3684210
  35.7155970 105.9785120  72.0763020  34.9904160 106.5713900  71.8792410
  36.2431430 105.9708660  71.2776390  35.6669080 110.3759860  61.7275180
  35.0245240 109.7215480  62.0018900  35.2799740 110.7814950  60.9515850
  31.2455560 107.7045290  65.5746870  31.5979380 107.1073420  64.9148240
  30.3617890 107.3789520  65.7455120  27.3318840 108.4642980  62.9817280
  28.0189970 109.0112190  63.3624870  26.5451260 109.0083710  63.0166890
  19.4711240 104.0815800  58.4734360  20.3406090 104.3640600  58.7570280
  18.9801560 104.8951670  58.3583170  26.6346050 105.4689010  62.5942640
  27.0908830 106.2794260  62.8202830  26.2834260 105.1512150  63.4261130
  28.9378660 110.9795350  69.8234940  29.5820880 111.1854730  70.5008360
  29.3008100 110.2183750  69.3705790  22.5357830  95.8126660  63.0665160
  22.4072460  95.8044560  64.0150080  21.7119850  96.1509750  62.7156170
  30.2110740 108.9827700  68.5412390  30.8532970 108.2820860  68.6544560
  30.7360090 109.7626140  68.3609280  31.9848360 109.7822600  71.7448450
  32.3204600 110.3689290  72.4226370  31.0648700 109.6515310  71.9746240
  19.8382490 113.2943180  59.0395990  20.1980130 113.8932520  58.3853260
  19.6974830 113.8403070  59.8131020  19.8224350 111.5598040  73.5138390
  19.9315470 110.6192780  73.3733780  19.1704910 111.8252790  72.8652120
  27.8136940 109.8313930  74.9136510  27.4933810 109.1123170  75.4582200
  27.1395300 110.5069000  74.9872570  25.8551110 110.6774380  59.8569660
  25.8461210 111.4104070  59.2414170  24.9349470 110.4305960  59.9496620
  21.4557750 105.8989270  60.6016420  20.8485700 106.6388170  60.6111720
  21.9307100 105.9888630  59.7754620  34.3952570  99.0197030  61.0860870
  33.7665730  99.1242700  60.3719100  33.9004490  99.2393810  61.8754750
  26.3636600 101.2982980  62.5018750  25.6552750 101.7669320  62.9432360
  26.6481080 100.6404990  63.1363940  30.3952030  98.0233640  63.9414540
  30.2719810  98.0419770  62.9924050  31.3436590  98.0712580  64.0612940
  27.4828820 113.2588940  63.2142520  27.7370320 113.2210330  62.2921890
  26.5341300 113.1322270  63.2070770  24.5671620  99.6068060  59.8769460
  25.4162150 100.0438210  59.8109650  24.2002890  99.9188320  60.7041520
  33.4881400 104.1780820  64.7901030  32.5471540 104.1931050  64.9648720
  33.8025470 103.3916780  65.2361330  23.4663040 105.8600420  58.3504990
  24.2326310 105.7481780  58.9130420  23.5437730 105.1638390  57.6981760
  22.1609800 103.2925490  59.0337880  22.2413390 102.3453000  59.1455280
  23.0529550 103.6232370  59.1398540  35.4906980 111.3489670  66.4655290
  35.6154400 112.1720840  66.9379100  36.3572540 111.1380400  66.1179440
  22.9624510 113.4420880  66.1372420  23.6986990 112.8936340  66.4080990
  23.3465430 114.3076890  65.9978410  19.8469990 109.5094450  62.0113930
  18.9209770 109.7515590  62.0019340  20.3126420 110.3368710  61.8898680
  21.9682790 112.6266950  75.3258000  22.7695520 112.9479000  75.7393400
  21.4534610 112.2662530  76.0477910  30.8047420 108.7346820  75.2733410
  30.1985580 108.7578420  74.5329160  30.5001530 108.0029860  75.8100660
  19.6880600 105.1140410  74.2694050  20.1919620 104.5347690  74.8410280
  18.9488020 105.3980640  74.8070420  33.8841890 108.2516730  74.3604590
  34.6251360 108.5892490  73.8572050  33.1214570 108.4208790  73.8074360
  21.7203680 103.2570000  75.1644120  21.7609020 102.9583870  76.0729350
  22.5749180 103.6577610  75.0051640  23.6609490 101.8362100  73.1318610
  23.1305950 101.3453050  72.5041950  24.3297560 102.2646300  72.5976540
  24.1481790  98.8024470  73.2115900  24.0538660  98.1845220  72.4866770
  23.5679180  99.5290760  72.9845810  24.3940970 101.9298780  57.2705790
  24.1930030 101.0666140  57.6319130  24.2233020 101.8432140  56.3327390
  25.1710200 112.5605050  71.9813460  24.6331290 113.2851110  71.6622160
  25.4244160 112.0835390  71.1910800  26.4235450 100.5289570  73.5069390
  27.0135140 100.2205420  74.1947210  25.6055690 100.0569320  73.6629290
  31.2428880 100.1455380  73.7402410  30.5544400  99.4836920  73.6752400
  31.9634900  99.6993650  74.1850870  31.8729280  96.7407010  59.7992670
  32.1531570  95.8974910  60.1552090  31.0995010  96.9730120  60.3131420
  23.1923770  99.0299400  57.2583670  23.4949670  99.0366830  56.3502820
  23.9318360  98.6797260  57.7551330  28.0272410 113.7956260  72.2400110
  27.9531110 114.6991400  72.5472480  27.1251250 113.4768160  72.2122180
  26.4108700  97.9734020  58.2439870  26.0630700  97.2958010  57.6642320
  26.6121470  97.5123530  59.0583260  28.5757740 112.9614770  59.8626470
  29.4708530 113.2999740  59.8845230  28.6075370 112.2394180  59.2350750
  22.2153900 108.3341820  58.0913470  22.6528770 108.8771490  58.7471050
  22.7001630 107.5088770  58.1009810  19.4299700 111.1230850  65.5433730
  19.7602710 110.2551910  65.3112370  19.8590700 111.3289370  66.3738690
  24.0261620 109.4539860  63.2035700  23.7257160 109.3304830  64.1039610
  23.9199110 108.5948450  62.7951430  19.9189910 111.9901440  68.2815360
  19.4820900 112.1702240  69.1139510  20.4867590 112.7476060  68.1397080
  36.2510000 105.9783740  60.4096580  37.0128910 106.5480390  60.5156270
  36.2664370 105.4110940  61.1804890  19.7514340 104.5021670  64.6404240
  19.0963180 104.2333310  63.9963940  20.5892290 104.3926150  64.1906220
  37.2569970 106.8333840  65.2538510  37.6278800 106.0501160  64.8474480
  37.8971900 107.5222940  65.0755810  34.2403730 108.2170420  70.6668830
  33.4263570 108.6467580  70.9294620  34.6477930 108.8288830  70.0537880
  32.7004780  99.2962960  58.8622730  33.1189660  99.1093940  58.0219390
  32.3940840  98.4442010  59.1725660  36.1994510 104.2087100  62.5598530
  35.8238110 103.4415030  62.1279820  35.4697630 104.5909800  63.0473460
  20.7890270 104.8874240  69.1807580  21.1563310 104.8001640  70.0603600
  20.2201090 104.1240790  69.0814440  35.5894130 103.3558620  72.1938050
  35.3580220 103.1271370  71.2936000  35.8498680 104.2758170  72.1482940
  20.3406270 101.7983330  73.0866000  19.4462320 101.7650090  73.4259710
  20.8803820 101.9970120  73.8517250  18.9652420 101.7120600  60.5829570
  18.0616500 101.9750800  60.4081230  19.4493040 101.9831770  59.8029530
  35.4745470 102.4344590  65.8605770  35.9982950 101.9407240  65.2295940
  36.0604890 102.5694950  66.6053340  21.5079630 100.7686140  58.4923950
  22.2171330 100.3469360  58.0071230  20.7919570 100.8361370  57.8607300
  21.1553790  96.8225470  57.5326600  21.8781920  97.3634410  57.8507820
  21.4278310  96.5488890  56.6568140  34.9645440 101.6917940  61.7998180
  35.4604560 101.4588810  62.5847060  34.7661510 100.8529780  61.3835820
  36.3932600 100.3278890  64.3335860  36.2831880 100.1734930  65.2718130
  37.1540190  99.7999830  64.0911270  37.3561360  98.9297470  60.1998710
  36.5612860  98.8642590  60.7291620  37.5604640  99.8648110  60.1884060
  34.2979780 112.9689020  64.1937100  34.8938850 112.6473590  63.5171520
  34.5557930 112.4960840  64.9850370  22.2042350 109.4006930  74.3427730
  22.1611980 109.0299840  75.2242190  22.3353360 110.3384500  74.4829550
  25.9048380 110.9566520  69.9437450  25.6639740 111.2241080  69.0567970
  26.8451020 111.1272250  69.9988310  28.1102800  97.4199210  73.6993960
  28.0491690  98.0121040  74.4489370  29.0503180  97.3125170  73.5544220
  30.7477360  97.0769270  73.3386250  31.3617770  97.3948560  72.6767330
  31.2926920  96.5917860  73.9582110  37.1652540 112.9760900  70.7448090
  36.6710820 113.3729770  70.0275220  36.5565830 112.3510110  71.1385370
  21.2698620  95.7563530  73.4525310  21.8181610  95.5751580  72.6891420
  21.3353930  94.9657640  73.9881620  22.0430380 112.3469180  71.4625510
  21.4490700 112.2153880  72.2015550  22.0354220 111.5107320  70.9967610
  34.8491990 113.6184320  68.0234830  34.3894960 114.3700130  67.6492850
  34.2204450 112.8990790  67.9649630  21.6742610 109.7127560  70.4133550
  20.9476670 109.0932850  70.3459500  21.7351760 110.1068170  69.5431630
  25.2787710 111.9272560  67.1982960  25.7952730 111.3159920  66.6731220
  25.9285090 112.4301340  67.6893970  28.0183210 112.8181050  68.0251940
  28.3061020 112.5635350  67.1484950  28.5306430 112.2658410  68.6157510
  29.2360220  96.5571250  68.6048450  28.4532010  97.0316750  68.8845210
  28.9423150  95.6526080  68.4961630  35.6519860  96.8909590  64.6606360
  35.5908260  95.9470810  64.5137380  36.4311890  96.9989680  65.2059820
  19.9572610 113.0301950  63.6230310  19.7894650 112.3972630  64.3212200
  19.0907120 113.2361350  63.2724500  20.5800630  96.8618730  61.1262170
  21.3379990  96.9747610  60.5526200  20.1177800  97.6987930  61.0805600
  27.1214440  98.9758000  64.1164480  26.3088950  98.6014890  63.7760360
  27.6256080  98.2203080  64.4185670  31.6239420  95.6400450  65.3547550
  32.2268790  96.2120660  65.8296070  30.8832410  96.2039890  65.1321450
  34.7674020  96.0422010  60.6287830  34.9624650  96.9405460  60.8955260
  33.9803890  95.8109090  61.1220780  21.5635310 111.7235180  61.0680450
  21.0382930 112.1043210  60.3642410  21.4879890 112.3485950  61.7890160
  22.9525780  97.3882780  59.6664140  23.4818540  96.6012580  59.5372090
  23.5854100  98.0673970  59.8999670  25.1463620  97.1257920  62.7209530
  24.5166360  96.4245230  62.8879660  24.6068760  97.8862050  62.5042690
  28.0855570 113.7397150  75.3920140  29.0122880 113.5041420  75.4356100
  28.0706000 114.5669150  74.9106170  36.3200630 113.2822720  62.3894390
  36.4952820 112.5960460  61.7455310  35.6222200 113.8069770  61.9971060
  25.2719180  96.4041900  75.1562020  24.9903450  96.9075500  74.3922840
  25.6538880  95.6063650  74.7904150  24.1628280 113.6717560  59.9429700
  24.8947100 113.3876840  59.3953590  24.4221950 113.4330840  60.8329080
  23.3243070 109.7882290  59.9476030  22.6951950 110.2567390  60.4961860
  23.4390900 108.9431510  60.3822220  31.8734640  95.8195480  75.7342490
  31.7600090  96.1390090  76.6294010  32.6904380  96.2207990  75.4379770
  32.9318260 110.0227160  46.7585630  32.4699790 109.2514400  47.0872800
  33.7443810 110.0493230  47.2638080  22.9077920 109.9626870  49.0520280
  23.2105960 109.0724610  48.8730500  23.6521510 110.5197090  48.8242530
  21.3368610 100.8888670  42.6404650  20.4485310 101.2304640  42.5384530
  21.6209800 100.6888990  41.7485480  19.3001620 103.4894320  48.5244350
  19.8717730 102.7216520  48.5247990  19.3003160 103.7883080  47.6150960
  29.1581570 112.3085170  46.3789620  28.5393010 112.7642670  45.8084060
  30.0133350 112.4636630  45.9779320  28.3519820 108.2924160  47.9856660
  28.2828100 107.3514100  47.8245790  29.1139680 108.3825570  48.5579230
  23.5130000  99.4720170  43.6743030  23.6196750 100.3723900  43.9811790
  22.6022360  99.4238140  43.3837680  23.6373830  97.0805100  52.2731630
  23.6392270  97.5977490  51.4677530  22.8078140  96.6035280  52.2501560
  24.0995780 108.6881080  52.2654310  24.7169780 109.3632160  51.9838760
  23.2388900 109.0969060  52.1741810  19.3928120 107.8780940  41.1461160
  19.0156100 108.3668040  40.4146060  19.6501190 108.5506220  41.7767690
  35.0173370 110.1520490  50.1808950  34.3336890 110.8219600  50.1725620
  35.5567660 110.3501140  49.4153810  36.4697510  99.9800150  48.3090680
  35.5222420 100.0139130  48.4406110  36.7947500 100.7939100  48.6940040
  27.0017050  96.2797330  46.6046670  27.3092030  95.7244220  45.8882170
  26.0717750  96.4141790  46.4219660  32.5532110 111.9964620  48.8954130
  32.5659270 111.5926910  48.0276390  32.0007330 112.7711910  48.7915560
  33.8477530 108.7180840  43.9844300  33.7373860 107.7755170  44.1093720
  33.8445780 109.0796480  44.8707060  31.9517550 106.8994460  50.2236740
  32.3686340 106.6854570  49.3890200  32.6757370 107.1567250  50.7945360
  29.3766890 100.6163160  40.3373950  28.4370560 100.7777120  40.4226410
  29.6950150 101.3348840  39.7909940  32.8621660 102.0851000  51.2607850
  32.4492840 102.9104710  51.5147840  32.1297610 101.4996040  51.0684210
  25.4636150 108.5578460  48.2865730  25.1664440 107.9523930  47.6073510
  26.4135970 108.5955770  48.1755090  24.5554580 108.2960150  54.9373530
  23.6583110 108.5200120  55.1846930  24.5807450 108.4195090  53.9884930
  29.7055180 110.0849340  44.8196030  30.1451090 110.8273670  44.4051420
  29.6442070 110.3275910  45.7434990  25.1806150 111.1095170  55.7216050
  25.1521580 111.5138120  54.8544480  25.0171120 110.1805530  55.5587650
  35.1776940  96.3996080  39.1655830  34.8649600  96.4922910  40.0654900
  35.9389410  96.9777110  39.1153260  21.6959080 103.7655880  43.6233170
  21.5756680 104.4917970  43.0114440  21.3859970 102.9958790  43.1461080
  19.3344450 106.9371020  49.4301810  19.4124870 107.0719790  48.4857530
  19.9486130 106.2286910  49.6229930  20.5792080 108.6371210  45.8407990
  20.1720160 108.7785800  44.9861590  21.4705090 108.3531370  45.6379200
  32.3725360 113.0718460  42.1759040  32.2126500 112.7821400  43.0740870
  32.2072070 112.2958590  41.6404270  24.8513740 112.8516990  43.9530660
  24.6756220 111.9352530  43.7398460  23.9969480 113.2104280  44.1928460
  32.0751490 110.5806020  40.7357040  31.3816650 110.5783310  40.0759320
  32.8174350 110.1565340  40.3051210  31.6401420 112.2068730  44.8105530
  32.0958370 111.4258110  45.1244150  31.9793940 112.9175550  45.3546710
  19.3903970 107.9785190  51.9696270  19.5535010 107.5090550  51.1515640
  19.8556420 107.4708750  52.6345110  24.1622740  97.1090950  47.0056840
  23.7190890  97.8900490  46.6741360  24.7207730  97.4320840  47.7127780
  28.4492550  99.9759470  52.6092160  27.9871920 100.1842490  53.4212100
  28.0470660  99.1618820  52.3062830  33.4497060 101.1968420  53.7388820
  32.5990650 100.8974170  54.0597890  33.2898850 101.4410430  52.8272640
  26.1998640  97.6538280  48.8646440  26.4970970  98.5601110  48.7838460
  26.7484200  97.1657060  48.2506010  23.9536960 102.2324520  44.7338090
  23.7277880 102.0161690  45.6384710  23.1729490 102.6652980  44.3884060
  26.3936170 103.1310100  55.3998360  26.2979770 102.1904830  55.2498760
  27.2368150 103.3525170  55.0046430  28.0991760  99.6258740  56.6228880
  27.4090080  99.4330940  57.2574970  28.8424060  99.9093380  57.1553180
  19.0133990 101.4072350  38.7964940  18.9308660 102.3503110  38.9379930
  18.6617050 101.2647260  37.9177290  22.6634500 100.0237870  46.8229500
  22.3234550 100.5013100  47.5796550  21.9011820  99.5702990  46.4630600
  26.8752270 101.1423460  40.8542050  26.9965090 101.1009940  41.8027870
  26.4900780 102.0047610  40.6988780  25.8873770 103.4524600  40.2525350
  25.3190670 103.0042850  39.6261260  26.5962770 103.8117380  39.7190500
  20.9642950 107.3536620  54.1292080  20.5797740 106.7130290  54.7275040
  21.2755140 108.0572740  54.6986810  19.9780580  98.9456850  45.7394170
  19.6927500  98.5812520  46.5772790  19.9159440  98.2137310  45.1257310
  23.4321250 107.4482790  42.5251760  22.6583510 106.9080410  42.3650480
  24.1615880 106.9289400  42.1869520  34.1909230 106.4448150  48.3178150
  34.9108350 106.9403440  47.9274260  33.9891050 105.7666040  47.6732020
  32.3667560 102.2105760  40.7569700  33.2547180 102.5222990  40.5821040
  32.3372650 101.3378010  40.3650280  28.3628150 108.3829450  41.4357870
  28.7043850 109.1271680  40.9401190  27.5340860 108.6960570  41.7982700
  24.1616310 104.5408780  55.9595820  23.8616450 104.6865960  55.0623640
  24.9327550 103.9814070  55.8669210  34.6381830 103.5217600  40.2249560
  34.5545550 103.9531820  39.3746000  35.3576020 103.9815950  40.6576380
  35.6669080 110.3759860  42.9531690  35.0245240 109.7215480  43.2275410
  35.2799740 110.7814950  42.1772360  27.3318840 108.4642980  44.2073790
  28.0189970 109.0112190  44.5881380  26.5451260 109.0083710  44.2423400
  19.4711240 104.0815800  39.6990870  20.3406090 104.3640600  39.9826790
  18.9801560 104.8951670  39.5839680  26.6346050 105.4689010  43.8199150
  27.0908830 106.2794260  44.0459340  26.2834260 105.1512150  44.6517640
  22.5357830  95.8126660  44.2921670  22.4072460  95.8044560  45.2406590
  21.7119850  96.1509750  43.9412680  34.0566460 109.2676320  39.4908040
  33.8304040 108.5506760  40.0832680  33.6662660 109.0188760  38.6529790
  19.8382490 113.2943180  40.2652500  20.1980130 113.8932520  39.6109770
  19.6974830 113.8403070  41.0387530  33.6382710 107.1848260  41.1522200
  33.3504410 107.6460950  41.9400080  34.4334880 106.7246030  41.4206420
  19.8224350 111.5598040  54.7394900  19.9315470 110.6192780  54.5990290
  19.1704910 111.8252790  54.0908630  25.8551110 110.6774380  41.0826170
  25.8461210 111.4104070  40.4670680  24.9349470 110.4305960  41.1753130
  21.4557750 105.8989270  41.8272930  20.8485700 106.6388170  41.8368230
  21.9307100 105.9888630  41.0011130  31.0290540 100.0640090  51.5029820
  31.3971360  99.2435300  51.8309390  30.1688740 100.1241980  51.9185470
  34.3952570  99.0197030  42.3117380  33.7665730  99.1242700  41.5975610
  33.9004490  99.2393810  43.1011260  28.8410710 110.7402620  39.7451360
  28.9422690 110.5366610  38.8153340  27.9412450 110.4860900  39.9499140
  27.4828820 113.2588940  44.4399030  27.7370320 113.2210330  43.5178400
  26.5341300 113.1322270  44.4327280  24.5671620  99.6068060  41.1025970
  25.4162150 100.0438210  41.0366160  24.2002890  99.9188320  41.9298030
  23.4663040 105.8600420  39.5761500  24.2326310 105.7481780  40.1386930
  23.5437730 105.1638390  38.9238270  22.1609800 103.2925490  40.2594390
  22.2413390 102.3453000  40.3711790  23.0529550 103.6232370  40.3655050
  35.4906980 111.3489670  47.6911800  35.6154400 112.1720840  48.1635610
  36.3572540 111.1380400  47.3435950  22.9624510 113.4420880  47.3628930
  23.6986990 112.8936340  47.6337500  23.3465430 114.3076890  47.2234920
  19.8469990 109.5094450  43.2370440  18.9209770 109.7515590  43.2275850
  20.3126420 110.3368710  43.1155190  21.9682790 112.6266950  56.5514510
  22.7695520 112.9479000  56.9649910  21.4534610 112.2662530  57.2734420
  26.0726820 112.6151190  39.1854500  26.8655430 112.9040020  38.7336290
  25.5531170 112.1843360  38.5066980  35.1256990 111.8421320  40.6091240
  34.8398500 111.4286460  39.7945420  34.9276540 112.7709030  40.4891760
  19.6880600 105.1140410  55.4950560  20.1919620 104.5347690  56.0666790
  18.9488020 105.3980640  56.0326930  26.5904220 107.8354600  39.0496850
  26.4854860 107.2206950  39.7758230  26.4228440 107.3120490  38.2659860
  29.8306950 106.8974630  39.6538840  29.2817050 107.3443930  40.2981580
  30.4526210 106.3923880  40.1776510  21.7203680 103.2570000  56.3900630
  21.7609020 102.9583870  57.2985860  22.5749180 103.6577610  56.2308150
  25.4982070 105.8565550  41.5504140  25.9198490 105.6905420  42.3935530
  25.6232910 105.0465780  41.0559280  23.6609490 101.8362100  54.3575120
  23.1305950 101.3453050  53.7298460  24.3297560 102.2646300  53.8233050
  28.0109710 104.8803160  38.7981240  28.5315370 104.1652180  38.4322390
  28.6578110 105.5189030  39.0981750  24.1481790  98.8024470  54.4372410
  24.0538660  98.1845220  53.7123280  23.5679180  99.5290760  54.2102320
  26.9143230  97.3597710  51.4699800  26.4660530  97.3821970  50.6245350
  26.2808430  96.9616730  52.0670100  29.6566680 103.9868220  53.4750080
  29.7762890 103.3909360  54.2144920  30.5160680 104.0237910  53.0551380
  31.9954580 104.5405410  52.0512590  31.4689800 105.0648030  51.4477730
  32.3385920 105.1732800  52.6822320  24.3940970 101.9298780  38.4962300
  24.1930030 101.0666140  38.8575640  24.2233020 101.8432140  37.5583900
  25.1710200 112.5605050  53.2069970  24.6331290 113.2851110  52.8878670
  25.4244160 112.0835390  52.4167310  26.4235450 100.5289570  54.7325900
  27.0135140 100.2205420  55.4203720  25.6055690 100.0569320  54.8885800
  31.2428880 100.1455380  54.9658920  30.5544400  99.4836920  54.9008910
  31.9634900  99.6993650  55.4107380  23.1923770  99.0299400  38.4840180
  23.4949670  99.0366830  37.5759330  23.9318360  98.6797260  38.9807840
  28.5757740 112.9614770  41.0882980  29.4708530 113.2999740  41.1101740
  28.6075370 112.2394180  40.4607260  22.2153900 108.3341820  39.3169980
  22.6528770 108.8771490  39.9727560  22.7001630 107.5088770  39.3266320
  19.4299700 111.1230850  46.7690240  19.7602710 110.2551910  46.5368880
  19.8590700 111.3289370  47.5995200  24.0261620 109.4539860  44.4292210
  23.7257160 109.3304830  45.3296120  23.9199110 108.5948450  44.0207940
  19.9189910 111.9901440  49.5071870  19.4820900 112.1702240  50.3396020
  20.4867590 112.7476060  49.3653590  36.2510000 105.9783740  41.6353090
  37.0128910 106.5480390  41.7412780  36.2664370 105.4110940  42.4061400
  19.7514340 104.5021670  45.8660750  19.0963180 104.2333310  45.2220450
  20.5892290 104.3926150  45.4162730  37.2569970 106.8333840  46.4795020
  37.6278800 106.0501160  46.0730990  37.8971900 107.5222940  46.3012320
  32.7004780  99.2962960  40.0879240  33.1189660  99.1093940  39.2475900
  32.3940840  98.4442010  40.3982170  36.1994510 104.2087100  43.7855040
  35.8238110 103.4415030  43.3536330  35.4697630 104.5909800  44.2729970
  18.9652420 101.7120600  41.8086080  18.0616500 101.9750800  41.6337740
  19.4493040 101.9831770  41.0286040  35.4745470 102.4344590  47.0862280
  35.9982950 101.9407240  46.4552450  36.0604890 102.5694950  47.8309850
  21.5079630 100.7686140  39.7180460  22.2171330 100.3469360  39.2327740
  20.7919570 100.8361370  39.0863810  21.1553790  96.8225470  38.7583110
  21.8781920  97.3634410  39.0764330  21.4278310  96.5488890  37.8824650
  34.9645440 101.6917940  43.0254690  35.4604560 101.4588810  43.8103570
  34.7661510 100.8529780  42.6092330  36.3932600 100.3278890  45.5592370
  36.2831880 100.1734930  46.4974640  37.1540190  99.7999830  45.3167780
  37.2822870  98.1586810  38.7998510  38.2072180  98.0267990  38.5916800
  37.2598660  98.2379630  39.7534960  34.2979780 112.9689020  45.4193610
  34.8938850 112.6473590  44.7428030  34.5557930 112.4960840  46.2106880
  22.2042350 109.4006930  55.5684240  22.1611980 109.0299840  56.4498700
  22.3353360 110.3384500  55.7086060  28.1102800  97.4199210  54.9250470
  28.0491690  98.0121040  55.6745880  29.0503180  97.3125170  54.7800730
  30.7477360  97.0769270  54.5642760  31.3617770  97.3948560  53.9023840
  31.2926920  96.5917860  55.1838620  21.2698620  95.7563530  54.6781820
  21.8181610  95.5751580  53.9147930  21.3353930  94.9657640  55.2138130
  22.0430380 112.3469180  52.6882020  21.4490700 112.2153880  53.4272060
  22.0354220 111.5107320  52.2224120  32.3957380  97.8472280  52.2753770
  32.0670740  97.0324040  51.8955500  33.3439680  97.8042090  52.1519460
  34.8491990 113.6184320  49.2491340  34.3894960 114.3700130  48.8749360
  34.2204450 112.8990790  49.1906140  21.6742610 109.7127560  51.6390060
  20.9476670 109.0932850  51.5716010  21.7351760 110.1068170  50.7688140
  25.2787710 111.9272560  48.4239470  25.7952730 111.3159920  47.8987730
  25.9285090 112.4301340  48.9150480  29.2360220  96.5571250  49.8304960
  28.4532010  97.0316750  50.1101720  28.9423150  95.6526080  49.7218140
  19.9572610 113.0301950  44.8486820  19.7894650 112.3972630  45.5468710
  19.0907120 113.2361350  44.4981010  20.5800630  96.8618730  42.3518680
  21.3379990  96.9747610  41.7782710  20.1177800  97.6987930  42.3062110
  34.7674020  96.0422010  41.8544340  34.9624650  96.9405460  42.1211770
  33.9803890  95.8109090  42.3477290  21.5635310 111.7235180  42.2936960
  21.0382930 112.1043210  41.5898920  21.4879890 112.3485950  43.0146670
  22.9525780  97.3882780  40.8920650  23.4818540  96.6012580  40.7628600
  23.5854100  98.0673970  41.1256180  25.1463620  97.1257920  43.9466040
  24.5166360  96.4245230  44.1136170  24.6068760  97.8862050  43.7299200
  36.3200630 113.2822720  43.6150900  36.4952820 112.5960460  42.9711820
  35.6222200 113.8069770  43.2227570  25.2719180  96.4041900  56.3818530
  24.9903450  96.9075500  55.6179350  25.6538880  95.6063650  56.0160660
  24.1628280 113.6717560  41.1686210  24.8947100 113.3876840  40.6210100
  24.4221950 113.4330840  42.0585590  23.3243070 109.7882290  41.1732540
  22.6951950 110.2567390  41.7218370  23.4390900 108.9431510  41.6078730
  31.8734640  95.8195480  56.9599000  31.7600090  96.1390090  57.8550520
  32.6904380  96.2207990  56.6636280  30.7792790 103.8387950  27.3233740
  30.6986840 102.9242560  27.0525450  30.3657210 104.3355020  26.6173450
  28.9110830 105.6166970  29.2043010  28.1352930 105.1367410  29.4941580
  29.5623760 104.9372620  29.0299170  22.9276660 105.9286780  30.0818770
  22.0961540 105.6735490  30.4815280  23.5357640 105.9997550  30.8176690
  32.9318260 110.0227160  27.9842140  32.4699790 109.2514400  28.3129310
  33.7443810 110.0493230  28.4894590  22.9077920 109.9626870  30.2776790
  23.2105960 109.0724610  30.0987010  23.6521510 110.5197090  30.0499040
  21.3368610 100.8888670  23.8661160  20.4485310 101.2304640  23.7641040
  21.6209800 100.6888990  22.9741990  19.3001620 103.4894320  29.7500860
  19.8717730 102.7216520  29.7504500  19.3003160 103.7883080  28.8407470
  29.1581570 112.3085170  27.6046130  28.5393010 112.7642670  27.0340570
  30.0133350 112.4636630  27.2035830  28.3519820 108.2924160  29.2113170
  28.2828100 107.3514100  29.0502300  29.1139680 108.3825570  29.7835740
  20.5426490  98.8978680  31.5369790  20.3629330  98.0004430  31.8172550
  20.1406570  99.4450550  32.2116740  29.3824990 101.0994540  29.4382100
  29.7589810 100.2266420  29.3255770  29.2844500 101.4353240  28.5472540
  23.5130000  99.4720170  24.8999540  23.6196750 100.3723900  25.2068300
  22.6022360  99.4238140  24.6094190  33.1649110  98.5944980  26.3710440
  33.9858730  98.1041550  26.4135920  33.1983190  99.1842640  27.1242280
  21.1613160 101.3939180  30.1452130  21.8423270 101.6577550  30.7639530
  20.8461210 100.5540050  30.4790140  25.3537730 102.4406540  29.2324720
  25.8615950 102.9387510  29.8729740  25.8850970 101.6641740  29.0564080
  23.6373830  97.0805100  33.4988140  23.6392270  97.5977490  32.6934040
  22.8078140  96.6035280  33.4758070  30.0244920 107.1924410  24.9978040
  29.4062190 107.6573860  24.4340760  30.5368170 107.8851890  25.4147550
  24.8876680 106.7200280  31.6761640  24.5546060 107.3469200  32.3182710
  25.0643360 107.2462160  30.8963310  33.4010590 100.5345360  29.1437980
  32.6966160 100.8230250  29.7241090  33.7622750 101.3445470  28.7837540
  23.3189160  98.7915060  31.5058590  23.6605970  99.6357110  31.2112460
  22.3804970  98.9398800  31.6223930  24.0995780 108.6881080  33.4910820
  24.7169780 109.3632160  33.2095270  23.2388900 109.0969060  33.3998320
  19.3928120 107.8780940  22.3717670  19.0156100 108.3668040  21.6402570
  19.6501190 108.5506220  23.0024200  35.0173370 110.1520490  31.4065460
  34.3336890 110.8219600  31.3982130  35.5567660 110.3501140  30.6410320
  36.4697510  99.9800150  29.5347190  35.5222420 100.0139130  29.6662620
  36.7947500 100.7939100  29.9196550  27.0017050  96.2797330  27.8303180
  27.3092030  95.7244220  27.1138680  26.0717750  96.4141790  27.6476170
  32.5532110 111.9964620  30.1210640  32.5659270 111.5926910  29.2532900
  32.0007330 112.7711910  30.0172070  33.8477530 108.7180840  25.2100810
  33.7373860 107.7755170  25.3350230  33.8445780 109.0796480  26.0963570
  31.9517550 106.8994460  31.4493250  32.3686340 106.6854570  30.6146710
  32.6757370 107.1567250  32.0201870  29.3897810 104.3446160  24.5663300
  28.4627090 104.2783540  24.7951770  29.5422630 105.2826290  24.4518540
  29.3766890 100.6163160  21.5630460  28.4370560 100.7777120  21.6482920
  29.6950150 101.3348840  21.0166450  33.4195100 105.9066460  25.0698550
  32.8007520 105.5686010  24.4224850  33.4019550 105.2626220  25.7777740
  24.9954450 104.8710900  27.3483030  24.5911450 104.1588150  26.8528930
  25.0817570 104.5264140  28.2371070  25.4636150 108.5578460  29.5122240
  25.1664440 107.9523930  28.8330020  26.4135970 108.5955770  29.4011600
  23.7083070 101.6454110  31.1282070  24.2597660 101.7549450  30.3535320
  24.2226580 102.0191710  31.8437300  33.5521760 112.1310330  33.1745340
  33.0752320 112.9382520  32.9817950  32.8683550 111.4788660  33.3271550
  24.5554580 108.2960150  36.1630040  23.6583110 108.5200120  36.4103440
  24.5807450 108.4195090  35.2141440  31.5959800 105.1453270  22.0771300
  32.0353080 104.3075700  21.9309120  32.3088220 105.7782670  22.1635440
  23.3825800 105.1673470  34.7387410  23.2433570 106.0396270  35.1074810
  22.5007160 104.8246280  34.5935350  29.7055180 110.0849340  26.0452540
  30.1451090 110.8273670  25.6307930  29.6442070 110.3275910  26.9691500
  25.1806150 111.1095170  36.9472560  25.1521580 111.5138120  36.0800990
  25.0171120 110.1805530  36.7844160  35.1776940  96.3996080  20.3912340
  34.8649600  96.4922910  21.2911410  35.9389410  96.9777110  20.3409770
  21.6959080 103.7655880  24.8489680  21.5756680 104.4917970  24.2370950
  21.3859970 102.9958790  24.3717590  37.1320970 111.8922270  38.2436730
  37.6080690 112.3705160  38.9225810  37.7528130 111.8239760  37.5182230
  19.3344450 106.9371020  30.6558320  19.4124870 107.0719790  29.7114040
  19.9486130 106.2286910  30.8486440  20.5792080 108.6371210  27.0664500
  20.1720160 108.7785800  26.2118100  21.4705090 108.3531370  26.8635710
  30.3970960 112.7863120  33.9731550  30.9115630 112.6971130  34.7753980
  29.5540040 113.1322820  34.2659460  32.3725360 113.0718460  23.4015550
  32.2126500 112.7821400  24.2997380  32.2072070 112.2958590  22.8660780
  24.8513740 112.8516990  25.1787170  24.6756220 111.9352530  24.9654970
  23.9969480 113.2104280  25.4184970  32.0751490 110.5806020  21.9613550
  31.3816650 110.5783310  21.3015830  32.8174350 110.1565340  21.5307720
  31.6401420 112.2068730  26.0362040  32.0958370 111.4258110  26.3500660
  31.9793940 112.9175550  26.5803220  19.3903970 107.9785190  33.1952780
  19.5535010 107.5090550  32.3772150  19.8556420 107.4708750  33.8601620
  24.1622740  97.1090950  28.2313350  23.7190890  97.8900490  27.8997870
  24.7207730  97.4320840  28.9384290  28.4492550  99.9759470  33.8348670
  27.9871920 100.1842490  34.6468610  28.0470660  99.1618820  33.5319340
  27.2781560  96.7301650  23.1119180  26.6535740  96.7261520  23.8372490
  27.1911680  95.8632610  22.7155150  26.1998640  97.6538280  30.0902950
  26.4970970  98.5601110  30.0094970  26.7484200  97.1657060  29.4762520
  23.9536960 102.2324520  25.9594600  23.7277880 102.0161690  26.8641220
  23.1729490 102.6652980  25.6140570  31.1834720 102.2387890  24.5585250
  30.5843610 102.9623690  24.3748870  31.7314330 102.1764670  23.7761700
  26.3936170 103.1310100  36.6254870  26.2979770 102.1904830  36.4755270
  27.2368150 103.3525170  36.2302940  29.7899590 100.8751430  26.5888530
  30.1829160 101.1923630  25.7757220  30.1516440  99.9963310  26.7033050
  21.5246710  99.5423770  34.7788650  21.1310100 100.3898980  34.9861430
  20.8365110  98.9050140  34.9697290  18.8263760  97.4652230  28.8118730
  18.5376810  98.0355090  29.5243710  19.5709520  96.9856680  29.1749960
  19.0133990 101.4072350  20.0221450  18.9308660 102.3503110  20.1636440
  18.6617050 101.2647260  19.1433800  30.3754730 103.4657180  30.6839310
  29.6435850 103.9743990  31.0329410  29.9779070 102.6487160  30.3828090
  26.8132120 100.1411380  29.0891800  26.8168180  99.7001330  28.2396340
  27.7083240 100.4628710  29.1963620  22.6634500 100.0237870  28.0486010
  22.3234550 100.5013100  28.8053060  21.9011820  99.5702990  27.6887110
  26.8752270 101.1423460  22.0798560  26.9965090 101.1009940  23.0284380
  26.4900780 102.0047610  21.9245290  30.8380640  98.9190860  30.0962250
  30.8553380  99.3699510  30.9404100  30.5896220  98.0196500  30.3095690
  25.8873770 103.4524600  21.4781860  25.3190670 103.0042850  20.8517770
  26.5962770 103.8117380  20.9447010  20.9642950 107.3536620  35.3548590
  20.5797740 106.7130290  35.9531550  21.2755140 108.0572740  35.9243320
  27.1140090 104.2013160  30.8357210  27.4810220 103.7271730  31.5818550
  26.9245150 105.0754730  31.1765550  19.9780580  98.9456850  26.9650680
  19.6927500  98.5812520  27.8029300  19.9159440  98.2137310  26.3513820
  24.9039460 103.2421800  33.1541420  24.5996530 104.1213780  33.3791780
  25.8585920 103.3021590  33.1898860  23.4321250 107.4482790  23.7508270
  22.6583510 106.9080410  23.5906990  24.1615880 106.9289400  23.4126030
  34.1909230 106.4448150  29.5434660  34.9108350 106.9403440  29.1530770
  33.9891050 105.7666040  28.8988530  29.6519170  97.8386110  23.6864050
  28.8383780  97.3399280  23.6109360  29.4581120  98.6784360  23.2700400
  29.5728030 106.5157210  35.4303660  29.5065340 105.5952880  35.1761250
  28.9433170 106.6132650  36.1448300  32.3667560 102.2105760  21.9826210
  33.2547180 102.5222990  21.8077550  32.3372650 101.3378010  21.5906790
  23.4758650 107.1163170  27.3887080  23.9937320 106.3131430  27.3343970
  23.0242670 107.0542310  28.2303910  28.3628150 108.3829450  22.6614380
  28.7043850 109.1271680  22.1657700  27.5340860 108.6960570  23.0239210
  20.9603190 104.0824540  34.3012780  20.6018130 104.7478390  34.8886120
  20.6657750 103.2508090  34.6725400  24.1616310 104.5408780  37.1852330
  23.8616450 104.6865960  36.2880150  24.9327550 103.9814070  37.0925720
  29.5044760 109.3377780  35.1807460  29.5189300 108.4058740  34.9626370
  28.7969860 109.4237540  35.8197230  34.6381830 103.5217600  21.4506070
  34.5545550 103.9531820  20.6002510  35.3576020 103.9815950  21.8832890
  35.6669080 110.3759860  24.1788200  35.0245240 109.7215480  24.4531920
  35.2799740 110.7814950  23.4028870  31.2455560 107.7045290  28.0259890
  31.5979380 107.1073420  27.3661260  30.3617890 107.3789520  28.1968140
  27.3318840 108.4642980  25.4330300  28.0189970 109.0112190  25.8137890
  26.5451260 109.0083710  25.4679910  19.4711240 104.0815800  20.9247380
  20.3406090 104.3640600  21.2083300  18.9801560 104.8951670  20.8096190
  26.6346050 105.4689010  25.0455660  27.0908830 106.2794260  25.2715850
  26.2834260 105.1512150  25.8774150  28.9378660 110.9795350  32.2747960
  29.5820880 111.1854730  32.9521380  29.3008100 110.2183750  31.8218810
  22.5357830  95.8126660  25.5178180  22.4072460  95.8044560  26.4663100
  21.7119850  96.1509750  25.1669190  30.2110740 108.9827700  30.9925410
  30.8532970 108.2820860  31.1057580  30.7360090 109.7626140  30.8122300
  34.0566460 109.2676320  20.7164550  33.8304040 108.5506760  21.3089190
  33.6662660 109.0188760  19.8786300  31.9848360 109.7822600  34.1961470
  32.3204600 110.3689290  34.8739390  31.0648700 109.6515310  34.4259260
  19.8382490 113.2943180  21.4909010  20.1980130 113.8932520  20.8366280
  19.6974830 113.8403070  22.2644040  19.5351760  97.5717780  34.9784880
  18.8210280  97.7714700  35.5837490  19.9546800  96.7957350  35.3499680
  33.6382710 107.1848260  22.3778710  33.3504410 107.6460950  23.1656590
  34.4334880 106.7246030  22.6462930  19.8224350 111.5598040  35.9651410
  19.9315470 110.6192780  35.8246800  19.1704910 111.8252790  35.3165140
  27.8136940 109.8313930  37.3649530  27.4933810 109.1123170  37.9095220
  27.1395300 110.5069000  37.4385590  25.8551110 110.6774380  22.3082680
  25.8461210 111.4104070  21.6927190  24.9349470 110.4305960  22.4009640
  21.4557750 105.8989270  23.0529440  20.8485700 106.6388170  23.0624740
  21.9307100 105.9888630  22.2267640  34.3952570  99.0197030  23.5373890
  33.7665730  99.1242700  22.8232120  33.9004490  99.2393810  24.3267770
  28.8410710 110.7402620  20.9707870  28.9422690 110.5366610  20.0409850
  27.9412450 110.4860900  21.1755650  26.3636600 101.2982980  24.9531770
  25.6552750 101.7669320  25.3945380  26.6481080 100.6404990  25.5876960
  27.9892530 102.7179680  32.9524300  28.4877780 103.1925500  33.6176150
  28.1315480 101.7943200  33.1594330  30.3952030  98.0233640  26.3927560
  30.2719810  98.0419770  25.4437070  31.3436590  98.0712580  26.5125960
  27.4828820 113.2588940  25.6655540  27.7370320 113.2210330  24.7434910
  26.5341300 113.1322270  25.6583790  24.5671620  99.6068060  22.3282480
  25.4162150 100.0438210  22.2622670  24.2002890  99.9188320  23.1554540
  35.1959390  98.9347640  33.7952690  34.6932990  99.6753040  34.1346500
  36.0116050  99.3231640  33.4789480  33.4881400 104.1780820  27.2414050
  32.5471540 104.1931050  27.4161740  33.8025470 103.3916780  27.6874350
  23.4663040 105.8600420  20.8018010  24.2326310 105.7481780  21.3643440
  23.5437730 105.1638390  20.1494780  22.1609800 103.2925490  21.4850900
  22.2413390 102.3453000  21.5968300  23.0529550 103.6232370  21.5911560
  35.4906980 111.3489670  28.9168310  35.6154400 112.1720840  29.3892120
  36.3572540 111.1380400  28.5692460  22.9624510 113.4420880  28.5885440
  23.6986990 112.8936340  28.8594010  23.3465430 114.3076890  28.4491430
  19.8469990 109.5094450  24.4626950  18.9209770 109.7515590  24.4532360
  20.3126420 110.3368710  24.3411700  21.9682790 112.6266950  37.7771020
  22.7695520 112.9479000  38.1906420  21.4534610 112.2662530  38.4990930
  26.0726820 112.6151190  20.4111010  26.8655430 112.9040020  19.9592800
  25.5531170 112.1843360  19.7323490  30.8047420 108.7346820  37.7246430
  30.1985580 108.7578420  36.9842180  30.5001530 108.0029860  38.2613680
  32.2347790 112.4627110  36.3355840  33.1869540 112.3785130  36.2856080
  32.0876010 113.1268820  37.0089630  35.1256990 111.8421320  21.8347750
  34.8398500 111.4286460  21.0201930  34.9276540 112.7709030  21.7148270
  19.6880600 105.1140410  36.7207070  20.1919620 104.5347690  37.2923300
  18.9488020 105.3980640  37.2583440  26.5904220 107.8354600  20.2753360
  26.4854860 107.2206950  21.0014740  26.4228440 107.3120490  19.4916370
  26.7418540 106.5211400  36.2542590  25.9764210 107.0896400  36.1697260
  26.9234500 106.2287610  35.3610820  29.8306950 106.8974630  20.8795350
  29.2817050 107.3443930  21.5238090  30.4526210 106.3923880  21.4033020
  33.8841890 108.2516730  36.8117610  34.6251360 108.5892490  36.3085070
  33.1214570 108.4208790  36.2587380  21.7203680 103.2570000  37.6157140
  21.7609020 102.9583870  38.5242370  22.5749180 103.6577610  37.4564660
  25.4982070 105.8565550  22.7760650  25.9198490 105.6905420  23.6192040
  25.6232910 105.0465780  22.2815790  23.6609490 101.8362100  35.5831630
  23.1305950 101.3453050  34.9554970  24.3297560 102.2646300  35.0489560
  28.0109710 104.8803160  20.0237750  28.5315370 104.1652180  19.6578900
  28.6578110 105.5189030  20.3238260  24.1481790  98.8024470  35.6628920
  24.0538660  98.1845220  34.9379790  23.5679180  99.5290760  35.4358830
  26.9143230  97.3597710  32.6956310  26.4660530  97.3821970  31.8501860
  26.2808430  96.9616730  33.2926610  27.3202780 106.2552040  33.3168750
  27.7390890 107.0984770  33.1444990  26.4011410 106.3924080  33.0875530
  24.3940970 101.9298780  19.7218810  24.1930030 101.0666140  20.0832150
  24.2233020 101.8432140  18.7840410  25.1710200 112.5605050  34.4326480
  24.6331290 113.2851110  34.1135180  25.4244160 112.0835390  33.6423820
  26.4235450 100.5289570  35.9582410  27.0135140 100.2205420  36.6460230
  25.6055690 100.0569320  36.1142310  31.8729280  96.7407010  22.2505690
  32.1531570  95.8974910  22.6065110  31.0995010  96.9730120  22.7644440
  23.1923770  99.0299400  19.7096690  23.4949670  99.0366830  18.8015840
  23.9318360  98.6797260  20.2064350  28.0272410 113.7956260  34.6913130
  27.9531110 114.6991400  34.9985500  27.1251250 113.4768160  34.6635200
  26.4108700  97.9734020  20.6952890  26.0630700  97.2958010  20.1155340
  26.6121470  97.5123530  21.5096280  28.5757740 112.9614770  22.3139490
  29.4708530 113.2999740  22.3358250  28.6075370 112.2394180  21.6863770
  22.2153900 108.3341820  20.5426490  22.6528770 108.8771490  21.1984070
  22.7001630 107.5088770  20.5522830  19.4299700 111.1230850  27.9946750
  19.7602710 110.2551910  27.7625390  19.8590700 111.3289370  28.8251710
  24.0261620 109.4539860  25.6548720  23.7257160 109.3304830  26.5552630
  23.9199110 108.5948450  25.2464450  19.9189910 111.9901440  30.7328380
  19.4820900 112.1702240  31.5652530  20.4867590 112.7476060  30.5910100
  35.5552090 111.4918440  35.0205690  34.9554080 111.5511000  34.2769610
  35.6845990 110.5523420  35.1502540  36.7953540 109.2336260  20.3575400
  35.9646500 109.3012910  20.8282630  36.9725370 110.1240380  20.0542260
  36.2510000 105.9783740  22.8609600  37.0128910 106.5480390  22.9669290
  36.2664370 105.4110940  23.6317910  19.7514340 104.5021670  27.0917260
  19.0963180 104.2333310  26.4476960  20.5892290 104.3926150  26.6419240
  37.2569970 106.8333840  27.7051530  37.6278800 106.0501160  27.2987500
  37.8971900 107.5222940  27.5268830  34.2403730 108.2170420  33.1181850
  33.4263570 108.6467580  33.3807640  34.6477930 108.8288830  32.5050900
  36.3029170 106.2718110  20.0182120  36.5778010 107.1796990  19.8901340
  36.1139910 106.2080640  20.9544110  32.7004780  99.2962960  21.3135750
  33.1189660  99.1093940  20.4732410  32.3940840  98.4442010  21.6238680
  36.1994510 104.2087100  25.0111550  35.8238110 103.4415030  24.5792840
  35.4697630 104.5909800  25.4986480  20.7890270 104.8874240  31.6320600
  21.1563310 104.8001640  32.5116620  20.2201090 104.1240790  31.5327460
  20.3406270 101.7983330  35.5379020  19.4462320 101.7650090  35.8772730
  20.8803820 101.9970120  36.3030270  34.0282200  98.5815050  37.4230770
  34.9052380  98.5898450  37.8064770  34.0403040  97.8445890  36.8123120
  18.9652420 101.7120600  23.0342590  18.0616500 101.9750800  22.8594250
  19.4493040 101.9831770  22.2542550  35.4745470 102.4344590  28.3118790
  35.9982950 101.9407240  27.6808960  36.0604890 102.5694950  29.0566360
  21.5079630 100.7686140  20.9436970  22.2171330 100.3469360  20.4584250
  20.7919570 100.8361370  20.3120320  21.1553790  96.8225470  19.9839620
  21.8781920  97.3634410  20.3020840  21.4278310  96.5488890  19.1081160
  34.9645440 101.6917940  24.2511200  35.4604560 101.4588810  25.0360080
  34.7661510 100.8529780  23.8348840  20.8445980  96.0731660  29.8862240
  21.4922170  95.5229040  29.4457400  21.2647820  96.3274810  30.7078050
  36.3932600 100.3278890  26.7848880  36.2831880 100.1734930  27.7231150
  37.1540190  99.7999830  26.5424290  37.2822870  98.1586810  20.0255020
  38.2072180  98.0267990  19.8173310  37.2598660  98.2379630  20.9791470
  37.3561360  98.9297470  22.6511730  36.5612860  98.8642590  23.1804640
  37.5604640  99.8648110  22.6397080  34.2979780 112.9689020  26.6450120
  34.8938850 112.6473590  25.9684540  34.5557930 112.4960840  27.4363390
  20.5977980  96.2287330  32.6287560  20.2492800  96.6851150  33.3945740
  20.2665680  95.3344460  32.7109990  22.2042350 109.4006930  36.7940750
  22.1611980 109.0299840  37.6755210  22.3353360 110.3384500  36.9342570
  25.9048380 110.9566520  32.3950470  25.6639740 111.2241080  31.5080990
  26.8451020 111.1272250  32.4501330  37.1652540 112.9760900  33.1961110
  36.6710820 113.3729770  32.4788240  36.5565830 112.3510110  33.5898390
  21.2698620  95.7563530  35.9038330  21.8181610  95.5751580  35.1404440
  21.3353930  94.9657640  36.4394640  22.0430380 112.3469180  33.9138530
  21.4490700 112.2153880  34.6528570  22.0354220 111.5107320  33.4480630
  34.8491990 113.6184320  30.4747850  34.3894960 114.3700130  30.1005870
  34.2204450 112.8990790  30.4162650  21.6742610 109.7127560  32.8646570
  20.9476670 109.0932850  32.7972520  21.7351760 110.1068170  31.9944650
  25.2787710 111.9272560  29.6495980  25.7952730 111.3159920  29.1244240
  25.9285090 112.4301340  30.1406990  28.0183210 112.8181050  30.4764960
  28.3061020 112.5635350  29.5997970  28.5306430 112.2658410  31.0670530
  33.7881290  97.2594350  29.1010560  34.2289380  97.2039450  28.2532160
  33.5188880  98.1752360  29.1720740  35.6519860  96.8909590  27.1119380
  35.5908260  95.9470810  26.9650400  36.4311890  96.9989680  27.6572840
  19.9572610 113.0301950  26.0743330  19.7894650 112.3972630  26.7725220
  19.0907120 113.2361350  25.7237520  20.5800630  96.8618730  23.5775190
  21.3379990  96.9747610  23.0039220  20.1177800  97.6987930  23.5318620
  27.1214440  98.9758000  26.5677500  26.3088950  98.6014890  26.2273380
  27.6256080  98.2203080  26.8698690  31.6239420  95.6400450  27.8060570
  32.2268790  96.2120660  28.2809090  30.8832410  96.2039890  27.5834470
  34.7674020  96.0422010  23.0800850  34.9624650  96.9405460  23.3468280
  33.9803890  95.8109090  23.5733800  21.5635310 111.7235180  23.5193470
  21.0382930 112.1043210  22.8155430  21.4879890 112.3485950  24.2403180
  22.9525780  97.3882780  22.1177160  23.4818540  96.6012580  21.9885110
  23.5854100  98.0673970  22.3512690  25.1463620  97.1257920  25.1722550
  24.5166360  96.4245230  25.3392680  24.6068760  97.8862050  24.9555710
  28.0855570 113.7397150  37.8433160  29.0122880 113.5041420  37.8869120
  28.0706000 114.5669150  37.3619190  36.3200630 113.2822720  24.8407410
  36.4952820 112.5960460  24.1968330  35.6222200 113.8069770  24.4484080
  24.1628280 113.6717560  22.3942720  24.8947100 113.3876840  21.8466610
  24.4221950 113.4330840  23.2842100  23.3243070 109.7882290  22.3989050
  22.6951950 110.2567390  22.9474880  23.4390900 108.9431510  22.8335240
  34.6533130 112.9667010  37.6674200  35.4458450 112.4716240  37.4600160
  34.9466280 113.6457150  38.2749810  30.7792790 103.8387950   8.5490250
  30.6986840 102.9242560   8.2781960  30.3657210 104.3355020   7.8429960
  28.9110830 105.6166970  10.4299520  28.1352930 105.1367410  10.7198090
  29.5623760 104.9372620  10.2555680  22.9276660 105.9286780  11.3075280
  22.0961540 105.6735490  11.7071790  23.5357640 105.9997550  12.0433200
  32.9318260 110.0227160   9.2098650  32.4699790 109.2514400   9.5385820
  33.7443810 110.0493230   9.7151100  22.9077920 109.9626870  11.5033300
  23.2105960 109.0724610  11.3243520  23.6521510 110.5197090  11.2755550
  21.3368610 100.8888670   5.0917670  20.4485310 101.2304640   4.9897550
  21.6209800 100.6888990   4.1998500  19.3001620 103.4894320  10.9757370
  19.8717730 102.7216520  10.9761010  19.3003160 103.7883080  10.0663980
  29.1581570 112.3085170   8.8302640  28.5393010 112.7642670   8.2597080
  30.0133350 112.4636630   8.4292340  28.3519820 108.2924160  10.4369680
  28.2828100 107.3514100  10.2758810  29.1139680 108.3825570  11.0092250
  20.5426490  98.8978680  12.7626300  20.3629330  98.0004430  13.0429060
  20.1406570  99.4450550  13.4373250  29.3824990 101.0994540  10.6638610
  29.7589810 100.2266420  10.5512280  29.2844500 101.4353240   9.7729050
  23.5130000  99.4720170   6.1256050  23.6196750 100.3723900   6.4324810
  22.6022360  99.4238140   5.8350700  33.1649110  98.5944980   7.5966950
  33.9858730  98.1041550   7.6392430  33.1983190  99.1842640   8.3498790
  21.1613160 101.3939180  11.3708640  21.8423270 101.6577550  11.9896040
  20.8461210 100.5540050  11.7046650  25.3537730 102.4406540  10.4581230
  25.8615950 102.9387510  11.0986250  25.8850970 101.6641740  10.2820590
  37.4548660 100.6111730  14.1610580  36.7500830 100.9993440  13.6425690
  37.7206580 101.3062020  14.7631510  23.6373830  97.0805100  14.7244650
  23.6392270  97.5977490  13.9190550  22.8078140  96.6035280  14.7014580
  30.0244920 107.1924410   6.2234550  29.4062190 107.6573860   5.6597270
  30.5368170 107.8851890   6.6404060  24.8876680 106.7200280  12.9018150
  24.5546060 107.3469200  13.5439220  25.0643360 107.2462160  12.1219820
  33.4010590 100.5345360  10.3694490  32.6966160 100.8230250  10.9497600
  33.7622750 101.3445470  10.0094050  23.3189160  98.7915060  12.7315100
  23.6605970  99.6357110  12.4368970  22.3804970  98.9398800  12.8480440
  24.0995780 108.6881080  14.7167330  24.7169780 109.3632160  14.4351780
  23.2388900 109.0969060  14.6254830  19.3928120 107.8780940   3.5974180
  19.0156100 108.3668040   2.8659080  19.6501190 108.5506220   4.2280710
  35.0173370 110.1520490  12.6321970  34.3336890 110.8219600  12.6238640
  35.5567660 110.3501140  11.8666830  36.4697510  99.9800150  10.7603700
  35.5222420 100.0139130  10.8919130  36.7947500 100.7939100  11.1453060
  27.0017050  96.2797330   9.0559690  27.3092030  95.7244220   8.3395190
  26.0717750  96.4141790   8.8732680  32.5532110 111.9964620  11.3467150
  32.5659270 111.5926910  10.4789410  32.0007330 112.7711910  11.2428580
  33.8477530 108.7180840   6.4357320  33.7373860 107.7755170   6.5606740
  33.8445780 109.0796480   7.3220080  31.9517550 106.8994460  12.6749760
  32.3686340 106.6854570  11.8403220  32.6757370 107.1567250  13.2458380
  29.3897810 104.3446160   5.7919810  28.4627090 104.2783540   6.0208280
  29.5422630 105.2826290   5.6775050  29.3766890 100.6163160   2.7886970
  28.4370560 100.7777120   2.8739430  29.6950150 101.3348840   2.2422960
  35.8979650 105.2981680  12.7666000  35.0698280 105.3674770  12.2916130
  36.4930130 105.8835990  12.2981830  33.4195100 105.9066460   6.2955060
  32.8007520 105.5686010   5.6481360  33.4019550 105.2626220   7.0034250
  32.8621660 102.0851000  13.7120870  32.4492840 102.9104710  13.9660860
  32.1297610 101.4996040  13.5197230  24.9954450 104.8710900   8.5739540
  24.5911450 104.1588150   8.0785440  25.0817570 104.5264140   9.4627580
  25.4636150 108.5578460  10.7378750  25.1664440 107.9523930  10.0586530
  26.4135970 108.5955770  10.6268110  23.7083070 101.6454110  12.3538580
  24.2597660 101.7549450  11.5791830  24.2226580 102.0191710  13.0693810
  33.5521760 112.1310330  14.4001850  33.0752320 112.9382520  14.2074460
  32.8683550 111.4788660  14.5528060  24.5554580 108.2960150  17.3886550
  23.6583110 108.5200120  17.6359950  24.5807450 108.4195090  16.4397950
  31.5959800 105.1453270   3.3027810  32.0353080 104.3075700   3.1565630
  32.3088220 105.7782670   3.3891950  23.3825800 105.1673470  15.9643920
  23.2433570 106.0396270  16.3331320  22.5007160 104.8246280  15.8191860
  29.7055180 110.0849340   7.2709050  30.1451090 110.8273670   6.8564440
  29.6442070 110.3275910   8.1948010  25.1806150 111.1095170  18.1729070
  25.1521580 111.5138120  17.3057500  25.0171120 110.1805530  18.0100670
  21.6959080 103.7655880   6.0746190  21.5756680 104.4917970   5.4627460
  21.3859970 102.9958790   5.5974100  37.1320970 111.8922270  19.4693240
  37.6080690 112.3705160  20.1482320  37.7528130 111.8239760  18.7438740
  19.3344450 106.9371020  11.8814830  19.4124870 107.0719790  10.9370550
  19.9486130 106.2286910  12.0742950  20.5792080 108.6371210   8.2921010
  20.1720160 108.7785800   7.4374610  21.4705090 108.3531370   8.0892220
  36.5354220 109.0835120  16.6293250  36.6617280 108.8447000  15.7110430
  36.5775600 108.2519660  17.1015330  30.3970960 112.7863120  15.1988060
  30.9115630 112.6971130  16.0010490  29.5540040 113.1322820  15.4915970
  32.3725360 113.0718460   4.6272060  32.2126500 112.7821400   5.5253890
  32.2072070 112.2958590   4.0917290  24.8513740 112.8516990   6.4043680
  24.6756220 111.9352530   6.1911480  23.9969480 113.2104280   6.6441480
  32.0751490 110.5806020   3.1870060  31.3816650 110.5783310   2.5272340
  32.8174350 110.1565340   2.7564230  31.6401420 112.2068730   7.2618550
  32.0958370 111.4258110   7.5757170  31.9793940 112.9175550   7.8059730
  36.3878230 101.1367580  17.5942990  35.7722500 101.6447250  17.0658450
  36.0674650 100.2365910  17.5368930  19.3903970 107.9785190  14.4209290
  19.5535010 107.5090550  13.6028660  19.8556420 107.4708750  15.0858130
  24.1622740  97.1090950   9.4569860  23.7190890  97.8900490   9.1254380
  24.7207730  97.4320840  10.1640800  28.4492550  99.9759470  15.0605180
  27.9871920 100.1842490  15.8725120  28.0470660  99.1618820  14.7575850
  33.4497060 101.1968420  16.1901840  32.5990650 100.8974170  16.5110910
  33.2898850 101.4410430  15.2785660  30.5446770 102.6970170  18.2900630
  30.8700180 101.8633920  17.9502860  31.3327100 103.2198690  18.4378960
  27.2781560  96.7301650   4.3375690  26.6535740  96.7261520   5.0629000
  27.1911680  95.8632610   3.9411660  26.1998640  97.6538280  11.3159460
  26.4970970  98.5601110  11.2351480  26.7484200  97.1657060  10.7019030
  23.9536960 102.2324520   7.1851110  23.7277880 102.0161690   8.0897730
  23.1729490 102.6652980   6.8397080  31.1834720 102.2387890   5.7841760
  30.5843610 102.9623690   5.6005380  31.7314330 102.1764670   5.0018210
  26.3936170 103.1310100  17.8511380  26.2979770 102.1904830  17.7011780
  27.2368150 103.3525170  17.4559450  29.7899590 100.8751430   7.8145040
  30.1829160 101.1923630   7.0013730  30.1516440  99.9963310   7.9289560
  21.5246710  99.5423770  16.0045160  21.1310100 100.3898980  16.2117940
  20.8365110  98.9050140  16.1953800  28.0991760  99.6258740  19.0741900
  27.4090080  99.4330940  19.7087990  28.8424060  99.9093380  19.6066200
  18.8263760  97.4652230  10.0375240  18.5376810  98.0355090  10.7500220
  19.5709520  96.9856680  10.4006470  30.3754730 103.4657180  11.9095820
  29.6435850 103.9743990  12.2585920  29.9779070 102.6487160  11.6084600
  26.8132120 100.1411380  10.3148310  26.8168180  99.7001330   9.4652850
  27.7083240 100.4628710  10.4220130  22.6634500 100.0237870   9.2742520
  22.3234550 100.5013100  10.0309570  21.9011820  99.5702990   8.9143620
  26.8752270 101.1423460   3.3055070  26.9965090 101.1009940   4.2540890
  26.4900780 102.0047610   3.1501800  30.8380640  98.9190860  11.3218760
  30.8553380  99.3699510  12.1660610  30.5896220  98.0196500  11.5352200
  25.8873770 103.4524600   2.7038370  25.3190670 103.0042850   2.0774280
  26.5962770 103.8117380   2.1703520  34.2651390  96.3323040  17.1605140
  34.5897160  95.6012700  17.6863120  34.3007900  96.0136680  16.2586130
  20.9642950 107.3536620  16.5805100  20.5797740 106.7130290  17.1788060
  21.2755140 108.0572740  17.1499830  27.1140090 104.2013160  12.0613720
  27.4810220 103.7271730  12.8075060  26.9245150 105.0754730  12.4022060
  19.9780580  98.9456850   8.1907190  19.6927500  98.5812520   9.0285810
  19.9159440  98.2137310   7.5770330  24.9039460 103.2421800  14.3797930
  24.5996530 104.1213780  14.6048290  25.8585920 103.3021590  14.4155370
  23.4321250 107.4482790   4.9764780  22.6583510 106.9080410   4.8163500
  24.1615880 106.9289400   4.6382540  34.1909230 106.4448150  10.7691170
  34.9108350 106.9403440  10.3787280  33.9891050 105.7666040  10.1245040
  29.6519170  97.8386110   4.9120560  28.8383780  97.3399280   4.8365870
  29.4581120  98.6784360   4.4956910  29.5728030 106.5157210  16.6560170
  29.5065340 105.5952880  16.4017760  28.9433170 106.6132650  17.3704810
  32.3667560 102.2105760   3.2082720  33.2547180 102.5222990   3.0334060
  32.3372650 101.3378010   2.8163300  23.4758650 107.1163170   8.6143590
  23.9937320 106.3131430   8.5600480  23.0242670 107.0542310   9.4560420
  28.3628150 108.3829450   3.8870890  28.7043850 109.1271680   3.3914210
  27.5340860 108.6960570   4.2495720  20.9603190 104.0824540  15.5269290
  20.6018130 104.7478390  16.1142630  20.6657750 103.2508090  15.8981910
  24.1616310 104.5408780  18.4108840  23.8616450 104.6865960  17.5136660
  24.9327550 103.9814070  18.3182230  29.5044760 109.3377780  16.4063970
  29.5189300 108.4058740  16.1882880  28.7969860 109.4237540  17.0453740
  34.6381830 103.5217600   2.6762580  34.5545550 103.9531820   1.8259020
  35.3576020 103.9815950   3.1089400  35.7155970 105.9785120  15.7532550
  34.9904160 106.5713900  15.5561940  36.2431430 105.9708660  14.9545920
  35.6669080 110.3759860   5.4044710  35.0245240 109.7215480   5.6788430
  35.2799740 110.7814950   4.6285380  31.2455560 107.7045290   9.2516400
  31.5979380 107.1073420   8.5917770  30.3617890 107.3789520   9.4224650
  27.3318840 108.4642980   6.6586810  28.0189970 109.0112190   7.0394400
  26.5451260 109.0083710   6.6936420  19.4711240 104.0815800   2.1503890
  20.3406090 104.3640600   2.4339810  18.9801560 104.8951670   2.0352700
  26.6346050 105.4689010   6.2712170  27.0908830 106.2794260   6.4972360
  26.2834260 105.1512150   7.1030660  28.9378660 110.9795350  13.5004470
  29.5820880 111.1854730  14.1777890  29.3008100 110.2183750  13.0475320
  22.5357830  95.8126660   6.7434690  22.4072460  95.8044560   7.6919610
  21.7119850  96.1509750   6.3925700  30.2110740 108.9827700  12.2181920
  30.8532970 108.2820860  12.3314090  30.7360090 109.7626140  12.0378810
  31.9848360 109.7822600  15.4217980  32.3204600 110.3689290  16.0995900
  31.0648700 109.6515310  15.6515770  19.8382490 113.2943180   2.7165520
  20.1980130 113.8932520   2.0622790  19.6974830 113.8403070   3.4900550
  19.5351760  97.5717780  16.2041390  18.8210280  97.7714700  16.8094000
  19.9546800  96.7957350  16.5756190  33.6382710 107.1848260   3.6035220
  33.3504410 107.6460950   4.3913100  34.4334880 106.7246030   3.8719440
  19.8224350 111.5598040  17.1907920  19.9315470 110.6192780  17.0503310
  19.1704910 111.8252790  16.5421650  27.8136940 109.8313930  18.5906040
  27.4933810 109.1123170  19.1351730  27.1395300 110.5069000  18.6642100
  25.8551110 110.6774380   3.5339190  25.8461210 111.4104070   2.9183700
  24.9349470 110.4305960   3.6266150  21.4557750 105.8989270   4.2785950
  20.8485700 106.6388170   4.2881250  21.9307100 105.9888630   3.4524150
  31.0290540 100.0640090  13.9542840  31.3971360  99.2435300  14.2822410
  30.1688740 100.1241980  14.3698490  34.3952570  99.0197030   4.7630400
  33.7665730  99.1242700   4.0488630  33.9004490  99.2393810   5.5524280
  26.3636600 101.2982980   6.1788280  25.6552750 101.7669320   6.6201890
  26.6481080 100.6404990   6.8133470  27.9892530 102.7179680  14.1780810
  28.4877780 103.1925500  14.8432660  28.1315480 101.7943200  14.3850840
  30.3952030  98.0233640   7.6184070  30.2719810  98.0419770   6.6693580
  31.3436590  98.0712580   7.7382470  27.4828820 113.2588940   6.8912050
  27.7370320 113.2210330   5.9691420  26.5341300 113.1322270   6.8840300
  24.5671620  99.6068060   3.5538990  25.4162150 100.0438210   3.4879180
  24.2002890  99.9188320   4.3811050  35.1959390  98.9347640  15.0209200
  34.6932990  99.6753040  15.3603010  36.0116050  99.3231640  14.7045990
  33.4881400 104.1780820   8.4670560  32.5471540 104.1931050   8.6418250
  33.8025470 103.3916780   8.9130860  22.1609800 103.2925490   2.7107410
  22.2413390 102.3453000   2.8224810  23.0529550 103.6232370   2.8168070
  35.4906980 111.3489670  10.1424820  35.6154400 112.1720840  10.6148630
  36.3572540 111.1380400   9.7948970  22.9624510 113.4420880   9.8141950
  23.6986990 112.8936340  10.0850520  23.3465430 114.3076890   9.6747940
  19.8469990 109.5094450   5.6883460  18.9209770 109.7515590   5.6788870
  20.3126420 110.3368710   5.5668210  21.9682790 112.6266950  19.0027530
  22.7695520 112.9479000  19.4162930  21.4534610 112.2662530  19.7247440
  30.8047420 108.7346820  18.9502940  30.1985580 108.7578420  18.2098690
  30.5001530 108.0029860  19.4870190  32.2347790 112.4627110  17.5612350
  33.1869540 112.3785130  17.5112590  32.0876010 113.1268820  18.2346140
  35.1256990 111.8421320   3.0604260  34.8398500 111.4286460   2.2458440
  34.9276540 112.7709030   2.9404780  19.6880600 105.1140410  17.9463580
  20.1919620 104.5347690  18.5179810  18.9488020 105.3980640  18.4839950
  26.7418540 106.5211400  17.4799100  25.9764210 107.0896400  17.3953770
  26.9234500 106.2287610  16.5867330  29.8306950 106.8974630   2.1051860
  29.2817050 107.3443930   2.7494600  30.4526210 106.3923880   2.6289530
  33.8841890 108.2516730  18.0374120  34.6251360 108.5892490  17.5341580
  33.1214570 108.4208790  17.4843890  21.7203680 103.2570000  18.8413650
  21.7609020 102.9583870  19.7498880  22.5749180 103.6577610  18.6821170
  25.4982070 105.8565550   4.0017160  25.9198490 105.6905420   4.8448550
  25.6232910 105.0465780   3.5072300  23.6609490 101.8362100  16.8088140
  23.1305950 101.3453050  16.1811480  24.3297560 102.2646300  16.2746070
  32.5587550 106.3031560  16.5729330  32.9728570 106.4576640  17.4219750
  31.6238550 106.4286780  16.7355110  33.0309720 103.6427720  18.5768480
  33.6130490 102.8880040  18.4888960  33.2071490 104.1735160  17.7999960
  24.1481790  98.8024470  16.8885430  24.0538660  98.1845220  16.1636300
  23.5679180  99.5290760  16.6615340  26.9143230  97.3597710  13.9212820
  26.4660530  97.3821970  13.0758370  26.2808430  96.9616730  14.5183120
  27.3202780 106.2552040  14.5425260  27.7390890 107.0984770  14.3701500
  26.4011410 106.3924080  14.3132040  29.6566680 103.9868220  15.9263100
  29.7762890 103.3909360  16.6657940  30.5160680 104.0237910  15.5064400
  31.9954580 104.5405410  14.5025610  31.4689800 105.0648030  13.8990750
  32.3385920 105.1732800  15.1335340  25.1710200 112.5605050  15.6582990
  24.6331290 113.2851110  15.3391690  25.4244160 112.0835390  14.8680330
  26.4235450 100.5289570  17.1838920  27.0135140 100.2205420  17.8716740
  25.6055690 100.0569320  17.3398820  31.2428880 100.1455380  17.4171940
  30.5544400  99.4836920  17.3521930  31.9634900  99.6993650  17.8620400
  31.8729280  96.7407010   3.4762200  32.1531570  95.8974910   3.8321620
  31.0995010  96.9730120   3.9900950  28.0272410 113.7956260  15.9169640
  27.9531110 114.6991400  16.2242010  27.1251250 113.4768160  15.8891710
  28.5757740 112.9614770   3.5396000  29.4708530 113.2999740   3.5614760
  28.6075370 112.2394180   2.9120280  22.2153900 108.3341820   1.7683000
  22.6528770 108.8771490   2.4240580  22.7001630 107.5088770   1.7779340
  19.4299700 111.1230850   9.2203260  19.7602710 110.2551910   8.9881900
  19.8590700 111.3289370  10.0508220  24.0261620 109.4539860   6.8805230
  23.7257160 109.3304830   7.7809140  23.9199110 108.5948450   6.4720960
  19.9189910 111.9901440  11.9584890  19.4820900 112.1702240  12.7909040
  20.4867590 112.7476060  11.8166610  35.5552090 111.4918440  16.2462200
  34.9554080 111.5511000  15.5026120  35.6845990 110.5523420  16.3759050
  36.2510000 105.9783740   4.0866110  37.0128910 106.5480390   4.1925800
  36.2664370 105.4110940   4.8574420  19.7514340 104.5021670   8.3173770
  19.0963180 104.2333310   7.6733470  20.5892290 104.3926150   7.8675750
  37.2569970 106.8333840   8.9308040  37.6278800 106.0501160   8.5244010
  37.8971900 107.5222940   8.7525340  34.2403730 108.2170420  14.3438360
  33.4263570 108.6467580  14.6064150  34.6477930 108.8288830  13.7307410
  32.7004780  99.2962960   2.5392260  33.1189660  99.1093940   1.6988920
  32.3940840  98.4442010   2.8495190  36.1994510 104.2087100   6.2368060
  35.8238110 103.4415030   5.8049350  35.4697630 104.5909800   6.7242990
  20.7890270 104.8874240  12.8577110  21.1563310 104.8001640  13.7373130
  20.2201090 104.1240790  12.7583970  35.5894130 103.3558620  15.8707580
  35.3580220 103.1271370  14.9705530  35.8498680 104.2758170  15.8252470
  20.3406270 101.7983330  16.7635530  19.4462320 101.7650090  17.1029240
  20.8803820 101.9970120  17.5286780  34.0282200  98.5815050  18.6487280
  34.9052380  98.5898450  19.0321280  34.0403040  97.8445890  18.0379630
  18.9652420 101.7120600   4.2599100  18.0616500 101.9750800   4.0850760
  19.4493040 101.9831770   3.4799060  35.4745470 102.4344590   9.5375300
  35.9982950 101.9407240   8.9065470  36.0604890 102.5694950  10.2822870
  35.6535190 102.5184460  13.0594850  34.7037900 102.4848000  13.1739840
  35.8348200 103.4284570  12.8244620  34.9645440 101.6917940   5.4767710
  35.4604560 101.4588810   6.2616590  34.7661510 100.8529780   5.0605350
  20.8445980  96.0731660  11.1118750  21.4922170  95.5229040  10.6713910
  21.2647820  96.3274810  11.9334560  36.3932600 100.3278890   8.0105390
  36.2831880 100.1734930   8.9487660  37.1540190  99.7999830   7.7680800
  34.7398320  96.2673020  14.4688390  35.3770540  96.8807160  14.8347580
  34.8873210  96.3033680  13.5237620  37.3561360  98.9297470   3.8768240
  36.5612860  98.8642590   4.4061150  37.5604640  99.8648110   3.8653590
  34.2979780 112.9689020   7.8706630  34.8938850 112.6473590   7.1941050
  34.5557930 112.4960840   8.6619900  20.5977980  96.2287330  13.8544070
  20.2492800  96.6851150  14.6202250  20.2665680  95.3344460  13.9366500
  22.2042350 109.4006930  18.0197260  22.1611980 109.0299840  18.9011720
  22.3353360 110.3384500  18.1599080  25.9048380 110.9566520  13.6206980
  25.6639740 111.2241080  12.7337500  26.8451020 111.1272250  13.6757840
  28.1102800  97.4199210  17.3763490  28.0491690  98.0121040  18.1258900
  29.0503180  97.3125170  17.2313750  30.7477360  97.0769270  17.0155780
  31.3617770  97.3948560  16.3536860  31.2926920  96.5917860  17.6351640
  37.1652540 112.9760900  14.4217620  36.6710820 113.3729770  13.7044750
  36.5565830 112.3510110  14.8154900  21.2698620  95.7563530  17.1294840
  21.8181610  95.5751580  16.3660950  21.3353930  94.9657640  17.6651150
  22.0430380 112.3469180  15.1395040  21.4490700 112.2153880  15.8785080
  22.0354220 111.5107320  14.6737140  31.4885400  95.6401410  13.3425070
  30.6145240  95.9736520  13.1398000  31.3796150  95.1674590  14.1676940
  32.3957380  97.8472280  14.7266790  32.0670740  97.0324040  14.3468520
  33.3439680  97.8042090  14.6032480  34.8491990 113.6184320  11.7004360
  34.3894960 114.3700130  11.3262380  34.2204450 112.8990790  11.6419160
  21.6742610 109.7127560  14.0903080  20.9476670 109.0932850  14.0229030
  21.7351760 110.1068170  13.2201160  25.2787710 111.9272560  10.8752490
  25.7952730 111.3159920  10.3500750  25.9285090 112.4301340  11.3663500
  28.0183210 112.8181050  11.7021470  28.3061020 112.5635350  10.8254480
  28.5306430 112.2658410  12.2927040  29.2360220  96.5571250  12.2817980
  28.4532010  97.0316750  12.5614740  28.9423150  95.6526080  12.1731160
  33.7881290  97.2594350  10.3267070  34.2289380  97.2039450   9.4788670
  33.5188880  98.1752360  10.3977250  35.6519860  96.8909590   8.3375890
  35.5908260  95.9470810   8.1906910  36.4311890  96.9989680   8.8829350
  19.9572610 113.0301950   7.2999840  19.7894650 112.3972630   7.9981730
  19.0907120 113.2361350   6.9494030  20.5800630  96.8618730   4.8031700
  21.3379990  96.9747610   4.2295730  20.1177800  97.6987930   4.7575130
  27.1214440  98.9758000   7.7934010  26.3088950  98.6014890   7.4529890
  27.6256080  98.2203080   8.0955200  31.6239420  95.6400450   9.0317080
  32.2268790  96.2120660   9.5065600  30.8832410  96.2039890   8.8090980
  34.7674020  96.0422010   4.3057360  34.9624650  96.9405460   4.5724790
  33.9803890  95.8109090   4.7990310  21.5635310 111.7235180   4.7449980
  21.0382930 112.1043210   4.0411940  21.4879890 112.3485950   5.4659690
  22.9525780  97.3882780   3.3433670  23.4818540  96.6012580   3.2141620
  23.5854100  98.0673970   3.5769200  25.1463620  97.1257920   6.3979060
  24.5166360  96.4245230   6.5649190  24.6068760  97.8862050   6.1812220
  28.0855570 113.7397150  19.0689670  29.0122880 113.5041420  19.1125630
  28.0706000 114.5669150  18.5875700  36.3200630 113.2822720   6.0663920
  36.4952820 112.5960460   5.4224840  35.6222200 113.8069770   5.6740590
  25.2719180  96.4041900  18.8331550  24.9903450  96.9075500  18.0692370
  25.6538880  95.6063650  18.4673680  24.1628280 113.6717560   3.6199230
  24.8947100 113.3876840   3.0723120  24.4221950 113.4330840   4.5098610
  23.3243070 109.7882290   3.6245560  22.6951950 110.2567390   4.1731390
  23.4390900 108.9431510   4.0591750  31.8734640  95.8195480  19.4112020
  31.7600090  96.1390090  20.3063540  32.6904380  96.2207990  19.1149300
  34.6533130 112.9667010  18.8930710  35.4458450 112.4716240  18.6856670
  34.9466280 113.6457150  19.5006320  30.7792790  85.0644460 139.9694680
  30.6986840  84.1499070 139.6986390  30.3657210  85.5611530 139.2634390
  28.9110830  86.8423480 141.8503950  28.1352930  86.3623920 142.1402520
  29.5623760  86.1629130 141.6760110  22.9276660  87.1543290 142.7279710
  22.0961540  86.8992000 143.1276220  23.5357640  87.2254060 143.4637630
  32.9318260  91.2483670 140.6303080  32.4699790  90.4770910 140.9590250
  33.7443810  91.2749740 141.1355530  22.9077920  91.1883380 142.9237730
  23.2105960  90.2981120 142.7447950  23.6521510  91.7453600 142.6959980
  21.3368610  82.1145180 136.5122100  20.4485310  82.4561150 136.4101980
  21.6209800  81.9145500 135.6202930  19.3001620  84.7150830 142.3961800
  19.8717730  83.9473030 142.3965440  19.3003160  85.0139590 141.4868410
  29.1581570  93.5341680 140.2507070  28.5393010  93.9899180 139.6801510
  30.0133350  93.6893140 139.8496770  28.3519820  89.5180670 141.8574110
  28.2828100  88.5770610 141.6963240  29.1139680  89.6082080 142.4296680
  20.5426490  80.1235190 144.1830730  20.3629330  79.2260940 144.4633490
  20.1406570  80.6707060 144.8577680  29.3824990  82.3251050 142.0843040
  29.7589810  81.4522930 141.9716710  29.2844500  82.6609750 141.1933480
  23.5130000  80.6976680 137.5460480  23.6196750  81.5980410 137.8529240
  22.6022360  80.6494650 137.2555130  33.1649110  79.8201490 139.0171380
  33.9858730  79.3298060 139.0596860  33.1983190  80.4099150 139.7703220
  21.1613160  82.6195690 142.7913070  21.8423270  82.8834060 143.4100470
  20.8461210  81.7796560 143.1251080  25.3537730  83.6663050 141.8785660
  25.8615950  84.1644020 142.5190680  25.8850970  82.8898250 141.7025020
  37.4548660  81.8368240 145.5815010  36.7500830  82.2249950 145.0630120
  37.7206580  82.5318530 146.1835940  23.6373830  78.3061610 146.1449080
  23.6392270  78.8234000 145.3394980  22.8078140  77.8291790 146.1219010
  30.0244920  88.4180920 137.6438980  29.4062190  88.8830370 137.0801700
  30.5368170  89.1108400 138.0608490  24.8876680  87.9456790 144.3222580
  24.5546060  88.5725710 144.9643650  25.0643360  88.4718670 143.5424250
  33.4010590  81.7601870 141.7898920  32.6966160  82.0486760 142.3702030
  33.7622750  82.5701980 141.4298480  23.3189160  80.0171570 144.1519530
  23.6605970  80.8613620 143.8573400  22.3804970  80.1655310 144.2684870
  24.0995780  89.9137590 146.1371760  24.7169780  90.5888670 145.8556210
  23.2388900  90.3225570 146.0459260  19.3928120  89.1037450 135.0178610
  19.0156100  89.5924550 134.2863510  19.6501190  89.7762730 135.6485140
  35.0173370  91.3777000 144.0526400  34.3336890  92.0476110 144.0443070
  35.5567660  91.5757650 143.2871260  36.4697510  81.2056660 142.1808130
  35.5222420  81.2395640 142.3123560  36.7947500  82.0195610 142.5657490
  27.0017050  77.5053840 140.4764120  27.3092030  76.9500730 139.7599620
  26.0717750  77.6398300 140.2937110  32.5532110  93.2221130 142.7671580
  32.5659270  92.8183420 141.8993840  32.0007330  93.9968420 142.6633010
  33.8477530  89.9437350 137.8561750  33.7373860  89.0011680 137.9811170
  33.8445780  90.3052990 138.7424510  31.9517550  88.1250970 144.0954190
  32.3686340  87.9111080 143.2607650  32.6757370  88.3823760 144.6662810
  29.3897810  85.5702670 137.2124240  28.4627090  85.5040050 137.4412710
  29.5422630  86.5082800 137.0979480  29.3766890  81.8419670 134.2091400
  28.4370560  82.0033630 134.2943860  29.6950150  82.5605350 133.6627390
  35.8979650  86.5238190 144.1870430  35.0698280  86.5931280 143.7120560
  36.4930130  87.1092500 143.7186260  33.4195100  87.1322970 137.7159490
  32.8007520  86.7942520 137.0685790  33.4019550  86.4882730 138.4238680
  32.8621660  83.3107510 145.1325300  32.4492840  84.1361220 145.3865290
  32.1297610  82.7252550 144.9401660  24.9954450  86.0967410 139.9943970
  24.5911450  85.3844660 139.4989870  25.0817570  85.7520650 140.8832010
  25.4636150  89.7834970 142.1583180  25.1664440  89.1780440 141.4790960
  26.4135970  89.8212280 142.0472540  23.7083070  82.8710620 143.7743010
  24.2597660  82.9805960 142.9996260  24.2226580  83.2448220 144.4898240
  33.5521760  93.3566840 145.8206280  33.0752320  94.1639030 145.6278890
  32.8683550  92.7045170 145.9732490  24.5554580  89.5216660 148.8090980
  23.6583110  89.7456630 149.0564380  24.5807450  89.6451600 147.8602380
  31.5959800  86.3709780 134.7232240  32.0353080  85.5332210 134.5770060
  32.3088220  87.0039180 134.8096380  23.3825800  86.3929980 147.3848350
  23.2433570  87.2652780 147.7535750  22.5007160  86.0502790 147.2396290
  29.7055180  91.3105850 138.6913480  30.1451090  92.0530180 138.2768870
  29.6442070  91.5532420 139.6152440  25.1806150  92.3351680 149.5933500
  25.1521580  92.7394630 148.7261930  25.0171120  91.4062040 149.4305100
  35.1776940  77.6252590 133.0373280  34.8649600  77.7179420 133.9372350
  35.9389410  78.2033620 132.9870710  21.6959080  84.9912390 137.4950620
  21.5756680  85.7174480 136.8831890  21.3859970  84.2215300 137.0178530
  19.3344450  88.1627530 143.3019260  19.4124870  88.2976300 142.3574980
  19.9486130  87.4543420 143.4947380  20.5792080  89.8627720 139.7125440
  20.1720160  90.0042310 138.8579040  21.4705090  89.5787880 139.5096650
  36.5354220  90.3091630 148.0497680  36.6617280  90.0703510 147.1314860
  36.5775600  89.4776170 148.5219760  30.3970960  94.0119630 146.6192490
  30.9115630  93.9227640 147.4214920  29.5540040  94.3579330 146.9120400
  32.3725360  94.2974970 136.0476490  32.2126500  94.0077910 136.9458320
  32.2072070  93.5215100 135.5121720  24.8513740  94.0773500 137.8248110
  24.6756220  93.1609040 137.6115910  23.9969480  94.4360790 138.0645910
  32.0751490  91.8062530 134.6074490  31.3816650  91.8039820 133.9476770
  32.8174350  91.3821850 134.1768660  31.6401420  93.4325240 138.6822980
  32.0958370  92.6514620 138.9961600  31.9793940  94.1432060 139.2264160
  36.3878230  82.3624090 149.0147420  35.7722500  82.8703760 148.4862880
  36.0674650  81.4622420 148.9573360  19.3903970  89.2041700 145.8413720
  19.5535010  88.7347060 145.0233090  19.8556420  88.6965260 146.5062560
  24.1622740  78.3347460 140.8774290  23.7190890  79.1157000 140.5458810
  24.7207730  78.6577350 141.5845230  28.4492550  81.2015980 146.4809610
  27.9871920  81.4099000 147.2929550  28.0470660  80.3875330 146.1780280
  33.4497060  82.4224930 147.6106270  32.5990650  82.1230680 147.9315340
  33.2898850  82.6666940 146.6990090  30.5446770  83.9226680 149.7105060
  30.8700180  83.0890430 149.3707290  31.3327100  84.4455200 149.8583390
  27.2781560  77.9558160 135.7580120  26.6535740  77.9518030 136.4833430
  27.1911680  77.0889120 135.3616090  26.1998640  78.8794790 142.7363890
  26.4970970  79.7857620 142.6555910  26.7484200  78.3913570 142.1223460
  23.9536960  83.4581030 138.6055540  23.7277880  83.2418200 139.5102160
  23.1729490  83.8909490 138.2601510  31.1834720  83.4644400 137.2046190
  30.5843610  84.1880200 137.0209810  31.7314330  83.4021180 136.4222640
  26.3936170  84.3566610 149.2715810  26.2979770  83.4161340 149.1216210
  27.2368150  84.5781680 148.8763880  29.7899590  82.1007940 139.2349470
  30.1829160  82.4180140 138.4218160  30.1516440  81.2219820 139.3493990
  21.5246710  80.7680280 147.4249590  21.1310100  81.6155490 147.6322370
  20.8365110  80.1306650 147.6158230  18.8263760  78.6908740 141.4579670
  18.5376810  79.2611600 142.1704650  19.5709520  78.2113190 141.8210900
  19.0133990  82.6328860 132.6682390  18.9308660  83.5759620 132.8097380
  18.6617050  82.4903770 131.7894740  30.3754730  84.6913690 143.3300250
  29.6435850  85.2000500 143.6790350  29.9779070  83.8743670 143.0289030
  26.8132120  81.3667890 141.7352740  26.8168180  80.9257840 140.8857280
  27.7083240  81.6885220 141.8424560  22.6634500  81.2494380 140.6946950
  22.3234550  81.7269610 141.4514000  21.9011820  80.7959500 140.3348050
  26.8752270  82.3679970 134.7259500  26.9965090  82.3266450 135.6745320
  26.4900780  83.2304120 134.5706230  30.8380640  80.1447370 142.7423190
  30.8553380  80.5956020 143.5865040  30.5896220  79.2453010 142.9556630
  25.8873770  84.6781110 134.1242800  25.3190670  84.2299360 133.4978710
  26.5962770  85.0373890 133.5907950  34.2651390  77.5579550 148.5809570
  34.5897160  76.8269210 149.1067550  34.3007900  77.2393190 147.6790560
  20.9642950  88.5793130 148.0009530  20.5797740  87.9386800 148.5992490
  21.2755140  89.2829250 148.5704260  27.1140090  85.4269670 143.4818150
  27.4810220  84.9528240 144.2279490  26.9245150  86.3011240 143.8226490
  19.9780580  80.1713360 139.6111620  19.6927500  79.8069030 140.4490240
  19.9159440  79.4393820 138.9974760  24.9039460  84.4678310 145.8002360
  24.5996530  85.3470290 146.0252720  25.8585920  84.5278100 145.8359800
  23.4321250  88.6739300 136.3969210  22.6583510  88.1336920 136.2367930
  24.1615880  88.1545910 136.0586970  34.1909230  87.6704660 142.1895600
  34.9108350  88.1659950 141.7991710  33.9891050  86.9922550 141.5449470
  29.6519170  79.0642620 136.3324990  28.8383780  78.5655790 136.2570300
  29.4581120  79.9040870 135.9161340  29.5728030  87.7413720 148.0764600
  29.5065340  86.8209390 147.8222190  28.9433170  87.8389160 148.7909240
  32.3667560  83.4362270 134.6287150  33.2547180  83.7479500 134.4538490
  32.3372650  82.5634520 134.2367730  23.4758650  88.3419680 140.0348020
  23.9937320  87.5387940 139.9804910  23.0242670  88.2798820 140.8764850
  28.3628150  89.6085960 135.3075320  28.7043850  90.3528190 134.8118640
  27.5340860  89.9217080 135.6700150  20.9603190  85.3081050 146.9473720
  20.6018130  85.9734900 147.5347060  20.6657750  84.4764600 147.3186340
  24.1616310  85.7665290 149.8313270  23.8616450  85.9122470 148.9341090
  24.9327550  85.2070580 149.7386660  29.5044760  90.5634290 147.8268400
  29.5189300  89.6315250 147.6087310  28.7969860  90.6494050 148.4658170
  34.6381830  84.7474110 134.0967010  34.5545550  85.1788330 133.2463450
  35.3576020  85.2072460 134.5293830  35.7155970  87.2041630 147.1736980
  34.9904160  87.7970410 146.9766370  36.2431430  87.1965170 146.3750350
  35.6669080  91.6016370 136.8249140  35.0245240  90.9471990 137.0992860
  35.2799740  92.0071460 136.0489810  31.2455560  88.9301800 140.6720830
  31.5979380  88.3329930 140.0122200  30.3617890  88.6046030 140.8429080
  27.3318840  89.6899490 138.0791240  28.0189970  90.2368700 138.4598830
  26.5451260  90.2340220 138.1140850  19.4711240  85.3072310 133.5708320
  20.3406090  85.5897110 133.8544240  18.9801560  86.1208180 133.4557130
  26.6346050  86.6945520 137.6916600  27.0908830  87.5050770 137.9176790
  26.2834260  86.3768660 138.5235090  28.9378660  92.2051860 144.9208900
  29.5820880  92.4111240 145.5982320  29.3008100  91.4440260 144.4679750
  22.5357830  77.0383170 138.1639120  22.4072460  77.0301070 139.1124040
  21.7119850  77.3766260 137.8130130  30.2110740  90.2084210 143.6386350
  30.8532970  89.5077370 143.7518520  30.7360090  90.9882650 143.4583240
  34.0566460  90.4932830 133.3625490  33.8304040  89.7763270 133.9550130
  33.6662660  90.2445270 132.5247240  31.9848360  91.0079110 146.8422410
  32.3204600  91.5945800 147.5200330  31.0648700  90.8771820 147.0720200
  19.8382490  94.5199690 134.1369950  20.1980130  95.1189030 133.4827220
  19.6974830  95.0659580 134.9104980  19.5351760  78.7974290 147.6245820
  18.8210280  78.9971210 148.2298430  19.9546800  78.0213860 147.9960620
  33.6382710  88.4104770 135.0239650  33.3504410  88.8717460 135.8117530
  34.4334880  87.9502540 135.2923870  19.8224350  92.7854550 148.6112350
  19.9315470  91.8449290 148.4707740  19.1704910  93.0509300 147.9626080
  25.8551110  91.9030890 134.9543620  25.8461210  92.6360580 134.3388130
  24.9349470  91.6562470 135.0470580  21.4557750  87.1245780 135.6990380
  20.8485700  87.8644680 135.7085680  21.9307100  87.2145140 134.8728580
  31.0290540  81.2896600 145.3747270  31.3971360  80.4691810 145.7026840
  30.1688740  81.3498490 145.7902920  34.3952570  80.2453540 136.1834830
  33.7665730  80.3499210 135.4693060  33.9004490  80.4650320 136.9728710
  28.8410710  91.9659130 133.6168810  28.9422690  91.7623120 132.6870790
  27.9412450  91.7117410 133.8216590  26.3636600  82.5239490 137.5992710
  25.6552750  82.9925830 138.0406320  26.6481080  81.8661500 138.2337900
  27.9892530  83.9436190 145.5985240  28.4877780  84.4182010 146.2637090
  28.1315480  83.0199710 145.8055270  30.3952030  79.2490150 139.0388500
  30.2719810  79.2676280 138.0898010  31.3436590  79.2969090 139.1586900
  27.4828820  94.4845450 138.3116480  27.7370320  94.4466840 137.3895850
  26.5341300  94.3578780 138.3044730  24.5671620  80.8324570 134.9743420
  25.4162150  81.2694720 134.9083610  24.2002890  81.1444830 135.8015480
  35.1959390  80.1604150 146.4413630  34.6932990  80.9009550 146.7807440
  36.0116050  80.5488150 146.1250420  33.4881400  85.4037330 139.8874990
  32.5471540  85.4187560 140.0622680  33.8025470  84.6173290 140.3335290
  23.4663040  87.0856930 133.4478950  24.2326310  86.9738290 134.0104380
  23.5437730  86.3894900 132.7955720  22.1609800  84.5182000 134.1311840
  22.2413390  83.5709510 134.2429240  23.0529550  84.8488880 134.2372500
  35.4906980  92.5746180 141.5629250  35.6154400  93.3977350 142.0353060
  36.3572540  92.3636910 141.2153400  22.9624510  94.6677390 141.2346380
  23.6986990  94.1192850 141.5054950  23.3465430  95.5333400 141.0952370
  19.8469990  90.7350960 137.1087890  18.9209770  90.9772100 137.0993300
  20.3126420  91.5625220 136.9872640  26.0726820  93.8407700 133.0571950
  26.8655430  94.1296530 132.6053740  25.5531170  93.4099870 132.3784430
  32.2347790  93.6883620 148.9816780  33.1869540  93.6041640 148.9317020
  32.0876010  94.3525330 149.6550570  35.1256990  93.0677830 134.4808690
  34.8398500  92.6542970 133.6662870  34.9276540  93.9965540 134.3609210
  19.6880600  86.3396920 149.3668010  20.1919620  85.7604200 149.9384240
  18.9488020  86.6237150 149.9044380  26.5904220  89.0611110 132.9214300
  26.4854860  88.4463460 133.6475680  26.4228440  88.5377000 132.1377310
  26.7418540  87.7467910 148.9003530  25.9764210  88.3152910 148.8158200
  26.9234500  87.4544120 148.0071760  29.8306950  88.1231140 133.5256290
  29.2817050  88.5700440 134.1699030  30.4526210  87.6180390 134.0493960
  33.8841890  89.4773240 149.4578550  34.6251360  89.8149000 148.9546010
  33.1214570  89.6465300 148.9048320  25.4982070  87.0822060 135.4221590
  25.9198490  86.9161930 136.2652980  25.6232910  86.2722290 134.9276730
  23.6609490  83.0618610 148.2292570  23.1305950  82.5709560 147.6015910
  24.3297560  83.4902810 147.6950500  28.0109710  86.1059670 132.6698690
  28.5315370  85.3908690 132.3039840  28.6578110  86.7445540 132.9699200
  32.5587550  87.5288070 147.9933760  32.9728570  87.6833150 148.8424180
  31.6238550  87.6543290 148.1559540  33.0309720  84.8684230 149.9972910
  33.6130490  84.1136550 149.9093390  33.2071490  85.3991670 149.2204390
  24.1481790  80.0280980 148.3089860  24.0538660  79.4101730 147.5840730
  23.5679180  80.7547270 148.0819770  26.9143230  78.5854220 145.3417250
  26.4660530  78.6078480 144.4962800  26.2808430  78.1873240 145.9387550
  27.3202780  87.4808550 145.9629690  27.7390890  88.3241280 145.7905930
  26.4011410  87.6180590 145.7336470  29.6566680  85.2124730 147.3467530
  29.7762890  84.6165870 148.0862370  30.5160680  85.2494420 146.9268830
  31.9954580  85.7661920 145.9230040  31.4689800  86.2904540 145.3195180
  32.3385920  86.3989310 146.5539770  24.3940970  83.1555290 132.3679750
  24.1930030  82.2922650 132.7293090  24.2233020  83.0688650 131.4301350
  25.1710200  93.7861560 147.0787420  24.6331290  94.5107620 146.7596120
  25.4244160  93.3091900 146.2884760  26.4235450  81.7546080 148.6043350
  27.0135140  81.4461930 149.2921170  25.6055690  81.2825830 148.7603250
  31.2428880  81.3711890 148.8376370  30.5544400  80.7093430 148.7726360
  31.9634900  80.9250160 149.2824830  31.8729280  77.9663520 134.8966630
  32.1531570  77.1231420 135.2526050  31.0995010  78.1986630 135.4105380
  23.1923770  80.2555910 132.3557630  23.4949670  80.2623340 131.4476780
  23.9318360  79.9053770 132.8525290  28.0272410  95.0212770 147.3374070
  27.9531110  95.9247910 147.6446440  27.1251250  94.7024670 147.3096140
  26.4108700  79.1990530 133.3413830  26.0630700  78.5214520 132.7616280
  26.6121470  78.7380040 134.1557220  28.5757740  94.1871280 134.9600430
  29.4708530  94.5256250 134.9819190  28.6075370  93.4650690 134.3324710
  22.2153900  89.5598330 133.1887430  22.6528770  90.1028000 133.8445010
  22.7001630  88.7345280 133.1983770  19.4299700  92.3487360 140.6407690
  19.7602710  91.4808420 140.4086330  19.8590700  92.5545880 141.4712650
  24.0261620  90.6796370 138.3009660  23.7257160  90.5561340 139.2013570
  23.9199110  89.8204960 137.8925390  19.9189910  93.2157950 143.3789320
  19.4820900  93.3958750 144.2113470  20.4867590  93.9732570 143.2371040
  35.5552090  92.7174950 147.6666630  34.9554080  92.7767510 146.9230550
  35.6845990  91.7779930 147.7963480  36.7953540  90.4592770 133.0036340
  35.9646500  90.5269420 133.4743570  36.9725370  91.3496890 132.7003200
  36.2510000  87.2040250 135.5070540  37.0128910  87.7736900 135.6130230
  36.2664370  86.6367450 136.2778850  19.7514340  85.7278180 139.7378200
  19.0963180  85.4589820 139.0937900  20.5892290  85.6182660 139.2880180
  37.2569970  88.0590350 140.3512470  37.6278800  87.2757670 139.9448440
  37.8971900  88.7479450 140.1729770  34.2403730  89.4426930 145.7642790
  33.4263570  89.8724090 146.0268580  34.6477930  90.0545340 145.1511840
  36.3029170  87.4974620 132.6643060  36.5778010  88.4053500 132.5362280
  36.1139910  87.4337150 133.6005050  32.7004780  80.5219470 133.9596690
  33.1189660  80.3350450 133.1193350  32.3940840  79.6698520 134.2699620
  36.1994510  85.4343610 137.6572490  35.8238110  84.6671540 137.2253780
  35.4697630  85.8166310 138.1447420  20.7890270  86.1130750 144.2781540
  21.1563310  86.0258150 145.1577560  20.2201090  85.3497300 144.1788400
  35.5894130  84.5815130 147.2912010  35.3580220  84.3527880 146.3909960
  35.8498680  85.5014680 147.2456900  20.3406270  83.0239840 148.1839960
  19.4462320  82.9906600 148.5233670  20.8803820  83.2226630 148.9491210
  18.9652420  82.9377110 135.6803530  18.0616500  83.2007310 135.5055190
  19.4493040  83.2088280 134.9003490  35.4745470  83.6601100 140.9579730
  35.9982950  83.1663750 140.3269900  36.0604890  83.7951460 141.7027300
  35.6535190  83.7440970 144.4799280  34.7037900  83.7104510 144.5944270
  35.8348200  84.6541080 144.2449050  21.5079630  81.9942650 133.5897910
  22.2171330  81.5725870 133.1045190  20.7919570  82.0617880 132.9581260
  21.1553790  78.0481980 132.6300560  21.8781920  78.5890920 132.9481780
  21.4278310  77.7745400 131.7542100  34.9645440  82.9174450 136.8972140
  35.4604560  82.6845320 137.6821020  34.7661510  82.0786290 136.4809780
  20.8445980  77.2988170 142.5323180  21.4922170  76.7485550 142.0918340
  21.2647820  77.5531320 143.3538990  36.3932600  81.5535400 139.4309820
  36.2831880  81.3991440 140.3692090  37.1540190  81.0256340 139.1885230
  34.7398320  77.4929530 145.8892820  35.3770540  78.1063670 146.2552010
  34.8873210  77.5290190 144.9442050  37.2822870  79.3843320 132.6715960
  38.2072180  79.2524500 132.4634250  37.2598660  79.4636140 133.6252410
  37.3561360  80.1553980 135.2972670  36.5612860  80.0899100 135.8265580
  37.5604640  81.0904620 135.2858020  34.2979780  94.1945530 139.2911060
  34.8938850  93.8730100 138.6145480  34.5557930  93.7217350 140.0824330
  20.5977980  77.4543840 145.2748500  20.2492800  77.9107660 146.0406680
  20.2665680  76.5600970 145.3570930  25.9048380  92.1823030 145.0411410
  25.6639740  92.4497590 144.1541930  26.8451020  92.3528760 145.0962270
  28.1102800  78.6455720 148.7967920  28.0491690  79.2377550 149.5463330
  29.0503180  78.5381680 148.6518180  30.7477360  78.3025780 148.4360210
  31.3617770  78.6205070 147.7741290  31.2926920  77.8174370 149.0556070
  37.1652540  94.2017410 145.8422050  36.6710820  94.5986280 145.1249180
  36.5565830  93.5766620 146.2359330  21.2698620  76.9820040 148.5499270
  21.8181610  76.8008090 147.7865380  21.3353930  76.1914150 149.0855580
  22.0430380  93.5725690 146.5599470  21.4490700  93.4410390 147.2989510
  22.0354220  92.7363830 146.0941570  31.4885400  76.8657920 144.7629500
  30.6145240  77.1993030 144.5602430  31.3796150  76.3931100 145.5881370
  32.3957380  79.0728790 146.1471220  32.0670740  78.2580550 145.7672950
  33.3439680  79.0298600 146.0236910  34.8491990  94.8440830 143.1208790
  34.3894960  95.5956640 142.7466810  34.2204450  94.1247300 143.0623590
  21.6742610  90.9384070 145.5107510  20.9476670  90.3189360 145.4433460
  21.7351760  91.3324680 144.6405590  25.2787710  93.1529070 142.2956920
  25.7952730  92.5416430 141.7705180  25.9285090  93.6557850 142.7867930
  28.0183210  94.0437560 143.1225900  28.3061020  93.7891860 142.2458910
  28.5306430  93.4914920 143.7131470  29.2360220  77.7827760 143.7022410
  28.4532010  78.2573260 143.9819170  28.9423150  76.8782590 143.5935590
  33.7881290  78.4850860 141.7471500  34.2289380  78.4295960 140.8993100
  33.5188880  79.4008870 141.8181680  35.6519860  78.1166100 139.7580320
  35.5908260  77.1727320 139.6111340  36.4311890  78.2246190 140.3033780
  19.9572610  94.2558460 138.7204270  19.7894650  93.6229140 139.4186160
  19.0907120  94.4617860 138.3698460  20.5800630  78.0875240 136.2236130
  21.3379990  78.2004120 135.6500160  20.1177800  78.9244440 136.1779560
  27.1214440  80.2014510 139.2138440  26.3088950  79.8271400 138.8734320
  27.6256080  79.4459590 139.5159630  31.6239420  76.8656960 140.4521510
  32.2268790  77.4377170 140.9270030  30.8832410  77.4296400 140.2295410
  34.7674020  77.2678520 135.7261790  34.9624650  78.1661970 135.9929220
  33.9803890  77.0365600 136.2194740  21.5635310  92.9491690 136.1654410
  21.0382930  93.3299720 135.4616370  21.4879890  93.5742460 136.8864120
  22.9525780  78.6139290 134.7638100  23.4818540  77.8269090 134.6346050
  23.5854100  79.2930480 134.9973630  25.1463620  78.3514430 137.8183490
  24.5166360  77.6501740 137.9853620  24.6068760  79.1118560 137.6016650
  36.3200630  94.5079230 137.4868350  36.4952820  93.8216970 136.8429270
  35.6222200  95.0326280 137.0945020  24.1628280  94.8974070 135.0403660
  24.8947100  94.6133350 134.4927550  24.4221950  94.6587350 135.9303040
  23.3243070  91.0138800 135.0449990  22.6951950  91.4823900 135.5935820
  23.4390900  90.1688020 135.4796180  30.7792790  85.0644460 121.1951190
  30.6986840  84.1499070 120.9242900  30.3657210  85.5611530 120.4890900
  28.9110830  86.8423480 123.0760460  28.1352930  86.3623920 123.3659030
  29.5623760  86.1629130 122.9016620  22.9276660  87.1543290 123.9536220
  22.0961540  86.8992000 124.3532730  23.5357640  87.2254060 124.6894140
  32.9318260  91.2483670 121.8559590  32.4699790  90.4770910 122.1846760
  33.7443810  91.2749740 122.3612040  22.9077920  91.1883380 124.1494240
  23.2105960  90.2981120 123.9704460  23.6521510  91.7453600 123.9216490
  21.3368610  82.1145180 117.7378610  20.4485310  82.4561150 117.6358490
  21.6209800  81.9145500 116.8459440  19.3001620  84.7150830 123.6218310
  19.8717730  83.9473030 123.6221950  19.3003160  85.0139590 122.7124920
  29.1581570  93.5341680 121.4763580  28.5393010  93.9899180 120.9058020
  30.0133350  93.6893140 121.0753280  28.3519820  89.5180670 123.0830620
  28.2828100  88.5770610 122.9219750  29.1139680  89.6082080 123.6553190
  20.5426490  80.1235190 125.4087240  20.3629330  79.2260940 125.6890000
  20.1406570  80.6707060 126.0834190  29.3824990  82.3251050 123.3099550
  29.7589810  81.4522930 123.1973220  29.2844500  82.6609750 122.4189990
  23.5130000  80.6976680 118.7716990  23.6196750  81.5980410 119.0785750
  22.6022360  80.6494650 118.4811640  33.1649110  79.8201490 120.2427890
  33.9858730  79.3298060 120.2853370  33.1983190  80.4099150 120.9959730
  21.1613160  82.6195690 124.0169580  21.8423270  82.8834060 124.6356980
  20.8461210  81.7796560 124.3507590  25.3537730  83.6663050 123.1042170
  25.8615950  84.1644020 123.7447190  25.8850970  82.8898250 122.9281530
  37.4548660  81.8368240 126.8071520  36.7500830  82.2249950 126.2886630
  37.7206580  82.5318530 127.4092450  23.6373830  78.3061610 127.3705590
  23.6392270  78.8234000 126.5651490  22.8078140  77.8291790 127.3475520
  30.0244920  88.4180920 118.8695490  29.4062190  88.8830370 118.3058210
  30.5368170  89.1108400 119.2865000  24.8876680  87.9456790 125.5479090
  24.5546060  88.5725710 126.1900160  25.0643360  88.4718670 124.7680760
  33.4010590  81.7601870 123.0155430  32.6966160  82.0486760 123.5958540
  33.7622750  82.5701980 122.6554990  23.3189160  80.0171570 125.3776040
  23.6605970  80.8613620 125.0829910  22.3804970  80.1655310 125.4941380
  24.0995780  89.9137590 127.3628270  24.7169780  90.5888670 127.0812720
  23.2388900  90.3225570 127.2715770  19.3928120  89.1037450 116.2435120
  19.0156100  89.5924550 115.5120020  19.6501190  89.7762730 116.8741650
  35.0173370  91.3777000 125.2782910  34.3336890  92.0476110 125.2699580
  35.5567660  91.5757650 124.5127770  36.4697510  81.2056660 123.4064640
  35.5222420  81.2395640 123.5380070  36.7947500  82.0195610 123.7914000
  27.0017050  77.5053840 121.7020630  27.3092030  76.9500730 120.9856130
  26.0717750  77.6398300 121.5193620  32.5532110  93.2221130 123.9928090
  32.5659270  92.8183420 123.1250350  32.0007330  93.9968420 123.8889520
  33.8477530  89.9437350 119.0818260  33.7373860  89.0011680 119.2067680
  33.8445780  90.3052990 119.9681020  31.9517550  88.1250970 125.3210700
  32.3686340  87.9111080 124.4864160  32.6757370  88.3823760 125.8919320
  29.3897810  85.5702670 118.4380750  28.4627090  85.5040050 118.6669220
  29.5422630  86.5082800 118.3235990  29.3766890  81.8419670 115.4347910
  28.4370560  82.0033630 115.5200370  29.6950150  82.5605350 114.8883900
  35.8979650  86.5238190 125.4126940  35.0698280  86.5931280 124.9377070
  36.4930130  87.1092500 124.9442770  33.4195100  87.1322970 118.9416000
  32.8007520  86.7942520 118.2942300  33.4019550  86.4882730 119.6495190
  32.8621660  83.3107510 126.3581810  32.4492840  84.1361220 126.6121800
  32.1297610  82.7252550 126.1658170  24.9954450  86.0967410 121.2200480
  24.5911450  85.3844660 120.7246380  25.0817570  85.7520650 122.1088520
  25.4636150  89.7834970 123.3839690  25.1664440  89.1780440 122.7047470
  26.4135970  89.8212280 123.2729050  23.7083070  82.8710620 124.9999520
  24.2597660  82.9805960 124.2252770  24.2226580  83.2448220 125.7154750
  33.5521760  93.3566840 127.0462790  33.0752320  94.1639030 126.8535400
  32.8683550  92.7045170 127.1989000  24.5554580  89.5216660 130.0347490
  23.6583110  89.7456630 130.2820890  24.5807450  89.6451600 129.0858890
  31.5959800  86.3709780 115.9488750  32.0353080  85.5332210 115.8026570
  32.3088220  87.0039180 116.0352890  23.3825800  86.3929980 128.6104860
  23.2433570  87.2652780 128.9792260  22.5007160  86.0502790 128.4652800
  29.7055180  91.3105850 119.9169990  30.1451090  92.0530180 119.5025380
  29.6442070  91.5532420 120.8408950  25.1806150  92.3351680 130.8190010
  25.1521580  92.7394630 129.9518440  25.0171120  91.4062040 130.6561610
  35.1776940  77.6252590 114.2629790  34.8649600  77.7179420 115.1628860
  35.9389410  78.2033620 114.2127220  21.6959080  84.9912390 118.7207130
  21.5756680  85.7174480 118.1088400  21.3859970  84.2215300 118.2435040
  37.1320970  93.1178780 132.1154180  37.6080690  93.5961670 132.7943260
  37.7528130  93.0496270 131.3899680  19.3344450  88.1627530 124.5275770
  19.4124870  88.2976300 123.5831490  19.9486130  87.4543420 124.7203890
  20.5792080  89.8627720 120.9381950  20.1720160  90.0042310 120.0835550
  21.4705090  89.5787880 120.7353160  36.5354220  90.3091630 129.2754190
  36.6617280  90.0703510 128.3571370  36.5775600  89.4776170 129.7476270
  30.3970960  94.0119630 127.8449000  30.9115630  93.9227640 128.6471430
  29.5540040  94.3579330 128.1376910  32.3725360  94.2974970 117.2733000
  32.2126500  94.0077910 118.1714830  32.2072070  93.5215100 116.7378230
  24.8513740  94.0773500 119.0504620  24.6756220  93.1609040 118.8372420
  23.9969480  94.4360790 119.2902420  32.0751490  91.8062530 115.8331000
  31.3816650  91.8039820 115.1733280  32.8174350  91.3821850 115.4025170
  31.6401420  93.4325240 119.9079490  32.0958370  92.6514620 120.2218110
  31.9793940  94.1432060 120.4520670  36.3878230  82.3624090 130.2403930
  35.7722500  82.8703760 129.7119390  36.0674650  81.4622420 130.1829870
  19.3903970  89.2041700 127.0670230  19.5535010  88.7347060 126.2489600
  19.8556420  88.6965260 127.7319070  24.1622740  78.3347460 122.1030800
  23.7190890  79.1157000 121.7715320  24.7207730  78.6577350 122.8101740
  28.4492550  81.2015980 127.7066120  27.9871920  81.4099000 128.5186060
  28.0470660  80.3875330 127.4036790  33.4497060  82.4224930 128.8362780
  32.5990650  82.1230680 129.1571850  33.2898850  82.6666940 127.9246600
  30.5446770  83.9226680 130.9361570  30.8700180  83.0890430 130.5963800
  31.3327100  84.4455200 131.0839900  26.1998640  78.8794790 123.9620400
  26.4970970  79.7857620 123.8812420  26.7484200  78.3913570 123.3479970
  23.9536960  83.4581030 119.8312050  23.7277880  83.2418200 120.7358670
  23.1729490  83.8909490 119.4858020  31.1834720  83.4644400 118.4302700
  30.5843610  84.1880200 118.2466320  31.7314330  83.4021180 117.6479150
  26.3936170  84.3566610 130.4972320  26.2979770  83.4161340 130.3472720
  27.2368150  84.5781680 130.1020390  29.7899590  82.1007940 120.4605980
  30.1829160  82.4180140 119.6474670  30.1516440  81.2219820 120.5750500
  21.5246710  80.7680280 128.6506100  21.1310100  81.6155490 128.8578880
  20.8365110  80.1306650 128.8414740  28.0991760  80.8515250 131.7202840
  27.4090080  80.6587450 132.3548930  28.8424060  81.1349890 132.2527140
  18.8263760  78.6908740 122.6836180  18.5376810  79.2611600 123.3961160
  19.5709520  78.2113190 123.0467410  19.0133990  82.6328860 113.8938900
  18.9308660  83.5759620 114.0353890  18.6617050  82.4903770 113.0151250
  30.3754730  84.6913690 124.5556760  29.6435850  85.2000500 124.9046860
  29.9779070  83.8743670 124.2545540  26.8132120  81.3667890 122.9609250
  26.8168180  80.9257840 122.1113790  27.7083240  81.6885220 123.0681070
  22.6634500  81.2494380 121.9203460  22.3234550  81.7269610 122.6770510
  21.9011820  80.7959500 121.5604560  26.8752270  82.3679970 115.9516010
  26.9965090  82.3266450 116.9001830  26.4900780  83.2304120 115.7962740
  30.8380640  80.1447370 123.9679700  30.8553380  80.5956020 124.8121550
  30.5896220  79.2453010 124.1813140  25.8873770  84.6781110 115.3499310
  25.3190670  84.2299360 114.7235220  26.5962770  85.0373890 114.8164460
  34.2651390  77.5579550 129.8066080  34.5897160  76.8269210 130.3324060
  34.3007900  77.2393190 128.9047070  20.9642950  88.5793130 129.2266040
  20.5797740  87.9386800 129.8249000  21.2755140  89.2829250 129.7960770
  27.1140090  85.4269670 124.7074660  27.4810220  84.9528240 125.4536000
  26.9245150  86.3011240 125.0483000  19.9780580  80.1713360 120.8368130
  19.6927500  79.8069030 121.6746750  19.9159440  79.4393820 120.2231270
  24.9039460  84.4678310 127.0258870  24.5996530  85.3470290 127.2509230
  25.8585920  84.5278100 127.0616310  23.4321250  88.6739300 117.6225720
  22.6583510  88.1336920 117.4624440  24.1615880  88.1545910 117.2843480
  34.1909230  87.6704660 123.4152110  34.9108350  88.1659950 123.0248220
  33.9891050  86.9922550 122.7705980  29.6519170  79.0642620 117.5581500
  28.8383780  78.5655790 117.4826810  29.4581120  79.9040870 117.1417850
  29.5728030  87.7413720 129.3021110  29.5065340  86.8209390 129.0478700
  28.9433170  87.8389160 130.0165750  32.3667560  83.4362270 115.8543660
  33.2547180  83.7479500 115.6795000  32.3372650  82.5634520 115.4624240
  23.4758650  88.3419680 121.2604530  23.9937320  87.5387940 121.2061420
  23.0242670  88.2798820 122.1021360  28.3628150  89.6085960 116.5331830
  28.7043850  90.3528190 116.0375150  27.5340860  89.9217080 116.8956660
  20.9603190  85.3081050 128.1730230  20.6018130  85.9734900 128.7603570
  20.6657750  84.4764600 128.5442850  24.1616310  85.7665290 131.0569780
  23.8616450  85.9122470 130.1597600  24.9327550  85.2070580 130.9643170
  29.5044760  90.5634290 129.0524910  29.5189300  89.6315250 128.8343820
  28.7969860  90.6494050 129.6914680  34.6381830  84.7474110 115.3223520
  34.5545550  85.1788330 114.4719960  35.3576020  85.2072460 115.7550340
  35.7155970  87.2041630 128.3993490  34.9904160  87.7970410 128.2022880
  36.2431430  87.1965170 127.6006860  35.6669080  91.6016370 118.0505650
  35.0245240  90.9471990 118.3249370  35.2799740  92.0071460 117.2746320
  31.2455560  88.9301800 121.8977340  31.5979380  88.3329930 121.2378710
  30.3617890  88.6046030 122.0685590  27.3318840  89.6899490 119.3047750
  28.0189970  90.2368700 119.6855340  26.5451260  90.2340220 119.3397360
  19.4711240  85.3072310 114.7964830  20.3406090  85.5897110 115.0800750
  18.9801560  86.1208180 114.6813640  26.6346050  86.6945520 118.9173110
  27.0908830  87.5050770 119.1433300  26.2834260  86.3768660 119.7491600
  28.9378660  92.2051860 126.1465410  29.5820880  92.4111240 126.8238830
  29.3008100  91.4440260 125.6936260  22.5357830  77.0383170 119.3895630
  22.4072460  77.0301070 120.3380550  21.7119850  77.3766260 119.0386640
  30.2110740  90.2084210 124.8642860  30.8532970  89.5077370 124.9775030
  30.7360090  90.9882650 124.6839750  34.0566460  90.4932830 114.5882000
  33.8304040  89.7763270 115.1806640  33.6662660  90.2445270 113.7503750
  31.9848360  91.0079110 128.0678920  32.3204600  91.5945800 128.7456840
  31.0648700  90.8771820 128.2976710  19.8382490  94.5199690 115.3626460
  20.1980130  95.1189030 114.7083730  19.6974830  95.0659580 116.1361490
  19.5351760  78.7974290 128.8502330  18.8210280  78.9971210 129.4554940
  19.9546800  78.0213860 129.2217130  33.6382710  88.4104770 116.2496160
  33.3504410  88.8717460 117.0374040  34.4334880  87.9502540 116.5180380
  19.8224350  92.7854550 129.8368860  19.9315470  91.8449290 129.6964250
  19.1704910  93.0509300 129.1882590  27.8136940  91.0570440 131.2366980
  27.4933810  90.3379680 131.7812670  27.1395300  91.7325510 131.3103040
  25.8551110  91.9030890 116.1800130  25.8461210  92.6360580 115.5644640
  24.9349470  91.6562470 116.2727090  21.4557750  87.1245780 116.9246890
  20.8485700  87.8644680 116.9342190  21.9307100  87.2145140 116.0985090
  31.0290540  81.2896600 126.6003780  31.3971360  80.4691810 126.9283350
  30.1688740  81.3498490 127.0159430  34.3952570  80.2453540 117.4091340
  33.7665730  80.3499210 116.6949570  33.9004490  80.4650320 118.1985220
  28.8410710  91.9659130 114.8425320  28.9422690  91.7623120 113.9127300
  27.9412450  91.7117410 115.0473100  26.3636600  82.5239490 118.8249220
  25.6552750  82.9925830 119.2662830  26.6481080  81.8661500 119.4594410
  27.9892530  83.9436190 126.8241750  28.4877780  84.4182010 127.4893600
  28.1315480  83.0199710 127.0311780  30.3952030  79.2490150 120.2645010
  30.2719810  79.2676280 119.3154520  31.3436590  79.2969090 120.3843410
  27.4828820  94.4845450 119.5372990  27.7370320  94.4466840 118.6152360
  26.5341300  94.3578780 119.5301240  35.1959390  80.1604150 127.6670140
  34.6932990  80.9009550 128.0063950  36.0116050  80.5488150 127.3506930
  33.4881400  85.4037330 121.1131500  32.5471540  85.4187560 121.2879190
  33.8025470  84.6173290 121.5591800  23.4663040  87.0856930 114.6735460
  24.2326310  86.9738290 115.2360890  23.5437730  86.3894900 114.0212230
  22.1609800  84.5182000 115.3568350  22.2413390  83.5709510 115.4685750
  23.0529550  84.8488880 115.4629010  35.4906980  92.5746180 122.7885760
  35.6154400  93.3977350 123.2609570  36.3572540  92.3636910 122.4409910
  22.9624510  94.6677390 122.4602890  23.6986990  94.1192850 122.7311460
  23.3465430  95.5333400 122.3208880  19.8469990  90.7350960 118.3344400
  18.9209770  90.9772100 118.3249810  20.3126420  91.5625220 118.2129150
  21.9682790  93.8523460 131.6488470  22.7695520  94.1735510 132.0623870
  21.4534610  93.4919040 132.3708380  26.0726820  93.8407700 114.2828460
  26.8655430  94.1296530 113.8310250  25.5531170  93.4099870 113.6040940
  30.8047420  89.9603330 131.5963880  30.1985580  89.9834930 130.8559630
  30.5001530  89.2286370 132.1331130  32.2347790  93.6883620 130.2073290
  33.1869540  93.6041640 130.1573530  32.0876010  94.3525330 130.8807080
  35.1256990  93.0677830 115.7065200  34.8398500  92.6542970 114.8919380
  34.9276540  93.9965540 115.5865720  19.6880600  86.3396920 130.5924520
  20.1919620  85.7604200 131.1640750  18.9488020  86.6237150 131.1300890
  26.5904220  89.0611110 114.1470810  26.4854860  88.4463460 114.8732190
  26.4228440  88.5377000 113.3633820  26.7418540  87.7467910 130.1260040
  25.9764210  88.3152910 130.0414710  26.9234500  87.4544120 129.2328270
  29.8306950  88.1231140 114.7512800  29.2817050  88.5700440 115.3955540
  30.4526210  87.6180390 115.2750470  33.8841890  89.4773240 130.6835060
  34.6251360  89.8149000 130.1802520  33.1214570  89.6465300 130.1304830
  21.7203680  84.4826510 131.4874590  21.7609020  84.1840380 132.3959820
  22.5749180  84.8834120 131.3282110  25.4982070  87.0822060 116.6478100
  25.9198490  86.9161930 117.4909490  25.6232910  86.2722290 116.1533240
  23.6609490  83.0618610 129.4549080  23.1305950  82.5709560 128.8272420
  24.3297560  83.4902810 128.9207010  28.0109710  86.1059670 113.8955200
  28.5315370  85.3908690 113.5296350  28.6578110  86.7445540 114.1955710
  32.5587550  87.5288070 129.2190270  32.9728570  87.6833150 130.0680690
  31.6238550  87.6543290 129.3816050  33.0309720  84.8684230 131.2229420
  33.6130490  84.1136550 131.1349900  33.2071490  85.3991670 130.4460900
  24.1481790  80.0280980 129.5346370  24.0538660  79.4101730 128.8097240
  23.5679180  80.7547270 129.3076280  26.9143230  78.5854220 126.5673760
  26.4660530  78.6078480 125.7219310  26.2808430  78.1873240 127.1644060
  27.3202780  87.4808550 127.1886200  27.7390890  88.3241280 127.0162440
  26.4011410  87.6180590 126.9592980  29.6566680  85.2124730 128.5724040
  29.7762890  84.6165870 129.3118880  30.5160680  85.2494420 128.1525340
  31.9954580  85.7661920 127.1486550  31.4689800  86.2904540 126.5451690
  32.3385920  86.3989310 127.7796280  24.3940970  83.1555290 113.5936260
  24.1930030  82.2922650 113.9549600  24.2233020  83.0688650 112.6557860
  25.1710200  93.7861560 128.3043930  24.6331290  94.5107620 127.9852630
  25.4244160  93.3091900 127.5141270  26.4235450  81.7546080 129.8299860
  27.0135140  81.4461930 130.5177680  25.6055690  81.2825830 129.9859760
  31.2428880  81.3711890 130.0632880  30.5544400  80.7093430 129.9982870
  31.9634900  80.9250160 130.5081340  31.8729280  77.9663520 116.1223140
  32.1531570  77.1231420 116.4782560  31.0995010  78.1986630 116.6361890
  23.1923770  80.2555910 113.5814140  23.4949670  80.2623340 112.6733290
  23.9318360  79.9053770 114.0781800  28.0272410  95.0212770 128.5630580
  27.9531110  95.9247910 128.8702950  27.1251250  94.7024670 128.5352650
  28.5757740  94.1871280 116.1856940  29.4708530  94.5256250 116.2075700
  28.6075370  93.4650690 115.5581220  22.2153900  89.5598330 114.4143940
  22.6528770  90.1028000 115.0701520  22.7001630  88.7345280 114.4240280
  19.4299700  92.3487360 121.8664200  19.7602710  91.4808420 121.6342840
  19.8590700  92.5545880 122.6969160  24.0261620  90.6796370 119.5266170
  23.7257160  90.5561340 120.4270080  23.9199110  89.8204960 119.1181900
  19.9189910  93.2157950 124.6045830  19.4820900  93.3958750 125.4369980
  20.4867590  93.9732570 124.4627550  35.5552090  92.7174950 128.8923140
  34.9554080  92.7767510 128.1487060  35.6845990  91.7779930 129.0219990
  36.7953540  90.4592770 114.2292850  35.9646500  90.5269420 114.7000080
  36.9725370  91.3496890 113.9259710  36.2510000  87.2040250 116.7327050
  37.0128910  87.7736900 116.8386740  36.2664370  86.6367450 117.5035360
  19.7514340  85.7278180 120.9634710  19.0963180  85.4589820 120.3194410
  20.5892290  85.6182660 120.5136690  37.2569970  88.0590350 121.5768980
  37.6278800  87.2757670 121.1704950  37.8971900  88.7479450 121.3986280
  34.2403730  89.4426930 126.9899300  33.4263570  89.8724090 127.2525090
  34.6477930  90.0545340 126.3768350  36.3029170  87.4974620 113.8899570
  36.5778010  88.4053500 113.7618790  36.1139910  87.4337150 114.8261560
  32.7004780  80.5219470 115.1853200  33.1189660  80.3350450 114.3449860
  32.3940840  79.6698520 115.4956130  36.1994510  85.4343610 118.8829000
  35.8238110  84.6671540 118.4510290  35.4697630  85.8166310 119.3703930
  20.7890270  86.1130750 125.5038050  21.1563310  86.0258150 126.3834070
  20.2201090  85.3497300 125.4044910  35.5894130  84.5815130 128.5168520
  35.3580220  84.3527880 127.6166470  35.8498680  85.5014680 128.4713410
  20.3406270  83.0239840 129.4096470  19.4462320  82.9906600 129.7490180
  20.8803820  83.2226630 130.1747720  34.0282200  79.8071560 131.2948220
  34.9052380  79.8154960 131.6782220  34.0403040  79.0702400 130.6840570
  18.9652420  82.9377110 116.9060040  18.0616500  83.2007310 116.7311700
  19.4493040  83.2088280 116.1260000  35.4745470  83.6601100 122.1836240
  35.9982950  83.1663750 121.5526410  36.0604890  83.7951460 122.9283810
  35.6535190  83.7440970 125.7055790  34.7037900  83.7104510 125.8200780
  35.8348200  84.6541080 125.4705560  21.5079630  81.9942650 114.8154420
  22.2171330  81.5725870 114.3301700  20.7919570  82.0617880 114.1837770
  21.1553790  78.0481980 113.8557070  21.8781920  78.5890920 114.1738290
  21.4278310  77.7745400 112.9798610  34.9645440  82.9174450 118.1228650
  35.4604560  82.6845320 118.9077530  34.7661510  82.0786290 117.7066290
  20.8445980  77.2988170 123.7579690  21.4922170  76.7485550 123.3174850
  21.2647820  77.5531320 124.5795500  36.3932600  81.5535400 120.6566330
  36.2831880  81.3991440 121.5948600  37.1540190  81.0256340 120.4141740
  34.7398320  77.4929530 127.1149330  35.3770540  78.1063670 127.4808520
  34.8873210  77.5290190 126.1698560  37.2822870  79.3843320 113.8972470
  38.2072180  79.2524500 113.6890760  37.2598660  79.4636140 114.8508920
  37.3561360  80.1553980 116.5229180  36.5612860  80.0899100 117.0522090
  37.5604640  81.0904620 116.5114530  34.2979780  94.1945530 120.5167570
  34.8938850  93.8730100 119.8401990  34.5557930  93.7217350 121.3080840
  20.5977980  77.4543840 126.5005010  20.2492800  77.9107660 127.2663190
  20.2665680  76.5600970 126.5827440  22.2042350  90.6263440 130.6658200
  22.1611980  90.2556350 131.5472660  22.3353360  91.5641010 130.8060020
  25.9048380  92.1823030 126.2667920  25.6639740  92.4497590 125.3798440
  26.8451020  92.3528760 126.3218780  28.1102800  78.6455720 130.0224430
  28.0491690  79.2377550 130.7719840  29.0503180  78.5381680 129.8774690
  30.7477360  78.3025780 129.6616720  31.3617770  78.6205070 128.9997800
  31.2926920  77.8174370 130.2812580  37.1652540  94.2017410 127.0678560
  36.6710820  94.5986280 126.3505690  36.5565830  93.5766620 127.4615840
  21.2698620  76.9820040 129.7755780  21.8181610  76.8008090 129.0121890
  21.3353930  76.1914150 130.3112090  22.0430380  93.5725690 127.7855980
  21.4490700  93.4410390 128.5246020  22.0354220  92.7363830 127.3198080
  31.4885400  76.8657920 125.9886010  30.6145240  77.1993030 125.7858940
  31.3796150  76.3931100 126.8137880  32.3957380  79.0728790 127.3727730
  32.0670740  78.2580550 126.9929460  33.3439680  79.0298600 127.2493420
  34.8491990  94.8440830 124.3465300  34.3894960  95.5956640 123.9723320
  34.2204450  94.1247300 124.2880100  21.6742610  90.9384070 126.7364020
  20.9476670  90.3189360 126.6689970  21.7351760  91.3324680 125.8662100
  25.2787710  93.1529070 123.5213430  25.7952730  92.5416430 122.9961690
  25.9285090  93.6557850 124.0124440  28.0183210  94.0437560 124.3482410
  28.3061020  93.7891860 123.4715420  28.5306430  93.4914920 124.9387980
  29.2360220  77.7827760 124.9278920  28.4532010  78.2573260 125.2075680
  28.9423150  76.8782590 124.8192100  33.7881290  78.4850860 122.9728010
  34.2289380  78.4295960 122.1249610  33.5188880  79.4008870 123.0438190
  19.9572610  94.2558460 119.9460780  19.7894650  93.6229140 120.6442670
  19.0907120  94.4617860 119.5954970  20.5800630  78.0875240 117.4492640
  21.3379990  78.2004120 116.8756670  20.1177800  78.9244440 117.4036070
  27.1214440  80.2014510 120.4394950  26.3088950  79.8271400 120.0990830
  27.6256080  79.4459590 120.7416140  31.6239420  76.8656960 121.6778020
  32.2268790  77.4377170 122.1526540  30.8832410  77.4296400 121.4551920
  21.5635310  92.9491690 117.3910920  21.0382930  93.3299720 116.6872880
  21.4879890  93.5742460 118.1120630  25.1463620  78.3514430 119.0440000
  24.5166360  77.6501740 119.2110130  24.6068760  79.1118560 118.8273160
  28.0855570  94.9653660 131.7150610  29.0122880  94.7297930 131.7586570
  28.0706000  95.7925660 131.2336640  36.3200630  94.5079230 118.7124860
  36.4952820  93.8216970 118.0685780  35.6222200  95.0326280 118.3201530
  25.2719180  77.6298410 131.4792490  24.9903450  78.1332010 130.7153310
  25.6538880  76.8320160 131.1134620  24.1628280  94.8974070 116.2660170
  24.8947100  94.6133350 115.7184060  24.4221950  94.6587350 117.1559550
  23.3243070  91.0138800 116.2706500  22.6951950  91.4823900 116.8192330
  23.4390900  90.1688020 116.7052690  31.8734640  77.0451990 132.0572960
  31.7600090  77.3646600 132.9524480  32.6904380  77.4464500 131.7610240
  34.6533130  94.1923520 131.5391650  35.4458450  93.6972750 131.3317610
  34.9466280  94.8713660 132.1467260  30.7792790  85.0644460 102.4207700
  30.6986840  84.1499070 102.1499410  30.3657210  85.5611530 101.7147410
  28.9110830  86.8423480 104.3016970  28.1352930  86.3623920 104.5915540
  29.5623760  86.1629130 104.1273130  22.9276660  87.1543290 105.1792730
  22.0961540  86.8992000 105.5789240  23.5357640  87.2254060 105.9150650
  22.9077920  91.1883380 105.3750750  23.2105960  90.2981120 105.1960970
  23.6521510  91.7453600 105.1473000  19.3001620  84.7150830 104.8474820
  19.8717730  83.9473030 104.8478460  19.3003160  85.0139590 103.9381430
  28.3519820  89.5180670 104.3087130  28.2828100  88.5770610 104.1476260
  29.1139680  89.6082080 104.8809700  20.5426490  80.1235190 106.6343750
  20.3629330  79.2260940 106.9146510  20.1406570  80.6707060 107.3090700
  29.3824990  82.3251050 104.5356060  29.7589810  81.4522930 104.4229730
  29.2844500  82.6609750 103.6446500  23.5130000  80.6976680  99.9973500
  23.6196750  81.5980410 100.3042260  22.6022360  80.6494650  99.7068150
  33.1649110  79.8201490 101.4684400  33.9858730  79.3298060 101.5109880
  33.1983190  80.4099150 102.2216240  21.1613160  82.6195690 105.2426090
  21.8423270  82.8834060 105.8613490  20.8461210  81.7796560 105.5764100
  25.3537730  83.6663050 104.3298680  25.8615950  84.1644020 104.9703700
  25.8850970  82.8898250 104.1538040  37.4548660  81.8368240 108.0328030
  36.7500830  82.2249950 107.5143140  37.7206580  82.5318530 108.6348960
  30.0244920  88.4180920 100.0952000  29.4062190  88.8830370  99.5314720
  30.5368170  89.1108400 100.5121510  24.8876680  87.9456790 106.7735600
  24.5546060  88.5725710 107.4156670  25.0643360  88.4718670 105.9937270
  33.4010590  81.7601870 104.2411940  32.6966160  82.0486760 104.8215050
  33.7622750  82.5701980 103.8811500  23.3189160  80.0171570 106.6032550
  23.6605970  80.8613620 106.3086420  22.3804970  80.1655310 106.7197890
  24.0995780  89.9137590 108.5884780  24.7169780  90.5888670 108.3069230
  23.2388900  90.3225570 108.4972280  19.3928120  89.1037450  97.4691630
  19.0156100  89.5924550  96.7376530  19.6501190  89.7762730  98.0998160
  36.4697510  81.2056660 104.6321150  35.5222420  81.2395640 104.7636580
  36.7947500  82.0195610 105.0170510  27.0017050  77.5053840 102.9277140
  27.3092030  76.9500730 102.2112640  26.0717750  77.6398300 102.7450130
  33.8477530  89.9437350 100.3074770  33.7373860  89.0011680 100.4324190
  33.8445780  90.3052990 101.1937530  31.9517550  88.1250970 106.5467210
  32.3686340  87.9111080 105.7120670  32.6757370  88.3823760 107.1175830
  29.3897810  85.5702670  99.6637260  28.4627090  85.5040050  99.8925730
  29.5422630  86.5082800  99.5492500  29.3766890  81.8419670  96.6604420
  28.4370560  82.0033630  96.7456880  29.6950150  82.5605350  96.1140410
  35.8979650  86.5238190 106.6383450  35.0698280  86.5931280 106.1633580
  36.4930130  87.1092500 106.1699280  33.4195100  87.1322970 100.1672510
  32.8007520  86.7942520  99.5198810  33.4019550  86.4882730 100.8751700
  32.8621660  83.3107510 107.5838320  32.4492840  84.1361220 107.8378310
  32.1297610  82.7252550 107.3914680  24.9954450  86.0967410 102.4456990
  24.5911450  85.3844660 101.9502890  25.0817570  85.7520650 103.3345030
  23.7083070  82.8710620 106.2256030  24.2597660  82.9805960 105.4509280
  24.2226580  83.2448220 106.9411260  33.5521760  93.3566840 108.2719300
  33.0752320  94.1639030 108.0791910  32.8683550  92.7045170 108.4245510
  24.5554580  89.5216660 111.2604000  23.6583110  89.7456630 111.5077400
  24.5807450  89.6451600 110.3115400  31.5959800  86.3709780  97.1745260
  32.0353080  85.5332210  97.0283080  32.3088220  87.0039180  97.2609400
  23.3825800  86.3929980 109.8361370  23.2433570  87.2652780 110.2048770
  22.5007160  86.0502790 109.6909310  25.1806150  92.3351680 112.0446520
  25.1521580  92.7394630 111.1774950  25.0171120  91.4062040 111.8818120
  35.1776940  77.6252590  95.4886300  34.8649600  77.7179420  96.3885370
  35.9389410  78.2033620  95.4383730  21.6959080  84.9912390  99.9463640
  21.5756680  85.7174480  99.3344910  21.3859970  84.2215300  99.4691550
  37.1320970  93.1178780 113.3410690  37.6080690  93.5961670 114.0199770
  37.7528130  93.0496270 112.6156190  19.3344450  88.1627530 105.7532280
  19.4124870  88.2976300 104.8088000  19.9486130  87.4543420 105.9460400
  20.5792080  89.8627720 102.1638460  20.1720160  90.0042310 101.3092060
  21.4705090  89.5787880 101.9609670  36.5354220  90.3091630 110.5010700
  36.6617280  90.0703510 109.5827880  36.5775600  89.4776170 110.9732780
  30.3970960  94.0119630 109.0705510  30.9115630  93.9227640 109.8727940
  29.5540040  94.3579330 109.3633420  31.6401420  93.4325240 101.1336000
  32.0958370  92.6514620 101.4474620  31.9793940  94.1432060 101.6777180
  36.3878230  82.3624090 111.4660440  35.7722500  82.8703760 110.9375900
  36.0674650  81.4622420 111.4086380  19.3903970  89.2041700 108.2926740
  19.5535010  88.7347060 107.4746110  19.8556420  88.6965260 108.9575580
  24.1622740  78.3347460 103.3287310  23.7190890  79.1157000 102.9971830
  24.7207730  78.6577350 104.0358250  28.4492550  81.2015980 108.9322630
  27.9871920  81.4099000 109.7442570  28.0470660  80.3875330 108.6293300
  33.4497060  82.4224930 110.0619290  32.5990650  82.1230680 110.3828360
  33.2898850  82.6666940 109.1503110  30.5446770  83.9226680 112.1618080
  30.8700180  83.0890430 111.8220310  31.3327100  84.4455200 112.3096410
  27.2781560  77.9558160  98.2093140  26.6535740  77.9518030  98.9346450
  27.1911680  77.0889120  97.8129110  26.1998640  78.8794790 105.1876910
  26.4970970  79.7857620 105.1068930  26.7484200  78.3913570 104.5736480
  23.9536960  83.4581030 101.0568560  23.7277880  83.2418200 101.9615180
  23.1729490  83.8909490 100.7114530  31.1834720  83.4644400  99.6559210
  30.5843610  84.1880200  99.4722830  31.7314330  83.4021180  98.8735660
  26.3936170  84.3566610 111.7228830  26.2979770  83.4161340 111.5729230
  27.2368150  84.5781680 111.3276900  29.7899590  82.1007940 101.6862490
  30.1829160  82.4180140 100.8731180  30.1516440  81.2219820 101.8007010
  21.5246710  80.7680280 109.8762610  21.1310100  81.6155490 110.0835390
  20.8365110  80.1306650 110.0671250  18.8263760  78.6908740 103.9092690
  18.5376810  79.2611600 104.6217670  19.5709520  78.2113190 104.2723920
  30.3754730  84.6913690 105.7813270  29.6435850  85.2000500 106.1303370
  29.9779070  83.8743670 105.4802050  26.8132120  81.3667890 104.1865760
  26.8168180  80.9257840 103.3370300  27.7083240  81.6885220 104.2937580
  22.6634500  81.2494380 103.1459970  22.3234550  81.7269610 103.9027020
  21.9011820  80.7959500 102.7861070  34.2651390  77.5579550 111.0322590
  34.5897160  76.8269210 111.5580570  34.3007900  77.2393190 110.1303580
  20.9642950  88.5793130 110.4522550  20.5797740  87.9386800 111.0505510
  21.2755140  89.2829250 111.0217280  27.1140090  85.4269670 105.9331170
  27.4810220  84.9528240 106.6792510  26.9245150  86.3011240 106.2739510
  19.9780580  80.1713360 102.0624640  19.6927500  79.8069030 102.9003260
  19.9159440  79.4393820 101.4487780  24.9039460  84.4678310 108.2515380
  24.5996530  85.3470290 108.4765740  25.8585920  84.5278100 108.2872820
  23.4321250  88.6739300  98.8482230  22.6583510  88.1336920  98.6880950
  24.1615880  88.1545910  98.5099990  34.1909230  87.6704660 104.6408620
  34.9108350  88.1659950 104.2504730  33.9891050  86.9922550 103.9962490
  29.6519170  79.0642620  98.7838010  28.8383780  78.5655790  98.7083320
  29.4581120  79.9040870  98.3674360  29.5728030  87.7413720 110.5277620
  29.5065340  86.8209390 110.2735210  28.9433170  87.8389160 111.2422260
  32.3667560  83.4362270  97.0800170  33.2547180  83.7479500  96.9051510
  32.3372650  82.5634520  96.6880750  23.4758650  88.3419680 102.4861040
  23.9937320  87.5387940 102.4317930  23.0242670  88.2798820 103.3277870
  20.9603190  85.3081050 109.3986740  20.6018130  85.9734900 109.9860080
  20.6657750  84.4764600 109.7699360  24.1616310  85.7665290 112.2826290
  23.8616450  85.9122470 111.3854110  24.9327550  85.2070580 112.1899680
  29.5044760  90.5634290 110.2781420  29.5189300  89.6315250 110.0600330
  28.7969860  90.6494050 110.9171190  34.6381830  84.7474110  96.5480030
  34.5545550  85.1788330  95.6976470  35.3576020  85.2072460  96.9806850
  35.7155970  87.2041630 109.6250000  34.9904160  87.7970410 109.4279390
  36.2431430  87.1965170 108.8263370  35.6669080  91.6016370  99.2762160
  35.0245240  90.9471990  99.5505880  35.2799740  92.0071460  98.5002830
  31.2455560  88.9301800 103.1233850  31.5979380  88.3329930 102.4635220
  30.3617890  88.6046030 103.2942100  19.4711240  85.3072310  96.0221340
  20.3406090  85.5897110  96.3057260  18.9801560  86.1208180  95.9070150
  26.6346050  86.6945520 100.1429620  27.0908830  87.5050770 100.3689810
  26.2834260  86.3768660 100.9748110  28.9378660  92.2051860 107.3721920
  29.5820880  92.4111240 108.0495340  29.3008100  91.4440260 106.9192770
  22.5357830  77.0383170 100.6152140  22.4072460  77.0301070 101.5637060
  21.7119850  77.3766260 100.2643150  30.2110740  90.2084210 106.0899370
  30.8532970  89.5077370 106.2031540  30.7360090  90.9882650 105.9096260
  31.9848360  91.0079110 109.2935430  32.3204600  91.5945800 109.9713350
  31.0648700  90.8771820 109.5233220  19.8382490  94.5199690  96.5882970
  20.1980130  95.1189030  95.9340240  19.6974830  95.0659580  97.3618000
  19.5351760  78.7974290 110.0758840  18.8210280  78.9971210 110.6811450
  19.9546800  78.0213860 110.4473640  33.6382710  88.4104770  97.4752670
  33.3504410  88.8717460  98.2630550  34.4334880  87.9502540  97.7436890
  19.8224350  92.7854550 111.0625370  19.9315470  91.8449290 110.9220760
  19.1704910  93.0509300 110.4139100  27.8136940  91.0570440 112.4623490
  27.4933810  90.3379680 113.0069180  27.1395300  91.7325510 112.5359550
  21.4557750  87.1245780  98.1503400  20.8485700  87.8644680  98.1598700
  21.9307100  87.2145140  97.3241600  31.0290540  81.2896600 107.8260290
  31.3971360  80.4691810 108.1539860  30.1688740  81.3498490 108.2415940
  34.3952570  80.2453540  98.6347850  33.7665730  80.3499210  97.9206080
  33.9004490  80.4650320  99.4241730  26.3636600  82.5239490 100.0505730
  25.6552750  82.9925830 100.4919340  26.6481080  81.8661500 100.6850920
  27.9892530  83.9436190 108.0498260  28.4877780  84.4182010 108.7150110
  28.1315480  83.0199710 108.2568290  30.3952030  79.2490150 101.4901520
  30.2719810  79.2676280 100.5411030  31.3436590  79.2969090 101.6099920
  33.4881400  85.4037330 102.3388010  32.5471540  85.4187560 102.5135700
  33.8025470  84.6173290 102.7848310  23.4663040  87.0856930  95.8991970
  24.2326310  86.9738290  96.4617400  23.5437730  86.3894900  95.2468740
  19.8469990  90.7350960  99.5600910  18.9209770  90.9772100  99.5506320
  20.3126420  91.5625220  99.4385660  21.9682790  93.8523460 112.8744980
  22.7695520  94.1735510 113.2880380  21.4534610  93.4919040 113.5964890
  30.8047420  89.9603330 112.8220390  30.1985580  89.9834930 112.0816140
  30.5001530  89.2286370 113.3587640  32.2347790  93.6883620 111.4329800
  33.1869540  93.6041640 111.3830040  32.0876010  94.3525330 112.1063590
  35.1256990  93.0677830  96.9321710  34.8398500  92.6542970  96.1175890
  34.9276540  93.9965540  96.8122230  19.6880600  86.3396920 111.8181030
  20.1919620  85.7604200 112.3897260  18.9488020  86.6237150 112.3557400
  26.5904220  89.0611110  95.3727320  26.4854860  88.4463460  96.0988700
  26.4228440  88.5377000  94.5890330  26.7418540  87.7467910 111.3516550
  25.9764210  88.3152910 111.2671220  26.9234500  87.4544120 110.4584780
  29.8306950  88.1231140  95.9769310  29.2817050  88.5700440  96.6212050
  30.4526210  87.6180390  96.5006980  33.8841890  89.4773240 111.9091570
  34.6251360  89.8149000 111.4059030  33.1214570  89.6465300 111.3561340
  21.7203680  84.4826510 112.7131100  21.7609020  84.1840380 113.6216330
  22.5749180  84.8834120 112.5538620  25.4982070  87.0822060  97.8734610
  25.9198490  86.9161930  98.7166000  25.6232910  86.2722290  97.3789750
  23.6609490  83.0618610 110.6805590  23.1305950  82.5709560 110.0528930
  24.3297560  83.4902810 110.1463520  28.0109710  86.1059670  95.1211710
  28.5315370  85.3908690  94.7552860  28.6578110  86.7445540  95.4212220
  32.5587550  87.5288070 110.4446780  32.9728570  87.6833150 111.2937200
  31.6238550  87.6543290 110.6072560  33.0309720  84.8684230 112.4485930
  33.6130490  84.1136550 112.3606410  33.2071490  85.3991670 111.6717410
  24.1481790  80.0280980 110.7602880  24.0538660  79.4101730 110.0353750
  23.5679180  80.7547270 110.5332790  26.9143230  78.5854220 107.7930270
  26.4660530  78.6078480 106.9475820  26.2808430  78.1873240 108.3900570
  27.3202780  87.4808550 108.4142710  27.7390890  88.3241280 108.2418950
  26.4011410  87.6180590 108.1849490  29.6566680  85.2124730 109.7980550
  29.7762890  84.6165870 110.5375390  30.5160680  85.2494420 109.3781850
  31.9954580  85.7661920 108.3743060  31.4689800  86.2904540 107.7708200
  32.3385920  86.3989310 109.0052790  25.1710200  93.7861560 109.5300440
  24.6331290  94.5107620 109.2109140  25.4244160  93.3091900 108.7397780
  26.4235450  81.7546080 111.0556370  27.0135140  81.4461930 111.7434190
  25.6055690  81.2825830 111.2116270  31.2428880  81.3711890 111.2889390
  30.5544400  80.7093430 111.2239380  31.9634900  80.9250160 111.7337850
  31.8729280  77.9663520  97.3479650  32.1531570  77.1231420  97.7039070
  31.0995010  78.1986630  97.8618400  28.0272410  95.0212770 109.7887090
  27.9531110  95.9247910 110.0959460  27.1251250  94.7024670 109.7609160
  22.2153900  89.5598330  95.6400450  22.6528770  90.1028000  96.2958030
  22.7001630  88.7345280  95.6496790  19.4299700  92.3487360 103.0920710
  19.7602710  91.4808420 102.8599350  19.8590700  92.5545880 103.9225670
  19.9189910  93.2157950 105.8302340  19.4820900  93.3958750 106.6626490
  20.4867590  93.9732570 105.6884060  35.5552090  92.7174950 110.1179650
  34.9554080  92.7767510 109.3743570  35.6845990  91.7779930 110.2476500
  36.7953540  90.4592770  95.4549360  35.9646500  90.5269420  95.9256590
  36.9725370  91.3496890  95.1516220  36.2510000  87.2040250  97.9583560
  37.0128910  87.7736900  98.0643250  36.2664370  86.6367450  98.7291870
  19.7514340  85.7278180 102.1891220  19.0963180  85.4589820 101.5450920
  20.5892290  85.6182660 101.7393200  37.2569970  88.0590350 102.8025490
  37.6278800  87.2757670 102.3961460  37.8971900  88.7479450 102.6242790
  34.2403730  89.4426930 108.2155810  33.4263570  89.8724090 108.4781600
  34.6477930  90.0545340 107.6024860  36.3029170  87.4974620  95.1156080
  36.5778010  88.4053500  94.9875300  36.1139910  87.4337150  96.0518070
  32.7004780  80.5219470  96.4109710  33.1189660  80.3350450  95.5706370
  32.3940840  79.6698520  96.7212640  36.1994510  85.4343610 100.1085510
  35.8238110  84.6671540  99.6766800  35.4697630  85.8166310 100.5960440
  20.7890270  86.1130750 106.7294560  21.1563310  86.0258150 107.6090580
  20.2201090  85.3497300 106.6301420  35.5894130  84.5815130 109.7425030
  35.3580220  84.3527880 108.8422980  35.8498680  85.5014680 109.6969920
  20.3406270  83.0239840 110.6352980  19.4462320  82.9906600 110.9746690
  20.8803820  83.2226630 111.4004230  34.0282200  79.8071560 112.5204730
  34.9052380  79.8154960 112.9038730  34.0403040  79.0702400 111.9097080
  35.4745470  83.6601100 103.4092750  35.9982950  83.1663750 102.7782920
  36.0604890  83.7951460 104.1540320  35.6535190  83.7440970 106.9312300
  34.7037900  83.7104510 107.0457290  35.8348200  84.6541080 106.6962070
  21.1553790  78.0481980  95.0813580  21.8781920  78.5890920  95.3994800
  21.4278310  77.7745400  94.2055120  34.9645440  82.9174450  99.3485160
  35.4604560  82.6845320 100.1334040  34.7661510  82.0786290  98.9322800
  20.8445980  77.2988170 104.9836200  21.4922170  76.7485550 104.5431360
  21.2647820  77.5531320 105.8052010  36.3932600  81.5535400 101.8822840
  36.2831880  81.3991440 102.8205110  37.1540190  81.0256340 101.6398250
  37.2822870  79.3843320  95.1228980  38.2072180  79.2524500  94.9147270
  37.2598660  79.4636140  96.0765430  37.3561360  80.1553980  97.7485690
  36.5612860  80.0899100  98.2778600  37.5604640  81.0904620  97.7371040
  20.5977980  77.4543840 107.7261520  20.2492800  77.9107660 108.4919700
  20.2665680  76.5600970 107.8083950  22.2042350  90.6263440 111.8914710
  22.1611980  90.2556350 112.7729170  22.3353360  91.5641010 112.0316530
  25.9048380  92.1823030 107.4924430  25.6639740  92.4497590 106.6054950
  26.8451020  92.3528760 107.5475290  30.7477360  78.3025780 110.8873230
  31.3617770  78.6205070 110.2254310  31.2926920  77.8174370 111.5069090
  22.0430380  93.5725690 109.0112490  21.4490700  93.4410390 109.7502530
  22.0354220  92.7363830 108.5454590  21.6742610  90.9384070 107.9620530
  20.9476670  90.3189360 107.8946480  21.7351760  91.3324680 107.0918610
  28.0183210  94.0437560 105.5738920  28.3061020  93.7891860 104.6971930
  28.5306430  93.4914920 106.1644490  29.2360220  77.7827760 106.1535430
  28.4532010  78.2573260 106.4332190  28.9423150  76.8782590 106.0448610
  35.6519860  78.1166100 102.2093340  35.5908260  77.1727320 102.0624360
  36.4311890  78.2246190 102.7546800  19.9572610  94.2558460 101.1717290
  19.7894650  93.6229140 101.8699180  19.0907120  94.4617860 100.8211480
  20.5800630  78.0875240  98.6749150  21.3379990  78.2004120  98.1013180
  20.1177800  78.9244440  98.6292580  27.1214440  80.2014510 101.6651460
  26.3088950  79.8271400 101.3247340  27.6256080  79.4459590 101.9672650
  31.6239420  76.8656960 102.9034530  32.2268790  77.4377170 103.3783050
  30.8832410  77.4296400 102.6808430  34.7674020  77.2678520  98.1774810
  34.9624650  78.1661970  98.4442240  33.9803890  77.0365600  98.6707760
  21.5635310  92.9491690  98.6167430  21.0382930  93.3299720  97.9129390
  21.4879890  93.5742460  99.3377140  22.9525780  78.6139290  97.2151120
  23.4818540  77.8269090  97.0859070  23.5854100  79.2930480  97.4486650
  25.1463620  78.3514430 100.2696510  24.5166360  77.6501740 100.4366640
  24.6068760  79.1118560 100.0529670  28.0855570  94.9653660 112.9407120
  29.0122880  94.7297930 112.9843080  28.0706000  95.7925660 112.4593150
  36.3200630  94.5079230  99.9381370  36.4952820  93.8216970  99.2942290
  35.6222200  95.0326280  99.5458040  24.1628280  94.8974070  97.4916680
  24.8947100  94.6133350  96.9440570  24.4221950  94.6587350  98.3816060
  23.3243070  91.0138800  97.4963010  22.6951950  91.4823900  98.0448840
  23.4390900  90.1688020  97.9309200  31.8734640  77.0451990 113.2829470
  31.7600090  77.3646600 114.1780990  32.6904380  77.4464500 112.9866750
  34.6533130  94.1923520 112.7648160  35.4458450  93.6972750 112.5574120
  34.9466280  94.8713660 113.3723770  30.7792790  85.0644460  83.6464210
  30.6986840  84.1499070  83.3755920  30.3657210  85.5611530  82.9403920
  28.9110830  86.8423480  85.5273480  28.1352930  86.3623920  85.8172050
  29.5623760  86.1629130  85.3529640  22.9276660  87.1543290  86.4049240
  22.0961540  86.8992000  86.8045750  23.5357640  87.2254060  87.1407160
  32.9318260  91.2483670  84.3072610  32.4699790  90.4770910  84.6359780
  33.7443810  91.2749740  84.8125060  19.3001620  84.7150830  86.0731330
  19.8717730  83.9473030  86.0734970  19.3003160  85.0139590  85.1637940
  29.1581570  93.5341680  83.9276600  28.5393010  93.9899180  83.3571040
  30.0133350  93.6893140  83.5266300  28.3519820  89.5180670  85.5343640
  28.2828100  88.5770610  85.3732770  29.1139680  89.6082080  86.1066210
  20.5426490  80.1235190  87.8600260  20.3629330  79.2260940  88.1403020
  20.1406570  80.6707060  88.5347210  29.3824990  82.3251050  85.7612570
  29.7589810  81.4522930  85.6486240  29.2844500  82.6609750  84.8703010
  33.1649110  79.8201490  82.6940910  33.9858730  79.3298060  82.7366390
  33.1983190  80.4099150  83.4472750  21.1613160  82.6195690  86.4682600
  21.8423270  82.8834060  87.0870000  20.8461210  81.7796560  86.8020610
  25.3537730  83.6663050  85.5555190  25.8615950  84.1644020  86.1960210
  25.8850970  82.8898250  85.3794550  23.6373830  78.3061610  89.8218610
  23.6392270  78.8234000  89.0164510  22.8078140  77.8291790  89.7988540
  30.0244920  88.4180920  81.3208510  29.4062190  88.8830370  80.7571230
  30.5368170  89.1108400  81.7378020  33.4010590  81.7601870  85.4668450
  32.6966160  82.0486760  86.0471560  33.7622750  82.5701980  85.1068010
  23.3189160  80.0171570  87.8289060  23.6605970  80.8613620  87.5342930
  22.3804970  80.1655310  87.9454400  27.0017050  77.5053840  84.1533650
  27.3092030  76.9500730  83.4369150  26.0717750  77.6398300  83.9706640
  32.5532110  93.2221130  86.4441110  32.5659270  92.8183420  85.5763370
  32.0007330  93.9968420  86.3402540  33.8477530  89.9437350  81.5331280
  33.7373860  89.0011680  81.6580700  33.8445780  90.3052990  82.4194040
  31.9517550  88.1250970  87.7723720  32.3686340  87.9111080  86.9377180
  32.6757370  88.3823760  88.3432340  29.3897810  85.5702670  80.8893770
  28.4627090  85.5040050  81.1182240  29.5422630  86.5082800  80.7749010
  29.3766890  81.8419670  77.8860930  28.4370560  82.0033630  77.9713390
  29.6950150  82.5605350  77.3396920  35.8979650  86.5238190  87.8639960
  35.0698280  86.5931280  87.3890090  36.4930130  87.1092500  87.3955790
  33.4195100  87.1322970  81.3929020  32.8007520  86.7942520  80.7455320
  33.4019550  86.4882730  82.1008210  32.8621660  83.3107510  88.8094830
  32.4492840  84.1361220  89.0634820  32.1297610  82.7252550  88.6171190
  24.9954450  86.0967410  83.6713500  24.5911450  85.3844660  83.1759400
  25.0817570  85.7520650  84.5601540  25.4636150  89.7834970  85.8352710
  25.1664440  89.1780440  85.1560490  26.4135970  89.8212280  85.7242070
  23.7083070  82.8710620  87.4512540  24.2597660  82.9805960  86.6765790
  24.2226580  83.2448220  88.1667770  33.5521760  93.3566840  89.4975810
  33.0752320  94.1639030  89.3048420  32.8683550  92.7045170  89.6502020
  31.5959800  86.3709780  78.4001770  32.0353080  85.5332210  78.2539590
  32.3088220  87.0039180  78.4865910  23.3825800  86.3929980  91.0617880
  23.2433570  87.2652780  91.4305280  22.5007160  86.0502790  90.9165820
  29.7055180  91.3105850  82.3683010  30.1451090  92.0530180  81.9538400
  29.6442070  91.5532420  83.2921970  19.3344450  88.1627530  86.9788790
  19.4124870  88.2976300  86.0344510  19.9486130  87.4543420  87.1716910
  20.5792080  89.8627720  83.3894970  20.1720160  90.0042310  82.5348570
  21.4705090  89.5787880  83.1866180  36.5354220  90.3091630  91.7267210
  36.6617280  90.0703510  90.8084390  36.5775600  89.4776170  92.1989290
  30.3970960  94.0119630  90.2962020  30.9115630  93.9227640  91.0984450
  29.5540040  94.3579330  90.5889930  32.3725360  94.2974970  79.7246020
  32.2126500  94.0077910  80.6227850  32.2072070  93.5215100  79.1891250
  32.0751490  91.8062530  78.2844020  31.3816650  91.8039820  77.6246300
  32.8174350  91.3821850  77.8538190  31.6401420  93.4325240  82.3592510
  32.0958370  92.6514620  82.6731130  31.9793940  94.1432060  82.9033690
  36.3878230  82.3624090  92.6916950  35.7722500  82.8703760  92.1632410
  36.0674650  81.4622420  92.6342890  24.1622740  78.3347460  84.5543820
  23.7190890  79.1157000  84.2228340  24.7207730  78.6577350  85.2614760
  28.4492550  81.2015980  90.1579140  27.9871920  81.4099000  90.9699080
  28.0470660  80.3875330  89.8549810  33.4497060  82.4224930  91.2875800
  32.5990650  82.1230680  91.6084870  33.2898850  82.6666940  90.3759620
  30.5446770  83.9226680  93.3874590  30.8700180  83.0890430  93.0476820
  31.3327100  84.4455200  93.5352920  26.1998640  78.8794790  86.4133420
  26.4970970  79.7857620  86.3325440  26.7484200  78.3913570  85.7992990
  31.1834720  83.4644400  80.8815720  30.5843610  84.1880200  80.6979340
  31.7314330  83.4021180  80.0992170  29.7899590  82.1007940  82.9119000
  30.1829160  82.4180140  82.0987690  30.1516440  81.2219820  83.0263520
  18.8263760  78.6908740  85.1349200  18.5376810  79.2611600  85.8474180
  19.5709520  78.2113190  85.4980430  19.0133990  82.6328860  76.3451920
  18.9308660  83.5759620  76.4866910  18.6617050  82.4903770  75.4664270
  30.3754730  84.6913690  87.0069780  29.6435850  85.2000500  87.3559880
  29.9779070  83.8743670  86.7058560  26.8132120  81.3667890  85.4122270
  26.8168180  80.9257840  84.5626810  27.7083240  81.6885220  85.5194090
  30.8380640  80.1447370  86.4192720  30.8553380  80.5956020  87.2634570
  30.5896220  79.2453010  86.6326160  34.2651390  77.5579550  92.2579100
  34.5897160  76.8269210  92.7837080  34.3007900  77.2393190  91.3560090
  27.1140090  85.4269670  87.1587680  27.4810220  84.9528240  87.9049020
  26.9245150  86.3011240  87.4996020  19.9780580  80.1713360  83.2881150
  19.6927500  79.8069030  84.1259770  19.9159440  79.4393820  82.6744290
  24.9039460  84.4678310  89.4771890  24.5996530  85.3470290  89.7022250
  25.8585920  84.5278100  89.5129330  23.4321250  88.6739300  80.0738740
  22.6583510  88.1336920  79.9137460  24.1615880  88.1545910  79.7356500
  34.1909230  87.6704660  85.8665130  34.9108350  88.1659950  85.4761240
  33.9891050  86.9922550  85.2219000  29.5728030  87.7413720  91.7534130
  29.5065340  86.8209390  91.4991720  28.9433170  87.8389160  92.4678770
  32.3667560  83.4362270  78.3056680  33.2547180  83.7479500  78.1308020
  32.3372650  82.5634520  77.9137260  23.4758650  88.3419680  83.7117550
  23.9937320  87.5387940  83.6574440  23.0242670  88.2798820  84.5534380
  28.3628150  89.6085960  78.9844850  28.7043850  90.3528190  78.4888170
  27.5340860  89.9217080  79.3469680  20.9603190  85.3081050  90.6243250
  20.6018130  85.9734900  91.2116590  20.6657750  84.4764600  90.9955870
  29.5044760  90.5634290  91.5037930  29.5189300  89.6315250  91.2856840
  28.7969860  90.6494050  92.1427700  34.6381830  84.7474110  77.7736540
  34.5545550  85.1788330  76.9232980  35.3576020  85.2072460  78.2063360
  35.7155970  87.2041630  90.8506510  34.9904160  87.7970410  90.6535900
  36.2431430  87.1965170  90.0519880  35.6669080  91.6016370  80.5018670
  35.0245240  90.9471990  80.7762390  35.2799740  92.0071460  79.7259340
  31.2455560  88.9301800  84.3490360  31.5979380  88.3329930  83.6891730
  30.3617890  88.6046030  84.5198610  27.3318840  89.6899490  81.7560770
  28.0189970  90.2368700  82.1368360  26.5451260  90.2340220  81.7910380
  19.4711240  85.3072310  77.2477850  20.3406090  85.5897110  77.5313770
  18.9801560  86.1208180  77.1326660  26.6346050  86.6945520  81.3686130
  27.0908830  87.5050770  81.5946320  26.2834260  86.3768660  82.2004620
  28.9378660  92.2051860  88.5978430  29.5820880  92.4111240  89.2751850
  29.3008100  91.4440260  88.1449280  22.5357830  77.0383170  81.8408650
  22.4072460  77.0301070  82.7893570  21.7119850  77.3766260  81.4899660
  30.2110740  90.2084210  87.3155880  30.8532970  89.5077370  87.4288050
  30.7360090  90.9882650  87.1352770  31.9848360  91.0079110  90.5191940
  32.3204600  91.5945800  91.1969860  31.0648700  90.8771820  90.7489730
  19.8382490  94.5199690  77.8139480  20.1980130  95.1189030  77.1596750
  19.6974830  95.0659580  78.5874510  33.6382710  88.4104770  78.7009180
  33.3504410  88.8717460  79.4887060  34.4334880  87.9502540  78.9693400
  25.8551110  91.9030890  78.6313150  25.8461210  92.6360580  78.0157660
  24.9349470  91.6562470  78.7240110  21.4557750  87.1245780  79.3759910
  20.8485700  87.8644680  79.3855210  21.9307100  87.2145140  78.5498110
  31.0290540  81.2896600  89.0516800  31.3971360  80.4691810  89.3796370
  30.1688740  81.3498490  89.4672450  34.3952570  80.2453540  79.8604360
  33.7665730  80.3499210  79.1462590  33.9004490  80.4650320  80.6498240
  28.8410710  91.9659130  77.2938340  28.9422690  91.7623120  76.3640320
  27.9412450  91.7117410  77.4986120  27.9892530  83.9436190  89.2754770
  28.4877780  84.4182010  89.9406620  28.1315480  83.0199710  89.4824800
  33.4881400  85.4037330  83.5644520  32.5471540  85.4187560  83.7392210
  33.8025470  84.6173290  84.0104820  23.4663040  87.0856930  77.1248480
  24.2326310  86.9738290  77.6873910  23.5437730  86.3894900  76.4725250
  22.9624510  94.6677390  84.9115910  23.6986990  94.1192850  85.1824480
  23.3465430  95.5333400  84.7721900  19.8469990  90.7350960  80.7857420
  18.9209770  90.9772100  80.7762830  20.3126420  91.5625220  80.6642170
  26.0726820  93.8407700  76.7341480  26.8655430  94.1296530  76.2823270
  25.5531170  93.4099870  76.0553960  32.2347790  93.6883620  92.6586310
  33.1869540  93.6041640  92.6086550  32.0876010  94.3525330  93.3320100
  35.1256990  93.0677830  78.1578220  34.8398500  92.6542970  77.3432400
  34.9276540  93.9965540  78.0378740  19.6880600  86.3396920  93.0437540
  20.1919620  85.7604200  93.6153770  18.9488020  86.6237150  93.5813910
  26.5904220  89.0611110  76.5983830  26.4854860  88.4463460  77.3245210
  26.4228440  88.5377000  75.8146840  26.7418540  87.7467910  92.5773060
  25.9764210  88.3152910  92.4927730  26.9234500  87.4544120  91.6841290
  29.8306950  88.1231140  77.2025820  29.2817050  88.5700440  77.8468560
  30.4526210  87.6180390  77.7263490  33.8841890  89.4773240  93.1348080
  34.6251360  89.8149000  92.6315540  33.1214570  89.6465300  92.5817850
  25.4982070  87.0822060  79.0991120  25.9198490  86.9161930  79.9422510
  25.6232910  86.2722290  78.6046260  32.5587550  87.5288070  91.6703290
  32.9728570  87.6833150  92.5193710  31.6238550  87.6543290  91.8329070
  33.0309720  84.8684230  93.6742440  33.6130490  84.1136550  93.5862920
  33.2071490  85.3991670  92.8973920  26.9143230  78.5854220  89.0186780
  26.4660530  78.6078480  88.1732330  26.2808430  78.1873240  89.6157080
  27.3202780  87.4808550  89.6399220  27.7390890  88.3241280  89.4675460
  26.4011410  87.6180590  89.4106000  29.6566680  85.2124730  91.0237060
  29.7762890  84.6165870  91.7631900  30.5160680  85.2494420  90.6038360
  31.9954580  85.7661920  89.5999570  31.4689800  86.2904540  88.9964710
  32.3385920  86.3989310  90.2309300  31.2428880  81.3711890  92.5145900
  30.5544400  80.7093430  92.4495890  31.9634900  80.9250160  92.9594360
  28.0272410  95.0212770  91.0143600  27.9531110  95.9247910  91.3215970
  27.1251250  94.7024670  90.9865670  26.4108700  79.1990530  77.0183360
  26.0630700  78.5214520  76.4385810  26.6121470  78.7380040  77.8326750
  19.4299700  92.3487360  84.3177220  19.7602710  91.4808420  84.0855860
  19.8590700  92.5545880  85.1482180  24.0261620  90.6796370  81.9779190
  23.7257160  90.5561340  82.8783100  23.9199110  89.8204960  81.5694920
  35.5552090  92.7174950  91.3436160  34.9554080  92.7767510  90.6000080
  35.6845990  91.7779930  91.4733010  19.7514340  85.7278180  83.4147730
  19.0963180  85.4589820  82.7707430  20.5892290  85.6182660  82.9649710
  34.2403730  89.4426930  89.4412320  33.4263570  89.8724090  89.7038110
  34.6477930  90.0545340  88.8281370  32.7004780  80.5219470  77.6366220
  33.1189660  80.3350450  76.7962880  32.3940840  79.6698520  77.9469150
  36.1994510  85.4343610  81.3342020  35.8238110  84.6671540  80.9023310
  35.4697630  85.8166310  81.8216950  20.7890270  86.1130750  87.9551070
  21.1563310  86.0258150  88.8347090  20.2201090  85.3497300  87.8557930
  35.5894130  84.5815130  90.9681540  35.3580220  84.3527880  90.0679490
  35.8498680  85.5014680  90.9226430  34.0282200  79.8071560  93.7461240
  34.9052380  79.8154960  94.1295240  34.0403040  79.0702400  93.1353590
  35.4745470  83.6601100  84.6349260  35.9982950  83.1663750  84.0039430
  36.0604890  83.7951460  85.3796830  35.6535190  83.7440970  88.1568810
  34.7037900  83.7104510  88.2713800  35.8348200  84.6541080  87.9218580
  21.1553790  78.0481980  76.3070090  21.8781920  78.5890920  76.6251310
  21.4278310  77.7745400  75.4311630  34.9645440  82.9174450  80.5741670
  35.4604560  82.6845320  81.3590550  34.7661510  82.0786290  80.1579310
  20.8445980  77.2988170  86.2092710  21.4922170  76.7485550  85.7687870
  21.2647820  77.5531320  87.0308520  36.3932600  81.5535400  83.1079350
  36.2831880  81.3991440  84.0461620  37.1540190  81.0256340  82.8654760
  37.2822870  79.3843320  76.3485490  38.2072180  79.2524500  76.1403780
  37.2598660  79.4636140  77.3021940  37.3561360  80.1553980  78.9742200
  36.5612860  80.0899100  79.5035110  37.5604640  81.0904620  78.9627550
  34.2979780  94.1945530  82.9680590  34.8938850  93.8730100  82.2915010
  34.5557930  93.7217350  83.7593860  28.1102800  78.6455720  92.4737450
  28.0491690  79.2377550  93.2232860  29.0503180  78.5381680  92.3287710
  30.7477360  78.3025780  92.1129740  31.3617770  78.6205070  91.4510820
  31.2926920  77.8174370  92.7325600  37.1652540  94.2017410  89.5191580
  36.6710820  94.5986280  88.8018710  36.5565830  93.5766620  89.9128860
  32.3957380  79.0728790  89.8240750  32.0670740  78.2580550  89.4442480
  33.3439680  79.0298600  89.7006440  34.8491990  94.8440830  86.7978320
  34.3894960  95.5956640  86.4236340  34.2204450  94.1247300  86.7393120
  25.2787710  93.1529070  85.9726450  25.7952730  92.5416430  85.4474710
  25.9285090  93.6557850  86.4637460  28.0183210  94.0437560  86.7995430
  28.3061020  93.7891860  85.9228440  28.5306430  93.4914920  87.3901000
  29.2360220  77.7827760  87.3791940  28.4532010  78.2573260  87.6588700
  28.9423150  76.8782590  87.2705120  35.6519860  78.1166100  83.4349850
  35.5908260  77.1727320  83.2880870  36.4311890  78.2246190  83.9803310
  19.9572610  94.2558460  82.3973800  19.7894650  93.6229140  83.0955690
  19.0907120  94.4617860  82.0467990  27.1214440  80.2014510  82.8907970
  26.3088950  79.8271400  82.5503850  27.6256080  79.4459590  83.1929160
  21.5635310  92.9491690  79.8423940  21.0382930  93.3299720  79.1385900
  21.4879890  93.5742460  80.5633650  36.3200630  94.5079230  81.1637880
  36.4952820  93.8216970  80.5198800  35.6222200  95.0326280  80.7714550
  25.2719180  77.6298410  93.9305510  24.9903450  78.1332010  93.1666330
  25.6538880  76.8320160  93.5647640  23.3243070  91.0138800  78.7219520
  22.6951950  91.4823900  79.2705350  23.4390900  90.1688020  79.1565710
  31.8734640  77.0451990  94.5085980  31.7600090  77.3646600  95.4037500
  32.6904380  77.4464500  94.2123260  30.7792790  85.0644460  64.8720720
  30.6986840  84.1499070  64.6012430  30.3657210  85.5611530  64.1660430
  28.9110830  86.8423480  66.7529990  28.1352930  86.3623920  67.0428560
  29.5623760  86.1629130  66.5786150  22.9276660  87.1543290  67.6305750
  22.0961540  86.8992000  68.0302260  23.5357640  87.2254060  68.3663670
  32.9318260  91.2483670  65.5329120  32.4699790  90.4770910  65.8616290
  33.7443810  91.2749740  66.0381570  21.3368610  82.1145180  61.4148140
  20.4485310  82.4561150  61.3128020  21.6209800  81.9145500  60.5228970
  19.3001620  84.7150830  67.2987840  19.8717730  83.9473030  67.2991480
  19.3003160  85.0139590  66.3894450  29.1581570  93.5341680  65.1533110
  28.5393010  93.9899180  64.5827550  30.0133350  93.6893140  64.7522810
  20.5426490  80.1235190  69.0856770  20.3629330  79.2260940  69.3659530
  20.1406570  80.6707060  69.7603720  29.3824990  82.3251050  66.9869080
  29.7589810  81.4522930  66.8742750  29.2844500  82.6609750  66.0959520
  33.1649110  79.8201490  63.9197420  33.9858730  79.3298060  63.9622900
  33.1983190  80.4099150  64.6729260  21.1613160  82.6195690  67.6939110
  21.8423270  82.8834060  68.3126510  20.8461210  81.7796560  68.0277120
  25.3537730  83.6663050  66.7811700  25.8615950  84.1644020  67.4216720
  25.8850970  82.8898250  66.6051060  23.6373830  78.3061610  71.0475120
  23.6392270  78.8234000  70.2421020  22.8078140  77.8291790  71.0245050
  30.0244920  88.4180920  62.5465020  29.4062190  88.8830370  61.9827740
  30.5368170  89.1108400  62.9634530  24.8876680  87.9456790  69.2248620
  24.5546060  88.5725710  69.8669690  25.0643360  88.4718670  68.4450290
  23.3189160  80.0171570  69.0545570  23.6605970  80.8613620  68.7599440
  22.3804970  80.1655310  69.1710910  24.0995780  89.9137590  71.0397800
  24.7169780  90.5888670  70.7582250  23.2388900  90.3225570  70.9485300
  19.3928120  89.1037450  59.9204650  19.0156100  89.5924550  59.1889550
  19.6501190  89.7762730  60.5511180  35.0173370  91.3777000  68.9552440
  34.3336890  92.0476110  68.9469110  35.5567660  91.5757650  68.1897300
  33.8477530  89.9437350  62.7587790  33.7373860  89.0011680  62.8837210
  33.8445780  90.3052990  63.6450550  29.3897810  85.5702670  62.1150280
  28.4627090  85.5040050  62.3438750  29.5422630  86.5082800  62.0005520
  33.4195100  87.1322970  62.6185530  32.8007520  86.7942520  61.9711830
  33.4019550  86.4882730  63.3264720  24.9954450  86.0967410  64.8970010
  24.5911450  85.3844660  64.4015910  25.0817570  85.7520650  65.7858050
  25.4636150  89.7834970  67.0609220  25.1664440  89.1780440  66.3817000
  26.4135970  89.8212280  66.9498580  23.7083070  82.8710620  68.6769050
  24.2597660  82.9805960  67.9022300  24.2226580  83.2448220  69.3924280
  24.5554580  89.5216660  73.7117020  23.6583110  89.7456630  73.9590420
  24.5807450  89.6451600  72.7628420  31.5959800  86.3709780  59.6258280
  32.0353080  85.5332210  59.4796100  32.3088220  87.0039180  59.7122420
  29.7055180  91.3105850  63.5939520  30.1451090  92.0530180  63.1794910
  29.6442070  91.5532420  64.5178480  25.1806150  92.3351680  74.4959540
  25.1521580  92.7394630  73.6287970  25.0171120  91.4062040  74.3331140
  35.1776940  77.6252590  57.9399320  34.8649600  77.7179420  58.8398390
  35.9389410  78.2033620  57.8896750  21.6959080  84.9912390  62.3976660
  21.5756680  85.7174480  61.7857930  21.3859970  84.2215300  61.9204570
  20.5792080  89.8627720  64.6151480  20.1720160  90.0042310  63.7605080
  21.4705090  89.5787880  64.4122690  32.3725360  94.2974970  60.9502530
  32.2126500  94.0077910  61.8484360  32.2072070  93.5215100  60.4147760
  24.8513740  94.0773500  62.7274150  24.6756220  93.1609040  62.5141950
  23.9969480  94.4360790  62.9671950  32.0751490  91.8062530  59.5100530
  31.3816650  91.8039820  58.8502810  32.8174350  91.3821850  59.0794700
  31.6401420  93.4325240  63.5849020  32.0958370  92.6514620  63.8987640
  31.9793940  94.1432060  64.1290200  36.3878230  82.3624090  73.9173460
  35.7722500  82.8703760  73.3888920  36.0674650  81.4622420  73.8599400
  33.4497060  82.4224930  72.5132310  32.5990650  82.1230680  72.8341380
  33.2898850  82.6666940  71.6016130  26.1998640  78.8794790  67.6389930
  26.4970970  79.7857620  67.5581950  26.7484200  78.3913570  67.0249500
  23.9536960  83.4581030  63.5081580  23.7277880  83.2418200  64.4128200
  23.1729490  83.8909490  63.1627550  31.1834720  83.4644400  62.1072230
  30.5843610  84.1880200  61.9235850  31.7314330  83.4021180  61.3248680
  29.7899590  82.1007940  64.1375510  30.1829160  82.4180140  63.3244200
  30.1516440  81.2219820  64.2520030  21.5246710  80.7680280  72.3275630
  21.1310100  81.6155490  72.5348410  20.8365110  80.1306650  72.5184270
  28.0991760  80.8515250  75.3972370  27.4090080  80.6587450  76.0318460
  28.8424060  81.1349890  75.9296670  19.0133990  82.6328860  57.5708430
  18.9308660  83.5759620  57.7123420  18.6617050  82.4903770  56.6920780
  26.8132120  81.3667890  66.6378780  26.8168180  80.9257840  65.7883320
  27.7083240  81.6885220  66.7450600  30.8380640  80.1447370  67.6449230
  30.8553380  80.5956020  68.4891080  30.5896220  79.2453010  67.8582670
  25.8873770  84.6781110  59.0268840  25.3190670  84.2299360  58.4004750
  26.5962770  85.0373890  58.4933990  34.2651390  77.5579550  73.4835610
  34.5897160  76.8269210  74.0093590  34.3007900  77.2393190  72.5816600
  27.1140090  85.4269670  68.3844190  27.4810220  84.9528240  69.1305530
  26.9245150  86.3011240  68.7252530  23.4321250  88.6739300  61.2995250
  22.6583510  88.1336920  61.1393970  24.1615880  88.1545910  60.9613010
  23.4758650  88.3419680  64.9374060  23.9937320  87.5387940  64.8830950
  23.0242670  88.2798820  65.7790890  28.3628150  89.6085960  60.2101360
  28.7043850  90.3528190  59.7144680  27.5340860  89.9217080  60.5726190
  20.9603190  85.3081050  71.8499760  20.6018130  85.9734900  72.4373100
  20.6657750  84.4764600  72.2212380  34.6381830  84.7474110  58.9993050
  34.5545550  85.1788330  58.1489490  35.3576020  85.2072460  59.4319870
  35.7155970  87.2041630  72.0763020  34.9904160  87.7970410  71.8792410
  36.2431430  87.1965170  71.2776390  35.6669080  91.6016370  61.7275180
  35.0245240  90.9471990  62.0018900  35.2799740  92.0071460  60.9515850
  31.2455560  88.9301800  65.5746870  31.5979380  88.3329930  64.9148240
  30.3617890  88.6046030  65.7455120  27.3318840  89.6899490  62.9817280
  28.0189970  90.2368700  63.3624870  26.5451260  90.2340220  63.0166890
  19.4711240  85.3072310  58.4734360  20.3406090  85.5897110  58.7570280
  18.9801560  86.1208180  58.3583170  26.6346050  86.6945520  62.5942640
  27.0908830  87.5050770  62.8202830  26.2834260  86.3768660  63.4261130
  34.0566460  90.4932830  58.2651530  33.8304040  89.7763270  58.8576170
  33.6662660  90.2445270  57.4273280  19.8382490  94.5199690  59.0395990
  20.1980130  95.1189030  58.3853260  19.6974830  95.0659580  59.8131020
  19.5351760  78.7974290  72.5271860  18.8210280  78.9971210  73.1324470
  19.9546800  78.0213860  72.8986660  33.6382710  88.4104770  59.9265690
  33.3504410  88.8717460  60.7143570  34.4334880  87.9502540  60.1949910
  27.8136940  91.0570440  74.9136510  27.4933810  90.3379680  75.4582200
  27.1395300  91.7325510  74.9872570  25.8551110  91.9030890  59.8569660
  25.8461210  92.6360580  59.2414170  24.9349470  91.6562470  59.9496620
  21.4557750  87.1245780  60.6016420  20.8485700  87.8644680  60.6111720
  21.9307100  87.2145140  59.7754620  34.3952570  80.2453540  61.0860870
  33.7665730  80.3499210  60.3719100  33.9004490  80.4650320  61.8754750
  28.8410710  91.9659130  58.5194850  28.9422690  91.7623120  57.5896830
  27.9412450  91.7117410  58.7242630  26.3636600  82.5239490  62.5018750
  25.6552750  82.9925830  62.9432360  26.6481080  81.8661500  63.1363940
  27.4828820  94.4845450  63.2142520  27.7370320  94.4466840  62.2921890
  26.5341300  94.3578780  63.2070770  24.5671620  80.8324570  59.8769460
  25.4162150  81.2694720  59.8109650  24.2002890  81.1444830  60.7041520
  35.1959390  80.1604150  71.3439670  34.6932990  80.9009550  71.6833480
  36.0116050  80.5488150  71.0276460  33.4881400  85.4037330  64.7901030
  32.5471540  85.4187560  64.9648720  33.8025470  84.6173290  65.2361330
  23.4663040  87.0856930  58.3504990  24.2326310  86.9738290  58.9130420
  23.5437730  86.3894900  57.6981760  22.1609800  84.5182000  59.0337880
  22.2413390  83.5709510  59.1455280  23.0529550  84.8488880  59.1398540
  35.4906980  92.5746180  66.4655290  35.6154400  93.3977350  66.9379100
  36.3572540  92.3636910  66.1179440  19.8469990  90.7350960  62.0113930
  18.9209770  90.9772100  62.0019340  20.3126420  91.5625220  61.8898680
  21.9682790  93.8523460  75.3258000  22.7695520  94.1735510  75.7393400
  21.4534610  93.4919040  76.0477910  26.0726820  93.8407700  57.9597990
  26.8655430  94.1296530  57.5079780  25.5531170  93.4099870  57.2810470
  30.8047420  89.9603330  75.2733410  30.1985580  89.9834930  74.5329160
  30.5001530  89.2286370  75.8100660  32.2347790  93.6883620  73.8842820
  33.1869540  93.6041640  73.8343060  32.0876010  94.3525330  74.5576610
  35.1256990  93.0677830  59.3834730  34.8398500  92.6542970  58.5688910
  34.9276540  93.9965540  59.2635250  19.6880600  86.3396920  74.2694050
  20.1919620  85.7604200  74.8410280  18.9488020  86.6237150  74.8070420
  26.5904220  89.0611110  57.8240340  26.4854860  88.4463460  58.5501720
  26.4228440  88.5377000  57.0403350  29.8306950  88.1231140  58.4282330
  29.2817050  88.5700440  59.0725070  30.4526210  87.6180390  58.9520000
  21.7203680  84.4826510  75.1644120  21.7609020  84.1840380  76.0729350
  22.5749180  84.8834120  75.0051640  25.4982070  87.0822060  60.3247630
  25.9198490  86.9161930  61.1679020  25.6232910  86.2722290  59.8302770
  28.0109710  86.1059670  57.5724730  28.5315370  85.3908690  57.2065880
  28.6578110  86.7445540  57.8725240  32.5587550  87.5288070  72.8959800
  32.9728570  87.6833150  73.7450220  31.6238550  87.6543290  73.0585580
  33.0309720  84.8684230  74.8998950  33.6130490  84.1136550  74.8119430
  33.2071490  85.3991670  74.1230430  24.1481790  80.0280980  73.2115900
  24.0538660  79.4101730  72.4866770  23.5679180  80.7547270  72.9845810
  26.9143230  78.5854220  70.2443290  26.4660530  78.6078480  69.3988840
  26.2808430  78.1873240  70.8413590  24.3940970  83.1555290  57.2705790
  24.1930030  82.2922650  57.6319130  24.2233020  83.0688650  56.3327390
  31.2428880  81.3711890  73.7402410  30.5544400  80.7093430  73.6752400
  31.9634900  80.9250160  74.1850870  23.1923770  80.2555910  57.2583670
  23.4949670  80.2623340  56.3502820  23.9318360  79.9053770  57.7551330
  28.0272410  95.0212770  72.2400110  27.9531110  95.9247910  72.5472480
  27.1251250  94.7024670  72.2122180  26.4108700  79.1990530  58.2439870
  26.0630700  78.5214520  57.6642320  26.6121470  78.7380040  59.0583260
  28.5757740  94.1871280  59.8626470  29.4708530  94.5256250  59.8845230
  28.6075370  93.4650690  59.2350750  22.2153900  89.5598330  58.0913470
  22.6528770  90.1028000  58.7471050  22.7001630  88.7345280  58.1009810
  24.0261620  90.6796370  63.2035700  23.7257160  90.5561340  64.1039610
  23.9199110  89.8204960  62.7951430  36.7953540  90.4592770  57.9062380
  35.9646500  90.5269420  58.3769610  36.9725370  91.3496890  57.6029240
  36.2510000  87.2040250  60.4096580  37.0128910  87.7736900  60.5156270
  36.2664370  86.6367450  61.1804890  19.7514340  85.7278180  64.6404240
  19.0963180  85.4589820  63.9963940  20.5892290  85.6182660  64.1906220
  37.2569970  88.0590350  65.2538510  37.6278800  87.2757670  64.8474480
  37.8971900  88.7479450  65.0755810  36.3029170  87.4974620  57.5669100
  36.5778010  88.4053500  57.4388320  36.1139910  87.4337150  58.5031090
  36.1994510  85.4343610  62.5598530  35.8238110  84.6671540  62.1279820
  35.4697630  85.8166310  63.0473460  20.7890270  86.1130750  69.1807580
  21.1563310  86.0258150  70.0603600  20.2201090  85.3497300  69.0814440
  20.3406270  83.0239840  73.0866000  19.4462320  82.9906600  73.4259710
  20.8803820  83.2226630  73.8517250  34.0282200  79.8071560  74.9717750
  34.9052380  79.8154960  75.3551750  34.0403040  79.0702400  74.3610100
  18.9652420  82.9377110  60.5829570  18.0616500  83.2007310  60.4081230
  19.4493040  83.2088280  59.8029530  21.5079630  81.9942650  58.4923950
  22.2171330  81.5725870  58.0071230  20.7919570  82.0617880  57.8607300
  34.9645440  82.9174450  61.7998180  35.4604560  82.6845320  62.5847060
  34.7661510  82.0786290  61.3835820  36.3932600  81.5535400  64.3335860
  36.2831880  81.3991440  65.2718130  37.1540190  81.0256340  64.0911270
  34.7398320  77.4929530  70.7918860  35.3770540  78.1063670  71.1578050
  34.8873210  77.5290190  69.8468090  37.2822870  79.3843320  57.5742000
  38.2072180  79.2524500  57.3660290  37.2598660  79.4636140  58.5278450
  37.3561360  80.1553980  60.1998710  36.5612860  80.0899100  60.7291620
  37.5604640  81.0904620  60.1884060  34.2979780  94.1945530  64.1937100
  34.8938850  93.8730100  63.5171520  34.5557930  93.7217350  64.9850370
  20.5977980  77.4543840  70.1774540  20.2492800  77.9107660  70.9432720
  20.2665680  76.5600970  70.2596970  28.1102800  78.6455720  73.6993960
  28.0491690  79.2377550  74.4489370  29.0503180  78.5381680  73.5544220
  30.7477360  78.3025780  73.3386250  31.3617770  78.6205070  72.6767330
  31.2926920  77.8174370  73.9582110  21.2698620  76.9820040  73.4525310
  21.8181610  76.8008090  72.6891420  21.3353930  76.1914150  73.9881620
  31.4885400  76.8657920  69.6655540  30.6145240  77.1993030  69.4628470
  31.3796150  76.3931100  70.4907410  32.3957380  79.0728790  71.0497260
  32.0670740  78.2580550  70.6698990  33.3439680  79.0298600  70.9262950
  29.2360220  77.7827760  68.6048450  28.4532010  78.2573260  68.8845210
  28.9423150  76.8782590  68.4961630  33.7881290  78.4850860  66.6497540
  34.2289380  78.4295960  65.8019140  33.5188880  79.4008870  66.7207720
  27.1214440  80.2014510  64.1164480  26.3088950  79.8271400  63.7760360
  27.6256080  79.4459590  64.4185670  21.5635310  92.9491690  61.0680450
  21.0382930  93.3299720  60.3642410  21.4879890  93.5742460  61.7890160
  22.9525780  78.6139290  59.6664140  23.4818540  77.8269090  59.5372090
  23.5854100  79.2930480  59.8999670  28.0855570  94.9653660  75.3920140
  29.0122880  94.7297930  75.4356100  28.0706000  95.7925660  74.9106170
  36.3200630  94.5079230  62.3894390  36.4952820  93.8216970  61.7455310
  35.6222200  95.0326280  61.9971060  25.2719180  77.6298410  75.1562020
  24.9903450  78.1332010  74.3922840  25.6538880  76.8320160  74.7904150
  24.1628280  94.8974070  59.9429700  24.8947100  94.6133350  59.3953590
  24.4221950  94.6587350  60.8329080  23.3243070  91.0138800  59.9476030
  22.6951950  91.4823900  60.4961860  23.4390900  90.1688020  60.3822220
  30.7792790  85.0644460  46.0977230  30.6986840  84.1499070  45.8268940
  30.3657210  85.5611530  45.3916940  28.9110830  86.8423480  47.9786500
  28.1352930  86.3623920  48.2685070  29.5623760  86.1629130  47.8042660
  32.9318260  91.2483670  46.7585630  32.4699790  90.4770910  47.0872800
  33.7443810  91.2749740  47.2638080  21.3368610  82.1145180  42.6404650
  20.4485310  82.4561150  42.5384530  21.6209800  81.9145500  41.7485480
  29.1581570  93.5341680  46.3789620  28.5393010  93.9899180  45.8084060
  30.0133350  93.6893140  45.9779320  28.3519820  89.5180670  47.9856660
  28.2828100  88.5770610  47.8245790  29.1139680  89.6082080  48.5579230
  29.3824990  82.3251050  48.2125590  29.7589810  81.4522930  48.0999260
  29.2844500  82.6609750  47.3216030  23.5130000  80.6976680  43.6743030
  23.6196750  81.5980410  43.9811790  22.6022360  80.6494650  43.3837680
  33.1649110  79.8201490  45.1453930  33.9858730  79.3298060  45.1879410
  33.1983190  80.4099150  45.8985770  25.3537730  83.6663050  48.0068210
  25.8615950  84.1644020  48.6473230  25.8850970  82.8898250  47.8307570
  37.4548660  81.8368240  51.7097560  36.7500830  82.2249950  51.1912670
  37.7206580  82.5318530  52.3118490  24.8876680  87.9456790  50.4505130
  24.5546060  88.5725710  51.0926200  25.0643360  88.4718670  49.6706800
  33.4010590  81.7601870  47.9181470  32.6966160  82.0486760  48.4984580
  33.7622750  82.5701980  47.5581030  24.0995780  89.9137590  52.2654310
  24.7169780  90.5888670  51.9838760  23.2388900  90.3225570  52.1741810
  19.3928120  89.1037450  41.1461160  19.0156100  89.5924550  40.4146060
  19.6501190  89.7762730  41.7767690  36.4697510  81.2056660  48.3090680
  35.5222420  81.2395640  48.4406110  36.7947500  82.0195610  48.6940040
  33.8477530  89.9437350  43.9844300  33.7373860  89.0011680  44.1093720
  33.8445780  90.3052990  44.8707060  29.3897810  85.5702670  43.3406790
  28.4627090  85.5040050  43.5695260  29.5422630  86.5082800  43.2262030
  33.4195100  87.1322970  43.8442040  32.8007520  86.7942520  43.1968340
  33.4019550  86.4882730  44.5521230  32.8621660  83.3107510  51.2607850
  32.4492840  84.1361220  51.5147840  32.1297610  82.7252550  51.0684210
  25.4636150  89.7834970  48.2865730  25.1664440  89.1780440  47.6073510
  26.4135970  89.8212280  48.1755090  24.5554580  89.5216660  54.9373530
  23.6583110  89.7456630  55.1846930  24.5807450  89.6451600  53.9884930
  31.5959800  86.3709780  40.8514790  32.0353080  85.5332210  40.7052610
  32.3088220  87.0039180  40.9378930  23.3825800  86.3929980  53.5130900
  23.2433570  87.2652780  53.8818300  22.5007160  86.0502790  53.3678840
  25.1806150  92.3351680  55.7216050  25.1521580  92.7394630  54.8544480
  25.0171120  91.4062040  55.5587650  30.3970960  94.0119630  52.7475040
  30.9115630  93.9227640  53.5497470  29.5540040  94.3579330  53.0402950
  32.3725360  94.2974970  42.1759040  32.2126500  94.0077910  43.0740870
  32.2072070  93.5215100  41.6404270  36.3878230  82.3624090  55.1429970
  35.7722500  82.8703760  54.6145430  36.0674650  81.4622420  55.0855910
  28.4492550  81.2015980  52.6092160  27.9871920  81.4099000  53.4212100
  28.0470660  80.3875330  52.3062830  33.4497060  82.4224930  53.7388820
  32.5990650  82.1230680  54.0597890  33.2898850  82.6666940  52.8272640
  30.5446770  83.9226680  55.8387610  30.8700180  83.0890430  55.4989840
  31.3327100  84.4455200  55.9865940  26.1998640  78.8794790  48.8646440
  26.4970970  79.7857620  48.7838460  26.7484200  78.3913570  48.2506010
  23.9536960  83.4581030  44.7338090  23.7277880  83.2418200  45.6384710
  23.1729490  83.8909490  44.3884060  31.1834720  83.4644400  43.3328740
  30.5843610  84.1880200  43.1492360  31.7314330  83.4021180  42.5505190
  26.3936170  84.3566610  55.3998360  26.2979770  83.4161340  55.2498760
  27.2368150  84.5781680  55.0046430  29.7899590  82.1007940  45.3632020
  30.1829160  82.4180140  44.5500710  30.1516440  81.2219820  45.4776540
  18.8263760  78.6908740  47.5862220  18.5376810  79.2611600  48.2987200
  19.5709520  78.2113190  47.9493450  19.0133990  82.6328860  38.7964940
  18.9308660  83.5759620  38.9379930  18.6617050  82.4903770  37.9177290
  30.3754730  84.6913690  49.4582800  29.6435850  85.2000500  49.8072900
  29.9779070  83.8743670  49.1571580  26.8132120  81.3667890  47.8635290
  26.8168180  80.9257840  47.0139830  27.7083240  81.6885220  47.9707110
  26.8752270  82.3679970  40.8542050  26.9965090  82.3266450  41.8027870
  26.4900780  83.2304120  40.6988780  30.8380640  80.1447370  48.8705740
  30.8553380  80.5956020  49.7147590  30.5896220  79.2453010  49.0839180
  25.8873770  84.6781110  40.2525350  25.3190670  84.2299360  39.6261260
  26.5962770  85.0373890  39.7190500  34.2651390  77.5579550  54.7092120
  34.5897160  76.8269210  55.2350100  34.3007900  77.2393190  53.8073110
  20.9642950  88.5793130  54.1292080  20.5797740  87.9386800  54.7275040
  21.2755140  89.2829250  54.6986810  27.1140090  85.4269670  49.6100700
  27.4810220  84.9528240  50.3562040  26.9245150  86.3011240  49.9509040
  19.9780580  80.1713360  45.7394170  19.6927500  79.8069030  46.5772790
  19.9159440  79.4393820  45.1257310  29.6519170  79.0642620  42.4607540
  28.8383780  78.5655790  42.3852850  29.4581120  79.9040870  42.0443890
  29.5728030  87.7413720  54.2047150  29.5065340  86.8209390  53.9504740
  28.9433170  87.8389160  54.9191790  32.3667560  83.4362270  40.7569700
  33.2547180  83.7479500  40.5821040  32.3372650  82.5634520  40.3650280
  20.9603190  85.3081050  53.0756270  20.6018130  85.9734900  53.6629610
  20.6657750  84.4764600  53.4468890  24.1616310  85.7665290  55.9595820
  23.8616450  85.9122470  55.0623640  24.9327550  85.2070580  55.8669210
  29.5044760  90.5634290  53.9550950  29.5189300  89.6315250  53.7369860
  28.7969860  90.6494050  54.5940720  34.6381830  84.7474110  40.2249560
  34.5545550  85.1788330  39.3746000  35.3576020  85.2072460  40.6576380
  35.6669080  91.6016370  42.9531690  35.0245240  90.9471990  43.2275410
  35.2799740  92.0071460  42.1772360  31.2455560  88.9301800  46.8003380
  31.5979380  88.3329930  46.1404750  30.3617890  88.6046030  46.9711630
  19.4711240  85.3072310  39.6990870  20.3406090  85.5897110  39.9826790
  18.9801560  86.1208180  39.5839680  28.9378660  92.2051860  51.0491450
  29.5820880  92.4111240  51.7264870  29.3008100  91.4440260  50.5962300
  19.8382490  94.5199690  40.2652500  20.1980130  95.1189030  39.6109770
  19.6974830  95.0659580  41.0387530  19.5351760  78.7974290  53.7528370
  18.8210280  78.9971210  54.3580980  19.9546800  78.0213860  54.1243170
  33.6382710  88.4104770  41.1522200  33.3504410  88.8717460  41.9400080
  34.4334880  87.9502540  41.4206420  19.8224350  92.7854550  54.7394900
  19.9315470  91.8449290  54.5990290  19.1704910  93.0509300  54.0908630
  27.8136940  91.0570440  56.1393020  27.4933810  90.3379680  56.6838710
  27.1395300  91.7325510  56.2129080  21.4557750  87.1245780  41.8272930
  20.8485700  87.8644680  41.8368230  21.9307100  87.2145140  41.0011130
  31.0290540  81.2896600  51.5029820  31.3971360  80.4691810  51.8309390
  30.1688740  81.3498490  51.9185470  26.3636600  82.5239490  43.7275260
  25.6552750  82.9925830  44.1688870  26.6481080  81.8661500  44.3620450
  27.9892530  83.9436190  51.7267790  28.4877780  84.4182010  52.3919640
  28.1315480  83.0199710  51.9337820  30.3952030  79.2490150  45.1671050
  30.2719810  79.2676280  44.2180560  31.3436590  79.2969090  45.2869450
  27.4828820  94.4845450  44.4399030  27.7370320  94.4466840  43.5178400
  26.5341300  94.3578780  44.4327280  24.5671620  80.8324570  41.1025970
  25.4162150  81.2694720  41.0366160  24.2002890  81.1444830  41.9298030
  35.1959390  80.1604150  52.5696180  34.6932990  80.9009550  52.9089990
  36.0116050  80.5488150  52.2532970  33.4881400  85.4037330  46.0157540
  32.5471540  85.4187560  46.1905230  33.8025470  84.6173290  46.4617840
  23.4663040  87.0856930  39.5761500  24.2326310  86.9738290  40.1386930
  23.5437730  86.3894900  38.9238270  22.1609800  84.5182000  40.2594390
  22.2413390  83.5709510  40.3711790  23.0529550  84.8488880  40.3655050
  22.9624510  94.6677390  47.3628930  23.6986990  94.1192850  47.6337500
  23.3465430  95.5333400  47.2234920  19.8469990  90.7350960  43.2370440
  18.9209770  90.9772100  43.2275850  20.3126420  91.5625220  43.1155190
  21.9682790  93.8523460  56.5514510  22.7695520  94.1735510  56.9649910
  21.4534610  93.4919040  57.2734420  30.8047420  89.9603330  56.4989920
  30.1985580  89.9834930  55.7585670  30.5001530  89.2286370  57.0357170
  32.2347790  93.6883620  55.1099330  33.1869540  93.6041640  55.0599570
  32.0876010  94.3525330  55.7833120  19.6880600  86.3396920  55.4950560
  20.1919620  85.7604200  56.0666790  18.9488020  86.6237150  56.0326930
  26.5904220  89.0611110  39.0496850  26.4854860  88.4463460  39.7758230
  26.4228440  88.5377000  38.2659860  26.7418540  87.7467910  55.0286080
  25.9764210  88.3152910  54.9440750  26.9234500  87.4544120  54.1354310
  29.8306950  88.1231140  39.6538840  29.2817050  88.5700440  40.2981580
  30.4526210  87.6180390  40.1776510  33.8841890  89.4773240  55.5861100
  34.6251360  89.8149000  55.0828560  33.1214570  89.6465300  55.0330870
  21.7203680  84.4826510  56.3900630  21.7609020  84.1840380  57.2985860
  22.5749180  84.8834120  56.2308150  28.0109710  86.1059670  38.7981240
  28.5315370  85.3908690  38.4322390  28.6578110  86.7445540  39.0981750
  32.5587550  87.5288070  54.1216310  32.9728570  87.6833150  54.9706730
  31.6238550  87.6543290  54.2842090  33.0309720  84.8684230  56.1255460
  33.6130490  84.1136550  56.0375940  33.2071490  85.3991670  55.3486940
  26.9143230  78.5854220  51.4699800  26.4660530  78.6078480  50.6245350
  26.2808430  78.1873240  52.0670100  27.3202780  87.4808550  52.0912240
  27.7390890  88.3241280  51.9188480  26.4011410  87.6180590  51.8619020
  29.6566680  85.2124730  53.4750080  29.7762890  84.6165870  54.2144920
  30.5160680  85.2494420  53.0551380  31.9954580  85.7661920  52.0512590
  31.4689800  86.2904540  51.4477730  32.3385920  86.3989310  52.6822320
  24.3940970  83.1555290  38.4962300  24.1930030  82.2922650  38.8575640
  24.2233020  83.0688650  37.5583900  25.1710200  93.7861560  53.2069970
  24.6331290  94.5107620  52.8878670  25.4244160  93.3091900  52.4167310
  23.1923770  80.2555910  38.4840180  23.4949670  80.2623340  37.5759330
  23.9318360  79.9053770  38.9807840  28.0272410  95.0212770  53.4656620
  27.9531110  95.9247910  53.7728990  27.1251250  94.7024670  53.4378690
  26.4108700  79.1990530  39.4696380  26.0630700  78.5214520  38.8898830
  26.6121470  78.7380040  40.2839770  22.2153900  89.5598330  39.3169980
  22.6528770  90.1028000  39.9727560  22.7001630  88.7345280  39.3266320
  36.2510000  87.2040250  41.6353090  37.0128910  87.7736900  41.7412780
  36.2664370  86.6367450  42.4061400  37.2569970  88.0590350  46.4795020
  37.6278800  87.2757670  46.0730990  37.8971900  88.7479450  46.3012320
  36.3029170  87.4974620  38.7925610  36.5778010  88.4053500  38.6644830
  36.1139910  87.4337150  39.7287600  36.1994510  85.4343610  43.7855040
  35.8238110  84.6671540  43.3536330  35.4697630  85.8166310  44.2729970
  35.5894130  84.5815130  53.4194560  35.3580220  84.3527880  52.5192510
  35.8498680  85.5014680  53.3739450  20.3406270  83.0239840  54.3122510
  19.4462320  82.9906600  54.6516220  20.8803820  83.2226630  55.0773760
  34.0282200  79.8071560  56.1974260  34.9052380  79.8154960  56.5808260
  34.0403040  79.0702400  55.5866610  18.9652420  82.9377110  41.8086080
  18.0616500  83.2007310  41.6337740  19.4493040  83.2088280  41.0286040
  35.4745470  83.6601100  47.0862280  35.9982950  83.1663750  46.4552450
  36.0604890  83.7951460  47.8309850  35.6535190  83.7440970  50.6081830
  34.7037900  83.7104510  50.7226820  35.8348200  84.6541080  50.3731600
  21.5079630  81.9942650  39.7180460  22.2171330  81.5725870  39.2327740
  20.7919570  82.0617880  39.0863810  21.1553790  78.0481980  38.7583110
  21.8781920  78.5890920  39.0764330  21.4278310  77.7745400  37.8824650
  34.9645440  82.9174450  43.0254690  35.4604560  82.6845320  43.8103570
  34.7661510  82.0786290  42.6092330  20.8445980  77.2988170  48.6605730
  21.4922170  76.7485550  48.2200890  21.2647820  77.5531320  49.4821540
  36.3932600  81.5535400  45.5592370  36.2831880  81.3991440  46.4974640
  37.1540190  81.0256340  45.3167780  34.7398320  77.4929530  52.0175370
  35.3770540  78.1063670  52.3834560  34.8873210  77.5290190  51.0724600
  20.5977980  77.4543840  51.4031050  20.2492800  77.9107660  52.1689230
  20.2665680  76.5600970  51.4853480  22.2042350  90.6263440  55.5684240
  22.1611980  90.2556350  56.4498700  22.3353360  91.5641010  55.7086060
  25.9048380  92.1823030  51.1693960  25.6639740  92.4497590  50.2824480
  26.8451020  92.3528760  51.2244820  28.1102800  78.6455720  54.9250470
  28.0491690  79.2377550  55.6745880  29.0503180  78.5381680  54.7800730
  30.7477360  78.3025780  54.5642760  31.3617770  78.6205070  53.9023840
  31.2926920  77.8174370  55.1838620  21.2698620  76.9820040  54.6781820
  21.8181610  76.8008090  53.9147930  21.3353930  76.1914150  55.2138130
  22.0430380  93.5725690  52.6882020  21.4490700  93.4410390  53.4272060
  22.0354220  92.7363830  52.2224120  31.4885400  76.8657920  50.8912050
  30.6145240  77.1993030  50.6884980  31.3796150  76.3931100  51.7163920
  32.3957380  79.0728790  52.2753770  32.0670740  78.2580550  51.8955500
  33.3439680  79.0298600  52.1519460  25.2787710  93.1529070  48.4239470
  25.7952730  92.5416430  47.8987730  25.9285090  93.6557850  48.9150480
  28.0183210  94.0437560  49.2508450  28.3061020  93.7891860  48.3741460
  28.5306430  93.4914920  49.8414020  29.2360220  77.7827760  49.8304960
  28.4532010  78.2573260  50.1101720  28.9423150  76.8782590  49.7218140
  33.7881290  78.4850860  47.8754050  34.2289380  78.4295960  47.0275650
  33.5188880  79.4008870  47.9464230  35.6519860  78.1166100  45.8862870
  35.5908260  77.1727320  45.7393890  36.4311890  78.2246190  46.4316330
  20.5800630  78.0875240  42.3518680  21.3379990  78.2004120  41.7782710
  20.1177800  78.9244440  42.3062110  27.1214440  80.2014510  45.3420990
  26.3088950  79.8271400  45.0016870  27.6256080  79.4459590  45.6442180
  31.6239420  76.8656960  46.5804060  32.2268790  77.4377170  47.0552580
  30.8832410  77.4296400  46.3577960  21.5635310  92.9491690  42.2936960
  21.0382930  93.3299720  41.5898920  21.4879890  93.5742460  43.0146670
  22.9525780  78.6139290  40.8920650  23.4818540  77.8269090  40.7628600
  23.5854100  79.2930480  41.1256180  28.0855570  94.9653660  56.6176650
  29.0122880  94.7297930  56.6612610  28.0706000  95.7925660  56.1362680
  36.3200630  94.5079230  43.6150900  36.4952820  93.8216970  42.9711820
  35.6222200  95.0326280  43.2227570  25.2719180  77.6298410  56.3818530
  24.9903450  78.1332010  55.6179350  25.6538880  76.8320160  56.0160660
  24.1628280  94.8974070  41.1686210  24.8947100  94.6133350  40.6210100
  24.4221950  94.6587350  42.0585590  30.7792790  85.0644460  27.3233740
  30.6986840  84.1499070  27.0525450  30.3657210  85.5611530  26.6173450
  28.9110830  86.8423480  29.2043010  28.1352930  86.3623920  29.4941580
  29.5623760  86.1629130  29.0299170  22.9276660  87.1543290  30.0818770
  22.0961540  86.8992000  30.4815280  23.5357640  87.2254060  30.8176690
  32.9318260  91.2483670  27.9842140  32.4699790  90.4770910  28.3129310
  33.7443810  91.2749740  28.4894590  22.9077920  91.1883380  30.2776790
  23.2105960  90.2981120  30.0987010  23.6521510  91.7453600  30.0499040
  21.3368610  82.1145180  23.8661160  20.4485310  82.4561150  23.7641040
  21.6209800  81.9145500  22.9741990  19.3001620  84.7150830  29.7500860
  19.8717730  83.9473030  29.7504500  19.3003160  85.0139590  28.8407470
  29.1581570  93.5341680  27.6046130  28.5393010  93.9899180  27.0340570
  30.0133350  93.6893140  27.2035830  28.3519820  89.5180670  29.2113170
  28.2828100  88.5770610  29.0502300  29.1139680  89.6082080  29.7835740
  20.5426490  80.1235190  31.5369790  20.3629330  79.2260940  31.8172550
  20.1406570  80.6707060  32.2116740  29.3824990  82.3251050  29.4382100
  29.7589810  81.4522930  29.3255770  29.2844500  82.6609750  28.5472540
  23.5130000  80.6976680  24.8999540  23.6196750  81.5980410  25.2068300
  22.6022360  80.6494650  24.6094190  33.1649110  79.8201490  26.3710440
  33.9858730  79.3298060  26.4135920  33.1983190  80.4099150  27.1242280
  21.1613160  82.6195690  30.1452130  21.8423270  82.8834060  30.7639530
  20.8461210  81.7796560  30.4790140  25.3537730  83.6663050  29.2324720
  25.8615950  84.1644020  29.8729740  25.8850970  82.8898250  29.0564080
  23.6373830  78.3061610  33.4988140  23.6392270  78.8234000  32.6934040
  22.8078140  77.8291790  33.4758070  30.0244920  88.4180920  24.9978040
  29.4062190  88.8830370  24.4340760  30.5368170  89.1108400  25.4147550
  24.8876680  87.9456790  31.6761640  24.5546060  88.5725710  32.3182710
  25.0643360  88.4718670  30.8963310  33.4010590  81.7601870  29.1437980
  32.6966160  82.0486760  29.7241090  33.7622750  82.5701980  28.7837540
  23.3189160  80.0171570  31.5058590  23.6605970  80.8613620  31.2112460
  22.3804970  80.1655310  31.6223930  24.0995780  89.9137590  33.4910820
  24.7169780  90.5888670  33.2095270  23.2388900  90.3225570  33.3998320
  19.3928120  89.1037450  22.3717670  19.0156100  89.5924550  21.6402570
  19.6501190  89.7762730  23.0024200  36.4697510  81.2056660  29.5347190
  35.5222420  81.2395640  29.6662620  36.7947500  82.0195610  29.9196550
  27.0017050  77.5053840  27.8303180  27.3092030  76.9500730  27.1138680
  26.0717750  77.6398300  27.6476170  33.8477530  89.9437350  25.2100810
  33.7373860  89.0011680  25.3350230  33.8445780  90.3052990  26.0963570
  31.9517550  88.1250970  31.4493250  32.3686340  87.9111080  30.6146710
  32.6757370  88.3823760  32.0201870  29.3897810  85.5702670  24.5663300
  28.4627090  85.5040050  24.7951770  29.5422630  86.5082800  24.4518540
  29.3766890  81.8419670  21.5630460  28.4370560  82.0033630  21.6482920
  29.6950150  82.5605350  21.0166450  35.8979650  86.5238190  31.5409490
  35.0698280  86.5931280  31.0659620  36.4930130  87.1092500  31.0725320
  33.4195100  87.1322970  25.0698550  32.8007520  86.7942520  24.4224850
  33.4019550  86.4882730  25.7777740  24.9954450  86.0967410  27.3483030
  24.5911450  85.3844660  26.8528930  25.0817570  85.7520650  28.2371070
  25.4636150  89.7834970  29.5122240  25.1664440  89.1780440  28.8330020
  26.4135970  89.8212280  29.4011600  23.7083070  82.8710620  31.1282070
  24.2597660  82.9805960  30.3535320  24.2226580  83.2448220  31.8437300
  24.5554580  89.5216660  36.1630040  23.6583110  89.7456630  36.4103440
  24.5807450  89.6451600  35.2141440  31.5959800  86.3709780  22.0771300
  32.0353080  85.5332210  21.9309120  32.3088220  87.0039180  22.1635440
  23.3825800  86.3929980  34.7387410  23.2433570  87.2652780  35.1074810
  22.5007160  86.0502790  34.5935350  29.7055180  91.3105850  26.0452540
  30.1451090  92.0530180  25.6307930  29.6442070  91.5532420  26.9691500
  25.1806150  92.3351680  36.9472560  25.1521580  92.7394630  36.0800990
  25.0171120  91.4062040  36.7844160  35.1776940  77.6252590  20.3912340
  34.8649600  77.7179420  21.2911410  35.9389410  78.2033620  20.3409770
  21.6959080  84.9912390  24.8489680  21.5756680  85.7174480  24.2370950
  21.3859970  84.2215300  24.3717590  19.3344450  88.1627530  30.6558320
  19.4124870  88.2976300  29.7114040  19.9486130  87.4543420  30.8486440
  20.5792080  89.8627720  27.0664500  20.1720160  90.0042310  26.2118100
  21.4705090  89.5787880  26.8635710  36.5354220  90.3091630  35.4036740
  36.6617280  90.0703510  34.4853920  36.5775600  89.4776170  35.8758820
  32.3725360  94.2974970  23.4015550  32.2126500  94.0077910  24.2997380
  32.2072070  93.5215100  22.8660780  24.8513740  94.0773500  25.1787170
  24.6756220  93.1609040  24.9654970  23.9969480  94.4360790  25.4184970
  32.0751490  91.8062530  21.9613550  31.3816650  91.8039820  21.3015830
  32.8174350  91.3821850  21.5307720  31.6401420  93.4325240  26.0362040
  32.0958370  92.6514620  26.3500660  31.9793940  94.1432060  26.5803220
  19.3903970  89.2041700  33.1952780  19.5535010  88.7347060  32.3772150
  19.8556420  88.6965260  33.8601620  24.1622740  78.3347460  28.2313350
  23.7190890  79.1157000  27.8997870  24.7207730  78.6577350  28.9384290
  27.2781560  77.9558160  23.1119180  26.6535740  77.9518030  23.8372490
  27.1911680  77.0889120  22.7155150  26.1998640  78.8794790  30.0902950
  26.4970970  79.7857620  30.0094970  26.7484200  78.3913570  29.4762520
  23.9536960  83.4581030  25.9594600  23.7277880  83.2418200  26.8641220
  23.1729490  83.8909490  25.6140570  31.1834720  83.4644400  24.5585250
  30.5843610  84.1880200  24.3748870  31.7314330  83.4021180  23.7761700
  26.3936170  84.3566610  36.6254870  26.2979770  83.4161340  36.4755270
  27.2368150  84.5781680  36.2302940  29.7899590  82.1007940  26.5888530
  30.1829160  82.4180140  25.7757220  30.1516440  81.2219820  26.7033050
  21.5246710  80.7680280  34.7788650  21.1310100  81.6155490  34.9861430
  20.8365110  80.1306650  34.9697290  18.8263760  78.6908740  28.8118730
  18.5376810  79.2611600  29.5243710  19.5709520  78.2113190  29.1749960
  19.0133990  82.6328860  20.0221450  18.9308660  83.5759620  20.1636440
  18.6617050  82.4903770  19.1433800  30.3754730  84.6913690  30.6839310
  29.6435850  85.2000500  31.0329410  29.9779070  83.8743670  30.3828090
  26.8132120  81.3667890  29.0891800  26.8168180  80.9257840  28.2396340
  27.7083240  81.6885220  29.1963620  22.6634500  81.2494380  28.0486010
  22.3234550  81.7269610  28.8053060  21.9011820  80.7959500  27.6887110
  26.8752270  82.3679970  22.0798560  26.9965090  82.3266450  23.0284380
  26.4900780  83.2304120  21.9245290  30.8380640  80.1447370  30.0962250
  30.8553380  80.5956020  30.9404100  30.5896220  79.2453010  30.3095690
  25.8873770  84.6781110  21.4781860  25.3190670  84.2299360  20.8517770
  26.5962770  85.0373890  20.9447010  20.9642950  88.5793130  35.3548590
  20.5797740  87.9386800  35.9531550  21.2755140  89.2829250  35.9243320
  27.1140090  85.4269670  30.8357210  27.4810220  84.9528240  31.5818550
  26.9245150  86.3011240  31.1765550  19.9780580  80.1713360  26.9650680
  19.6927500  79.8069030  27.8029300  19.9159440  79.4393820  26.3513820
  24.9039460  84.4678310  33.1541420  24.5996530  85.3470290  33.3791780
  25.8585920  84.5278100  33.1898860  23.4321250  88.6739300  23.7508270
  22.6583510  88.1336920  23.5906990  24.1615880  88.1545910  23.4126030
  34.1909230  87.6704660  29.5434660  34.9108350  88.1659950  29.1530770
  33.9891050  86.9922550  28.8988530  29.6519170  79.0642620  23.6864050
  28.8383780  78.5655790  23.6109360  29.4581120  79.9040870  23.2700400
  29.5728030  87.7413720  35.4303660  29.5065340  86.8209390  35.1761250
  28.9433170  87.8389160  36.1448300  32.3667560  83.4362270  21.9826210
  33.2547180  83.7479500  21.8077550  32.3372650  82.5634520  21.5906790
  23.4758650  88.3419680  27.3887080  23.9937320  87.5387940  27.3343970
  23.0242670  88.2798820  28.2303910  28.3628150  89.6085960  22.6614380
  28.7043850  90.3528190  22.1657700  27.5340860  89.9217080  23.0239210
  20.9603190  85.3081050  34.3012780  20.6018130  85.9734900  34.8886120
  20.6657750  84.4764600  34.6725400  24.1616310  85.7665290  37.1852330
  23.8616450  85.9122470  36.2880150  24.9327550  85.2070580  37.0925720
  34.6381830  84.7474110  21.4506070  34.5545550  85.1788330  20.6002510
  35.3576020  85.2072460  21.8832890  35.6669080  91.6016370  24.1788200
  35.0245240  90.9471990  24.4531920  35.2799740  92.0071460  23.4028870
  31.2455560  88.9301800  28.0259890  31.5979380  88.3329930  27.3661260
  30.3617890  88.6046030  28.1968140  27.3318840  89.6899490  25.4330300
  28.0189970  90.2368700  25.8137890  26.5451260  90.2340220  25.4679910
  19.4711240  85.3072310  20.9247380  20.3406090  85.5897110  21.2083300
  18.9801560  86.1208180  20.8096190  26.6346050  86.6945520  25.0455660
  27.0908830  87.5050770  25.2715850  26.2834260  86.3768660  25.8774150
  22.5357830  77.0383170  25.5178180  22.4072460  77.0301070  26.4663100
  21.7119850  77.3766260  25.1669190  34.0566460  90.4932830  20.7164550
  33.8304040  89.7763270  21.3089190  33.6662660  90.2445270  19.8786300
  19.8382490  94.5199690  21.4909010  20.1980130  95.1189030  20.8366280
  19.6974830  95.0659580  22.2644040  19.5351760  78.7974290  34.9784880
  18.8210280  78.9971210  35.5837490  19.9546800  78.0213860  35.3499680
  33.6382710  88.4104770  22.3778710  33.3504410  88.8717460  23.1656590
  34.4334880  87.9502540  22.6462930  19.8224350  92.7854550  35.9651410
  19.9315470  91.8449290  35.8246800  19.1704910  93.0509300  35.3165140
  27.8136940  91.0570440  37.3649530  27.4933810  90.3379680  37.9095220
  27.1395300  91.7325510  37.4385590  25.8551110  91.9030890  22.3082680
  25.8461210  92.6360580  21.6927190  24.9349470  91.6562470  22.4009640
  21.4557750  87.1245780  23.0529440  20.8485700  87.8644680  23.0624740
  21.9307100  87.2145140  22.2267640  34.3952570  80.2453540  23.5373890
  33.7665730  80.3499210  22.8232120  33.9004490  80.4650320  24.3267770
  28.8410710  91.9659130  20.9707870  28.9422690  91.7623120  20.0409850
  27.9412450  91.7117410  21.1755650  26.3636600  82.5239490  24.9531770
  25.6552750  82.9925830  25.3945380  26.6481080  81.8661500  25.5876960
  27.9892530  83.9436190  32.9524300  28.4877780  84.4182010  33.6176150
  28.1315480  83.0199710  33.1594330  30.3952030  79.2490150  26.3927560
  30.2719810  79.2676280  25.4437070  31.3436590  79.2969090  26.5125960
  27.4828820  94.4845450  25.6655540  27.7370320  94.4466840  24.7434910
  26.5341300  94.3578780  25.6583790  24.5671620  80.8324570  22.3282480
  25.4162150  81.2694720  22.2622670  24.2002890  81.1444830  23.1554540
  33.4881400  85.4037330  27.2414050  32.5471540  85.4187560  27.4161740
  33.8025470  84.6173290  27.6874350  23.4663040  87.0856930  20.8018010
  24.2326310  86.9738290  21.3643440  23.5437730  86.3894900  20.1494780
  22.1609800  84.5182000  21.4850900  22.2413390  83.5709510  21.5968300
  23.0529550  84.8488880  21.5911560  35.4906980  92.5746180  28.9168310
  35.6154400  93.3977350  29.3892120  36.3572540  92.3636910  28.5692460
  22.9624510  94.6677390  28.5885440  23.6986990  94.1192850  28.8594010
  23.3465430  95.5333400  28.4491430  19.8469990  90.7350960  24.4626950
  18.9209770  90.9772100  24.4532360  20.3126420  91.5625220  24.3411700
  21.9682790  93.8523460  37.7771020  22.7695520  94.1735510  38.1906420
  21.4534610  93.4919040  38.4990930  26.0726820  93.8407700  20.4111010
  26.8655430  94.1296530  19.9592800  25.5531170  93.4099870  19.7323490
  35.1256990  93.0677830  21.8347750  34.8398500  92.6542970  21.0201930
  34.9276540  93.9965540  21.7148270  19.6880600  86.3396920  36.7207070
  20.1919620  85.7604200  37.2923300  18.9488020  86.6237150  37.2583440
  26.5904220  89.0611110  20.2753360  26.4854860  88.4463460  21.0014740
  26.4228440  88.5377000  19.4916370  26.7418540  87.7467910  36.2542590
  25.9764210  88.3152910  36.1697260  26.9234500  87.4544120  35.3610820
  29.8306950  88.1231140  20.8795350  29.2817050  88.5700440  21.5238090
  30.4526210  87.6180390  21.4033020  21.7203680  84.4826510  37.6157140
  21.7609020  84.1840380  38.5242370  22.5749180  84.8834120  37.4564660
  25.4982070  87.0822060  22.7760650  25.9198490  86.9161930  23.6192040
  25.6232910  86.2722290  22.2815790  23.6609490  83.0618610  35.5831630
  23.1305950  82.5709560  34.9554970  24.3297560  83.4902810  35.0489560
  28.0109710  86.1059670  20.0237750  28.5315370  85.3908690  19.6578900
  28.6578110  86.7445540  20.3238260  32.5587550  87.5288070  35.3472820
  32.9728570  87.6833150  36.1963240  31.6238550  87.6543290  35.5098600
  24.1481790  80.0280980  35.6628920  24.0538660  79.4101730  34.9379790
  23.5679180  80.7547270  35.4358830  27.3202780  87.4808550  33.3168750
  27.7390890  88.3241280  33.1444990  26.4011410  87.6180590  33.0875530
  24.3940970  83.1555290  19.7218810  24.1930030  82.2922650  20.0832150
  24.2233020  83.0688650  18.7840410  25.1710200  93.7861560  34.4326480
  24.6331290  94.5107620  34.1135180  25.4244160  93.3091900  33.6423820
  26.4235450  81.7546080  35.9582410  27.0135140  81.4461930  36.6460230
  25.6055690  81.2825830  36.1142310  31.8729280  77.9663520  22.2505690
  32.1531570  77.1231420  22.6065110  31.0995010  78.1986630  22.7644440
  23.1923770  80.2555910  19.7096690  23.4949670  80.2623340  18.8015840
  23.9318360  79.9053770  20.2064350  26.4108700  79.1990530  20.6952890
  26.0630700  78.5214520  20.1155340  26.6121470  78.7380040  21.5096280
  28.5757740  94.1871280  22.3139490  29.4708530  94.5256250  22.3358250
  28.6075370  93.4650690  21.6863770  22.2153900  89.5598330  20.5426490
  22.6528770  90.1028000  21.1984070  22.7001630  88.7345280  20.5522830
  19.4299700  92.3487360  27.9946750  19.7602710  91.4808420  27.7625390
  19.8590700  92.5545880  28.8251710  24.0261620  90.6796370  25.6548720
  23.7257160  90.5561340  26.5552630  23.9199110  89.8204960  25.2464450
  19.9189910  93.2157950  30.7328380  19.4820900  93.3958750  31.5652530
  20.4867590  93.9732570  30.5910100  36.7953540  90.4592770  20.3575400
  35.9646500  90.5269420  20.8282630  36.9725370  91.3496890  20.0542260
  36.2510000  87.2040250  22.8609600  37.0128910  87.7736900  22.9669290
  36.2664370  86.6367450  23.6317910  19.7514340  85.7278180  27.0917260
  19.0963180  85.4589820  26.4476960  20.5892290  85.6182660  26.6419240
  37.2569970  88.0590350  27.7051530  37.6278800  87.2757670  27.2987500
  37.8971900  88.7479450  27.5268830  36.3029170  87.4974620  20.0182120
  36.5778010  88.4053500  19.8901340  36.1139910  87.4337150  20.9544110
  32.7004780  80.5219470  21.3135750  33.1189660  80.3350450  20.4732410
  32.3940840  79.6698520  21.6238680  36.1994510  85.4343610  25.0111550
  35.8238110  84.6671540  24.5792840  35.4697630  85.8166310  25.4986480
  20.7890270  86.1130750  31.6320600  21.1563310  86.0258150  32.5116620
  20.2201090  85.3497300  31.5327460  20.3406270  83.0239840  35.5379020
  19.4462320  82.9906600  35.8772730  20.8803820  83.2226630  36.3030270
  18.9652420  82.9377110  23.0342590  18.0616500  83.2007310  22.8594250
  19.4493040  83.2088280  22.2542550  35.4745470  83.6601100  28.3118790
  35.9982950  83.1663750  27.6808960  36.0604890  83.7951460  29.0566360
  35.6535190  83.7440970  31.8338340  34.7037900  83.7104510  31.9483330
  35.8348200  84.6541080  31.5988110  21.5079630  81.9942650  20.9436970
  22.2171330  81.5725870  20.4584250  20.7919570  82.0617880  20.3120320
  21.1553790  78.0481980  19.9839620  21.8781920  78.5890920  20.3020840
  21.4278310  77.7745400  19.1081160  34.9645440  82.9174450  24.2511200
  35.4604560  82.6845320  25.0360080  34.7661510  82.0786290  23.8348840
  20.8445980  77.2988170  29.8862240  21.4922170  76.7485550  29.4457400
  21.2647820  77.5531320  30.7078050  36.3932600  81.5535400  26.7848880
  36.2831880  81.3991440  27.7231150  37.1540190  81.0256340  26.5424290
  37.2822870  79.3843320  20.0255020  38.2072180  79.2524500  19.8173310
  37.2598660  79.4636140  20.9791470  37.3561360  80.1553980  22.6511730
  36.5612860  80.0899100  23.1804640  37.5604640  81.0904620  22.6397080
  34.2979780  94.1945530  26.6450120  34.8938850  93.8730100  25.9684540
  34.5557930  93.7217350  27.4363390  20.5977980  77.4543840  32.6287560
  20.2492800  77.9107660  33.3945740  20.2665680  76.5600970  32.7109990
  22.2042350  90.6263440  36.7940750  22.1611980  90.2556350  37.6755210
  22.3353360  91.5641010  36.9342570  25.9048380  92.1823030  32.3950470
  25.6639740  92.4497590  31.5080990  26.8451020  92.3528760  32.4501330
  21.2698620  76.9820040  35.9038330  21.8181610  76.8008090  35.1404440
  21.3353930  76.1914150  36.4394640  22.0430380  93.5725690  33.9138530
  21.4490700  93.4410390  34.6528570  22.0354220  92.7363830  33.4480630
  21.6742610  90.9384070  32.8646570  20.9476670  90.3189360  32.7972520
  21.7351760  91.3324680  31.9944650  25.2787710  93.1529070  29.6495980
  25.7952730  92.5416430  29.1244240  25.9285090  93.6557850  30.1406990
  28.0183210  94.0437560  30.4764960  28.3061020  93.7891860  29.5997970
  28.5306430  93.4914920  31.0670530  33.7881290  78.4850860  29.1010560
  34.2289380  78.4295960  28.2532160  33.5188880  79.4008870  29.1720740
  35.6519860  78.1166100  27.1119380  35.5908260  77.1727320  26.9650400
  36.4311890  78.2246190  27.6572840  19.9572610  94.2558460  26.0743330
  19.7894650  93.6229140  26.7725220  19.0907120  94.4617860  25.7237520
  20.5800630  78.0875240  23.5775190  21.3379990  78.2004120  23.0039220
  20.1177800  78.9244440  23.5318620  27.1214440  80.2014510  26.5677500
  26.3088950  79.8271400  26.2273380  27.6256080  79.4459590  26.8698690
  31.6239420  76.8656960  27.8060570  32.2268790  77.4377170  28.2809090
  30.8832410  77.4296400  27.5834470  34.7674020  77.2678520  23.0800850
  34.9624650  78.1661970  23.3468280  33.9803890  77.0365600  23.5733800
  21.5635310  92.9491690  23.5193470  21.0382930  93.3299720  22.8155430
  21.4879890  93.5742460  24.2403180  22.9525780  78.6139290  22.1177160
  23.4818540  77.8269090  21.9885110  23.5854100  79.2930480  22.3512690
  25.1463620  78.3514430  25.1722550  24.5166360  77.6501740  25.3392680
  24.6068760  79.1118560  24.9555710  36.3200630  94.5079230  24.8407410
  36.4952820  93.8216970  24.1968330  35.6222200  95.0326280  24.4484080
  25.2719180  77.6298410  37.6075040  24.9903450  78.1332010  36.8435860
  25.6538880  76.8320160  37.2417170  24.1628280  94.8974070  22.3942720
  24.8947100  94.6133350  21.8466610  24.4221950  94.6587350  23.2842100
  23.3243070  91.0138800  22.3989050  22.6951950  91.4823900  22.9474880
  23.4390900  90.1688020  22.8335240  30.7792790  85.0644460   8.5490250
  30.6986840  84.1499070   8.2781960  30.3657210  85.5611530   7.8429960
  28.9110830  86.8423480  10.4299520  28.1352930  86.3623920  10.7198090
  29.5623760  86.1629130  10.2555680  22.9276660  87.1543290  11.3075280
  22.0961540  86.8992000  11.7071790  23.5357640  87.2254060  12.0433200
  32.9318260  91.2483670   9.2098650  32.4699790  90.4770910   9.5385820
  33.7443810  91.2749740   9.7151100  22.9077920  91.1883380  11.5033300
  23.2105960  90.2981120  11.3243520  23.6521510  91.7453600  11.2755550
  21.3368610  82.1145180   5.0917670  20.4485310  82.4561150   4.9897550
  21.6209800  81.9145500   4.1998500  19.3001620  84.7150830  10.9757370
  19.8717730  83.9473030  10.9761010  19.3003160  85.0139590  10.0663980
  29.1581570  93.5341680   8.8302640  28.5393010  93.9899180   8.2597080
  30.0133350  93.6893140   8.4292340  28.3519820  89.5180670  10.4369680
  28.2828100  88.5770610  10.2758810  29.1139680  89.6082080  11.0092250
  20.5426490  80.1235190  12.7626300  20.3629330  79.2260940  13.0429060
  20.1406570  80.6707060  13.4373250  29.3824990  82.3251050  10.6638610
  29.7589810  81.4522930  10.5512280  29.2844500  82.6609750   9.7729050
  23.5130000  80.6976680   6.1256050  23.6196750  81.5980410   6.4324810
  22.6022360  80.6494650   5.8350700  33.1649110  79.8201490   7.5966950
  33.9858730  79.3298060   7.6392430  33.1983190  80.4099150   8.3498790
  21.1613160  82.6195690  11.3708640  21.8423270  82.8834060  11.9896040
  20.8461210  81.7796560  11.7046650  25.3537730  83.6663050  10.4581230
  25.8615950  84.1644020  11.0986250  25.8850970  82.8898250  10.2820590
  37.4548660  81.8368240  14.1610580  36.7500830  82.2249950  13.6425690
  37.7206580  82.5318530  14.7631510  23.6373830  78.3061610  14.7244650
  23.6392270  78.8234000  13.9190550  22.8078140  77.8291790  14.7014580
  30.0244920  88.4180920   6.2234550  29.4062190  88.8830370   5.6597270
  30.5368170  89.1108400   6.6404060  24.8876680  87.9456790  12.9018150
  24.5546060  88.5725710  13.5439220  25.0643360  88.4718670  12.1219820
  33.4010590  81.7601870  10.3694490  32.6966160  82.0486760  10.9497600
  33.7622750  82.5701980  10.0094050  23.3189160  80.0171570  12.7315100
  23.6605970  80.8613620  12.4368970  22.3804970  80.1655310  12.8480440
  24.0995780  89.9137590  14.7167330  24.7169780  90.5888670  14.4351780
  23.2388900  90.3225570  14.6254830  19.3928120  89.1037450   3.5974180
  19.0156100  89.5924550   2.8659080  19.6501190  89.7762730   4.2280710
  35.0173370  91.3777000  12.6321970  34.3336890  92.0476110  12.6238640
  35.5567660  91.5757650  11.8666830  36.4697510  81.2056660  10.7603700
  35.5222420  81.2395640  10.8919130  36.7947500  82.0195610  11.1453060
  27.0017050  77.5053840   9.0559690  27.3092030  76.9500730   8.3395190
  26.0717750  77.6398300   8.8732680  32.5532110  93.2221130  11.3467150
  32.5659270  92.8183420  10.4789410  32.0007330  93.9968420  11.2428580
  33.8477530  89.9437350   6.4357320  33.7373860  89.0011680   6.5606740
  33.8445780  90.3052990   7.3220080  31.9517550  88.1250970  12.6749760
  32.3686340  87.9111080  11.8403220  32.6757370  88.3823760  13.2458380
  29.3897810  85.5702670   5.7919810  28.4627090  85.5040050   6.0208280
  29.5422630  86.5082800   5.6775050  29.3766890  81.8419670   2.7886970
  28.4370560  82.0033630   2.8739430  29.6950150  82.5605350   2.2422960
  35.8979650  86.5238190  12.7666000  35.0698280  86.5931280  12.2916130
  36.4930130  87.1092500  12.2981830  33.4195100  87.1322970   6.2955060
  32.8007520  86.7942520   5.6481360  33.4019550  86.4882730   7.0034250
  32.8621660  83.3107510  13.7120870  32.4492840  84.1361220  13.9660860
  32.1297610  82.7252550  13.5197230  24.9954450  86.0967410   8.5739540
  24.5911450  85.3844660   8.0785440  25.0817570  85.7520650   9.4627580
  25.4636150  89.7834970  10.7378750  25.1664440  89.1780440  10.0586530
  26.4135970  89.8212280  10.6268110  23.7083070  82.8710620  12.3538580
  24.2597660  82.9805960  11.5791830  24.2226580  83.2448220  13.0693810
  33.5521760  93.3566840  14.4001850  33.0752320  94.1639030  14.2074460
  32.8683550  92.7045170  14.5528060  24.5554580  89.5216660  17.3886550
  23.6583110  89.7456630  17.6359950  24.5807450  89.6451600  16.4397950
  31.5959800  86.3709780   3.3027810  32.0353080  85.5332210   3.1565630
  32.3088220  87.0039180   3.3891950  23.3825800  86.3929980  15.9643920
  23.2433570  87.2652780  16.3331320  22.5007160  86.0502790  15.8191860
  29.7055180  91.3105850   7.2709050  30.1451090  92.0530180   6.8564440
  29.6442070  91.5532420   8.1948010  25.1806150  92.3351680  18.1729070
  25.1521580  92.7394630  17.3057500  25.0171120  91.4062040  18.0100670
  21.6959080  84.9912390   6.0746190  21.5756680  85.7174480   5.4627460
  21.3859970  84.2215300   5.5974100  37.1320970  93.1178780  19.4693240
  37.6080690  93.5961670  20.1482320  37.7528130  93.0496270  18.7438740
  19.3344450  88.1627530  11.8814830  19.4124870  88.2976300  10.9370550
  19.9486130  87.4543420  12.0742950  20.5792080  89.8627720   8.2921010
  20.1720160  90.0042310   7.4374610  21.4705090  89.5787880   8.0892220
  36.5354220  90.3091630  16.6293250  36.6617280  90.0703510  15.7110430
  36.5775600  89.4776170  17.1015330  30.3970960  94.0119630  15.1988060
  30.9115630  93.9227640  16.0010490  29.5540040  94.3579330  15.4915970
  32.3725360  94.2974970   4.6272060  32.2126500  94.0077910   5.5253890
  32.2072070  93.5215100   4.0917290  24.8513740  94.0773500   6.4043680
  24.6756220  93.1609040   6.1911480  23.9969480  94.4360790   6.6441480
  32.0751490  91.8062530   3.1870060  31.3816650  91.8039820   2.5272340
  32.8174350  91.3821850   2.7564230  31.6401420  93.4325240   7.2618550
  32.0958370  92.6514620   7.5757170  31.9793940  94.1432060   7.8059730
  36.3878230  82.3624090  17.5942990  35.7722500  82.8703760  17.0658450
  36.0674650  81.4622420  17.5368930  19.3903970  89.2041700  14.4209290
  19.5535010  88.7347060  13.6028660  19.8556420  88.6965260  15.0858130
  24.1622740  78.3347460   9.4569860  23.7190890  79.1157000   9.1254380
  24.7207730  78.6577350  10.1640800  28.4492550  81.2015980  15.0605180
  27.9871920  81.4099000  15.8725120  28.0470660  80.3875330  14.7575850
  33.4497060  82.4224930  16.1901840  32.5990650  82.1230680  16.5110910
  33.2898850  82.6666940  15.2785660  30.5446770  83.9226680  18.2900630
  30.8700180  83.0890430  17.9502860  31.3327100  84.4455200  18.4378960
  27.2781560  77.9558160   4.3375690  26.6535740  77.9518030   5.0629000
  27.1911680  77.0889120   3.9411660  26.1998640  78.8794790  11.3159460
  26.4970970  79.7857620  11.2351480  26.7484200  78.3913570  10.7019030
  23.9536960  83.4581030   7.1851110  23.7277880  83.2418200   8.0897730
  23.1729490  83.8909490   6.8397080  31.1834720  83.4644400   5.7841760
  30.5843610  84.1880200   5.6005380  31.7314330  83.4021180   5.0018210
  26.3936170  84.3566610  17.8511380  26.2979770  83.4161340  17.7011780
  27.2368150  84.5781680  17.4559450  29.7899590  82.1007940   7.8145040
  30.1829160  82.4180140   7.0013730  30.1516440  81.2219820   7.9289560
  21.5246710  80.7680280  16.0045160  21.1310100  81.6155490  16.2117940
  20.8365110  80.1306650  16.1953800  28.0991760  80.8515250  19.0741900
  27.4090080  80.6587450  19.7087990  28.8424060  81.1349890  19.6066200
  18.8263760  78.6908740  10.0375240  18.5376810  79.2611600  10.7500220
  19.5709520  78.2113190  10.4006470  30.3754730  84.6913690  11.9095820
  29.6435850  85.2000500  12.2585920  29.9779070  83.8743670  11.6084600
  26.8132120  81.3667890  10.3148310  26.8168180  80.9257840   9.4652850
  27.7083240  81.6885220  10.4220130  22.6634500  81.2494380   9.2742520
  22.3234550  81.7269610  10.0309570  21.9011820  80.7959500   8.9143620
  26.8752270  82.3679970   3.3055070  26.9965090  82.3266450   4.2540890
  26.4900780  83.2304120   3.1501800  30.8380640  80.1447370  11.3218760
  30.8553380  80.5956020  12.1660610  30.5896220  79.2453010  11.5352200
  25.8873770  84.6781110   2.7038370  25.3190670  84.2299360   2.0774280
  26.5962770  85.0373890   2.1703520  34.2651390  77.5579550  17.1605140
  34.5897160  76.8269210  17.6863120  34.3007900  77.2393190  16.2586130
  20.9642950  88.5793130  16.5805100  20.5797740  87.9386800  17.1788060
  21.2755140  89.2829250  17.1499830  27.1140090  85.4269670  12.0613720
  27.4810220  84.9528240  12.8075060  26.9245150  86.3011240  12.4022060
  19.9780580  80.1713360   8.1907190  19.6927500  79.8069030   9.0285810
  19.9159440  79.4393820   7.5770330  24.9039460  84.4678310  14.3797930
  24.5996530  85.3470290  14.6048290  25.8585920  84.5278100  14.4155370
  23.4321250  88.6739300   4.9764780  22.6583510  88.1336920   4.8163500
  24.1615880  88.1545910   4.6382540  34.1909230  87.6704660  10.7691170
  34.9108350  88.1659950  10.3787280  33.9891050  86.9922550  10.1245040
  29.6519170  79.0642620   4.9120560  28.8383780  78.5655790   4.8365870
  29.4581120  79.9040870   4.4956910  29.5728030  87.7413720  16.6560170
  29.5065340  86.8209390  16.4017760  28.9433170  87.8389160  17.3704810
  32.3667560  83.4362270   3.2082720  33.2547180  83.7479500   3.0334060
  32.3372650  82.5634520   2.8163300  23.4758650  88.3419680   8.6143590
  23.9937320  87.5387940   8.5600480  23.0242670  88.2798820   9.4560420
  28.3628150  89.6085960   3.8870890  28.7043850  90.3528190   3.3914210
  27.5340860  89.9217080   4.2495720  20.9603190  85.3081050  15.5269290
  20.6018130  85.9734900  16.1142630  20.6657750  84.4764600  15.8981910
  24.1616310  85.7665290  18.4108840  23.8616450  85.9122470  17.5136660
  24.9327550  85.2070580  18.3182230  29.5044760  90.5634290  16.4063970
  29.5189300  89.6315250  16.1882880  28.7969860  90.6494050  17.0453740
  34.6381830  84.7474110   2.6762580  34.5545550  85.1788330   1.8259020
  35.3576020  85.2072460   3.1089400  35.7155970  87.2041630  15.7532550
  34.9904160  87.7970410  15.5561940  36.2431430  87.1965170  14.9545920
  35.6669080  91.6016370   5.4044710  35.0245240  90.9471990   5.6788430
  35.2799740  92.0071460   4.6285380  31.2455560  88.9301800   9.2516400
  31.5979380  88.3329930   8.5917770  30.3617890  88.6046030   9.4224650
  27.3318840  89.6899490   6.6586810  28.0189970  90.2368700   7.0394400
  26.5451260  90.2340220   6.6936420  19.4711240  85.3072310   2.1503890
  20.3406090  85.5897110   2.4339810  18.9801560  86.1208180   2.0352700
  26.6346050  86.6945520   6.2712170  27.0908830  87.5050770   6.4972360
  26.2834260  86.3768660   7.1030660  28.9378660  92.2051860  13.5004470
  29.5820880  92.4111240  14.1777890  29.3008100  91.4440260  13.0475320
  22.5357830  77.0383170   6.7434690  22.4072460  77.0301070   7.6919610
  21.7119850  77.3766260   6.3925700  30.2110740  90.2084210  12.2181920
  30.8532970  89.5077370  12.3314090  30.7360090  90.9882650  12.0378810
  31.9848360  91.0079110  15.4217980  32.3204600  91.5945800  16.0995900
  31.0648700  90.8771820  15.6515770  19.8382490  94.5199690   2.7165520
  20.1980130  95.1189030   2.0622790  19.6974830  95.0659580   3.4900550
  19.5351760  78.7974290  16.2041390  18.8210280  78.9971210  16.8094000
  19.9546800  78.0213860  16.5756190  33.6382710  88.4104770   3.6035220
  33.3504410  88.8717460   4.3913100  34.4334880  87.9502540   3.8719440
  19.8224350  92.7854550  17.1907920  19.9315470  91.8449290  17.0503310
  19.1704910  93.0509300  16.5421650  27.8136940  91.0570440  18.5906040
  27.4933810  90.3379680  19.1351730  27.1395300  91.7325510  18.6642100
  25.8551110  91.9030890   3.5339190  25.8461210  92.6360580   2.9183700
  24.9349470  91.6562470   3.6266150  21.4557750  87.1245780   4.2785950
  20.8485700  87.8644680   4.2881250  21.9307100  87.2145140   3.4524150
  31.0290540  81.2896600  13.9542840  31.3971360  80.4691810  14.2822410
  30.1688740  81.3498490  14.3698490  34.3952570  80.2453540   4.7630400
  33.7665730  80.3499210   4.0488630  33.9004490  80.4650320   5.5524280
  26.3636600  82.5239490   6.1788280  25.6552750  82.9925830   6.6201890
  26.6481080  81.8661500   6.8133470  27.9892530  83.9436190  14.1780810
  28.4877780  84.4182010  14.8432660  28.1315480  83.0199710  14.3850840
  30.3952030  79.2490150   7.6184070  30.2719810  79.2676280   6.6693580
  31.3436590  79.2969090   7.7382470  27.4828820  94.4845450   6.8912050
  27.7370320  94.4466840   5.9691420  26.5341300  94.3578780   6.8840300
  24.5671620  80.8324570   3.5538990  25.4162150  81.2694720   3.4879180
  24.2002890  81.1444830   4.3811050  35.1959390  80.1604150  15.0209200
  34.6932990  80.9009550  15.3603010  36.0116050  80.5488150  14.7045990
  33.4881400  85.4037330   8.4670560  32.5471540  85.4187560   8.6418250
  33.8025470  84.6173290   8.9130860  22.1609800  84.5182000   2.7107410
  22.2413390  83.5709510   2.8224810  23.0529550  84.8488880   2.8168070
  35.4906980  92.5746180  10.1424820  35.6154400  93.3977350  10.6148630
  36.3572540  92.3636910   9.7948970  22.9624510  94.6677390   9.8141950
  23.6986990  94.1192850  10.0850520  23.3465430  95.5333400   9.6747940
  19.8469990  90.7350960   5.6883460  18.9209770  90.9772100   5.6788870
  20.3126420  91.5625220   5.5668210  21.9682790  93.8523460  19.0027530
  22.7695520  94.1735510  19.4162930  21.4534610  93.4919040  19.7247440
  30.8047420  89.9603330  18.9502940  30.1985580  89.9834930  18.2098690
  30.5001530  89.2286370  19.4870190  32.2347790  93.6883620  17.5612350
  33.1869540  93.6041640  17.5112590  32.0876010  94.3525330  18.2346140
  35.1256990  93.0677830   3.0604260  34.8398500  92.6542970   2.2458440
  34.9276540  93.9965540   2.9404780  19.6880600  86.3396920  17.9463580
  20.1919620  85.7604200  18.5179810  18.9488020  86.6237150  18.4839950
  26.7418540  87.7467910  17.4799100  25.9764210  88.3152910  17.3953770
  26.9234500  87.4544120  16.5867330  29.8306950  88.1231140   2.1051860
  29.2817050  88.5700440   2.7494600  30.4526210  87.6180390   2.6289530
  33.8841890  89.4773240  18.0374120  34.6251360  89.8149000  17.5341580
  33.1214570  89.6465300  17.4843890  21.7203680  84.4826510  18.8413650
  21.7609020  84.1840380  19.7498880  22.5749180  84.8834120  18.6821170
  25.4982070  87.0822060   4.0017160  25.9198490  86.9161930   4.8448550
  25.6232910  86.2722290   3.5072300  23.6609490  83.0618610  16.8088140
  23.1305950  82.5709560  16.1811480  24.3297560  83.4902810  16.2746070
  32.5587550  87.5288070  16.5729330  32.9728570  87.6833150  17.4219750
  31.6238550  87.6543290  16.7355110  33.0309720  84.8684230  18.5768480
  33.6130490  84.1136550  18.4888960  33.2071490  85.3991670  17.7999960
  24.1481790  80.0280980  16.8885430  24.0538660  79.4101730  16.1636300
  23.5679180  80.7547270  16.6615340  26.9143230  78.5854220  13.9212820
  26.4660530  78.6078480  13.0758370  26.2808430  78.1873240  14.5183120
  27.3202780  87.4808550  14.5425260  27.7390890  88.3241280  14.3701500
  26.4011410  87.6180590  14.3132040  29.6566680  85.2124730  15.9263100
  29.7762890  84.6165870  16.6657940  30.5160680  85.2494420  15.5064400
  31.9954580  85.7661920  14.5025610  31.4689800  86.2904540  13.8990750
  32.3385920  86.3989310  15.1335340  25.1710200  93.7861560  15.6582990
  24.6331290  94.5107620  15.3391690  25.4244160  93.3091900  14.8680330
  26.4235450  81.7546080  17.1838920  27.0135140  81.4461930  17.8716740
  25.6055690  81.2825830  17.3398820  31.2428880  81.3711890  17.4171940
  30.5544400  80.7093430  17.3521930  31.9634900  80.9250160  17.8620400
  31.8729280  77.9663520   3.4762200  32.1531570  77.1231420   3.8321620
  31.0995010  78.1986630   3.9900950  28.0272410  95.0212770  15.9169640
  27.9531110  95.9247910  16.2242010  27.1251250  94.7024670  15.8891710
  28.5757740  94.1871280   3.5396000  29.4708530  94.5256250   3.5614760
  28.6075370  93.4650690   2.9120280  22.2153900  89.5598330   1.7683000
  22.6528770  90.1028000   2.4240580  22.7001630  88.7345280   1.7779340
  19.4299700  92.3487360   9.2203260  19.7602710  91.4808420   8.9881900
  19.8590700  92.5545880  10.0508220  24.0261620  90.6796370   6.8805230
  23.7257160  90.5561340   7.7809140  23.9199110  89.8204960   6.4720960
  19.9189910  93.2157950  11.9584890  19.4820900  93.3958750  12.7909040
  20.4867590  93.9732570  11.8166610  35.5552090  92.7174950  16.2462200
  34.9554080  92.7767510  15.5026120  35.6845990  91.7779930  16.3759050
  36.2510000  87.2040250   4.0866110  37.0128910  87.7736900   4.1925800
  36.2664370  86.6367450   4.8574420  19.7514340  85.7278180   8.3173770
  19.0963180  85.4589820   7.6733470  20.5892290  85.6182660   7.8675750
  37.2569970  88.0590350   8.9308040  37.6278800  87.2757670   8.5244010
  37.8971900  88.7479450   8.7525340  34.2403730  89.4426930  14.3438360
  33.4263570  89.8724090  14.6064150  34.6477930  90.0545340  13.7307410
  32.7004780  80.5219470   2.5392260  33.1189660  80.3350450   1.6988920
  32.3940840  79.6698520   2.8495190  36.1994510  85.4343610   6.2368060
  35.8238110  84.6671540   5.8049350  35.4697630  85.8166310   6.7242990
  20.7890270  86.1130750  12.8577110  21.1563310  86.0258150  13.7373130
  20.2201090  85.3497300  12.7583970  35.5894130  84.5815130  15.8707580
  35.3580220  84.3527880  14.9705530  35.8498680  85.5014680  15.8252470
  20.3406270  83.0239840  16.7635530  19.4462320  82.9906600  17.1029240
  20.8803820  83.2226630  17.5286780  34.0282200  79.8071560  18.6487280
  34.9052380  79.8154960  19.0321280  34.0403040  79.0702400  18.0379630
  18.9652420  82.9377110   4.2599100  18.0616500  83.2007310   4.0850760
  19.4493040  83.2088280   3.4799060  35.4745470  83.6601100   9.5375300
  35.9982950  83.1663750   8.9065470  36.0604890  83.7951460  10.2822870
  35.6535190  83.7440970  13.0594850  34.7037900  83.7104510  13.1739840
  35.8348200  84.6541080  12.8244620  34.9645440  82.9174450   5.4767710
  35.4604560  82.6845320   6.2616590  34.7661510  82.0786290   5.0605350
  20.8445980  77.2988170  11.1118750  21.4922170  76.7485550  10.6713910
  21.2647820  77.5531320  11.9334560  36.3932600  81.5535400   8.0105390
  36.2831880  81.3991440   8.9487660  37.1540190  81.0256340   7.7680800
  34.7398320  77.4929530  14.4688390  35.3770540  78.1063670  14.8347580
  34.8873210  77.5290190  13.5237620  37.3561360  80.1553980   3.8768240
  36.5612860  80.0899100   4.4061150  37.5604640  81.0904620   3.8653590
  34.2979780  94.1945530   7.8706630  34.8938850  93.8730100   7.1941050
  34.5557930  93.7217350   8.6619900  20.5977980  77.4543840  13.8544070
  20.2492800  77.9107660  14.6202250  20.2665680  76.5600970  13.9366500
  22.2042350  90.6263440  18.0197260  22.1611980  90.2556350  18.9011720
  22.3353360  91.5641010  18.1599080  25.9048380  92.1823030  13.6206980
  25.6639740  92.4497590  12.7337500  26.8451020  92.3528760  13.6757840
  28.1102800  78.6455720  17.3763490  28.0491690  79.2377550  18.1258900
  29.0503180  78.5381680  17.2313750  30.7477360  78.3025780  17.0155780
  31.3617770  78.6205070  16.3536860  31.2926920  77.8174370  17.6351640
  37.1652540  94.2017410  14.4217620  36.6710820  94.5986280  13.7044750
  36.5565830  93.5766620  14.8154900  21.2698620  76.9820040  17.1294840
  21.8181610  76.8008090  16.3660950  21.3353930  76.1914150  17.6651150
  22.0430380  93.5725690  15.1395040  21.4490700  93.4410390  15.8785080
  22.0354220  92.7363830  14.6737140  31.4885400  76.8657920  13.3425070
  30.6145240  77.1993030  13.1398000  31.3796150  76.3931100  14.1676940
  32.3957380  79.0728790  14.7266790  32.0670740  78.2580550  14.3468520
  33.3439680  79.0298600  14.6032480  34.8491990  94.8440830  11.7004360
  34.3894960  95.5956640  11.3262380  34.2204450  94.1247300  11.6419160
  21.6742610  90.9384070  14.0903080  20.9476670  90.3189360  14.0229030
  21.7351760  91.3324680  13.2201160  25.2787710  93.1529070  10.8752490
  25.7952730  92.5416430  10.3500750  25.9285090  93.6557850  11.3663500
  28.0183210  94.0437560  11.7021470  28.3061020  93.7891860  10.8254480
  28.5306430  93.4914920  12.2927040  29.2360220  77.7827760  12.2817980
  28.4532010  78.2573260  12.5614740  28.9423150  76.8782590  12.1731160
  33.7881290  78.4850860  10.3267070  34.2289380  78.4295960   9.4788670
  33.5188880  79.4008870  10.3977250  35.6519860  78.1166100   8.3375890
  35.5908260  77.1727320   8.1906910  36.4311890  78.2246190   8.8829350
  19.9572610  94.2558460   7.2999840  19.7894650  93.6229140   7.9981730
  19.0907120  94.4617860   6.9494030  20.5800630  78.0875240   4.8031700
  21.3379990  78.2004120   4.2295730  20.1177800  78.9244440   4.7575130
  27.1214440  80.2014510   7.7934010  26.3088950  79.8271400   7.4529890
  27.6256080  79.4459590   8.0955200  31.6239420  76.8656960   9.0317080
  32.2268790  77.4377170   9.5065600  30.8832410  77.4296400   8.8090980
  34.7674020  77.2678520   4.3057360  34.9624650  78.1661970   4.5724790
  33.9803890  77.0365600   4.7990310  21.5635310  92.9491690   4.7449980
  21.0382930  93.3299720   4.0411940  21.4879890  93.5742460   5.4659690
  22.9525780  78.6139290   3.3433670  23.4818540  77.8269090   3.2141620
  23.5854100  79.2930480   3.5769200  25.1463620  78.3514430   6.3979060
  24.5166360  77.6501740   6.5649190  24.6068760  79.1118560   6.1812220
  28.0855570  94.9653660  19.0689670  29.0122880  94.7297930  19.1125630
  28.0706000  95.7925660  18.5875700  36.3200630  94.5079230   6.0663920
  36.4952820  93.8216970   5.4224840  35.6222200  95.0326280   5.6740590
  25.2719180  77.6298410  18.8331550  24.9903450  78.1332010  18.0692370
  25.6538880  76.8320160  18.4673680  24.1628280  94.8974070   3.6199230
  24.8947100  94.6133350   3.0723120  24.4221950  94.6587350   4.5098610
  23.3243070  91.0138800   3.6245560  22.6951950  91.4823900   4.1731390
  23.4390900  90.1688020   4.0591750  31.8734640  77.0451990  19.4112020
  31.7600090  77.3646600  20.3063540  32.6904380  77.4464500  19.1149300
  34.6533130  94.1923520  18.8930710  35.4458450  93.6972750  18.6856670
  34.9466280  94.8713660  19.5006320  30.7792790  66.2900970 139.9694680
  30.6986840  65.3755580 139.6986390  30.3657210  66.7868040 139.2634390
  28.9110830  68.0679990 141.8503950  28.1352930  67.5880430 142.1402520
  29.5623760  67.3885640 141.6760110  22.9276660  68.3799800 142.7279710
  22.0961540  68.1248510 143.1276220  23.5357640  68.4510570 143.4637630
  32.9318260  72.4740180 140.6303080  32.4699790  71.7027420 140.9590250
  33.7443810  72.5006250 141.1355530  22.9077920  72.4139890 142.9237730
  23.2105960  71.5237630 142.7447950  23.6521510  72.9710110 142.6959980
  21.3368610  63.3401690 136.5122100  20.4485310  63.6817660 136.4101980
  21.6209800  63.1402010 135.6202930  19.3001620  65.9407340 142.3961800
  19.8717730  65.1729540 142.3965440  19.3003160  66.2396100 141.4868410
  29.1581570  74.7598190 140.2507070  28.5393010  75.2155690 139.6801510
  30.0133350  74.9149650 139.8496770  28.3519820  70.7437180 141.8574110
  28.2828100  69.8027120 141.6963240  29.1139680  70.8338590 142.4296680
  20.5426490  61.3491700 144.1830730  20.3629330  60.4517450 144.4633490
  20.1406570  61.8963570 144.8577680  29.3824990  63.5507560 142.0843040
  29.7589810  62.6779440 141.9716710  29.2844500  63.8866260 141.1933480
  23.5130000  61.9233190 137.5460480  23.6196750  62.8236920 137.8529240
  22.6022360  61.8751160 137.2555130  33.1649110  61.0458000 139.0171380
  33.9858730  60.5554570 139.0596860  33.1983190  61.6355660 139.7703220
  21.1613160  63.8452200 142.7913070  21.8423270  64.1090570 143.4100470
  20.8461210  63.0053070 143.1251080  25.3537730  64.8919560 141.8785660
  25.8615950  65.3900530 142.5190680  25.8850970  64.1154760 141.7025020
  37.4548660  63.0624750 145.5815010  36.7500830  63.4506460 145.0630120
  37.7206580  63.7575040 146.1835940  23.6373830  59.5318120 146.1449080
  23.6392270  60.0490510 145.3394980  22.8078140  59.0548300 146.1219010
  30.0244920  69.6437430 137.6438980  29.4062190  70.1086880 137.0801700
  30.5368170  70.3364910 138.0608490  24.8876680  69.1713300 144.3222580
  24.5546060  69.7982220 144.9643650  25.0643360  69.6975180 143.5424250
  33.4010590  62.9858380 141.7898920  32.6966160  63.2743270 142.3702030
  33.7622750  63.7958490 141.4298480  23.3189160  61.2428080 144.1519530
  23.6605970  62.0870130 143.8573400  22.3804970  61.3911820 144.2684870
  24.0995780  71.1394100 146.1371760  24.7169780  71.8145180 145.8556210
  23.2388900  71.5482080 146.0459260  19.3928120  70.3293960 135.0178610
  19.0156100  70.8181060 134.2863510  19.6501190  71.0019240 135.6485140
  35.0173370  72.6033510 144.0526400  34.3336890  73.2732620 144.0443070
  35.5567660  72.8014160 143.2871260  36.4697510  62.4313170 142.1808130
  35.5222420  62.4652150 142.3123560  36.7947500  63.2452120 142.5657490
  27.0017050  58.7310350 140.4764120  27.3092030  58.1757240 139.7599620
  26.0717750  58.8654810 140.2937110  32.5532110  74.4477640 142.7671580
  32.5659270  74.0439930 141.8993840  32.0007330  75.2224930 142.6633010
  33.8477530  71.1693860 137.8561750  33.7373860  70.2268190 137.9811170
  33.8445780  71.5309500 138.7424510  31.9517550  69.3507480 144.0954190
  32.3686340  69.1367590 143.2607650  32.6757370  69.6080270 144.6662810
  29.3897810  66.7959180 137.2124240  28.4627090  66.7296560 137.4412710
  29.5422630  67.7339310 137.0979480  29.3766890  63.0676180 134.2091400
  28.4370560  63.2290140 134.2943860  29.6950150  63.7861860 133.6627390
  35.8979650  67.7494700 144.1870430  35.0698280  67.8187790 143.7120560
  36.4930130  68.3349010 143.7186260  33.4195100  68.3579480 137.7159490
  32.8007520  68.0199030 137.0685790  33.4019550  67.7139240 138.4238680
  32.8621660  64.5364020 145.1325300  32.4492840  65.3617730 145.3865290
  32.1297610  63.9509060 144.9401660  24.9954450  67.3223920 139.9943970
  24.5911450  66.6101170 139.4989870  25.0817570  66.9777160 140.8832010
  25.4636150  71.0091480 142.1583180  25.1664440  70.4036950 141.4790960
  26.4135970  71.0468790 142.0472540  23.7083070  64.0967130 143.7743010
  24.2597660  64.2062470 142.9996260  24.2226580  64.4704730 144.4898240
  33.5521760  74.5823350 145.8206280  33.0752320  75.3895540 145.6278890
  32.8683550  73.9301680 145.9732490  24.5554580  70.7473170 148.8090980
  23.6583110  70.9713140 149.0564380  24.5807450  70.8708110 147.8602380
  31.5959800  67.5966290 134.7232240  32.0353080  66.7588720 134.5770060
  32.3088220  68.2295690 134.8096380  23.3825800  67.6186490 147.3848350
  23.2433570  68.4909290 147.7535750  22.5007160  67.2759300 147.2396290
  29.7055180  72.5362360 138.6913480  30.1451090  73.2786690 138.2768870
  29.6442070  72.7788930 139.6152440  25.1806150  73.5608190 149.5933500
  25.1521580  73.9651140 148.7261930  25.0171120  72.6318550 149.4305100
  35.1776940  58.8509100 133.0373280  34.8649600  58.9435930 133.9372350
  35.9389410  59.4290130 132.9870710  21.6959080  66.2168900 137.4950620
  21.5756680  66.9430990 136.8831890  21.3859970  65.4471810 137.0178530
  19.3344450  69.3884040 143.3019260  19.4124870  69.5232810 142.3574980
  19.9486130  68.6799930 143.4947380  20.5792080  71.0884230 139.7125440
  20.1720160  71.2298820 138.8579040  21.4705090  70.8044390 139.5096650
  36.5354220  71.5348140 148.0497680  36.6617280  71.2960020 147.1314860
  36.5775600  70.7032680 148.5219760  30.3970960  75.2376140 146.6192490
  30.9115630  75.1484150 147.4214920  29.5540040  75.5835840 146.9120400
  32.3725360  75.5231480 136.0476490  32.2126500  75.2334420 136.9458320
  32.2072070  74.7471610 135.5121720  24.8513740  75.3030010 137.8248110
  24.6756220  74.3865550 137.6115910  23.9969480  75.6617300 138.0645910
  32.0751490  73.0319040 134.6074490  31.3816650  73.0296330 133.9476770
  32.8174350  72.6078360 134.1768660  31.6401420  74.6581750 138.6822980
  32.0958370  73.8771130 138.9961600  31.9793940  75.3688570 139.2264160
  36.3878230  63.5880600 149.0147420  35.7722500  64.0960270 148.4862880
  36.0674650  62.6878930 148.9573360  19.3903970  70.4298210 145.8413720
  19.5535010  69.9603570 145.0233090  19.8556420  69.9221770 146.5062560
  24.1622740  59.5603970 140.8774290  23.7190890  60.3413510 140.5458810
  24.7207730  59.8833860 141.5845230  28.4492550  62.4272490 146.4809610
  27.9871920  62.6355510 147.2929550  28.0470660  61.6131840 146.1780280
  33.4497060  63.6481440 147.6106270  32.5990650  63.3487190 147.9315340
  33.2898850  63.8923450 146.6990090  30.5446770  65.1483190 149.7105060
  30.8700180  64.3146940 149.3707290  31.3327100  65.6711710 149.8583390
  27.2781560  59.1814670 135.7580120  26.6535740  59.1774540 136.4833430
  27.1911680  58.3145630 135.3616090  26.1998640  60.1051300 142.7363890
  26.4970970  61.0114130 142.6555910  26.7484200  59.6170080 142.1223460
  23.9536960  64.6837540 138.6055540  23.7277880  64.4674710 139.5102160
  23.1729490  65.1166000 138.2601510  31.1834720  64.6900910 137.2046190
  30.5843610  65.4136710 137.0209810  31.7314330  64.6277690 136.4222640
  26.3936170  65.5823120 149.2715810  26.2979770  64.6417850 149.1216210
  27.2368150  65.8038190 148.8763880  29.7899590  63.3264450 139.2349470
  30.1829160  63.6436650 138.4218160  30.1516440  62.4476330 139.3493990
  21.5246710  61.9936790 147.4249590  21.1310100  62.8412000 147.6322370
  20.8365110  61.3563160 147.6158230  18.8263760  59.9165250 141.4579670
  18.5376810  60.4868110 142.1704650  19.5709520  59.4369700 141.8210900
  19.0133990  63.8585370 132.6682390  18.9308660  64.8016130 132.8097380
  18.6617050  63.7160280 131.7894740  30.3754730  65.9170200 143.3300250
  29.6435850  66.4257010 143.6790350  29.9779070  65.1000180 143.0289030
  26.8132120  62.5924400 141.7352740  26.8168180  62.1514350 140.8857280
  27.7083240  62.9141730 141.8424560  22.6634500  62.4750890 140.6946950
  22.3234550  62.9526120 141.4514000  21.9011820  62.0216010 140.3348050
  26.8752270  63.5936480 134.7259500  26.9965090  63.5522960 135.6745320
  26.4900780  64.4560630 134.5706230  30.8380640  61.3703880 142.7423190
  30.8553380  61.8212530 143.5865040  30.5896220  60.4709520 142.9556630
  25.8873770  65.9037620 134.1242800  25.3190670  65.4555870 133.4978710
  26.5962770  66.2630400 133.5907950  34.2651390  58.7836060 148.5809570
  34.5897160  58.0525720 149.1067550  34.3007900  58.4649700 147.6790560
  20.9642950  69.8049640 148.0009530  20.5797740  69.1643310 148.5992490
  21.2755140  70.5085760 148.5704260  27.1140090  66.6526180 143.4818150
  27.4810220  66.1784750 144.2279490  26.9245150  67.5267750 143.8226490
  19.9780580  61.3969870 139.6111620  19.6927500  61.0325540 140.4490240
  19.9159440  60.6650330 138.9974760  24.9039460  65.6934820 145.8002360
  24.5996530  66.5726800 146.0252720  25.8585920  65.7534610 145.8359800
  23.4321250  69.8995810 136.3969210  22.6583510  69.3593430 136.2367930
  24.1615880  69.3802420 136.0586970  34.1909230  68.8961170 142.1895600
  34.9108350  69.3916460 141.7991710  33.9891050  68.2179060 141.5449470
  29.6519170  60.2899130 136.3324990  28.8383780  59.7912300 136.2570300
  29.4581120  61.1297380 135.9161340  29.5728030  68.9670230 148.0764600
  29.5065340  68.0465900 147.8222190  28.9433170  69.0645670 148.7909240
  32.3667560  64.6618780 134.6287150  33.2547180  64.9736010 134.4538490
  32.3372650  63.7891030 134.2367730  23.4758650  69.5676190 140.0348020
  23.9937320  68.7644450 139.9804910  23.0242670  69.5055330 140.8764850
  28.3628150  70.8342470 135.3075320  28.7043850  71.5784700 134.8118640
  27.5340860  71.1473590 135.6700150  20.9603190  66.5337560 146.9473720
  20.6018130  67.1991410 147.5347060  20.6657750  65.7021110 147.3186340
  24.1616310  66.9921800 149.8313270  23.8616450  67.1378980 148.9341090
  24.9327550  66.4327090 149.7386660  29.5044760  71.7890800 147.8268400
  29.5189300  70.8571760 147.6087310  28.7969860  71.8750560 148.4658170
  34.6381830  65.9730620 134.0967010  34.5545550  66.4044840 133.2463450
  35.3576020  66.4328970 134.5293830  35.7155970  68.4298140 147.1736980
  34.9904160  69.0226920 146.9766370  36.2431430  68.4221680 146.3750350
  35.6669080  72.8272880 136.8249140  35.0245240  72.1728500 137.0992860
  35.2799740  73.2327970 136.0489810  31.2455560  70.1558310 140.6720830
  31.5979380  69.5586440 140.0122200  30.3617890  69.8302540 140.8429080
  27.3318840  70.9156000 138.0791240  28.0189970  71.4625210 138.4598830
  26.5451260  71.4596730 138.1140850  19.4711240  66.5328820 133.5708320
  20.3406090  66.8153620 133.8544240  18.9801560  67.3464690 133.4557130
  26.6346050  67.9202030 137.6916600  27.0908830  68.7307280 137.9176790
  26.2834260  67.6025170 138.5235090  28.9378660  73.4308370 144.9208900
  29.5820880  73.6367750 145.5982320  29.3008100  72.6696770 144.4679750
  22.5357830  58.2639680 138.1639120  22.4072460  58.2557580 139.1124040
  21.7119850  58.6022770 137.8130130  30.2110740  71.4340720 143.6386350
  30.8532970  70.7333880 143.7518520  30.7360090  72.2139160 143.4583240
  34.0566460  71.7189340 133.3625490  33.8304040  71.0019780 133.9550130
  33.6662660  71.4701780 132.5247240  31.9848360  72.2335620 146.8422410
  32.3204600  72.8202310 147.5200330  31.0648700  72.1028330 147.0720200
  19.8382490  75.7456200 134.1369950  20.1980130  76.3445540 133.4827220
  19.6974830  76.2916090 134.9104980  19.5351760  60.0230800 147.6245820
  18.8210280  60.2227720 148.2298430  19.9546800  59.2470370 147.9960620
  33.6382710  69.6361280 135.0239650  33.3504410  70.0973970 135.8117530
  34.4334880  69.1759050 135.2923870  19.8224350  74.0111060 148.6112350
  19.9315470  73.0705800 148.4707740  19.1704910  74.2765810 147.9626080
  25.8551110  73.1287400 134.9543620  25.8461210  73.8617090 134.3388130
  24.9349470  72.8818980 135.0470580  21.4557750  68.3502290 135.6990380
  20.8485700  69.0901190 135.7085680  21.9307100  68.4401650 134.8728580
  31.0290540  62.5153110 145.3747270  31.3971360  61.6948320 145.7026840
  30.1688740  62.5755000 145.7902920  34.3952570  61.4710050 136.1834830
  33.7665730  61.5755720 135.4693060  33.9004490  61.6906830 136.9728710
  28.8410710  73.1915640 133.6168810  28.9422690  72.9879630 132.6870790
  27.9412450  72.9373920 133.8216590  26.3636600  63.7496000 137.5992710
  25.6552750  64.2182340 138.0406320  26.6481080  63.0918010 138.2337900
  27.9892530  65.1692700 145.5985240  28.4877780  65.6438520 146.2637090
  28.1315480  64.2456220 145.8055270  30.3952030  60.4746660 139.0388500
  30.2719810  60.4932790 138.0898010  31.3436590  60.5225600 139.1586900
  27.4828820  75.7101960 138.3116480  27.7370320  75.6723350 137.3895850
  26.5341300  75.5835290 138.3044730  24.5671620  62.0581080 134.9743420
  25.4162150  62.4951230 134.9083610  24.2002890  62.3701340 135.8015480
  35.1959390  61.3860660 146.4413630  34.6932990  62.1266060 146.7807440
  36.0116050  61.7744660 146.1250420  33.4881400  66.6293840 139.8874990
  32.5471540  66.6444070 140.0622680  33.8025470  65.8429800 140.3335290
  23.4663040  68.3113440 133.4478950  24.2326310  68.1994800 134.0104380
  23.5437730  67.6151410 132.7955720  22.1609800  65.7438510 134.1311840
  22.2413390  64.7966020 134.2429240  23.0529550  66.0745390 134.2372500
  35.4906980  73.8002690 141.5629250  35.6154400  74.6233860 142.0353060
  36.3572540  73.5893420 141.2153400  22.9624510  75.8933900 141.2346380
  23.6986990  75.3449360 141.5054950  23.3465430  76.7589910 141.0952370
  19.8469990  71.9607470 137.1087890  18.9209770  72.2028610 137.0993300
  20.3126420  72.7881730 136.9872640  26.0726820  75.0664210 133.0571950
  26.8655430  75.3553040 132.6053740  25.5531170  74.6356380 132.3784430
  32.2347790  74.9140130 148.9816780  33.1869540  74.8298150 148.9317020
  32.0876010  75.5781840 149.6550570  35.1256990  74.2934340 134.4808690
  34.8398500  73.8799480 133.6662870  34.9276540  75.2222050 134.3609210
  19.6880600  67.5653430 149.3668010  20.1919620  66.9860710 149.9384240
  18.9488020  67.8493660 149.9044380  26.5904220  70.2867620 132.9214300
  26.4854860  69.6719970 133.6475680  26.4228440  69.7633510 132.1377310
  26.7418540  68.9724420 148.9003530  25.9764210  69.5409420 148.8158200
  26.9234500  68.6800630 148.0071760  29.8306950  69.3487650 133.5256290
  29.2817050  69.7956950 134.1699030  30.4526210  68.8436900 134.0493960
  33.8841890  70.7029750 149.4578550  34.6251360  71.0405510 148.9546010
  33.1214570  70.8721810 148.9048320  25.4982070  68.3078570 135.4221590
  25.9198490  68.1418440 136.2652980  25.6232910  67.4978800 134.9276730
  23.6609490  64.2875120 148.2292570  23.1305950  63.7966070 147.6015910
  24.3297560  64.7159320 147.6950500  28.0109710  67.3316180 132.6698690
  28.5315370  66.6165200 132.3039840  28.6578110  67.9702050 132.9699200
  32.5587550  68.7544580 147.9933760  32.9728570  68.9089660 148.8424180
  31.6238550  68.8799800 148.1559540  33.0309720  66.0940740 149.9972910
  33.6130490  65.3393060 149.9093390  33.2071490  66.6248180 149.2204390
  24.1481790  61.2537490 148.3089860  24.0538660  60.6358240 147.5840730
  23.5679180  61.9803780 148.0819770  26.9143230  59.8110730 145.3417250
  26.4660530  59.8334990 144.4962800  26.2808430  59.4129750 145.9387550
  27.3202780  68.7065060 145.9629690  27.7390890  69.5497790 145.7905930
  26.4011410  68.8437100 145.7336470  29.6566680  66.4381240 147.3467530
  29.7762890  65.8422380 148.0862370  30.5160680  66.4750930 146.9268830
  31.9954580  66.9918430 145.9230040  31.4689800  67.5161050 145.3195180
  32.3385920  67.6245820 146.5539770  24.3940970  64.3811800 132.3679750
  24.1930030  63.5179160 132.7293090  24.2233020  64.2945160 131.4301350
  25.1710200  75.0118070 147.0787420  24.6331290  75.7364130 146.7596120
  25.4244160  74.5348410 146.2884760  26.4235450  62.9802590 148.6043350
  27.0135140  62.6718440 149.2921170  25.6055690  62.5082340 148.7603250
  31.2428880  62.5968400 148.8376370  30.5544400  61.9349940 148.7726360
  31.9634900  62.1506670 149.2824830  31.8729280  59.1920030 134.8966630
  32.1531570  58.3487930 135.2526050  31.0995010  59.4243140 135.4105380
  23.1923770  61.4812420 132.3557630  23.4949670  61.4879850 131.4476780
  23.9318360  61.1310280 132.8525290  28.0272410  76.2469280 147.3374070
  27.9531110  77.1504420 147.6446440  27.1251250  75.9281180 147.3096140
  26.4108700  60.4247040 133.3413830  26.0630700  59.7471030 132.7616280
  26.6121470  59.9636550 134.1557220  28.5757740  75.4127790 134.9600430
  29.4708530  75.7512760 134.9819190  28.6075370  74.6907200 134.3324710
  22.2153900  70.7854840 133.1887430  22.6528770  71.3284510 133.8445010
  22.7001630  69.9601790 133.1983770  19.4299700  73.5743870 140.6407690
  19.7602710  72.7064930 140.4086330  19.8590700  73.7802390 141.4712650
  24.0261620  71.9052880 138.3009660  23.7257160  71.7817850 139.2013570
  23.9199110  71.0461470 137.8925390  19.9189910  74.4414460 143.3789320
  19.4820900  74.6215260 144.2113470  20.4867590  75.1989080 143.2371040
  35.5552090  73.9431460 147.6666630  34.9554080  74.0024020 146.9230550
  35.6845990  73.0036440 147.7963480  36.7953540  71.6849280 133.0036340
  35.9646500  71.7525930 133.4743570  36.9725370  72.5753400 132.7003200
  36.2510000  68.4296760 135.5070540  37.0128910  68.9993410 135.6130230
  36.2664370  67.8623960 136.2778850  19.7514340  66.9534690 139.7378200
  19.0963180  66.6846330 139.0937900  20.5892290  66.8439170 139.2880180
  37.2569970  69.2846860 140.3512470  37.6278800  68.5014180 139.9448440
  37.8971900  69.9735960 140.1729770  34.2403730  70.6683440 145.7642790
  33.4263570  71.0980600 146.0268580  34.6477930  71.2801850 145.1511840
  36.3029170  68.7231130 132.6643060  36.5778010  69.6310010 132.5362280
  36.1139910  68.6593660 133.6005050  32.7004780  61.7475980 133.9596690
  33.1189660  61.5606960 133.1193350  32.3940840  60.8955030 134.2699620
  36.1994510  66.6600120 137.6572490  35.8238110  65.8928050 137.2253780
  35.4697630  67.0422820 138.1447420  20.7890270  67.3387260 144.2781540
  21.1563310  67.2514660 145.1577560  20.2201090  66.5753810 144.1788400
  35.5894130  65.8071640 147.2912010  35.3580220  65.5784390 146.3909960
  35.8498680  66.7271190 147.2456900  20.3406270  64.2496350 148.1839960
  19.4462320  64.2163110 148.5233670  20.8803820  64.4483140 148.9491210
  18.9652420  64.1633620 135.6803530  18.0616500  64.4263820 135.5055190
  19.4493040  64.4344790 134.9003490  35.4745470  64.8857610 140.9579730
  35.9982950  64.3920260 140.3269900  36.0604890  65.0207970 141.7027300
  35.6535190  64.9697480 144.4799280  34.7037900  64.9361020 144.5944270
  35.8348200  65.8797590 144.2449050  21.5079630  63.2199160 133.5897910
  22.2171330  62.7982380 133.1045190  20.7919570  63.2874390 132.9581260
  21.1553790  59.2738490 132.6300560  21.8781920  59.8147430 132.9481780
  21.4278310  59.0001910 131.7542100  34.9645440  64.1430960 136.8972140
  35.4604560  63.9101830 137.6821020  34.7661510  63.3042800 136.4809780
  20.8445980  58.5244680 142.5323180  21.4922170  57.9742060 142.0918340
  21.2647820  58.7787830 143.3538990  36.3932600  62.7791910 139.4309820
  36.2831880  62.6247950 140.3692090  37.1540190  62.2512850 139.1885230
  34.7398320  58.7186040 145.8892820  35.3770540  59.3320180 146.2552010
  34.8873210  58.7546700 144.9442050  37.2822870  60.6099830 132.6715960
  38.2072180  60.4781010 132.4634250  37.2598660  60.6892650 133.6252410
  37.3561360  61.3810490 135.2972670  36.5612860  61.3155610 135.8265580
  37.5604640  62.3161130 135.2858020  34.2979780  75.4202040 139.2911060
  34.8938850  75.0986610 138.6145480  34.5557930  74.9473860 140.0824330
  20.5977980  58.6800350 145.2748500  20.2492800  59.1364170 146.0406680
  20.2665680  57.7857480 145.3570930  25.9048380  73.4079540 145.0411410
  25.6639740  73.6754100 144.1541930  26.8451020  73.5785270 145.0962270
  28.1102800  59.8712230 148.7967920  28.0491690  60.4634060 149.5463330
  29.0503180  59.7638190 148.6518180  30.7477360  59.5282290 148.4360210
  31.3617770  59.8461580 147.7741290  31.2926920  59.0430880 149.0556070
  37.1652540  75.4273920 145.8422050  36.6710820  75.8242790 145.1249180
  36.5565830  74.8023130 146.2359330  21.2698620  58.2076550 148.5499270
  21.8181610  58.0264600 147.7865380  21.3353930  57.4170660 149.0855580
  22.0430380  74.7982200 146.5599470  21.4490700  74.6666900 147.2989510
  22.0354220  73.9620340 146.0941570  31.4885400  58.0914430 144.7629500
  30.6145240  58.4249540 144.5602430  31.3796150  57.6187610 145.5881370
  32.3957380  60.2985300 146.1471220  32.0670740  59.4837060 145.7672950
  33.3439680  60.2555110 146.0236910  34.8491990  76.0697340 143.1208790
  34.3894960  76.8213150 142.7466810  34.2204450  75.3503810 143.0623590
  21.6742610  72.1640580 145.5107510  20.9476670  71.5445870 145.4433460
  21.7351760  72.5581190 144.6405590  25.2787710  74.3785580 142.2956920
  25.7952730  73.7672940 141.7705180  25.9285090  74.8814360 142.7867930
  28.0183210  75.2694070 143.1225900  28.3061020  75.0148370 142.2458910
  28.5306430  74.7171430 143.7131470  29.2360220  59.0084270 143.7022410
  28.4532010  59.4829770 143.9819170  28.9423150  58.1039100 143.5935590
  33.7881290  59.7107370 141.7471500  34.2289380  59.6552470 140.8993100
  33.5188880  60.6265380 141.8181680  35.6519860  59.3422610 139.7580320
  35.5908260  58.3983830 139.6111340  36.4311890  59.4502700 140.3033780
  19.9572610  75.4814970 138.7204270  19.7894650  74.8485650 139.4186160
  19.0907120  75.6874370 138.3698460  20.5800630  59.3131750 136.2236130
  21.3379990  59.4260630 135.6500160  20.1177800  60.1500950 136.1779560
  27.1214440  61.4271020 139.2138440  26.3088950  61.0527910 138.8734320
  27.6256080  60.6716100 139.5159630  31.6239420  58.0913470 140.4521510
  32.2268790  58.6633680 140.9270030  30.8832410  58.6552910 140.2295410
  34.7674020  58.4935030 135.7261790  34.9624650  59.3918480 135.9929220
  33.9803890  58.2622110 136.2194740  21.5635310  74.1748200 136.1654410
  21.0382930  74.5556230 135.4616370  21.4879890  74.7998970 136.8864120
  22.9525780  59.8395800 134.7638100  23.4818540  59.0525600 134.6346050
  23.5854100  60.5186990 134.9973630  25.1463620  59.5770940 137.8183490
  24.5166360  58.8758250 137.9853620  24.6068760  60.3375070 137.6016650
  36.3200630  75.7335740 137.4868350  36.4952820  75.0473480 136.8429270
  35.6222200  76.2582790 137.0945020  24.1628280  76.1230580 135.0403660
  24.8947100  75.8389860 134.4927550  24.4221950  75.8843860 135.9303040
  23.3243070  72.2395310 135.0449990  22.6951950  72.7080410 135.5935820
  23.4390900  71.3944530 135.4796180  30.7792790  66.2900970 121.1951190
  30.6986840  65.3755580 120.9242900  30.3657210  66.7868040 120.4890900
  28.9110830  68.0679990 123.0760460  28.1352930  67.5880430 123.3659030
  29.5623760  67.3885640 122.9016620  22.9276660  68.3799800 123.9536220
  22.0961540  68.1248510 124.3532730  23.5357640  68.4510570 124.6894140
  22.9077920  72.4139890 124.1494240  23.2105960  71.5237630 123.9704460
  23.6521510  72.9710110 123.9216490  21.3368610  63.3401690 117.7378610
  20.4485310  63.6817660 117.6358490  21.6209800  63.1402010 116.8459440
  19.3001620  65.9407340 123.6218310  19.8717730  65.1729540 123.6221950
  19.3003160  66.2396100 122.7124920  29.1581570  74.7598190 121.4763580
  28.5393010  75.2155690 120.9058020  30.0133350  74.9149650 121.0753280
  28.3519820  70.7437180 123.0830620  28.2828100  69.8027120 122.9219750
  29.1139680  70.8338590 123.6553190  20.5426490  61.3491700 125.4087240
  20.3629330  60.4517450 125.6890000  20.1406570  61.8963570 126.0834190
  29.3824990  63.5507560 123.3099550  29.7589810  62.6779440 123.1973220
  29.2844500  63.8866260 122.4189990  23.5130000  61.9233190 118.7716990
  23.6196750  62.8236920 119.0785750  22.6022360  61.8751160 118.4811640
  33.1649110  61.0458000 120.2427890  33.9858730  60.5554570 120.2853370
  33.1983190  61.6355660 120.9959730  21.1613160  63.8452200 124.0169580
  21.8423270  64.1090570 124.6356980  20.8461210  63.0053070 124.3507590
  25.3537730  64.8919560 123.1042170  25.8615950  65.3900530 123.7447190
  25.8850970  64.1154760 122.9281530  23.6373830  59.5318120 127.3705590
  23.6392270  60.0490510 126.5651490  22.8078140  59.0548300 127.3475520
  30.0244920  69.6437430 118.8695490  29.4062190  70.1086880 118.3058210
  30.5368170  70.3364910 119.2865000  24.8876680  69.1713300 125.5479090
  24.5546060  69.7982220 126.1900160  25.0643360  69.6975180 124.7680760
  33.4010590  62.9858380 123.0155430  32.6966160  63.2743270 123.5958540
  33.7622750  63.7958490 122.6554990  23.3189160  61.2428080 125.3776040
  23.6605970  62.0870130 125.0829910  22.3804970  61.3911820 125.4941380
  24.0995780  71.1394100 127.3628270  24.7169780  71.8145180 127.0812720
  23.2388900  71.5482080 127.2715770  19.3928120  70.3293960 116.2435120
  19.0156100  70.8181060 115.5120020  19.6501190  71.0019240 116.8741650
  35.0173370  72.6033510 125.2782910  34.3336890  73.2732620 125.2699580
  35.5567660  72.8014160 124.5127770  27.0017050  58.7310350 121.7020630
  27.3092030  58.1757240 120.9856130  26.0717750  58.8654810 121.5193620
  32.5532110  74.4477640 123.9928090  32.5659270  74.0439930 123.1250350
  32.0007330  75.2224930 123.8889520  31.9517550  69.3507480 125.3210700
  32.3686340  69.1367590 124.4864160  32.6757370  69.6080270 125.8919320
  29.3897810  66.7959180 118.4380750  28.4627090  66.7296560 118.6669220
  29.5422630  67.7339310 118.3235990  29.3766890  63.0676180 115.4347910
  28.4370560  63.2290140 115.5200370  29.6950150  63.7861860 114.8883900
  33.4195100  68.3579480 118.9416000  32.8007520  68.0199030 118.2942300
  33.4019550  67.7139240 119.6495190  32.8621660  64.5364020 126.3581810
  32.4492840  65.3617730 126.6121800  32.1297610  63.9509060 126.1658170
  24.9954450  67.3223920 121.2200480  24.5911450  66.6101170 120.7246380
  25.0817570  66.9777160 122.1088520  25.4636150  71.0091480 123.3839690
  25.1664440  70.4036950 122.7047470  26.4135970  71.0468790 123.2729050
  23.7083070  64.0967130 124.9999520  24.2597660  64.2062470 124.2252770
  24.2226580  64.4704730 125.7154750  33.5521760  74.5823350 127.0462790
  33.0752320  75.3895540 126.8535400  32.8683550  73.9301680 127.1989000
  24.5554580  70.7473170 130.0347490  23.6583110  70.9713140 130.2820890
  24.5807450  70.8708110 129.0858890  31.5959800  67.5966290 115.9488750
  32.0353080  66.7588720 115.8026570  32.3088220  68.2295690 116.0352890
  23.3825800  67.6186490 128.6104860  23.2433570  68.4909290 128.9792260
  22.5007160  67.2759300 128.4652800  29.7055180  72.5362360 119.9169990
  30.1451090  73.2786690 119.5025380  29.6442070  72.7788930 120.8408950
  25.1806150  73.5608190 130.8190010  25.1521580  73.9651140 129.9518440
  25.0171120  72.6318550 130.6561610  35.1776940  58.8509100 114.2629790
  34.8649600  58.9435930 115.1628860  35.9389410  59.4290130 114.2127220
  21.6959080  66.2168900 118.7207130  21.5756680  66.9430990 118.1088400
  21.3859970  65.4471810 118.2435040  37.1320970  74.3435290 132.1154180
  37.6080690  74.8218180 132.7943260  37.7528130  74.2752780 131.3899680
  19.3344450  69.3884040 124.5275770  19.4124870  69.5232810 123.5831490
  19.9486130  68.6799930 124.7203890  20.5792080  71.0884230 120.9381950
  20.1720160  71.2298820 120.0835550  21.4705090  70.8044390 120.7353160
  36.5354220  71.5348140 129.2754190  36.6617280  71.2960020 128.3571370
  36.5775600  70.7032680 129.7476270  30.3970960  75.2376140 127.8449000
  30.9115630  75.1484150 128.6471430  29.5540040  75.5835840 128.1376910
  24.8513740  75.3030010 119.0504620  24.6756220  74.3865550 118.8372420
  23.9969480  75.6617300 119.2902420  36.3878230  63.5880600 130.2403930
  35.7722500  64.0960270 129.7119390  36.0674650  62.6878930 130.1829870
  19.3903970  70.4298210 127.0670230  19.5535010  69.9603570 126.2489600
  19.8556420  69.9221770 127.7319070  24.1622740  59.5603970 122.1030800
  23.7190890  60.3413510 121.7715320  24.7207730  59.8833860 122.8101740
  28.4492550  62.4272490 127.7066120  27.9871920  62.6355510 128.5186060
  28.0470660  61.6131840 127.4036790  33.4497060  63.6481440 128.8362780
  32.5990650  63.3487190 129.1571850  33.2898850  63.8923450 127.9246600
  30.5446770  65.1483190 130.9361570  30.8700180  64.3146940 130.5963800
  31.3327100  65.6711710 131.0839900  27.2781560  59.1814670 116.9836630
  26.6535740  59.1774540 117.7089940  27.1911680  58.3145630 116.5872600
  26.1998640  60.1051300 123.9620400  26.4970970  61.0114130 123.8812420
  26.7484200  59.6170080 123.3479970  23.9536960  64.6837540 119.8312050
  23.7277880  64.4674710 120.7358670  23.1729490  65.1166000 119.4858020
  31.1834720  64.6900910 118.4302700  30.5843610  65.4136710 118.2466320
  31.7314330  64.6277690 117.6479150  26.3936170  65.5823120 130.4972320
  26.2979770  64.6417850 130.3472720  27.2368150  65.8038190 130.1020390
  29.7899590  63.3264450 120.4605980  30.1829160  63.6436650 119.6474670
  30.1516440  62.4476330 120.5750500  21.5246710  61.9936790 128.6506100
  21.1310100  62.8412000 128.8578880  20.8365110  61.3563160 128.8414740
  28.0991760  62.0771760 131.7202840  27.4090080  61.8843960 132.3548930
  28.8424060  62.3606400 132.2527140  18.8263760  59.9165250 122.6836180
  18.5376810  60.4868110 123.3961160  19.5709520  59.4369700 123.0467410
  19.0133990  63.8585370 113.8938900  18.9308660  64.8016130 114.0353890
  18.6617050  63.7160280 113.0151250  30.3754730  65.9170200 124.5556760
  29.6435850  66.4257010 124.9046860  29.9779070  65.1000180 124.2545540
  26.8132120  62.5924400 122.9609250  26.8168180  62.1514350 122.1113790
  27.7083240  62.9141730 123.0681070  22.6634500  62.4750890 121.9203460
  22.3234550  62.9526120 122.6770510  21.9011820  62.0216010 121.5604560
  26.8752270  63.5936480 115.9516010  26.9965090  63.5522960 116.9001830
  26.4900780  64.4560630 115.7962740  30.8380640  61.3703880 123.9679700
  30.8553380  61.8212530 124.8121550  30.5896220  60.4709520 124.1813140
  34.2651390  58.7836060 129.8066080  34.5897160  58.0525720 130.3324060
  34.3007900  58.4649700 128.9047070  20.9642950  69.8049640 129.2266040
  20.5797740  69.1643310 129.8249000  21.2755140  70.5085760 129.7960770
  27.1140090  66.6526180 124.7074660  27.4810220  66.1784750 125.4536000
  26.9245150  67.5267750 125.0483000  19.9780580  61.3969870 120.8368130
  19.6927500  61.0325540 121.6746750  19.9159440  60.6650330 120.2231270
  24.9039460  65.6934820 127.0258870  24.5996530  66.5726800 127.2509230
  25.8585920  65.7534610 127.0616310  23.4321250  69.8995810 117.6225720
  22.6583510  69.3593430 117.4624440  24.1615880  69.3802420 117.2843480
  29.6519170  60.2899130 117.5581500  28.8383780  59.7912300 117.4826810
  29.4581120  61.1297380 117.1417850  29.5728030  68.9670230 129.3021110
  29.5065340  68.0465900 129.0478700  28.9433170  69.0645670 130.0165750
  32.3667560  64.6618780 115.8543660  33.2547180  64.9736010 115.6795000
  32.3372650  63.7891030 115.4624240  23.4758650  69.5676190 121.2604530
  23.9937320  68.7644450 121.2061420  23.0242670  69.5055330 122.1021360
  28.3628150  70.8342470 116.5331830  28.7043850  71.5784700 116.0375150
  27.5340860  71.1473590 116.8956660  20.9603190  66.5337560 128.1730230
  20.6018130  67.1991410 128.7603570  20.6657750  65.7021110 128.5442850
  24.1616310  66.9921800 131.0569780  23.8616450  67.1378980 130.1597600
  24.9327550  66.4327090 130.9643170  29.5044760  71.7890800 129.0524910
  29.5189300  70.8571760 128.8343820  28.7969860  71.8750560 129.6914680
  34.6381830  65.9730620 115.3223520  34.5545550  66.4044840 114.4719960
  35.3576020  66.4328970 115.7550340  35.7155970  68.4298140 128.3993490
  34.9904160  69.0226920 128.2022880  36.2431430  68.4221680 127.6006860
  31.2455560  70.1558310 121.8977340  31.5979380  69.5586440 121.2378710
  30.3617890  69.8302540 122.0685590  27.3318840  70.9156000 119.3047750
  28.0189970  71.4625210 119.6855340  26.5451260  71.4596730 119.3397360
  19.4711240  66.5328820 114.7964830  20.3406090  66.8153620 115.0800750
  18.9801560  67.3464690 114.6813640  26.6346050  67.9202030 118.9173110
  27.0908830  68.7307280 119.1433300  26.2834260  67.6025170 119.7491600
  28.9378660  73.4308370 126.1465410  29.5820880  73.6367750 126.8238830
  29.3008100  72.6696770 125.6936260  22.5357830  58.2639680 119.3895630
  22.4072460  58.2557580 120.3380550  21.7119850  58.6022770 119.0386640
  30.2110740  71.4340720 124.8642860  30.8532970  70.7333880 124.9775030
  30.7360090  72.2139160 124.6839750  31.9848360  72.2335620 128.0678920
  32.3204600  72.8202310 128.7456840  31.0648700  72.1028330 128.2976710
  19.8382490  75.7456200 115.3626460  20.1980130  76.3445540 114.7083730
  19.6974830  76.2916090 116.1361490  19.5351760  60.0230800 128.8502330
  18.8210280  60.2227720 129.4554940  19.9546800  59.2470370 129.2217130
  33.6382710  69.6361280 116.2496160  33.3504410  70.0973970 117.0374040
  34.4334880  69.1759050 116.5180380  19.8224350  74.0111060 129.8368860
  19.9315470  73.0705800 129.6964250  19.1704910  74.2765810 129.1882590
  27.8136940  72.2826950 131.2366980  27.4933810  71.5636190 131.7812670
  27.1395300  72.9582020 131.3103040  25.8551110  73.1287400 116.1800130
  25.8461210  73.8617090 115.5644640  24.9349470  72.8818980 116.2727090
  21.4557750  68.3502290 116.9246890  20.8485700  69.0901190 116.9342190
  21.9307100  68.4401650 116.0985090  31.0290540  62.5153110 126.6003780
  31.3971360  61.6948320 126.9283350  30.1688740  62.5755000 127.0159430
  34.3952570  61.4710050 117.4091340  33.7665730  61.5755720 116.6949570
  33.9004490  61.6906830 118.1985220  28.8410710  73.1915640 114.8425320
  28.9422690  72.9879630 113.9127300  27.9412450  72.9373920 115.0473100
  26.3636600  63.7496000 118.8249220  25.6552750  64.2182340 119.2662830
  26.6481080  63.0918010 119.4594410  27.9892530  65.1692700 126.8241750
  28.4877780  65.6438520 127.4893600  28.1315480  64.2456220 127.0311780
  30.3952030  60.4746660 120.2645010  30.2719810  60.4932790 119.3154520
  31.3436590  60.5225600 120.3843410  27.4828820  75.7101960 119.5372990
  27.7370320  75.6723350 118.6152360  26.5341300  75.5835290 119.5301240
  24.5671620  62.0581080 116.1999930  25.4162150  62.4951230 116.1340120
  24.2002890  62.3701340 117.0271990  35.1959390  61.3860660 127.6670140
  34.6932990  62.1266060 128.0063950  36.0116050  61.7744660 127.3506930
  33.4881400  66.6293840 121.1131500  32.5471540  66.6444070 121.2879190
  33.8025470  65.8429800 121.5591800  22.9624510  75.8933900 122.4602890
  23.6986990  75.3449360 122.7311460  23.3465430  76.7589910 122.3208880
  19.8469990  71.9607470 118.3344400  18.9209770  72.2028610 118.3249810
  20.3126420  72.7881730 118.2129150  21.9682790  75.0779970 131.6488470
  22.7695520  75.3992020 132.0623870  21.4534610  74.7175550 132.3708380
  30.8047420  71.1859840 131.5963880  30.1985580  71.2091440 130.8559630
  30.5001530  70.4542880 132.1331130  32.2347790  74.9140130 130.2073290
  33.1869540  74.8298150 130.1573530  32.0876010  75.5781840 130.8807080
  19.6880600  67.5653430 130.5924520  20.1919620  66.9860710 131.1640750
  18.9488020  67.8493660 131.1300890  26.7418540  68.9724420 130.1260040
  25.9764210  69.5409420 130.0414710  26.9234500  68.6800630 129.2328270
  29.8306950  69.3487650 114.7512800  29.2817050  69.7956950 115.3955540
  30.4526210  68.8436900 115.2750470  33.8841890  70.7029750 130.6835060
  34.6251360  71.0405510 130.1802520  33.1214570  70.8721810 130.1304830
  21.7203680  65.7083020 131.4874590  21.7609020  65.4096890 132.3959820
  22.5749180  66.1090630 131.3282110  23.6609490  64.2875120 129.4549080
  23.1305950  63.7966070 128.8272420  24.3297560  64.7159320 128.9207010
  32.5587550  68.7544580 129.2190270  32.9728570  68.9089660 130.0680690
  31.6238550  68.8799800 129.3816050  33.0309720  66.0940740 131.2229420
  33.6130490  65.3393060 131.1349900  33.2071490  66.6248180 130.4460900
  24.1481790  61.2537490 129.5346370  24.0538660  60.6358240 128.8097240
  23.5679180  61.9803780 129.3076280  26.9143230  59.8110730 126.5673760
  26.4660530  59.8334990 125.7219310  26.2808430  59.4129750 127.1644060
  27.3202780  68.7065060 127.1886200  27.7390890  69.5497790 127.0162440
  26.4011410  68.8437100 126.9592980  29.6566680  66.4381240 128.5724040
  29.7762890  65.8422380 129.3118880  30.5160680  66.4750930 128.1525340
  31.9954580  66.9918430 127.1486550  31.4689800  67.5161050 126.5451690
  32.3385920  67.6245820 127.7796280  25.1710200  75.0118070 128.3043930
  24.6331290  75.7364130 127.9852630  25.4244160  74.5348410 127.5141270
  26.4235450  62.9802590 129.8299860  27.0135140  62.6718440 130.5177680
  25.6055690  62.5082340 129.9859760  31.2428880  62.5968400 130.0632880
  30.5544400  61.9349940 129.9982870  31.9634900  62.1506670 130.5081340
  31.8729280  59.1920030 116.1223140  32.1531570  58.3487930 116.4782560
  31.0995010  59.4243140 116.6361890  23.1923770  61.4812420 113.5814140
  23.4949670  61.4879850 112.6733290  23.9318360  61.1310280 114.0781800
  28.0272410  76.2469280 128.5630580  27.9531110  77.1504420 128.8702950
  27.1251250  75.9281180 128.5352650  26.4108700  60.4247040 114.5670340
  26.0630700  59.7471030 113.9872790  26.6121470  59.9636550 115.3813730
  19.4299700  73.5743870 121.8664200  19.7602710  72.7064930 121.6342840
  19.8590700  73.7802390 122.6969160  24.0261620  71.9052880 119.5266170
  23.7257160  71.7817850 120.4270080  23.9199110  71.0461470 119.1181900
  19.9189910  74.4414460 124.6045830  19.4820900  74.6215260 125.4369980
  20.4867590  75.1989080 124.4627550  35.5552090  73.9431460 128.8923140
  34.9554080  74.0024020 128.1487060  35.6845990  73.0036440 129.0219990
  36.7953540  71.6849280 114.2292850  35.9646500  71.7525930 114.7000080
  36.9725370  72.5753400 113.9259710  36.2510000  68.4296760 116.7327050
  37.0128910  68.9993410 116.8386740  36.2664370  67.8623960 117.5035360
  19.7514340  66.9534690 120.9634710  19.0963180  66.6846330 120.3194410
  20.5892290  66.8439170 120.5136690  34.2403730  70.6683440 126.9899300
  33.4263570  71.0980600 127.2525090  34.6477930  71.2801850 126.3768350
  36.3029170  68.7231130 113.8899570  36.5778010  69.6310010 113.7618790
  36.1139910  68.6593660 114.8261560  32.7004780  61.7475980 115.1853200
  33.1189660  61.5606960 114.3449860  32.3940840  60.8955030 115.4956130
  36.1994510  66.6600120 118.8829000  35.8238110  65.8928050 118.4510290
  35.4697630  67.0422820 119.3703930  20.7890270  67.3387260 125.5038050
  21.1563310  67.2514660 126.3834070  20.2201090  66.5753810 125.4044910
  35.5894130  65.8071640 128.5168520  35.3580220  65.5784390 127.6166470
  35.8498680  66.7271190 128.4713410  20.3406270  64.2496350 129.4096470
  19.4462320  64.2163110 129.7490180  20.8803820  64.4483140 130.1747720
  34.0282200  61.0328070 131.2948220  34.9052380  61.0411470 131.6782220
  34.0403040  60.2958910 130.6840570  18.9652420  64.1633620 116.9060040
  18.0616500  64.4263820 116.7311700  19.4493040  64.4344790 116.1260000
  21.5079630  63.2199160 114.8154420  22.2171330  62.7982380 114.3301700
  20.7919570  63.2874390 114.1837770  21.1553790  59.2738490 113.8557070
  21.8781920  59.8147430 114.1738290  21.4278310  59.0001910 112.9798610
  34.9645440  64.1430960 118.1228650  35.4604560  63.9101830 118.9077530
  34.7661510  63.3042800 117.7066290  20.8445980  58.5244680 123.7579690
  21.4922170  57.9742060 123.3174850  21.2647820  58.7787830 124.5795500
  36.3932600  62.7791910 120.6566330  36.2831880  62.6247950 121.5948600
  37.1540190  62.2512850 120.4141740  34.7398320  58.7186040 127.1149330
  35.3770540  59.3320180 127.4808520  34.8873210  58.7546700 126.1698560
  37.2822870  60.6099830 113.8972470  38.2072180  60.4781010 113.6890760
  37.2598660  60.6892650 114.8508920  20.5977980  58.6800350 126.5005010
  20.2492800  59.1364170 127.2663190  20.2665680  57.7857480 126.5827440
  22.2042350  71.8519950 130.6658200  22.1611980  71.4812860 131.5472660
  22.3353360  72.7897520 130.8060020  25.9048380  73.4079540 126.2667920
  25.6639740  73.6754100 125.3798440  26.8451020  73.5785270 126.3218780
  28.1102800  59.8712230 130.0224430  28.0491690  60.4634060 130.7719840
  29.0503180  59.7638190 129.8774690  30.7477360  59.5282290 129.6616720
  31.3617770  59.8461580 128.9997800  31.2926920  59.0430880 130.2812580
  21.2698620  58.2076550 129.7755780  21.8181610  58.0264600 129.0121890
  21.3353930  57.4170660 130.3112090  22.0430380  74.7982200 127.7855980
  21.4490700  74.6666900 128.5246020  22.0354220  73.9620340 127.3198080
  31.4885400  58.0914430 125.9886010  30.6145240  58.4249540 125.7858940
  31.3796150  57.6187610 126.8137880  32.3957380  60.2985300 127.3727730
  32.0670740  59.4837060 126.9929460  33.3439680  60.2555110 127.2493420
  34.8491990  76.0697340 124.3465300  34.3894960  76.8213150 123.9723320
  34.2204450  75.3503810 124.2880100  21.6742610  72.1640580 126.7364020
  20.9476670  71.5445870 126.6689970  21.7351760  72.5581190 125.8662100
  25.2787710  74.3785580 123.5213430  25.7952730  73.7672940 122.9961690
  25.9285090  74.8814360 124.0124440  28.0183210  75.2694070 124.3482410
  28.3061020  75.0148370 123.4715420  28.5306430  74.7171430 124.9387980
  29.2360220  59.0084270 124.9278920  28.4532010  59.4829770 125.2075680
  28.9423150  58.1039100 124.8192100  33.7881290  59.7107370 122.9728010
  34.2289380  59.6552470 122.1249610  33.5188880  60.6265380 123.0438190
  19.9572610  75.4814970 119.9460780  19.7894650  74.8485650 120.6442670
  19.0907120  75.6874370 119.5954970  20.5800630  59.3131750 117.4492640
  21.3379990  59.4260630 116.8756670  20.1177800  60.1500950 117.4036070
  27.1214440  61.4271020 120.4394950  26.3088950  61.0527910 120.0990830
  27.6256080  60.6716100 120.7416140  31.6239420  58.0913470 121.6778020
  32.2268790  58.6633680 122.1526540  30.8832410  58.6552910 121.4551920
  21.5635310  74.1748200 117.3910920  21.0382930  74.5556230 116.6872880
  21.4879890  74.7998970 118.1120630  22.9525780  59.8395800 115.9894610
  23.4818540  59.0525600 115.8602560  23.5854100  60.5186990 116.2230140
  25.1463620  59.5770940 119.0440000  24.5166360  58.8758250 119.2110130
  24.6068760  60.3375070 118.8273160  28.0855570  76.1910170 131.7150610
  29.0122880  75.9554440 131.7586570  28.0706000  77.0182170 131.2336640
  25.2719180  58.8554920 131.4792490  24.9903450  59.3588520 130.7153310
  25.6538880  58.0576670 131.1134620  23.3243070  72.2395310 116.2706500
  22.6951950  72.7080410 116.8192330  23.4390900  71.3944530 116.7052690
  31.8734640  58.2708500 132.0572960  31.7600090  58.5903110 132.9524480
  32.6904380  58.6721010 131.7610240  34.6533130  75.4180030 131.5391650
  35.4458450  74.9229260 131.3317610  34.9466280  76.0970170 132.1467260
  30.7792790  66.2900970 102.4207700  30.6986840  65.3755580 102.1499410
  30.3657210  66.7868040 101.7147410  28.9110830  68.0679990 104.3016970
  28.1352930  67.5880430 104.5915540  29.5623760  67.3885640 104.1273130
  32.9318260  72.4740180 103.0816100  32.4699790  71.7027420 103.4103270
  33.7443810  72.5006250 103.5868550  21.3368610  63.3401690  98.9635120
  20.4485310  63.6817660  98.8615000  21.6209800  63.1402010  98.0715950
  19.3001620  65.9407340 104.8474820  19.8717730  65.1729540 104.8478460
  19.3003160  66.2396100 103.9381430  29.1581570  74.7598190 102.7020090
  28.5393010  75.2155690 102.1314530  30.0133350  74.9149650 102.3009790
  28.3519820  70.7437180 104.3087130  28.2828100  69.8027120 104.1476260
  29.1139680  70.8338590 104.8809700  20.5426490  61.3491700 106.6343750
  20.3629330  60.4517450 106.9146510  20.1406570  61.8963570 107.3090700
  29.3824990  63.5507560 104.5356060  29.7589810  62.6779440 104.4229730
  29.2844500  63.8866260 103.6446500  23.5130000  61.9233190  99.9973500
  23.6196750  62.8236920 100.3042260  22.6022360  61.8751160  99.7068150
  21.1613160  63.8452200 105.2426090  21.8423270  64.1090570 105.8613490
  20.8461210  63.0053070 105.5764100  25.3537730  64.8919560 104.3298680
  25.8615950  65.3900530 104.9703700  25.8850970  64.1154760 104.1538040
  37.4548660  63.0624750 108.0328030  36.7500830  63.4506460 107.5143140
  37.7206580  63.7575040 108.6348960  23.6373830  59.5318120 108.5962100
  23.6392270  60.0490510 107.7908000  22.8078140  59.0548300 108.5732030
  23.3189160  61.2428080 106.6032550  23.6605970  62.0870130 106.3086420
  22.3804970  61.3911820 106.7197890  19.3928120  70.3293960  97.4691630
  19.0156100  70.8181060  96.7376530  19.6501190  71.0019240  98.0998160
  35.0173370  72.6033510 106.5039420  34.3336890  73.2732620 106.4956090
  35.5567660  72.8014160 105.7384280  27.0017050  58.7310350 102.9277140
  27.3092030  58.1757240 102.2112640  26.0717750  58.8654810 102.7450130
  33.8477530  71.1693860 100.3074770  33.7373860  70.2268190 100.4324190
  33.8445780  71.5309500 101.1937530  31.9517550  69.3507480 106.5467210
  32.3686340  69.1367590 105.7120670  32.6757370  69.6080270 107.1175830
  29.3766890  63.0676180  96.6604420  28.4370560  63.2290140  96.7456880
  29.6950150  63.7861860  96.1140410  35.8979650  67.7494700 106.6383450
  35.0698280  67.8187790 106.1633580  36.4930130  68.3349010 106.1699280
  32.8621660  64.5364020 107.5838320  32.4492840  65.3617730 107.8378310
  32.1297610  63.9509060 107.3914680  23.7083070  64.0967130 106.2256030
  24.2597660  64.2062470 105.4509280  24.2226580  64.4704730 106.9411260
  29.7055180  72.5362360 101.1426500  30.1451090  73.2786690 100.7281890
  29.6442070  72.7788930 102.0665460  35.1776940  58.8509100  95.4886300
  34.8649600  58.9435930  96.3885370  35.9389410  59.4290130  95.4383730
  37.1320970  74.3435290 113.3410690  37.6080690  74.8218180 114.0199770
  37.7528130  74.2752780 112.6156190  36.5354220  71.5348140 110.5010700
  36.6617280  71.2960020 109.5827880  36.5775600  70.7032680 110.9732780
  30.3970960  75.2376140 109.0705510  30.9115630  75.1484150 109.8727940
  29.5540040  75.5835840 109.3633420  32.3725360  75.5231480  98.4989510
  32.2126500  75.2334420  99.3971340  32.2072070  74.7471610  97.9634740
  24.8513740  75.3030010 100.2761130  24.6756220  74.3865550 100.0628930
  23.9969480  75.6617300 100.5158930  32.0751490  73.0319040  97.0587510
  31.3816650  73.0296330  96.3989790  32.8174350  72.6078360  96.6281680
  31.6401420  74.6581750 101.1336000  32.0958370  73.8771130 101.4474620
  31.9793940  75.3688570 101.6777180  36.3878230  63.5880600 111.4660440
  35.7722500  64.0960270 110.9375900  36.0674650  62.6878930 111.4086380
  19.3903970  70.4298210 108.2926740  19.5535010  69.9603570 107.4746110
  19.8556420  69.9221770 108.9575580  24.1622740  59.5603970 103.3287310
  23.7190890  60.3413510 102.9971830  24.7207730  59.8833860 104.0358250
  28.4492550  62.4272490 108.9322630  27.9871920  62.6355510 109.7442570
  28.0470660  61.6131840 108.6293300  33.4497060  63.6481440 110.0619290
  32.5990650  63.3487190 110.3828360  33.2898850  63.8923450 109.1503110
  30.5446770  65.1483190 112.1618080  30.8700180  64.3146940 111.8220310
  31.3327100  65.6711710 112.3096410  27.2781560  59.1814670  98.2093140
  26.6535740  59.1774540  98.9346450  27.1911680  58.3145630  97.8129110
  26.1998640  60.1051300 105.1876910  26.4970970  61.0114130 105.1068930
  26.7484200  59.6170080 104.5736480  29.7899590  63.3264450 101.6862490
  30.1829160  63.6436650 100.8731180  30.1516440  62.4476330 101.8007010
  21.5246710  61.9936790 109.8762610  21.1310100  62.8412000 110.0835390
  20.8365110  61.3563160 110.0671250  28.0991760  62.0771760 112.9459350
  27.4090080  61.8843960 113.5805440  28.8424060  62.3606400 113.4783650
  18.8263760  59.9165250 103.9092690  18.5376810  60.4868110 104.6217670
  19.5709520  59.4369700 104.2723920  19.0133990  63.8585370  95.1195410
  18.9308660  64.8016130  95.2610400  18.6617050  63.7160280  94.2407760
  30.3754730  65.9170200 105.7813270  29.6435850  66.4257010 106.1303370
  29.9779070  65.1000180 105.4802050  26.8132120  62.5924400 104.1865760
  26.8168180  62.1514350 103.3370300  27.7083240  62.9141730 104.2937580
  22.6634500  62.4750890 103.1459970  22.3234550  62.9526120 103.9027020
  21.9011820  62.0216010 102.7861070  26.8752270  63.5936480  97.1772520
  26.9965090  63.5522960  98.1258340  26.4900780  64.4560630  97.0219250
  30.8380640  61.3703880 105.1936210  30.8553380  61.8212530 106.0378060
  30.5896220  60.4709520 105.4069650  25.8873770  65.9037620  96.5755820
  25.3190670  65.4555870  95.9491730  26.5962770  66.2630400  96.0420970
  34.2651390  58.7836060 111.0322590  34.5897160  58.0525720 111.5580570
  34.3007900  58.4649700 110.1303580  20.9642950  69.8049640 110.4522550
  20.5797740  69.1643310 111.0505510  21.2755140  70.5085760 111.0217280
  27.1140090  66.6526180 105.9331170  27.4810220  66.1784750 106.6792510
  26.9245150  67.5267750 106.2739510  19.9780580  61.3969870 102.0624640
  19.6927500  61.0325540 102.9003260  19.9159440  60.6650330 101.4487780
  24.9039460  65.6934820 108.2515380  24.5996530  66.5726800 108.4765740
  25.8585920  65.7534610 108.2872820  34.1909230  68.8961170 104.6408620
  34.9108350  69.3916460 104.2504730  33.9891050  68.2179060 103.9962490
  29.6519170  60.2899130  98.7838010  28.8383780  59.7912300  98.7083320
  29.4581120  61.1297380  98.3674360  29.5728030  68.9670230 110.5277620
  29.5065340  68.0465900 110.2735210  28.9433170  69.0645670 111.2422260
  20.9603190  66.5337560 109.3986740  20.6018130  67.1991410 109.9860080
  20.6657750  65.7021110 109.7699360  29.5044760  71.7890800 110.2781420
  29.5189300  70.8571760 110.0600330  28.7969860  71.8750560 110.9171190
  35.7155970  68.4298140 109.6250000  34.9904160  69.0226920 109.4279390
  36.2431430  68.4221680 108.8263370  35.6669080  72.8272880  99.2762160
  35.0245240  72.1728500  99.5505880  35.2799740  73.2327970  98.5002830
  31.2455560  70.1558310 103.1233850  31.5979380  69.5586440 102.4635220
  30.3617890  69.8302540 103.2942100  19.4711240  66.5328820  96.0221340
  20.3406090  66.8153620  96.3057260  18.9801560  67.3464690  95.9070150
  28.9378660  73.4308370 107.3721920  29.5820880  73.6367750 108.0495340
  29.3008100  72.6696770 106.9192770  22.5357830  58.2639680 100.6152140
  22.4072460  58.2557580 101.5637060  21.7119850  58.6022770 100.2643150
  30.2110740  71.4340720 106.0899370  30.8532970  70.7333880 106.2031540
  30.7360090  72.2139160 105.9096260  31.9848360  72.2335620 109.2935430
  32.3204600  72.8202310 109.9713350  31.0648700  72.1028330 109.5233220
  19.8382490  75.7456200  96.5882970  20.1980130  76.3445540  95.9340240
  19.6974830  76.2916090  97.3618000  19.5351760  60.0230800 110.0758840
  18.8210280  60.2227720 110.6811450  19.9546800  59.2470370 110.4473640
  19.8224350  74.0111060 111.0625370  19.9315470  73.0705800 110.9220760
  19.1704910  74.2765810 110.4139100  27.8136940  72.2826950 112.4623490
  27.4933810  71.5636190 113.0069180  27.1395300  72.9582020 112.5359550
  25.8551110  73.1287400  97.4056640  25.8461210  73.8617090  96.7901150
  24.9349470  72.8818980  97.4983600  21.4557750  68.3502290  98.1503400
  20.8485700  69.0901190  98.1598700  21.9307100  68.4401650  97.3241600
  31.0290540  62.5153110 107.8260290  31.3971360  61.6948320 108.1539860
  30.1688740  62.5755000 108.2415940  28.8410710  73.1915640  96.0681830
  28.9422690  72.9879630  95.1383810  27.9412450  72.9373920  96.2729610
  27.9892530  65.1692700 108.0498260  28.4877780  65.6438520 108.7150110
  28.1315480  64.2456220 108.2568290  30.3952030  60.4746660 101.4901520
  30.2719810  60.4932790 100.5411030  31.3436590  60.5225600 101.6099920
  27.4828820  75.7101960 100.7629500  27.7370320  75.6723350  99.8408870
  26.5341300  75.5835290 100.7557750  24.5671620  62.0581080  97.4256440
  25.4162150  62.4951230  97.3596630  24.2002890  62.3701340  98.2528500
  35.1959390  61.3860660 108.8926650  34.6932990  62.1266060 109.2320460
  36.0116050  61.7744660 108.5763440  33.4881400  66.6293840 102.3388010
  32.5471540  66.6444070 102.5135700  33.8025470  65.8429800 102.7848310
  23.4663040  68.3113440  95.8991970  24.2326310  68.1994800  96.4617400
  23.5437730  67.6151410  95.2468740  22.1609800  65.7438510  96.5824860
  22.2413390  64.7966020  96.6942260  23.0529550  66.0745390  96.6885520
  35.4906980  73.8002690 104.0142270  35.6154400  74.6233860 104.4866080
  36.3572540  73.5893420 103.6666420  22.9624510  75.8933900 103.6859400
  23.6986990  75.3449360 103.9567970  23.3465430  76.7589910 103.5465390
  19.8469990  71.9607470  99.5600910  18.9209770  72.2028610  99.5506320
  20.3126420  72.7881730  99.4385660  21.9682790  75.0779970 112.8744980
  22.7695520  75.3992020 113.2880380  21.4534610  74.7175550 113.5964890
  26.0726820  75.0664210  95.5084970  26.8655430  75.3553040  95.0566760
  25.5531170  74.6356380  94.8297450  30.8047420  71.1859840 112.8220390
  30.1985580  71.2091440 112.0816140  30.5001530  70.4542880 113.3587640
  32.2347790  74.9140130 111.4329800  33.1869540  74.8298150 111.3830040
  32.0876010  75.5781840 112.1063590  35.1256990  74.2934340  96.9321710
  34.8398500  73.8799480  96.1175890  34.9276540  75.2222050  96.8122230
  26.5904220  70.2867620  95.3727320  26.4854860  69.6719970  96.0988700
  26.4228440  69.7633510  94.5890330  33.8841890  70.7029750 111.9091570
  34.6251360  71.0405510 111.4059030  33.1214570  70.8721810 111.3561340
  32.5587550  68.7544580 110.4446780  32.9728570  68.9089660 111.2937200
  31.6238550  68.8799800 110.6072560  33.0309720  66.0940740 112.4485930
  33.6130490  65.3393060 112.3606410  33.2071490  66.6248180 111.6717410
  24.1481790  61.2537490 110.7602880  24.0538660  60.6358240 110.0353750
  23.5679180  61.9803780 110.5332790  26.9143230  59.8110730 107.7930270
  26.4660530  59.8334990 106.9475820  26.2808430  59.4129750 108.3900570
  27.3202780  68.7065060 108.4142710  27.7390890  69.5497790 108.2418950
  26.4011410  68.8437100 108.1849490  29.6566680  66.4381240 109.7980550
  29.7762890  65.8422380 110.5375390  30.5160680  66.4750930 109.3781850
  31.9954580  66.9918430 108.3743060  31.4689800  67.5161050 107.7708200
  32.3385920  67.6245820 109.0052790  24.3940970  64.3811800  94.8192770
  24.1930030  63.5179160  95.1806110  24.2233020  64.2945160  93.8814370
  26.4235450  62.9802590 111.0556370  27.0135140  62.6718440 111.7434190
  25.6055690  62.5082340 111.2116270  31.2428880  62.5968400 111.2889390
  30.5544400  61.9349940 111.2239380  31.9634900  62.1506670 111.7337850
  31.8729280  59.1920030  97.3479650  32.1531570  58.3487930  97.7039070
  31.0995010  59.4243140  97.8618400  23.1923770  61.4812420  94.8070650
  23.4949670  61.4879850  93.8989800  23.9318360  61.1310280  95.3038310
  26.4108700  60.4247040  95.7926850  26.0630700  59.7471030  95.2129300
  26.6121470  59.9636550  96.6070240  28.5757740  75.4127790  97.4113450
  29.4708530  75.7512760  97.4332210  28.6075370  74.6907200  96.7837730
  22.2153900  70.7854840  95.6400450  22.6528770  71.3284510  96.2958030
  22.7001630  69.9601790  95.6496790  19.4299700  73.5743870 103.0920710
  19.7602710  72.7064930 102.8599350  19.8590700  73.7802390 103.9225670
  24.0261620  71.9052880 100.7522680  23.7257160  71.7817850 101.6526590
  23.9199110  71.0461470 100.3438410  19.9189910  74.4414460 105.8302340
  19.4820900  74.6215260 106.6626490  20.4867590  75.1989080 105.6884060
  35.5552090  73.9431460 110.1179650  34.9554080  74.0024020 109.3743570
  35.6845990  73.0036440 110.2476500  19.7514340  66.9534690 102.1891220
  19.0963180  66.6846330 101.5450920  20.5892290  66.8439170 101.7393200
  37.2569970  69.2846860 102.8025490  37.6278800  68.5014180 102.3961460
  37.8971900  69.9735960 102.6242790  34.2403730  70.6683440 108.2155810
  33.4263570  71.0980600 108.4781600  34.6477930  71.2801850 107.6024860
  32.7004780  61.7475980  96.4109710  33.1189660  61.5606960  95.5706370
  32.3940840  60.8955030  96.7212640  36.1994510  66.6600120 100.1085510
  35.8238110  65.8928050  99.6766800  35.4697630  67.0422820 100.5960440
  35.5894130  65.8071640 109.7425030  35.3580220  65.5784390 108.8422980
  35.8498680  66.7271190 109.6969920  20.3406270  64.2496350 110.6352980
  19.4462320  64.2163110 110.9746690  20.8803820  64.4483140 111.4004230
  34.0282200  61.0328070 112.5204730  34.9052380  61.0411470 112.9038730
  34.0403040  60.2958910 111.9097080  18.9652420  64.1633620  98.1316550
  18.0616500  64.4263820  97.9568210  19.4493040  64.4344790  97.3516510
  35.6535190  64.9697480 106.9312300  34.7037900  64.9361020 107.0457290
  35.8348200  65.8797590 106.6962070  21.5079630  63.2199160  96.0410930
  22.2171330  62.7982380  95.5558210  20.7919570  63.2874390  95.4094280
  21.1553790  59.2738490  95.0813580  21.8781920  59.8147430  95.3994800
  21.4278310  59.0001910  94.2055120  20.8445980  58.5244680 104.9836200
  21.4922170  57.9742060 104.5431360  21.2647820  58.7787830 105.8052010
  34.7398320  58.7186040 108.3405840  35.3770540  59.3320180 108.7065030
  34.8873210  58.7546700 107.3955070  37.3561360  61.3810490  97.7485690
  36.5612860  61.3155610  98.2778600  37.5604640  62.3161130  97.7371040
  34.2979780  75.4202040 101.7424080  34.8938850  75.0986610 101.0658500
  34.5557930  74.9473860 102.5337350  20.5977980  58.6800350 107.7261520
  20.2492800  59.1364170 108.4919700  20.2665680  57.7857480 107.8083950
  22.2042350  71.8519950 111.8914710  22.1611980  71.4812860 112.7729170
  22.3353360  72.7897520 112.0316530  28.1102800  59.8712230 111.2480940
  28.0491690  60.4634060 111.9976350  29.0503180  59.7638190 111.1031200
  30.7477360  59.5282290 110.8873230  31.3617770  59.8461580 110.2254310
  31.2926920  59.0430880 111.5069090  21.2698620  58.2076550 111.0012290
  21.8181610  58.0264600 110.2378400  21.3353930  57.4170660 111.5368600
  31.4885400  58.0914430 107.2142520  30.6145240  58.4249540 107.0115450
  31.3796150  57.6187610 108.0394390  32.3957380  60.2985300 108.5984240
  32.0670740  59.4837060 108.2185970  33.3439680  60.2555110 108.4749930
  28.0183210  75.2694070 105.5738920  28.3061020  75.0148370 104.6971930
  28.5306430  74.7171430 106.1644490  29.2360220  59.0084270 106.1535430
  28.4532010  59.4829770 106.4332190  28.9423150  58.1039100 106.0448610
  19.9572610  75.4814970 101.1717290  19.7894650  74.8485650 101.8699180
  19.0907120  75.6874370 100.8211480  20.5800630  59.3131750  98.6749150
  21.3379990  59.4260630  98.1013180  20.1177800  60.1500950  98.6292580
  27.1214440  61.4271020 101.6651460  26.3088950  61.0527910 101.3247340
  27.6256080  60.6716100 101.9672650  31.6239420  58.0913470 102.9034530
  32.2268790  58.6633680 103.3783050  30.8832410  58.6552910 102.6808430
  34.7674020  58.4935030  98.1774810  34.9624650  59.3918480  98.4442240
  33.9803890  58.2622110  98.6707760  21.5635310  74.1748200  98.6167430
  21.0382930  74.5556230  97.9129390  21.4879890  74.7998970  99.3377140
  22.9525780  59.8395800  97.2151120  23.4818540  59.0525600  97.0859070
  23.5854100  60.5186990  97.4486650  25.1463620  59.5770940 100.2696510
  24.5166360  58.8758250 100.4366640  24.6068760  60.3375070 100.0529670
  36.3200630  75.7335740  99.9381370  36.4952820  75.0473480  99.2942290
  35.6222200  76.2582790  99.5458040  25.2719180  58.8554920 112.7049000
  24.9903450  59.3588520 111.9409820  25.6538880  58.0576670 112.3391130
  24.1628280  76.1230580  97.4916680  24.8947100  75.8389860  96.9440570
  24.4221950  75.8843860  98.3816060  23.3243070  72.2395310  97.4963010
  22.6951950  72.7080410  98.0448840  23.4390900  71.3944530  97.9309200
  31.8734640  58.2708500 113.2829470  31.7600090  58.5903110 114.1780990
  32.6904380  58.6721010 112.9866750  34.6533130  75.4180030 112.7648160
  35.4458450  74.9229260 112.5574120  34.9466280  76.0970170 113.3723770
  32.9318260  72.4740180  84.3072610  32.4699790  71.7027420  84.6359780
  33.7443810  72.5006250  84.8125060  22.9077920  72.4139890  86.6007260
  23.2105960  71.5237630  86.4217480  23.6521510  72.9710110  86.3729510
  21.3368610  63.3401690  80.1891630  20.4485310  63.6817660  80.0871510
  21.6209800  63.1402010  79.2972460  20.5426490  61.3491700  87.8600260
  20.3629330  60.4517450  88.1403020  20.1406570  61.8963570  88.5347210
  23.5130000  61.9233190  81.2230010  23.6196750  62.8236920  81.5298770
  22.6022360  61.8751160  80.9324660  33.1649110  61.0458000  82.6940910
  33.9858730  60.5554570  82.7366390  33.1983190  61.6355660  83.4472750
  21.1613160  63.8452200  86.4682600  21.8423270  64.1090570  87.0870000
  20.8461210  63.0053070  86.8020610  25.3537730  64.8919560  85.5555190
  25.8615950  65.3900530  86.1960210  25.8850970  64.1154760  85.3794550
  23.3189160  61.2428080  87.8289060  23.6605970  62.0870130  87.5342930
  22.3804970  61.3911820  87.9454400  19.3928120  70.3293960  78.6948140
  19.0156100  70.8181060  77.9633040  19.6501190  71.0019240  79.3254670
  35.0173370  72.6033510  87.7295930  34.3336890  73.2732620  87.7212600
  35.5567660  72.8014160  86.9640790  32.5532110  74.4477640  86.4441110
  32.5659270  74.0439930  85.5763370  32.0007330  75.2224930  86.3402540
  33.8477530  71.1693860  81.5331280  33.7373860  70.2268190  81.6580700
  33.8445780  71.5309500  82.4194040  29.3897810  66.7959180  80.8893770
  28.4627090  66.7296560  81.1182240  29.5422630  67.7339310  80.7749010
  29.3766890  63.0676180  77.8860930  28.4370560  63.2290140  77.9713390
  29.6950150  63.7861860  77.3396920  35.8979650  67.7494700  87.8639960
  35.0698280  67.8187790  87.3890090  36.4930130  68.3349010  87.3955790
  33.4195100  68.3579480  81.3929020  32.8007520  68.0199030  80.7455320
  33.4019550  67.7139240  82.1008210  32.8621660  64.5364020  88.8094830
  32.4492840  65.3617730  89.0634820  32.1297610  63.9509060  88.6171190
  24.9954450  67.3223920  83.6713500  24.5911450  66.6101170  83.1759400
  25.0817570  66.9777160  84.5601540  25.4636150  71.0091480  85.8352710
  25.1664440  70.4036950  85.1560490  26.4135970  71.0468790  85.7242070
  23.7083070  64.0967130  87.4512540  24.2597660  64.2062470  86.6765790
  24.2226580  64.4704730  88.1667770  24.5554580  70.7473170  92.4860510
  23.6583110  70.9713140  92.7333910  24.5807450  70.8708110  91.5371910
  31.5959800  67.5966290  78.4001770  32.0353080  66.7588720  78.2539590
  32.3088220  68.2295690  78.4865910  25.1806150  73.5608190  93.2703030
  25.1521580  73.9651140  92.4031460  25.0171120  72.6318550  93.1074630
  35.1776940  58.8509100  76.7142810  34.8649600  58.9435930  77.6141880
  35.9389410  59.4290130  76.6640240  21.6959080  66.2168900  81.1720150
  21.5756680  66.9430990  80.5601420  21.3859970  65.4471810  80.6948060
  37.1320970  74.3435290  94.5667200  37.6080690  74.8218180  95.2456280
  37.7528130  74.2752780  93.8412700  20.5792080  71.0884230  83.3894970
  20.1720160  71.2298820  82.5348570  21.4705090  70.8044390  83.1866180
  36.5354220  71.5348140  91.7267210  36.6617280  71.2960020  90.8084390
  36.5775600  70.7032680  92.1989290  24.8513740  75.3030010  81.5017640
  24.6756220  74.3865550  81.2885440  23.9969480  75.6617300  81.7415440
  36.3878230  63.5880600  92.6916950  35.7722500  64.0960270  92.1632410
  36.0674650  62.6878930  92.6342890  19.3903970  70.4298210  89.5183250
  19.5535010  69.9603570  88.7002620  19.8556420  69.9221770  90.1832090
  28.4492550  62.4272490  90.1579140  27.9871920  62.6355510  90.9699080
  28.0470660  61.6131840  89.8549810  33.4497060  63.6481440  91.2875800
  32.5990650  63.3487190  91.6084870  33.2898850  63.8923450  90.3759620
  30.5446770  65.1483190  93.3874590  30.8700180  64.3146940  93.0476820
  31.3327100  65.6711710  93.5352920  27.2781560  59.1814670  79.4349650
  26.6535740  59.1774540  80.1602960  27.1911680  58.3145630  79.0385620
  26.1998640  60.1051300  86.4133420  26.4970970  61.0114130  86.3325440
  26.7484200  59.6170080  85.7992990  23.9536960  64.6837540  82.2825070
  23.7277880  64.4674710  83.1871690  23.1729490  65.1166000  81.9371040
  31.1834720  64.6900910  80.8815720  30.5843610  65.4136710  80.6979340
  31.7314330  64.6277690  80.0992170  26.3936170  65.5823120  92.9485340
  26.2979770  64.6417850  92.7985740  27.2368150  65.8038190  92.5533410
  29.7899590  63.3264450  82.9119000  30.1829160  63.6436650  82.0987690
  30.1516440  62.4476330  83.0263520  21.5246710  61.9936790  91.1019120
  21.1310100  62.8412000  91.3091900  20.8365110  61.3563160  91.2927760
  28.0991760  62.0771760  94.1715860  27.4090080  61.8843960  94.8061950
  28.8424060  62.3606400  94.7040160  19.0133990  63.8585370  76.3451920
  18.9308660  64.8016130  76.4866910  18.6617050  63.7160280  75.4664270
  26.8132120  62.5924400  85.4122270  26.8168180  62.1514350  84.5626810
  27.7083240  62.9141730  85.5194090  22.6634500  62.4750890  84.3716480
  22.3234550  62.9526120  85.1283530  21.9011820  62.0216010  84.0117580
  26.8752270  63.5936480  78.4029030  26.9965090  63.5522960  79.3514850
  26.4900780  64.4560630  78.2475760  25.8873770  65.9037620  77.8012330
  25.3190670  65.4555870  77.1748240  26.5962770  66.2630400  77.2677480
  20.9642950  69.8049640  91.6779060  20.5797740  69.1643310  92.2762020
  21.2755140  70.5085760  92.2473790  19.9780580  61.3969870  83.2881150
  19.6927500  61.0325540  84.1259770  19.9159440  60.6650330  82.6744290
  23.4321250  69.8995810  80.0738740  22.6583510  69.3593430  79.9137460
  24.1615880  69.3802420  79.7356500  34.1909230  68.8961170  85.8665130
  34.9108350  69.3916460  85.4761240  33.9891050  68.2179060  85.2219000
  29.6519170  60.2899130  80.0094520  28.8383780  59.7912300  79.9339830
  29.4581120  61.1297380  79.5930870  29.5728030  68.9670230  91.7534130
  29.5065340  68.0465900  91.4991720  28.9433170  69.0645670  92.4678770
  32.3667560  64.6618780  78.3056680  33.2547180  64.9736010  78.1308020
  32.3372650  63.7891030  77.9137260  23.4758650  69.5676190  83.7117550
  23.9937320  68.7644450  83.6574440  23.0242670  69.5055330  84.5534380
  28.3628150  70.8342470  78.9844850  28.7043850  71.5784700  78.4888170
  27.5340860  71.1473590  79.3469680  24.1616310  66.9921800  93.5082800
  23.8616450  67.1378980  92.6110620  24.9327550  66.4327090  93.4156190
  34.6381830  65.9730620  77.7736540  34.5545550  66.4044840  76.9232980
  35.3576020  66.4328970  78.2063360  35.7155970  68.4298140  90.8506510
  34.9904160  69.0226920  90.6535900  36.2431430  68.4221680  90.0519880
  27.3318840  70.9156000  81.7560770  28.0189970  71.4625210  82.1368360
  26.5451260  71.4596730  81.7910380  19.4711240  66.5328820  77.2477850
  20.3406090  66.8153620  77.5313770  18.9801560  67.3464690  77.1326660
  26.6346050  67.9202030  81.3686130  27.0908830  68.7307280  81.5946320
  26.2834260  67.6025170  82.2004620  19.8382490  75.7456200  77.8139480
  20.1980130  76.3445540  77.1596750  19.6974830  76.2916090  78.5874510
  33.6382710  69.6361280  78.7009180  33.3504410  70.0973970  79.4887060
  34.4334880  69.1759050  78.9693400  27.8136940  72.2826950  93.6880000
  27.4933810  71.5636190  94.2325690  27.1395300  72.9582020  93.7616060
  25.8551110  73.1287400  78.6313150  25.8461210  73.8617090  78.0157660
  24.9349470  72.8818980  78.7240110  21.4557750  68.3502290  79.3759910
  20.8485700  69.0901190  79.3855210  21.9307100  68.4401650  78.5498110
  34.3952570  61.4710050  79.8604360  33.7665730  61.5755720  79.1462590
  33.9004490  61.6906830  80.6498240  26.3636600  63.7496000  81.2762240
  25.6552750  64.2182340  81.7175850  26.6481080  63.0918010  81.9107430
  30.3952030  60.4746660  82.7158030  30.2719810  60.4932790  81.7667540
  31.3436590  60.5225600  82.8356430  24.5671620  62.0581080  78.6512950
  25.4162150  62.4951230  78.5853140  24.2002890  62.3701340  79.4785010
  33.4881400  66.6293840  83.5644520  32.5471540  66.6444070  83.7392210
  33.8025470  65.8429800  84.0104820  23.4663040  68.3113440  77.1248480
  24.2326310  68.1994800  77.6873910  23.5437730  67.6151410  76.4725250
  22.1609800  65.7438510  77.8081370  22.2413390  64.7966020  77.9198770
  23.0529550  66.0745390  77.9142030  35.4906980  73.8002690  85.2398780
  35.6154400  74.6233860  85.7122590  36.3572540  73.5893420  84.8922930
  22.9624510  75.8933900  84.9115910  23.6986990  75.3449360  85.1824480
  23.3465430  76.7589910  84.7721900  19.8469990  71.9607470  80.7857420
  18.9209770  72.2028610  80.7762830  20.3126420  72.7881730  80.6642170
  21.9682790  75.0779970  94.1001490  22.7695520  75.3992020  94.5136890
  21.4534610  74.7175550  94.8221400  26.0726820  75.0664210  76.7341480
  26.8655430  75.3553040  76.2823270  25.5531170  74.6356380  76.0553960
  19.6880600  67.5653430  93.0437540  20.1919620  66.9860710  93.6153770
  18.9488020  67.8493660  93.5813910  26.5904220  70.2867620  76.5983830
  26.4854860  69.6719970  77.3245210  26.4228440  69.7633510  75.8146840
  26.7418540  68.9724420  92.5773060  25.9764210  69.5409420  92.4927730
  26.9234500  68.6800630  91.6841290  29.8306950  69.3487650  77.2025820
  29.2817050  69.7956950  77.8468560  30.4526210  68.8436900  77.7263490
  33.8841890  70.7029750  93.1348080  34.6251360  71.0405510  92.6315540
  33.1214570  70.8721810  92.5817850  21.7203680  65.7083020  93.9387610
  21.7609020  65.4096890  94.8472840  22.5749180  66.1090630  93.7795130
  25.4982070  68.3078570  79.0991120  25.9198490  68.1418440  79.9422510
  25.6232910  67.4978800  78.6046260  23.6609490  64.2875120  91.9062100
  23.1305950  63.7966070  91.2785440  24.3297560  64.7159320  91.3720030
  28.0109710  67.3316180  76.3468220  28.5315370  66.6165200  75.9809370
  28.6578110  67.9702050  76.6468730  32.5587550  68.7544580  91.6703290
  32.9728570  68.9089660  92.5193710  31.6238550  68.8799800  91.8329070
  33.0309720  66.0940740  93.6742440  33.6130490  65.3393060  93.5862920
  33.2071490  66.6248180  92.8973920  24.1481790  61.2537490  91.9859390
  24.0538660  60.6358240  91.2610260  23.5679180  61.9803780  91.7589300
  26.9143230  59.8110730  89.0186780  26.4660530  59.8334990  88.1732330
  26.2808430  59.4129750  89.6157080  29.6566680  66.4381240  91.0237060
  29.7762890  65.8422380  91.7631900  30.5160680  66.4750930  90.6038360
  24.3940970  64.3811800  76.0449280  24.1930030  63.5179160  76.4062620
  24.2233020  64.2945160  75.1070880  25.1710200  75.0118070  90.7556950
  24.6331290  75.7364130  90.4365650  25.4244160  74.5348410  89.9654290
  26.4235450  62.9802590  92.2812880  27.0135140  62.6718440  92.9690700
  25.6055690  62.5082340  92.4372780  31.2428880  62.5968400  92.5145900
  30.5544400  61.9349940  92.4495890  31.9634900  62.1506670  92.9594360
  31.8729280  59.1920030  78.5736160  32.1531570  58.3487930  78.9295580
  31.0995010  59.4243140  79.0874910  23.1923770  61.4812420  76.0327160
  23.4949670  61.4879850  75.1246310  23.9318360  61.1310280  76.5294820
  26.4108700  60.4247040  77.0183360  26.0630700  59.7471030  76.4385810
  26.6121470  59.9636550  77.8326750  22.2153900  70.7854840  76.8656960
  22.6528770  71.3284510  77.5214540  22.7001630  69.9601790  76.8753300
  19.4299700  73.5743870  84.3177220  19.7602710  72.7064930  84.0855860
  19.8590700  73.7802390  85.1482180  24.0261620  71.9052880  81.9779190
  23.7257160  71.7817850  82.8783100  23.9199110  71.0461470  81.5694920
  19.9189910  74.4414460  87.0558850  19.4820900  74.6215260  87.8883000
  20.4867590  75.1989080  86.9140570  35.5552090  73.9431460  91.3436160
  34.9554080  74.0024020  90.6000080  35.6845990  73.0036440  91.4733010
  36.7953540  71.6849280  76.6805870  35.9646500  71.7525930  77.1513100
  36.9725370  72.5753400  76.3772730  36.2510000  68.4296760  79.1840070
  37.0128910  68.9993410  79.2899760  36.2664370  67.8623960  79.9548380
  19.7514340  66.9534690  83.4147730  19.0963180  66.6846330  82.7707430
  20.5892290  66.8439170  82.9649710  37.2569970  69.2846860  84.0282000
  37.6278800  68.5014180  83.6217970  37.8971900  69.9735960  83.8499300
  34.2403730  70.6683440  89.4412320  33.4263570  71.0980600  89.7038110
  34.6477930  71.2801850  88.8281370  36.3029170  68.7231130  76.3412590
  36.5778010  69.6310010  76.2131810  36.1139910  68.6593660  77.2774580
  32.7004780  61.7475980  77.6366220  33.1189660  61.5606960  76.7962880
  32.3940840  60.8955030  77.9469150  36.1994510  66.6600120  81.3342020
  35.8238110  65.8928050  80.9023310  35.4697630  67.0422820  81.8216950
  35.5894130  65.8071640  90.9681540  35.3580220  65.5784390  90.0679490
  35.8498680  66.7271190  90.9226430  20.3406270  64.2496350  91.8609490
  19.4462320  64.2163110  92.2003200  20.8803820  64.4483140  92.6260740
  34.0282200  61.0328070  93.7461240  34.9052380  61.0411470  94.1295240
  34.0403040  60.2958910  93.1353590  18.9652420  64.1633620  79.3573060
  18.0616500  64.4263820  79.1824720  19.4493040  64.4344790  78.5773020
  35.4745470  64.8857610  84.6349260  35.9982950  64.3920260  84.0039430
  36.0604890  65.0207970  85.3796830  35.6535190  64.9697480  88.1568810
  34.7037900  64.9361020  88.2713800  35.8348200  65.8797590  87.9218580
  21.5079630  63.2199160  77.2667440  22.2171330  62.7982380  76.7814720
  20.7919570  63.2874390  76.6350790  21.1553790  59.2738490  76.3070090
  21.8781920  59.8147430  76.6251310  21.4278310  59.0001910  75.4311630
  34.9645440  64.1430960  80.5741670  35.4604560  63.9101830  81.3590550
  34.7661510  63.3042800  80.1579310  36.3932600  62.7791910  83.1079350
  36.2831880  62.6247950  84.0461620  37.1540190  62.2512850  82.8654760
  37.2822870  60.6099830  76.3485490  38.2072180  60.4781010  76.1403780
  37.2598660  60.6892650  77.3021940  37.3561360  61.3810490  78.9742200
  36.5612860  61.3155610  79.5035110  37.5604640  62.3161130  78.9627550
  34.2979780  75.4202040  82.9680590  34.8938850  75.0986610  82.2915010
  34.5557930  74.9473860  83.7593860  22.2042350  71.8519950  93.1171220
  22.1611980  71.4812860  93.9985680  22.3353360  72.7897520  93.2573040
  22.0430380  74.7982200  90.2369000  21.4490700  74.6666900  90.9759040
  22.0354220  73.9620340  89.7711100  21.6742610  72.1640580  89.1877040
  20.9476670  71.5445870  89.1202990  21.7351760  72.5581190  88.3175120
  25.2787710  74.3785580  85.9726450  25.7952730  73.7672940  85.4474710
  25.9285090  74.8814360  86.4637460  29.2360220  59.0084270  87.3791940
  28.4532010  59.4829770  87.6588700  28.9423150  58.1039100  87.2705120
  35.6519860  59.3422610  83.4349850  35.5908260  58.3983830  83.2880870
  36.4311890  59.4502700  83.9803310  19.9572610  75.4814970  82.3973800
  19.7894650  74.8485650  83.0955690  19.0907120  75.6874370  82.0467990
  27.1214440  61.4271020  82.8907970  26.3088950  61.0527910  82.5503850
  27.6256080  60.6716100  83.1929160  31.6239420  58.0913470  84.1291040
  32.2268790  58.6633680  84.6039560  30.8832410  58.6552910  83.9064940
  34.7674020  58.4935030  79.4031320  34.9624650  59.3918480  79.6698750
  33.9803890  58.2622110  79.8964270  21.5635310  74.1748200  79.8423940
  21.0382930  74.5556230  79.1385900  21.4879890  74.7998970  80.5633650
  22.9525780  59.8395800  78.4407630  23.4818540  59.0525600  78.3115580
  23.5854100  60.5186990  78.6743160  25.1463620  59.5770940  81.4953020
  24.5166360  58.8758250  81.6623150  24.6068760  60.3375070  81.2786180
  28.0855570  76.1910170  94.1663630  29.0122880  75.9554440  94.2099590
  28.0706000  77.0182170  93.6849660  24.1628280  76.1230580  78.7173190
  24.8947100  75.8389860  78.1697080  24.4221950  75.8843860  79.6072570
  23.3243070  72.2395310  78.7219520  22.6951950  72.7080410  79.2705350
  23.4390900  71.3944530  79.1565710  34.6533130  75.4180030  93.9904670
  35.4458450  74.9229260  93.7830630  34.9466280  76.0970170  94.5980280
  30.7792790  66.2900970  64.8720720  30.6986840  65.3755580  64.6012430
  30.3657210  66.7868040  64.1660430  28.9110830  68.0679990  66.7529990
  28.1352930  67.5880430  67.0428560  29.5623760  67.3885640  66.5786150
  21.3368610  63.3401690  61.4148140  20.4485310  63.6817660  61.3128020
  21.6209800  63.1402010  60.5228970  19.3001620  65.9407340  67.2987840
  19.8717730  65.1729540  67.2991480  19.3003160  66.2396100  66.3894450
  20.5426490  61.3491700  69.0856770  20.3629330  60.4517450  69.3659530
  20.1406570  61.8963570  69.7603720  29.3824990  63.5507560  66.9869080
  29.7589810  62.6779440  66.8742750  29.2844500  63.8866260  66.0959520
  21.1613160  63.8452200  67.6939110  21.8423270  64.1090570  68.3126510
  20.8461210  63.0053070  68.0277120  25.3537730  64.8919560  66.7811700
  25.8615950  65.3900530  67.4216720  25.8850970  64.1154760  66.6051060
  23.6373830  59.5318120  71.0475120  23.6392270  60.0490510  70.2421020
  22.8078140  59.0548300  71.0245050  30.0244920  69.6437430  62.5465020
  29.4062190  70.1086880  61.9827740  30.5368170  70.3364910  62.9634530
  23.3189160  61.2428080  69.0545570  23.6605970  62.0870130  68.7599440
  22.3804970  61.3911820  69.1710910  19.3928120  70.3293960  59.9204650
  19.0156100  70.8181060  59.1889550  19.6501190  71.0019240  60.5511180
  35.0173370  72.6033510  68.9552440  34.3336890  73.2732620  68.9469110
  35.5567660  72.8014160  68.1897300  32.5532110  74.4477640  67.6697620
  32.5659270  74.0439930  66.8019880  32.0007330  75.2224930  67.5659050
  33.8477530  71.1693860  62.7587790  33.7373860  70.2268190  62.8837210
  33.8445780  71.5309500  63.6450550  31.9517550  69.3507480  68.9980230
  32.3686340  69.1367590  68.1633690  32.6757370  69.6080270  69.5688850
  29.3897810  66.7959180  62.1150280  28.4627090  66.7296560  62.3438750
  29.5422630  67.7339310  62.0005520  33.4195100  68.3579480  62.6185530
  32.8007520  68.0199030  61.9711830  33.4019550  67.7139240  63.3264720
  32.8621660  64.5364020  70.0351340  32.4492840  65.3617730  70.2891330
  32.1297610  63.9509060  69.8427700  23.7083070  64.0967130  68.6769050
  24.2597660  64.2062470  67.9022300  24.2226580  64.4704730  69.3924280
  33.5521760  74.5823350  70.7232320  33.0752320  75.3895540  70.5304930
  32.8683550  73.9301680  70.8758530  24.5554580  70.7473170  73.7117020
  23.6583110  70.9713140  73.9590420  24.5807450  70.8708110  72.7628420
  23.3825800  67.6186490  72.2874390  23.2433570  68.4909290  72.6561790
  22.5007160  67.2759300  72.1422330  25.1806150  73.5608190  74.4959540
  25.1521580  73.9651140  73.6287970  25.0171120  72.6318550  74.3331140
  35.1776940  58.8509100  57.9399320  34.8649600  58.9435930  58.8398390
  35.9389410  59.4290130  57.8896750  21.6959080  66.2168900  62.3976660
  21.5756680  66.9430990  61.7857930  21.3859970  65.4471810  61.9204570
  19.3344450  69.3884040  68.2045300  19.4124870  69.5232810  67.2601020
  19.9486130  68.6799930  68.3973420  36.5354220  71.5348140  72.9523720
  36.6617280  71.2960020  72.0340900  36.5775600  70.7032680  73.4245800
  32.3725360  75.5231480  60.9502530  32.2126500  75.2334420  61.8484360
  32.2072070  74.7471610  60.4147760  32.0751490  73.0319040  59.5100530
  31.3816650  73.0296330  58.8502810  32.8174350  72.6078360  59.0794700
  36.3878230  63.5880600  73.9173460  35.7722500  64.0960270  73.3888920
  36.0674650  62.6878930  73.8599400  19.3903970  70.4298210  70.7439760
  19.5535010  69.9603570  69.9259130  19.8556420  69.9221770  71.4088600
  28.4492550  62.4272490  71.3835650  27.9871920  62.6355510  72.1955590
  28.0470660  61.6131840  71.0806320  33.4497060  63.6481440  72.5132310
  32.5990650  63.3487190  72.8341380  33.2898850  63.8923450  71.6016130
  30.5446770  65.1483190  74.6131100  30.8700180  64.3146940  74.2733330
  31.3327100  65.6711710  74.7609430  26.3936170  65.5823120  74.1741850
  26.2979770  64.6417850  74.0242250  27.2368150  65.8038190  73.7789920
  21.5246710  61.9936790  72.3275630  21.1310100  62.8412000  72.5348410
  20.8365110  61.3563160  72.5184270  28.0991760  62.0771760  75.3972370
  27.4090080  61.8843960  76.0318460  28.8424060  62.3606400  75.9296670
  19.0133990  63.8585370  57.5708430  18.9308660  64.8016130  57.7123420
  18.6617050  63.7160280  56.6920780  30.3754730  65.9170200  68.2326290
  29.6435850  66.4257010  68.5816390  29.9779070  65.1000180  67.9315070
  30.8380640  61.3703880  67.6449230  30.8553380  61.8212530  68.4891080
  30.5896220  60.4709520  67.8582670  25.8873770  65.9037620  59.0268840
  25.3190670  65.4555870  58.4004750  26.5962770  66.2630400  58.4933990
  20.9642950  69.8049640  72.9035570  20.5797740  69.1643310  73.5018530
  21.2755140  70.5085760  73.4730300  27.1140090  66.6526180  68.3844190
  27.4810220  66.1784750  69.1305530  26.9245150  67.5267750  68.7252530
  19.9780580  61.3969870  64.5137660  19.6927500  61.0325540  65.3516280
  19.9159440  60.6650330  63.9000800  24.9039460  65.6934820  70.7028400
  24.5996530  66.5726800  70.9278760  25.8585920  65.7534610  70.7385840
  34.1909230  68.8961170  67.0921640  34.9108350  69.3916460  66.7017750
  33.9891050  68.2179060  66.4475510  28.3628150  70.8342470  60.2101360
  28.7043850  71.5784700  59.7144680  27.5340860  71.1473590  60.5726190
  20.9603190  66.5337560  71.8499760  20.6018130  67.1991410  72.4373100
  20.6657750  65.7021110  72.2212380  24.1616310  66.9921800  74.7339310
  23.8616450  67.1378980  73.8367130  24.9327550  66.4327090  74.6412700
  35.7155970  68.4298140  72.0763020  34.9904160  69.0226920  71.8792410
  36.2431430  68.4221680  71.2776390  31.2455560  70.1558310  65.5746870
  31.5979380  69.5586440  64.9148240  30.3617890  69.8302540  65.7455120
  19.4711240  66.5328820  58.4734360  20.3406090  66.8153620  58.7570280
  18.9801560  67.3464690  58.3583170  26.6346050  67.9202030  62.5942640
  27.0908830  68.7307280  62.8202830  26.2834260  67.6025170  63.4261130
  22.5357830  58.2639680  63.0665160  22.4072460  58.2557580  64.0150080
  21.7119850  58.6022770  62.7156170  19.5351760  60.0230800  72.5271860
  18.8210280  60.2227720  73.1324470  19.9546800  59.2470370  72.8986660
  19.8224350  74.0111060  73.5138390  19.9315470  73.0705800  73.3733780
  19.1704910  74.2765810  72.8652120  25.8551110  73.1287400  59.8569660
  25.8461210  73.8617090  59.2414170  24.9349470  72.8818980  59.9496620
  21.4557750  68.3502290  60.6016420  20.8485700  69.0901190  60.6111720
  21.9307100  68.4401650  59.7754620  31.0290540  62.5153110  70.2773310
  31.3971360  61.6948320  70.6052880  30.1688740  62.5755000  70.6928960
  28.8410710  73.1915640  58.5194850  28.9422690  72.9879630  57.5896830
  27.9412450  72.9373920  58.7242630  27.9892530  65.1692700  70.5011280
  28.4877780  65.6438520  71.1663130  28.1315480  64.2456220  70.7081310
  24.5671620  62.0581080  59.8769460  25.4162150  62.4951230  59.8109650
  24.2002890  62.3701340  60.7041520  35.1959390  61.3860660  71.3439670
  34.6932990  62.1266060  71.6833480  36.0116050  61.7744660  71.0276460
  23.4663040  68.3113440  58.3504990  24.2326310  68.1994800  58.9130420
  23.5437730  67.6151410  57.6981760  22.1609800  65.7438510  59.0337880
  22.2413390  64.7966020  59.1455280  23.0529550  66.0745390  59.1398540
  35.4906980  73.8002690  66.4655290  35.6154400  74.6233860  66.9379100
  36.3572540  73.5893420  66.1179440  21.9682790  75.0779970  75.3258000
  22.7695520  75.3992020  75.7393400  21.4534610  74.7175550  76.0477910
  26.0726820  75.0664210  57.9597990  26.8655430  75.3553040  57.5079780
  25.5531170  74.6356380  57.2810470  30.8047420  71.1859840  75.2733410
  30.1985580  71.2091440  74.5329160  30.5001530  70.4542880  75.8100660
  19.6880600  67.5653430  74.2694050  20.1919620  66.9860710  74.8410280
  18.9488020  67.8493660  74.8070420  26.5904220  70.2867620  57.8240340
  26.4854860  69.6719970  58.5501720  26.4228440  69.7633510  57.0403350
  26.7418540  68.9724420  73.8029570  25.9764210  69.5409420  73.7184240
  26.9234500  68.6800630  72.9097800  33.8841890  70.7029750  74.3604590
  34.6251360  71.0405510  73.8572050  33.1214570  70.8721810  73.8074360
  21.7203680  65.7083020  75.1644120  21.7609020  65.4096890  76.0729350
  22.5749180  66.1090630  75.0051640  25.4982070  68.3078570  60.3247630
  25.9198490  68.1418440  61.1679020  25.6232910  67.4978800  59.8302770
  23.6609490  64.2875120  73.1318610  23.1305950  63.7966070  72.5041950
  24.3297560  64.7159320  72.5976540  28.0109710  67.3316180  57.5724730
  28.5315370  66.6165200  57.2065880  28.6578110  67.9702050  57.8725240
  32.5587550  68.7544580  72.8959800  32.9728570  68.9089660  73.7450220
  31.6238550  68.8799800  73.0585580  33.0309720  66.0940740  74.8998950
  33.6130490  65.3393060  74.8119430  33.2071490  66.6248180  74.1230430
  24.1481790  61.2537490  73.2115900  24.0538660  60.6358240  72.4866770
  23.5679180  61.9803780  72.9845810  26.9143230  59.8110730  70.2443290
  26.4660530  59.8334990  69.3988840  26.2808430  59.4129750  70.8413590
  29.6566680  66.4381240  72.2493570  29.7762890  65.8422380  72.9888410
  30.5160680  66.4750930  71.8294870  31.9954580  66.9918430  70.8256080
  31.4689800  67.5161050  70.2221220  32.3385920  67.6245820  71.4565810
  24.3940970  64.3811800  57.2705790  24.1930030  63.5179160  57.6319130
  24.2233020  64.2945160  56.3327390  26.4235450  62.9802590  73.5069390
  27.0135140  62.6718440  74.1947210  25.6055690  62.5082340  73.6629290
  31.2428880  62.5968400  73.7402410  30.5544400  61.9349940  73.6752400
  31.9634900  62.1506670  74.1850870  23.1923770  61.4812420  57.2583670
  23.4949670  61.4879850  56.3502820  23.9318360  61.1310280  57.7551330
  28.0272410  76.2469280  72.2400110  27.9531110  77.1504420  72.5472480
  27.1251250  75.9281180  72.2122180  26.4108700  60.4247040  58.2439870
  26.0630700  59.7471030  57.6642320  26.6121470  59.9636550  59.0583260
  22.2153900  70.7854840  58.0913470  22.6528770  71.3284510  58.7471050
  22.7001630  69.9601790  58.1009810  19.9189910  74.4414460  68.2815360
  19.4820900  74.6215260  69.1139510  20.4867590  75.1989080  68.1397080
  35.5552090  73.9431460  72.5692670  34.9554080  74.0024020  71.8256590
  35.6845990  73.0036440  72.6989520  19.7514340  66.9534690  64.6404240
  19.0963180  66.6846330  63.9963940  20.5892290  66.8439170  64.1906220
  37.2569970  69.2846860  65.2538510  37.6278800  68.5014180  64.8474480
  37.8971900  69.9735960  65.0755810  34.2403730  70.6683440  70.6668830
  33.4263570  71.0980600  70.9294620  34.6477930  71.2801850  70.0537880
  36.1994510  66.6600120  62.5598530  35.8238110  65.8928050  62.1279820
  35.4697630  67.0422820  63.0473460  20.7890270  67.3387260  69.1807580
  21.1563310  67.2514660  70.0603600  20.2201090  66.5753810  69.0814440
  35.5894130  65.8071640  72.1938050  35.3580220  65.5784390  71.2936000
  35.8498680  66.7271190  72.1482940  20.3406270  64.2496350  73.0866000
  19.4462320  64.2163110  73.4259710  20.8803820  64.4483140  73.8517250
  34.0282200  61.0328070  74.9717750  34.9052380  61.0411470  75.3551750
  34.0403040  60.2958910  74.3610100  18.9652420  64.1633620  60.5829570
  18.0616500  64.4263820  60.4081230  19.4493040  64.4344790  59.8029530
  21.5079630  63.2199160  58.4923950  22.2171330  62.7982380  58.0071230
  20.7919570  63.2874390  57.8607300  21.1553790  59.2738490  57.5326600
  21.8781920  59.8147430  57.8507820  21.4278310  59.0001910  56.6568140
  20.8445980  58.5244680  67.4349220  21.4922170  57.9742060  66.9944380
  21.2647820  58.7787830  68.2565030  37.2822870  60.6099830  57.5742000
  38.2072180  60.4781010  57.3660290  37.2598660  60.6892650  58.5278450
  37.3561360  61.3810490  60.1998710  36.5612860  61.3155610  60.7291620
  37.5604640  62.3161130  60.1884060  20.5977980  58.6800350  70.1774540
  20.2492800  59.1364170  70.9432720  20.2665680  57.7857480  70.2596970
  22.2042350  71.8519950  74.3427730  22.1611980  71.4812860  75.2242190
  22.3353360  72.7897520  74.4829550  28.1102800  59.8712230  73.6993960
  28.0491690  60.4634060  74.4489370  29.0503180  59.7638190  73.5544220
  30.7477360  59.5282290  73.3386250  31.3617770  59.8461580  72.6767330
  31.2926920  59.0430880  73.9582110  37.1652540  75.4273920  70.7448090
  36.6710820  75.8242790  70.0275220  36.5565830  74.8023130  71.1385370
  21.2698620  58.2076550  73.4525310  21.8181610  58.0264600  72.6891420
  21.3353930  57.4170660  73.9881620  22.0430380  74.7982200  71.4625510
  21.4490700  74.6666900  72.2015550  22.0354220  73.9620340  70.9967610
  31.4885400  58.0914430  69.6655540  30.6145240  58.4249540  69.4628470
  31.3796150  57.6187610  70.4907410  32.3957380  60.2985300  71.0497260
  32.0670740  59.4837060  70.6698990  33.3439680  60.2555110  70.9262950
  34.8491990  76.0697340  68.0234830  34.3894960  76.8213150  67.6492850
  34.2204450  75.3503810  67.9649630  21.6742610  72.1640580  70.4133550
  20.9476670  71.5445870  70.3459500  21.7351760  72.5581190  69.5431630
  29.2360220  59.0084270  68.6048450  28.4532010  59.4829770  68.8845210
  28.9423150  58.1039100  68.4961630  22.9525780  59.8395800  59.6664140
  23.4818540  59.0525600  59.5372090  23.5854100  60.5186990  59.8999670
  28.0855570  76.1910170  75.3920140  29.0122880  75.9554440  75.4356100
  28.0706000  77.0182170  74.9106170  25.2719180  58.8554920  75.1562020
  24.9903450  59.3588520  74.3922840  25.6538880  58.0576670  74.7904150
  24.1628280  76.1230580  59.9429700  24.8947100  75.8389860  59.3953590
  24.4221950  75.8843860  60.8329080  23.3243070  72.2395310  59.9476030
  22.6951950  72.7080410  60.4961860  23.4390900  71.3944530  60.3822220
  31.8734640  58.2708500  75.7342490  31.7600090  58.5903110  76.6294010
  32.6904380  58.6721010  75.4379770  30.7792790  66.2900970  46.0977230
  30.6986840  65.3755580  45.8268940  30.3657210  66.7868040  45.3916940
  28.9110830  68.0679990  47.9786500  28.1352930  67.5880430  48.2685070
  29.5623760  67.3885640  47.8042660  22.9276660  68.3799800  48.8562260
  22.0961540  68.1248510  49.2558770  23.5357640  68.4510570  49.5920180
  32.9318260  72.4740180  46.7585630  32.4699790  71.7027420  47.0872800
  33.7443810  72.5006250  47.2638080  22.9077920  72.4139890  49.0520280
  23.2105960  71.5237630  48.8730500  23.6521510  72.9710110  48.8242530
  19.3001620  65.9407340  48.5244350  19.8717730  65.1729540  48.5247990
  19.3003160  66.2396100  47.6150960  29.1581570  74.7598190  46.3789620
  28.5393010  75.2155690  45.8084060  30.0133350  74.9149650  45.9779320
  28.3519820  70.7437180  47.9856660  28.2828100  69.8027120  47.8245790
  29.1139680  70.8338590  48.5579230  20.5426490  61.3491700  50.3113280
  20.3629330  60.4517450  50.5916040  20.1406570  61.8963570  50.9860230
  29.3824990  63.5507560  48.2125590  29.7589810  62.6779440  48.0999260
  29.2844500  63.8866260  47.3216030  21.1613160  63.8452200  48.9195620
  21.8423270  64.1090570  49.5383020  20.8461210  63.0053070  49.2533630
  25.3537730  64.8919560  48.0068210  25.8615950  65.3900530  48.6473230
  25.8850970  64.1154760  47.8307570  23.6373830  59.5318120  52.2731630
  23.6392270  60.0490510  51.4677530  22.8078140  59.0548300  52.2501560
  30.0244920  69.6437430  43.7721530  29.4062190  70.1086880  43.2084250
  30.5368170  70.3364910  44.1891040  24.8876680  69.1713300  50.4505130
  24.5546060  69.7982220  51.0926200  25.0643360  69.6975180  49.6706800
  23.3189160  61.2428080  50.2802080  23.6605970  62.0870130  49.9855950
  22.3804970  61.3911820  50.3967420  24.0995780  71.1394100  52.2654310
  24.7169780  71.8145180  51.9838760  23.2388900  71.5482080  52.1741810
  19.3928120  70.3293960  41.1461160  19.0156100  70.8181060  40.4146060
  19.6501190  71.0019240  41.7767690  35.0173370  72.6033510  50.1808950
  34.3336890  73.2732620  50.1725620  35.5567660  72.8014160  49.4153810
  32.5532110  74.4477640  48.8954130  32.5659270  74.0439930  48.0276390
  32.0007330  75.2224930  48.7915560  33.8477530  71.1693860  43.9844300
  33.7373860  70.2268190  44.1093720  33.8445780  71.5309500  44.8707060
  31.9517550  69.3507480  50.2236740  32.3686340  69.1367590  49.3890200
  32.6757370  69.6080270  50.7945360  29.3897810  66.7959180  43.3406790
  28.4627090  66.7296560  43.5695260  29.5422630  67.7339310  43.2262030
  29.3766890  63.0676180  40.3373950  28.4370560  63.2290140  40.4226410
  29.6950150  63.7861860  39.7909940  35.8979650  67.7494700  50.3152980
  35.0698280  67.8187790  49.8403110  36.4930130  68.3349010  49.8468810
  33.4195100  68.3579480  43.8442040  32.8007520  68.0199030  43.1968340
  33.4019550  67.7139240  44.5521230  32.8621660  64.5364020  51.2607850
  32.4492840  65.3617730  51.5147840  32.1297610  63.9509060  51.0684210
  25.4636150  71.0091480  48.2865730  25.1664440  70.4036950  47.6073510
  26.4135970  71.0468790  48.1755090  23.7083070  64.0967130  49.9025560
  24.2597660  64.2062470  49.1278810  24.2226580  64.4704730  50.6180790
  33.5521760  74.5823350  51.9488830  33.0752320  75.3895540  51.7561440
  32.8683550  73.9301680  52.1015040  24.5554580  70.7473170  54.9373530
  23.6583110  70.9713140  55.1846930  24.5807450  70.8708110  53.9884930
  23.3825800  67.6186490  53.5130900  23.2433570  68.4909290  53.8818300
  22.5007160  67.2759300  53.3678840  29.7055180  72.5362360  44.8196030
  30.1451090  73.2786690  44.4051420  29.6442070  72.7788930  45.7434990
  25.1806150  73.5608190  55.7216050  25.1521580  73.9651140  54.8544480
  25.0171120  72.6318550  55.5587650  35.1776940  58.8509100  39.1655830
  34.8649600  58.9435930  40.0654900  35.9389410  59.4290130  39.1153260
  37.1320970  74.3435290  57.0180220  37.6080690  74.8218180  57.6969300
  37.7528130  74.2752780  56.2925720  19.3344450  69.3884040  49.4301810
  19.4124870  69.5232810  48.4857530  19.9486130  68.6799930  49.6229930
  20.5792080  71.0884230  45.8407990  20.1720160  71.2298820  44.9861590
  21.4705090  70.8044390  45.6379200  36.5354220  71.5348140  54.1780230
  36.6617280  71.2960020  53.2597410  36.5775600  70.7032680  54.6502310
  30.3970960  75.2376140  52.7475040  30.9115630  75.1484150  53.5497470
  29.5540040  75.5835840  53.0402950  31.6401420  74.6581750  44.8105530
  32.0958370  73.8771130  45.1244150  31.9793940  75.3688570  45.3546710
  36.3878230  63.5880600  55.1429970  35.7722500  64.0960270  54.6145430
  36.0674650  62.6878930  55.0855910  19.3903970  70.4298210  51.9696270
  19.5535010  69.9603570  51.1515640  19.8556420  69.9221770  52.6345110
  24.1622740  59.5603970  47.0056840  23.7190890  60.3413510  46.6741360
  24.7207730  59.8833860  47.7127780  28.4492550  62.4272490  52.6092160
  27.9871920  62.6355510  53.4212100  28.0470660  61.6131840  52.3062830
  33.4497060  63.6481440  53.7388820  32.5990650  63.3487190  54.0597890
  33.2898850  63.8923450  52.8272640  30.5446770  65.1483190  55.8387610
  30.8700180  64.3146940  55.4989840  31.3327100  65.6711710  55.9865940
  26.1998640  60.1051300  48.8646440  26.4970970  61.0114130  48.7838460
  26.7484200  59.6170080  48.2506010  31.1834720  64.6900910  43.3328740
  30.5843610  65.4136710  43.1492360  31.7314330  64.6277690  42.5505190
  26.3936170  65.5823120  55.3998360  26.2979770  64.6417850  55.2498760
  27.2368150  65.8038190  55.0046430  21.5246710  61.9936790  53.5532140
  21.1310100  62.8412000  53.7604920  20.8365110  61.3563160  53.7440780
  28.0991760  62.0771760  56.6228880  27.4090080  61.8843960  57.2574970
  28.8424060  62.3606400  57.1553180  18.8263760  59.9165250  47.5862220
  18.5376810  60.4868110  48.2987200  19.5709520  59.4369700  47.9493450
  19.0133990  63.8585370  38.7964940  18.9308660  64.8016130  38.9379930
  18.6617050  63.7160280  37.9177290  30.3754730  65.9170200  49.4582800
  29.6435850  66.4257010  49.8072900  29.9779070  65.1000180  49.1571580
  22.6634500  62.4750890  46.8229500  22.3234550  62.9526120  47.5796550
  21.9011820  62.0216010  46.4630600  26.8752270  63.5936480  40.8542050
  26.9965090  63.5522960  41.8027870  26.4900780  64.4560630  40.6988780
  34.2651390  58.7836060  54.7092120  34.5897160  58.0525720  55.2350100
  34.3007900  58.4649700  53.8073110  20.9642950  69.8049640  54.1292080
  20.5797740  69.1643310  54.7275040  21.2755140  70.5085760  54.6986810
  27.1140090  66.6526180  49.6100700  27.4810220  66.1784750  50.3562040
  26.9245150  67.5267750  49.9509040  19.9780580  61.3969870  45.7394170
  19.6927500  61.0325540  46.5772790  19.9159440  60.6650330  45.1257310
  24.9039460  65.6934820  51.9284910  24.5996530  66.5726800  52.1535270
  25.8585920  65.7534610  51.9642350  34.1909230  68.8961170  48.3178150
  34.9108350  69.3916460  47.9274260  33.9891050  68.2179060  47.6732020
  29.5728030  68.9670230  54.2047150  29.5065340  68.0465900  53.9504740
  28.9433170  69.0645670  54.9191790  32.3667560  64.6618780  40.7569700
  33.2547180  64.9736010  40.5821040  32.3372650  63.7891030  40.3650280
  23.4758650  69.5676190  46.1630570  23.9937320  68.7644450  46.1087460
  23.0242670  69.5055330  47.0047400  28.3628150  70.8342470  41.4357870
  28.7043850  71.5784700  40.9401190  27.5340860  71.1473590  41.7982700
  20.9603190  66.5337560  53.0756270  20.6018130  67.1991410  53.6629610
  20.6657750  65.7021110  53.4468890  24.1616310  66.9921800  55.9595820
  23.8616450  67.1378980  55.0623640  24.9327550  66.4327090  55.8669210
  29.5044760  71.7890800  53.9550950  29.5189300  70.8571760  53.7369860
  28.7969860  71.8750560  54.5940720  35.7155970  68.4298140  53.3019530
  34.9904160  69.0226920  53.1048920  36.2431430  68.4221680  52.5032900
  35.6669080  72.8272880  42.9531690  35.0245240  72.1728500  43.2275410
  35.2799740  73.2327970  42.1772360  31.2455560  70.1558310  46.8003380
  31.5979380  69.5586440  46.1404750  30.3617890  69.8302540  46.9711630
  27.3318840  70.9156000  44.2073790  28.0189970  71.4625210  44.5881380
  26.5451260  71.4596730  44.2423400  28.9378660  73.4308370  51.0491450
  29.5820880  73.6367750  51.7264870  29.3008100  72.6696770  50.5962300
  22.5357830  58.2639680  44.2921670  22.4072460  58.2557580  45.2406590
  21.7119850  58.6022770  43.9412680  30.2110740  71.4340720  49.7668900
  30.8532970  70.7333880  49.8801070  30.7360090  72.2139160  49.5865790
  31.9848360  72.2335620  52.9704960  32.3204600  72.8202310  53.6482880
  31.0648700  72.1028330  53.2002750  19.8382490  75.7456200  40.2652500
  20.1980130  76.3445540  39.6109770  19.6974830  76.2916090  41.0387530
  19.5351760  60.0230800  53.7528370  18.8210280  60.2227720  54.3580980
  19.9546800  59.2470370  54.1243170  19.8224350  74.0111060  54.7394900
  19.9315470  73.0705800  54.5990290  19.1704910  74.2765810  54.0908630
  27.8136940  72.2826950  56.1393020  27.4933810  71.5636190  56.6838710
  27.1395300  72.9582020  56.2129080  25.8551110  73.1287400  41.0826170
  25.8461210  73.8617090  40.4670680  24.9349470  72.8818980  41.1753130
  31.0290540  62.5153110  51.5029820  31.3971360  61.6948320  51.8309390
  30.1688740  62.5755000  51.9185470  28.8410710  73.1915640  39.7451360
  28.9422690  72.9879630  38.8153340  27.9412450  72.9373920  39.9499140
  27.9892530  65.1692700  51.7267790  28.4877780  65.6438520  52.3919640
  28.1315480  64.2456220  51.9337820  24.5671620  62.0581080  41.1025970
  25.4162150  62.4951230  41.0366160  24.2002890  62.3701340  41.9298030
  33.4881400  66.6293840  46.0157540  32.5471540  66.6444070  46.1905230
  33.8025470  65.8429800  46.4617840  35.4906980  73.8002690  47.6911800
  35.6154400  74.6233860  48.1635610  36.3572540  73.5893420  47.3435950
  19.8469990  71.9607470  43.2370440  18.9209770  72.2028610  43.2275850
  20.3126420  72.7881730  43.1155190  21.9682790  75.0779970  56.5514510
  22.7695520  75.3992020  56.9649910  21.4534610  74.7175550  57.2734420
  26.0726820  75.0664210  39.1854500  26.8655430  75.3553040  38.7336290
  25.5531170  74.6356380  38.5066980  30.8047420  71.1859840  56.4989920
  30.1985580  71.2091440  55.7585670  30.5001530  70.4542880  57.0357170
  32.2347790  74.9140130  55.1099330  33.1869540  74.8298150  55.0599570
  32.0876010  75.5781840  55.7833120  19.6880600  67.5653430  55.4950560
  20.1919620  66.9860710  56.0666790  18.9488020  67.8493660  56.0326930
  26.5904220  70.2867620  39.0496850  26.4854860  69.6719970  39.7758230
  26.4228440  69.7633510  38.2659860  26.7418540  68.9724420  55.0286080
  25.9764210  69.5409420  54.9440750  26.9234500  68.6800630  54.1354310
  29.8306950  69.3487650  39.6538840  29.2817050  69.7956950  40.2981580
  30.4526210  68.8436900  40.1776510  21.7203680  65.7083020  56.3900630
  21.7609020  65.4096890  57.2985860  22.5749180  66.1090630  56.2308150
  23.6609490  64.2875120  54.3575120  23.1305950  63.7966070  53.7298460
  24.3297560  64.7159320  53.8233050  28.0109710  67.3316180  38.7981240
  28.5315370  66.6165200  38.4322390  28.6578110  67.9702050  39.0981750
  24.1481790  61.2537490  54.4372410  24.0538660  60.6358240  53.7123280
  23.5679180  61.9803780  54.2102320  26.9143230  59.8110730  51.4699800
  26.4660530  59.8334990  50.6245350  26.2808430  59.4129750  52.0670100
  27.3202780  68.7065060  52.0912240  27.7390890  69.5497790  51.9188480
  26.4011410  68.8437100  51.8619020  29.6566680  66.4381240  53.4750080
  29.7762890  65.8422380  54.2144920  30.5160680  66.4750930  53.0551380
  31.9954580  66.9918430  52.0512590  31.4689800  67.5161050  51.4477730
  32.3385920  67.6245820  52.6822320  25.1710200  75.0118070  53.2069970
  24.6331290  75.7364130  52.8878670  25.4244160  74.5348410  52.4167310
  26.4235450  62.9802590  54.7325900  27.0135140  62.6718440  55.4203720
  25.6055690  62.5082340  54.8885800  31.2428880  62.5968400  54.9658920
  30.5544400  61.9349940  54.9008910  31.9634900  62.1506670  55.4107380
  31.8729280  59.1920030  41.0249180  32.1531570  58.3487930  41.3808600
  31.0995010  59.4243140  41.5387930  23.1923770  61.4812420  38.4840180
  23.4949670  61.4879850  37.5759330  23.9318360  61.1310280  38.9807840
  28.0272410  76.2469280  53.4656620  27.9531110  77.1504420  53.7728990
  27.1251250  75.9281180  53.4378690  26.4108700  60.4247040  39.4696380
  26.0630700  59.7471030  38.8898830  26.6121470  59.9636550  40.2839770
  28.5757740  75.4127790  41.0882980  29.4708530  75.7512760  41.1101740
  28.6075370  74.6907200  40.4607260  22.2153900  70.7854840  39.3169980
  22.6528770  71.3284510  39.9727560  22.7001630  69.9601790  39.3266320
  19.4299700  73.5743870  46.7690240  19.7602710  72.7064930  46.5368880
  19.8590700  73.7802390  47.5995200  19.9189910  74.4414460  49.5071870
  19.4820900  74.6215260  50.3396020  20.4867590  75.1989080  49.3653590
  35.5552090  73.9431460  53.7949180  34.9554080  74.0024020  53.0513100
  35.6845990  73.0036440  53.9246030  34.2403730  70.6683440  51.8925340
  33.4263570  71.0980600  52.1551130  34.6477930  71.2801850  51.2794390
  32.7004780  61.7475980  40.0879240  33.1189660  61.5606960  39.2475900
  32.3940840  60.8955030  40.3982170  20.7890270  67.3387260  50.4064090
  21.1563310  67.2514660  51.2860110  20.2201090  66.5753810  50.3070950
  35.5894130  65.8071640  53.4194560  35.3580220  65.5784390  52.5192510
  35.8498680  66.7271190  53.3739450  20.3406270  64.2496350  54.3122510
  19.4462320  64.2163110  54.6516220  20.8803820  64.4483140  55.0773760
  34.0282200  61.0328070  56.1974260  34.9052380  61.0411470  56.5808260
  34.0403040  60.2958910  55.5866610  35.6535190  64.9697480  50.6081830
  34.7037900  64.9361020  50.7226820  35.8348200  65.8797590  50.3731600
  21.1553790  59.2738490  38.7583110  21.8781920  59.8147430  39.0764330
  21.4278310  59.0001910  37.8824650  20.8445980  58.5244680  48.6605730
  21.4922170  57.9742060  48.2200890  21.2647820  58.7787830  49.4821540
  34.7398320  58.7186040  52.0175370  35.3770540  59.3320180  52.3834560
  34.8873210  58.7546700  51.0724600  37.2822870  60.6099830  38.7998510
  38.2072180  60.4781010  38.5916800  37.2598660  60.6892650  39.7534960
  34.2979780  75.4202040  45.4193610  34.8938850  75.0986610  44.7428030
  34.5557930  74.9473860  46.2106880  20.5977980  58.6800350  51.4031050
  20.2492800  59.1364170  52.1689230  20.2665680  57.7857480  51.4853480
  22.2042350  71.8519950  55.5684240  22.1611980  71.4812860  56.4498700
  22.3353360  72.7897520  55.7086060  25.9048380  73.4079540  51.1693960
  25.6639740  73.6754100  50.2824480  26.8451020  73.5785270  51.2244820
  28.1102800  59.8712230  54.9250470  28.0491690  60.4634060  55.6745880
  29.0503180  59.7638190  54.7800730  30.7477360  59.5282290  54.5642760
  31.3617770  59.8461580  53.9023840  31.2926920  59.0430880  55.1838620
  37.1652540  75.4273920  51.9704600  36.6710820  75.8242790  51.2531730
  36.5565830  74.8023130  52.3641880  21.2698620  58.2076550  54.6781820
  21.8181610  58.0264600  53.9147930  21.3353930  57.4170660  55.2138130
  22.0430380  74.7982200  52.6882020  21.4490700  74.6666900  53.4272060
  22.0354220  73.9620340  52.2224120  31.4885400  58.0914430  50.8912050
  30.6145240  58.4249540  50.6884980  31.3796150  57.6187610  51.7163920
  32.3957380  60.2985300  52.2753770  32.0670740  59.4837060  51.8955500
  33.3439680  60.2555110  52.1519460  34.8491990  76.0697340  49.2491340
  34.3894960  76.8213150  48.8749360  34.2204450  75.3503810  49.1906140
  21.6742610  72.1640580  51.6390060  20.9476670  71.5445870  51.5716010
  21.7351760  72.5581190  50.7688140  25.2787710  74.3785580  48.4239470
  25.7952730  73.7672940  47.8987730  25.9285090  74.8814360  48.9150480
  28.0183210  75.2694070  49.2508450  28.3061020  75.0148370  48.3741460
  28.5306430  74.7171430  49.8414020  29.2360220  59.0084270  49.8304960
  28.4532010  59.4829770  50.1101720  28.9423150  58.1039100  49.7218140
  19.9572610  75.4814970  44.8486820  19.7894650  74.8485650  45.5468710
  19.0907120  75.6874370  44.4981010  20.5800630  59.3131750  42.3518680
  21.3379990  59.4260630  41.7782710  20.1177800  60.1500950  42.3062110
  22.9525780  59.8395800  40.8920650  23.4818540  59.0525600  40.7628600
  23.5854100  60.5186990  41.1256180  28.0855570  76.1910170  56.6176650
  29.0122880  75.9554440  56.6612610  28.0706000  77.0182170  56.1362680
  25.2719180  58.8554920  56.3818530  24.9903450  59.3588520  55.6179350
  25.6538880  58.0576670  56.0160660  31.8734640  58.2708500  56.9599000
  31.7600090  58.5903110  57.8550520  32.6904380  58.6721010  56.6636280
  34.6533130  75.4180030  56.4417690  35.4458450  74.9229260  56.2343650
  34.9466280  76.0970170  57.0493300  30.7792790  66.2900970  27.3233740
  30.6986840  65.3755580  27.0525450  30.3657210  66.7868040  26.6173450
  28.9110830  68.0679990  29.2043010  28.1352930  67.5880430  29.4941580
  29.5623760  67.3885640  29.0299170  22.9276660  68.3799800  30.0818770
  22.0961540  68.1248510  30.4815280  23.5357640  68.4510570  30.8176690
  22.9077920  72.4139890  30.2776790  23.2105960  71.5237630  30.0987010
  23.6521510  72.9710110  30.0499040  21.3368610  63.3401690  23.8661160
  20.4485310  63.6817660  23.7641040  21.6209800  63.1402010  22.9741990
  19.3001620  65.9407340  29.7500860  19.8717730  65.1729540  29.7504500
  19.3003160  66.2396100  28.8407470  29.1581570  74.7598190  27.6046130
  28.5393010  75.2155690  27.0340570  30.0133350  74.9149650  27.2035830
  20.5426490  61.3491700  31.5369790  20.3629330  60.4517450  31.8172550
  20.1406570  61.8963570  32.2116740  29.3824990  63.5507560  29.4382100
  29.7589810  62.6779440  29.3255770  29.2844500  63.8866260  28.5472540
  23.5130000  61.9233190  24.8999540  23.6196750  62.8236920  25.2068300
  22.6022360  61.8751160  24.6094190  33.1649110  61.0458000  26.3710440
  33.9858730  60.5554570  26.4135920  33.1983190  61.6355660  27.1242280
  21.1613160  63.8452200  30.1452130  21.8423270  64.1090570  30.7639530
  20.8461210  63.0053070  30.4790140  25.3537730  64.8919560  29.2324720
  25.8615950  65.3900530  29.8729740  25.8850970  64.1154760  29.0564080
  23.6373830  59.5318120  33.4988140  23.6392270  60.0490510  32.6934040
  22.8078140  59.0548300  33.4758070  30.0244920  69.6437430  24.9978040
  29.4062190  70.1086880  24.4340760  30.5368170  70.3364910  25.4147550
  24.8876680  69.1713300  31.6761640  24.5546060  69.7982220  32.3182710
  25.0643360  69.6975180  30.8963310  33.4010590  62.9858380  29.1437980
  32.6966160  63.2743270  29.7241090  33.7622750  63.7958490  28.7837540
  23.3189160  61.2428080  31.5058590  23.6605970  62.0870130  31.2112460
  22.3804970  61.3911820  31.6223930  24.0995780  71.1394100  33.4910820
  24.7169780  71.8145180  33.2095270  23.2388900  71.5482080  33.3998320
  19.3928120  70.3293960  22.3717670  19.0156100  70.8181060  21.6402570
  19.6501190  71.0019240  23.0024200  35.0173370  72.6033510  31.4065460
  34.3336890  73.2732620  31.3982130  35.5567660  72.8014160  30.6410320
  36.4697510  62.4313170  29.5347190  35.5222420  62.4652150  29.6662620
  36.7947500  63.2452120  29.9196550  27.0017050  58.7310350  27.8303180
  27.3092030  58.1757240  27.1138680  26.0717750  58.8654810  27.6476170
  32.5532110  74.4477640  30.1210640  32.5659270  74.0439930  29.2532900
  32.0007330  75.2224930  30.0172070  33.8477530  71.1693860  25.2100810
  33.7373860  70.2268190  25.3350230  33.8445780  71.5309500  26.0963570
  29.3897810  66.7959180  24.5663300  28.4627090  66.7296560  24.7951770
  29.5422630  67.7339310  24.4518540  29.3766890  63.0676180  21.5630460
  28.4370560  63.2290140  21.6482920  29.6950150  63.7861860  21.0166450
  33.4195100  68.3579480  25.0698550  32.8007520  68.0199030  24.4224850
  33.4019550  67.7139240  25.7777740  32.8621660  64.5364020  32.4864360
  32.4492840  65.3617730  32.7404350  32.1297610  63.9509060  32.2940720
  24.9954450  67.3223920  27.3483030  24.5911450  66.6101170  26.8528930
  25.0817570  66.9777160  28.2371070  25.4636150  71.0091480  29.5122240
  25.1664440  70.4036950  28.8330020  26.4135970  71.0468790  29.4011600
  23.7083070  64.0967130  31.1282070  24.2597660  64.2062470  30.3535320
  24.2226580  64.4704730  31.8437300  33.5521760  74.5823350  33.1745340
  33.0752320  75.3895540  32.9817950  32.8683550  73.9301680  33.3271550
  24.5554580  70.7473170  36.1630040  23.6583110  70.9713140  36.4103440
  24.5807450  70.8708110  35.2141440  31.5959800  67.5966290  22.0771300
  32.0353080  66.7588720  21.9309120  32.3088220  68.2295690  22.1635440
  29.7055180  72.5362360  26.0452540  30.1451090  73.2786690  25.6307930
  29.6442070  72.7788930  26.9691500  25.1806150  73.5608190  36.9472560
  25.1521580  73.9651140  36.0800990  25.0171120  72.6318550  36.7844160
  35.1776940  58.8509100  20.3912340  34.8649600  58.9435930  21.2911410
  35.9389410  59.4290130  20.3409770  21.6959080  66.2168900  24.8489680
  21.5756680  66.9430990  24.2370950  21.3859970  65.4471810  24.3717590
  19.3344450  69.3884040  30.6558320  19.4124870  69.5232810  29.7114040
  19.9486130  68.6799930  30.8486440  20.5792080  71.0884230  27.0664500
  20.1720160  71.2298820  26.2118100  21.4705090  70.8044390  26.8635710
  32.3725360  75.5231480  23.4015550  32.2126500  75.2334420  24.2997380
  32.2072070  74.7471610  22.8660780  24.8513740  75.3030010  25.1787170
  24.6756220  74.3865550  24.9654970  23.9969480  75.6617300  25.4184970
  32.0751490  73.0319040  21.9613550  31.3816650  73.0296330  21.3015830
  32.8174350  72.6078360  21.5307720  31.6401420  74.6581750  26.0362040
  32.0958370  73.8771130  26.3500660  31.9793940  75.3688570  26.5803220
  36.3878230  63.5880600  36.3686480  35.7722500  64.0960270  35.8401940
  36.0674650  62.6878930  36.3112420  19.3903970  70.4298210  33.1952780
  19.5535010  69.9603570  32.3772150  19.8556420  69.9221770  33.8601620
  24.1622740  59.5603970  28.2313350  23.7190890  60.3413510  27.8997870
  24.7207730  59.8833860  28.9384290  28.4492550  62.4272490  33.8348670
  27.9871920  62.6355510  34.6468610  28.0470660  61.6131840  33.5319340
  33.4497060  63.6481440  34.9645330  32.5990650  63.3487190  35.2854400
  33.2898850  63.8923450  34.0529150  30.5446770  65.1483190  37.0644120
  30.8700180  64.3146940  36.7246350  31.3327100  65.6711710  37.2122450
  27.2781560  59.1814670  23.1119180  26.6535740  59.1774540  23.8372490
  27.1911680  58.3145630  22.7155150  26.1998640  60.1051300  30.0902950
  26.4970970  61.0114130  30.0094970  26.7484200  59.6170080  29.4762520
  23.9536960  64.6837540  25.9594600  23.7277880  64.4674710  26.8641220
  23.1729490  65.1166000  25.6140570  31.1834720  64.6900910  24.5585250
  30.5843610  65.4136710  24.3748870  31.7314330  64.6277690  23.7761700
  29.7899590  63.3264450  26.5888530  30.1829160  63.6436650  25.7757220
  30.1516440  62.4476330  26.7033050  21.5246710  61.9936790  34.7788650
  21.1310100  62.8412000  34.9861430  20.8365110  61.3563160  34.9697290
  28.0991760  62.0771760  37.8485390  27.4090080  61.8843960  38.4831480
  28.8424060  62.3606400  38.3809690  18.8263760  59.9165250  28.8118730
  18.5376810  60.4868110  29.5243710  19.5709520  59.4369700  29.1749960
  19.0133990  63.8585370  20.0221450  18.9308660  64.8016130  20.1636440
  18.6617050  63.7160280  19.1433800  30.3754730  65.9170200  30.6839310
  29.6435850  66.4257010  31.0329410  29.9779070  65.1000180  30.3828090
  26.8132120  62.5924400  29.0891800  26.8168180  62.1514350  28.2396340
  27.7083240  62.9141730  29.1963620  22.6634500  62.4750890  28.0486010
  22.3234550  62.9526120  28.8053060  21.9011820  62.0216010  27.6887110
  26.8752270  63.5936480  22.0798560  26.9965090  63.5522960  23.0284380
  26.4900780  64.4560630  21.9245290  30.8380640  61.3703880  30.0962250
  30.8553380  61.8212530  30.9404100  30.5896220  60.4709520  30.3095690
  25.8873770  65.9037620  21.4781860  25.3190670  65.4555870  20.8517770
  26.5962770  66.2630400  20.9447010  34.2651390  58.7836060  35.9348630
  34.5897160  58.0525720  36.4606610  34.3007900  58.4649700  35.0329620
  20.9642950  69.8049640  35.3548590  20.5797740  69.1643310  35.9531550
  21.2755140  70.5085760  35.9243320  27.1140090  66.6526180  30.8357210
  27.4810220  66.1784750  31.5818550  26.9245150  67.5267750  31.1765550
  19.9780580  61.3969870  26.9650680  19.6927500  61.0325540  27.8029300
  19.9159440  60.6650330  26.3513820  24.9039460  65.6934820  33.1541420
  24.5996530  66.5726800  33.3791780  25.8585920  65.7534610  33.1898860
  23.4321250  69.8995810  23.7508270  22.6583510  69.3593430  23.5906990
  24.1615880  69.3802420  23.4126030  29.6519170  60.2899130  23.6864050
  28.8383780  59.7912300  23.6109360  29.4581120  61.1297380  23.2700400
  32.3667560  64.6618780  21.9826210  33.2547180  64.9736010  21.8077550
  32.3372650  63.7891030  21.5906790  23.4758650  69.5676190  27.3887080
  23.9937320  68.7644450  27.3343970  23.0242670  69.5055330  28.2303910
  28.3628150  70.8342470  22.6614380  28.7043850  71.5784700  22.1657700
  27.5340860  71.1473590  23.0239210  20.9603190  66.5337560  34.3012780
  20.6018130  67.1991410  34.8886120  20.6657750  65.7021110  34.6725400
  34.6381830  65.9730620  21.4506070  34.5545550  66.4044840  20.6002510
  35.3576020  66.4328970  21.8832890  35.7155970  68.4298140  34.5276040
  34.9904160  69.0226920  34.3305430  36.2431430  68.4221680  33.7289410
  35.6669080  72.8272880  24.1788200  35.0245240  72.1728500  24.4531920
  35.2799740  73.2327970  23.4028870  27.3318840  70.9156000  25.4330300
  28.0189970  71.4625210  25.8137890  26.5451260  71.4596730  25.4679910
  19.4711240  66.5328820  20.9247380  20.3406090  66.8153620  21.2083300
  18.9801560  67.3464690  20.8096190  26.6346050  67.9202030  25.0455660
  27.0908830  68.7307280  25.2715850  26.2834260  67.6025170  25.8774150
  22.5357830  58.2639680  25.5178180  22.4072460  58.2557580  26.4663100
  21.7119850  58.6022770  25.1669190  34.0566460  71.7189340  20.7164550
  33.8304040  71.0019780  21.3089190  33.6662660  71.4701780  19.8786300
  19.8382490  75.7456200  21.4909010  20.1980130  76.3445540  20.8366280
  19.6974830  76.2916090  22.2644040  19.5351760  60.0230800  34.9784880
  18.8210280  60.2227720  35.5837490  19.9546800  59.2470370  35.3499680
  33.6382710  69.6361280  22.3778710  33.3504410  70.0973970  23.1656590
  34.4334880  69.1759050  22.6462930  19.8224350  74.0111060  35.9651410
  19.9315470  73.0705800  35.8246800  19.1704910  74.2765810  35.3165140
  27.8136940  72.2826950  37.3649530  27.4933810  71.5636190  37.9095220
  27.1395300  72.9582020  37.4385590  25.8551110  73.1287400  22.3082680
  25.8461210  73.8617090  21.6927190  24.9349470  72.8818980  22.4009640
  21.4557750  68.3502290  23.0529440  20.8485700  69.0901190  23.0624740
  21.9307100  68.4401650  22.2267640  31.0290540  62.5153110  32.7286330
  31.3971360  61.6948320  33.0565900  30.1688740  62.5755000  33.1441980
  34.3952570  61.4710050  23.5373890  33.7665730  61.5755720  22.8232120
  33.9004490  61.6906830  24.3267770  28.8410710  73.1915640  20.9707870
  28.9422690  72.9879630  20.0409850  27.9412450  72.9373920  21.1755650
  26.3636600  63.7496000  24.9531770  25.6552750  64.2182340  25.3945380
  26.6481080  63.0918010  25.5876960  27.9892530  65.1692700  32.9524300
  28.4877780  65.6438520  33.6176150  28.1315480  64.2456220  33.1594330
  30.3952030  60.4746660  26.3927560  30.2719810  60.4932790  25.4437070
  31.3436590  60.5225600  26.5125960  27.4828820  75.7101960  25.6655540
  27.7370320  75.6723350  24.7434910  26.5341300  75.5835290  25.6583790
  24.5671620  62.0581080  22.3282480  25.4162150  62.4951230  22.2622670
  24.2002890  62.3701340  23.1554540  35.1959390  61.3860660  33.7952690
  34.6932990  62.1266060  34.1346500  36.0116050  61.7744660  33.4789480
  33.4881400  66.6293840  27.2414050  32.5471540  66.6444070  27.4161740
  33.8025470  65.8429800  27.6874350  23.4663040  68.3113440  20.8018010
  24.2326310  68.1994800  21.3643440  23.5437730  67.6151410  20.1494780
  22.1609800  65.7438510  21.4850900  22.2413390  64.7966020  21.5968300
  23.0529550  66.0745390  21.5911560  35.4906980  73.8002690  28.9168310
  35.6154400  74.6233860  29.3892120  36.3572540  73.5893420  28.5692460
  22.9624510  75.8933900  28.5885440  23.6986990  75.3449360  28.8594010
  23.3465430  76.7589910  28.4491430  19.8469990  71.9607470  24.4626950
  18.9209770  72.2028610  24.4532360  20.3126420  72.7881730  24.3411700
  21.9682790  75.0779970  37.7771020  22.7695520  75.3992020  38.1906420
  21.4534610  74.7175550  38.4990930  26.0726820  75.0664210  20.4111010
  26.8655430  75.3553040  19.9592800  25.5531170  74.6356380  19.7323490
  32.2347790  74.9140130  36.3355840  33.1869540  74.8298150  36.2856080
  32.0876010  75.5781840  37.0089630  35.1256990  74.2934340  21.8347750
  34.8398500  73.8799480  21.0201930  34.9276540  75.2222050  21.7148270
  19.6880600  67.5653430  36.7207070  20.1919620  66.9860710  37.2923300
  18.9488020  67.8493660  37.2583440  26.5904220  70.2867620  20.2753360
  26.4854860  69.6719970  21.0014740  26.4228440  69.7633510  19.4916370
  26.7418540  68.9724420  36.2542590  25.9764210  69.5409420  36.1697260
  26.9234500  68.6800630  35.3610820  29.8306950  69.3487650  20.8795350
  29.2817050  69.7956950  21.5238090  30.4526210  68.8436900  21.4033020
  25.4982070  68.3078570  22.7760650  25.9198490  68.1418440  23.6192040
  25.6232910  67.4978800  22.2815790  28.0109710  67.3316180  20.0237750
  28.5315370  66.6165200  19.6578900  28.6578110  67.9702050  20.3238260
  24.1481790  61.2537490  35.6628920  24.0538660  60.6358240  34.9379790
  23.5679180  61.9803780  35.4358830  26.9143230  59.8110730  32.6956310
  26.4660530  59.8334990  31.8501860  26.2808430  59.4129750  33.2926610
  27.3202780  68.7065060  33.3168750  27.7390890  69.5497790  33.1444990
  26.4011410  68.8437100  33.0875530  29.6566680  66.4381240  34.7006590
  29.7762890  65.8422380  35.4401430  30.5160680  66.4750930  34.2807890
  24.3940970  64.3811800  19.7218810  24.1930030  63.5179160  20.0832150
  24.2233020  64.2945160  18.7840410  26.4235450  62.9802590  35.9582410
  27.0135140  62.6718440  36.6460230  25.6055690  62.5082340  36.1142310
  31.2428880  62.5968400  36.1915430  30.5544400  61.9349940  36.1265420
  31.9634900  62.1506670  36.6363890  31.8729280  59.1920030  22.2505690
  32.1531570  58.3487930  22.6065110  31.0995010  59.4243140  22.7644440
  23.1923770  61.4812420  19.7096690  23.4949670  61.4879850  18.8015840
  23.9318360  61.1310280  20.2064350  26.4108700  60.4247040  20.6952890
  26.0630700  59.7471030  20.1155340  26.6121470  59.9636550  21.5096280
  28.5757740  75.4127790  22.3139490  29.4708530  75.7512760  22.3358250
  28.6075370  74.6907200  21.6863770  22.2153900  70.7854840  20.5426490
  22.6528770  71.3284510  21.1984070  22.7001630  69.9601790  20.5522830
  19.4299700  73.5743870  27.9946750  19.7602710  72.7064930  27.7625390
  19.8590700  73.7802390  28.8251710  24.0261620  71.9052880  25.6548720
  23.7257160  71.7817850  26.5552630  23.9199110  71.0461470  25.2464450
  19.9189910  74.4414460  30.7328380  19.4820900  74.6215260  31.5652530
  20.4867590  75.1989080  30.5910100  36.7953540  71.6849280  20.3575400
  35.9646500  71.7525930  20.8282630  36.9725370  72.5753400  20.0542260
  36.2510000  68.4296760  22.8609600  37.0128910  68.9993410  22.9669290
  36.2664370  67.8623960  23.6317910  19.7514340  66.9534690  27.0917260
  19.0963180  66.6846330  26.4476960  20.5892290  66.8439170  26.6419240
  37.2569970  69.2846860  27.7051530  37.6278800  68.5014180  27.2987500
  37.8971900  69.9735960  27.5268830  36.3029170  68.7231130  20.0182120
  36.5778010  69.6310010  19.8901340  36.1139910  68.6593660  20.9544110
  32.7004780  61.7475980  21.3135750  33.1189660  61.5606960  20.4732410
  32.3940840  60.8955030  21.6238680  36.1994510  66.6600120  25.0111550
  35.8238110  65.8928050  24.5792840  35.4697630  67.0422820  25.4986480
  20.7890270  67.3387260  31.6320600  21.1563310  67.2514660  32.5116620
  20.2201090  66.5753810  31.5327460  35.5894130  65.8071640  34.6451070
  35.3580220  65.5784390  33.7449020  35.8498680  66.7271190  34.5995960
  34.0282200  61.0328070  37.4230770  34.9052380  61.0411470  37.8064770
  34.0403040  60.2958910  36.8123120  18.9652420  64.1633620  23.0342590
  18.0616500  64.4263820  22.8594250  19.4493040  64.4344790  22.2542550
  35.4745470  64.8857610  28.3118790  35.9982950  64.3920260  27.6808960
  36.0604890  65.0207970  29.0566360  35.6535190  64.9697480  31.8338340
  34.7037900  64.9361020  31.9483330  35.8348200  65.8797590  31.5988110
  21.5079630  63.2199160  20.9436970  22.2171330  62.7982380  20.4584250
  20.7919570  63.2874390  20.3120320  21.1553790  59.2738490  19.9839620
  21.8781920  59.8147430  20.3020840  21.4278310  59.0001910  19.1081160
  34.9645440  64.1430960  24.2511200  35.4604560  63.9101830  25.0360080
  34.7661510  63.3042800  23.8348840  20.8445980  58.5244680  29.8862240
  21.4922170  57.9742060  29.4457400  21.2647820  58.7787830  30.7078050
  36.3932600  62.7791910  26.7848880  36.2831880  62.6247950  27.7231150
  37.1540190  62.2512850  26.5424290  34.7398320  58.7186040  33.2431880
  35.3770540  59.3320180  33.6091070  34.8873210  58.7546700  32.2981110
  37.2822870  60.6099830  20.0255020  38.2072180  60.4781010  19.8173310
  37.2598660  60.6892650  20.9791470  37.3561360  61.3810490  22.6511730
  36.5612860  61.3155610  23.1804640  37.5604640  62.3161130  22.6397080
  34.2979780  75.4202040  26.6450120  34.8938850  75.0986610  25.9684540
  34.5557930  74.9473860  27.4363390  20.5977980  58.6800350  32.6287560
  20.2492800  59.1364170  33.3945740  20.2665680  57.7857480  32.7109990
  22.2042350  71.8519950  36.7940750  22.1611980  71.4812860  37.6755210
  22.3353360  72.7897520  36.9342570  28.1102800  59.8712230  36.1506980
  28.0491690  60.4634060  36.9002390  29.0503180  59.7638190  36.0057240
  30.7477360  59.5282290  35.7899270  31.3617770  59.8461580  35.1280350
  31.2926920  59.0430880  36.4095130  37.1652540  75.4273920  33.1961110
  36.6710820  75.8242790  32.4788240  36.5565830  74.8023130  33.5898390
  21.2698620  58.2076550  35.9038330  21.8181610  58.0264600  35.1404440
  21.3353930  57.4170660  36.4394640  22.0430380  74.7982200  33.9138530
  21.4490700  74.6666900  34.6528570  22.0354220  73.9620340  33.4480630
  31.4885400  58.0914430  32.1168560  30.6145240  58.4249540  31.9141490
  31.3796150  57.6187610  32.9420430  32.3957380  60.2985300  33.5010280
  32.0670740  59.4837060  33.1212010  33.3439680  60.2555110  33.3775970
  34.8491990  76.0697340  30.4747850  34.3894960  76.8213150  30.1005870
  34.2204450  75.3503810  30.4162650  21.6742610  72.1640580  32.8646570
  20.9476670  71.5445870  32.7972520  21.7351760  72.5581190  31.9944650
  25.2787710  74.3785580  29.6495980  25.7952730  73.7672940  29.1244240
  25.9285090  74.8814360  30.1406990  29.2360220  59.0084270  31.0561470
  28.4532010  59.4829770  31.3358230  28.9423150  58.1039100  30.9474650
  33.7881290  59.7107370  29.1010560  34.2289380  59.6552470  28.2532160
  33.5188880  60.6265380  29.1720740  35.6519860  59.3422610  27.1119380
  35.5908260  58.3983830  26.9650400  36.4311890  59.4502700  27.6572840
  19.9572610  75.4814970  26.0743330  19.7894650  74.8485650  26.7725220
  19.0907120  75.6874370  25.7237520  20.5800630  59.3131750  23.5775190
  21.3379990  59.4260630  23.0039220  20.1177800  60.1500950  23.5318620
  27.1214440  61.4271020  26.5677500  26.3088950  61.0527910  26.2273380
  27.6256080  60.6716100  26.8698690  31.6239420  58.0913470  27.8060570
  32.2268790  58.6633680  28.2809090  30.8832410  58.6552910  27.5834470
  34.7674020  58.4935030  23.0800850  34.9624650  59.3918480  23.3468280
  33.9803890  58.2622110  23.5733800  21.5635310  74.1748200  23.5193470
  21.0382930  74.5556230  22.8155430  21.4879890  74.7998970  24.2403180
  22.9525780  59.8395800  22.1177160  23.4818540  59.0525600  21.9885110
  23.5854100  60.5186990  22.3512690  25.1463620  59.5770940  25.1722550
  24.5166360  58.8758250  25.3392680  24.6068760  60.3375070  24.9555710
  28.0855570  76.1910170  37.8433160  29.0122880  75.9554440  37.8869120
  28.0706000  77.0182170  37.3619190  36.3200630  75.7335740  24.8407410
  36.4952820  75.0473480  24.1968330  35.6222200  76.2582790  24.4484080
  25.2719180  58.8554920  37.6075040  24.9903450  59.3588520  36.8435860
  25.6538880  58.0576670  37.2417170  24.1628280  76.1230580  22.3942720
  24.8947100  75.8389860  21.8466610  24.4221950  75.8843860  23.2842100
  23.3243070  72.2395310  22.3989050  22.6951950  72.7080410  22.9474880
  23.4390900  71.3944530  22.8335240  31.8734640  58.2708500  38.1855510
  31.7600090  58.5903110  39.0807030  32.6904380  58.6721010  37.8892790
  30.7792790  66.2900970   8.5490250  30.6986840  65.3755580   8.2781960
  30.3657210  66.7868040   7.8429960  28.9110830  68.0679990  10.4299520
  28.1352930  67.5880430  10.7198090  29.5623760  67.3885640  10.2555680
  22.9276660  68.3799800  11.3075280  22.0961540  68.1248510  11.7071790
  23.5357640  68.4510570  12.0433200  32.9318260  72.4740180   9.2098650
  32.4699790  71.7027420   9.5385820  33.7443810  72.5006250   9.7151100
  22.9077920  72.4139890  11.5033300  23.2105960  71.5237630  11.3243520
  23.6521510  72.9710110  11.2755550  21.3368610  63.3401690   5.0917670
  20.4485310  63.6817660   4.9897550  21.6209800  63.1402010   4.1998500
  19.3001620  65.9407340  10.9757370  19.8717730  65.1729540  10.9761010
  19.3003160  66.2396100  10.0663980  29.1581570  74.7598190   8.8302640
  28.5393010  75.2155690   8.2597080  30.0133350  74.9149650   8.4292340
  28.3519820  70.7437180  10.4369680  28.2828100  69.8027120  10.2758810
  29.1139680  70.8338590  11.0092250  20.5426490  61.3491700  12.7626300
  20.3629330  60.4517450  13.0429060  20.1406570  61.8963570  13.4373250
  29.3824990  63.5507560  10.6638610  29.7589810  62.6779440  10.5512280
  29.2844500  63.8866260   9.7729050  23.5130000  61.9233190   6.1256050
  23.6196750  62.8236920   6.4324810  22.6022360  61.8751160   5.8350700
  33.1649110  61.0458000   7.5966950  33.9858730  60.5554570   7.6392430
  33.1983190  61.6355660   8.3498790  21.1613160  63.8452200  11.3708640
  21.8423270  64.1090570  11.9896040  20.8461210  63.0053070  11.7046650
  25.3537730  64.8919560  10.4581230  25.8615950  65.3900530  11.0986250
  25.8850970  64.1154760  10.2820590  37.4548660  63.0624750  14.1610580
  36.7500830  63.4506460  13.6425690  37.7206580  63.7575040  14.7631510
  23.6373830  59.5318120  14.7244650  23.6392270  60.0490510  13.9190550
  22.8078140  59.0548300  14.7014580  30.0244920  69.6437430   6.2234550
  29.4062190  70.1086880   5.6597270  30.5368170  70.3364910   6.6404060
  24.8876680  69.1713300  12.9018150  24.5546060  69.7982220  13.5439220
  25.0643360  69.6975180  12.1219820  33.4010590  62.9858380  10.3694490
  32.6966160  63.2743270  10.9497600  33.7622750  63.7958490  10.0094050
  23.3189160  61.2428080  12.7315100  23.6605970  62.0870130  12.4368970
  22.3804970  61.3911820  12.8480440  24.0995780  71.1394100  14.7167330
  24.7169780  71.8145180  14.4351780  23.2388900  71.5482080  14.6254830
  19.3928120  70.3293960   3.5974180  19.0156100  70.8181060   2.8659080
  19.6501190  71.0019240   4.2280710  35.0173370  72.6033510  12.6321970
  34.3336890  73.2732620  12.6238640  35.5567660  72.8014160  11.8666830
  36.4697510  62.4313170  10.7603700  35.5222420  62.4652150  10.8919130
  36.7947500  63.2452120  11.1453060  27.0017050  58.7310350   9.0559690
  27.3092030  58.1757240   8.3395190  26.0717750  58.8654810   8.8732680
  32.5532110  74.4477640  11.3467150  32.5659270  74.0439930  10.4789410
  32.0007330  75.2224930  11.2428580  33.8477530  71.1693860   6.4357320
  33.7373860  70.2268190   6.5606740  33.8445780  71.5309500   7.3220080
  31.9517550  69.3507480  12.6749760  32.3686340  69.1367590  11.8403220
  32.6757370  69.6080270  13.2458380  29.3897810  66.7959180   5.7919810
  28.4627090  66.7296560   6.0208280  29.5422630  67.7339310   5.6775050
  29.3766890  63.0676180   2.7886970  28.4370560  63.2290140   2.8739430
  29.6950150  63.7861860   2.2422960  35.8979650  67.7494700  12.7666000
  35.0698280  67.8187790  12.2916130  36.4930130  68.3349010  12.2981830
  33.4195100  68.3579480   6.2955060  32.8007520  68.0199030   5.6481360
  33.4019550  67.7139240   7.0034250  32.8621660  64.5364020  13.7120870
  32.4492840  65.3617730  13.9660860  32.1297610  63.9509060  13.5197230
  24.9954450  67.3223920   8.5739540  24.5911450  66.6101170   8.0785440
  25.0817570  66.9777160   9.4627580  25.4636150  71.0091480  10.7378750
  25.1664440  70.4036950  10.0586530  26.4135970  71.0468790  10.6268110
  23.7083070  64.0967130  12.3538580  24.2597660  64.2062470  11.5791830
  24.2226580  64.4704730  13.0693810  33.5521760  74.5823350  14.4001850
  33.0752320  75.3895540  14.2074460  32.8683550  73.9301680  14.5528060
  24.5554580  70.7473170  17.3886550  23.6583110  70.9713140  17.6359950
  24.5807450  70.8708110  16.4397950  31.5959800  67.5966290   3.3027810
  32.0353080  66.7588720   3.1565630  32.3088220  68.2295690   3.3891950
  23.3825800  67.6186490  15.9643920  23.2433570  68.4909290  16.3331320
  22.5007160  67.2759300  15.8191860  29.7055180  72.5362360   7.2709050
  30.1451090  73.2786690   6.8564440  29.6442070  72.7788930   8.1948010
  25.1806150  73.5608190  18.1729070  25.1521580  73.9651140  17.3057500
  25.0171120  72.6318550  18.0100670  21.6959080  66.2168900   6.0746190
  21.5756680  66.9430990   5.4627460  21.3859970  65.4471810   5.5974100
  37.1320970  74.3435290  19.4693240  37.6080690  74.8218180  20.1482320
  37.7528130  74.2752780  18.7438740  19.3344450  69.3884040  11.8814830
  19.4124870  69.5232810  10.9370550  19.9486130  68.6799930  12.0742950
  20.5792080  71.0884230   8.2921010  20.1720160  71.2298820   7.4374610
  21.4705090  70.8044390   8.0892220  36.5354220  71.5348140  16.6293250
  36.6617280  71.2960020  15.7110430  36.5775600  70.7032680  17.1015330
  30.3970960  75.2376140  15.1988060  30.9115630  75.1484150  16.0010490
  29.5540040  75.5835840  15.4915970  32.3725360  75.5231480   4.6272060
  32.2126500  75.2334420   5.5253890  32.2072070  74.7471610   4.0917290
  24.8513740  75.3030010   6.4043680  24.6756220  74.3865550   6.1911480
  23.9969480  75.6617300   6.6441480  32.0751490  73.0319040   3.1870060
  31.3816650  73.0296330   2.5272340  32.8174350  72.6078360   2.7564230
  31.6401420  74.6581750   7.2618550  32.0958370  73.8771130   7.5757170
  31.9793940  75.3688570   7.8059730  36.3878230  63.5880600  17.5942990
  35.7722500  64.0960270  17.0658450  36.0674650  62.6878930  17.5368930
  19.3903970  70.4298210  14.4209290  19.5535010  69.9603570  13.6028660
  19.8556420  69.9221770  15.0858130  24.1622740  59.5603970   9.4569860
  23.7190890  60.3413510   9.1254380  24.7207730  59.8833860  10.1640800
  28.4492550  62.4272490  15.0605180  27.9871920  62.6355510  15.8725120
  28.0470660  61.6131840  14.7575850  33.4497060  63.6481440  16.1901840
  32.5990650  63.3487190  16.5110910  33.2898850  63.8923450  15.2785660
  30.5446770  65.1483190  18.2900630  30.8700180  64.3146940  17.9502860
  31.3327100  65.6711710  18.4378960  27.2781560  59.1814670   4.3375690
  26.6535740  59.1774540   5.0629000  27.1911680  58.3145630   3.9411660
  26.1998640  60.1051300  11.3159460  26.4970970  61.0114130  11.2351480
  26.7484200  59.6170080  10.7019030  23.9536960  64.6837540   7.1851110
  23.7277880  64.4674710   8.0897730  23.1729490  65.1166000   6.8397080
  31.1834720  64.6900910   5.7841760  30.5843610  65.4136710   5.6005380
  31.7314330  64.6277690   5.0018210  26.3936170  65.5823120  17.8511380
  26.2979770  64.6417850  17.7011780  27.2368150  65.8038190  17.4559450
  29.7899590  63.3264450   7.8145040  30.1829160  63.6436650   7.0013730
  30.1516440  62.4476330   7.9289560  21.5246710  61.9936790  16.0045160
  21.1310100  62.8412000  16.2117940  20.8365110  61.3563160  16.1953800
  28.0991760  62.0771760  19.0741900  27.4090080  61.8843960  19.7087990
  28.8424060  62.3606400  19.6066200  18.8263760  59.9165250  10.0375240
  18.5376810  60.4868110  10.7500220  19.5709520  59.4369700  10.4006470
  30.3754730  65.9170200  11.9095820  29.6435850  66.4257010  12.2585920
  29.9779070  65.1000180  11.6084600  26.8132120  62.5924400  10.3148310
  26.8168180  62.1514350   9.4652850  27.7083240  62.9141730  10.4220130
  22.6634500  62.4750890   9.2742520  22.3234550  62.9526120  10.0309570
  21.9011820  62.0216010   8.9143620  26.8752270  63.5936480   3.3055070
  26.9965090  63.5522960   4.2540890  26.4900780  64.4560630   3.1501800
  30.8380640  61.3703880  11.3218760  30.8553380  61.8212530  12.1660610
  30.5896220  60.4709520  11.5352200  25.8873770  65.9037620   2.7038370
  25.3190670  65.4555870   2.0774280  26.5962770  66.2630400   2.1703520
  34.2651390  58.7836060  17.1605140  34.5897160  58.0525720  17.6863120
  34.3007900  58.4649700  16.2586130  20.9642950  69.8049640  16.5805100
  20.5797740  69.1643310  17.1788060  21.2755140  70.5085760  17.1499830
  27.1140090  66.6526180  12.0613720  27.4810220  66.1784750  12.8075060
  26.9245150  67.5267750  12.4022060  19.9780580  61.3969870   8.1907190
  19.6927500  61.0325540   9.0285810  19.9159440  60.6650330   7.5770330
  24.9039460  65.6934820  14.3797930  24.5996530  66.5726800  14.6048290
  25.8585920  65.7534610  14.4155370  23.4321250  69.8995810   4.9764780
  22.6583510  69.3593430   4.8163500  24.1615880  69.3802420   4.6382540
  34.1909230  68.8961170  10.7691170  34.9108350  69.3916460  10.3787280
  33.9891050  68.2179060  10.1245040  29.6519170  60.2899130   4.9120560
  28.8383780  59.7912300   4.8365870  29.4581120  61.1297380   4.4956910
  29.5728030  68.9670230  16.6560170  29.5065340  68.0465900  16.4017760
  28.9433170  69.0645670  17.3704810  32.3667560  64.6618780   3.2082720
  33.2547180  64.9736010   3.0334060  32.3372650  63.7891030   2.8163300
  23.4758650  69.5676190   8.6143590  23.9937320  68.7644450   8.5600480
  23.0242670  69.5055330   9.4560420  28.3628150  70.8342470   3.8870890
  28.7043850  71.5784700   3.3914210  27.5340860  71.1473590   4.2495720
  20.9603190  66.5337560  15.5269290  20.6018130  67.1991410  16.1142630
  20.6657750  65.7021110  15.8981910  24.1616310  66.9921800  18.4108840
  23.8616450  67.1378980  17.5136660  24.9327550  66.4327090  18.3182230
  29.5044760  71.7890800  16.4063970  29.5189300  70.8571760  16.1882880
  28.7969860  71.8750560  17.0453740  34.6381830  65.9730620   2.6762580
  34.5545550  66.4044840   1.8259020  35.3576020  66.4328970   3.1089400
  35.7155970  68.4298140  15.7532550  34.9904160  69.0226920  15.5561940
  36.2431430  68.4221680  14.9545920  35.6669080  72.8272880   5.4044710
  35.0245240  72.1728500   5.6788430  35.2799740  73.2327970   4.6285380
  31.2455560  70.1558310   9.2516400  31.5979380  69.5586440   8.5917770
  30.3617890  69.8302540   9.4224650  27.3318840  70.9156000   6.6586810
  28.0189970  71.4625210   7.0394400  26.5451260  71.4596730   6.6936420
  19.4711240  66.5328820   2.1503890  20.3406090  66.8153620   2.4339810
  18.9801560  67.3464690   2.0352700  26.6346050  67.9202030   6.2712170
  27.0908830  68.7307280   6.4972360  26.2834260  67.6025170   7.1030660
  28.9378660  73.4308370  13.5004470  29.5820880  73.6367750  14.1777890
  29.3008100  72.6696770  13.0475320  22.5357830  58.2639680   6.7434690
  22.4072460  58.2557580   7.6919610  21.7119850  58.6022770   6.3925700
  30.2110740  71.4340720  12.2181920  30.8532970  70.7333880  12.3314090
  30.7360090  72.2139160  12.0378810  31.9848360  72.2335620  15.4217980
  32.3204600  72.8202310  16.0995900  31.0648700  72.1028330  15.6515770
  19.8382490  75.7456200   2.7165520  20.1980130  76.3445540   2.0622790
  19.6974830  76.2916090   3.4900550  19.5351760  60.0230800  16.2041390
  18.8210280  60.2227720  16.8094000  19.9546800  59.2470370  16.5756190
  33.6382710  69.6361280   3.6035220  33.3504410  70.0973970   4.3913100
  34.4334880  69.1759050   3.8719440  19.8224350  74.0111060  17.1907920
  19.9315470  73.0705800  17.0503310  19.1704910  74.2765810  16.5421650
  27.8136940  72.2826950  18.5906040  27.4933810  71.5636190  19.1351730
  27.1395300  72.9582020  18.6642100  25.8551110  73.1287400   3.5339190
  25.8461210  73.8617090   2.9183700  24.9349470  72.8818980   3.6266150
  21.4557750  68.3502290   4.2785950  20.8485700  69.0901190   4.2881250
  21.9307100  68.4401650   3.4524150  31.0290540  62.5153110  13.9542840
  31.3971360  61.6948320  14.2822410  30.1688740  62.5755000  14.3698490
  34.3952570  61.4710050   4.7630400  33.7665730  61.5755720   4.0488630
  33.9004490  61.6906830   5.5524280  26.3636600  63.7496000   6.1788280
  25.6552750  64.2182340   6.6201890  26.6481080  63.0918010   6.8133470
  27.9892530  65.1692700  14.1780810  28.4877780  65.6438520  14.8432660
  28.1315480  64.2456220  14.3850840  30.3952030  60.4746660   7.6184070
  30.2719810  60.4932790   6.6693580  31.3436590  60.5225600   7.7382470
  27.4828820  75.7101960   6.8912050  27.7370320  75.6723350   5.9691420
  26.5341300  75.5835290   6.8840300  24.5671620  62.0581080   3.5538990
  25.4162150  62.4951230   3.4879180  24.2002890  62.3701340   4.3811050
  35.1959390  61.3860660  15.0209200  34.6932990  62.1266060  15.3603010
  36.0116050  61.7744660  14.7045990  33.4881400  66.6293840   8.4670560
  32.5471540  66.6444070   8.6418250  33.8025470  65.8429800   8.9130860
  22.1609800  65.7438510   2.7107410  22.2413390  64.7966020   2.8224810
  23.0529550  66.0745390   2.8168070  35.4906980  73.8002690  10.1424820
  35.6154400  74.6233860  10.6148630  36.3572540  73.5893420   9.7948970
  22.9624510  75.8933900   9.8141950  23.6986990  75.3449360  10.0850520
  23.3465430  76.7589910   9.6747940  19.8469990  71.9607470   5.6883460
  18.9209770  72.2028610   5.6788870  20.3126420  72.7881730   5.5668210
  21.9682790  75.0779970  19.0027530  22.7695520  75.3992020  19.4162930
  21.4534610  74.7175550  19.7247440  30.8047420  71.1859840  18.9502940
  30.1985580  71.2091440  18.2098690  30.5001530  70.4542880  19.4870190
  32.2347790  74.9140130  17.5612350  33.1869540  74.8298150  17.5112590
  32.0876010  75.5781840  18.2346140  35.1256990  74.2934340   3.0604260
  34.8398500  73.8799480   2.2458440  34.9276540  75.2222050   2.9404780
  19.6880600  67.5653430  17.9463580  20.1919620  66.9860710  18.5179810
  18.9488020  67.8493660  18.4839950  26.7418540  68.9724420  17.4799100
  25.9764210  69.5409420  17.3953770  26.9234500  68.6800630  16.5867330
  29.8306950  69.3487650   2.1051860  29.2817050  69.7956950   2.7494600
  30.4526210  68.8436900   2.6289530  33.8841890  70.7029750  18.0374120
  34.6251360  71.0405510  17.5341580  33.1214570  70.8721810  17.4843890
  21.7203680  65.7083020  18.8413650  21.7609020  65.4096890  19.7498880
  22.5749180  66.1090630  18.6821170  25.4982070  68.3078570   4.0017160
  25.9198490  68.1418440   4.8448550  25.6232910  67.4978800   3.5072300
  23.6609490  64.2875120  16.8088140  23.1305950  63.7966070  16.1811480
  24.3297560  64.7159320  16.2746070  32.5587550  68.7544580  16.5729330
  32.9728570  68.9089660  17.4219750  31.6238550  68.8799800  16.7355110
  33.0309720  66.0940740  18.5768480  33.6130490  65.3393060  18.4888960
  33.2071490  66.6248180  17.7999960  24.1481790  61.2537490  16.8885430
  24.0538660  60.6358240  16.1636300  23.5679180  61.9803780  16.6615340
  26.9143230  59.8110730  13.9212820  26.4660530  59.8334990  13.0758370
  26.2808430  59.4129750  14.5183120  27.3202780  68.7065060  14.5425260
  27.7390890  69.5497790  14.3701500  26.4011410  68.8437100  14.3132040
  29.6566680  66.4381240  15.9263100  29.7762890  65.8422380  16.6657940
  30.5160680  66.4750930  15.5064400  31.9954580  66.9918430  14.5025610
  31.4689800  67.5161050  13.8990750  32.3385920  67.6245820  15.1335340
  25.1710200  75.0118070  15.6582990  24.6331290  75.7364130  15.3391690
  25.4244160  74.5348410  14.8680330  26.4235450  62.9802590  17.1838920
  27.0135140  62.6718440  17.8716740  25.6055690  62.5082340  17.3398820
  31.2428880  62.5968400  17.4171940  30.5544400  61.9349940  17.3521930
  31.9634900  62.1506670  17.8620400  31.8729280  59.1920030   3.4762200
  32.1531570  58.3487930   3.8321620  31.0995010  59.4243140   3.9900950
  28.0272410  76.2469280  15.9169640  27.9531110  77.1504420  16.2242010
  27.1251250  75.9281180  15.8891710  28.5757740  75.4127790   3.5396000
  29.4708530  75.7512760   3.5614760  28.6075370  74.6907200   2.9120280
  22.2153900  70.7854840   1.7683000  22.6528770  71.3284510   2.4240580
  22.7001630  69.9601790   1.7779340  19.4299700  73.5743870   9.2203260
  19.7602710  72.7064930   8.9881900  19.8590700  73.7802390  10.0508220
  24.0261620  71.9052880   6.8805230  23.7257160  71.7817850   7.7809140
  23.9199110  71.0461470   6.4720960  19.9189910  74.4414460  11.9584890
  19.4820900  74.6215260  12.7909040  20.4867590  75.1989080  11.8166610
  35.5552090  73.9431460  16.2462200  34.9554080  74.0024020  15.5026120
  35.6845990  73.0036440  16.3759050  36.2510000  68.4296760   4.0866110
  37.0128910  68.9993410   4.1925800  36.2664370  67.8623960   4.8574420
  19.7514340  66.9534690   8.3173770  19.0963180  66.6846330   7.6733470
  20.5892290  66.8439170   7.8675750  37.2569970  69.2846860   8.9308040
  37.6278800  68.5014180   8.5244010  37.8971900  69.9735960   8.7525340
  34.2403730  70.6683440  14.3438360  33.4263570  71.0980600  14.6064150
  34.6477930  71.2801850  13.7307410  32.7004780  61.7475980   2.5392260
  33.1189660  61.5606960   1.6988920  32.3940840  60.8955030   2.8495190
  36.1994510  66.6600120   6.2368060  35.8238110  65.8928050   5.8049350
  35.4697630  67.0422820   6.7242990  20.7890270  67.3387260  12.8577110
  21.1563310  67.2514660  13.7373130  20.2201090  66.5753810  12.7583970
  35.5894130  65.8071640  15.8707580  35.3580220  65.5784390  14.9705530
  35.8498680  66.7271190  15.8252470  20.3406270  64.2496350  16.7635530
  19.4462320  64.2163110  17.1029240  20.8803820  64.4483140  17.5286780
  34.0282200  61.0328070  18.6487280  34.9052380  61.0411470  19.0321280
  34.0403040  60.2958910  18.0379630  18.9652420  64.1633620   4.2599100
  18.0616500  64.4263820   4.0850760  19.4493040  64.4344790   3.4799060
  35.4745470  64.8857610   9.5375300  35.9982950  64.3920260   8.9065470
  36.0604890  65.0207970  10.2822870  35.6535190  64.9697480  13.0594850
  34.7037900  64.9361020  13.1739840  35.8348200  65.8797590  12.8244620
  34.9645440  64.1430960   5.4767710  35.4604560  63.9101830   6.2616590
  34.7661510  63.3042800   5.0605350  20.8445980  58.5244680  11.1118750
  21.4922170  57.9742060  10.6713910  21.2647820  58.7787830  11.9334560
  36.3932600  62.7791910   8.0105390  36.2831880  62.6247950   8.9487660
  37.1540190  62.2512850   7.7680800  34.7398320  58.7186040  14.4688390
  35.3770540  59.3320180  14.8347580  34.8873210  58.7546700  13.5237620
  37.3561360  61.3810490   3.8768240  36.5612860  61.3155610   4.4061150
  37.5604640  62.3161130   3.8653590  34.2979780  75.4202040   7.8706630
  34.8938850  75.0986610   7.1941050  34.5557930  74.9473860   8.6619900
  20.5977980  58.6800350  13.8544070  20.2492800  59.1364170  14.6202250
  20.2665680  57.7857480  13.9366500  22.2042350  71.8519950  18.0197260
  22.1611980  71.4812860  18.9011720  22.3353360  72.7897520  18.1599080
  25.9048380  73.4079540  13.6206980  25.6639740  73.6754100  12.7337500
  26.8451020  73.5785270  13.6757840  28.1102800  59.8712230  17.3763490
  28.0491690  60.4634060  18.1258900  29.0503180  59.7638190  17.2313750
  30.7477360  59.5282290  17.0155780  31.3617770  59.8461580  16.3536860
  31.2926920  59.0430880  17.6351640  37.1652540  75.4273920  14.4217620
  36.6710820  75.8242790  13.7044750  36.5565830  74.8023130  14.8154900
  21.2698620  58.2076550  17.1294840  21.8181610  58.0264600  16.3660950
  21.3353930  57.4170660  17.6651150  22.0430380  74.7982200  15.1395040
  21.4490700  74.6666900  15.8785080  22.0354220  73.9620340  14.6737140
  31.4885400  58.0914430  13.3425070  30.6145240  58.4249540  13.1398000
  31.3796150  57.6187610  14.1676940  32.3957380  60.2985300  14.7266790
  32.0670740  59.4837060  14.3468520  33.3439680  60.2555110  14.6032480
  34.8491990  76.0697340  11.7004360  34.3894960  76.8213150  11.3262380
  34.2204450  75.3503810  11.6419160  21.6742610  72.1640580  14.0903080
  20.9476670  71.5445870  14.0229030  21.7351760  72.5581190  13.2201160
  25.2787710  74.3785580  10.8752490  25.7952730  73.7672940  10.3500750
  25.9285090  74.8814360  11.3663500  28.0183210  75.2694070  11.7021470
  28.3061020  75.0148370  10.8254480  28.5306430  74.7171430  12.2927040
  29.2360220  59.0084270  12.2817980  28.4532010  59.4829770  12.5614740
  28.9423150  58.1039100  12.1731160  33.7881290  59.7107370  10.3267070
  34.2289380  59.6552470   9.4788670  33.5188880  60.6265380  10.3977250
  35.6519860  59.3422610   8.3375890  35.5908260  58.3983830   8.1906910
  36.4311890  59.4502700   8.8829350  19.9572610  75.4814970   7.2999840
  19.7894650  74.8485650   7.9981730  19.0907120  75.6874370   6.9494030
  20.5800630  59.3131750   4.8031700  21.3379990  59.4260630   4.2295730
  20.1177800  60.1500950   4.7575130  27.1214440  61.4271020   7.7934010
  26.3088950  61.0527910   7.4529890  27.6256080  60.6716100   8.0955200
  31.6239420  58.0913470   9.0317080  32.2268790  58.6633680   9.5065600
  30.8832410  58.6552910   8.8090980  34.7674020  58.4935030   4.3057360
  34.9624650  59.3918480   4.5724790  33.9803890  58.2622110   4.7990310
  21.5635310  74.1748200   4.7449980  21.0382930  74.5556230   4.0411940
  21.4879890  74.7998970   5.4659690  22.9525780  59.8395800   3.3433670
  23.4818540  59.0525600   3.2141620  23.5854100  60.5186990   3.5769200
  25.1463620  59.5770940   6.3979060  24.5166360  58.8758250   6.5649190
  24.6068760  60.3375070   6.1812220  28.0855570  76.1910170  19.0689670
  29.0122880  75.9554440  19.1125630  28.0706000  77.0182170  18.5875700
  36.3200630  75.7335740   6.0663920  36.4952820  75.0473480   5.4224840
  35.6222200  76.2582790   5.6740590  25.2719180  58.8554920  18.8331550
  24.9903450  59.3588520  18.0692370  25.6538880  58.0576670  18.4673680
  24.1628280  76.1230580   3.6199230  24.8947100  75.8389860   3.0723120
  24.4221950  75.8843860   4.5098610  23.3243070  72.2395310   3.6245560
  22.6951950  72.7080410   4.1731390  23.4390900  71.3944530   4.0591750
  31.8734640  58.2708500  19.4112020  31.7600090  58.5903110  20.3063540
  32.6904380  58.6721010  19.1149300  34.6533130  75.4180030  18.8930710
  35.4458450  74.9229260  18.6856670  34.9466280  76.0970170  19.5006320
  30.7792790  47.5157480 139.9694680  30.6986840  46.6012090 139.6986390
  30.3657210  48.0124550 139.2634390  28.9110830  49.2936500 141.8503950
  28.1352930  48.8136940 142.1402520  29.5623760  48.6142150 141.6760110
  22.9276660  49.6056310 142.7279710  22.0961540  49.3505020 143.1276220
  23.5357640  49.6767080 143.4637630  32.9318260  53.6996690 140.6303080
  32.4699790  52.9283930 140.9590250  33.7443810  53.7262760 141.1355530
  22.9077920  53.6396400 142.9237730  23.2105960  52.7494140 142.7447950
  23.6521510  54.1966620 142.6959980  21.3368610  44.5658200 136.5122100
  20.4485310  44.9074170 136.4101980  21.6209800  44.3658520 135.6202930
  19.3001620  47.1663850 142.3961800  19.8717730  46.3986050 142.3965440
  19.3003160  47.4652610 141.4868410  29.1581570  55.9854700 140.2507070
  28.5393010  56.4412200 139.6801510  30.0133350  56.1406160 139.8496770
  28.3519820  51.9693690 141.8574110  28.2828100  51.0283630 141.6963240
  29.1139680  52.0595100 142.4296680  20.5426490  42.5748210 144.1830730
  20.3629330  41.6773960 144.4633490  20.1406570  43.1220080 144.8577680
  29.3824990  44.7764070 142.0843040  29.7589810  43.9035950 141.9716710
  29.2844500  45.1122770 141.1933480  23.5130000  43.1489700 137.5460480
  23.6196750  44.0493430 137.8529240  22.6022360  43.1007670 137.2555130
  33.1649110  42.2714510 139.0171380  33.9858730  41.7811080 139.0596860
  33.1983190  42.8612170 139.7703220  21.1613160  45.0708710 142.7913070
  21.8423270  45.3347080 143.4100470  20.8461210  44.2309580 143.1251080
  25.3537730  46.1176070 141.8785660  25.8615950  46.6157040 142.5190680
  25.8850970  45.3411270 141.7025020  37.4548660  44.2881260 145.5815010
  36.7500830  44.6762970 145.0630120  37.7206580  44.9831550 146.1835940
  23.6373830  40.7574630 146.1449080  23.6392270  41.2747020 145.3394980
  22.8078140  40.2804810 146.1219010  30.0244920  50.8693940 137.6438980
  29.4062190  51.3343390 137.0801700  30.5368170  51.5621420 138.0608490
  24.8876680  50.3969810 144.3222580  24.5546060  51.0238730 144.9643650
  25.0643360  50.9231690 143.5424250  33.4010590  44.2114890 141.7898920
  32.6966160  44.4999780 142.3702030  33.7622750  45.0215000 141.4298480
  23.3189160  42.4684590 144.1519530  23.6605970  43.3126640 143.8573400
  22.3804970  42.6168330 144.2684870  24.0995780  52.3650610 146.1371760
  24.7169780  53.0401690 145.8556210  23.2388900  52.7738590 146.0459260
  19.3928120  51.5550470 135.0178610  19.0156100  52.0437570 134.2863510
  19.6501190  52.2275750 135.6485140  35.0173370  53.8290020 144.0526400
  34.3336890  54.4989130 144.0443070  35.5567660  54.0270670 143.2871260
  36.4697510  43.6569680 142.1808130  35.5222420  43.6908660 142.3123560
  36.7947500  44.4708630 142.5657490  27.0017050  39.9566860 140.4764120
  27.3092030  39.4013750 139.7599620  26.0717750  40.0911320 140.2937110
  32.5532110  55.6734150 142.7671580  32.5659270  55.2696440 141.8993840
  32.0007330  56.4481440 142.6633010  33.8477530  52.3950370 137.8561750
  33.7373860  51.4524700 137.9811170  33.8445780  52.7566010 138.7424510
  31.9517550  50.5763990 144.0954190  32.3686340  50.3624100 143.2607650
  32.6757370  50.8336780 144.6662810  29.3897810  48.0215690 137.2124240
  28.4627090  47.9553070 137.4412710  29.5422630  48.9595820 137.0979480
  29.3766890  44.2932690 134.2091400  28.4370560  44.4546650 134.2943860
  29.6950150  45.0118370 133.6627390  35.8979650  48.9751210 144.1870430
  35.0698280  49.0444300 143.7120560  36.4930130  49.5605520 143.7186260
  33.4195100  49.5835990 137.7159490  32.8007520  49.2455540 137.0685790
  33.4019550  48.9395750 138.4238680  32.8621660  45.7620530 145.1325300
  32.4492840  46.5874240 145.3865290  32.1297610  45.1765570 144.9401660
  24.9954450  48.5480430 139.9943970  24.5911450  47.8357680 139.4989870
  25.0817570  48.2033670 140.8832010  25.4636150  52.2347990 142.1583180
  25.1664440  51.6293460 141.4790960  26.4135970  52.2725300 142.0472540
  23.7083070  45.3223640 143.7743010  24.2597660  45.4318980 142.9996260
  24.2226580  45.6961240 144.4898240  33.5521760  55.8079860 145.8206280
  33.0752320  56.6152050 145.6278890  32.8683550  55.1558190 145.9732490
  24.5554580  51.9729680 148.8090980  23.6583110  52.1969650 149.0564380
  24.5807450  52.0964620 147.8602380  31.5959800  48.8222800 134.7232240
  32.0353080  47.9845230 134.5770060  32.3088220  49.4552200 134.8096380
  23.3825800  48.8443000 147.3848350  23.2433570  49.7165800 147.7535750
  22.5007160  48.5015810 147.2396290  29.7055180  53.7618870 138.6913480
  30.1451090  54.5043200 138.2768870  29.6442070  54.0045440 139.6152440
  25.1806150  54.7864700 149.5933500  25.1521580  55.1907650 148.7261930
  25.0171120  53.8575060 149.4305100  35.1776940  40.0765610 133.0373280
  34.8649600  40.1692440 133.9372350  35.9389410  40.6546640 132.9870710
  21.6959080  47.4425410 137.4950620  21.5756680  48.1687500 136.8831890
  21.3859970  46.6728320 137.0178530  19.3344450  50.6140550 143.3019260
  19.4124870  50.7489320 142.3574980  19.9486130  49.9056440 143.4947380
  20.5792080  52.3140740 139.7125440  20.1720160  52.4555330 138.8579040
  21.4705090  52.0300900 139.5096650  36.5354220  52.7604650 148.0497680
  36.6617280  52.5216530 147.1314860  36.5775600  51.9289190 148.5219760
  30.3970960  56.4632650 146.6192490  30.9115630  56.3740660 147.4214920
  29.5540040  56.8092350 146.9120400  32.3725360  56.7487990 136.0476490
  32.2126500  56.4590930 136.9458320  32.2072070  55.9728120 135.5121720
  24.8513740  56.5286520 137.8248110  24.6756220  55.6122060 137.6115910
  23.9969480  56.8873810 138.0645910  32.0751490  54.2575550 134.6074490
  31.3816650  54.2552840 133.9476770  32.8174350  53.8334870 134.1768660
  31.6401420  55.8838260 138.6822980  32.0958370  55.1027640 138.9961600
  31.9793940  56.5945080 139.2264160  36.3878230  44.8137110 149.0147420
  35.7722500  45.3216780 148.4862880  36.0674650  43.9135440 148.9573360
  19.3903970  51.6554720 145.8413720  19.5535010  51.1860080 145.0233090
  19.8556420  51.1478280 146.5062560  24.1622740  40.7860480 140.8774290
  23.7190890  41.5670020 140.5458810  24.7207730  41.1090370 141.5845230
  28.4492550  43.6529000 146.4809610  27.9871920  43.8612020 147.2929550
  28.0470660  42.8388350 146.1780280  33.4497060  44.8737950 147.6106270
  32.5990650  44.5743700 147.9315340  33.2898850  45.1179960 146.6990090
  30.5446770  46.3739700 149.7105060  30.8700180  45.5403450 149.3707290
  31.3327100  46.8968220 149.8583390  27.2781560  40.4071180 135.7580120
  26.6535740  40.4031050 136.4833430  27.1911680  39.5402140 135.3616090
  26.1998640  41.3307810 142.7363890  26.4970970  42.2370640 142.6555910
  26.7484200  40.8426590 142.1223460  23.9536960  45.9094050 138.6055540
  23.7277880  45.6931220 139.5102160  23.1729490  46.3422510 138.2601510
  31.1834720  45.9157420 137.2046190  30.5843610  46.6393220 137.0209810
  31.7314330  45.8534200 136.4222640  26.3936170  46.8079630 149.2715810
  26.2979770  45.8674360 149.1216210  27.2368150  47.0294700 148.8763880
  29.7899590  44.5520960 139.2349470  30.1829160  44.8693160 138.4218160
  30.1516440  43.6732840 139.3493990  21.5246710  43.2193300 147.4249590
  21.1310100  44.0668510 147.6322370  20.8365110  42.5819670 147.6158230
  18.8263760  41.1421760 141.4579670  18.5376810  41.7124620 142.1704650
  19.5709520  40.6626210 141.8210900  19.0133990  45.0841880 132.6682390
  18.9308660  46.0272640 132.8097380  18.6617050  44.9416790 131.7894740
  30.3754730  47.1426710 143.3300250  29.6435850  47.6513520 143.6790350
  29.9779070  46.3256690 143.0289030  26.8132120  43.8180910 141.7352740
  26.8168180  43.3770860 140.8857280  27.7083240  44.1398240 141.8424560
  22.6634500  43.7007400 140.6946950  22.3234550  44.1782630 141.4514000
  21.9011820  43.2472520 140.3348050  26.8752270  44.8192990 134.7259500
  26.9965090  44.7779470 135.6745320  26.4900780  45.6817140 134.5706230
  30.8380640  42.5960390 142.7423190  30.8553380  43.0469040 143.5865040
  30.5896220  41.6966030 142.9556630  25.8873770  47.1294130 134.1242800
  25.3190670  46.6812380 133.4978710  26.5962770  47.4886910 133.5907950
  34.2651390  40.0092570 148.5809570  34.5897160  39.2782230 149.1067550
  34.3007900  39.6906210 147.6790560  20.9642950  51.0306150 148.0009530
  20.5797740  50.3899820 148.5992490  21.2755140  51.7342270 148.5704260
  27.1140090  47.8782690 143.4818150  27.4810220  47.4041260 144.2279490
  26.9245150  48.7524260 143.8226490  19.9780580  42.6226380 139.6111620
  19.6927500  42.2582050 140.4490240  19.9159440  41.8906840 138.9974760
  24.9039460  46.9191330 145.8002360  24.5996530  47.7983310 146.0252720
  25.8585920  46.9791120 145.8359800  23.4321250  51.1252320 136.3969210
  22.6583510  50.5849940 136.2367930  24.1615880  50.6058930 136.0586970
  34.1909230  50.1217680 142.1895600  34.9108350  50.6172970 141.7991710
  33.9891050  49.4435570 141.5449470  29.6519170  41.5155640 136.3324990
  28.8383780  41.0168810 136.2570300  29.4581120  42.3553890 135.9161340
  29.5728030  50.1926740 148.0764600  29.5065340  49.2722410 147.8222190
  28.9433170  50.2902180 148.7909240  32.3667560  45.8875290 134.6287150
  33.2547180  46.1992520 134.4538490  32.3372650  45.0147540 134.2367730
  23.4758650  50.7932700 140.0348020  23.9937320  49.9900960 139.9804910
  23.0242670  50.7311840 140.8764850  28.3628150  52.0598980 135.3075320
  28.7043850  52.8041210 134.8118640  27.5340860  52.3730100 135.6700150
  20.9603190  47.7594070 146.9473720  20.6018130  48.4247920 147.5347060
  20.6657750  46.9277620 147.3186340  24.1616310  48.2178310 149.8313270
  23.8616450  48.3635490 148.9341090  24.9327550  47.6583600 149.7386660
  29.5044760  53.0147310 147.8268400  29.5189300  52.0828270 147.6087310
  28.7969860  53.1007070 148.4658170  34.6381830  47.1987130 134.0967010
  34.5545550  47.6301350 133.2463450  35.3576020  47.6585480 134.5293830
  35.7155970  49.6554650 147.1736980  34.9904160  50.2483430 146.9766370
  36.2431430  49.6478190 146.3750350  35.6669080  54.0529390 136.8249140
  35.0245240  53.3985010 137.0992860  35.2799740  54.4584480 136.0489810
  31.2455560  51.3814820 140.6720830  31.5979380  50.7842950 140.0122200
  30.3617890  51.0559050 140.8429080  27.3318840  52.1412510 138.0791240
  28.0189970  52.6881720 138.4598830  26.5451260  52.6853240 138.1140850
  19.4711240  47.7585330 133.5708320  20.3406090  48.0410130 133.8544240
  18.9801560  48.5721200 133.4557130  26.6346050  49.1458540 137.6916600
  27.0908830  49.9563790 137.9176790  26.2834260  48.8281680 138.5235090
  28.9378660  54.6564880 144.9208900  29.5820880  54.8624260 145.5982320
  29.3008100  53.8953280 144.4679750  22.5357830  39.4896190 138.1639120
  22.4072460  39.4814090 139.1124040  21.7119850  39.8279280 137.8130130
  30.2110740  52.6597230 143.6386350  30.8532970  51.9590390 143.7518520
  30.7360090  53.4395670 143.4583240  34.0566460  52.9445850 133.3625490
  33.8304040  52.2276290 133.9550130  33.6662660  52.6958290 132.5247240
  31.9848360  53.4592130 146.8422410  32.3204600  54.0458820 147.5200330
  31.0648700  53.3284840 147.0720200  19.8382490  56.9712710 134.1369950
  20.1980130  57.5702050 133.4827220  19.6974830  57.5172600 134.9104980
  19.5351760  41.2487310 147.6245820  18.8210280  41.4484230 148.2298430
  19.9546800  40.4726880 147.9960620  33.6382710  50.8617790 135.0239650
  33.3504410  51.3230480 135.8117530  34.4334880  50.4015560 135.2923870
  19.8224350  55.2367570 148.6112350  19.9315470  54.2962310 148.4707740
  19.1704910  55.5022320 147.9626080  25.8551110  54.3543910 134.9543620
  25.8461210  55.0873600 134.3388130  24.9349470  54.1075490 135.0470580
  21.4557750  49.5758800 135.6990380  20.8485700  50.3157700 135.7085680
  21.9307100  49.6658160 134.8728580  31.0290540  43.7409620 145.3747270
  31.3971360  42.9204830 145.7026840  30.1688740  43.8011510 145.7902920
  34.3952570  42.6966560 136.1834830  33.7665730  42.8012230 135.4693060
  33.9004490  42.9163340 136.9728710  28.8410710  54.4172150 133.6168810
  28.9422690  54.2136140 132.6870790  27.9412450  54.1630430 133.8216590
  26.3636600  44.9752510 137.5992710  25.6552750  45.4438850 138.0406320
  26.6481080  44.3174520 138.2337900  27.9892530  46.3949210 145.5985240
  28.4877780  46.8695030 146.2637090  28.1315480  45.4712730 145.8055270
  30.3952030  41.7003170 139.0388500  30.2719810  41.7189300 138.0898010
  31.3436590  41.7482110 139.1586900  27.4828820  56.9358470 138.3116480
  27.7370320  56.8979860 137.3895850  26.5341300  56.8091800 138.3044730
  24.5671620  43.2837590 134.9743420  25.4162150  43.7207740 134.9083610
  24.2002890  43.5957850 135.8015480  35.1959390  42.6117170 146.4413630
  34.6932990  43.3522570 146.7807440  36.0116050  43.0001170 146.1250420
  33.4881400  47.8550350 139.8874990  32.5471540  47.8700580 140.0622680
  33.8025470  47.0686310 140.3335290  23.4663040  49.5369950 133.4478950
  24.2326310  49.4251310 134.0104380  23.5437730  48.8407920 132.7955720
  22.1609800  46.9695020 134.1311840  22.2413390  46.0222530 134.2429240
  23.0529550  47.3001900 134.2372500  35.4906980  55.0259200 141.5629250
  35.6154400  55.8490370 142.0353060  36.3572540  54.8149930 141.2153400
  22.9624510  57.1190410 141.2346380  23.6986990  56.5705870 141.5054950
  23.3465430  57.9846420 141.0952370  19.8469990  53.1863980 137.1087890
  18.9209770  53.4285120 137.0993300  20.3126420  54.0138240 136.9872640
  26.0726820  56.2920720 133.0571950  26.8655430  56.5809550 132.6053740
  25.5531170  55.8612890 132.3784430  32.2347790  56.1396640 148.9816780
  33.1869540  56.0554660 148.9317020  32.0876010  56.8038350 149.6550570
  35.1256990  55.5190850 134.4808690  34.8398500  55.1055990 133.6662870
  34.9276540  56.4478560 134.3609210  19.6880600  48.7909940 149.3668010
  20.1919620  48.2117220 149.9384240  18.9488020  49.0750170 149.9044380
  26.5904220  51.5124130 132.9214300  26.4854860  50.8976480 133.6475680
  26.4228440  50.9890020 132.1377310  26.7418540  50.1980930 148.9003530
  25.9764210  50.7665930 148.8158200  26.9234500  49.9057140 148.0071760
  29.8306950  50.5744160 133.5256290  29.2817050  51.0213460 134.1699030
  30.4526210  50.0693410 134.0493960  33.8841890  51.9286260 149.4578550
  34.6251360  52.2662020 148.9546010  33.1214570  52.0978320 148.9048320
  25.4982070  49.5335080 135.4221590  25.9198490  49.3674950 136.2652980
  25.6232910  48.7235310 134.9276730  23.6609490  45.5131630 148.2292570
  23.1305950  45.0222580 147.6015910  24.3297560  45.9415830 147.6950500
  28.0109710  48.5572690 132.6698690  28.5315370  47.8421710 132.3039840
  28.6578110  49.1958560 132.9699200  32.5587550  49.9801090 147.9933760
  32.9728570  50.1346170 148.8424180  31.6238550  50.1056310 148.1559540
  33.0309720  47.3197250 149.9972910  33.6130490  46.5649570 149.9093390
  33.2071490  47.8504690 149.2204390  24.1481790  42.4794000 148.3089860
  24.0538660  41.8614750 147.5840730  23.5679180  43.2060290 148.0819770
  26.9143230  41.0367240 145.3417250  26.4660530  41.0591500 144.4962800
  26.2808430  40.6386260 145.9387550  27.3202780  49.9321570 145.9629690
  27.7390890  50.7754300 145.7905930  26.4011410  50.0693610 145.7336470
  29.6566680  47.6637750 147.3467530  29.7762890  47.0678890 148.0862370
  30.5160680  47.7007440 146.9268830  31.9954580  48.2174940 145.9230040
  31.4689800  48.7417560 145.3195180  32.3385920  48.8502330 146.5539770
  24.3940970  45.6068310 132.3679750  24.1930030  44.7435670 132.7293090
  24.2233020  45.5201670 131.4301350  25.1710200  56.2374580 147.0787420
  24.6331290  56.9620640 146.7596120  25.4244160  55.7604920 146.2884760
  26.4235450  44.2059100 148.6043350  27.0135140  43.8974950 149.2921170
  25.6055690  43.7338850 148.7603250  31.2428880  43.8224910 148.8376370
  30.5544400  43.1606450 148.7726360  31.9634900  43.3763180 149.2824830
  31.8729280  40.4176540 134.8966630  32.1531570  39.5744440 135.2526050
  31.0995010  40.6499650 135.4105380  23.1923770  42.7068930 132.3557630
  23.4949670  42.7136360 131.4476780  23.9318360  42.3566790 132.8525290
  28.0272410  57.4725790 147.3374070  27.9531110  58.3760930 147.6446440
  27.1251250  57.1537690 147.3096140  26.4108700  41.6503550 133.3413830
  26.0630700  40.9727540 132.7616280  26.6121470  41.1893060 134.1557220
  28.5757740  56.6384300 134.9600430  29.4708530  56.9769270 134.9819190
  28.6075370  55.9163710 134.3324710  22.2153900  52.0111350 133.1887430
  22.6528770  52.5541020 133.8445010  22.7001630  51.1858300 133.1983770
  19.4299700  54.8000380 140.6407690  19.7602710  53.9321440 140.4086330
  19.8590700  55.0058900 141.4712650  24.0261620  53.1309390 138.3009660
  23.7257160  53.0074360 139.2013570  23.9199110  52.2717980 137.8925390
  19.9189910  55.6670970 143.3789320  19.4820900  55.8471770 144.2113470
  20.4867590  56.4245590 143.2371040  35.5552090  55.1687970 147.6666630
  34.9554080  55.2280530 146.9230550  35.6845990  54.2292950 147.7963480
  36.7953540  52.9105790 133.0036340  35.9646500  52.9782440 133.4743570
  36.9725370  53.8009910 132.7003200  36.2510000  49.6553270 135.5070540
  37.0128910  50.2249920 135.6130230  36.2664370  49.0880470 136.2778850
  19.7514340  48.1791200 139.7378200  19.0963180  47.9102840 139.0937900
  20.5892290  48.0695680 139.2880180  37.2569970  50.5103370 140.3512470
  37.6278800  49.7270690 139.9448440  37.8971900  51.1992470 140.1729770
  34.2403730  51.8939950 145.7642790  33.4263570  52.3237110 146.0268580
  34.6477930  52.5058360 145.1511840  36.3029170  49.9487640 132.6643060
  36.5778010  50.8566520 132.5362280  36.1139910  49.8850170 133.6005050
  32.7004780  42.9732490 133.9596690  33.1189660  42.7863470 133.1193350
  32.3940840  42.1211540 134.2699620  36.1994510  47.8856630 137.6572490
  35.8238110  47.1184560 137.2253780  35.4697630  48.2679330 138.1447420
  20.7890270  48.5643770 144.2781540  21.1563310  48.4771170 145.1577560
  20.2201090  47.8010320 144.1788400  35.5894130  47.0328150 147.2912010
  35.3580220  46.8040900 146.3909960  35.8498680  47.9527700 147.2456900
  20.3406270  45.4752860 148.1839960  19.4462320  45.4419620 148.5233670
  20.8803820  45.6739650 148.9491210  18.9652420  45.3890130 135.6803530
  18.0616500  45.6520330 135.5055190  19.4493040  45.6601300 134.9003490
  35.4745470  46.1114120 140.9579730  35.9982950  45.6176770 140.3269900
  36.0604890  46.2464480 141.7027300  35.6535190  46.1953990 144.4799280
  34.7037900  46.1617530 144.5944270  35.8348200  47.1054100 144.2449050
  21.5079630  44.4455670 133.5897910  22.2171330  44.0238890 133.1045190
  20.7919570  44.5130900 132.9581260  21.1553790  40.4995000 132.6300560
  21.8781920  41.0403940 132.9481780  21.4278310  40.2258420 131.7542100
  34.9645440  45.3687470 136.8972140  35.4604560  45.1358340 137.6821020
  34.7661510  44.5299310 136.4809780  20.8445980  39.7501190 142.5323180
  21.4922170  39.1998570 142.0918340  21.2647820  40.0044340 143.3538990
  36.3932600  44.0048420 139.4309820  36.2831880  43.8504460 140.3692090
  37.1540190  43.4769360 139.1885230  34.7398320  39.9442550 145.8892820
  35.3770540  40.5576690 146.2552010  34.8873210  39.9803210 144.9442050
  37.2822870  41.8356340 132.6715960  38.2072180  41.7037520 132.4634250
  37.2598660  41.9149160 133.6252410  37.3561360  42.6067000 135.2972670
  36.5612860  42.5412120 135.8265580  37.5604640  43.5417640 135.2858020
  34.2979780  56.6458550 139.2911060  34.8938850  56.3243120 138.6145480
  34.5557930  56.1730370 140.0824330  20.5977980  39.9056860 145.2748500
  20.2492800  40.3620680 146.0406680  20.2665680  39.0113990 145.3570930
  25.9048380  54.6336050 145.0411410  25.6639740  54.9010610 144.1541930
  26.8451020  54.8041780 145.0962270  28.1102800  41.0968740 148.7967920
  28.0491690  41.6890570 149.5463330  29.0503180  40.9894700 148.6518180
  30.7477360  40.7538800 148.4360210  31.3617770  41.0718090 147.7741290
  31.2926920  40.2687390 149.0556070  37.1652540  56.6530430 145.8422050
  36.6710820  57.0499300 145.1249180  36.5565830  56.0279640 146.2359330
  21.2698620  39.4333060 148.5499270  21.8181610  39.2521110 147.7865380
  21.3353930  38.6427170 149.0855580  22.0430380  56.0238710 146.5599470
  21.4490700  55.8923410 147.2989510  22.0354220  55.1876850 146.0941570
  31.4885400  39.3170940 144.7629500  30.6145240  39.6506050 144.5602430
  31.3796150  38.8444120 145.5881370  32.3957380  41.5241810 146.1471220
  32.0670740  40.7093570 145.7672950  33.3439680  41.4811620 146.0236910
  34.8491990  57.2953850 143.1208790  34.3894960  58.0469660 142.7466810
  34.2204450  56.5760320 143.0623590  21.6742610  53.3897090 145.5107510
  20.9476670  52.7702380 145.4433460  21.7351760  53.7837700 144.6405590
  25.2787710  55.6042090 142.2956920  25.7952730  54.9929450 141.7705180
  25.9285090  56.1070870 142.7867930  28.0183210  56.4950580 143.1225900
  28.3061020  56.2404880 142.2458910  28.5306430  55.9427940 143.7131470
  29.2360220  40.2340780 143.7022410  28.4532010  40.7086280 143.9819170
  28.9423150  39.3295610 143.5935590  33.7881290  40.9363880 141.7471500
  34.2289380  40.8808980 140.8993100  33.5188880  41.8521890 141.8181680
  35.6519860  40.5679120 139.7580320  35.5908260  39.6240340 139.6111340
  36.4311890  40.6759210 140.3033780  19.9572610  56.7071480 138.7204270
  19.7894650  56.0742160 139.4186160  19.0907120  56.9130880 138.3698460
  20.5800630  40.5388260 136.2236130  21.3379990  40.6517140 135.6500160
  20.1177800  41.3757460 136.1779560  27.1214440  42.6527530 139.2138440
  26.3088950  42.2784420 138.8734320  27.6256080  41.8972610 139.5159630
  31.6239420  39.3169980 140.4521510  32.2268790  39.8890190 140.9270030
  30.8832410  39.8809420 140.2295410  34.7674020  39.7191540 135.7261790
  34.9624650  40.6174990 135.9929220  33.9803890  39.4878620 136.2194740
  21.5635310  55.4004710 136.1654410  21.0382930  55.7812740 135.4616370
  21.4879890  56.0255480 136.8864120  22.9525780  41.0652310 134.7638100
  23.4818540  40.2782110 134.6346050  23.5854100  41.7443500 134.9973630
  25.1463620  40.8027450 137.8183490  24.5166360  40.1014760 137.9853620
  24.6068760  41.5631580 137.6016650  36.3200630  56.9592250 137.4868350
  36.4952820  56.2729990 136.8429270  35.6222200  57.4839300 137.0945020
  24.1628280  57.3487090 135.0403660  24.8947100  57.0646370 134.4927550
  24.4221950  57.1100370 135.9303040  23.3243070  53.4651820 135.0449990
  22.6951950  53.9336920 135.5935820  23.4390900  52.6201040 135.4796180
  30.7792790  47.5157480 121.1951190  30.6986840  46.6012090 120.9242900
  30.3657210  48.0124550 120.4890900  28.9110830  49.2936500 123.0760460
  28.1352930  48.8136940 123.3659030  29.5623760  48.6142150 122.9016620
  22.9276660  49.6056310 123.9536220  22.0961540  49.3505020 124.3532730
  23.5357640  49.6767080 124.6894140  32.9318260  53.6996690 121.8559590
  32.4699790  52.9283930 122.1846760  33.7443810  53.7262760 122.3612040
  22.9077920  53.6396400 124.1494240  23.2105960  52.7494140 123.9704460
  23.6521510  54.1966620 123.9216490  21.3368610  44.5658200 117.7378610
  20.4485310  44.9074170 117.6358490  21.6209800  44.3658520 116.8459440
  19.3001620  47.1663850 123.6218310  19.8717730  46.3986050 123.6221950
  19.3003160  47.4652610 122.7124920  29.1581570  55.9854700 121.4763580
  28.5393010  56.4412200 120.9058020  30.0133350  56.1406160 121.0753280
  28.3519820  51.9693690 123.0830620  28.2828100  51.0283630 122.9219750
  29.1139680  52.0595100 123.6553190  20.5426490  42.5748210 125.4087240
  20.3629330  41.6773960 125.6890000  20.1406570  43.1220080 126.0834190
  29.3824990  44.7764070 123.3099550  29.7589810  43.9035950 123.1973220
  29.2844500  45.1122770 122.4189990  23.5130000  43.1489700 118.7716990
  23.6196750  44.0493430 119.0785750  22.6022360  43.1007670 118.4811640
  33.1649110  42.2714510 120.2427890  33.9858730  41.7811080 120.2853370
  33.1983190  42.8612170 120.9959730  21.1613160  45.0708710 124.0169580
  21.8423270  45.3347080 124.6356980  20.8461210  44.2309580 124.3507590
  25.3537730  46.1176070 123.1042170  25.8615950  46.6157040 123.7447190
  25.8850970  45.3411270 122.9281530  37.4548660  44.2881260 126.8071520
  36.7500830  44.6762970 126.2886630  37.7206580  44.9831550 127.4092450
  23.6373830  40.7574630 127.3705590  23.6392270  41.2747020 126.5651490
  22.8078140  40.2804810 127.3475520  30.0244920  50.8693940 118.8695490
  29.4062190  51.3343390 118.3058210  30.5368170  51.5621420 119.2865000
  24.8876680  50.3969810 125.5479090  24.5546060  51.0238730 126.1900160
  25.0643360  50.9231690 124.7680760  33.4010590  44.2114890 123.0155430
  32.6966160  44.4999780 123.5958540  33.7622750  45.0215000 122.6554990
  23.3189160  42.4684590 125.3776040  23.6605970  43.3126640 125.0829910
  22.3804970  42.6168330 125.4941380  24.0995780  52.3650610 127.3628270
  24.7169780  53.0401690 127.0812720  23.2388900  52.7738590 127.2715770
  19.3928120  51.5550470 116.2435120  19.0156100  52.0437570 115.5120020
  19.6501190  52.2275750 116.8741650  35.0173370  53.8290020 125.2782910
  34.3336890  54.4989130 125.2699580  35.5567660  54.0270670 124.5127770
  36.4697510  43.6569680 123.4064640  35.5222420  43.6908660 123.5380070
  36.7947500  44.4708630 123.7914000  27.0017050  39.9566860 121.7020630
  27.3092030  39.4013750 120.9856130  26.0717750  40.0911320 121.5193620
  32.5532110  55.6734150 123.9928090  32.5659270  55.2696440 123.1250350
  32.0007330  56.4481440 123.8889520  33.8477530  52.3950370 119.0818260
  33.7373860  51.4524700 119.2067680  33.8445780  52.7566010 119.9681020
  31.9517550  50.5763990 125.3210700  32.3686340  50.3624100 124.4864160
  32.6757370  50.8336780 125.8919320  29.3897810  48.0215690 118.4380750
  28.4627090  47.9553070 118.6669220  29.5422630  48.9595820 118.3235990
  29.3766890  44.2932690 115.4347910  28.4370560  44.4546650 115.5200370
  29.6950150  45.0118370 114.8883900  35.8979650  48.9751210 125.4126940
  35.0698280  49.0444300 124.9377070  36.4930130  49.5605520 124.9442770
  33.4195100  49.5835990 118.9416000  32.8007520  49.2455540 118.2942300
  33.4019550  48.9395750 119.6495190  32.8621660  45.7620530 126.3581810
  32.4492840  46.5874240 126.6121800  32.1297610  45.1765570 126.1658170
  24.9954450  48.5480430 121.2200480  24.5911450  47.8357680 120.7246380
  25.0817570  48.2033670 122.1088520  25.4636150  52.2347990 123.3839690
  25.1664440  51.6293460 122.7047470  26.4135970  52.2725300 123.2729050
  23.7083070  45.3223640 124.9999520  24.2597660  45.4318980 124.2252770
  24.2226580  45.6961240 125.7154750  33.5521760  55.8079860 127.0462790
  33.0752320  56.6152050 126.8535400  32.8683550  55.1558190 127.1989000
  24.5554580  51.9729680 130.0347490  23.6583110  52.1969650 130.2820890
  24.5807450  52.0964620 129.0858890  31.5959800  48.8222800 115.9488750
  32.0353080  47.9845230 115.8026570  32.3088220  49.4552200 116.0352890
  23.3825800  48.8443000 128.6104860  23.2433570  49.7165800 128.9792260
  22.5007160  48.5015810 128.4652800  29.7055180  53.7618870 119.9169990
  30.1451090  54.5043200 119.5025380  29.6442070  54.0045440 120.8408950
  25.1806150  54.7864700 130.8190010  25.1521580  55.1907650 129.9518440
  25.0171120  53.8575060 130.6561610  35.1776940  40.0765610 114.2629790
  34.8649600  40.1692440 115.1628860  35.9389410  40.6546640 114.2127220
  21.6959080  47.4425410 118.7207130  21.5756680  48.1687500 118.1088400
  21.3859970  46.6728320 118.2435040  37.1320970  55.5691800 132.1154180
  37.6080690  56.0474690 132.7943260  37.7528130  55.5009290 131.3899680
  19.3344450  50.6140550 124.5275770  19.4124870  50.7489320 123.5831490
  19.9486130  49.9056440 124.7203890  20.5792080  52.3140740 120.9381950
  20.1720160  52.4555330 120.0835550  21.4705090  52.0300900 120.7353160
  36.5354220  52.7604650 129.2754190  36.6617280  52.5216530 128.3571370
  36.5775600  51.9289190 129.7476270  30.3970960  56.4632650 127.8449000
  30.9115630  56.3740660 128.6471430  29.5540040  56.8092350 128.1376910
  32.3725360  56.7487990 117.2733000  32.2126500  56.4590930 118.1714830
  32.2072070  55.9728120 116.7378230  24.8513740  56.5286520 119.0504620
  24.6756220  55.6122060 118.8372420  23.9969480  56.8873810 119.2902420
  32.0751490  54.2575550 115.8331000  31.3816650  54.2552840 115.1733280
  32.8174350  53.8334870 115.4025170  31.6401420  55.8838260 119.9079490
  32.0958370  55.1027640 120.2218110  31.9793940  56.5945080 120.4520670
  36.3878230  44.8137110 130.2403930  35.7722500  45.3216780 129.7119390
  36.0674650  43.9135440 130.1829870  19.3903970  51.6554720 127.0670230
  19.5535010  51.1860080 126.2489600  19.8556420  51.1478280 127.7319070
  24.1622740  40.7860480 122.1030800  23.7190890  41.5670020 121.7715320
  24.7207730  41.1090370 122.8101740  28.4492550  43.6529000 127.7066120
  27.9871920  43.8612020 128.5186060  28.0470660  42.8388350 127.4036790
  33.4497060  44.8737950 128.8362780  32.5990650  44.5743700 129.1571850
  33.2898850  45.1179960 127.9246600  30.5446770  46.3739700 130.9361570
  30.8700180  45.5403450 130.5963800  31.3327100  46.8968220 131.0839900
  27.2781560  40.4071180 116.9836630  26.6535740  40.4031050 117.7089940
  27.1911680  39.5402140 116.5872600  26.1998640  41.3307810 123.9620400
  26.4970970  42.2370640 123.8812420  26.7484200  40.8426590 123.3479970
  23.9536960  45.9094050 119.8312050  23.7277880  45.6931220 120.7358670
  23.1729490  46.3422510 119.4858020  31.1834720  45.9157420 118.4302700
  30.5843610  46.6393220 118.2466320  31.7314330  45.8534200 117.6479150
  26.3936170  46.8079630 130.4972320  26.2979770  45.8674360 130.3472720
  27.2368150  47.0294700 130.1020390  29.7899590  44.5520960 120.4605980
  30.1829160  44.8693160 119.6474670  30.1516440  43.6732840 120.5750500
  21.5246710  43.2193300 128.6506100  21.1310100  44.0668510 128.8578880
  20.8365110  42.5819670 128.8414740  28.0991760  43.3028270 131.7202840
  27.4090080  43.1100470 132.3548930  28.8424060  43.5862910 132.2527140
  18.8263760  41.1421760 122.6836180  18.5376810  41.7124620 123.3961160
  19.5709520  40.6626210 123.0467410  19.0133990  45.0841880 113.8938900
  18.9308660  46.0272640 114.0353890  18.6617050  44.9416790 113.0151250
  30.3754730  47.1426710 124.5556760  29.6435850  47.6513520 124.9046860
  29.9779070  46.3256690 124.2545540  26.8132120  43.8180910 122.9609250
  26.8168180  43.3770860 122.1113790  27.7083240  44.1398240 123.0681070
  22.6634500  43.7007400 121.9203460  22.3234550  44.1782630 122.6770510
  21.9011820  43.2472520 121.5604560  26.8752270  44.8192990 115.9516010
  26.9965090  44.7779470 116.9001830  26.4900780  45.6817140 115.7962740
  30.8380640  42.5960390 123.9679700  30.8553380  43.0469040 124.8121550
  30.5896220  41.6966030 124.1813140  25.8873770  47.1294130 115.3499310
  25.3190670  46.6812380 114.7235220  26.5962770  47.4886910 114.8164460
  34.2651390  40.0092570 129.8066080  34.5897160  39.2782230 130.3324060
  34.3007900  39.6906210 128.9047070  20.9642950  51.0306150 129.2266040
  20.5797740  50.3899820 129.8249000  21.2755140  51.7342270 129.7960770
  27.1140090  47.8782690 124.7074660  27.4810220  47.4041260 125.4536000
  26.9245150  48.7524260 125.0483000  19.9780580  42.6226380 120.8368130
  19.6927500  42.2582050 121.6746750  19.9159440  41.8906840 120.2231270
  24.9039460  46.9191330 127.0258870  24.5996530  47.7983310 127.2509230
  25.8585920  46.9791120 127.0616310  23.4321250  51.1252320 117.6225720
  22.6583510  50.5849940 117.4624440  24.1615880  50.6058930 117.2843480
  34.1909230  50.1217680 123.4152110  34.9108350  50.6172970 123.0248220
  33.9891050  49.4435570 122.7705980  29.6519170  41.5155640 117.5581500
  28.8383780  41.0168810 117.4826810  29.4581120  42.3553890 117.1417850
  29.5728030  50.1926740 129.3021110  29.5065340  49.2722410 129.0478700
  28.9433170  50.2902180 130.0165750  32.3667560  45.8875290 115.8543660
  33.2547180  46.1992520 115.6795000  32.3372650  45.0147540 115.4624240
  23.4758650  50.7932700 121.2604530  23.9937320  49.9900960 121.2061420
  23.0242670  50.7311840 122.1021360  28.3628150  52.0598980 116.5331830
  28.7043850  52.8041210 116.0375150  27.5340860  52.3730100 116.8956660
  20.9603190  47.7594070 128.1730230  20.6018130  48.4247920 128.7603570
  20.6657750  46.9277620 128.5442850  24.1616310  48.2178310 131.0569780
  23.8616450  48.3635490 130.1597600  24.9327550  47.6583600 130.9643170
  29.5044760  53.0147310 129.0524910  29.5189300  52.0828270 128.8343820
  28.7969860  53.1007070 129.6914680  35.7155970  49.6554650 128.3993490
  34.9904160  50.2483430 128.2022880  36.2431430  49.6478190 127.6006860
  35.6669080  54.0529390 118.0505650  35.0245240  53.3985010 118.3249370
  35.2799740  54.4584480 117.2746320  31.2455560  51.3814820 121.8977340
  31.5979380  50.7842950 121.2378710  30.3617890  51.0559050 122.0685590
  27.3318840  52.1412510 119.3047750  28.0189970  52.6881720 119.6855340
  26.5451260  52.6853240 119.3397360  19.4711240  47.7585330 114.7964830
  20.3406090  48.0410130 115.0800750  18.9801560  48.5721200 114.6813640
  26.6346050  49.1458540 118.9173110  27.0908830  49.9563790 119.1433300
  26.2834260  48.8281680 119.7491600  28.9378660  54.6564880 126.1465410
  29.5820880  54.8624260 126.8238830  29.3008100  53.8953280 125.6936260
  22.5357830  39.4896190 119.3895630  22.4072460  39.4814090 120.3380550
  21.7119850  39.8279280 119.0386640  30.2110740  52.6597230 124.8642860
  30.8532970  51.9590390 124.9775030  30.7360090  53.4395670 124.6839750
  31.9848360  53.4592130 128.0678920  32.3204600  54.0458820 128.7456840
  31.0648700  53.3284840 128.2976710  19.8382490  56.9712710 115.3626460
  20.1980130  57.5702050 114.7083730  19.6974830  57.5172600 116.1361490
  19.5351760  41.2487310 128.8502330  18.8210280  41.4484230 129.4554940
  19.9546800  40.4726880 129.2217130  19.8224350  55.2367570 129.8368860
  19.9315470  54.2962310 129.6964250  19.1704910  55.5022320 129.1882590
  27.8136940  53.5083460 131.2366980  27.4933810  52.7892700 131.7812670
  27.1395300  54.1838530 131.3103040  25.8551110  54.3543910 116.1800130
  25.8461210  55.0873600 115.5644640  24.9349470  54.1075490 116.2727090
  21.4557750  49.5758800 116.9246890  20.8485700  50.3157700 116.9342190
  21.9307100  49.6658160 116.0985090  31.0290540  43.7409620 126.6003780
  31.3971360  42.9204830 126.9283350  30.1688740  43.8011510 127.0159430
  34.3952570  42.6966560 117.4091340  33.7665730  42.8012230 116.6949570
  33.9004490  42.9163340 118.1985220  28.8410710  54.4172150 114.8425320
  28.9422690  54.2136140 113.9127300  27.9412450  54.1630430 115.0473100
  26.3636600  44.9752510 118.8249220  25.6552750  45.4438850 119.2662830
  26.6481080  44.3174520 119.4594410  27.9892530  46.3949210 126.8241750
  28.4877780  46.8695030 127.4893600  28.1315480  45.4712730 127.0311780
  30.3952030  41.7003170 120.2645010  30.2719810  41.7189300 119.3154520
  31.3436590  41.7482110 120.3843410  27.4828820  56.9358470 119.5372990
  27.7370320  56.8979860 118.6152360  26.5341300  56.8091800 119.5301240
  24.5671620  43.2837590 116.1999930  25.4162150  43.7207740 116.1340120
  24.2002890  43.5957850 117.0271990  35.1959390  42.6117170 127.6670140
  34.6932990  43.3522570 128.0063950  36.0116050  43.0001170 127.3506930
  33.4881400  47.8550350 121.1131500  32.5471540  47.8700580 121.2879190
  33.8025470  47.0686310 121.5591800  23.4663040  49.5369950 114.6735460
  24.2326310  49.4251310 115.2360890  23.5437730  48.8407920 114.0212230
  22.1609800  46.9695020 115.3568350  22.2413390  46.0222530 115.4685750
  23.0529550  47.3001900 115.4629010  35.4906980  55.0259200 122.7885760
  35.6154400  55.8490370 123.2609570  36.3572540  54.8149930 122.4409910
  22.9624510  57.1190410 122.4602890  23.6986990  56.5705870 122.7311460
  23.3465430  57.9846420 122.3208880  19.8469990  53.1863980 118.3344400
  18.9209770  53.4285120 118.3249810  20.3126420  54.0138240 118.2129150
  21.9682790  56.3036480 131.6488470  22.7695520  56.6248530 132.0623870
  21.4534610  55.9432060 132.3708380  26.0726820  56.2920720 114.2828460
  26.8655430  56.5809550 113.8310250  25.5531170  55.8612890 113.6040940
  30.8047420  52.4116350 131.5963880  30.1985580  52.4347950 130.8559630
  30.5001530  51.6799390 132.1331130  32.2347790  56.1396640 130.2073290
  33.1869540  56.0554660 130.1573530  32.0876010  56.8038350 130.8807080
  35.1256990  55.5190850 115.7065200  34.8398500  55.1055990 114.8919380
  34.9276540  56.4478560 115.5865720  19.6880600  48.7909940 130.5924520
  20.1919620  48.2117220 131.1640750  18.9488020  49.0750170 131.1300890
  26.5904220  51.5124130 114.1470810  26.4854860  50.8976480 114.8732190
  26.4228440  50.9890020 113.3633820  26.7418540  50.1980930 130.1260040
  25.9764210  50.7665930 130.0414710  26.9234500  49.9057140 129.2328270
  29.8306950  50.5744160 114.7512800  29.2817050  51.0213460 115.3955540
  30.4526210  50.0693410 115.2750470  33.8841890  51.9286260 130.6835060
  34.6251360  52.2662020 130.1802520  33.1214570  52.0978320 130.1304830
  21.7203680  46.9339530 131.4874590  21.7609020  46.6353400 132.3959820
  22.5749180  47.3347140 131.3282110  25.4982070  49.5335080 116.6478100
  25.9198490  49.3674950 117.4909490  25.6232910  48.7235310 116.1533240
  23.6609490  45.5131630 129.4549080  23.1305950  45.0222580 128.8272420
  24.3297560  45.9415830 128.9207010  28.0109710  48.5572690 113.8955200
  28.5315370  47.8421710 113.5296350  28.6578110  49.1958560 114.1955710
  32.5587550  49.9801090 129.2190270  32.9728570  50.1346170 130.0680690
  31.6238550  50.1056310 129.3816050  33.0309720  47.3197250 131.2229420
  33.6130490  46.5649570 131.1349900  33.2071490  47.8504690 130.4460900
  24.1481790  42.4794000 129.5346370  24.0538660  41.8614750 128.8097240
  23.5679180  43.2060290 129.3076280  26.9143230  41.0367240 126.5673760
  26.4660530  41.0591500 125.7219310  26.2808430  40.6386260 127.1644060
  27.3202780  49.9321570 127.1886200  27.7390890  50.7754300 127.0162440
  26.4011410  50.0693610 126.9592980  29.6566680  47.6637750 128.5724040
  29.7762890  47.0678890 129.3118880  30.5160680  47.7007440 128.1525340
  31.9954580  48.2174940 127.1486550  31.4689800  48.7417560 126.5451690
  32.3385920  48.8502330 127.7796280  24.3940970  45.6068310 113.5936260
  24.1930030  44.7435670 113.9549600  24.2233020  45.5201670 112.6557860
  25.1710200  56.2374580 128.3043930  24.6331290  56.9620640 127.9852630
  25.4244160  55.7604920 127.5141270  26.4235450  44.2059100 129.8299860
  27.0135140  43.8974950 130.5177680  25.6055690  43.7338850 129.9859760
  31.2428880  43.8224910 130.0632880  30.5544400  43.1606450 129.9982870
  31.9634900  43.3763180 130.5081340  31.8729280  40.4176540 116.1223140
  32.1531570  39.5744440 116.4782560  31.0995010  40.6499650 116.6361890
  23.1923770  42.7068930 113.5814140  23.4949670  42.7136360 112.6733290
  23.9318360  42.3566790 114.0781800  28.0272410  57.4725790 128.5630580
  27.9531110  58.3760930 128.8702950  27.1251250  57.1537690 128.5352650
  26.4108700  41.6503550 114.5670340  26.0630700  40.9727540 113.9872790
  26.6121470  41.1893060 115.3813730  28.5757740  56.6384300 116.1856940
  29.4708530  56.9769270 116.2075700  28.6075370  55.9163710 115.5581220
  22.2153900  52.0111350 114.4143940  22.6528770  52.5541020 115.0701520
  22.7001630  51.1858300 114.4240280  19.4299700  54.8000380 121.8664200
  19.7602710  53.9321440 121.6342840  19.8590700  55.0058900 122.6969160
  24.0261620  53.1309390 119.5266170  23.7257160  53.0074360 120.4270080
  23.9199110  52.2717980 119.1181900  19.9189910  55.6670970 124.6045830
  19.4820900  55.8471770 125.4369980  20.4867590  56.4245590 124.4627550
  35.5552090  55.1687970 128.8923140  34.9554080  55.2280530 128.1487060
  35.6845990  54.2292950 129.0219990  19.7514340  48.1791200 120.9634710
  19.0963180  47.9102840 120.3194410  20.5892290  48.0695680 120.5136690
  37.2569970  50.5103370 121.5768980  37.6278800  49.7270690 121.1704950
  37.8971900  51.1992470 121.3986280  34.2403730  51.8939950 126.9899300
  33.4263570  52.3237110 127.2525090  34.6477930  52.5058360 126.3768350
  32.7004780  42.9732490 115.1853200  33.1189660  42.7863470 114.3449860
  32.3940840  42.1211540 115.4956130  36.1994510  47.8856630 118.8829000
  35.8238110  47.1184560 118.4510290  35.4697630  48.2679330 119.3703930
  20.7890270  48.5643770 125.5038050  21.1563310  48.4771170 126.3834070
  20.2201090  47.8010320 125.4044910  35.5894130  47.0328150 128.5168520
  35.3580220  46.8040900 127.6166470  35.8498680  47.9527700 128.4713410
  20.3406270  45.4752860 129.4096470  19.4462320  45.4419620 129.7490180
  20.8803820  45.6739650 130.1747720  34.0282200  42.2584580 131.2948220
  34.9052380  42.2667980 131.6782220  34.0403040  41.5215420 130.6840570
  18.9652420  45.3890130 116.9060040  18.0616500  45.6520330 116.7311700
  19.4493040  45.6601300 116.1260000  35.4745470  46.1114120 122.1836240
  35.9982950  45.6176770 121.5526410  36.0604890  46.2464480 122.9283810
  35.6535190  46.1953990 125.7055790  34.7037900  46.1617530 125.8200780
  35.8348200  47.1054100 125.4705560  21.5079630  44.4455670 114.8154420
  22.2171330  44.0238890 114.3301700  20.7919570  44.5130900 114.1837770
  21.1553790  40.4995000 113.8557070  21.8781920  41.0403940 114.1738290
  21.4278310  40.2258420 112.9798610  34.9645440  45.3687470 118.1228650
  35.4604560  45.1358340 118.9077530  34.7661510  44.5299310 117.7066290
  20.8445980  39.7501190 123.7579690  21.4922170  39.1998570 123.3174850
  21.2647820  40.0044340 124.5795500  36.3932600  44.0048420 120.6566330
  36.2831880  43.8504460 121.5948600  37.1540190  43.4769360 120.4141740
  34.7398320  39.9442550 127.1149330  35.3770540  40.5576690 127.4808520
  34.8873210  39.9803210 126.1698560  37.2822870  41.8356340 113.8972470
  38.2072180  41.7037520 113.6890760  37.2598660  41.9149160 114.8508920
  37.3561360  42.6067000 116.5229180  36.5612860  42.5412120 117.0522090
  37.5604640  43.5417640 116.5114530  20.5977980  39.9056860 126.5005010
  20.2492800  40.3620680 127.2663190  20.2665680  39.0113990 126.5827440
  22.2042350  53.0776460 130.6658200  22.1611980  52.7069370 131.5472660
  22.3353360  54.0154030 130.8060020  25.9048380  54.6336050 126.2667920
  25.6639740  54.9010610 125.3798440  26.8451020  54.8041780 126.3218780
  28.1102800  41.0968740 130.0224430  28.0491690  41.6890570 130.7719840
  29.0503180  40.9894700 129.8774690  30.7477360  40.7538800 129.6616720
  31.3617770  41.0718090 128.9997800  31.2926920  40.2687390 130.2812580
  37.1652540  56.6530430 127.0678560  36.6710820  57.0499300 126.3505690
  36.5565830  56.0279640 127.4615840  21.2698620  39.4333060 129.7755780
  21.8181610  39.2521110 129.0121890  21.3353930  38.6427170 130.3112090
  22.0430380  56.0238710 127.7855980  21.4490700  55.8923410 128.5246020
  22.0354220  55.1876850 127.3198080  31.4885400  39.3170940 125.9886010
  30.6145240  39.6506050 125.7858940  31.3796150  38.8444120 126.8137880
  32.3957380  41.5241810 127.3727730  32.0670740  40.7093570 126.9929460
  33.3439680  41.4811620 127.2493420  34.8491990  57.2953850 124.3465300
  34.3894960  58.0469660 123.9723320  34.2204450  56.5760320 124.2880100
  21.6742610  53.3897090 126.7364020  20.9476670  52.7702380 126.6689970
  21.7351760  53.7837700 125.8662100  25.2787710  55.6042090 123.5213430
  25.7952730  54.9929450 122.9961690  25.9285090  56.1070870 124.0124440
  28.0183210  56.4950580 124.3482410  28.3061020  56.2404880 123.4715420
  28.5306430  55.9427940 124.9387980  29.2360220  40.2340780 124.9278920
  28.4532010  40.7086280 125.2075680  28.9423150  39.3295610 124.8192100
  33.7881290  40.9363880 122.9728010  34.2289380  40.8808980 122.1249610
  33.5188880  41.8521890 123.0438190  35.6519860  40.5679120 120.9836830
  35.5908260  39.6240340 120.8367850  36.4311890  40.6759210 121.5290290
  19.9572610  56.7071480 119.9460780  19.7894650  56.0742160 120.6442670
  19.0907120  56.9130880 119.5954970  20.5800630  40.5388260 117.4492640
  21.3379990  40.6517140 116.8756670  20.1177800  41.3757460 117.4036070
  27.1214440  42.6527530 120.4394950  26.3088950  42.2784420 120.0990830
  27.6256080  41.8972610 120.7416140  31.6239420  39.3169980 121.6778020
  32.2268790  39.8890190 122.1526540  30.8832410  39.8809420 121.4551920
  34.7674020  39.7191540 116.9518300  34.9624650  40.6174990 117.2185730
  33.9803890  39.4878620 117.4451250  21.5635310  55.4004710 117.3910920
  21.0382930  55.7812740 116.6872880  21.4879890  56.0255480 118.1120630
  22.9525780  41.0652310 115.9894610  23.4818540  40.2782110 115.8602560
  23.5854100  41.7443500 116.2230140  25.1463620  40.8027450 119.0440000
  24.5166360  40.1014760 119.2110130  24.6068760  41.5631580 118.8273160
  28.0855570  57.4166680 131.7150610  29.0122880  57.1810950 131.7586570
  28.0706000  58.2438680 131.2336640  25.2719180  40.0811430 131.4792490
  24.9903450  40.5845030 130.7153310  25.6538880  39.2833180 131.1134620
  24.1628280  57.3487090 116.2660170  24.8947100  57.0646370 115.7184060
  24.4221950  57.1100370 117.1559550  23.3243070  53.4651820 116.2706500
  22.6951950  53.9336920 116.8192330  23.4390900  52.6201040 116.7052690
  31.8734640  39.4965010 132.0572960  31.7600090  39.8159620 132.9524480
  32.6904380  39.8977520 131.7610240  34.6533130  56.6436540 131.5391650
  35.4458450  56.1485770 131.3317610  34.9466280  57.3226680 132.1467260
  32.9318260  53.6996690 103.0816100  32.4699790  52.9283930 103.4103270
  33.7443810  53.7262760 103.5868550  21.3368610  44.5658200  98.9635120
  20.4485310  44.9074170  98.8615000  21.6209800  44.3658520  98.0715950
  19.3001620  47.1663850 104.8474820  19.8717730  46.3986050 104.8478460
  19.3003160  47.4652610 103.9381430  20.5426490  42.5748210 106.6343750
  20.3629330  41.6773960 106.9146510  20.1406570  43.1220080 107.3090700
  23.5130000  43.1489700  99.9973500  23.6196750  44.0493430 100.3042260
  22.6022360  43.1007670  99.7068150  21.1613160  45.0708710 105.2426090
  21.8423270  45.3347080 105.8613490  20.8461210  44.2309580 105.5764100
  37.4548660  44.2881260 108.0328030  36.7500830  44.6762970 107.5143140
  37.7206580  44.9831550 108.6348960  23.6373830  40.7574630 108.5962100
  23.6392270  41.2747020 107.7908000  22.8078140  40.2804810 108.5732030
  30.0244920  50.8693940 100.0952000  29.4062190  51.3343390  99.5314720
  30.5368170  51.5621420 100.5121510  23.3189160  42.4684590 106.6032550
  23.6605970  43.3126640 106.3086420  22.3804970  42.6168330 106.7197890
  24.0995780  52.3650610 108.5884780  24.7169780  53.0401690 108.3069230
  23.2388900  52.7738590 108.4972280  19.3928120  51.5550470  97.4691630
  19.0156100  52.0437570  96.7376530  19.6501190  52.2275750  98.0998160
  35.0173370  53.8290020 106.5039420  34.3336890  54.4989130 106.4956090
  35.5567660  54.0270670 105.7384280  32.5532110  55.6734150 105.2184600
  32.5659270  55.2696440 104.3506860  32.0007330  56.4481440 105.1146030
  33.5521760  55.8079860 108.2719300  33.0752320  56.6152050 108.0791910
  32.8683550  55.1558190 108.4245510  24.5554580  51.9729680 111.2604000
  23.6583110  52.1969650 111.5077400  24.5807450  52.0964620 110.3115400
  23.3825800  48.8443000 109.8361370  23.2433570  49.7165800 110.2048770
  22.5007160  48.5015810 109.6909310  29.7055180  53.7618870 101.1426500
  30.1451090  54.5043200 100.7281890  29.6442070  54.0045440 102.0665460
  25.1806150  54.7864700 112.0446520  25.1521580  55.1907650 111.1774950
  25.0171120  53.8575060 111.8818120  21.6959080  47.4425410  99.9463640
  21.5756680  48.1687500  99.3344910  21.3859970  46.6728320  99.4691550
  37.1320970  55.5691800 113.3410690  37.6080690  56.0474690 114.0199770
  37.7528130  55.5009290 112.6156190  19.3344450  50.6140550 105.7532280
  19.4124870  50.7489320 104.8088000  19.9486130  49.9056440 105.9460400
  20.5792080  52.3140740 102.1638460  20.1720160  52.4555330 101.3092060
  21.4705090  52.0300900 101.9609670  30.3970960  56.4632650 109.0705510
  30.9115630  56.3740660 109.8727940  29.5540040  56.8092350 109.3633420
  32.3725360  56.7487990  98.4989510  32.2126500  56.4590930  99.3971340
  32.2072070  55.9728120  97.9634740  24.8513740  56.5286520 100.2761130
  24.6756220  55.6122060 100.0628930  23.9969480  56.8873810 100.5158930
  32.0751490  54.2575550  97.0587510  31.3816650  54.2552840  96.3989790
  32.8174350  53.8334870  96.6281680  31.6401420  55.8838260 101.1336000
  32.0958370  55.1027640 101.4474620  31.9793940  56.5945080 101.6777180
  19.3903970  51.6554720 108.2926740  19.5535010  51.1860080 107.4746110
  19.8556420  51.1478280 108.9575580  24.1622740  40.7860480 103.3287310
  23.7190890  41.5670020 102.9971830  24.7207730  41.1090370 104.0358250
  28.4492550  43.6529000 108.9322630  27.9871920  43.8612020 109.7442570
  28.0470660  42.8388350 108.6293300  27.2781560  40.4071180  98.2093140
  26.6535740  40.4031050  98.9346450  27.1911680  39.5402140  97.8129110
  23.9536960  45.9094050 101.0568560  23.7277880  45.6931220 101.9615180
  23.1729490  46.3422510 100.7114530  26.3936170  46.8079630 111.7228830
  26.2979770  45.8674360 111.5729230  27.2368150  47.0294700 111.3276900
  21.5246710  43.2193300 109.8762610  21.1310100  44.0668510 110.0835390
  20.8365110  42.5819670 110.0671250  28.0991760  43.3028270 112.9459350
  27.4090080  43.1100470 113.5805440  28.8424060  43.5862910 113.4783650
  18.8263760  41.1421760 103.9092690  18.5376810  41.7124620 104.6217670
  19.5709520  40.6626210 104.2723920  19.0133990  45.0841880  95.1195410
  18.9308660  46.0272640  95.2610400  18.6617050  44.9416790  94.2407760
  22.6634500  43.7007400 103.1459970  22.3234550  44.1782630 103.9027020
  21.9011820  43.2472520 102.7861070  25.8873770  47.1294130  96.5755820
  25.3190670  46.6812380  95.9491730  26.5962770  47.4886910  96.0420970
  34.2651390  40.0092570 111.0322590  34.5897160  39.2782230 111.5580570
  34.3007900  39.6906210 110.1303580  20.9642950  51.0306150 110.4522550
  20.5797740  50.3899820 111.0505510  21.2755140  51.7342270 111.0217280
  19.9780580  42.6226380 102.0624640  19.6927500  42.2582050 102.9003260
  19.9159440  41.8906840 101.4487780  23.4321250  51.1252320  98.8482230
  22.6583510  50.5849940  98.6880950  24.1615880  50.6058930  98.5099990
  29.5728030  50.1926740 110.5277620  29.5065340  49.2722410 110.2735210
  28.9433170  50.2902180 111.2422260  28.3628150  52.0598980  97.7588340
  28.7043850  52.8041210  97.2631660  27.5340860  52.3730100  98.1213170
  20.9603190  47.7594070 109.3986740  20.6018130  48.4247920 109.9860080
  20.6657750  46.9277620 109.7699360  24.1616310  48.2178310 112.2826290
  23.8616450  48.3635490 111.3854110  24.9327550  47.6583600 112.1899680
  29.5044760  53.0147310 110.2781420  29.5189300  52.0828270 110.0600330
  28.7969860  53.1007070 110.9171190  35.6669080  54.0529390  99.2762160
  35.0245240  53.3985010  99.5505880  35.2799740  54.4584480  98.5002830
  31.2455560  51.3814820 103.1233850  31.5979380  50.7842950 102.4635220
  30.3617890  51.0559050 103.2942100  19.4711240  47.7585330  96.0221340
  20.3406090  48.0410130  96.3057260  18.9801560  48.5721200  95.9070150
  26.6346050  49.1458540 100.1429620  27.0908830  49.9563790 100.3689810
  26.2834260  48.8281680 100.9748110  28.9378660  54.6564880 107.3721920
  29.5820880  54.8624260 108.0495340  29.3008100  53.8953280 106.9192770
  22.5357830  39.4896190 100.6152140  22.4072460  39.4814090 101.5637060
  21.7119850  39.8279280 100.2643150  30.2110740  52.6597230 106.0899370
  30.8532970  51.9590390 106.2031540  30.7360090  53.4395670 105.9096260
  31.9848360  53.4592130 109.2935430  32.3204600  54.0458820 109.9713350
  31.0648700  53.3284840 109.5233220  19.8382490  56.9712710  96.5882970
  20.1980130  57.5702050  95.9340240  19.6974830  57.5172600  97.3618000
  19.5351760  41.2487310 110.0758840  18.8210280  41.4484230 110.6811450
  19.9546800  40.4726880 110.4473640  19.8224350  55.2367570 111.0625370
  19.9315470  54.2962310 110.9220760  19.1704910  55.5022320 110.4139100
  27.8136940  53.5083460 112.4623490  27.4933810  52.7892700 113.0069180
  27.1395300  54.1838530 112.5359550  25.8551110  54.3543910  97.4056640
  25.8461210  55.0873600  96.7901150  24.9349470  54.1075490  97.4983600
  21.4557750  49.5758800  98.1503400  20.8485700  50.3157700  98.1598700
  21.9307100  49.6658160  97.3241600  31.0290540  43.7409620 107.8260290
  31.3971360  42.9204830 108.1539860  30.1688740  43.8011510 108.2415940
  28.8410710  54.4172150  96.0681830  28.9422690  54.2136140  95.1383810
  27.9412450  54.1630430  96.2729610  27.4828820  56.9358470 100.7629500
  27.7370320  56.8979860  99.8408870  26.5341300  56.8091800 100.7557750
  24.5671620  43.2837590  97.4256440  25.4162150  43.7207740  97.3596630
  24.2002890  43.5957850  98.2528500  23.4663040  49.5369950  95.8991970
  24.2326310  49.4251310  96.4617400  23.5437730  48.8407920  95.2468740
  22.1609800  46.9695020  96.5824860  22.2413390  46.0222530  96.6942260
  23.0529550  47.3001900  96.6885520  35.4906980  55.0259200 104.0142270
  35.6154400  55.8490370 104.4866080  36.3572540  54.8149930 103.6666420
  19.8469990  53.1863980  99.5600910  18.9209770  53.4285120  99.5506320
  20.3126420  54.0138240  99.4385660  21.9682790  56.3036480 112.8744980
  22.7695520  56.6248530 113.2880380  21.4534610  55.9432060 113.5964890
  32.2347790  56.1396640 111.4329800  33.1869540  56.0554660 111.3830040
  32.0876010  56.8038350 112.1063590  35.1256990  55.5190850  96.9321710
  34.8398500  55.1055990  96.1175890  34.9276540  56.4478560  96.8122230
  19.6880600  48.7909940 111.8181030  20.1919620  48.2117220 112.3897260
  18.9488020  49.0750170 112.3557400  26.5904220  51.5124130  95.3727320
  26.4854860  50.8976480  96.0988700  26.4228440  50.9890020  94.5890330
  26.7418540  50.1980930 111.3516550  25.9764210  50.7665930 111.2671220
  26.9234500  49.9057140 110.4584780  21.7203680  46.9339530 112.7131100
  21.7609020  46.6353400 113.6216330  22.5749180  47.3347140 112.5538620
  25.4982070  49.5335080  97.8734610  25.9198490  49.3674950  98.7166000
  25.6232910  48.7235310  97.3789750  23.6609490  45.5131630 110.6805590
  23.1305950  45.0222580 110.0528930  24.3297560  45.9415830 110.1463520
  24.1481790  42.4794000 110.7602880  24.0538660  41.8614750 110.0353750
  23.5679180  43.2060290 110.5332790  26.9143230  41.0367240 107.7930270
  26.4660530  41.0591500 106.9475820  26.2808430  40.6386260 108.3900570
  27.3202780  49.9321570 108.4142710  27.7390890  50.7754300 108.2418950
  26.4011410  50.0693610 108.1849490  25.1710200  56.2374580 109.5300440
  24.6331290  56.9620640 109.2109140  25.4244160  55.7604920 108.7397780
  26.4235450  44.2059100 111.0556370  27.0135140  43.8974950 111.7434190
  25.6055690  43.7338850 111.2116270  23.1923770  42.7068930  94.8070650
  23.4949670  42.7136360  93.8989800  23.9318360  42.3566790  95.3038310
  28.0272410  57.4725790 109.7887090  27.9531110  58.3760930 110.0959460
  27.1251250  57.1537690 109.7609160  28.5757740  56.6384300  97.4113450
  29.4708530  56.9769270  97.4332210  28.6075370  55.9163710  96.7837730
  22.2153900  52.0111350  95.6400450  22.6528770  52.5541020  96.2958030
  22.7001630  51.1858300  95.6496790  19.4299700  54.8000380 103.0920710
  19.7602710  53.9321440 102.8599350  19.8590700  55.0058900 103.9225670
  19.9189910  55.6670970 105.8302340  19.4820900  55.8471770 106.6626490
  20.4867590  56.4245590 105.6884060  35.5552090  55.1687970 110.1179650
  34.9554080  55.2280530 109.3743570  35.6845990  54.2292950 110.2476500
  19.7514340  48.1791200 102.1891220  19.0963180  47.9102840 101.5450920
  20.5892290  48.0695680 101.7393200  37.2569970  50.5103370 102.8025490
  37.6278800  49.7270690 102.3961460  37.8971900  51.1992470 102.6242790
  34.2403730  51.8939950 108.2155810  33.4263570  52.3237110 108.4781600
  34.6477930  52.5058360 107.6024860  20.7890270  48.5643770 106.7294560
  21.1563310  48.4771170 107.6090580  20.2201090  47.8010320 106.6301420
  20.3406270  45.4752860 110.6352980  19.4462320  45.4419620 110.9746690
  20.8803820  45.6739650 111.4004230  18.9652420  45.3890130  98.1316550
  18.0616500  45.6520330  97.9568210  19.4493040  45.6601300  97.3516510
  21.5079630  44.4455670  96.0410930  22.2171330  44.0238890  95.5558210
  20.7919570  44.5130900  95.4094280  21.1553790  40.4995000  95.0813580
  21.8781920  41.0403940  95.3994800  21.4278310  40.2258420  94.2055120
  20.8445980  39.7501190 104.9836200  21.4922170  39.1998570 104.5431360
  21.2647820  40.0044340 105.8052010  36.3932600  44.0048420 101.8822840
  36.2831880  43.8504460 102.8205110  37.1540190  43.4769360 101.6398250
  34.7398320  39.9442550 108.3405840  35.3770540  40.5576690 108.7065030
  34.8873210  39.9803210 107.3955070  34.2979780  56.6458550 101.7424080
  34.8938850  56.3243120 101.0658500  34.5557930  56.1730370 102.5337350
  20.5977980  39.9056860 107.7261520  20.2492800  40.3620680 108.4919700
  20.2665680  39.0113990 107.8083950  22.2042350  53.0776460 111.8914710
  22.1611980  52.7069370 112.7729170  22.3353360  54.0154030 112.0316530
  25.9048380  54.6336050 107.4924430  25.6639740  54.9010610 106.6054950
  26.8451020  54.8041780 107.5475290  28.1102800  41.0968740 111.2480940
  28.0491690  41.6890570 111.9976350  29.0503180  40.9894700 111.1031200
  30.7477360  40.7538800 110.8873230  31.3617770  41.0718090 110.2254310
  31.2926920  40.2687390 111.5069090  37.1652540  56.6530430 108.2935070
  36.6710820  57.0499300 107.5762200  36.5565830  56.0279640 108.6872350
  21.2698620  39.4333060 111.0012290  21.8181610  39.2521110 110.2378400
  21.3353930  38.6427170 111.5368600  22.0430380  56.0238710 109.0112490
  21.4490700  55.8923410 109.7502530  22.0354220  55.1876850 108.5454590
  31.4885400  39.3170940 107.2142520  30.6145240  39.6506050 107.0115450
  31.3796150  38.8444120 108.0394390  32.3957380  41.5241810 108.5984240
  32.0670740  40.7093570 108.2185970  33.3439680  41.4811620 108.4749930
  34.8491990  57.2953850 105.5721810  34.3894960  58.0469660 105.1979830
  34.2204450  56.5760320 105.5136610  21.6742610  53.3897090 107.9620530
  20.9476670  52.7702380 107.8946480  21.7351760  53.7837700 107.0918610
  29.2360220  40.2340780 106.1535430  28.4532010  40.7086280 106.4332190
  28.9423150  39.3295610 106.0448610  33.7881290  40.9363880 104.1984520
  34.2289380  40.8808980 103.3506120  33.5188880  41.8521890 104.2694700
  19.9572610  56.7071480 101.1717290  19.7894650  56.0742160 101.8699180
  19.0907120  56.9130880 100.8211480  20.5800630  40.5388260  98.6749150
  21.3379990  40.6517140  98.1013180  20.1177800  41.3757460  98.6292580
  31.6239420  39.3169980 102.9034530  32.2268790  39.8890190 103.3783050
  30.8832410  39.8809420 102.6808430  21.5635310  55.4004710  98.6167430
  21.0382930  55.7812740  97.9129390  21.4879890  56.0255480  99.3377140
  22.9525780  41.0652310  97.2151120  23.4818540  40.2782110  97.0859070
  23.5854100  41.7443500  97.4486650  25.1463620  40.8027450 100.2696510
  24.5166360  40.1014760 100.4366640  24.6068760  41.5631580 100.0529670
  28.0855570  57.4166680 112.9407120  29.0122880  57.1810950 112.9843080
  28.0706000  58.2438680 112.4593150  36.3200630  56.9592250  99.9381370
  36.4952820  56.2729990  99.2942290  35.6222200  57.4839300  99.5458040
  25.2719180  40.0811430 112.7049000  24.9903450  40.5845030 111.9409820
  25.6538880  39.2833180 112.3391130  24.1628280  57.3487090  97.4916680
  24.8947100  57.0646370  96.9440570  24.4221950  57.1100370  98.3816060
  23.3243070  53.4651820  97.4963010  22.6951950  53.9336920  98.0448840
  23.4390900  52.6201040  97.9309200  31.8734640  39.4965010 113.2829470
  31.7600090  39.8159620 114.1780990  32.6904380  39.8977520 112.9866750
  34.6533130  56.6436540 112.7648160  35.4458450  56.1485770 112.5574120
  34.9466280  57.3226680 113.3723770  30.7792790  47.5157480  83.6464210
  30.6986840  46.6012090  83.3755920  30.3657210  48.0124550  82.9403920
  28.9110830  49.2936500  85.5273480  28.1352930  48.8136940  85.8172050
  29.5623760  48.6142150  85.3529640  32.9318260  53.6996690  84.3072610
  32.4699790  52.9283930  84.6359780  33.7443810  53.7262760  84.8125060
  21.3368610  44.5658200  80.1891630  20.4485310  44.9074170  80.0871510
  21.6209800  44.3658520  79.2972460  29.1581570  55.9854700  83.9276600
  28.5393010  56.4412200  83.3571040  30.0133350  56.1406160  83.5266300
  28.3519820  51.9693690  85.5343640  28.2828100  51.0283630  85.3732770
  29.1139680  52.0595100  86.1066210  20.5426490  42.5748210  87.8600260
  20.3629330  41.6773960  88.1403020  20.1406570  43.1220080  88.5347210
  33.1649110  42.2714510  82.6940910  33.9858730  41.7811080  82.7366390
  33.1983190  42.8612170  83.4472750  25.3537730  46.1176070  85.5555190
  25.8615950  46.6157040  86.1960210  25.8850970  45.3411270  85.3794550
  30.0244920  50.8693940  81.3208510  29.4062190  51.3343390  80.7571230
  30.5368170  51.5621420  81.7378020  24.8876680  50.3969810  87.9992110
  24.5546060  51.0238730  88.6413180  25.0643360  50.9231690  87.2193780
  33.4010590  44.2114890  85.4668450  32.6966160  44.4999780  86.0471560
  33.7622750  45.0215000  85.1068010  35.0173370  53.8290020  87.7295930
  34.3336890  54.4989130  87.7212600  35.5567660  54.0270670  86.9640790
  36.4697510  43.6569680  85.8577660  35.5222420  43.6908660  85.9893090
  36.7947500  44.4708630  86.2427020  32.5532110  55.6734150  86.4441110
  32.5659270  55.2696440  85.5763370  32.0007330  56.4481440  86.3402540
  33.8477530  52.3950370  81.5331280  33.7373860  51.4524700  81.6580700
  33.8445780  52.7566010  82.4194040  31.9517550  50.5763990  87.7723720
  32.3686340  50.3624100  86.9377180  32.6757370  50.8336780  88.3432340
  29.3897810  48.0215690  80.8893770  28.4627090  47.9553070  81.1182240
  29.5422630  48.9595820  80.7749010  35.8979650  48.9751210  87.8639960
  35.0698280  49.0444300  87.3890090  36.4930130  49.5605520  87.3955790
  33.4195100  49.5835990  81.3929020  32.8007520  49.2455540  80.7455320
  33.4019550  48.9395750  82.1008210  32.8621660  45.7620530  88.8094830
  32.4492840  46.5874240  89.0634820  32.1297610  45.1765570  88.6171190
  24.9954450  48.5480430  83.6713500  24.5911450  47.8357680  83.1759400
  25.0817570  48.2033670  84.5601540  31.5959800  48.8222800  78.4001770
  32.0353080  47.9845230  78.2539590  32.3088220  49.4552200  78.4865910
  23.3825800  48.8443000  91.0617880  23.2433570  49.7165800  91.4305280
  22.5007160  48.5015810  90.9165820  29.7055180  53.7618870  82.3683010
  30.1451090  54.5043200  81.9538400  29.6442070  54.0045440  83.2921970
  35.1776940  40.0765610  76.7142810  34.8649600  40.1692440  77.6141880
  35.9389410  40.6546640  76.6640240  21.6959080  47.4425410  81.1720150
  21.5756680  48.1687500  80.5601420  21.3859970  46.6728320  80.6948060
  37.1320970  55.5691800  94.5667200  37.6080690  56.0474690  95.2456280
  37.7528130  55.5009290  93.8412700  36.5354220  52.7604650  91.7267210
  36.6617280  52.5216530  90.8084390  36.5775600  51.9289190  92.1989290
  32.3725360  56.7487990  79.7246020  32.2126500  56.4590930  80.6227850
  32.2072070  55.9728120  79.1891250  31.6401420  55.8838260  82.3592510
  32.0958370  55.1027640  82.6731130  31.9793940  56.5945080  82.9033690
  36.3878230  44.8137110  92.6916950  35.7722500  45.3216780  92.1632410
  36.0674650  43.9135440  92.6342890  24.1622740  40.7860480  84.5543820
  23.7190890  41.5670020  84.2228340  24.7207730  41.1090370  85.2614760
  33.4497060  44.8737950  91.2875800  32.5990650  44.5743700  91.6084870
  33.2898850  45.1179960  90.3759620  23.9536960  45.9094050  82.2825070
  23.7277880  45.6931220  83.1871690  23.1729490  46.3422510  81.9371040
  31.1834720  45.9157420  80.8815720  30.5843610  46.6393220  80.6979340
  31.7314330  45.8534200  80.0992170  29.7899590  44.5520960  82.9119000
  30.1829160  44.8693160  82.0987690  30.1516440  43.6732840  83.0263520
  21.5246710  43.2193300  91.1019120  21.1310100  44.0668510  91.3091900
  20.8365110  42.5819670  91.2927760  18.8263760  41.1421760  85.1349200
  18.5376810  41.7124620  85.8474180  19.5709520  40.6626210  85.4980430
  19.0133990  45.0841880  76.3451920  18.9308660  46.0272640  76.4866910
  18.6617050  44.9416790  75.4664270  30.3754730  47.1426710  87.0069780
  29.6435850  47.6513520  87.3559880  29.9779070  46.3256690  86.7058560
  22.6634500  43.7007400  84.3716480  22.3234550  44.1782630  85.1283530
  21.9011820  43.2472520  84.0117580  25.8873770  47.1294130  77.8012330
  25.3190670  46.6812380  77.1748240  26.5962770  47.4886910  77.2677480
  34.2651390  40.0092570  92.2579100  34.5897160  39.2782230  92.7837080
  34.3007900  39.6906210  91.3560090  27.1140090  47.8782690  87.1587680
  27.4810220  47.4041260  87.9049020  26.9245150  48.7524260  87.4996020
  19.9780580  42.6226380  83.2881150  19.6927500  42.2582050  84.1259770
  19.9159440  41.8906840  82.6744290  24.9039460  46.9191330  89.4771890
  24.5996530  47.7983310  89.7022250  25.8585920  46.9791120  89.5129330
  34.1909230  50.1217680  85.8665130  34.9108350  50.6172970  85.4761240
  33.9891050  49.4435570  85.2219000  29.5728030  50.1926740  91.7534130
  29.5065340  49.2722410  91.4991720  28.9433170  50.2902180  92.4678770
  32.3667560  45.8875290  78.3056680  33.2547180  46.1992520  78.1308020
  32.3372650  45.0147540  77.9137260  23.4758650  50.7932700  83.7117550
  23.9937320  49.9900960  83.6574440  23.0242670  50.7311840  84.5534380
  28.3628150  52.0598980  78.9844850  28.7043850  52.8041210  78.4888170
  27.5340860  52.3730100  79.3469680  24.1616310  48.2178310  93.5082800
  23.8616450  48.3635490  92.6110620  24.9327550  47.6583600  93.4156190
  34.6381830  47.1987130  77.7736540  34.5545550  47.6301350  76.9232980
  35.3576020  47.6585480  78.2063360  35.7155970  49.6554650  90.8506510
  34.9904160  50.2483430  90.6535900  36.2431430  49.6478190  90.0519880
  35.6669080  54.0529390  80.5018670  35.0245240  53.3985010  80.7762390
  35.2799740  54.4584480  79.7259340  31.2455560  51.3814820  84.3490360
  31.5979380  50.7842950  83.6891730  30.3617890  51.0559050  84.5198610
  27.3318840  52.1412510  81.7560770  28.0189970  52.6881720  82.1368360
  26.5451260  52.6853240  81.7910380  19.4711240  47.7585330  77.2477850
  20.3406090  48.0410130  77.5313770  18.9801560  48.5721200  77.1326660
  26.6346050  49.1458540  81.3686130  27.0908830  49.9563790  81.5946320
  26.2834260  48.8281680  82.2004620  30.2110740  52.6597230  87.3155880
  30.8532970  51.9590390  87.4288050  30.7360090  53.4395670  87.1352770
  19.5351760  41.2487310  91.3015350  18.8210280  41.4484230  91.9067960
  19.9546800  40.4726880  91.6730150  34.3952570  42.6966560  79.8604360
  33.7665730  42.8012230  79.1462590  33.9004490  42.9163340  80.6498240
  28.8410710  54.4172150  77.2938340  28.9422690  54.2136140  76.3640320
  27.9412450  54.1630430  77.4986120  27.9892530  46.3949210  89.2754770
  28.4877780  46.8695030  89.9406620  28.1315480  45.4712730  89.4824800
  30.3952030  41.7003170  82.7158030  30.2719810  41.7189300  81.7667540
  31.3436590  41.7482110  82.8356430  27.4828820  56.9358470  81.9886010
  27.7370320  56.8979860  81.0665380  26.5341300  56.8091800  81.9814260
  35.1959390  42.6117170  90.1183160  34.6932990  43.3522570  90.4576970
  36.0116050  43.0001170  89.8019950  33.4881400  47.8550350  83.5644520
  32.5471540  47.8700580  83.7392210  33.8025470  47.0686310  84.0104820
  23.4663040  49.5369950  77.1248480  24.2326310  49.4251310  77.6873910
  23.5437730  48.8407920  76.4725250  22.1609800  46.9695020  77.8081370
  22.2413390  46.0222530  77.9198770  23.0529550  47.3001900  77.9142030
  35.4906980  55.0259200  85.2398780  35.6154400  55.8490370  85.7122590
  36.3572540  54.8149930  84.8922930  26.0726820  56.2920720  76.7341480
  26.8655430  56.5809550  76.2823270  25.5531170  55.8612890  76.0553960
  30.8047420  52.4116350  94.0476900  30.1985580  52.4347950  93.3072650
  30.5001530  51.6799390  94.5844150  19.6880600  48.7909940  93.0437540
  20.1919620  48.2117220  93.6153770  18.9488020  49.0750170  93.5813910
  26.5904220  51.5124130  76.5983830  26.4854860  50.8976480  77.3245210
  26.4228440  50.9890020  75.8146840  26.7418540  50.1980930  92.5773060
  25.9764210  50.7665930  92.4927730  26.9234500  49.9057140  91.6841290
  29.8306950  50.5744160  77.2025820  29.2817050  51.0213460  77.8468560
  30.4526210  50.0693410  77.7263490  33.8841890  51.9286260  93.1348080
  34.6251360  52.2662020  92.6315540  33.1214570  52.0978320  92.5817850
  21.7203680  46.9339530  93.9387610  21.7609020  46.6353400  94.8472840
  22.5749180  47.3347140  93.7795130  25.4982070  49.5335080  79.0991120
  25.9198490  49.3674950  79.9422510  25.6232910  48.7235310  78.6046260
  23.6609490  45.5131630  91.9062100  23.1305950  45.0222580  91.2785440
  24.3297560  45.9415830  91.3720030  28.0109710  48.5572690  76.3468220
  28.5315370  47.8421710  75.9809370  28.6578110  49.1958560  76.6468730
  32.5587550  49.9801090  91.6703290  32.9728570  50.1346170  92.5193710
  31.6238550  50.1056310  91.8329070  33.0309720  47.3197250  93.6742440
  33.6130490  46.5649570  93.5862920  33.2071490  47.8504690  92.8973920
  24.1481790  42.4794000  91.9859390  24.0538660  41.8614750  91.2610260
  23.5679180  43.2060290  91.7589300  27.3202780  49.9321570  89.6399220
  27.7390890  50.7754300  89.4675460  26.4011410  50.0693610  89.4106000
  29.6566680  47.6637750  91.0237060  29.7762890  47.0678890  91.7631900
  30.5160680  47.7007440  90.6038360  31.9954580  48.2174940  89.5999570
  31.4689800  48.7417560  88.9964710  32.3385920  48.8502330  90.2309300
  24.3940970  45.6068310  76.0449280  24.1930030  44.7435670  76.4062620
  24.2233020  45.5201670  75.1070880  31.8729280  40.4176540  78.5736160
  32.1531570  39.5744440  78.9295580  31.0995010  40.6499650  79.0874910
  23.1923770  42.7068930  76.0327160  23.4949670  42.7136360  75.1246310
  23.9318360  42.3566790  76.5294820  28.5757740  56.6384300  78.6369960
  29.4708530  56.9769270  78.6588720  28.6075370  55.9163710  78.0094240
  36.2510000  49.6553270  79.1840070  37.0128910  50.2249920  79.2899760
  36.2664370  49.0880470  79.9548380  34.2403730  51.8939950  89.4412320
  33.4263570  52.3237110  89.7038110  34.6477930  52.5058360  88.8281370
  32.7004780  42.9732490  77.6366220  33.1189660  42.7863470  76.7962880
  32.3940840  42.1211540  77.9469150  36.1994510  47.8856630  81.3342020
  35.8238110  47.1184560  80.9023310  35.4697630  48.2679330  81.8216950
  35.5894130  47.0328150  90.9681540  35.3580220  46.8040900  90.0679490
  35.8498680  47.9527700  90.9226430  18.9652420  45.3890130  79.3573060
  18.0616500  45.6520330  79.1824720  19.4493040  45.6601300  78.5773020
  35.4745470  46.1114120  84.6349260  35.9982950  45.6176770  84.0039430
  36.0604890  46.2464480  85.3796830  35.6535190  46.1953990  88.1568810
  34.7037900  46.1617530  88.2713800  35.8348200  47.1054100  87.9218580
  21.5079630  44.4455670  77.2667440  22.2171330  44.0238890  76.7814720
  20.7919570  44.5130900  76.6350790  21.1553790  40.4995000  76.3070090
  21.8781920  41.0403940  76.6251310  21.4278310  40.2258420  75.4311630
  34.9645440  45.3687470  80.5741670  35.4604560  45.1358340  81.3590550
  34.7661510  44.5299310  80.1579310  20.8445980  39.7501190  86.2092710
  21.4922170  39.1998570  85.7687870  21.2647820  40.0044340  87.0308520
  36.3932600  44.0048420  83.1079350  36.2831880  43.8504460  84.0461620
  37.1540190  43.4769360  82.8654760  37.2822870  41.8356340  76.3485490
  38.2072180  41.7037520  76.1403780  37.2598660  41.9149160  77.3021940
  37.3561360  42.6067000  78.9742200  36.5612860  42.5412120  79.5035110
  37.5604640  43.5417640  78.9627550  34.2979780  56.6458550  82.9680590
  34.8938850  56.3243120  82.2915010  34.5557930  56.1730370  83.7593860
  20.5977980  39.9056860  88.9518030  20.2492800  40.3620680  89.7176210
  20.2665680  39.0113990  89.0340460  37.1652540  56.6530430  89.5191580
  36.6710820  57.0499300  88.8018710  36.5565830  56.0279640  89.9128860
  21.2698620  39.4333060  92.2268800  21.8181610  39.2521110  91.4634910
  21.3353930  38.6427170  92.7625110  31.4885400  39.3170940  88.4399030
  30.6145240  39.6506050  88.2371960  31.3796150  38.8444120  89.2650900
  32.3957380  41.5241810  89.8240750  32.0670740  40.7093570  89.4442480
  33.3439680  41.4811620  89.7006440  33.7881290  40.9363880  85.4241030
  34.2289380  40.8808980  84.5762630  33.5188880  41.8521890  85.4951210
  35.6519860  40.5679120  83.4349850  35.5908260  39.6240340  83.2880870
  36.4311890  40.6759210  83.9803310  20.5800630  40.5388260  79.9005660
  21.3379990  40.6517140  79.3269690  20.1177800  41.3757460  79.8549090
  31.6239420  39.3169980  84.1291040  32.2268790  39.8890190  84.6039560
  30.8832410  39.8809420  83.9064940  34.7674020  39.7191540  79.4031320
  34.9624650  40.6174990  79.6698750  33.9803890  39.4878620  79.8964270
  36.3200630  56.9592250  81.1637880  36.4952820  56.2729990  80.5198800
  35.6222200  57.4839300  80.7714550  24.1628280  57.3487090  78.7173190
  24.8947100  57.0646370  78.1697080  24.4221950  57.1100370  79.6072570
  22.9077920  53.6396400  67.8263770  23.2105960  52.7494140  67.6473990
  23.6521510  54.1966620  67.5986020  19.3001620  47.1663850  67.2987840
  19.8717730  46.3986050  67.2991480  19.3003160  47.4652610  66.3894450
  20.5426490  42.5748210  69.0856770  20.3629330  41.6773960  69.3659530
  20.1406570  43.1220080  69.7603720  29.3824990  44.7764070  66.9869080
  29.7589810  43.9035950  66.8742750  29.2844500  45.1122770  66.0959520
  33.1649110  42.2714510  63.9197420  33.9858730  41.7811080  63.9622900
  33.1983190  42.8612170  64.6729260  21.1613160  45.0708710  67.6939110
  21.8423270  45.3347080  68.3126510  20.8461210  44.2309580  68.0277120
  37.4548660  44.2881260  70.4841050  36.7500830  44.6762970  69.9656160
  37.7206580  44.9831550  71.0861980  23.6373830  40.7574630  71.0475120
  23.6392270  41.2747020  70.2421020  22.8078140  40.2804810  71.0245050
  24.8876680  50.3969810  69.2248620  24.5546060  51.0238730  69.8669690
  25.0643360  50.9231690  68.4450290  33.4010590  44.2114890  66.6924960
  32.6966160  44.4999780  67.2728070  33.7622750  45.0215000  66.3324520
  23.3189160  42.4684590  69.0545570  23.6605970  43.3126640  68.7599440
  22.3804970  42.6168330  69.1710910  24.0995780  52.3650610  71.0397800
  24.7169780  53.0401690  70.7582250  23.2388900  52.7738590  70.9485300
  19.3928120  51.5550470  59.9204650  19.0156100  52.0437570  59.1889550
  19.6501190  52.2275750  60.5511180  36.4697510  43.6569680  67.0834170
  35.5222420  43.6908660  67.2149600  36.7947500  44.4708630  67.4683530
  27.0017050  39.9566860  65.3790160  27.3092030  39.4013750  64.6625660
  26.0717750  40.0911320  65.1963150  31.9517550  50.5763990  68.9980230
  32.3686340  50.3624100  68.1633690  32.6757370  50.8336780  69.5688850
  32.8621660  45.7620530  70.0351340  32.4492840  46.5874240  70.2891330
  32.1297610  45.1765570  69.8427700  23.7083070  45.3223640  68.6769050
  24.2597660  45.4318980  67.9022300  24.2226580  45.6961240  69.3924280
  33.5521760  55.8079860  70.7232320  33.0752320  56.6152050  70.5304930
  32.8683550  55.1558190  70.8758530  24.5554580  51.9729680  73.7117020
  23.6583110  52.1969650  73.9590420  24.5807450  52.0964620  72.7628420
  23.3825800  48.8443000  72.2874390  23.2433570  49.7165800  72.6561790
  22.5007160  48.5015810  72.1422330  25.1806150  54.7864700  74.4959540
  25.1521580  55.1907650  73.6287970  25.0171120  53.8575060  74.3331140
  35.1776940  40.0765610  57.9399320  34.8649600  40.1692440  58.8398390
  35.9389410  40.6546640  57.8896750  20.5792080  52.3140740  64.6151480
  20.1720160  52.4555330  63.7605080  21.4705090  52.0300900  64.4122690
  30.3970960  56.4632650  71.5218530  30.9115630  56.3740660  72.3240960
  29.5540040  56.8092350  71.8146440  32.0751490  54.2575550  59.5100530
  31.3816650  54.2552840  58.8502810  32.8174350  53.8334870  59.0794700
  36.3878230  44.8137110  73.9173460  35.7722500  45.3216780  73.3888920
  36.0674650  43.9135440  73.8599400  19.3903970  51.6554720  70.7439760
  19.5535010  51.1860080  69.9259130  19.8556420  51.1478280  71.4088600
  24.1622740  40.7860480  65.7800330  23.7190890  41.5670020  65.4484850
  24.7207730  41.1090370  66.4871270  28.4492550  43.6529000  71.3835650
  27.9871920  43.8612020  72.1955590  28.0470660  42.8388350  71.0806320
  33.4497060  44.8737950  72.5132310  32.5990650  44.5743700  72.8341380
  33.2898850  45.1179960  71.6016130  30.5446770  46.3739700  74.6131100
  30.8700180  45.5403450  74.2733330  31.3327100  46.8968220  74.7609430
  27.2781560  40.4071180  60.6606160  26.6535740  40.4031050  61.3859470
  27.1911680  39.5402140  60.2642130  26.1998640  41.3307810  67.6389930
  26.4970970  42.2370640  67.5581950  26.7484200  40.8426590  67.0249500
  26.3936170  46.8079630  74.1741850  26.2979770  45.8674360  74.0242250
  27.2368150  47.0294700  73.7789920  21.5246710  43.2193300  72.3275630
  21.1310100  44.0668510  72.5348410  20.8365110  42.5819670  72.5184270
  28.0991760  43.3028270  75.3972370  27.4090080  43.1100470  76.0318460
  28.8424060  43.5862910  75.9296670  18.8263760  41.1421760  66.3605710
  18.5376810  41.7124620  67.0730690  19.5709520  40.6626210  66.7236940
  30.3754730  47.1426710  68.2326290  29.6435850  47.6513520  68.5816390
  29.9779070  46.3256690  67.9315070  26.8132120  43.8180910  66.6378780
  26.8168180  43.3770860  65.7883320  27.7083240  44.1398240  66.7450600
  26.8752270  44.8192990  59.6285540  26.9965090  44.7779470  60.5771360
  26.4900780  45.6817140  59.4732270  34.2651390  40.0092570  73.4835610
  34.5897160  39.2782230  74.0093590  34.3007900  39.6906210  72.5816600
  20.9642950  51.0306150  72.9035570  20.5797740  50.3899820  73.5018530
  21.2755140  51.7342270  73.4730300  19.9780580  42.6226380  64.5137660
  19.6927500  42.2582050  65.3516280  19.9159440  41.8906840  63.9000800
  24.9039460  46.9191330  70.7028400  24.5996530  47.7983310  70.9278760
  25.8585920  46.9791120  70.7385840  29.6519170  41.5155640  61.2351030
  28.8383780  41.0168810  61.1596340  29.4581120  42.3553890  60.8187380
  29.5728030  50.1926740  72.9790640  29.5065340  49.2722410  72.7248230
  28.9433170  50.2902180  73.6935280  28.3628150  52.0598980  60.2101360
  28.7043850  52.8041210  59.7144680  27.5340860  52.3730100  60.5726190
  20.9603190  47.7594070  71.8499760  20.6018130  48.4247920  72.4373100
  20.6657750  46.9277620  72.2212380  24.1616310  48.2178310  74.7339310
  23.8616450  48.3635490  73.8367130  24.9327550  47.6583600  74.6412700
  29.5044760  53.0147310  72.7294440  29.5189300  52.0828270  72.5113350
  28.7969860  53.1007070  73.3684210  19.4711240  47.7585330  58.4734360
  20.3406090  48.0410130  58.7570280  18.9801560  48.5721200  58.3583170
  28.9378660  54.6564880  69.8234940  29.5820880  54.8624260  70.5008360
  29.3008100  53.8953280  69.3705790  22.5357830  39.4896190  63.0665160
  22.4072460  39.4814090  64.0150080  21.7119850  39.8279280  62.7156170
  30.2110740  52.6597230  68.5412390  30.8532970  51.9590390  68.6544560
  30.7360090  53.4395670  68.3609280  31.9848360  53.4592130  71.7448450
  32.3204600  54.0458820  72.4226370  31.0648700  53.3284840  71.9746240
  19.5351760  41.2487310  72.5271860  18.8210280  41.4484230  73.1324470
  19.9546800  40.4726880  72.8986660  19.8224350  55.2367570  73.5138390
  19.9315470  54.2962310  73.3733780  19.1704910  55.5022320  72.8652120
  27.8136940  53.5083460  74.9136510  27.4933810  52.7892700  75.4582200
  27.1395300  54.1838530  74.9872570  21.4557750  49.5758800  60.6016420
  20.8485700  50.3157700  60.6111720  21.9307100  49.6658160  59.7754620
  34.3952570  42.6966560  61.0860870  33.7665730  42.8012230  60.3719100
  33.9004490  42.9163340  61.8754750  27.9892530  46.3949210  70.5011280
  28.4877780  46.8695030  71.1663130  28.1315480  45.4712730  70.7081310
  30.3952030  41.7003170  63.9414540  30.2719810  41.7189300  62.9924050
  31.3436590  41.7482110  64.0612940  33.4881400  47.8550350  64.7901030
  32.5471540  47.8700580  64.9648720  33.8025470  47.0686310  65.2361330
  23.4663040  49.5369950  58.3504990  24.2326310  49.4251310  58.9130420
  23.5437730  48.8407920  57.6981760  22.9624510  57.1190410  66.1372420
  23.6986990  56.5705870  66.4080990  23.3465430  57.9846420  65.9978410
  21.9682790  56.3036480  75.3258000  22.7695520  56.6248530  75.7393400
  21.4534610  55.9432060  76.0477910  32.2347790  56.1396640  73.8842820
  33.1869540  56.0554660  73.8343060  32.0876010  56.8038350  74.5576610
  19.6880600  48.7909940  74.2694050  20.1919620  48.2117220  74.8410280
  18.9488020  49.0750170  74.8070420  26.5904220  51.5124130  57.8240340
  26.4854860  50.8976480  58.5501720  26.4228440  50.9890020  57.0403350
  26.7418540  50.1980930  73.8029570  25.9764210  50.7665930  73.7184240
  26.9234500  49.9057140  72.9097800  21.7203680  46.9339530  75.1644120
  21.7609020  46.6353400  76.0729350  22.5749180  47.3347140  75.0051640
  23.6609490  45.5131630  73.1318610  23.1305950  45.0222580  72.5041950
  24.3297560  45.9415830  72.5976540  33.0309720  47.3197250  74.8998950
  33.6130490  46.5649570  74.8119430  33.2071490  47.8504690  74.1230430
  24.1481790  42.4794000  73.2115900  24.0538660  41.8614750  72.4866770
  23.5679180  43.2060290  72.9845810  26.9143230  41.0367240  70.2443290
  26.4660530  41.0591500  69.3988840  26.2808430  40.6386260  70.8413590
  27.3202780  49.9321570  70.8655730  27.7390890  50.7754300  70.6931970
  26.4011410  50.0693610  70.6362510  29.6566680  47.6637750  72.2493570
  29.7762890  47.0678890  72.9888410  30.5160680  47.7007440  71.8294870
  31.9954580  48.2174940  70.8256080  31.4689800  48.7417560  70.2221220
  32.3385920  48.8502330  71.4565810  24.3940970  45.6068310  57.2705790
  24.1930030  44.7435670  57.6319130  24.2233020  45.5201670  56.3327390
  25.1710200  56.2374580  71.9813460  24.6331290  56.9620640  71.6622160
  25.4244160  55.7604920  71.1910800  26.4235450  44.2059100  73.5069390
  27.0135140  43.8974950  74.1947210  25.6055690  43.7338850  73.6629290
  31.2428880  43.8224910  73.7402410  30.5544400  43.1606450  73.6752400
  31.9634900  43.3763180  74.1850870  31.8729280  40.4176540  59.7992670
  32.1531570  39.5744440  60.1552090  31.0995010  40.6499650  60.3131420
  28.0272410  57.4725790  72.2400110  27.9531110  58.3760930  72.5472480
  27.1251250  57.1537690  72.2122180  26.4108700  41.6503550  58.2439870
  26.0630700  40.9727540  57.6642320  26.6121470  41.1893060  59.0583260
  36.2510000  49.6553270  60.4096580  37.0128910  50.2249920  60.5156270
  36.2664370  49.0880470  61.1804890  19.7514340  48.1791200  64.6404240
  19.0963180  47.9102840  63.9963940  20.5892290  48.0695680  64.1906220
  36.3029170  49.9487640  57.5669100  36.5778010  50.8566520  57.4388320
  36.1139910  49.8850170  58.5031090  36.1994510  47.8856630  62.5598530
  35.8238110  47.1184560  62.1279820  35.4697630  48.2679330  63.0473460
  20.7890270  48.5643770  69.1807580  21.1563310  48.4771170  70.0603600
  20.2201090  47.8010320  69.0814440  35.5894130  47.0328150  72.1938050
  35.3580220  46.8040900  71.2936000  35.8498680  47.9527700  72.1482940
  20.3406270  45.4752860  73.0866000  19.4462320  45.4419620  73.4259710
  20.8803820  45.6739650  73.8517250  34.0282200  42.2584580  74.9717750
  34.9052380  42.2667980  75.3551750  34.0403040  41.5215420  74.3610100
  35.4745470  46.1114120  65.8605770  35.9982950  45.6176770  65.2295940
  36.0604890  46.2464480  66.6053340  35.6535190  46.1953990  69.3825320
  34.7037900  46.1617530  69.4970310  35.8348200  47.1054100  69.1475090
  21.1553790  40.4995000  57.5326600  21.8781920  41.0403940  57.8507820
  21.4278310  40.2258420  56.6568140  20.8445980  39.7501190  67.4349220
  21.4922170  39.1998570  66.9944380  21.2647820  40.0044340  68.2565030
  36.3932600  44.0048420  64.3335860  36.2831880  43.8504460  65.2718130
  37.1540190  43.4769360  64.0911270  37.2822870  41.8356340  57.5742000
  38.2072180  41.7037520  57.3660290  37.2598660  41.9149160  58.5278450
  37.3561360  42.6067000  60.1998710  36.5612860  42.5412120  60.7291620
  37.5604640  43.5417640  60.1884060  20.5977980  39.9056860  70.1774540
  20.2492800  40.3620680  70.9432720  20.2665680  39.0113990  70.2596970
  22.2042350  53.0776460  74.3427730  22.1611980  52.7069370  75.2242190
  22.3353360  54.0154030  74.4829550  25.9048380  54.6336050  69.9437450
  25.6639740  54.9010610  69.0567970  26.8451020  54.8041780  69.9988310
  28.1102800  41.0968740  73.6993960  28.0491690  41.6890570  74.4489370
  29.0503180  40.9894700  73.5544220  30.7477360  40.7538800  73.3386250
  31.3617770  41.0718090  72.6767330  31.2926920  40.2687390  73.9582110
  21.2698620  39.4333060  73.4525310  21.8181610  39.2521110  72.6891420
  21.3353930  38.6427170  73.9881620  22.0430380  56.0238710  71.4625510
  21.4490700  55.8923410  72.2015550  22.0354220  55.1876850  70.9967610
  34.8491990  57.2953850  68.0234830  34.3894960  58.0469660  67.6492850
  34.2204450  56.5760320  67.9649630  21.6742610  53.3897090  70.4133550
  20.9476670  52.7702380  70.3459500  21.7351760  53.7837700  69.5431630
  25.2787710  55.6042090  67.1982960  25.7952730  54.9929450  66.6731220
  25.9285090  56.1070870  67.6893970  28.0183210  56.4950580  68.0251940
  28.3061020  56.2404880  67.1484950  28.5306430  55.9427940  68.6157510
  35.6519860  40.5679120  64.6606360  35.5908260  39.6240340  64.5137380
  36.4311890  40.6759210  65.2059820  27.1214440  42.6527530  64.1164480
  26.3088950  42.2784420  63.7760360  27.6256080  41.8972610  64.4185670
  31.6239420  39.3169980  65.3547550  32.2268790  39.8890190  65.8296070
  30.8832410  39.8809420  65.1321450  34.7674020  39.7191540  60.6287830
  34.9624650  40.6174990  60.8955260  33.9803890  39.4878620  61.1220780
  25.1463620  40.8027450  62.7209530  24.5166360  40.1014760  62.8879660
  24.6068760  41.5631580  62.5042690  28.0855570  57.4166680  75.3920140
  29.0122880  57.1810950  75.4356100  28.0706000  58.2438680  74.9106170
  25.2719180  40.0811430  75.1562020  24.9903450  40.5845030  74.3922840
  25.6538880  39.2833180  74.7904150  31.8734640  39.4965010  75.7342490
  31.7600090  39.8159620  76.6294010  32.6904380  39.8977520  75.4379770
  30.7792790  47.5157480  46.0977230  30.6986840  46.6012090  45.8268940
  30.3657210  48.0124550  45.3916940  28.9110830  49.2936500  47.9786500
  28.1352930  48.8136940  48.2685070  29.5623760  48.6142150  47.8042660
  22.9077920  53.6396400  49.0520280  23.2105960  52.7494140  48.8730500
  23.6521510  54.1966620  48.8242530  21.3368610  44.5658200  42.6404650
  20.4485310  44.9074170  42.5384530  21.6209800  44.3658520  41.7485480
  19.3001620  47.1663850  48.5244350  19.8717730  46.3986050  48.5247990
  19.3003160  47.4652610  47.6150960  29.1581570  55.9854700  46.3789620
  28.5393010  56.4412200  45.8084060  30.0133350  56.1406160  45.9779320
  28.3519820  51.9693690  47.9856660  28.2828100  51.0283630  47.8245790
  29.1139680  52.0595100  48.5579230  20.5426490  42.5748210  50.3113280
  20.3629330  41.6773960  50.5916040  20.1406570  43.1220080  50.9860230
  29.3824990  44.7764070  48.2125590  29.7589810  43.9035950  48.0999260
  29.2844500  45.1122770  47.3216030  23.5130000  43.1489700  43.6743030
  23.6196750  44.0493430  43.9811790  22.6022360  43.1007670  43.3837680
  33.1649110  42.2714510  45.1453930  33.9858730  41.7811080  45.1879410
  33.1983190  42.8612170  45.8985770  21.1613160  45.0708710  48.9195620
  21.8423270  45.3347080  49.5383020  20.8461210  44.2309580  49.2533630
  25.3537730  46.1176070  48.0068210  25.8615950  46.6157040  48.6473230
  25.8850970  45.3411270  47.8307570  37.4548660  44.2881260  51.7097560
  36.7500830  44.6762970  51.1912670  37.7206580  44.9831550  52.3118490
  23.6373830  40.7574630  52.2731630  23.6392270  41.2747020  51.4677530
  22.8078140  40.2804810  52.2501560  33.4010590  44.2114890  47.9181470
  32.6966160  44.4999780  48.4984580  33.7622750  45.0215000  47.5581030
  23.3189160  42.4684590  50.2802080  23.6605970  43.3126640  49.9855950
  22.3804970  42.6168330  50.3967420  19.3928120  51.5550470  41.1461160
  19.0156100  52.0437570  40.4146060  19.6501190  52.2275750  41.7767690
  36.4697510  43.6569680  48.3090680  35.5222420  43.6908660  48.4406110
  36.7947500  44.4708630  48.6940040  27.0017050  39.9566860  46.6046670
  27.3092030  39.4013750  45.8882170  26.0717750  40.0911320  46.4219660
  32.5532110  55.6734150  48.8954130  32.5659270  55.2696440  48.0276390
  32.0007330  56.4481440  48.7915560  29.3897810  48.0215690  43.3406790
  28.4627090  47.9553070  43.5695260  29.5422630  48.9595820  43.2262030
  29.3766890  44.2932690  40.3373950  28.4370560  44.4546650  40.4226410
  29.6950150  45.0118370  39.7909940  35.8979650  48.9751210  50.3152980
  35.0698280  49.0444300  49.8403110  36.4930130  49.5605520  49.8468810
  32.8621660  45.7620530  51.2607850  32.4492840  46.5874240  51.5147840
  32.1297610  45.1765570  51.0684210  24.9954450  48.5480430  46.1226520
  24.5911450  47.8357680  45.6272420  25.0817570  48.2033670  47.0114560
  25.4636150  52.2347990  48.2865730  25.1664440  51.6293460  47.6073510
  26.4135970  52.2725300  48.1755090  23.7083070  45.3223640  49.9025560
  24.2597660  45.4318980  49.1278810  24.2226580  45.6961240  50.6180790
  33.5521760  55.8079860  51.9488830  33.0752320  56.6152050  51.7561440
  32.8683550  55.1558190  52.1015040  31.5959800  48.8222800  40.8514790
  32.0353080  47.9845230  40.7052610  32.3088220  49.4552200  40.9378930
  29.7055180  53.7618870  44.8196030  30.1451090  54.5043200  44.4051420
  29.6442070  54.0045440  45.7434990  21.6959080  47.4425410  43.6233170
  21.5756680  48.1687500  43.0114440  21.3859970  46.6728320  43.1461080
  19.3344450  50.6140550  49.4301810  19.4124870  50.7489320  48.4857530
  19.9486130  49.9056440  49.6229930  20.5792080  52.3140740  45.8407990
  20.1720160  52.4555330  44.9861590  21.4705090  52.0300900  45.6379200
  36.5354220  52.7604650  54.1780230  36.6617280  52.5216530  53.2597410
  36.5775600  51.9289190  54.6502310  30.3970960  56.4632650  52.7475040
  30.9115630  56.3740660  53.5497470  29.5540040  56.8092350  53.0402950
  32.3725360  56.7487990  42.1759040  32.2126500  56.4590930  43.0740870
  32.2072070  55.9728120  41.6404270  24.8513740  56.5286520  43.9530660
  24.6756220  55.6122060  43.7398460  23.9969480  56.8873810  44.1928460
  32.0751490  54.2575550  40.7357040  31.3816650  54.2552840  40.0759320
  32.8174350  53.8334870  40.3051210  31.6401420  55.8838260  44.8105530
  32.0958370  55.1027640  45.1244150  31.9793940  56.5945080  45.3546710
  36.3878230  44.8137110  55.1429970  35.7722500  45.3216780  54.6145430
  36.0674650  43.9135440  55.0855910  19.3903970  51.6554720  51.9696270
  19.5535010  51.1860080  51.1515640  19.8556420  51.1478280  52.6345110
  24.1622740  40.7860480  47.0056840  23.7190890  41.5670020  46.6741360
  24.7207730  41.1090370  47.7127780  33.4497060  44.8737950  53.7388820
  32.5990650  44.5743700  54.0597890  33.2898850  45.1179960  52.8272640
  30.5446770  46.3739700  55.8387610  30.8700180  45.5403450  55.4989840
  31.3327100  46.8968220  55.9865940  27.2781560  40.4071180  41.8862670
  26.6535740  40.4031050  42.6115980  27.1911680  39.5402140  41.4898640
  26.1998640  41.3307810  48.8646440  26.4970970  42.2370640  48.7838460
  26.7484200  40.8426590  48.2506010  23.9536960  45.9094050  44.7338090
  23.7277880  45.6931220  45.6384710  23.1729490  46.3422510  44.3884060
  31.1834720  45.9157420  43.3328740  30.5843610  46.6393220  43.1492360
  31.7314330  45.8534200  42.5505190  29.7899590  44.5520960  45.3632020
  30.1829160  44.8693160  44.5500710  30.1516440  43.6732840  45.4776540
  21.5246710  43.2193300  53.5532140  21.1310100  44.0668510  53.7604920
  20.8365110  42.5819670  53.7440780  28.0991760  43.3028270  56.6228880
  27.4090080  43.1100470  57.2574970  28.8424060  43.5862910  57.1553180
  18.8263760  41.1421760  47.5862220  18.5376810  41.7124620  48.2987200
  19.5709520  40.6626210  47.9493450  19.0133990  45.0841880  38.7964940
  18.9308660  46.0272640  38.9379930  18.6617050  44.9416790  37.9177290
  30.3754730  47.1426710  49.4582800  29.6435850  47.6513520  49.8072900
  29.9779070  46.3256690  49.1571580  26.8132120  43.8180910  47.8635290
  26.8168180  43.3770860  47.0139830  27.7083240  44.1398240  47.9707110
  22.6634500  43.7007400  46.8229500  22.3234550  44.1782630  47.5796550
  21.9011820  43.2472520  46.4630600  26.8752270  44.8192990  40.8542050
  26.9965090  44.7779470  41.8027870  26.4900780  45.6817140  40.6988780
  30.8380640  42.5960390  48.8705740  30.8553380  43.0469040  49.7147590
  30.5896220  41.6966030  49.0839180  25.8873770  47.1294130  40.2525350
  25.3190670  46.6812380  39.6261260  26.5962770  47.4886910  39.7190500
  34.2651390  40.0092570  54.7092120  34.5897160  39.2782230  55.2350100
  34.3007900  39.6906210  53.8073110  20.9642950  51.0306150  54.1292080
  20.5797740  50.3899820  54.7275040  21.2755140  51.7342270  54.6986810
  19.9780580  42.6226380  45.7394170  19.6927500  42.2582050  46.5772790
  19.9159440  41.8906840  45.1257310  23.4321250  51.1252320  42.5251760
  22.6583510  50.5849940  42.3650480  24.1615880  50.6058930  42.1869520
  29.6519170  41.5155640  42.4607540  28.8383780  41.0168810  42.3852850
  29.4581120  42.3553890  42.0443890  29.5728030  50.1926740  54.2047150
  29.5065340  49.2722410  53.9504740  28.9433170  50.2902180  54.9191790
  32.3667560  45.8875290  40.7569700  33.2547180  46.1992520  40.5821040
  32.3372650  45.0147540  40.3650280  23.4758650  50.7932700  46.1630570
  23.9937320  49.9900960  46.1087460  23.0242670  50.7311840  47.0047400
  28.3628150  52.0598980  41.4357870  28.7043850  52.8041210  40.9401190
  27.5340860  52.3730100  41.7982700  20.9603190  47.7594070  53.0756270
  20.6018130  48.4247920  53.6629610  20.6657750  46.9277620  53.4468890
  29.5044760  53.0147310  53.9550950  29.5189300  52.0828270  53.7369860
  28.7969860  53.1007070  54.5940720  34.6381830  47.1987130  40.2249560
  34.5545550  47.6301350  39.3746000  35.3576020  47.6585480  40.6576380
  35.7155970  49.6554650  53.3019530  34.9904160  50.2483430  53.1048920
  36.2431430  49.6478190  52.5032900  35.6669080  54.0529390  42.9531690
  35.0245240  53.3985010  43.2275410  35.2799740  54.4584480  42.1772360
  27.3318840  52.1412510  44.2073790  28.0189970  52.6881720  44.5881380
  26.5451260  52.6853240  44.2423400  19.4711240  47.7585330  39.6990870
  20.3406090  48.0410130  39.9826790  18.9801560  48.5721200  39.5839680
  26.6346050  49.1458540  43.8199150  27.0908830  49.9563790  44.0459340
  26.2834260  48.8281680  44.6517640  28.9378660  54.6564880  51.0491450
  29.5820880  54.8624260  51.7264870  29.3008100  53.8953280  50.5962300
  22.5357830  39.4896190  44.2921670  22.4072460  39.4814090  45.2406590
  21.7119850  39.8279280  43.9412680  30.2110740  52.6597230  49.7668900
  30.8532970  51.9590390  49.8801070  30.7360090  53.4395670  49.5865790
  34.0566460  52.9445850  39.4908040  33.8304040  52.2276290  40.0832680
  33.6662660  52.6958290  38.6529790  31.9848360  53.4592130  52.9704960
  32.3204600  54.0458820  53.6482880  31.0648700  53.3284840  53.2002750
  19.8382490  56.9712710  40.2652500  20.1980130  57.5702050  39.6109770
  19.6974830  57.5172600  41.0387530  19.5351760  41.2487310  53.7528370
  18.8210280  41.4484230  54.3580980  19.9546800  40.4726880  54.1243170
  33.6382710  50.8617790  41.1522200  33.3504410  51.3230480  41.9400080
  34.4334880  50.4015560  41.4206420  27.8136940  53.5083460  56.1393020
  27.4933810  52.7892700  56.6838710  27.1395300  54.1838530  56.2129080
  25.8551110  54.3543910  41.0826170  25.8461210  55.0873600  40.4670680
  24.9349470  54.1075490  41.1753130  21.4557750  49.5758800  41.8272930
  20.8485700  50.3157700  41.8368230  21.9307100  49.6658160  41.0011130
  28.8410710  54.4172150  39.7451360  28.9422690  54.2136140  38.8153340
  27.9412450  54.1630430  39.9499140  26.3636600  44.9752510  43.7275260
  25.6552750  45.4438850  44.1688870  26.6481080  44.3174520  44.3620450
  30.3952030  41.7003170  45.1671050  30.2719810  41.7189300  44.2180560
  31.3436590  41.7482110  45.2869450  24.5671620  43.2837590  41.1025970
  25.4162150  43.7207740  41.0366160  24.2002890  43.5957850  41.9298030
  35.1959390  42.6117170  52.5696180  34.6932990  43.3522570  52.9089990
  36.0116050  43.0001170  52.2532970  33.4881400  47.8550350  46.0157540
  32.5471540  47.8700580  46.1905230  33.8025470  47.0686310  46.4617840
  23.4663040  49.5369950  39.5761500  24.2326310  49.4251310  40.1386930
  23.5437730  48.8407920  38.9238270  22.1609800  46.9695020  40.2594390
  22.2413390  46.0222530  40.3711790  23.0529550  47.3001900  40.3655050
  35.4906980  55.0259200  47.6911800  35.6154400  55.8490370  48.1635610
  36.3572540  54.8149930  47.3435950  22.9624510  57.1190410  47.3628930
  23.6986990  56.5705870  47.6337500  23.3465430  57.9846420  47.2234920
  19.8469990  53.1863980  43.2370440  18.9209770  53.4285120  43.2275850
  20.3126420  54.0138240  43.1155190  21.9682790  56.3036480  56.5514510
  22.7695520  56.6248530  56.9649910  21.4534610  55.9432060  57.2734420
  26.0726820  56.2920720  39.1854500  26.8655430  56.5809550  38.7336290
  25.5531170  55.8612890  38.5066980  30.8047420  52.4116350  56.4989920
  30.1985580  52.4347950  55.7585670  30.5001530  51.6799390  57.0357170
  32.2347790  56.1396640  55.1099330  33.1869540  56.0554660  55.0599570
  32.0876010  56.8038350  55.7833120  35.1256990  55.5190850  40.6091240
  34.8398500  55.1055990  39.7945420  34.9276540  56.4478560  40.4891760
  19.6880600  48.7909940  55.4950560  20.1919620  48.2117220  56.0666790
  18.9488020  49.0750170  56.0326930  26.5904220  51.5124130  39.0496850
  26.4854860  50.8976480  39.7758230  26.4228440  50.9890020  38.2659860
  29.8306950  50.5744160  39.6538840  29.2817050  51.0213460  40.2981580
  30.4526210  50.0693410  40.1776510  33.8841890  51.9286260  55.5861100
  34.6251360  52.2662020  55.0828560  33.1214570  52.0978320  55.0330870
  21.7203680  46.9339530  56.3900630  21.7609020  46.6353400  57.2985860
  22.5749180  47.3347140  56.2308150  25.4982070  49.5335080  41.5504140
  25.9198490  49.3674950  42.3935530  25.6232910  48.7235310  41.0559280
  28.0109710  48.5572690  38.7981240  28.5315370  47.8421710  38.4322390
  28.6578110  49.1958560  39.0981750  32.5587550  49.9801090  54.1216310
  32.9728570  50.1346170  54.9706730  31.6238550  50.1056310  54.2842090
  33.0309720  47.3197250  56.1255460  33.6130490  46.5649570  56.0375940
  33.2071490  47.8504690  55.3486940  24.1481790  42.4794000  54.4372410
  24.0538660  41.8614750  53.7123280  23.5679180  43.2060290  54.2102320
  29.6566680  47.6637750  53.4750080  29.7762890  47.0678890  54.2144920
  30.5160680  47.7007440  53.0551380  31.9954580  48.2174940  52.0512590
  31.4689800  48.7417560  51.4477730  32.3385920  48.8502330  52.6822320
  24.3940970  45.6068310  38.4962300  24.1930030  44.7435670  38.8575640
  24.2233020  45.5201670  37.5583900  25.1710200  56.2374580  53.2069970
  24.6331290  56.9620640  52.8878670  25.4244160  55.7604920  52.4167310
  26.4235450  44.2059100  54.7325900  27.0135140  43.8974950  55.4203720
  25.6055690  43.7338850  54.8885800  31.8729280  40.4176540  41.0249180
  32.1531570  39.5744440  41.3808600  31.0995010  40.6499650  41.5387930
  23.1923770  42.7068930  38.4840180  23.4949670  42.7136360  37.5759330
  23.9318360  42.3566790  38.9807840  28.0272410  57.4725790  53.4656620
  27.9531110  58.3760930  53.7728990  27.1251250  57.1537690  53.4378690
  26.4108700  41.6503550  39.4696380  26.0630700  40.9727540  38.8898830
  26.6121470  41.1893060  40.2839770  28.5757740  56.6384300  41.0882980
  29.4708530  56.9769270  41.1101740  28.6075370  55.9163710  40.4607260
  22.2153900  52.0111350  39.3169980  22.6528770  52.5541020  39.9727560
  22.7001630  51.1858300  39.3266320  19.4299700  54.8000380  46.7690240
  19.7602710  53.9321440  46.5368880  19.8590700  55.0058900  47.5995200
  24.0261620  53.1309390  44.4292210  23.7257160  53.0074360  45.3296120
  23.9199110  52.2717980  44.0207940  19.9189910  55.6670970  49.5071870
  19.4820900  55.8471770  50.3396020  20.4867590  56.4245590  49.3653590
  35.5552090  55.1687970  53.7949180  34.9554080  55.2280530  53.0513100
  35.6845990  54.2292950  53.9246030  36.2510000  49.6553270  41.6353090
  37.0128910  50.2249920  41.7412780  36.2664370  49.0880470  42.4061400
  19.7514340  48.1791200  45.8660750  19.0963180  47.9102840  45.2220450
  20.5892290  48.0695680  45.4162730  36.3029170  49.9487640  38.7925610
  36.5778010  50.8566520  38.6644830  36.1139910  49.8850170  39.7287600
  32.7004780  42.9732490  40.0879240  33.1189660  42.7863470  39.2475900
  32.3940840  42.1211540  40.3982170  36.1994510  47.8856630  43.7855040
  35.8238110  47.1184560  43.3536330  35.4697630  48.2679330  44.2729970
  20.7890270  48.5643770  50.4064090  21.1563310  48.4771170  51.2860110
  20.2201090  47.8010320  50.3070950  35.5894130  47.0328150  53.4194560
  35.3580220  46.8040900  52.5192510  35.8498680  47.9527700  53.3739450
  20.3406270  45.4752860  54.3122510  19.4462320  45.4419620  54.6516220
  20.8803820  45.6739650  55.0773760  34.0282200  42.2584580  56.1974260
  34.9052380  42.2667980  56.5808260  34.0403040  41.5215420  55.5866610
  18.9652420  45.3890130  41.8086080  18.0616500  45.6520330  41.6337740
  19.4493040  45.6601300  41.0286040  35.4745470  46.1114120  47.0862280
  35.9982950  45.6176770  46.4552450  36.0604890  46.2464480  47.8309850
  35.6535190  46.1953990  50.6081830  34.7037900  46.1617530  50.7226820
  35.8348200  47.1054100  50.3731600  21.5079630  44.4455670  39.7180460
  22.2171330  44.0238890  39.2327740  20.7919570  44.5130900  39.0863810
  21.1553790  40.4995000  38.7583110  21.8781920  41.0403940  39.0764330
  21.4278310  40.2258420  37.8824650  34.9645440  45.3687470  43.0254690
  35.4604560  45.1358340  43.8103570  34.7661510  44.5299310  42.6092330
  20.8445980  39.7501190  48.6605730  21.4922170  39.1998570  48.2200890
  21.2647820  40.0044340  49.4821540  36.3932600  44.0048420  45.5592370
  36.2831880  43.8504460  46.4974640  37.1540190  43.4769360  45.3167780
  20.5977980  39.9056860  51.4031050  20.2492800  40.3620680  52.1689230
  20.2665680  39.0113990  51.4853480  22.2042350  53.0776460  55.5684240
  22.1611980  52.7069370  56.4498700  22.3353360  54.0154030  55.7086060
  25.9048380  54.6336050  51.1693960  25.6639740  54.9010610  50.2824480
  26.8451020  54.8041780  51.2244820  37.1652540  56.6530430  51.9704600
  36.6710820  57.0499300  51.2531730  36.5565830  56.0279640  52.3641880
  21.2698620  39.4333060  54.6781820  21.8181610  39.2521110  53.9147930
  21.3353930  38.6427170  55.2138130  22.0430380  56.0238710  52.6882020
  21.4490700  55.8923410  53.4272060  22.0354220  55.1876850  52.2224120
  21.6742610  53.3897090  51.6390060  20.9476670  52.7702380  51.5716010
  21.7351760  53.7837700  50.7688140  25.2787710  55.6042090  48.4239470
  25.7952730  54.9929450  47.8987730  25.9285090  56.1070870  48.9150480
  28.0183210  56.4950580  49.2508450  28.3061020  56.2404880  48.3741460
  28.5306430  55.9427940  49.8414020  33.7881290  40.9363880  47.8754050
  34.2289380  40.8808980  47.0275650  33.5188880  41.8521890  47.9464230
  35.6519860  40.5679120  45.8862870  35.5908260  39.6240340  45.7393890
  36.4311890  40.6759210  46.4316330  19.9572610  56.7071480  44.8486820
  19.7894650  56.0742160  45.5468710  19.0907120  56.9130880  44.4981010
  20.5800630  40.5388260  42.3518680  21.3379990  40.6517140  41.7782710
  20.1177800  41.3757460  42.3062110  27.1214440  42.6527530  45.3420990
  26.3088950  42.2784420  45.0016870  27.6256080  41.8972610  45.6442180
  31.6239420  39.3169980  46.5804060  32.2268790  39.8890190  47.0552580
  30.8832410  39.8809420  46.3577960  21.5635310  55.4004710  42.2936960
  21.0382930  55.7812740  41.5898920  21.4879890  56.0255480  43.0146670
  22.9525780  41.0652310  40.8920650  23.4818540  40.2782110  40.7628600
  23.5854100  41.7443500  41.1256180  25.1463620  40.8027450  43.9466040
  24.5166360  40.1014760  44.1136170  24.6068760  41.5631580  43.7299200
  25.2719180  40.0811430  56.3818530  24.9903450  40.5845030  55.6179350
  25.6538880  39.2833180  56.0160660  24.1628280  57.3487090  41.1686210
  24.8947100  57.0646370  40.6210100  24.4221950  57.1100370  42.0585590
  23.3243070  53.4651820  41.1732540  22.6951950  53.9336920  41.7218370
  23.4390900  52.6201040  41.6078730  30.7792790  47.5157480  27.3233740
  30.6986840  46.6012090  27.0525450  30.3657210  48.0124550  26.6173450
  28.9110830  49.2936500  29.2043010  28.1352930  48.8136940  29.4941580
  29.5623760  48.6142150  29.0299170  22.9276660  49.6056310  30.0818770
  22.0961540  49.3505020  30.4815280  23.5357640  49.6767080  30.8176690
  32.9318260  53.6996690  27.9842140  32.4699790  52.9283930  28.3129310
  33.7443810  53.7262760  28.4894590  22.9077920  53.6396400  30.2776790
  23.2105960  52.7494140  30.0987010  23.6521510  54.1966620  30.0499040
  21.3368610  44.5658200  23.8661160  20.4485310  44.9074170  23.7641040
  21.6209800  44.3658520  22.9741990  19.3001620  47.1663850  29.7500860
  19.8717730  46.3986050  29.7504500  19.3003160  47.4652610  28.8407470
  29.1581570  55.9854700  27.6046130  28.5393010  56.4412200  27.0340570
  30.0133350  56.1406160  27.2035830  28.3519820  51.9693690  29.2113170
  28.2828100  51.0283630  29.0502300  29.1139680  52.0595100  29.7835740
  20.5426490  42.5748210  31.5369790  20.3629330  41.6773960  31.8172550
  20.1406570  43.1220080  32.2116740  29.3824990  44.7764070  29.4382100
  29.7589810  43.9035950  29.3255770  29.2844500  45.1122770  28.5472540
  23.5130000  43.1489700  24.8999540  23.6196750  44.0493430  25.2068300
  22.6022360  43.1007670  24.6094190  33.1649110  42.2714510  26.3710440
  33.9858730  41.7811080  26.4135920  33.1983190  42.8612170  27.1242280
  21.1613160  45.0708710  30.1452130  21.8423270  45.3347080  30.7639530
  20.8461210  44.2309580  30.4790140  25.3537730  46.1176070  29.2324720
  25.8615950  46.6157040  29.8729740  25.8850970  45.3411270  29.0564080
  37.4548660  44.2881260  32.9354070  36.7500830  44.6762970  32.4169180
  37.7206580  44.9831550  33.5375000  23.6373830  40.7574630  33.4988140
  23.6392270  41.2747020  32.6934040  22.8078140  40.2804810  33.4758070
  30.0244920  50.8693940  24.9978040  29.4062190  51.3343390  24.4340760
  30.5368170  51.5621420  25.4147550  24.8876680  50.3969810  31.6761640
  24.5546060  51.0238730  32.3182710  25.0643360  50.9231690  30.8963310
  33.4010590  44.2114890  29.1437980  32.6966160  44.4999780  29.7241090
  33.7622750  45.0215000  28.7837540  23.3189160  42.4684590  31.5058590
  23.6605970  43.3126640  31.2112460  22.3804970  42.6168330  31.6223930
  24.0995780  52.3650610  33.4910820  24.7169780  53.0401690  33.2095270
  23.2388900  52.7738590  33.3998320  19.3928120  51.5550470  22.3717670
  19.0156100  52.0437570  21.6402570  19.6501190  52.2275750  23.0024200
  36.4697510  43.6569680  29.5347190  35.5222420  43.6908660  29.6662620
  36.7947500  44.4708630  29.9196550  27.0017050  39.9566860  27.8303180
  27.3092030  39.4013750  27.1138680  26.0717750  40.0911320  27.6476170
  32.5532110  55.6734150  30.1210640  32.5659270  55.2696440  29.2532900
  32.0007330  56.4481440  30.0172070  33.8477530  52.3950370  25.2100810
  33.7373860  51.4524700  25.3350230  33.8445780  52.7566010  26.0963570
  31.9517550  50.5763990  31.4493250  32.3686340  50.3624100  30.6146710
  32.6757370  50.8336780  32.0201870  29.3897810  48.0215690  24.5663300
  28.4627090  47.9553070  24.7951770  29.5422630  48.9595820  24.4518540
  29.3766890  44.2932690  21.5630460  28.4370560  44.4546650  21.6482920
  29.6950150  45.0118370  21.0166450  35.8979650  48.9751210  31.5409490
  35.0698280  49.0444300  31.0659620  36.4930130  49.5605520  31.0725320
  33.4195100  49.5835990  25.0698550  32.8007520  49.2455540  24.4224850
  33.4019550  48.9395750  25.7777740  32.8621660  45.7620530  32.4864360
  32.4492840  46.5874240  32.7404350  32.1297610  45.1765570  32.2940720
  24.9954450  48.5480430  27.3483030  24.5911450  47.8357680  26.8528930
  25.0817570  48.2033670  28.2371070  25.4636150  52.2347990  29.5122240
  25.1664440  51.6293460  28.8330020  26.4135970  52.2725300  29.4011600
  23.7083070  45.3223640  31.1282070  24.2597660  45.4318980  30.3535320
  24.2226580  45.6961240  31.8437300  33.5521760  55.8079860  33.1745340
  33.0752320  56.6152050  32.9817950  32.8683550  55.1558190  33.3271550
  24.5554580  51.9729680  36.1630040  23.6583110  52.1969650  36.4103440
  24.5807450  52.0964620  35.2141440  31.5959800  48.8222800  22.0771300
  32.0353080  47.9845230  21.9309120  32.3088220  49.4552200  22.1635440
  23.3825800  48.8443000  34.7387410  23.2433570  49.7165800  35.1074810
  22.5007160  48.5015810  34.5935350  29.7055180  53.7618870  26.0452540
  30.1451090  54.5043200  25.6307930  29.6442070  54.0045440  26.9691500
  25.1806150  54.7864700  36.9472560  25.1521580  55.1907650  36.0800990
  25.0171120  53.8575060  36.7844160  35.1776940  40.0765610  20.3912340
  34.8649600  40.1692440  21.2911410  35.9389410  40.6546640  20.3409770
  21.6959080  47.4425410  24.8489680  21.5756680  48.1687500  24.2370950
  21.3859970  46.6728320  24.3717590  19.3344450  50.6140550  30.6558320
  19.4124870  50.7489320  29.7114040  19.9486130  49.9056440  30.8486440
  20.5792080  52.3140740  27.0664500  20.1720160  52.4555330  26.2118100
  21.4705090  52.0300900  26.8635710  36.5354220  52.7604650  35.4036740
  36.6617280  52.5216530  34.4853920  36.5775600  51.9289190  35.8758820
  30.3970960  56.4632650  33.9731550  30.9115630  56.3740660  34.7753980
  29.5540040  56.8092350  34.2659460  32.3725360  56.7487990  23.4015550
  32.2126500  56.4590930  24.2997380  32.2072070  55.9728120  22.8660780
  24.8513740  56.5286520  25.1787170  24.6756220  55.6122060  24.9654970
  23.9969480  56.8873810  25.4184970  32.0751490  54.2575550  21.9613550
  31.3816650  54.2552840  21.3015830  32.8174350  53.8334870  21.5307720
  31.6401420  55.8838260  26.0362040  32.0958370  55.1027640  26.3500660
  31.9793940  56.5945080  26.5803220  19.3903970  51.6554720  33.1952780
  19.5535010  51.1860080  32.3772150  19.8556420  51.1478280  33.8601620
  24.1622740  40.7860480  28.2313350  23.7190890  41.5670020  27.8997870
  24.7207730  41.1090370  28.9384290  28.4492550  43.6529000  33.8348670
  27.9871920  43.8612020  34.6468610  28.0470660  42.8388350  33.5319340
  33.4497060  44.8737950  34.9645330  32.5990650  44.5743700  35.2854400
  33.2898850  45.1179960  34.0529150  30.5446770  46.3739700  37.0644120
  30.8700180  45.5403450  36.7246350  31.3327100  46.8968220  37.2122450
  27.2781560  40.4071180  23.1119180  26.6535740  40.4031050  23.8372490
  27.1911680  39.5402140  22.7155150  26.1998640  41.3307810  30.0902950
  26.4970970  42.2370640  30.0094970  26.7484200  40.8426590  29.4762520
  23.9536960  45.9094050  25.9594600  23.7277880  45.6931220  26.8641220
  23.1729490  46.3422510  25.6140570  31.1834720  45.9157420  24.5585250
  30.5843610  46.6393220  24.3748870  31.7314330  45.8534200  23.7761700
  26.3936170  46.8079630  36.6254870  26.2979770  45.8674360  36.4755270
  27.2368150  47.0294700  36.2302940  29.7899590  44.5520960  26.5888530
  30.1829160  44.8693160  25.7757220  30.1516440  43.6732840  26.7033050
  21.5246710  43.2193300  34.7788650  21.1310100  44.0668510  34.9861430
  20.8365110  42.5819670  34.9697290  28.0991760  43.3028270  37.8485390
  27.4090080  43.1100470  38.4831480  28.8424060  43.5862910  38.3809690
  18.8263760  41.1421760  28.8118730  18.5376810  41.7124620  29.5243710
  19.5709520  40.6626210  29.1749960  19.0133990  45.0841880  20.0221450
  18.9308660  46.0272640  20.1636440  18.6617050  44.9416790  19.1433800
  30.3754730  47.1426710  30.6839310  29.6435850  47.6513520  31.0329410
  29.9779070  46.3256690  30.3828090  26.8132120  43.8180910  29.0891800
  26.8168180  43.3770860  28.2396340  27.7083240  44.1398240  29.1963620
  22.6634500  43.7007400  28.0486010  22.3234550  44.1782630  28.8053060
  21.9011820  43.2472520  27.6887110  26.8752270  44.8192990  22.0798560
  26.9965090  44.7779470  23.0284380  26.4900780  45.6817140  21.9245290
  30.8380640  42.5960390  30.0962250  30.8553380  43.0469040  30.9404100
  30.5896220  41.6966030  30.3095690  25.8873770  47.1294130  21.4781860
  25.3190670  46.6812380  20.8517770  26.5962770  47.4886910  20.9447010
  20.9642950  51.0306150  35.3548590  20.5797740  50.3899820  35.9531550
  21.2755140  51.7342270  35.9243320  27.1140090  47.8782690  30.8357210
  27.4810220  47.4041260  31.5818550  26.9245150  48.7524260  31.1765550
  19.9780580  42.6226380  26.9650680  19.6927500  42.2582050  27.8029300
  19.9159440  41.8906840  26.3513820  24.9039460  46.9191330  33.1541420
  24.5996530  47.7983310  33.3791780  25.8585920  46.9791120  33.1898860
  23.4321250  51.1252320  23.7508270  22.6583510  50.5849940  23.5906990
  24.1615880  50.6058930  23.4126030  34.1909230  50.1217680  29.5434660
  34.9108350  50.6172970  29.1530770  33.9891050  49.4435570  28.8988530
  29.6519170  41.5155640  23.6864050  28.8383780  41.0168810  23.6109360
  29.4581120  42.3553890  23.2700400  29.5728030  50.1926740  35.4303660
  29.5065340  49.2722410  35.1761250  28.9433170  50.2902180  36.1448300
  32.3667560  45.8875290  21.9826210  33.2547180  46.1992520  21.8077550
  32.3372650  45.0147540  21.5906790  23.4758650  50.7932700  27.3887080
  23.9937320  49.9900960  27.3343970  23.0242670  50.7311840  28.2303910
  28.3628150  52.0598980  22.6614380  28.7043850  52.8041210  22.1657700
  27.5340860  52.3730100  23.0239210  20.9603190  47.7594070  34.3012780
  20.6018130  48.4247920  34.8886120  20.6657750  46.9277620  34.6725400
  24.1616310  48.2178310  37.1852330  23.8616450  48.3635490  36.2880150
  24.9327550  47.6583600  37.0925720  29.5044760  53.0147310  35.1807460
  29.5189300  52.0828270  34.9626370  28.7969860  53.1007070  35.8197230
  34.6381830  47.1987130  21.4506070  34.5545550  47.6301350  20.6002510
  35.3576020  47.6585480  21.8832890  35.7155970  49.6554650  34.5276040
  34.9904160  50.2483430  34.3305430  36.2431430  49.6478190  33.7289410
  35.6669080  54.0529390  24.1788200  35.0245240  53.3985010  24.4531920
  35.2799740  54.4584480  23.4028870  31.2455560  51.3814820  28.0259890
  31.5979380  50.7842950  27.3661260  30.3617890  51.0559050  28.1968140
  27.3318840  52.1412510  25.4330300  28.0189970  52.6881720  25.8137890
  26.5451260  52.6853240  25.4679910  19.4711240  47.7585330  20.9247380
  20.3406090  48.0410130  21.2083300  18.9801560  48.5721200  20.8096190
  26.6346050  49.1458540  25.0455660  27.0908830  49.9563790  25.2715850
  26.2834260  48.8281680  25.8774150  28.9378660  54.6564880  32.2747960
  29.5820880  54.8624260  32.9521380  29.3008100  53.8953280  31.8218810
  22.5357830  39.4896190  25.5178180  22.4072460  39.4814090  26.4663100
  21.7119850  39.8279280  25.1669190  30.2110740  52.6597230  30.9925410
  30.8532970  51.9590390  31.1057580  30.7360090  53.4395670  30.8122300
  34.0566460  52.9445850  20.7164550  33.8304040  52.2276290  21.3089190
  33.6662660  52.6958290  19.8786300  31.9848360  53.4592130  34.1961470
  32.3204600  54.0458820  34.8739390  31.0648700  53.3284840  34.4259260
  19.8382490  56.9712710  21.4909010  20.1980130  57.5702050  20.8366280
  19.6974830  57.5172600  22.2644040  19.5351760  41.2487310  34.9784880
  18.8210280  41.4484230  35.5837490  19.9546800  40.4726880  35.3499680
  33.6382710  50.8617790  22.3778710  33.3504410  51.3230480  23.1656590
  34.4334880  50.4015560  22.6462930  19.8224350  55.2367570  35.9651410
  19.9315470  54.2962310  35.8246800  19.1704910  55.5022320  35.3165140
  27.8136940  53.5083460  37.3649530  27.4933810  52.7892700  37.9095220
  27.1395300  54.1838530  37.4385590  25.8551110  54.3543910  22.3082680
  25.8461210  55.0873600  21.6927190  24.9349470  54.1075490  22.4009640
  21.4557750  49.5758800  23.0529440  20.8485700  50.3157700  23.0624740
  21.9307100  49.6658160  22.2267640  31.0290540  43.7409620  32.7286330
  31.3971360  42.9204830  33.0565900  30.1688740  43.8011510  33.1441980
  34.3952570  42.6966560  23.5373890  33.7665730  42.8012230  22.8232120
  33.9004490  42.9163340  24.3267770  28.8410710  54.4172150  20.9707870
  28.9422690  54.2136140  20.0409850  27.9412450  54.1630430  21.1755650
  26.3636600  44.9752510  24.9531770  25.6552750  45.4438850  25.3945380
  26.6481080  44.3174520  25.5876960  27.9892530  46.3949210  32.9524300
  28.4877780  46.8695030  33.6176150  28.1315480  45.4712730  33.1594330
  30.3952030  41.7003170  26.3927560  30.2719810  41.7189300  25.4437070
  31.3436590  41.7482110  26.5125960  27.4828820  56.9358470  25.6655540
  27.7370320  56.8979860  24.7434910  26.5341300  56.8091800  25.6583790
  24.5671620  43.2837590  22.3282480  25.4162150  43.7207740  22.2622670
  24.2002890  43.5957850  23.1554540  35.1959390  42.6117170  33.7952690
  34.6932990  43.3522570  34.1346500  36.0116050  43.0001170  33.4789480
  33.4881400  47.8550350  27.2414050  32.5471540  47.8700580  27.4161740
  33.8025470  47.0686310  27.6874350  23.4663040  49.5369950  20.8018010
  24.2326310  49.4251310  21.3643440  23.5437730  48.8407920  20.1494780
  22.1609800  46.9695020  21.4850900  22.2413390  46.0222530  21.5968300
  23.0529550  47.3001900  21.5911560  22.9624510  57.1190410  28.5885440
  23.6986990  56.5705870  28.8594010  23.3465430  57.9846420  28.4491430
  19.8469990  53.1863980  24.4626950  18.9209770  53.4285120  24.4532360
  20.3126420  54.0138240  24.3411700  21.9682790  56.3036480  37.7771020
  22.7695520  56.6248530  38.1906420  21.4534610  55.9432060  38.4990930
  26.0726820  56.2920720  20.4111010  26.8655430  56.5809550  19.9592800
  25.5531170  55.8612890  19.7323490  30.8047420  52.4116350  37.7246430
  30.1985580  52.4347950  36.9842180  30.5001530  51.6799390  38.2613680
  32.2347790  56.1396640  36.3355840  33.1869540  56.0554660  36.2856080
  32.0876010  56.8038350  37.0089630  35.1256990  55.5190850  21.8347750
  34.8398500  55.1055990  21.0201930  34.9276540  56.4478560  21.7148270
  19.6880600  48.7909940  36.7207070  20.1919620  48.2117220  37.2923300
  18.9488020  49.0750170  37.2583440  26.5904220  51.5124130  20.2753360
  26.4854860  50.8976480  21.0014740  26.4228440  50.9890020  19.4916370
  26.7418540  50.1980930  36.2542590  25.9764210  50.7665930  36.1697260
  26.9234500  49.9057140  35.3610820  29.8306950  50.5744160  20.8795350
  29.2817050  51.0213460  21.5238090  30.4526210  50.0693410  21.4033020
  33.8841890  51.9286260  36.8117610  34.6251360  52.2662020  36.3085070
  33.1214570  52.0978320  36.2587380  21.7203680  46.9339530  37.6157140
  21.7609020  46.6353400  38.5242370  22.5749180  47.3347140  37.4564660
  25.4982070  49.5335080  22.7760650  25.9198490  49.3674950  23.6192040
  25.6232910  48.7235310  22.2815790  23.6609490  45.5131630  35.5831630
  23.1305950  45.0222580  34.9554970  24.3297560  45.9415830  35.0489560
  28.0109710  48.5572690  20.0237750  28.5315370  47.8421710  19.6578900
  28.6578110  49.1958560  20.3238260  32.5587550  49.9801090  35.3472820
  32.9728570  50.1346170  36.1963240  31.6238550  50.1056310  35.5098600
  33.0309720  47.3197250  37.3511970  33.6130490  46.5649570  37.2632450
  33.2071490  47.8504690  36.5743450  24.1481790  42.4794000  35.6628920
  24.0538660  41.8614750  34.9379790  23.5679180  43.2060290  35.4358830
  26.9143230  41.0367240  32.6956310  26.4660530  41.0591500  31.8501860
  26.2808430  40.6386260  33.2926610  27.3202780  49.9321570  33.3168750
  27.7390890  50.7754300  33.1444990  26.4011410  50.0693610  33.0875530
  29.6566680  47.6637750  34.7006590  29.7762890  47.0678890  35.4401430
  30.5160680  47.7007440  34.2807890  31.9954580  48.2174940  33.2769100
  31.4689800  48.7417560  32.6734240  32.3385920  48.8502330  33.9078830
  24.3940970  45.6068310  19.7218810  24.1930030  44.7435670  20.0832150
  24.2233020  45.5201670  18.7840410  25.1710200  56.2374580  34.4326480
  24.6331290  56.9620640  34.1135180  25.4244160  55.7604920  33.6423820
  26.4235450  44.2059100  35.9582410  27.0135140  43.8974950  36.6460230
  25.6055690  43.7338850  36.1142310  31.2428880  43.8224910  36.1915430
  30.5544400  43.1606450  36.1265420  31.9634900  43.3763180  36.6363890
  31.8729280  40.4176540  22.2505690  32.1531570  39.5744440  22.6065110
  31.0995010  40.6499650  22.7644440  23.1923770  42.7068930  19.7096690
  23.4949670  42.7136360  18.8015840  23.9318360  42.3566790  20.2064350
  28.0272410  57.4725790  34.6913130  27.9531110  58.3760930  34.9985500
  27.1251250  57.1537690  34.6635200  26.4108700  41.6503550  20.6952890
  26.0630700  40.9727540  20.1155340  26.6121470  41.1893060  21.5096280
  28.5757740  56.6384300  22.3139490  29.4708530  56.9769270  22.3358250
  28.6075370  55.9163710  21.6863770  22.2153900  52.0111350  20.5426490
  22.6528770  52.5541020  21.1984070  22.7001630  51.1858300  20.5522830
  19.4299700  54.8000380  27.9946750  19.7602710  53.9321440  27.7625390
  19.8590700  55.0058900  28.8251710  24.0261620  53.1309390  25.6548720
  23.7257160  53.0074360  26.5552630  23.9199110  52.2717980  25.2464450
  19.9189910  55.6670970  30.7328380  19.4820900  55.8471770  31.5652530
  20.4867590  56.4245590  30.5910100  35.5552090  55.1687970  35.0205690
  34.9554080  55.2280530  34.2769610  35.6845990  54.2292950  35.1502540
  36.7953540  52.9105790  20.3575400  35.9646500  52.9782440  20.8282630
  36.9725370  53.8009910  20.0542260  36.2510000  49.6553270  22.8609600
  37.0128910  50.2249920  22.9669290  36.2664370  49.0880470  23.6317910
  19.7514340  48.1791200  27.0917260  19.0963180  47.9102840  26.4476960
  20.5892290  48.0695680  26.6419240  37.2569970  50.5103370  27.7051530
  37.6278800  49.7270690  27.2987500  37.8971900  51.1992470  27.5268830
  34.2403730  51.8939950  33.1181850  33.4263570  52.3237110  33.3807640
  34.6477930  52.5058360  32.5050900  36.3029170  49.9487640  20.0182120
  36.5778010  50.8566520  19.8901340  36.1139910  49.8850170  20.9544110
  32.7004780  42.9732490  21.3135750  33.1189660  42.7863470  20.4732410
  32.3940840  42.1211540  21.6238680  36.1994510  47.8856630  25.0111550
  35.8238110  47.1184560  24.5792840  35.4697630  48.2679330  25.4986480
  20.7890270  48.5643770  31.6320600  21.1563310  48.4771170  32.5116620
  20.2201090  47.8010320  31.5327460  35.5894130  47.0328150  34.6451070
  35.3580220  46.8040900  33.7449020  35.8498680  47.9527700  34.5995960
  20.3406270  45.4752860  35.5379020  19.4462320  45.4419620  35.8772730
  20.8803820  45.6739650  36.3030270  18.9652420  45.3890130  23.0342590
  18.0616500  45.6520330  22.8594250  19.4493040  45.6601300  22.2542550
  35.4745470  46.1114120  28.3118790  35.9982950  45.6176770  27.6808960
  36.0604890  46.2464480  29.0566360  35.6535190  46.1953990  31.8338340
  34.7037900  46.1617530  31.9483330  35.8348200  47.1054100  31.5988110
  21.5079630  44.4455670  20.9436970  22.2171330  44.0238890  20.4584250
  20.7919570  44.5130900  20.3120320  21.1553790  40.4995000  19.9839620
  21.8781920  41.0403940  20.3020840  21.4278310  40.2258420  19.1081160
  34.9645440  45.3687470  24.2511200  35.4604560  45.1358340  25.0360080
  34.7661510  44.5299310  23.8348840  20.8445980  39.7501190  29.8862240
  21.4922170  39.1998570  29.4457400  21.2647820  40.0044340  30.7078050
  36.3932600  44.0048420  26.7848880  36.2831880  43.8504460  27.7231150
  37.1540190  43.4769360  26.5424290  34.7398320  39.9442550  33.2431880
  35.3770540  40.5576690  33.6091070  34.8873210  39.9803210  32.2981110
  37.2822870  41.8356340  20.0255020  38.2072180  41.7037520  19.8173310
  37.2598660  41.9149160  20.9791470  37.3561360  42.6067000  22.6511730
  36.5612860  42.5412120  23.1804640  37.5604640  43.5417640  22.6397080
  34.2979780  56.6458550  26.6450120  34.8938850  56.3243120  25.9684540
  34.5557930  56.1730370  27.4363390  20.5977980  39.9056860  32.6287560
  20.2492800  40.3620680  33.3945740  20.2665680  39.0113990  32.7109990
  22.2042350  53.0776460  36.7940750  22.1611980  52.7069370  37.6755210
  22.3353360  54.0154030  36.9342570  25.9048380  54.6336050  32.3950470
  25.6639740  54.9010610  31.5080990  26.8451020  54.8041780  32.4501330
  28.1102800  41.0968740  36.1506980  28.0491690  41.6890570  36.9002390
  29.0503180  40.9894700  36.0057240  30.7477360  40.7538800  35.7899270
  31.3617770  41.0718090  35.1280350  31.2926920  40.2687390  36.4095130
  21.2698620  39.4333060  35.9038330  21.8181610  39.2521110  35.1404440
  21.3353930  38.6427170  36.4394640  22.0430380  56.0238710  33.9138530
  21.4490700  55.8923410  34.6528570  22.0354220  55.1876850  33.4480630
  31.4885400  39.3170940  32.1168560  30.6145240  39.6506050  31.9141490
  31.3796150  38.8444120  32.9420430  32.3957380  41.5241810  33.5010280
  32.0670740  40.7093570  33.1212010  33.3439680  41.4811620  33.3775970
  21.6742610  53.3897090  32.8646570  20.9476670  52.7702380  32.7972520
  21.7351760  53.7837700  31.9944650  25.2787710  55.6042090  29.6495980
  25.7952730  54.9929450  29.1244240  25.9285090  56.1070870  30.1406990
  28.0183210  56.4950580  30.4764960  28.3061020  56.2404880  29.5997970
  28.5306430  55.9427940  31.0670530  29.2360220  40.2340780  31.0561470
  28.4532010  40.7086280  31.3358230  28.9423150  39.3295610  30.9474650
  33.7881290  40.9363880  29.1010560  34.2289380  40.8808980  28.2532160
  33.5188880  41.8521890  29.1720740  35.6519860  40.5679120  27.1119380
  35.5908260  39.6240340  26.9650400  36.4311890  40.6759210  27.6572840
  19.9572610  56.7071480  26.0743330  19.7894650  56.0742160  26.7725220
  19.0907120  56.9130880  25.7237520  20.5800630  40.5388260  23.5775190
  21.3379990  40.6517140  23.0039220  20.1177800  41.3757460  23.5318620
  27.1214440  42.6527530  26.5677500  26.3088950  42.2784420  26.2273380
  27.6256080  41.8972610  26.8698690  31.6239420  39.3169980  27.8060570
  32.2268790  39.8890190  28.2809090  30.8832410  39.8809420  27.5834470
  34.7674020  39.7191540  23.0800850  34.9624650  40.6174990  23.3468280
  33.9803890  39.4878620  23.5733800  21.5635310  55.4004710  23.5193470
  21.0382930  55.7812740  22.8155430  21.4879890  56.0255480  24.2403180
  22.9525780  41.0652310  22.1177160  23.4818540  40.2782110  21.9885110
  23.5854100  41.7443500  22.3512690  25.1463620  40.8027450  25.1722550
  24.5166360  40.1014760  25.3392680  24.6068760  41.5631580  24.9555710
  28.0855570  57.4166680  37.8433160  29.0122880  57.1810950  37.8869120
  28.0706000  58.2438680  37.3619190  36.3200630  56.9592250  24.8407410
  36.4952820  56.2729990  24.1968330  35.6222200  57.4839300  24.4484080
  25.2719180  40.0811430  37.6075040  24.9903450  40.5845030  36.8435860
  25.6538880  39.2833180  37.2417170  24.1628280  57.3487090  22.3942720
  24.8947100  57.0646370  21.8466610  24.4221950  57.1100370  23.2842100
  23.3243070  53.4651820  22.3989050  22.6951950  53.9336920  22.9474880
  23.4390900  52.6201040  22.8335240  31.8734640  39.4965010  38.1855510
  31.7600090  39.8159620  39.0807030  32.6904380  39.8977520  37.8892790
  34.6533130  56.6436540  37.6674200  35.4458450  56.1485770  37.4600160
  34.9466280  57.3226680  38.2749810  30.7792790  47.5157480   8.5490250
  30.6986840  46.6012090   8.2781960  30.3657210  48.0124550   7.8429960
  28.9110830  49.2936500  10.4299520  28.1352930  48.8136940  10.7198090
  29.5623760  48.6142150  10.2555680  22.9276660  49.6056310  11.3075280
  22.0961540  49.3505020  11.7071790  23.5357640  49.6767080  12.0433200
  32.9318260  53.6996690   9.2098650  32.4699790  52.9283930   9.5385820
  33.7443810  53.7262760   9.7151100  22.9077920  53.6396400  11.5033300
  23.2105960  52.7494140  11.3243520  23.6521510  54.1966620  11.2755550
  21.3368610  44.5658200   5.0917670  20.4485310  44.9074170   4.9897550
  21.6209800  44.3658520   4.1998500  19.3001620  47.1663850  10.9757370
  19.8717730  46.3986050  10.9761010  19.3003160  47.4652610  10.0663980
  29.1581570  55.9854700   8.8302640  28.5393010  56.4412200   8.2597080
  30.0133350  56.1406160   8.4292340  28.3519820  51.9693690  10.4369680
  28.2828100  51.0283630  10.2758810  29.1139680  52.0595100  11.0092250
  20.5426490  42.5748210  12.7626300  20.3629330  41.6773960  13.0429060
  20.1406570  43.1220080  13.4373250  29.3824990  44.7764070  10.6638610
  29.7589810  43.9035950  10.5512280  29.2844500  45.1122770   9.7729050
  23.5130000  43.1489700   6.1256050  23.6196750  44.0493430   6.4324810
  22.6022360  43.1007670   5.8350700  33.1649110  42.2714510   7.5966950
  33.9858730  41.7811080   7.6392430  33.1983190  42.8612170   8.3498790
  21.1613160  45.0708710  11.3708640  21.8423270  45.3347080  11.9896040
  20.8461210  44.2309580  11.7046650  25.3537730  46.1176070  10.4581230
  25.8615950  46.6157040  11.0986250  25.8850970  45.3411270  10.2820590
  37.4548660  44.2881260  14.1610580  36.7500830  44.6762970  13.6425690
  37.7206580  44.9831550  14.7631510  23.6373830  40.7574630  14.7244650
  23.6392270  41.2747020  13.9190550  22.8078140  40.2804810  14.7014580
  30.0244920  50.8693940   6.2234550  29.4062190  51.3343390   5.6597270
  30.5368170  51.5621420   6.6404060  24.8876680  50.3969810  12.9018150
  24.5546060  51.0238730  13.5439220  25.0643360  50.9231690  12.1219820
  33.4010590  44.2114890  10.3694490  32.6966160  44.4999780  10.9497600
  33.7622750  45.0215000  10.0094050  23.3189160  42.4684590  12.7315100
  23.6605970  43.3126640  12.4368970  22.3804970  42.6168330  12.8480440
  24.0995780  52.3650610  14.7167330  24.7169780  53.0401690  14.4351780
  23.2388900  52.7738590  14.6254830  19.3928120  51.5550470   3.5974180
  19.0156100  52.0437570   2.8659080  19.6501190  52.2275750   4.2280710
  35.0173370  53.8290020  12.6321970  34.3336890  54.4989130  12.6238640
  35.5567660  54.0270670  11.8666830  36.4697510  43.6569680  10.7603700
  35.5222420  43.6908660  10.8919130  36.7947500  44.4708630  11.1453060
  27.0017050  39.9566860   9.0559690  27.3092030  39.4013750   8.3395190
  26.0717750  40.0911320   8.8732680  32.5532110  55.6734150  11.3467150
  32.5659270  55.2696440  10.4789410  32.0007330  56.4481440  11.2428580
  33.8477530  52.3950370   6.4357320  33.7373860  51.4524700   6.5606740
  33.8445780  52.7566010   7.3220080  31.9517550  50.5763990  12.6749760
  32.3686340  50.3624100  11.8403220  32.6757370  50.8336780  13.2458380
  29.3897810  48.0215690   5.7919810  28.4627090  47.9553070   6.0208280
  29.5422630  48.9595820   5.6775050  29.3766890  44.2932690   2.7886970
  28.4370560  44.4546650   2.8739430  29.6950150  45.0118370   2.2422960
  35.8979650  48.9751210  12.7666000  35.0698280  49.0444300  12.2916130
  36.4930130  49.5605520  12.2981830  33.4195100  49.5835990   6.2955060
  32.8007520  49.2455540   5.6481360  33.4019550  48.9395750   7.0034250
  32.8621660  45.7620530  13.7120870  32.4492840  46.5874240  13.9660860
  32.1297610  45.1765570  13.5197230  24.9954450  48.5480430   8.5739540
  24.5911450  47.8357680   8.0785440  25.0817570  48.2033670   9.4627580
  25.4636150  52.2347990  10.7378750  25.1664440  51.6293460  10.0586530
  26.4135970  52.2725300  10.6268110  23.7083070  45.3223640  12.3538580
  24.2597660  45.4318980  11.5791830  24.2226580  45.6961240  13.0693810
  33.5521760  55.8079860  14.4001850  33.0752320  56.6152050  14.2074460
  32.8683550  55.1558190  14.5528060  24.5554580  51.9729680  17.3886550
  23.6583110  52.1969650  17.6359950  24.5807450  52.0964620  16.4397950
  31.5959800  48.8222800   3.3027810  32.0353080  47.9845230   3.1565630
  32.3088220  49.4552200   3.3891950  23.3825800  48.8443000  15.9643920
  23.2433570  49.7165800  16.3331320  22.5007160  48.5015810  15.8191860
  29.7055180  53.7618870   7.2709050  30.1451090  54.5043200   6.8564440
  29.6442070  54.0045440   8.1948010  25.1806150  54.7864700  18.1729070
  25.1521580  55.1907650  17.3057500  25.0171120  53.8575060  18.0100670
  21.6959080  47.4425410   6.0746190  21.5756680  48.1687500   5.4627460
  21.3859970  46.6728320   5.5974100  37.1320970  55.5691800  19.4693240
  37.6080690  56.0474690  20.1482320  37.7528130  55.5009290  18.7438740
  19.3344450  50.6140550  11.8814830  19.4124870  50.7489320  10.9370550
  19.9486130  49.9056440  12.0742950  20.5792080  52.3140740   8.2921010
  20.1720160  52.4555330   7.4374610  21.4705090  52.0300900   8.0892220
  36.5354220  52.7604650  16.6293250  36.6617280  52.5216530  15.7110430
  36.5775600  51.9289190  17.1015330  30.3970960  56.4632650  15.1988060
  30.9115630  56.3740660  16.0010490  29.5540040  56.8092350  15.4915970
  32.3725360  56.7487990   4.6272060  32.2126500  56.4590930   5.5253890
  32.2072070  55.9728120   4.0917290  24.8513740  56.5286520   6.4043680
  24.6756220  55.6122060   6.1911480  23.9969480  56.8873810   6.6441480
  32.0751490  54.2575550   3.1870060  31.3816650  54.2552840   2.5272340
  32.8174350  53.8334870   2.7564230  31.6401420  55.8838260   7.2618550
  32.0958370  55.1027640   7.5757170  31.9793940  56.5945080   7.8059730
  36.3878230  44.8137110  17.5942990  35.7722500  45.3216780  17.0658450
  36.0674650  43.9135440  17.5368930  19.3903970  51.6554720  14.4209290
  19.5535010  51.1860080  13.6028660  19.8556420  51.1478280  15.0858130
  24.1622740  40.7860480   9.4569860  23.7190890  41.5670020   9.1254380
  24.7207730  41.1090370  10.1640800  28.4492550  43.6529000  15.0605180
  27.9871920  43.8612020  15.8725120  28.0470660  42.8388350  14.7575850
  33.4497060  44.8737950  16.1901840  32.5990650  44.5743700  16.5110910
  33.2898850  45.1179960  15.2785660  30.5446770  46.3739700  18.2900630
  30.8700180  45.5403450  17.9502860  31.3327100  46.8968220  18.4378960
  27.2781560  40.4071180   4.3375690  26.6535740  40.4031050   5.0629000
  27.1911680  39.5402140   3.9411660  26.1998640  41.3307810  11.3159460
  26.4970970  42.2370640  11.2351480  26.7484200  40.8426590  10.7019030
  23.9536960  45.9094050   7.1851110  23.7277880  45.6931220   8.0897730
  23.1729490  46.3422510   6.8397080  31.1834720  45.9157420   5.7841760
  30.5843610  46.6393220   5.6005380  31.7314330  45.8534200   5.0018210
  26.3936170  46.8079630  17.8511380  26.2979770  45.8674360  17.7011780
  27.2368150  47.0294700  17.4559450  29.7899590  44.5520960   7.8145040
  30.1829160  44.8693160   7.0013730  30.1516440  43.6732840   7.9289560
  21.5246710  43.2193300  16.0045160  21.1310100  44.0668510  16.2117940
  20.8365110  42.5819670  16.1953800  28.0991760  43.3028270  19.0741900
  27.4090080  43.1100470  19.7087990  28.8424060  43.5862910  19.6066200
  18.8263760  41.1421760  10.0375240  18.5376810  41.7124620  10.7500220
  19.5709520  40.6626210  10.4006470  30.3754730  47.1426710  11.9095820
  29.6435850  47.6513520  12.2585920  29.9779070  46.3256690  11.6084600
  26.8132120  43.8180910  10.3148310  26.8168180  43.3770860   9.4652850
  27.7083240  44.1398240  10.4220130  22.6634500  43.7007400   9.2742520
  22.3234550  44.1782630  10.0309570  21.9011820  43.2472520   8.9143620
  26.8752270  44.8192990   3.3055070  26.9965090  44.7779470   4.2540890
  26.4900780  45.6817140   3.1501800  30.8380640  42.5960390  11.3218760
  30.8553380  43.0469040  12.1660610  30.5896220  41.6966030  11.5352200
  25.8873770  47.1294130   2.7038370  25.3190670  46.6812380   2.0774280
  26.5962770  47.4886910   2.1703520  34.2651390  40.0092570  17.1605140
  34.5897160  39.2782230  17.6863120  34.3007900  39.6906210  16.2586130
  20.9642950  51.0306150  16.5805100  20.5797740  50.3899820  17.1788060
  21.2755140  51.7342270  17.1499830  27.1140090  47.8782690  12.0613720
  27.4810220  47.4041260  12.8075060  26.9245150  48.7524260  12.4022060
  19.9780580  42.6226380   8.1907190  19.6927500  42.2582050   9.0285810
  19.9159440  41.8906840   7.5770330  24.9039460  46.9191330  14.3797930
  24.5996530  47.7983310  14.6048290  25.8585920  46.9791120  14.4155370
  23.4321250  51.1252320   4.9764780  22.6583510  50.5849940   4.8163500
  24.1615880  50.6058930   4.6382540  34.1909230  50.1217680  10.7691170
  34.9108350  50.6172970  10.3787280  33.9891050  49.4435570  10.1245040
  29.6519170  41.5155640   4.9120560  28.8383780  41.0168810   4.8365870
  29.4581120  42.3553890   4.4956910  29.5728030  50.1926740  16.6560170
  29.5065340  49.2722410  16.4017760  28.9433170  50.2902180  17.3704810
  32.3667560  45.8875290   3.2082720  33.2547180  46.1992520   3.0334060
  32.3372650  45.0147540   2.8163300  23.4758650  50.7932700   8.6143590
  23.9937320  49.9900960   8.5600480  23.0242670  50.7311840   9.4560420
  28.3628150  52.0598980   3.8870890  28.7043850  52.8041210   3.3914210
  27.5340860  52.3730100   4.2495720  20.9603190  47.7594070  15.5269290
  20.6018130  48.4247920  16.1142630  20.6657750  46.9277620  15.8981910
  24.1616310  48.2178310  18.4108840  23.8616450  48.3635490  17.5136660
  24.9327550  47.6583600  18.3182230  29.5044760  53.0147310  16.4063970
  29.5189300  52.0828270  16.1882880  28.7969860  53.1007070  17.0453740
  34.6381830  47.1987130   2.6762580  34.5545550  47.6301350   1.8259020
  35.3576020  47.6585480   3.1089400  35.7155970  49.6554650  15.7532550
  34.9904160  50.2483430  15.5561940  36.2431430  49.6478190  14.9545920
  35.6669080  54.0529390   5.4044710  35.0245240  53.3985010   5.6788430
  35.2799740  54.4584480   4.6285380  31.2455560  51.3814820   9.2516400
  31.5979380  50.7842950   8.5917770  30.3617890  51.0559050   9.4224650
  27.3318840  52.1412510   6.6586810  28.0189970  52.6881720   7.0394400
  26.5451260  52.6853240   6.6936420  19.4711240  47.7585330   2.1503890
  20.3406090  48.0410130   2.4339810  18.9801560  48.5721200   2.0352700
  26.6346050  49.1458540   6.2712170  27.0908830  49.9563790   6.4972360
  26.2834260  48.8281680   7.1030660  28.9378660  54.6564880  13.5004470
  29.5820880  54.8624260  14.1777890  29.3008100  53.8953280  13.0475320
  22.5357830  39.4896190   6.7434690  22.4072460  39.4814090   7.6919610
  21.7119850  39.8279280   6.3925700  30.2110740  52.6597230  12.2181920
  30.8532970  51.9590390  12.3314090  30.7360090  53.4395670  12.0378810
  31.9848360  53.4592130  15.4217980  32.3204600  54.0458820  16.0995900
  31.0648700  53.3284840  15.6515770  19.8382490  56.9712710   2.7165520
  20.1980130  57.5702050   2.0622790  19.6974830  57.5172600   3.4900550
  19.5351760  41.2487310  16.2041390  18.8210280  41.4484230  16.8094000
  19.9546800  40.4726880  16.5756190  33.6382710  50.8617790   3.6035220
  33.3504410  51.3230480   4.3913100  34.4334880  50.4015560   3.8719440
  19.8224350  55.2367570  17.1907920  19.9315470  54.2962310  17.0503310
  19.1704910  55.5022320  16.5421650  27.8136940  53.5083460  18.5906040
  27.4933810  52.7892700  19.1351730  27.1395300  54.1838530  18.6642100
  25.8551110  54.3543910   3.5339190  25.8461210  55.0873600   2.9183700
  24.9349470  54.1075490   3.6266150  21.4557750  49.5758800   4.2785950
  20.8485700  50.3157700   4.2881250  21.9307100  49.6658160   3.4524150
  31.0290540  43.7409620  13.9542840  31.3971360  42.9204830  14.2822410
  30.1688740  43.8011510  14.3698490  34.3952570  42.6966560   4.7630400
  33.7665730  42.8012230   4.0488630  33.9004490  42.9163340   5.5524280
  26.3636600  44.9752510   6.1788280  25.6552750  45.4438850   6.6201890
  26.6481080  44.3174520   6.8133470  27.9892530  46.3949210  14.1780810
  28.4877780  46.8695030  14.8432660  28.1315480  45.4712730  14.3850840
  30.3952030  41.7003170   7.6184070  30.2719810  41.7189300   6.6693580
  31.3436590  41.7482110   7.7382470  27.4828820  56.9358470   6.8912050
  27.7370320  56.8979860   5.9691420  26.5341300  56.8091800   6.8840300
  24.5671620  43.2837590   3.5538990  25.4162150  43.7207740   3.4879180
  24.2002890  43.5957850   4.3811050  35.1959390  42.6117170  15.0209200
  34.6932990  43.3522570  15.3603010  36.0116050  43.0001170  14.7045990
  33.4881400  47.8550350   8.4670560  32.5471540  47.8700580   8.6418250
  33.8025470  47.0686310   8.9130860  22.1609800  46.9695020   2.7107410
  22.2413390  46.0222530   2.8224810  23.0529550  47.3001900   2.8168070
  35.4906980  55.0259200  10.1424820  35.6154400  55.8490370  10.6148630
  36.3572540  54.8149930   9.7948970  22.9624510  57.1190410   9.8141950
  23.6986990  56.5705870  10.0850520  23.3465430  57.9846420   9.6747940
  19.8469990  53.1863980   5.6883460  18.9209770  53.4285120   5.6788870
  20.3126420  54.0138240   5.5668210  21.9682790  56.3036480  19.0027530
  22.7695520  56.6248530  19.4162930  21.4534610  55.9432060  19.7247440
  30.8047420  52.4116350  18.9502940  30.1985580  52.4347950  18.2098690
  30.5001530  51.6799390  19.4870190  32.2347790  56.1396640  17.5612350
  33.1869540  56.0554660  17.5112590  32.0876010  56.8038350  18.2346140
  35.1256990  55.5190850   3.0604260  34.8398500  55.1055990   2.2458440
  34.9276540  56.4478560   2.9404780  19.6880600  48.7909940  17.9463580
  20.1919620  48.2117220  18.5179810  18.9488020  49.0750170  18.4839950
  26.7418540  50.1980930  17.4799100  25.9764210  50.7665930  17.3953770
  26.9234500  49.9057140  16.5867330  29.8306950  50.5744160   2.1051860
  29.2817050  51.0213460   2.7494600  30.4526210  50.0693410   2.6289530
  33.8841890  51.9286260  18.0374120  34.6251360  52.2662020  17.5341580
  33.1214570  52.0978320  17.4843890  21.7203680  46.9339530  18.8413650
  21.7609020  46.6353400  19.7498880  22.5749180  47.3347140  18.6821170
  25.4982070  49.5335080   4.0017160  25.9198490  49.3674950   4.8448550
  25.6232910  48.7235310   3.5072300  23.6609490  45.5131630  16.8088140
  23.1305950  45.0222580  16.1811480  24.3297560  45.9415830  16.2746070
  32.5587550  49.9801090  16.5729330  32.9728570  50.1346170  17.4219750
  31.6238550  50.1056310  16.7355110  33.0309720  47.3197250  18.5768480
  33.6130490  46.5649570  18.4888960  33.2071490  47.8504690  17.7999960
  24.1481790  42.4794000  16.8885430  24.0538660  41.8614750  16.1636300
  23.5679180  43.2060290  16.6615340  26.9143230  41.0367240  13.9212820
  26.4660530  41.0591500  13.0758370  26.2808430  40.6386260  14.5183120
  27.3202780  49.9321570  14.5425260  27.7390890  50.7754300  14.3701500
  26.4011410  50.0693610  14.3132040  29.6566680  47.6637750  15.9263100
  29.7762890  47.0678890  16.6657940  30.5160680  47.7007440  15.5064400
  31.9954580  48.2174940  14.5025610  31.4689800  48.7417560  13.8990750
  32.3385920  48.8502330  15.1335340  25.1710200  56.2374580  15.6582990
  24.6331290  56.9620640  15.3391690  25.4244160  55.7604920  14.8680330
  26.4235450  44.2059100  17.1838920  27.0135140  43.8974950  17.8716740
  25.6055690  43.7338850  17.3398820  31.2428880  43.8224910  17.4171940
  30.5544400  43.1606450  17.3521930  31.9634900  43.3763180  17.8620400
  31.8729280  40.4176540   3.4762200  32.1531570  39.5744440   3.8321620
  31.0995010  40.6499650   3.9900950  28.0272410  57.4725790  15.9169640
  27.9531110  58.3760930  16.2242010  27.1251250  57.1537690  15.8891710
  28.5757740  56.6384300   3.5396000  29.4708530  56.9769270   3.5614760
  28.6075370  55.9163710   2.9120280  22.2153900  52.0111350   1.7683000
  22.6528770  52.5541020   2.4240580  22.7001630  51.1858300   1.7779340
  19.4299700  54.8000380   9.2203260  19.7602710  53.9321440   8.9881900
  19.8590700  55.0058900  10.0508220  24.0261620  53.1309390   6.8805230
  23.7257160  53.0074360   7.7809140  23.9199110  52.2717980   6.4720960
  19.9189910  55.6670970  11.9584890  19.4820900  55.8471770  12.7909040
  20.4867590  56.4245590  11.8166610  35.5552090  55.1687970  16.2462200
  34.9554080  55.2280530  15.5026120  35.6845990  54.2292950  16.3759050
  36.2510000  49.6553270   4.0866110  37.0128910  50.2249920   4.1925800
  36.2664370  49.0880470   4.8574420  19.7514340  48.1791200   8.3173770
  19.0963180  47.9102840   7.6733470  20.5892290  48.0695680   7.8675750
  37.2569970  50.5103370   8.9308040  37.6278800  49.7270690   8.5244010
  37.8971900  51.1992470   8.7525340  34.2403730  51.8939950  14.3438360
  33.4263570  52.3237110  14.6064150  34.6477930  52.5058360  13.7307410
  32.7004780  42.9732490   2.5392260  33.1189660  42.7863470   1.6988920
  32.3940840  42.1211540   2.8495190  36.1994510  47.8856630   6.2368060
  35.8238110  47.1184560   5.8049350  35.4697630  48.2679330   6.7242990
  20.7890270  48.5643770  12.8577110  21.1563310  48.4771170  13.7373130
  20.2201090  47.8010320  12.7583970  35.5894130  47.0328150  15.8707580
  35.3580220  46.8040900  14.9705530  35.8498680  47.9527700  15.8252470
  20.3406270  45.4752860  16.7635530  19.4462320  45.4419620  17.1029240
  20.8803820  45.6739650  17.5286780  34.0282200  42.2584580  18.6487280
  34.9052380  42.2667980  19.0321280  34.0403040  41.5215420  18.0379630
  18.9652420  45.3890130   4.2599100  18.0616500  45.6520330   4.0850760
  19.4493040  45.6601300   3.4799060  35.4745470  46.1114120   9.5375300
  35.9982950  45.6176770   8.9065470  36.0604890  46.2464480  10.2822870
  35.6535190  46.1953990  13.0594850  34.7037900  46.1617530  13.1739840
  35.8348200  47.1054100  12.8244620  34.9645440  45.3687470   5.4767710
  35.4604560  45.1358340   6.2616590  34.7661510  44.5299310   5.0605350
  20.8445980  39.7501190  11.1118750  21.4922170  39.1998570  10.6713910
  21.2647820  40.0044340  11.9334560  36.3932600  44.0048420   8.0105390
  36.2831880  43.8504460   8.9487660  37.1540190  43.4769360   7.7680800
  34.7398320  39.9442550  14.4688390  35.3770540  40.5576690  14.8347580
  34.8873210  39.9803210  13.5237620  37.3561360  42.6067000   3.8768240
  36.5612860  42.5412120   4.4061150  37.5604640  43.5417640   3.8653590
  34.2979780  56.6458550   7.8706630  34.8938850  56.3243120   7.1941050
  34.5557930  56.1730370   8.6619900  20.5977980  39.9056860  13.8544070
  20.2492800  40.3620680  14.6202250  20.2665680  39.0113990  13.9366500
  22.2042350  53.0776460  18.0197260  22.1611980  52.7069370  18.9011720
  22.3353360  54.0154030  18.1599080  25.9048380  54.6336050  13.6206980
  25.6639740  54.9010610  12.7337500  26.8451020  54.8041780  13.6757840
  28.1102800  41.0968740  17.3763490  28.0491690  41.6890570  18.1258900
  29.0503180  40.9894700  17.2313750  30.7477360  40.7538800  17.0155780
  31.3617770  41.0718090  16.3536860  31.2926920  40.2687390  17.6351640
  37.1652540  56.6530430  14.4217620  36.6710820  57.0499300  13.7044750
  36.5565830  56.0279640  14.8154900  21.2698620  39.4333060  17.1294840
  21.8181610  39.2521110  16.3660950  21.3353930  38.6427170  17.6651150
  22.0430380  56.0238710  15.1395040  21.4490700  55.8923410  15.8785080
  22.0354220  55.1876850  14.6737140  31.4885400  39.3170940  13.3425070
  30.6145240  39.6506050  13.1398000  31.3796150  38.8444120  14.1676940
  32.3957380  41.5241810  14.7266790  32.0670740  40.7093570  14.3468520
  33.3439680  41.4811620  14.6032480  34.8491990  57.2953850  11.7004360
  34.3894960  58.0469660  11.3262380  34.2204450  56.5760320  11.6419160
  21.6742610  53.3897090  14.0903080  20.9476670  52.7702380  14.0229030
  21.7351760  53.7837700  13.2201160  25.2787710  55.6042090  10.8752490
  25.7952730  54.9929450  10.3500750  25.9285090  56.1070870  11.3663500
  28.0183210  56.4950580  11.7021470  28.3061020  56.2404880  10.8254480
  28.5306430  55.9427940  12.2927040  29.2360220  40.2340780  12.2817980
  28.4532010  40.7086280  12.5614740  28.9423150  39.3295610  12.1731160
  33.7881290  40.9363880  10.3267070  34.2289380  40.8808980   9.4788670
  33.5188880  41.8521890  10.3977250  35.6519860  40.5679120   8.3375890
  35.5908260  39.6240340   8.1906910  36.4311890  40.6759210   8.8829350
  19.9572610  56.7071480   7.2999840  19.7894650  56.0742160   7.9981730
  19.0907120  56.9130880   6.9494030  20.5800630  40.5388260   4.8031700
  21.3379990  40.6517140   4.2295730  20.1177800  41.3757460   4.7575130
  27.1214440  42.6527530   7.7934010  26.3088950  42.2784420   7.4529890
  27.6256080  41.8972610   8.0955200  31.6239420  39.3169980   9.0317080
  32.2268790  39.8890190   9.5065600  30.8832410  39.8809420   8.8090980
  34.7674020  39.7191540   4.3057360  34.9624650  40.6174990   4.5724790
  33.9803890  39.4878620   4.7990310  21.5635310  55.4004710   4.7449980
  21.0382930  55.7812740   4.0411940  21.4879890  56.0255480   5.4659690
  22.9525780  41.0652310   3.3433670  23.4818540  40.2782110   3.2141620
  23.5854100  41.7443500   3.5769200  25.1463620  40.8027450   6.3979060
  24.5166360  40.1014760   6.5649190  24.6068760  41.5631580   6.1812220
  28.0855570  57.4166680  19.0689670  29.0122880  57.1810950  19.1125630
  28.0706000  58.2438680  18.5875700  36.3200630  56.9592250   6.0663920
  36.4952820  56.2729990   5.4224840  35.6222200  57.4839300   5.6740590
  25.2719180  40.0811430  18.8331550  24.9903450  40.5845030  18.0692370
  25.6538880  39.2833180  18.4673680  24.1628280  57.3487090   3.6199230
  24.8947100  57.0646370   3.0723120  24.4221950  57.1100370   4.5098610
  23.3243070  53.4651820   3.6245560  22.6951950  53.9336920   4.1731390
  23.4390900  52.6201040   4.0591750  31.8734640  39.4965010  19.4112020
  31.7600090  39.8159620  20.3063540  32.6904380  39.8977520  19.1149300
  34.6533130  56.6436540  18.8930710  35.4458450  56.1485770  18.6856670
  34.9466280  57.3226680  19.5006320  30.7792790  28.7413990 139.9694680
  30.6986840  27.8268600 139.6986390  30.3657210  29.2381060 139.2634390
  28.9110830  30.5193010 141.8503950  28.1352930  30.0393450 142.1402520
  29.5623760  29.8398660 141.6760110  22.9276660  30.8312820 142.7279710
  22.0961540  30.5761530 143.1276220  23.5357640  30.9023590 143.4637630
  32.9318260  34.9253200 140.6303080  32.4699790  34.1540440 140.9590250
  33.7443810  34.9519270 141.1355530  22.9077920  34.8652910 142.9237730
  23.2105960  33.9750650 142.7447950  23.6521510  35.4223130 142.6959980
  21.3368610  25.7914710 136.5122100  20.4485310  26.1330680 136.4101980
  21.6209800  25.5915030 135.6202930  19.3001620  28.3920360 142.3961800
  19.8717730  27.6242560 142.3965440  19.3003160  28.6909120 141.4868410
  29.1581570  37.2111210 140.2507070  28.5393010  37.6668710 139.6801510
  30.0133350  37.3662670 139.8496770  28.3519820  33.1950200 141.8574110
  28.2828100  32.2540140 141.6963240  29.1139680  33.2851610 142.4296680
  20.5426490  23.8004720 144.1830730  20.3629330  22.9030470 144.4633490
  20.1406570  24.3476590 144.8577680  29.3824990  26.0020580 142.0843040
  29.7589810  25.1292460 141.9716710  29.2844500  26.3379280 141.1933480
  23.5130000  24.3746210 137.5460480  23.6196750  25.2749940 137.8529240
  22.6022360  24.3264180 137.2555130  33.1649110  23.4971020 139.0171380
  33.9858730  23.0067590 139.0596860  33.1983190  24.0868680 139.7703220
  21.1613160  26.2965220 142.7913070  21.8423270  26.5603590 143.4100470
  20.8461210  25.4566090 143.1251080  25.3537730  27.3432580 141.8785660
  25.8615950  27.8413550 142.5190680  25.8850970  26.5667780 141.7025020
  37.4548660  25.5137770 145.5815010  36.7500830  25.9019480 145.0630120
  37.7206580  26.2088060 146.1835940  23.6373830  21.9831140 146.1449080
  23.6392270  22.5003530 145.3394980  22.8078140  21.5061320 146.1219010
  30.0244920  32.0950450 137.6438980  29.4062190  32.5599900 137.0801700
  30.5368170  32.7877930 138.0608490  24.8876680  31.6226320 144.3222580
  24.5546060  32.2495240 144.9643650  25.0643360  32.1488200 143.5424250
  33.4010590  25.4371400 141.7898920  32.6966160  25.7256290 142.3702030
  33.7622750  26.2471510 141.4298480  23.3189160  23.6941100 144.1519530
  23.6605970  24.5383150 143.8573400  22.3804970  23.8424840 144.2684870
  24.0995780  33.5907120 146.1371760  24.7169780  34.2658200 145.8556210
  23.2388900  33.9995100 146.0459260  19.3928120  32.7806980 135.0178610
  19.0156100  33.2694080 134.2863510  19.6501190  33.4532260 135.6485140
  35.0173370  35.0546530 144.0526400  34.3336890  35.7245640 144.0443070
  35.5567660  35.2527180 143.2871260  36.4697510  24.8826190 142.1808130
  35.5222420  24.9165170 142.3123560  36.7947500  25.6965140 142.5657490
  27.0017050  21.1823370 140.4764120  27.3092030  20.6270260 139.7599620
  26.0717750  21.3167830 140.2937110  32.5532110  36.8990660 142.7671580
  32.5659270  36.4952950 141.8993840  32.0007330  37.6737950 142.6633010
  33.8477530  33.6206880 137.8561750  33.7373860  32.6781210 137.9811170
  33.8445780  33.9822520 138.7424510  31.9517550  31.8020500 144.0954190
  32.3686340  31.5880610 143.2607650  32.6757370  32.0593290 144.6662810
  29.3897810  29.2472200 137.2124240  28.4627090  29.1809580 137.4412710
  29.5422630  30.1852330 137.0979480  29.3766890  25.5189200 134.2091400
  28.4370560  25.6803160 134.2943860  29.6950150  26.2374880 133.6627390
  35.8979650  30.2007720 144.1870430  35.0698280  30.2700810 143.7120560
  36.4930130  30.7862030 143.7186260  33.4195100  30.8092500 137.7159490
  32.8007520  30.4712050 137.0685790  33.4019550  30.1652260 138.4238680
  32.8621660  26.9877040 145.1325300  32.4492840  27.8130750 145.3865290
  32.1297610  26.4022080 144.9401660  24.9954450  29.7736940 139.9943970
  24.5911450  29.0614190 139.4989870  25.0817570  29.4290180 140.8832010
  25.4636150  33.4604500 142.1583180  25.1664440  32.8549970 141.4790960
  26.4135970  33.4981810 142.0472540  23.7083070  26.5480150 143.7743010
  24.2597660  26.6575490 142.9996260  24.2226580  26.9217750 144.4898240
  33.5521760  37.0336370 145.8206280  33.0752320  37.8408560 145.6278890
  32.8683550  36.3814700 145.9732490  24.5554580  33.1986190 148.8090980
  23.6583110  33.4226160 149.0564380  24.5807450  33.3221130 147.8602380
  31.5959800  30.0479310 134.7232240  32.0353080  29.2101740 134.5770060
  32.3088220  30.6808710 134.8096380  23.3825800  30.0699510 147.3848350
  23.2433570  30.9422310 147.7535750  22.5007160  29.7272320 147.2396290
  29.7055180  34.9875380 138.6913480  30.1451090  35.7299710 138.2768870
  29.6442070  35.2301950 139.6152440  25.1806150  36.0121210 149.5933500
  25.1521580  36.4164160 148.7261930  25.0171120  35.0831570 149.4305100
  35.1776940  21.3022120 133.0373280  34.8649600  21.3948950 133.9372350
  35.9389410  21.8803150 132.9870710  21.6959080  28.6681920 137.4950620
  21.5756680  29.3944010 136.8831890  21.3859970  27.8984830 137.0178530
  19.3344450  31.8397060 143.3019260  19.4124870  31.9745830 142.3574980
  19.9486130  31.1312950 143.4947380  20.5792080  33.5397250 139.7125440
  20.1720160  33.6811840 138.8579040  21.4705090  33.2557410 139.5096650
  36.5354220  33.9861160 148.0497680  36.6617280  33.7473040 147.1314860
  36.5775600  33.1545700 148.5219760  30.3970960  37.6889160 146.6192490
  30.9115630  37.5997170 147.4214920  29.5540040  38.0348860 146.9120400
  32.3725360  37.9744500 136.0476490  32.2126500  37.6847440 136.9458320
  32.2072070  37.1984630 135.5121720  24.8513740  37.7543030 137.8248110
  24.6756220  36.8378570 137.6115910  23.9969480  38.1130320 138.0645910
  32.0751490  35.4832060 134.6074490  31.3816650  35.4809350 133.9476770
  32.8174350  35.0591380 134.1768660  31.6401420  37.1094770 138.6822980
  32.0958370  36.3284150 138.9961600  31.9793940  37.8201590 139.2264160
  36.3878230  26.0393620 149.0147420  35.7722500  26.5473290 148.4862880
  36.0674650  25.1391950 148.9573360  19.3903970  32.8811230 145.8413720
  19.5535010  32.4116590 145.0233090  19.8556420  32.3734790 146.5062560
  24.1622740  22.0116990 140.8774290  23.7190890  22.7926530 140.5458810
  24.7207730  22.3346880 141.5845230  28.4492550  24.8785510 146.4809610
  27.9871920  25.0868530 147.2929550  28.0470660  24.0644860 146.1780280
  33.4497060  26.0994460 147.6106270  32.5990650  25.8000210 147.9315340
  33.2898850  26.3436470 146.6990090  30.5446770  27.5996210 149.7105060
  30.8700180  26.7659960 149.3707290  31.3327100  28.1224730 149.8583390
  27.2781560  21.6327690 135.7580120  26.6535740  21.6287560 136.4833430
  27.1911680  20.7658650 135.3616090  26.1998640  22.5564320 142.7363890
  26.4970970  23.4627150 142.6555910  26.7484200  22.0683100 142.1223460
  23.9536960  27.1350560 138.6055540  23.7277880  26.9187730 139.5102160
  23.1729490  27.5679020 138.2601510  31.1834720  27.1413930 137.2046190
  30.5843610  27.8649730 137.0209810  31.7314330  27.0790710 136.4222640
  26.3936170  28.0336140 149.2715810  26.2979770  27.0930870 149.1216210
  27.2368150  28.2551210 148.8763880  29.7899590  25.7777470 139.2349470
  30.1829160  26.0949670 138.4218160  30.1516440  24.8989350 139.3493990
  21.5246710  24.4449810 147.4249590  21.1310100  25.2925020 147.6322370
  20.8365110  23.8076180 147.6158230  18.8263760  22.3678270 141.4579670
  18.5376810  22.9381130 142.1704650  19.5709520  21.8882720 141.8210900
  19.0133990  26.3098390 132.6682390  18.9308660  27.2529150 132.8097380
  18.6617050  26.1673300 131.7894740  30.3754730  28.3683220 143.3300250
  29.6435850  28.8770030 143.6790350  29.9779070  27.5513200 143.0289030
  26.8132120  25.0437420 141.7352740  26.8168180  24.6027370 140.8857280
  27.7083240  25.3654750 141.8424560  22.6634500  24.9263910 140.6946950
  22.3234550  25.4039140 141.4514000  21.9011820  24.4729030 140.3348050
  26.8752270  26.0449500 134.7259500  26.9965090  26.0035980 135.6745320
  26.4900780  26.9073650 134.5706230  30.8380640  23.8216900 142.7423190
  30.8553380  24.2725550 143.5865040  30.5896220  22.9222540 142.9556630
  25.8873770  28.3550640 134.1242800  25.3190670  27.9068890 133.4978710
  26.5962770  28.7143420 133.5907950  34.2651390  21.2349080 148.5809570
  34.5897160  20.5038740 149.1067550  34.3007900  20.9162720 147.6790560
  20.9642950  32.2562660 148.0009530  20.5797740  31.6156330 148.5992490
  21.2755140  32.9598780 148.5704260  27.1140090  29.1039200 143.4818150
  27.4810220  28.6297770 144.2279490  26.9245150  29.9780770 143.8226490
  19.9780580  23.8482890 139.6111620  19.6927500  23.4838560 140.4490240
  19.9159440  23.1163350 138.9974760  24.9039460  28.1447840 145.8002360
  24.5996530  29.0239820 146.0252720  25.8585920  28.2047630 145.8359800
  23.4321250  32.3508830 136.3969210  22.6583510  31.8106450 136.2367930
  24.1615880  31.8315440 136.0586970  34.1909230  31.3474190 142.1895600
  34.9108350  31.8429480 141.7991710  33.9891050  30.6692080 141.5449470
  29.6519170  22.7412150 136.3324990  28.8383780  22.2425320 136.2570300
  29.4581120  23.5810400 135.9161340  29.5728030  31.4183250 148.0764600
  29.5065340  30.4978920 147.8222190  28.9433170  31.5158690 148.7909240
  32.3667560  27.1131800 134.6287150  33.2547180  27.4249030 134.4538490
  32.3372650  26.2404050 134.2367730  23.4758650  32.0189210 140.0348020
  23.9937320  31.2157470 139.9804910  23.0242670  31.9568350 140.8764850
  28.3628150  33.2855490 135.3075320  28.7043850  34.0297720 134.8118640
  27.5340860  33.5986610 135.6700150  20.9603190  28.9850580 146.9473720
  20.6018130  29.6504430 147.5347060  20.6657750  28.1534130 147.3186340
  24.1616310  29.4434820 149.8313270  23.8616450  29.5892000 148.9341090
  24.9327550  28.8840110 149.7386660  29.5044760  34.2403820 147.8268400
  29.5189300  33.3084780 147.6087310  28.7969860  34.3263580 148.4658170
  34.6381830  28.4243640 134.0967010  34.5545550  28.8557860 133.2463450
  35.3576020  28.8841990 134.5293830  35.7155970  30.8811160 147.1736980
  34.9904160  31.4739940 146.9766370  36.2431430  30.8734700 146.3750350
  35.6669080  35.2785900 136.8249140  35.0245240  34.6241520 137.0992860
  35.2799740  35.6840990 136.0489810  31.2455560  32.6071330 140.6720830
  31.5979380  32.0099460 140.0122200  30.3617890  32.2815560 140.8429080
  27.3318840  33.3669020 138.0791240  28.0189970  33.9138230 138.4598830
  26.5451260  33.9109750 138.1140850  19.4711240  28.9841840 133.5708320
  20.3406090  29.2666640 133.8544240  18.9801560  29.7977710 133.4557130
  26.6346050  30.3715050 137.6916600  27.0908830  31.1820300 137.9176790
  26.2834260  30.0538190 138.5235090  28.9378660  35.8821390 144.9208900
  29.5820880  36.0880770 145.5982320  29.3008100  35.1209790 144.4679750
  22.5357830  20.7152700 138.1639120  22.4072460  20.7070600 139.1124040
  21.7119850  21.0535790 137.8130130  30.2110740  33.8853740 143.6386350
  30.8532970  33.1846900 143.7518520  30.7360090  34.6652180 143.4583240
  34.0566460  34.1702360 133.3625490  33.8304040  33.4532800 133.9550130
  33.6662660  33.9214800 132.5247240  31.9848360  34.6848640 146.8422410
  32.3204600  35.2715330 147.5200330  31.0648700  34.5541350 147.0720200
  19.8382490  38.1969220 134.1369950  20.1980130  38.7958560 133.4827220
  19.6974830  38.7429110 134.9104980  19.5351760  22.4743820 147.6245820
  18.8210280  22.6740740 148.2298430  19.9546800  21.6983390 147.9960620
  33.6382710  32.0874300 135.0239650  33.3504410  32.5486990 135.8117530
  34.4334880  31.6272070 135.2923870  19.8224350  36.4624080 148.6112350
  19.9315470  35.5218820 148.4707740  19.1704910  36.7278830 147.9626080
  25.8551110  35.5800420 134.9543620  25.8461210  36.3130110 134.3388130
  24.9349470  35.3332000 135.0470580  21.4557750  30.8015310 135.6990380
  20.8485700  31.5414210 135.7085680  21.9307100  30.8914670 134.8728580
  31.0290540  24.9666130 145.3747270  31.3971360  24.1461340 145.7026840
  30.1688740  25.0268020 145.7902920  34.3952570  23.9223070 136.1834830
  33.7665730  24.0268740 135.4693060  33.9004490  24.1419850 136.9728710
  28.8410710  35.6428660 133.6168810  28.9422690  35.4392650 132.6870790
  27.9412450  35.3886940 133.8216590  26.3636600  26.2009020 137.5992710
  25.6552750  26.6695360 138.0406320  26.6481080  25.5431030 138.2337900
  27.9892530  27.6205720 145.5985240  28.4877780  28.0951540 146.2637090
  28.1315480  26.6969240 145.8055270  30.3952030  22.9259680 139.0388500
  30.2719810  22.9445810 138.0898010  31.3436590  22.9738620 139.1586900
  27.4828820  38.1614980 138.3116480  27.7370320  38.1236370 137.3895850
  26.5341300  38.0348310 138.3044730  24.5671620  24.5094100 134.9743420
  25.4162150  24.9464250 134.9083610  24.2002890  24.8214360 135.8015480
  35.1959390  23.8373680 146.4413630  34.6932990  24.5779080 146.7807440
  36.0116050  24.2257680 146.1250420  33.4881400  29.0806860 139.8874990
  32.5471540  29.0957090 140.0622680  33.8025470  28.2942820 140.3335290
  23.4663040  30.7626460 133.4478950  24.2326310  30.6507820 134.0104380
  23.5437730  30.0664430 132.7955720  22.1609800  28.1951530 134.1311840
  22.2413390  27.2479040 134.2429240  23.0529550  28.5258410 134.2372500
  35.4906980  36.2515710 141.5629250  35.6154400  37.0746880 142.0353060
  36.3572540  36.0406440 141.2153400  22.9624510  38.3446920 141.2346380
  23.6986990  37.7962380 141.5054950  23.3465430  39.2102930 141.0952370
  19.8469990  34.4120490 137.1087890  18.9209770  34.6541630 137.0993300
  20.3126420  35.2394750 136.9872640  26.0726820  37.5177230 133.0571950
  26.8655430  37.8066060 132.6053740  25.5531170  37.0869400 132.3784430
  32.2347790  37.3653150 148.9816780  33.1869540  37.2811170 148.9317020
  32.0876010  38.0294860 149.6550570  35.1256990  36.7447360 134.4808690
  34.8398500  36.3312500 133.6662870  34.9276540  37.6735070 134.3609210
  19.6880600  30.0166450 149.3668010  20.1919620  29.4373730 149.9384240
  18.9488020  30.3006680 149.9044380  26.5904220  32.7380640 132.9214300
  26.4854860  32.1232990 133.6475680  26.4228440  32.2146530 132.1377310
  26.7418540  31.4237440 148.9003530  25.9764210  31.9922440 148.8158200
  26.9234500  31.1313650 148.0071760  29.8306950  31.8000670 133.5256290
  29.2817050  32.2469970 134.1699030  30.4526210  31.2949920 134.0493960
  33.8841890  33.1542770 149.4578550  34.6251360  33.4918530 148.9546010
  33.1214570  33.3234830 148.9048320  25.4982070  30.7591590 135.4221590
  25.9198490  30.5931460 136.2652980  25.6232910  29.9491820 134.9276730
  23.6609490  26.7388140 148.2292570  23.1305950  26.2479090 147.6015910
  24.3297560  27.1672340 147.6950500  28.0109710  29.7829200 132.6698690
  28.5315370  29.0678220 132.3039840  28.6578110  30.4215070 132.9699200
  32.5587550  31.2057600 147.9933760  32.9728570  31.3602680 148.8424180
  31.6238550  31.3312820 148.1559540  33.0309720  28.5453760 149.9972910
  33.6130490  27.7906080 149.9093390  33.2071490  29.0761200 149.2204390
  24.1481790  23.7050510 148.3089860  24.0538660  23.0871260 147.5840730
  23.5679180  24.4316800 148.0819770  26.9143230  22.2623750 145.3417250
  26.4660530  22.2848010 144.4962800  26.2808430  21.8642770 145.9387550
  27.3202780  31.1578080 145.9629690  27.7390890  32.0010810 145.7905930
  26.4011410  31.2950120 145.7336470  29.6566680  28.8894260 147.3467530
  29.7762890  28.2935400 148.0862370  30.5160680  28.9263950 146.9268830
  31.9954580  29.4431450 145.9230040  31.4689800  29.9674070 145.3195180
  32.3385920  30.0758840 146.5539770  24.3940970  26.8324820 132.3679750
  24.1930030  25.9692180 132.7293090  24.2233020  26.7458180 131.4301350
  25.1710200  37.4631090 147.0787420  24.6331290  38.1877150 146.7596120
  25.4244160  36.9861430 146.2884760  26.4235450  25.4315610 148.6043350
  27.0135140  25.1231460 149.2921170  25.6055690  24.9595360 148.7603250
  31.2428880  25.0481420 148.8376370  30.5544400  24.3862960 148.7726360
  31.9634900  24.6019690 149.2824830  31.8729280  21.6433050 134.8966630
  32.1531570  20.8000950 135.2526050  31.0995010  21.8756160 135.4105380
  23.1923770  23.9325440 132.3557630  23.4949670  23.9392870 131.4476780
  23.9318360  23.5823300 132.8525290  28.0272410  38.6982300 147.3374070
  27.9531110  39.6017440 147.6446440  27.1251250  38.3794200 147.3096140
  26.4108700  22.8760060 133.3413830  26.0630700  22.1984050 132.7616280
  26.6121470  22.4149570 134.1557220  28.5757740  37.8640810 134.9600430
  29.4708530  38.2025780 134.9819190  28.6075370  37.1420220 134.3324710
  22.2153900  33.2367860 133.1887430  22.6528770  33.7797530 133.8445010
  22.7001630  32.4114810 133.1983770  19.4299700  36.0256890 140.6407690
  19.7602710  35.1577950 140.4086330  19.8590700  36.2315410 141.4712650
  24.0261620  34.3565900 138.3009660  23.7257160  34.2330870 139.2013570
  23.9199110  33.4974490 137.8925390  19.9189910  36.8927480 143.3789320
  19.4820900  37.0728280 144.2113470  20.4867590  37.6502100 143.2371040
  35.5552090  36.3944480 147.6666630  34.9554080  36.4537040 146.9230550
  35.6845990  35.4549460 147.7963480  36.7953540  34.1362300 133.0036340
  35.9646500  34.2038950 133.4743570  36.9725370  35.0266420 132.7003200
  36.2510000  30.8809780 135.5070540  37.0128910  31.4506430 135.6130230
  36.2664370  30.3136980 136.2778850  19.7514340  29.4047710 139.7378200
  19.0963180  29.1359350 139.0937900  20.5892290  29.2952190 139.2880180
  37.2569970  31.7359880 140.3512470  37.6278800  30.9527200 139.9448440
  37.8971900  32.4248980 140.1729770  34.2403730  33.1196460 145.7642790
  33.4263570  33.5493620 146.0268580  34.6477930  33.7314870 145.1511840
  36.3029170  31.1744150 132.6643060  36.5778010  32.0823030 132.5362280
  36.1139910  31.1106680 133.6005050  32.7004780  24.1989000 133.9596690
  33.1189660  24.0119980 133.1193350  32.3940840  23.3468050 134.2699620
  36.1994510  29.1113140 137.6572490  35.8238110  28.3441070 137.2253780
  35.4697630  29.4935840 138.1447420  20.7890270  29.7900280 144.2781540
  21.1563310  29.7027680 145.1577560  20.2201090  29.0266830 144.1788400
  35.5894130  28.2584660 147.2912010  35.3580220  28.0297410 146.3909960
  35.8498680  29.1784210 147.2456900  20.3406270  26.7009370 148.1839960
  19.4462320  26.6676130 148.5233670  20.8803820  26.8996160 148.9491210
  18.9652420  26.6146640 135.6803530  18.0616500  26.8776840 135.5055190
  19.4493040  26.8857810 134.9003490  35.4745470  27.3370630 140.9579730
  35.9982950  26.8433280 140.3269900  36.0604890  27.4720990 141.7027300
  35.6535190  27.4210500 144.4799280  34.7037900  27.3874040 144.5944270
  35.8348200  28.3310610 144.2449050  21.5079630  25.6712180 133.5897910
  22.2171330  25.2495400 133.1045190  20.7919570  25.7387410 132.9581260
  21.1553790  21.7251510 132.6300560  21.8781920  22.2660450 132.9481780
  21.4278310  21.4514930 131.7542100  34.9645440  26.5943980 136.8972140
  35.4604560  26.3614850 137.6821020  34.7661510  25.7555820 136.4809780
  20.8445980  20.9757700 142.5323180  21.4922170  20.4255080 142.0918340
  21.2647820  21.2300850 143.3538990  36.3932600  25.2304930 139.4309820
  36.2831880  25.0760970 140.3692090  37.1540190  24.7025870 139.1885230
  34.7398320  21.1699060 145.8892820  35.3770540  21.7833200 146.2552010
  34.8873210  21.2059720 144.9442050  37.2822870  23.0612850 132.6715960
  38.2072180  22.9294030 132.4634250  37.2598660  23.1405670 133.6252410
  37.3561360  23.8323510 135.2972670  36.5612860  23.7668630 135.8265580
  37.5604640  24.7674150 135.2858020  34.2979780  37.8715060 139.2911060
  34.8938850  37.5499630 138.6145480  34.5557930  37.3986880 140.0824330
  20.5977980  21.1313370 145.2748500  20.2492800  21.5877190 146.0406680
  20.2665680  20.2370500 145.3570930  25.9048380  35.8592560 145.0411410
  25.6639740  36.1267120 144.1541930  26.8451020  36.0298290 145.0962270
  28.1102800  22.3225250 148.7967920  28.0491690  22.9147080 149.5463330
  29.0503180  22.2151210 148.6518180  30.7477360  21.9795310 148.4360210
  31.3617770  22.2974600 147.7741290  31.2926920  21.4943900 149.0556070
  37.1652540  37.8786940 145.8422050  36.6710820  38.2755810 145.1249180
  36.5565830  37.2536150 146.2359330  21.2698620  20.6589570 148.5499270
  21.8181610  20.4777620 147.7865380  21.3353930  19.8683680 149.0855580
  22.0430380  37.2495220 146.5599470  21.4490700  37.1179920 147.2989510
  22.0354220  36.4133360 146.0941570  31.4885400  20.5427450 144.7629500
  30.6145240  20.8762560 144.5602430  31.3796150  20.0700630 145.5881370
  32.3957380  22.7498320 146.1471220  32.0670740  21.9350080 145.7672950
  33.3439680  22.7068130 146.0236910  34.8491990  38.5210360 143.1208790
  34.3894960  39.2726170 142.7466810  34.2204450  37.8016830 143.0623590
  21.6742610  34.6153600 145.5107510  20.9476670  33.9958890 145.4433460
  21.7351760  35.0094210 144.6405590  25.2787710  36.8298600 142.2956920
  25.7952730  36.2185960 141.7705180  25.9285090  37.3327380 142.7867930
  28.0183210  37.7207090 143.1225900  28.3061020  37.4661390 142.2458910
  28.5306430  37.1684450 143.7131470  29.2360220  21.4597290 143.7022410
  28.4532010  21.9342790 143.9819170  28.9423150  20.5552120 143.5935590
  33.7881290  22.1620390 141.7471500  34.2289380  22.1065490 140.8993100
  33.5188880  23.0778400 141.8181680  35.6519860  21.7935630 139.7580320
  35.5908260  20.8496850 139.6111340  36.4311890  21.9015720 140.3033780
  19.9572610  37.9327990 138.7204270  19.7894650  37.2998670 139.4186160
  19.0907120  38.1387390 138.3698460  20.5800630  21.7644770 136.2236130
  21.3379990  21.8773650 135.6500160  20.1177800  22.6013970 136.1779560
  27.1214440  23.8784040 139.2138440  26.3088950  23.5040930 138.8734320
  27.6256080  23.1229120 139.5159630  31.6239420  20.5426490 140.4521510
  32.2268790  21.1146700 140.9270030  30.8832410  21.1065930 140.2295410
  34.7674020  20.9448050 135.7261790  34.9624650  21.8431500 135.9929220
  33.9803890  20.7135130 136.2194740  21.5635310  36.6261220 136.1654410
  21.0382930  37.0069250 135.4616370  21.4879890  37.2511990 136.8864120
  22.9525780  22.2908820 134.7638100  23.4818540  21.5038620 134.6346050
  23.5854100  22.9700010 134.9973630  25.1463620  22.0283960 137.8183490
  24.5166360  21.3271270 137.9853620  24.6068760  22.7888090 137.6016650
  36.3200630  38.1848760 137.4868350  36.4952820  37.4986500 136.8429270
  35.6222200  38.7095810 137.0945020  24.1628280  38.5743600 135.0403660
  24.8947100  38.2902880 134.4927550  24.4221950  38.3356880 135.9303040
  23.3243070  34.6908330 135.0449990  22.6951950  35.1593430 135.5935820
  23.4390900  33.8457550 135.4796180  30.7792790  28.7413990 121.1951190
  30.6986840  27.8268600 120.9242900  30.3657210  29.2381060 120.4890900
  28.9110830  30.5193010 123.0760460  28.1352930  30.0393450 123.3659030
  29.5623760  29.8398660 122.9016620  22.9276660  30.8312820 123.9536220
  22.0961540  30.5761530 124.3532730  23.5357640  30.9023590 124.6894140
  32.9318260  34.9253200 121.8559590  32.4699790  34.1540440 122.1846760
  33.7443810  34.9519270 122.3612040  22.9077920  34.8652910 124.1494240
  23.2105960  33.9750650 123.9704460  23.6521510  35.4223130 123.9216490
  21.3368610  25.7914710 117.7378610  20.4485310  26.1330680 117.6358490
  21.6209800  25.5915030 116.8459440  19.3001620  28.3920360 123.6218310
  19.8717730  27.6242560 123.6221950  19.3003160  28.6909120 122.7124920
  29.1581570  37.2111210 121.4763580  28.5393010  37.6668710 120.9058020
  30.0133350  37.3662670 121.0753280  28.3519820  33.1950200 123.0830620
  28.2828100  32.2540140 122.9219750  29.1139680  33.2851610 123.6553190
  20.5426490  23.8004720 125.4087240  20.3629330  22.9030470 125.6890000
  20.1406570  24.3476590 126.0834190  29.3824990  26.0020580 123.3099550
  29.7589810  25.1292460 123.1973220  29.2844500  26.3379280 122.4189990
  23.5130000  24.3746210 118.7716990  23.6196750  25.2749940 119.0785750
  22.6022360  24.3264180 118.4811640  33.1649110  23.4971020 120.2427890
  33.9858730  23.0067590 120.2853370  33.1983190  24.0868680 120.9959730
  21.1613160  26.2965220 124.0169580  21.8423270  26.5603590 124.6356980
  20.8461210  25.4566090 124.3507590  25.3537730  27.3432580 123.1042170
  25.8615950  27.8413550 123.7447190  25.8850970  26.5667780 122.9281530
  37.4548660  25.5137770 126.8071520  36.7500830  25.9019480 126.2886630
  37.7206580  26.2088060 127.4092450  23.6373830  21.9831140 127.3705590
  23.6392270  22.5003530 126.5651490  22.8078140  21.5061320 127.3475520
  30.0244920  32.0950450 118.8695490  29.4062190  32.5599900 118.3058210
  30.5368170  32.7877930 119.2865000  24.8876680  31.6226320 125.5479090
  24.5546060  32.2495240 126.1900160  25.0643360  32.1488200 124.7680760
  33.4010590  25.4371400 123.0155430  32.6966160  25.7256290 123.5958540
  33.7622750  26.2471510 122.6554990  23.3189160  23.6941100 125.3776040
  23.6605970  24.5383150 125.0829910  22.3804970  23.8424840 125.4941380
  24.0995780  33.5907120 127.3628270  24.7169780  34.2658200 127.0812720
  23.2388900  33.9995100 127.2715770  19.3928120  32.7806980 116.2435120
  19.0156100  33.2694080 115.5120020  19.6501190  33.4532260 116.8741650
  35.0173370  35.0546530 125.2782910  34.3336890  35.7245640 125.2699580
  35.5567660  35.2527180 124.5127770  36.4697510  24.8826190 123.4064640
  35.5222420  24.9165170 123.5380070  36.7947500  25.6965140 123.7914000
  27.0017050  21.1823370 121.7020630  27.3092030  20.6270260 120.9856130
  26.0717750  21.3167830 121.5193620  32.5532110  36.8990660 123.9928090
  32.5659270  36.4952950 123.1250350  32.0007330  37.6737950 123.8889520
  33.8477530  33.6206880 119.0818260  33.7373860  32.6781210 119.2067680
  33.8445780  33.9822520 119.9681020  31.9517550  31.8020500 125.3210700
  32.3686340  31.5880610 124.4864160  32.6757370  32.0593290 125.8919320
  29.3897810  29.2472200 118.4380750  28.4627090  29.1809580 118.6669220
  29.5422630  30.1852330 118.3235990  29.3766890  25.5189200 115.4347910
  28.4370560  25.6803160 115.5200370  29.6950150  26.2374880 114.8883900
  35.8979650  30.2007720 125.4126940  35.0698280  30.2700810 124.9377070
  36.4930130  30.7862030 124.9442770  33.4195100  30.8092500 118.9416000
  32.8007520  30.4712050 118.2942300  33.4019550  30.1652260 119.6495190
  32.8621660  26.9877040 126.3581810  32.4492840  27.8130750 126.6121800
  32.1297610  26.4022080 126.1658170  24.9954450  29.7736940 121.2200480
  24.5911450  29.0614190 120.7246380  25.0817570  29.4290180 122.1088520
  25.4636150  33.4604500 123.3839690  25.1664440  32.8549970 122.7047470
  26.4135970  33.4981810 123.2729050  23.7083070  26.5480150 124.9999520
  24.2597660  26.6575490 124.2252770  24.2226580  26.9217750 125.7154750
  33.5521760  37.0336370 127.0462790  33.0752320  37.8408560 126.8535400
  32.8683550  36.3814700 127.1989000  24.5554580  33.1986190 130.0347490
  23.6583110  33.4226160 130.2820890  24.5807450  33.3221130 129.0858890
  31.5959800  30.0479310 115.9488750  32.0353080  29.2101740 115.8026570
  32.3088220  30.6808710 116.0352890  23.3825800  30.0699510 128.6104860
  23.2433570  30.9422310 128.9792260  22.5007160  29.7272320 128.4652800
  29.7055180  34.9875380 119.9169990  30.1451090  35.7299710 119.5025380
  29.6442070  35.2301950 120.8408950  25.1806150  36.0121210 130.8190010
  25.1521580  36.4164160 129.9518440  25.0171120  35.0831570 130.6561610
  35.1776940  21.3022120 114.2629790  34.8649600  21.3948950 115.1628860
  35.9389410  21.8803150 114.2127220  21.6959080  28.6681920 118.7207130
  21.5756680  29.3944010 118.1088400  21.3859970  27.8984830 118.2435040
  37.1320970  36.7948310 132.1154180  37.6080690  37.2731200 132.7943260
  37.7528130  36.7265800 131.3899680  19.3344450  31.8397060 124.5275770
  19.4124870  31.9745830 123.5831490  19.9486130  31.1312950 124.7203890
  20.5792080  33.5397250 120.9381950  20.1720160  33.6811840 120.0835550
  21.4705090  33.2557410 120.7353160  36.5354220  33.9861160 129.2754190
  36.6617280  33.7473040 128.3571370  36.5775600  33.1545700 129.7476270
  30.3970960  37.6889160 127.8449000  30.9115630  37.5997170 128.6471430
  29.5540040  38.0348860 128.1376910  32.3725360  37.9744500 117.2733000
  32.2126500  37.6847440 118.1714830  32.2072070  37.1984630 116.7378230
  24.8513740  37.7543030 119.0504620  24.6756220  36.8378570 118.8372420
  23.9969480  38.1130320 119.2902420  32.0751490  35.4832060 115.8331000
  31.3816650  35.4809350 115.1733280  32.8174350  35.0591380 115.4025170
  31.6401420  37.1094770 119.9079490  32.0958370  36.3284150 120.2218110
  31.9793940  37.8201590 120.4520670  36.3878230  26.0393620 130.2403930
  35.7722500  26.5473290 129.7119390  36.0674650  25.1391950 130.1829870
  19.3903970  32.8811230 127.0670230  19.5535010  32.4116590 126.2489600
  19.8556420  32.3734790 127.7319070  24.1622740  22.0116990 122.1030800
  23.7190890  22.7926530 121.7715320  24.7207730  22.3346880 122.8101740
  28.4492550  24.8785510 127.7066120  27.9871920  25.0868530 128.5186060
  28.0470660  24.0644860 127.4036790  33.4497060  26.0994460 128.8362780
  32.5990650  25.8000210 129.1571850  33.2898850  26.3436470 127.9246600
  30.5446770  27.5996210 130.9361570  30.8700180  26.7659960 130.5963800
  31.3327100  28.1224730 131.0839900  27.2781560  21.6327690 116.9836630
  26.6535740  21.6287560 117.7089940  27.1911680  20.7658650 116.5872600
  26.1998640  22.5564320 123.9620400  26.4970970  23.4627150 123.8812420
  26.7484200  22.0683100 123.3479970  23.9536960  27.1350560 119.8312050
  23.7277880  26.9187730 120.7358670  23.1729490  27.5679020 119.4858020
  31.1834720  27.1413930 118.4302700  30.5843610  27.8649730 118.2466320
  31.7314330  27.0790710 117.6479150  26.3936170  28.0336140 130.4972320
  26.2979770  27.0930870 130.3472720  27.2368150  28.2551210 130.1020390
  29.7899590  25.7777470 120.4605980  30.1829160  26.0949670 119.6474670
  30.1516440  24.8989350 120.5750500  21.5246710  24.4449810 128.6506100
  21.1310100  25.2925020 128.8578880  20.8365110  23.8076180 128.8414740
  28.0991760  24.5284780 131.7202840  27.4090080  24.3356980 132.3548930
  28.8424060  24.8119420 132.2527140  18.8263760  22.3678270 122.6836180
  18.5376810  22.9381130 123.3961160  19.5709520  21.8882720 123.0467410
  19.0133990  26.3098390 113.8938900  18.9308660  27.2529150 114.0353890
  18.6617050  26.1673300 113.0151250  30.3754730  28.3683220 124.5556760
  29.6435850  28.8770030 124.9046860  29.9779070  27.5513200 124.2545540
  26.8132120  25.0437420 122.9609250  26.8168180  24.6027370 122.1113790
  27.7083240  25.3654750 123.0681070  22.6634500  24.9263910 121.9203460
  22.3234550  25.4039140 122.6770510  21.9011820  24.4729030 121.5604560
  26.8752270  26.0449500 115.9516010  26.9965090  26.0035980 116.9001830
  26.4900780  26.9073650 115.7962740  30.8380640  23.8216900 123.9679700
  30.8553380  24.2725550 124.8121550  30.5896220  22.9222540 124.1813140
  25.8873770  28.3550640 115.3499310  25.3190670  27.9068890 114.7235220
  26.5962770  28.7143420 114.8164460  34.2651390  21.2349080 129.8066080
  34.5897160  20.5038740 130.3324060  34.3007900  20.9162720 128.9047070
  20.9642950  32.2562660 129.2266040  20.5797740  31.6156330 129.8249000
  21.2755140  32.9598780 129.7960770  27.1140090  29.1039200 124.7074660
  27.4810220  28.6297770 125.4536000  26.9245150  29.9780770 125.0483000
  19.9780580  23.8482890 120.8368130  19.6927500  23.4838560 121.6746750
  19.9159440  23.1163350 120.2231270  24.9039460  28.1447840 127.0258870
  24.5996530  29.0239820 127.2509230  25.8585920  28.2047630 127.0616310
  23.4321250  32.3508830 117.6225720  22.6583510  31.8106450 117.4624440
  24.1615880  31.8315440 117.2843480  34.1909230  31.3474190 123.4152110
  34.9108350  31.8429480 123.0248220  33.9891050  30.6692080 122.7705980
  29.6519170  22.7412150 117.5581500  28.8383780  22.2425320 117.4826810
  29.4581120  23.5810400 117.1417850  29.5728030  31.4183250 129.3021110
  29.5065340  30.4978920 129.0478700  28.9433170  31.5158690 130.0165750
  32.3667560  27.1131800 115.8543660  33.2547180  27.4249030 115.6795000
  32.3372650  26.2404050 115.4624240  23.4758650  32.0189210 121.2604530
  23.9937320  31.2157470 121.2061420  23.0242670  31.9568350 122.1021360
  28.3628150  33.2855490 116.5331830  28.7043850  34.0297720 116.0375150
  27.5340860  33.5986610 116.8956660  20.9603190  28.9850580 128.1730230
  20.6018130  29.6504430 128.7603570  20.6657750  28.1534130 128.5442850
  24.1616310  29.4434820 131.0569780  23.8616450  29.5892000 130.1597600
  24.9327550  28.8840110 130.9643170  29.5044760  34.2403820 129.0524910
  29.5189300  33.3084780 128.8343820  28.7969860  34.3263580 129.6914680
  34.6381830  28.4243640 115.3223520  34.5545550  28.8557860 114.4719960
  35.3576020  28.8841990 115.7550340  35.7155970  30.8811160 128.3993490
  34.9904160  31.4739940 128.2022880  36.2431430  30.8734700 127.6006860
  35.6669080  35.2785900 118.0505650  35.0245240  34.6241520 118.3249370
  35.2799740  35.6840990 117.2746320  31.2455560  32.6071330 121.8977340
  31.5979380  32.0099460 121.2378710  30.3617890  32.2815560 122.0685590
  27.3318840  33.3669020 119.3047750  28.0189970  33.9138230 119.6855340
  26.5451260  33.9109750 119.3397360  19.4711240  28.9841840 114.7964830
  20.3406090  29.2666640 115.0800750  18.9801560  29.7977710 114.6813640
  26.6346050  30.3715050 118.9173110  27.0908830  31.1820300 119.1433300
  26.2834260  30.0538190 119.7491600  28.9378660  35.8821390 126.1465410
  29.5820880  36.0880770 126.8238830  29.3008100  35.1209790 125.6936260
  22.5357830  20.7152700 119.3895630  22.4072460  20.7070600 120.3380550
  21.7119850  21.0535790 119.0386640  30.2110740  33.8853740 124.8642860
  30.8532970  33.1846900 124.9775030  30.7360090  34.6652180 124.6839750
  34.0566460  34.1702360 114.5882000  33.8304040  33.4532800 115.1806640
  33.6662660  33.9214800 113.7503750  31.9848360  34.6848640 128.0678920
  32.3204600  35.2715330 128.7456840  31.0648700  34.5541350 128.2976710
  19.8382490  38.1969220 115.3626460  20.1980130  38.7958560 114.7083730
  19.6974830  38.7429110 116.1361490  19.5351760  22.4743820 128.8502330
  18.8210280  22.6740740 129.4554940  19.9546800  21.6983390 129.2217130
  33.6382710  32.0874300 116.2496160  33.3504410  32.5486990 117.0374040
  34.4334880  31.6272070 116.5180380  19.8224350  36.4624080 129.8368860
  19.9315470  35.5218820 129.6964250  19.1704910  36.7278830 129.1882590
  27.8136940  34.7339970 131.2366980  27.4933810  34.0149210 131.7812670
  27.1395300  35.4095040 131.3103040  25.8551110  35.5800420 116.1800130
  25.8461210  36.3130110 115.5644640  24.9349470  35.3332000 116.2727090
  21.4557750  30.8015310 116.9246890  20.8485700  31.5414210 116.9342190
  21.9307100  30.8914670 116.0985090  31.0290540  24.9666130 126.6003780
  31.3971360  24.1461340 126.9283350  30.1688740  25.0268020 127.0159430
  34.3952570  23.9223070 117.4091340  33.7665730  24.0268740 116.6949570
  33.9004490  24.1419850 118.1985220  28.8410710  35.6428660 114.8425320
  28.9422690  35.4392650 113.9127300  27.9412450  35.3886940 115.0473100
  26.3636600  26.2009020 118.8249220  25.6552750  26.6695360 119.2662830
  26.6481080  25.5431030 119.4594410  27.9892530  27.6205720 126.8241750
  28.4877780  28.0951540 127.4893600  28.1315480  26.6969240 127.0311780
  30.3952030  22.9259680 120.2645010  30.2719810  22.9445810 119.3154520
  31.3436590  22.9738620 120.3843410  27.4828820  38.1614980 119.5372990
  27.7370320  38.1236370 118.6152360  26.5341300  38.0348310 119.5301240
  24.5671620  24.5094100 116.1999930  25.4162150  24.9464250 116.1340120
  24.2002890  24.8214360 117.0271990  35.1959390  23.8373680 127.6670140
  34.6932990  24.5779080 128.0063950  36.0116050  24.2257680 127.3506930
  33.4881400  29.0806860 121.1131500  32.5471540  29.0957090 121.2879190
  33.8025470  28.2942820 121.5591800  23.4663040  30.7626460 114.6735460
  24.2326310  30.6507820 115.2360890  23.5437730  30.0664430 114.0212230
  22.1609800  28.1951530 115.3568350  22.2413390  27.2479040 115.4685750
  23.0529550  28.5258410 115.4629010  35.4906980  36.2515710 122.7885760
  35.6154400  37.0746880 123.2609570  36.3572540  36.0406440 122.4409910
  22.9624510  38.3446920 122.4602890  23.6986990  37.7962380 122.7311460
  23.3465430  39.2102930 122.3208880  19.8469990  34.4120490 118.3344400
  18.9209770  34.6541630 118.3249810  20.3126420  35.2394750 118.2129150
  21.9682790  37.5292990 131.6488470  22.7695520  37.8505040 132.0623870
  21.4534610  37.1688570 132.3708380  26.0726820  37.5177230 114.2828460
  26.8655430  37.8066060 113.8310250  25.5531170  37.0869400 113.6040940
  30.8047420  33.6372860 131.5963880  30.1985580  33.6604460 130.8559630
  30.5001530  32.9055900 132.1331130  32.2347790  37.3653150 130.2073290
  33.1869540  37.2811170 130.1573530  32.0876010  38.0294860 130.8807080
  35.1256990  36.7447360 115.7065200  34.8398500  36.3312500 114.8919380
  34.9276540  37.6735070 115.5865720  19.6880600  30.0166450 130.5924520
  20.1919620  29.4373730 131.1640750  18.9488020  30.3006680 131.1300890
  26.5904220  32.7380640 114.1470810  26.4854860  32.1232990 114.8732190
  26.4228440  32.2146530 113.3633820  26.7418540  31.4237440 130.1260040
  25.9764210  31.9922440 130.0414710  26.9234500  31.1313650 129.2328270
  29.8306950  31.8000670 114.7512800  29.2817050  32.2469970 115.3955540
  30.4526210  31.2949920 115.2750470  33.8841890  33.1542770 130.6835060
  34.6251360  33.4918530 130.1802520  33.1214570  33.3234830 130.1304830
  21.7203680  28.1596040 131.4874590  21.7609020  27.8609910 132.3959820
  22.5749180  28.5603650 131.3282110  25.4982070  30.7591590 116.6478100
  25.9198490  30.5931460 117.4909490  25.6232910  29.9491820 116.1533240
  23.6609490  26.7388140 129.4549080  23.1305950  26.2479090 128.8272420
  24.3297560  27.1672340 128.9207010  28.0109710  29.7829200 113.8955200
  28.5315370  29.0678220 113.5296350  28.6578110  30.4215070 114.1955710
  32.5587550  31.2057600 129.2190270  32.9728570  31.3602680 130.0680690
  31.6238550  31.3312820 129.3816050  33.0309720  28.5453760 131.2229420
  33.6130490  27.7906080 131.1349900  33.2071490  29.0761200 130.4460900
  24.1481790  23.7050510 129.5346370  24.0538660  23.0871260 128.8097240
  23.5679180  24.4316800 129.3076280  26.9143230  22.2623750 126.5673760
  26.4660530  22.2848010 125.7219310  26.2808430  21.8642770 127.1644060
  27.3202780  31.1578080 127.1886200  27.7390890  32.0010810 127.0162440
  26.4011410  31.2950120 126.9592980  29.6566680  28.8894260 128.5724040
  29.7762890  28.2935400 129.3118880  30.5160680  28.9263950 128.1525340
  31.9954580  29.4431450 127.1486550  31.4689800  29.9674070 126.5451690
  32.3385920  30.0758840 127.7796280  24.3940970  26.8324820 113.5936260
  24.1930030  25.9692180 113.9549600  24.2233020  26.7458180 112.6557860
  25.1710200  37.4631090 128.3043930  24.6331290  38.1877150 127.9852630
  25.4244160  36.9861430 127.5141270  26.4235450  25.4315610 129.8299860
  27.0135140  25.1231460 130.5177680  25.6055690  24.9595360 129.9859760
  31.2428880  25.0481420 130.0632880  30.5544400  24.3862960 129.9982870
  31.9634900  24.6019690 130.5081340  31.8729280  21.6433050 116.1223140
  32.1531570  20.8000950 116.4782560  31.0995010  21.8756160 116.6361890
  23.1923770  23.9325440 113.5814140  23.4949670  23.9392870 112.6733290
  23.9318360  23.5823300 114.0781800  28.0272410  38.6982300 128.5630580
  27.9531110  39.6017440 128.8702950  27.1251250  38.3794200 128.5352650
  26.4108700  22.8760060 114.5670340  26.0630700  22.1984050 113.9872790
  26.6121470  22.4149570 115.3813730  28.5757740  37.8640810 116.1856940
  29.4708530  38.2025780 116.2075700  28.6075370  37.1420220 115.5581220
  22.2153900  33.2367860 114.4143940  22.6528770  33.7797530 115.0701520
  22.7001630  32.4114810 114.4240280  19.4299700  36.0256890 121.8664200
  19.7602710  35.1577950 121.6342840  19.8590700  36.2315410 122.6969160
  24.0261620  34.3565900 119.5266170  23.7257160  34.2330870 120.4270080
  23.9199110  33.4974490 119.1181900  19.9189910  36.8927480 124.6045830
  19.4820900  37.0728280 125.4369980  20.4867590  37.6502100 124.4627550
  35.5552090  36.3944480 128.8923140  34.9554080  36.4537040 128.1487060
  35.6845990  35.4549460 129.0219990  36.7953540  34.1362300 114.2292850
  35.9646500  34.2038950 114.7000080  36.9725370  35.0266420 113.9259710
  36.2510000  30.8809780 116.7327050  37.0128910  31.4506430 116.8386740
  36.2664370  30.3136980 117.5035360  19.7514340  29.4047710 120.9634710
  19.0963180  29.1359350 120.3194410  20.5892290  29.2952190 120.5136690
  37.2569970  31.7359880 121.5768980  37.6278800  30.9527200 121.1704950
  37.8971900  32.4248980 121.3986280  34.2403730  33.1196460 126.9899300
  33.4263570  33.5493620 127.2525090  34.6477930  33.7314870 126.3768350
  36.3029170  31.1744150 113.8899570  36.5778010  32.0823030 113.7618790
  36.1139910  31.1106680 114.8261560  32.7004780  24.1989000 115.1853200
  33.1189660  24.0119980 114.3449860  32.3940840  23.3468050 115.4956130
  36.1994510  29.1113140 118.8829000  35.8238110  28.3441070 118.4510290
  35.4697630  29.4935840 119.3703930  20.7890270  29.7900280 125.5038050
  21.1563310  29.7027680 126.3834070  20.2201090  29.0266830 125.4044910
  35.5894130  28.2584660 128.5168520  35.3580220  28.0297410 127.6166470
  35.8498680  29.1784210 128.4713410  20.3406270  26.7009370 129.4096470
  19.4462320  26.6676130 129.7490180  20.8803820  26.8996160 130.1747720
  34.0282200  23.4841090 131.2948220  34.9052380  23.4924490 131.6782220
  34.0403040  22.7471930 130.6840570  18.9652420  26.6146640 116.9060040
  18.0616500  26.8776840 116.7311700  19.4493040  26.8857810 116.1260000
  35.4745470  27.3370630 122.1836240  35.9982950  26.8433280 121.5526410
  36.0604890  27.4720990 122.9283810  35.6535190  27.4210500 125.7055790
  34.7037900  27.3874040 125.8200780  35.8348200  28.3310610 125.4705560
  21.5079630  25.6712180 114.8154420  22.2171330  25.2495400 114.3301700
  20.7919570  25.7387410 114.1837770  21.1553790  21.7251510 113.8557070
  21.8781920  22.2660450 114.1738290  21.4278310  21.4514930 112.9798610
  34.9645440  26.5943980 118.1228650  35.4604560  26.3614850 118.9077530
  34.7661510  25.7555820 117.7066290  20.8445980  20.9757700 123.7579690
  21.4922170  20.4255080 123.3174850  21.2647820  21.2300850 124.5795500
  36.3932600  25.2304930 120.6566330  36.2831880  25.0760970 121.5948600
  37.1540190  24.7025870 120.4141740  34.7398320  21.1699060 127.1149330
  35.3770540  21.7833200 127.4808520  34.8873210  21.2059720 126.1698560
  37.2822870  23.0612850 113.8972470  38.2072180  22.9294030 113.6890760
  37.2598660  23.1405670 114.8508920  37.3561360  23.8323510 116.5229180
  36.5612860  23.7668630 117.0522090  37.5604640  24.7674150 116.5114530
  34.2979780  37.8715060 120.5167570  34.8938850  37.5499630 119.8401990
  34.5557930  37.3986880 121.3080840  20.5977980  21.1313370 126.5005010
  20.2492800  21.5877190 127.2663190  20.2665680  20.2370500 126.5827440
  22.2042350  34.3032970 130.6658200  22.1611980  33.9325880 131.5472660
  22.3353360  35.2410540 130.8060020  25.9048380  35.8592560 126.2667920
  25.6639740  36.1267120 125.3798440  26.8451020  36.0298290 126.3218780
  28.1102800  22.3225250 130.0224430  28.0491690  22.9147080 130.7719840
  29.0503180  22.2151210 129.8774690  30.7477360  21.9795310 129.6616720
  31.3617770  22.2974600 128.9997800  31.2926920  21.4943900 130.2812580
  37.1652540  37.8786940 127.0678560  36.6710820  38.2755810 126.3505690
  36.5565830  37.2536150 127.4615840  21.2698620  20.6589570 129.7755780
  21.8181610  20.4777620 129.0121890  21.3353930  19.8683680 130.3112090
  22.0430380  37.2495220 127.7855980  21.4490700  37.1179920 128.5246020
  22.0354220  36.4133360 127.3198080  31.4885400  20.5427450 125.9886010
  30.6145240  20.8762560 125.7858940  31.3796150  20.0700630 126.8137880
  32.3957380  22.7498320 127.3727730  32.0670740  21.9350080 126.9929460
  33.3439680  22.7068130 127.2493420  34.8491990  38.5210360 124.3465300
  34.3894960  39.2726170 123.9723320  34.2204450  37.8016830 124.2880100
  21.6742610  34.6153600 126.7364020  20.9476670  33.9958890 126.6689970
  21.7351760  35.0094210 125.8662100  25.2787710  36.8298600 123.5213430
  25.7952730  36.2185960 122.9961690  25.9285090  37.3327380 124.0124440
  28.0183210  37.7207090 124.3482410  28.3061020  37.4661390 123.4715420
  28.5306430  37.1684450 124.9387980  29.2360220  21.4597290 124.9278920
  28.4532010  21.9342790 125.2075680  28.9423150  20.5552120 124.8192100
  33.7881290  22.1620390 122.9728010  34.2289380  22.1065490 122.1249610
  33.5188880  23.0778400 123.0438190  35.6519860  21.7935630 120.9836830
  35.5908260  20.8496850 120.8367850  36.4311890  21.9015720 121.5290290
  19.9572610  37.9327990 119.9460780  19.7894650  37.2998670 120.6442670
  19.0907120  38.1387390 119.5954970  20.5800630  21.7644770 117.4492640
  21.3379990  21.8773650 116.8756670  20.1177800  22.6013970 117.4036070
  27.1214440  23.8784040 120.4394950  26.3088950  23.5040930 120.0990830
  27.6256080  23.1229120 120.7416140  31.6239420  20.5426490 121.6778020
  32.2268790  21.1146700 122.1526540  30.8832410  21.1065930 121.4551920
  34.7674020  20.9448050 116.9518300  34.9624650  21.8431500 117.2185730
  33.9803890  20.7135130 117.4451250  21.5635310  36.6261220 117.3910920
  21.0382930  37.0069250 116.6872880  21.4879890  37.2511990 118.1120630
  22.9525780  22.2908820 115.9894610  23.4818540  21.5038620 115.8602560
  23.5854100  22.9700010 116.2230140  25.1463620  22.0283960 119.0440000
  24.5166360  21.3271270 119.2110130  24.6068760  22.7888090 118.8273160
  28.0855570  38.6423190 131.7150610  29.0122880  38.4067460 131.7586570
  28.0706000  39.4695190 131.2336640  36.3200630  38.1848760 118.7124860
  36.4952820  37.4986500 118.0685780  35.6222200  38.7095810 118.3201530
  25.2719180  21.3067940 131.4792490  24.9903450  21.8101540 130.7153310
  25.6538880  20.5089690 131.1134620  24.1628280  38.5743600 116.2660170
  24.8947100  38.2902880 115.7184060  24.4221950  38.3356880 117.1559550
  23.3243070  34.6908330 116.2706500  22.6951950  35.1593430 116.8192330
  23.4390900  33.8457550 116.7052690  31.8734640  20.7221520 132.0572960
  31.7600090  21.0416130 132.9524480  32.6904380  21.1234030 131.7610240
  34.6533130  37.8693050 131.5391650  35.4458450  37.3742280 131.3317610
  34.9466280  38.5483190 132.1467260  30.7792790  28.7413990 102.4207700
  30.6986840  27.8268600 102.1499410  30.3657210  29.2381060 101.7147410
  28.9110830  30.5193010 104.3016970  28.1352930  30.0393450 104.5915540
  29.5623760  29.8398660 104.1273130  22.9276660  30.8312820 105.1792730
  22.0961540  30.5761530 105.5789240  23.5357640  30.9023590 105.9150650
  32.9318260  34.9253200 103.0816100  32.4699790  34.1540440 103.4103270
  33.7443810  34.9519270 103.5868550  22.9077920  34.8652910 105.3750750
  23.2105960  33.9750650 105.1960970  23.6521510  35.4223130 105.1473000
  21.3368610  25.7914710  98.9635120  20.4485310  26.1330680  98.8615000
  21.6209800  25.5915030  98.0715950  19.3001620  28.3920360 104.8474820
  19.8717730  27.6242560 104.8478460  19.3003160  28.6909120 103.9381430
  29.1581570  37.2111210 102.7020090  28.5393010  37.6668710 102.1314530
  30.0133350  37.3662670 102.3009790  28.3519820  33.1950200 104.3087130
  28.2828100  32.2540140 104.1476260  29.1139680  33.2851610 104.8809700
  20.5426490  23.8004720 106.6343750  20.3629330  22.9030470 106.9146510
  20.1406570  24.3476590 107.3090700  29.3824990  26.0020580 104.5356060
  29.7589810  25.1292460 104.4229730  29.2844500  26.3379280 103.6446500
  23.5130000  24.3746210  99.9973500  23.6196750  25.2749940 100.3042260
  22.6022360  24.3264180  99.7068150  33.1649110  23.4971020 101.4684400
  33.9858730  23.0067590 101.5109880  33.1983190  24.0868680 102.2216240
  21.1613160  26.2965220 105.2426090  21.8423270  26.5603590 105.8613490
  20.8461210  25.4566090 105.5764100  25.3537730  27.3432580 104.3298680
  25.8615950  27.8413550 104.9703700  25.8850970  26.5667780 104.1538040
  37.4548660  25.5137770 108.0328030  36.7500830  25.9019480 107.5143140
  37.7206580  26.2088060 108.6348960  23.6373830  21.9831140 108.5962100
  23.6392270  22.5003530 107.7908000  22.8078140  21.5061320 108.5732030
  30.0244920  32.0950450 100.0952000  29.4062190  32.5599900  99.5314720
  30.5368170  32.7877930 100.5121510  24.8876680  31.6226320 106.7735600
  24.5546060  32.2495240 107.4156670  25.0643360  32.1488200 105.9937270
  33.4010590  25.4371400 104.2411940  32.6966160  25.7256290 104.8215050
  33.7622750  26.2471510 103.8811500  23.3189160  23.6941100 106.6032550
  23.6605970  24.5383150 106.3086420  22.3804970  23.8424840 106.7197890
  24.0995780  33.5907120 108.5884780  24.7169780  34.2658200 108.3069230
  23.2388900  33.9995100 108.4972280  19.3928120  32.7806980  97.4691630
  19.0156100  33.2694080  96.7376530  19.6501190  33.4532260  98.0998160
  35.0173370  35.0546530 106.5039420  34.3336890  35.7245640 106.4956090
  35.5567660  35.2527180 105.7384280  36.4697510  24.8826190 104.6321150
  35.5222420  24.9165170 104.7636580  36.7947500  25.6965140 105.0170510
  27.0017050  21.1823370 102.9277140  27.3092030  20.6270260 102.2112640
  26.0717750  21.3167830 102.7450130  32.5532110  36.8990660 105.2184600
  32.5659270  36.4952950 104.3506860  32.0007330  37.6737950 105.1146030
  33.8477530  33.6206880 100.3074770  33.7373860  32.6781210 100.4324190
  33.8445780  33.9822520 101.1937530  31.9517550  31.8020500 106.5467210
  32.3686340  31.5880610 105.7120670  32.6757370  32.0593290 107.1175830
  29.3897810  29.2472200  99.6637260  28.4627090  29.1809580  99.8925730
  29.5422630  30.1852330  99.5492500  29.3766890  25.5189200  96.6604420
  28.4370560  25.6803160  96.7456880  29.6950150  26.2374880  96.1140410
  35.8979650  30.2007720 106.6383450  35.0698280  30.2700810 106.1633580
  36.4930130  30.7862030 106.1699280  33.4195100  30.8092500 100.1672510
  32.8007520  30.4712050  99.5198810  33.4019550  30.1652260 100.8751700
  32.8621660  26.9877040 107.5838320  32.4492840  27.8130750 107.8378310
  32.1297610  26.4022080 107.3914680  24.9954450  29.7736940 102.4456990
  24.5911450  29.0614190 101.9502890  25.0817570  29.4290180 103.3345030
  25.4636150  33.4604500 104.6096200  25.1664440  32.8549970 103.9303980
  26.4135970  33.4981810 104.4985560  23.7083070  26.5480150 106.2256030
  24.2597660  26.6575490 105.4509280  24.2226580  26.9217750 106.9411260
  33.5521760  37.0336370 108.2719300  33.0752320  37.8408560 108.0791910
  32.8683550  36.3814700 108.4245510  24.5554580  33.1986190 111.2604000
  23.6583110  33.4226160 111.5077400  24.5807450  33.3221130 110.3115400
  31.5959800  30.0479310  97.1745260  32.0353080  29.2101740  97.0283080
  32.3088220  30.6808710  97.2609400  23.3825800  30.0699510 109.8361370
  23.2433570  30.9422310 110.2048770  22.5007160  29.7272320 109.6909310
  29.7055180  34.9875380 101.1426500  30.1451090  35.7299710 100.7281890
  29.6442070  35.2301950 102.0665460  25.1806150  36.0121210 112.0446520
  25.1521580  36.4164160 111.1774950  25.0171120  35.0831570 111.8818120
  35.1776940  21.3022120  95.4886300  34.8649600  21.3948950  96.3885370
  35.9389410  21.8803150  95.4383730  21.6959080  28.6681920  99.9463640
  21.5756680  29.3944010  99.3344910  21.3859970  27.8984830  99.4691550
  37.1320970  36.7948310 113.3410690  37.6080690  37.2731200 114.0199770
  37.7528130  36.7265800 112.6156190  19.3344450  31.8397060 105.7532280
  19.4124870  31.9745830 104.8088000  19.9486130  31.1312950 105.9460400
  20.5792080  33.5397250 102.1638460  20.1720160  33.6811840 101.3092060
  21.4705090  33.2557410 101.9609670  36.5354220  33.9861160 110.5010700
  36.6617280  33.7473040 109.5827880  36.5775600  33.1545700 110.9732780
  30.3970960  37.6889160 109.0705510  30.9115630  37.5997170 109.8727940
  29.5540040  38.0348860 109.3633420  24.8513740  37.7543030 100.2761130
  24.6756220  36.8378570 100.0628930  23.9969480  38.1130320 100.5158930
  31.6401420  37.1094770 101.1336000  32.0958370  36.3284150 101.4474620
  31.9793940  37.8201590 101.6777180  36.3878230  26.0393620 111.4660440
  35.7722500  26.5473290 110.9375900  36.0674650  25.1391950 111.4086380
  19.3903970  32.8811230 108.2926740  19.5535010  32.4116590 107.4746110
  19.8556420  32.3734790 108.9575580  24.1622740  22.0116990 103.3287310
  23.7190890  22.7926530 102.9971830  24.7207730  22.3346880 104.0358250
  28.4492550  24.8785510 108.9322630  27.9871920  25.0868530 109.7442570
  28.0470660  24.0644860 108.6293300  33.4497060  26.0994460 110.0619290
  32.5990650  25.8000210 110.3828360  33.2898850  26.3436470 109.1503110
  30.5446770  27.5996210 112.1618080  30.8700180  26.7659960 111.8220310
  31.3327100  28.1224730 112.3096410  27.2781560  21.6327690  98.2093140
  26.6535740  21.6287560  98.9346450  27.1911680  20.7658650  97.8129110
  26.1998640  22.5564320 105.1876910  26.4970970  23.4627150 105.1068930
  26.7484200  22.0683100 104.5736480  23.9536960  27.1350560 101.0568560
  23.7277880  26.9187730 101.9615180  23.1729490  27.5679020 100.7114530
  31.1834720  27.1413930  99.6559210  30.5843610  27.8649730  99.4722830
  31.7314330  27.0790710  98.8735660  26.3936170  28.0336140 111.7228830
  26.2979770  27.0930870 111.5729230  27.2368150  28.2551210 111.3276900
  29.7899590  25.7777470 101.6862490  30.1829160  26.0949670 100.8731180
  30.1516440  24.8989350 101.8007010  21.5246710  24.4449810 109.8762610
  21.1310100  25.2925020 110.0835390  20.8365110  23.8076180 110.0671250
  28.0991760  24.5284780 112.9459350  27.4090080  24.3356980 113.5805440
  28.8424060  24.8119420 113.4783650  18.8263760  22.3678270 103.9092690
  18.5376810  22.9381130 104.6217670  19.5709520  21.8882720 104.2723920
  19.0133990  26.3098390  95.1195410  18.9308660  27.2529150  95.2610400
  18.6617050  26.1673300  94.2407760  30.3754730  28.3683220 105.7813270
  29.6435850  28.8770030 106.1303370  29.9779070  27.5513200 105.4802050
  26.8132120  25.0437420 104.1865760  26.8168180  24.6027370 103.3370300
  27.7083240  25.3654750 104.2937580  22.6634500  24.9263910 103.1459970
  22.3234550  25.4039140 103.9027020  21.9011820  24.4729030 102.7861070
  26.8752270  26.0449500  97.1772520  26.9965090  26.0035980  98.1258340
  26.4900780  26.9073650  97.0219250  30.8380640  23.8216900 105.1936210
  30.8553380  24.2725550 106.0378060  30.5896220  22.9222540 105.4069650
  25.8873770  28.3550640  96.5755820  25.3190670  27.9068890  95.9491730
  26.5962770  28.7143420  96.0420970  34.2651390  21.2349080 111.0322590
  34.5897160  20.5038740 111.5580570  34.3007900  20.9162720 110.1303580
  20.9642950  32.2562660 110.4522550  20.5797740  31.6156330 111.0505510
  21.2755140  32.9598780 111.0217280  27.1140090  29.1039200 105.9331170
  27.4810220  28.6297770 106.6792510  26.9245150  29.9780770 106.2739510
  19.9780580  23.8482890 102.0624640  19.6927500  23.4838560 102.9003260
  19.9159440  23.1163350 101.4487780  24.9039460  28.1447840 108.2515380
  24.5996530  29.0239820 108.4765740  25.8585920  28.2047630 108.2872820
  23.4321250  32.3508830  98.8482230  22.6583510  31.8106450  98.6880950
  24.1615880  31.8315440  98.5099990  34.1909230  31.3474190 104.6408620
  34.9108350  31.8429480 104.2504730  33.9891050  30.6692080 103.9962490
  29.6519170  22.7412150  98.7838010  28.8383780  22.2425320  98.7083320
  29.4581120  23.5810400  98.3674360  29.5728030  31.4183250 110.5277620
  29.5065340  30.4978920 110.2735210  28.9433170  31.5158690 111.2422260
  32.3667560  27.1131800  97.0800170  33.2547180  27.4249030  96.9051510
  32.3372650  26.2404050  96.6880750  23.4758650  32.0189210 102.4861040
  23.9937320  31.2157470 102.4317930  23.0242670  31.9568350 103.3277870
  28.3628150  33.2855490  97.7588340  28.7043850  34.0297720  97.2631660
  27.5340860  33.5986610  98.1213170  20.9603190  28.9850580 109.3986740
  20.6018130  29.6504430 109.9860080  20.6657750  28.1534130 109.7699360
  24.1616310  29.4434820 112.2826290  23.8616450  29.5892000 111.3854110
  24.9327550  28.8840110 112.1899680  29.5044760  34.2403820 110.2781420
  29.5189300  33.3084780 110.0600330  28.7969860  34.3263580 110.9171190
  34.6381830  28.4243640  96.5480030  34.5545550  28.8557860  95.6976470
  35.3576020  28.8841990  96.9806850  35.7155970  30.8811160 109.6250000
  34.9904160  31.4739940 109.4279390  36.2431430  30.8734700 108.8263370
  31.2455560  32.6071330 103.1233850  31.5979380  32.0099460 102.4635220
  30.3617890  32.2815560 103.2942100  27.3318840  33.3669020 100.5304260
  28.0189970  33.9138230 100.9111850  26.5451260  33.9109750 100.5653870
  19.4711240  28.9841840  96.0221340  20.3406090  29.2666640  96.3057260
  18.9801560  29.7977710  95.9070150  26.6346050  30.3715050 100.1429620
  27.0908830  31.1820300 100.3689810  26.2834260  30.0538190 100.9748110
  28.9378660  35.8821390 107.3721920  29.5820880  36.0880770 108.0495340
  29.3008100  35.1209790 106.9192770  22.5357830  20.7152700 100.6152140
  22.4072460  20.7070600 101.5637060  21.7119850  21.0535790 100.2643150
  30.2110740  33.8853740 106.0899370  30.8532970  33.1846900 106.2031540
  30.7360090  34.6652180 105.9096260  31.9848360  34.6848640 109.2935430
  32.3204600  35.2715330 109.9713350  31.0648700  34.5541350 109.5233220
  19.8382490  38.1969220  96.5882970  20.1980130  38.7958560  95.9340240
  19.6974830  38.7429110  97.3618000  19.5351760  22.4743820 110.0758840
  18.8210280  22.6740740 110.6811450  19.9546800  21.6983390 110.4473640
  19.8224350  36.4624080 111.0625370  19.9315470  35.5218820 110.9220760
  19.1704910  36.7278830 110.4139100  27.8136940  34.7339970 112.4623490
  27.4933810  34.0149210 113.0069180  27.1395300  35.4095040 112.5359550
  25.8551110  35.5800420  97.4056640  25.8461210  36.3130110  96.7901150
  24.9349470  35.3332000  97.4983600  21.4557750  30.8015310  98.1503400
  20.8485700  31.5414210  98.1598700  21.9307100  30.8914670  97.3241600
  31.0290540  24.9666130 107.8260290  31.3971360  24.1461340 108.1539860
  30.1688740  25.0268020 108.2415940  34.3952570  23.9223070  98.6347850
  33.7665730  24.0268740  97.9206080  33.9004490  24.1419850  99.4241730
  28.8410710  35.6428660  96.0681830  28.9422690  35.4392650  95.1383810
  27.9412450  35.3886940  96.2729610  26.3636600  26.2009020 100.0505730
  25.6552750  26.6695360 100.4919340  26.6481080  25.5431030 100.6850920
  27.9892530  27.6205720 108.0498260  28.4877780  28.0951540 108.7150110
  28.1315480  26.6969240 108.2568290  30.3952030  22.9259680 101.4901520
  30.2719810  22.9445810 100.5411030  31.3436590  22.9738620 101.6099920
  27.4828820  38.1614980 100.7629500  27.7370320  38.1236370  99.8408870
  26.5341300  38.0348310 100.7557750  24.5671620  24.5094100  97.4256440
  25.4162150  24.9464250  97.3596630  24.2002890  24.8214360  98.2528500
  35.1959390  23.8373680 108.8926650  34.6932990  24.5779080 109.2320460
  36.0116050  24.2257680 108.5763440  33.4881400  29.0806860 102.3388010
  32.5471540  29.0957090 102.5135700  33.8025470  28.2942820 102.7848310
  23.4663040  30.7626460  95.8991970  24.2326310  30.6507820  96.4617400
  23.5437730  30.0664430  95.2468740  22.1609800  28.1951530  96.5824860
  22.2413390  27.2479040  96.6942260  23.0529550  28.5258410  96.6885520
  35.4906980  36.2515710 104.0142270  35.6154400  37.0746880 104.4866080
  36.3572540  36.0406440 103.6666420  22.9624510  38.3446920 103.6859400
  23.6986990  37.7962380 103.9567970  23.3465430  39.2102930 103.5465390
  19.8469990  34.4120490  99.5600910  18.9209770  34.6541630  99.5506320
  20.3126420  35.2394750  99.4385660  21.9682790  37.5292990 112.8744980
  22.7695520  37.8505040 113.2880380  21.4534610  37.1688570 113.5964890
  26.0726820  37.5177230  95.5084970  26.8655430  37.8066060  95.0566760
  25.5531170  37.0869400  94.8297450  30.8047420  33.6372860 112.8220390
  30.1985580  33.6604460 112.0816140  30.5001530  32.9055900 113.3587640
  32.2347790  37.3653150 111.4329800  33.1869540  37.2811170 111.3830040
  32.0876010  38.0294860 112.1063590  19.6880600  30.0166450 111.8181030
  20.1919620  29.4373730 112.3897260  18.9488020  30.3006680 112.3557400
  26.5904220  32.7380640  95.3727320  26.4854860  32.1232990  96.0988700
  26.4228440  32.2146530  94.5890330  26.7418540  31.4237440 111.3516550
  25.9764210  31.9922440 111.2671220  26.9234500  31.1313650 110.4584780
  29.8306950  31.8000670  95.9769310  29.2817050  32.2469970  96.6212050
  30.4526210  31.2949920  96.5006980  33.8841890  33.1542770 111.9091570
  34.6251360  33.4918530 111.4059030  33.1214570  33.3234830 111.3561340
  21.7203680  28.1596040 112.7131100  21.7609020  27.8609910 113.6216330
  22.5749180  28.5603650 112.5538620  25.4982070  30.7591590  97.8734610
  25.9198490  30.5931460  98.7166000  25.6232910  29.9491820  97.3789750
  23.6609490  26.7388140 110.6805590  23.1305950  26.2479090 110.0528930
  24.3297560  27.1672340 110.1463520  28.0109710  29.7829200  95.1211710
  28.5315370  29.0678220  94.7552860  28.6578110  30.4215070  95.4212220
  32.5587550  31.2057600 110.4446780  32.9728570  31.3602680 111.2937200
  31.6238550  31.3312820 110.6072560  33.0309720  28.5453760 112.4485930
  33.6130490  27.7906080 112.3606410  33.2071490  29.0761200 111.6717410
  24.1481790  23.7050510 110.7602880  24.0538660  23.0871260 110.0353750
  23.5679180  24.4316800 110.5332790  26.9143230  22.2623750 107.7930270
  26.4660530  22.2848010 106.9475820  26.2808430  21.8642770 108.3900570
  27.3202780  31.1578080 108.4142710  27.7390890  32.0010810 108.2418950
  26.4011410  31.2950120 108.1849490  29.6566680  28.8894260 109.7980550
  29.7762890  28.2935400 110.5375390  30.5160680  28.9263950 109.3781850
  31.9954580  29.4431450 108.3743060  31.4689800  29.9674070 107.7708200
  32.3385920  30.0758840 109.0052790  24.3940970  26.8324820  94.8192770
  24.1930030  25.9692180  95.1806110  24.2233020  26.7458180  93.8814370
  25.1710200  37.4631090 109.5300440  24.6331290  38.1877150 109.2109140
  25.4244160  36.9861430 108.7397780  26.4235450  25.4315610 111.0556370
  27.0135140  25.1231460 111.7434190  25.6055690  24.9595360 111.2116270
  31.2428880  25.0481420 111.2889390  30.5544400  24.3862960 111.2239380
  31.9634900  24.6019690 111.7337850  31.8729280  21.6433050  97.3479650
  32.1531570  20.8000950  97.7039070  31.0995010  21.8756160  97.8618400
  23.1923770  23.9325440  94.8070650  23.4949670  23.9392870  93.8989800
  23.9318360  23.5823300  95.3038310  28.0272410  38.6982300 109.7887090
  27.9531110  39.6017440 110.0959460  27.1251250  38.3794200 109.7609160
  26.4108700  22.8760060  95.7926850  26.0630700  22.1984050  95.2129300
  26.6121470  22.4149570  96.6070240  28.5757740  37.8640810  97.4113450
  29.4708530  38.2025780  97.4332210  28.6075370  37.1420220  96.7837730
  22.2153900  33.2367860  95.6400450  22.6528770  33.7797530  96.2958030
  22.7001630  32.4114810  95.6496790  19.4299700  36.0256890 103.0920710
  19.7602710  35.1577950 102.8599350  19.8590700  36.2315410 103.9225670
  24.0261620  34.3565900 100.7522680  23.7257160  34.2330870 101.6526590
  23.9199110  33.4974490 100.3438410  19.9189910  36.8927480 105.8302340
  19.4820900  37.0728280 106.6626490  20.4867590  37.6502100 105.6884060
  35.5552090  36.3944480 110.1179650  34.9554080  36.4537040 109.3743570
  35.6845990  35.4549460 110.2476500  19.7514340  29.4047710 102.1891220
  19.0963180  29.1359350 101.5450920  20.5892290  29.2952190 101.7393200
  34.2403730  33.1196460 108.2155810  33.4263570  33.5493620 108.4781600
  34.6477930  33.7314870 107.6024860  32.7004780  24.1989000  96.4109710
  33.1189660  24.0119980  95.5706370  32.3940840  23.3468050  96.7212640
  36.1994510  29.1113140 100.1085510  35.8238110  28.3441070  99.6766800
  35.4697630  29.4935840 100.5960440  20.7890270  29.7900280 106.7294560
  21.1563310  29.7027680 107.6090580  20.2201090  29.0266830 106.6301420
  35.5894130  28.2584660 109.7425030  35.3580220  28.0297410 108.8422980
  35.8498680  29.1784210 109.6969920  20.3406270  26.7009370 110.6352980
  19.4462320  26.6676130 110.9746690  20.8803820  26.8996160 111.4004230
  34.0282200  23.4841090 112.5204730  34.9052380  23.4924490 112.9038730
  34.0403040  22.7471930 111.9097080  18.9652420  26.6146640  98.1316550
  18.0616500  26.8776840  97.9568210  19.4493040  26.8857810  97.3516510
  35.4745470  27.3370630 103.4092750  35.9982950  26.8433280 102.7782920
  36.0604890  27.4720990 104.1540320  35.6535190  27.4210500 106.9312300
  34.7037900  27.3874040 107.0457290  35.8348200  28.3310610 106.6962070
  21.5079630  25.6712180  96.0410930  22.2171330  25.2495400  95.5558210
  20.7919570  25.7387410  95.4094280  21.1553790  21.7251510  95.0813580
  21.8781920  22.2660450  95.3994800  21.4278310  21.4514930  94.2055120
  34.9645440  26.5943980  99.3485160  35.4604560  26.3614850 100.1334040
  34.7661510  25.7555820  98.9322800  20.8445980  20.9757700 104.9836200
  21.4922170  20.4255080 104.5431360  21.2647820  21.2300850 105.8052010
  36.3932600  25.2304930 101.8822840  36.2831880  25.0760970 102.8205110
  37.1540190  24.7025870 101.6398250  34.7398320  21.1699060 108.3405840
  35.3770540  21.7833200 108.7065030  34.8873210  21.2059720 107.3955070
  37.2822870  23.0612850  95.1228980  38.2072180  22.9294030  94.9147270
  37.2598660  23.1405670  96.0765430  37.3561360  23.8323510  97.7485690
  36.5612860  23.7668630  98.2778600  37.5604640  24.7674150  97.7371040
  34.2979780  37.8715060 101.7424080  34.8938850  37.5499630 101.0658500
  34.5557930  37.3986880 102.5337350  20.5977980  21.1313370 107.7261520
  20.2492800  21.5877190 108.4919700  20.2665680  20.2370500 107.8083950
  22.2042350  34.3032970 111.8914710  22.1611980  33.9325880 112.7729170
  22.3353360  35.2410540 112.0316530  25.9048380  35.8592560 107.4924430
  25.6639740  36.1267120 106.6054950  26.8451020  36.0298290 107.5475290
  28.1102800  22.3225250 111.2480940  28.0491690  22.9147080 111.9976350
  29.0503180  22.2151210 111.1031200  30.7477360  21.9795310 110.8873230
  31.3617770  22.2974600 110.2254310  31.2926920  21.4943900 111.5069090
  37.1652540  37.8786940 108.2935070  36.6710820  38.2755810 107.5762200
  36.5565830  37.2536150 108.6872350  21.2698620  20.6589570 111.0012290
  21.8181610  20.4777620 110.2378400  21.3353930  19.8683680 111.5368600
  22.0430380  37.2495220 109.0112490  21.4490700  37.1179920 109.7502530
  22.0354220  36.4133360 108.5454590  31.4885400  20.5427450 107.2142520
  30.6145240  20.8762560 107.0115450  31.3796150  20.0700630 108.0394390
  32.3957380  22.7498320 108.5984240  32.0670740  21.9350080 108.2185970
  33.3439680  22.7068130 108.4749930  34.8491990  38.5210360 105.5721810
  34.3894960  39.2726170 105.1979830  34.2204450  37.8016830 105.5136610
  21.6742610  34.6153600 107.9620530  20.9476670  33.9958890 107.8946480
  21.7351760  35.0094210 107.0918610  25.2787710  36.8298600 104.7469940
  25.7952730  36.2185960 104.2218200  25.9285090  37.3327380 105.2380950
  28.0183210  37.7207090 105.5738920  28.3061020  37.4661390 104.6971930
  28.5306430  37.1684450 106.1644490  29.2360220  21.4597290 106.1535430
  28.4532010  21.9342790 106.4332190  28.9423150  20.5552120 106.0448610
  33.7881290  22.1620390 104.1984520  34.2289380  22.1065490 103.3506120
  33.5188880  23.0778400 104.2694700  35.6519860  21.7935630 102.2093340
  35.5908260  20.8496850 102.0624360  36.4311890  21.9015720 102.7546800
  19.9572610  37.9327990 101.1717290  19.7894650  37.2998670 101.8699180
  19.0907120  38.1387390 100.8211480  20.5800630  21.7644770  98.6749150
  21.3379990  21.8773650  98.1013180  20.1177800  22.6013970  98.6292580
  27.1214440  23.8784040 101.6651460  26.3088950  23.5040930 101.3247340
  27.6256080  23.1229120 101.9672650  31.6239420  20.5426490 102.9034530
  32.2268790  21.1146700 103.3783050  30.8832410  21.1065930 102.6808430
  34.7674020  20.9448050  98.1774810  34.9624650  21.8431500  98.4442240
  33.9803890  20.7135130  98.6707760  21.5635310  36.6261220  98.6167430
  21.0382930  37.0069250  97.9129390  21.4879890  37.2511990  99.3377140
  22.9525780  22.2908820  97.2151120  23.4818540  21.5038620  97.0859070
  23.5854100  22.9700010  97.4486650  25.1463620  22.0283960 100.2696510
  24.5166360  21.3271270 100.4366640  24.6068760  22.7888090 100.0529670
  28.0855570  38.6423190 112.9407120  29.0122880  38.4067460 112.9843080
  28.0706000  39.4695190 112.4593150  25.2719180  21.3067940 112.7049000
  24.9903450  21.8101540 111.9409820  25.6538880  20.5089690 112.3391130
  24.1628280  38.5743600  97.4916680  24.8947100  38.2902880  96.9440570
  24.4221950  38.3356880  98.3816060  23.3243070  34.6908330  97.4963010
  22.6951950  35.1593430  98.0448840  23.4390900  33.8457550  97.9309200
  31.8734640  20.7221520 113.2829470  31.7600090  21.0416130 114.1780990
  32.6904380  21.1234030 112.9866750  34.6533130  37.8693050 112.7648160
  35.4458450  37.3742280 112.5574120  34.9466280  38.5483190 113.3723770
  30.7792790  28.7413990  83.6464210  30.6986840  27.8268600  83.3755920
  30.3657210  29.2381060  82.9403920  28.9110830  30.5193010  85.5273480
  28.1352930  30.0393450  85.8172050  29.5623760  29.8398660  85.3529640
  22.9276660  30.8312820  86.4049240  22.0961540  30.5761530  86.8045750
  23.5357640  30.9023590  87.1407160  32.9318260  34.9253200  84.3072610
  32.4699790  34.1540440  84.6359780  33.7443810  34.9519270  84.8125060
  22.9077920  34.8652910  86.6007260  23.2105960  33.9750650  86.4217480
  23.6521510  35.4223130  86.3729510  21.3368610  25.7914710  80.1891630
  20.4485310  26.1330680  80.0871510  21.6209800  25.5915030  79.2972460
  19.3001620  28.3920360  86.0731330  19.8717730  27.6242560  86.0734970
  19.3003160  28.6909120  85.1637940  29.1581570  37.2111210  83.9276600
  28.5393010  37.6668710  83.3571040  30.0133350  37.3662670  83.5266300
  28.3519820  33.1950200  85.5343640  28.2828100  32.2540140  85.3732770
  29.1139680  33.2851610  86.1066210  20.5426490  23.8004720  87.8600260
  20.3629330  22.9030470  88.1403020  20.1406570  24.3476590  88.5347210
  29.3824990  26.0020580  85.7612570  29.7589810  25.1292460  85.6486240
  29.2844500  26.3379280  84.8703010  23.5130000  24.3746210  81.2230010
  23.6196750  25.2749940  81.5298770  22.6022360  24.3264180  80.9324660
  33.1649110  23.4971020  82.6940910  33.9858730  23.0067590  82.7366390
  33.1983190  24.0868680  83.4472750  21.1613160  26.2965220  86.4682600
  21.8423270  26.5603590  87.0870000  20.8461210  25.4566090  86.8020610
  25.3537730  27.3432580  85.5555190  25.8615950  27.8413550  86.1960210
  25.8850970  26.5667780  85.3794550  37.4548660  25.5137770  89.2584540
  36.7500830  25.9019480  88.7399650  37.7206580  26.2088060  89.8605470
  23.6373830  21.9831140  89.8218610  23.6392270  22.5003530  89.0164510
  22.8078140  21.5061320  89.7988540  30.0244920  32.0950450  81.3208510
  29.4062190  32.5599900  80.7571230  30.5368170  32.7877930  81.7378020
  24.8876680  31.6226320  87.9992110  24.5546060  32.2495240  88.6413180
  25.0643360  32.1488200  87.2193780  33.4010590  25.4371400  85.4668450
  32.6966160  25.7256290  86.0471560  33.7622750  26.2471510  85.1068010
  23.3189160  23.6941100  87.8289060  23.6605970  24.5383150  87.5342930
  22.3804970  23.8424840  87.9454400  24.0995780  33.5907120  89.8141290
  24.7169780  34.2658200  89.5325740  23.2388900  33.9995100  89.7228790
  19.3928120  32.7806980  78.6948140  19.0156100  33.2694080  77.9633040
  19.6501190  33.4532260  79.3254670  36.4697510  24.8826190  85.8577660
  35.5222420  24.9165170  85.9893090  36.7947500  25.6965140  86.2427020
  27.0017050  21.1823370  84.1533650  27.3092030  20.6270260  83.4369150
  26.0717750  21.3167830  83.9706640  32.5532110  36.8990660  86.4441110
  32.5659270  36.4952950  85.5763370  32.0007330  37.6737950  86.3402540
  33.8477530  33.6206880  81.5331280  33.7373860  32.6781210  81.6580700
  33.8445780  33.9822520  82.4194040  31.9517550  31.8020500  87.7723720
  32.3686340  31.5880610  86.9377180  32.6757370  32.0593290  88.3432340
  29.3897810  29.2472200  80.8893770  28.4627090  29.1809580  81.1182240
  29.5422630  30.1852330  80.7749010  29.3766890  25.5189200  77.8860930
  28.4370560  25.6803160  77.9713390  29.6950150  26.2374880  77.3396920
  33.4195100  30.8092500  81.3929020  32.8007520  30.4712050  80.7455320
  33.4019550  30.1652260  82.1008210  32.8621660  26.9877040  88.8094830
  32.4492840  27.8130750  89.0634820  32.1297610  26.4022080  88.6171190
  24.9954450  29.7736940  83.6713500  24.5911450  29.0614190  83.1759400
  25.0817570  29.4290180  84.5601540  25.4636150  33.4604500  85.8352710
  25.1664440  32.8549970  85.1560490  26.4135970  33.4981810  85.7242070
  23.7083070  26.5480150  87.4512540  24.2597660  26.6575490  86.6765790
  24.2226580  26.9217750  88.1667770  33.5521760  37.0336370  89.4975810
  33.0752320  37.8408560  89.3048420  32.8683550  36.3814700  89.6502020
  24.5554580  33.1986190  92.4860510  23.6583110  33.4226160  92.7333910
  24.5807450  33.3221130  91.5371910  31.5959800  30.0479310  78.4001770
  32.0353080  29.2101740  78.2539590  32.3088220  30.6808710  78.4865910
  23.3825800  30.0699510  91.0617880  23.2433570  30.9422310  91.4305280
  22.5007160  29.7272320  90.9165820  29.7055180  34.9875380  82.3683010
  30.1451090  35.7299710  81.9538400  29.6442070  35.2301950  83.2921970
  25.1806150  36.0121210  93.2703030  25.1521580  36.4164160  92.4031460
  25.0171120  35.0831570  93.1074630  35.1776940  21.3022120  76.7142810
  34.8649600  21.3948950  77.6141880  35.9389410  21.8803150  76.6640240
  21.6959080  28.6681920  81.1720150  21.5756680  29.3944010  80.5601420
  21.3859970  27.8984830  80.6948060  19.3344450  31.8397060  86.9788790
  19.4124870  31.9745830  86.0344510  19.9486130  31.1312950  87.1716910
  20.5792080  33.5397250  83.3894970  20.1720160  33.6811840  82.5348570
  21.4705090  33.2557410  83.1866180  30.3970960  37.6889160  90.2962020
  30.9115630  37.5997170  91.0984450  29.5540040  38.0348860  90.5889930
  32.3725360  37.9744500  79.7246020  32.2126500  37.6847440  80.6227850
  32.2072070  37.1984630  79.1891250  31.6401420  37.1094770  82.3592510
  32.0958370  36.3284150  82.6731130  31.9793940  37.8201590  82.9033690
  19.3903970  32.8811230  89.5183250  19.5535010  32.4116590  88.7002620
  19.8556420  32.3734790  90.1832090  24.1622740  22.0116990  84.5543820
  23.7190890  22.7926530  84.2228340  24.7207730  22.3346880  85.2614760
  28.4492550  24.8785510  90.1579140  27.9871920  25.0868530  90.9699080
  28.0470660  24.0644860  89.8549810  33.4497060  26.0994460  91.2875800
  32.5990650  25.8000210  91.6084870  33.2898850  26.3436470  90.3759620
  30.5446770  27.5996210  93.3874590  30.8700180  26.7659960  93.0476820
  31.3327100  28.1224730  93.5352920  27.2781560  21.6327690  79.4349650
  26.6535740  21.6287560  80.1602960  27.1911680  20.7658650  79.0385620
  26.1998640  22.5564320  86.4133420  26.4970970  23.4627150  86.3325440
  26.7484200  22.0683100  85.7992990  23.9536960  27.1350560  82.2825070
  23.7277880  26.9187730  83.1871690  23.1729490  27.5679020  81.9371040
  31.1834720  27.1413930  80.8815720  30.5843610  27.8649730  80.6979340
  31.7314330  27.0790710  80.0992170  26.3936170  28.0336140  92.9485340
  26.2979770  27.0930870  92.7985740  27.2368150  28.2551210  92.5533410
  29.7899590  25.7777470  82.9119000  30.1829160  26.0949670  82.0987690
  30.1516440  24.8989350  83.0263520  21.5246710  24.4449810  91.1019120
  21.1310100  25.2925020  91.3091900  20.8365110  23.8076180  91.2927760
  28.0991760  24.5284780  94.1715860  27.4090080  24.3356980  94.8061950
  28.8424060  24.8119420  94.7040160  18.8263760  22.3678270  85.1349200
  18.5376810  22.9381130  85.8474180  19.5709520  21.8882720  85.4980430
  19.0133990  26.3098390  76.3451920  18.9308660  27.2529150  76.4866910
  18.6617050  26.1673300  75.4664270  30.3754730  28.3683220  87.0069780
  29.6435850  28.8770030  87.3559880  29.9779070  27.5513200  86.7058560
  26.8132120  25.0437420  85.4122270  26.8168180  24.6027370  84.5626810
  27.7083240  25.3654750  85.5194090  22.6634500  24.9263910  84.3716480
  22.3234550  25.4039140  85.1283530  21.9011820  24.4729030  84.0117580
  26.8752270  26.0449500  78.4029030  26.9965090  26.0035980  79.3514850
  26.4900780  26.9073650  78.2475760  30.8380640  23.8216900  86.4192720
  30.8553380  24.2725550  87.2634570  30.5896220  22.9222540  86.6326160
  25.8873770  28.3550640  77.8012330  25.3190670  27.9068890  77.1748240
  26.5962770  28.7143420  77.2677480  34.2651390  21.2349080  92.2579100
  34.5897160  20.5038740  92.7837080  34.3007900  20.9162720  91.3560090
  20.9642950  32.2562660  91.6779060  20.5797740  31.6156330  92.2762020
  21.2755140  32.9598780  92.2473790  27.1140090  29.1039200  87.1587680
  27.4810220  28.6297770  87.9049020  26.9245150  29.9780770  87.4996020
  19.9780580  23.8482890  83.2881150  19.6927500  23.4838560  84.1259770
  19.9159440  23.1163350  82.6744290  24.9039460  28.1447840  89.4771890
  24.5996530  29.0239820  89.7022250  25.8585920  28.2047630  89.5129330
  23.4321250  32.3508830  80.0738740  22.6583510  31.8106450  79.9137460
  24.1615880  31.8315440  79.7356500  29.6519170  22.7412150  80.0094520
  28.8383780  22.2425320  79.9339830  29.4581120  23.5810400  79.5930870
  29.5728030  31.4183250  91.7534130  29.5065340  30.4978920  91.4991720
  28.9433170  31.5158690  92.4678770  32.3667560  27.1131800  78.3056680
  33.2547180  27.4249030  78.1308020  32.3372650  26.2404050  77.9137260
  23.4758650  32.0189210  83.7117550  23.9937320  31.2157470  83.6574440
  23.0242670  31.9568350  84.5534380  28.3628150  33.2855490  78.9844850
  28.7043850  34.0297720  78.4888170  27.5340860  33.5986610  79.3469680
  20.9603190  28.9850580  90.6243250  20.6018130  29.6504430  91.2116590
  20.6657750  28.1534130  90.9955870  24.1616310  29.4434820  93.5082800
  23.8616450  29.5892000  92.6110620  24.9327550  28.8840110  93.4156190
  29.5044760  34.2403820  91.5037930  29.5189300  33.3084780  91.2856840
  28.7969860  34.3263580  92.1427700  34.6381830  28.4243640  77.7736540
  34.5545550  28.8557860  76.9232980  35.3576020  28.8841990  78.2063360
  35.7155970  30.8811160  90.8506510  34.9904160  31.4739940  90.6535900
  36.2431430  30.8734700  90.0519880  35.6669080  35.2785900  80.5018670
  35.0245240  34.6241520  80.7762390  35.2799740  35.6840990  79.7259340
  31.2455560  32.6071330  84.3490360  31.5979380  32.0099460  83.6891730
  30.3617890  32.2815560  84.5198610  27.3318840  33.3669020  81.7560770
  28.0189970  33.9138230  82.1368360  26.5451260  33.9109750  81.7910380
  19.4711240  28.9841840  77.2477850  20.3406090  29.2666640  77.5313770
  18.9801560  29.7977710  77.1326660  26.6346050  30.3715050  81.3686130
  27.0908830  31.1820300  81.5946320  26.2834260  30.0538190  82.2004620
  28.9378660  35.8821390  88.5978430  29.5820880  36.0880770  89.2751850
  29.3008100  35.1209790  88.1449280  22.5357830  20.7152700  81.8408650
  22.4072460  20.7070600  82.7893570  21.7119850  21.0535790  81.4899660
  30.2110740  33.8853740  87.3155880  30.8532970  33.1846900  87.4288050
  30.7360090  34.6652180  87.1352770  31.9848360  34.6848640  90.5191940
  32.3204600  35.2715330  91.1969860  31.0648700  34.5541350  90.7489730
  19.8382490  38.1969220  77.8139480  20.1980130  38.7958560  77.1596750
  19.6974830  38.7429110  78.5874510  19.5351760  22.4743820  91.3015350
  18.8210280  22.6740740  91.9067960  19.9546800  21.6983390  91.6730150
  19.8224350  36.4624080  92.2881880  19.9315470  35.5218820  92.1477270
  19.1704910  36.7278830  91.6395610  27.8136940  34.7339970  93.6880000
  27.4933810  34.0149210  94.2325690  27.1395300  35.4095040  93.7616060
  25.8551110  35.5800420  78.6313150  25.8461210  36.3130110  78.0157660
  24.9349470  35.3332000  78.7240110  21.4557750  30.8015310  79.3759910
  20.8485700  31.5414210  79.3855210  21.9307100  30.8914670  78.5498110
  31.0290540  24.9666130  89.0516800  31.3971360  24.1461340  89.3796370
  30.1688740  25.0268020  89.4672450  34.3952570  23.9223070  79.8604360
  33.7665730  24.0268740  79.1462590  33.9004490  24.1419850  80.6498240
  26.3636600  26.2009020  81.2762240  25.6552750  26.6695360  81.7175850
  26.6481080  25.5431030  81.9107430  27.9892530  27.6205720  89.2754770
  28.4877780  28.0951540  89.9406620  28.1315480  26.6969240  89.4824800
  30.3952030  22.9259680  82.7158030  30.2719810  22.9445810  81.7667540
  31.3436590  22.9738620  82.8356430  24.5671620  24.5094100  78.6512950
  25.4162150  24.9464250  78.5853140  24.2002890  24.8214360  79.4785010
  35.1959390  23.8373680  90.1183160  34.6932990  24.5779080  90.4576970
  36.0116050  24.2257680  89.8019950  33.4881400  29.0806860  83.5644520
  32.5471540  29.0957090  83.7392210  33.8025470  28.2942820  84.0104820
  23.4663040  30.7626460  77.1248480  24.2326310  30.6507820  77.6873910
  23.5437730  30.0664430  76.4725250  22.1609800  28.1951530  77.8081370
  22.2413390  27.2479040  77.9198770  23.0529550  28.5258410  77.9142030
  22.9624510  38.3446920  84.9115910  23.6986990  37.7962380  85.1824480
  23.3465430  39.2102930  84.7721900  19.8469990  34.4120490  80.7857420
  18.9209770  34.6541630  80.7762830  20.3126420  35.2394750  80.6642170
  21.9682790  37.5292990  94.1001490  22.7695520  37.8505040  94.5136890
  21.4534610  37.1688570  94.8221400  26.0726820  37.5177230  76.7341480
  26.8655430  37.8066060  76.2823270  25.5531170  37.0869400  76.0553960
  30.8047420  33.6372860  94.0476900  30.1985580  33.6604460  93.3072650
  30.5001530  32.9055900  94.5844150  35.1256990  36.7447360  78.1578220
  34.8398500  36.3312500  77.3432400  34.9276540  37.6735070  78.0378740
  19.6880600  30.0166450  93.0437540  20.1919620  29.4373730  93.6153770
  18.9488020  30.3006680  93.5813910  26.5904220  32.7380640  76.5983830
  26.4854860  32.1232990  77.3245210  26.4228440  32.2146530  75.8146840
  26.7418540  31.4237440  92.5773060  25.9764210  31.9922440  92.4927730
  26.9234500  31.1313650  91.6841290  21.7203680  28.1596040  93.9387610
  21.7609020  27.8609910  94.8472840  22.5749180  28.5603650  93.7795130
  25.4982070  30.7591590  79.0991120  25.9198490  30.5931460  79.9422510
  25.6232910  29.9491820  78.6046260  23.6609490  26.7388140  91.9062100
  23.1305950  26.2479090  91.2785440  24.3297560  27.1672340  91.3720030
  28.0109710  29.7829200  76.3468220  28.5315370  29.0678220  75.9809370
  28.6578110  30.4215070  76.6468730  32.5587550  31.2057600  91.6703290
  32.9728570  31.3602680  92.5193710  31.6238550  31.3312820  91.8329070
  33.0309720  28.5453760  93.6742440  33.6130490  27.7906080  93.5862920
  33.2071490  29.0761200  92.8973920  24.1481790  23.7050510  91.9859390
  24.0538660  23.0871260  91.2610260  23.5679180  24.4316800  91.7589300
  26.9143230  22.2623750  89.0186780  26.4660530  22.2848010  88.1732330
  26.2808430  21.8642770  89.6157080  27.3202780  31.1578080  89.6399220
  27.7390890  32.0010810  89.4675460  26.4011410  31.2950120  89.4106000
  29.6566680  28.8894260  91.0237060  29.7762890  28.2935400  91.7631900
  30.5160680  28.9263950  90.6038360  31.9954580  29.4431450  89.5999570
  31.4689800  29.9674070  88.9964710  32.3385920  30.0758840  90.2309300
  24.3940970  26.8324820  76.0449280  24.1930030  25.9692180  76.4062620
  24.2233020  26.7458180  75.1070880  25.1710200  37.4631090  90.7556950
  24.6331290  38.1877150  90.4365650  25.4244160  36.9861430  89.9654290
  26.4235450  25.4315610  92.2812880  27.0135140  25.1231460  92.9690700
  25.6055690  24.9595360  92.4372780  31.2428880  25.0481420  92.5145900
  30.5544400  24.3862960  92.4495890  31.9634900  24.6019690  92.9594360
  31.8729280  21.6433050  78.5736160  32.1531570  20.8000950  78.9295580
  31.0995010  21.8756160  79.0874910  23.1923770  23.9325440  76.0327160
  23.4949670  23.9392870  75.1246310  23.9318360  23.5823300  76.5294820
  28.0272410  38.6982300  91.0143600  27.9531110  39.6017440  91.3215970
  27.1251250  38.3794200  90.9865670  26.4108700  22.8760060  77.0183360
  26.0630700  22.1984050  76.4385810  26.6121470  22.4149570  77.8326750
  22.2153900  33.2367860  76.8656960  22.6528770  33.7797530  77.5214540
  22.7001630  32.4114810  76.8753300  19.4299700  36.0256890  84.3177220
  19.7602710  35.1577950  84.0855860  19.8590700  36.2315410  85.1482180
  24.0261620  34.3565900  81.9779190  23.7257160  34.2330870  82.8783100
  23.9199110  33.4974490  81.5694920  19.9189910  36.8927480  87.0558850
  19.4820900  37.0728280  87.8883000  20.4867590  37.6502100  86.9140570
  36.7953540  34.1362300  76.6805870  35.9646500  34.2038950  77.1513100
  36.9725370  35.0266420  76.3772730  36.2510000  30.8809780  79.1840070
  37.0128910  31.4506430  79.2899760  36.2664370  30.3136980  79.9548380
  19.7514340  29.4047710  83.4147730  19.0963180  29.1359350  82.7707430
  20.5892290  29.2952190  82.9649710  34.2403730  33.1196460  89.4412320
  33.4263570  33.5493620  89.7038110  34.6477930  33.7314870  88.8281370
  36.3029170  31.1744150  76.3412590  36.5778010  32.0823030  76.2131810
  36.1139910  31.1106680  77.2774580  32.7004780  24.1989000  77.6366220
  33.1189660  24.0119980  76.7962880  32.3940840  23.3468050  77.9469150
  36.1994510  29.1113140  81.3342020  35.8238110  28.3441070  80.9023310
  35.4697630  29.4935840  81.8216950  20.7890270  29.7900280  87.9551070
  21.1563310  29.7027680  88.8347090  20.2201090  29.0266830  87.8557930
  35.5894130  28.2584660  90.9681540  35.3580220  28.0297410  90.0679490
  35.8498680  29.1784210  90.9226430  20.3406270  26.7009370  91.8609490
  19.4462320  26.6676130  92.2003200  20.8803820  26.8996160  92.6260740
  34.0282200  23.4841090  93.7461240  34.9052380  23.4924490  94.1295240
  34.0403040  22.7471930  93.1353590  18.9652420  26.6146640  79.3573060
  18.0616500  26.8776840  79.1824720  19.4493040  26.8857810  78.5773020
  35.4745470  27.3370630  84.6349260  35.9982950  26.8433280  84.0039430
  36.0604890  27.4720990  85.3796830  35.6535190  27.4210500  88.1568810
  34.7037900  27.3874040  88.2713800  35.8348200  28.3310610  87.9218580
  21.5079630  25.6712180  77.2667440  22.2171330  25.2495400  76.7814720
  20.7919570  25.7387410  76.6350790  21.1553790  21.7251510  76.3070090
  21.8781920  22.2660450  76.6251310  21.4278310  21.4514930  75.4311630
  34.9645440  26.5943980  80.5741670  35.4604560  26.3614850  81.3590550
  34.7661510  25.7555820  80.1579310  20.8445980  20.9757700  86.2092710
  21.4922170  20.4255080  85.7687870  21.2647820  21.2300850  87.0308520
  36.3932600  25.2304930  83.1079350  36.2831880  25.0760970  84.0461620
  37.1540190  24.7025870  82.8654760  34.7398320  21.1699060  89.5662350
  35.3770540  21.7833200  89.9321540  34.8873210  21.2059720  88.6211580
  37.2822870  23.0612850  76.3485490  38.2072180  22.9294030  76.1403780
  37.2598660  23.1405670  77.3021940  37.3561360  23.8323510  78.9742200
  36.5612860  23.7668630  79.5035110  37.5604640  24.7674150  78.9627550
  34.2979780  37.8715060  82.9680590  34.8938850  37.5499630  82.2915010
  34.5557930  37.3986880  83.7593860  20.5977980  21.1313370  88.9518030
  20.2492800  21.5877190  89.7176210  20.2665680  20.2370500  89.0340460
  22.2042350  34.3032970  93.1171220  22.1611980  33.9325880  93.9985680
  22.3353360  35.2410540  93.2573040  25.9048380  35.8592560  88.7180940
  25.6639740  36.1267120  87.8311460  26.8451020  36.0298290  88.7731800
  28.1102800  22.3225250  92.4737450  28.0491690  22.9147080  93.2232860
  29.0503180  22.2151210  92.3287710  30.7477360  21.9795310  92.1129740
  31.3617770  22.2974600  91.4510820  31.2926920  21.4943900  92.7325600
  21.2698620  20.6589570  92.2268800  21.8181610  20.4777620  91.4634910
  21.3353930  19.8683680  92.7625110  22.0430380  37.2495220  90.2369000
  21.4490700  37.1179920  90.9759040  22.0354220  36.4133360  89.7711100
  31.4885400  20.5427450  88.4399030  30.6145240  20.8762560  88.2371960
  31.3796150  20.0700630  89.2650900  32.3957380  22.7498320  89.8240750
  32.0670740  21.9350080  89.4442480  33.3439680  22.7068130  89.7006440
  34.8491990  38.5210360  86.7978320  34.3894960  39.2726170  86.4236340
  34.2204450  37.8016830  86.7393120  21.6742610  34.6153600  89.1877040
  20.9476670  33.9958890  89.1202990  21.7351760  35.0094210  88.3175120
  25.2787710  36.8298600  85.9726450  25.7952730  36.2185960  85.4474710
  25.9285090  37.3327380  86.4637460  28.0183210  37.7207090  86.7995430
  28.3061020  37.4661390  85.9228440  28.5306430  37.1684450  87.3901000
  29.2360220  21.4597290  87.3791940  28.4532010  21.9342790  87.6588700
  28.9423150  20.5552120  87.2705120  33.7881290  22.1620390  85.4241030
  34.2289380  22.1065490  84.5762630  33.5188880  23.0778400  85.4951210
  35.6519860  21.7935630  83.4349850  35.5908260  20.8496850  83.2880870
  36.4311890  21.9015720  83.9803310  19.9572610  37.9327990  82.3973800
  19.7894650  37.2998670  83.0955690  19.0907120  38.1387390  82.0467990
  20.5800630  21.7644770  79.9005660  21.3379990  21.8773650  79.3269690
  20.1177800  22.6013970  79.8549090  27.1214440  23.8784040  82.8907970
  26.3088950  23.5040930  82.5503850  27.6256080  23.1229120  83.1929160
  31.6239420  20.5426490  84.1291040  32.2268790  21.1146700  84.6039560
  30.8832410  21.1065930  83.9064940  34.7674020  20.9448050  79.4031320
  34.9624650  21.8431500  79.6698750  33.9803890  20.7135130  79.8964270
  21.5635310  36.6261220  79.8423940  21.0382930  37.0069250  79.1385900
  21.4879890  37.2511990  80.5633650  22.9525780  22.2908820  78.4407630
  23.4818540  21.5038620  78.3115580  23.5854100  22.9700010  78.6743160
  25.1463620  22.0283960  81.4953020  24.5166360  21.3271270  81.6623150
  24.6068760  22.7888090  81.2786180  28.0855570  38.6423190  94.1663630
  29.0122880  38.4067460  94.2099590  28.0706000  39.4695190  93.6849660
  36.3200630  38.1848760  81.1637880  36.4952820  37.4986500  80.5198800
  35.6222200  38.7095810  80.7714550  25.2719180  21.3067940  93.9305510
  24.9903450  21.8101540  93.1666330  25.6538880  20.5089690  93.5647640
  23.3243070  34.6908330  78.7219520  22.6951950  35.1593430  79.2705350
  23.4390900  33.8457550  79.1565710  31.8734640  20.7221520  94.5085980
  31.7600090  21.0416130  95.4037500  32.6904380  21.1234030  94.2123260
  30.7792790  28.7413990  64.8720720  30.6986840  27.8268600  64.6012430
  30.3657210  29.2381060  64.1660430  28.9110830  30.5193010  66.7529990
  28.1352930  30.0393450  67.0428560  29.5623760  29.8398660  66.5786150
  22.9276660  30.8312820  67.6305750  22.0961540  30.5761530  68.0302260
  23.5357640  30.9023590  68.3663670  32.9318260  34.9253200  65.5329120
  32.4699790  34.1540440  65.8616290  33.7443810  34.9519270  66.0381570
  22.9077920  34.8652910  67.8263770  23.2105960  33.9750650  67.6473990
  23.6521510  35.4223130  67.5986020  21.3368610  25.7914710  61.4148140
  20.4485310  26.1330680  61.3128020  21.6209800  25.5915030  60.5228970
  19.3001620  28.3920360  67.2987840  19.8717730  27.6242560  67.2991480
  19.3003160  28.6909120  66.3894450  29.1581570  37.2111210  65.1533110
  28.5393010  37.6668710  64.5827550  30.0133350  37.3662670  64.7522810
  28.3519820  33.1950200  66.7600150  28.2828100  32.2540140  66.5989280
  29.1139680  33.2851610  67.3322720  20.5426490  23.8004720  69.0856770
  20.3629330  22.9030470  69.3659530  20.1406570  24.3476590  69.7603720
  29.3824990  26.0020580  66.9869080  29.7589810  25.1292460  66.8742750
  29.2844500  26.3379280  66.0959520  23.5130000  24.3746210  62.4486520
  23.6196750  25.2749940  62.7555280  22.6022360  24.3264180  62.1581170
  33.1649110  23.4971020  63.9197420  33.9858730  23.0067590  63.9622900
  33.1983190  24.0868680  64.6729260  21.1613160  26.2965220  67.6939110
  21.8423270  26.5603590  68.3126510  20.8461210  25.4566090  68.0277120
  25.3537730  27.3432580  66.7811700  25.8615950  27.8413550  67.4216720
  25.8850970  26.5667780  66.6051060  23.6373830  21.9831140  71.0475120
  23.6392270  22.5003530  70.2421020  22.8078140  21.5061320  71.0245050
  30.0244920  32.0950450  62.5465020  29.4062190  32.5599900  61.9827740
  30.5368170  32.7877930  62.9634530  24.8876680  31.6226320  69.2248620
  24.5546060  32.2495240  69.8669690  25.0643360  32.1488200  68.4450290
  23.3189160  23.6941100  69.0545570  23.6605970  24.5383150  68.7599440
  22.3804970  23.8424840  69.1710910  24.0995780  33.5907120  71.0397800
  24.7169780  34.2658200  70.7582250  23.2388900  33.9995100  70.9485300
  19.3928120  32.7806980  59.9204650  19.0156100  33.2694080  59.1889550
  19.6501190  33.4532260  60.5511180  35.0173370  35.0546530  68.9552440
  34.3336890  35.7245640  68.9469110  35.5567660  35.2527180  68.1897300
  27.0017050  21.1823370  65.3790160  27.3092030  20.6270260  64.6625660
  26.0717750  21.3167830  65.1963150  31.9517550  31.8020500  68.9980230
  32.3686340  31.5880610  68.1633690  32.6757370  32.0593290  69.5688850
  29.3897810  29.2472200  62.1150280  28.4627090  29.1809580  62.3438750
  29.5422630  30.1852330  62.0005520  29.3766890  25.5189200  59.1117440
  28.4370560  25.6803160  59.1969900  29.6950150  26.2374880  58.5653430
  33.4195100  30.8092500  62.6185530  32.8007520  30.4712050  61.9711830
  33.4019550  30.1652260  63.3264720  24.9954450  29.7736940  64.8970010
  24.5911450  29.0614190  64.4015910  25.0817570  29.4290180  65.7858050
  25.4636150  33.4604500  67.0609220  25.1664440  32.8549970  66.3817000
  26.4135970  33.4981810  66.9498580  23.7083070  26.5480150  68.6769050
  24.2597660  26.6575490  67.9022300  24.2226580  26.9217750  69.3924280
  24.5554580  33.1986190  73.7117020  23.6583110  33.4226160  73.9590420
  24.5807450  33.3221130  72.7628420  31.5959800  30.0479310  59.6258280
  32.0353080  29.2101740  59.4796100  32.3088220  30.6808710  59.7122420
  23.3825800  30.0699510  72.2874390  23.2433570  30.9422310  72.6561790
  22.5007160  29.7272320  72.1422330  29.7055180  34.9875380  63.5939520
  30.1451090  35.7299710  63.1794910  29.6442070  35.2301950  64.5178480
  25.1806150  36.0121210  74.4959540  25.1521580  36.4164160  73.6287970
  25.0171120  35.0831570  74.3331140  35.1776940  21.3022120  57.9399320
  34.8649600  21.3948950  58.8398390  35.9389410  21.8803150  57.8896750
  21.6959080  28.6681920  62.3976660  21.5756680  29.3944010  61.7857930
  21.3859970  27.8984830  61.9204570  19.3344450  31.8397060  68.2045300
  19.4124870  31.9745830  67.2601020  19.9486130  31.1312950  68.3973420
  20.5792080  33.5397250  64.6151480  20.1720160  33.6811840  63.7605080
  21.4705090  33.2557410  64.4122690  36.5354220  33.9861160  72.9523720
  36.6617280  33.7473040  72.0340900  36.5775600  33.1545700  73.4245800
  32.3725360  37.9744500  60.9502530  32.2126500  37.6847440  61.8484360
  32.2072070  37.1984630  60.4147760  24.8513740  37.7543030  62.7274150
  24.6756220  36.8378570  62.5141950  23.9969480  38.1130320  62.9671950
  31.6401420  37.1094770  63.5849020  32.0958370  36.3284150  63.8987640
  31.9793940  37.8201590  64.1290200  36.3878230  26.0393620  73.9173460
  35.7722500  26.5473290  73.3888920  36.0674650  25.1391950  73.8599400
  19.3903970  32.8811230  70.7439760  19.5535010  32.4116590  69.9259130
  19.8556420  32.3734790  71.4088600  24.1622740  22.0116990  65.7800330
  23.7190890  22.7926530  65.4484850  24.7207730  22.3346880  66.4871270
  28.4492550  24.8785510  71.3835650  27.9871920  25.0868530  72.1955590
  28.0470660  24.0644860  71.0806320  33.4497060  26.0994460  72.5132310
  32.5990650  25.8000210  72.8341380  33.2898850  26.3436470  71.6016130
  30.5446770  27.5996210  74.6131100  30.8700180  26.7659960  74.2733330
  31.3327100  28.1224730  74.7609430  27.2781560  21.6327690  60.6606160
  26.6535740  21.6287560  61.3859470  27.1911680  20.7658650  60.2642130
  26.1998640  22.5564320  67.6389930  26.4970970  23.4627150  67.5581950
  26.7484200  22.0683100  67.0249500  23.9536960  27.1350560  63.5081580
  23.7277880  26.9187730  64.4128200  23.1729490  27.5679020  63.1627550
  31.1834720  27.1413930  62.1072230  30.5843610  27.8649730  61.9235850
  31.7314330  27.0790710  61.3248680  26.3936170  28.0336140  74.1741850
  26.2979770  27.0930870  74.0242250  27.2368150  28.2551210  73.7789920
  29.7899590  25.7777470  64.1375510  30.1829160  26.0949670  63.3244200
  30.1516440  24.8989350  64.2520030  21.5246710  24.4449810  72.3275630
  21.1310100  25.2925020  72.5348410  20.8365110  23.8076180  72.5184270
  28.0991760  24.5284780  75.3972370  27.4090080  24.3356980  76.0318460
  28.8424060  24.8119420  75.9296670  18.8263760  22.3678270  66.3605710
  18.5376810  22.9381130  67.0730690  19.5709520  21.8882720  66.7236940
  19.0133990  26.3098390  57.5708430  18.9308660  27.2529150  57.7123420
  18.6617050  26.1673300  56.6920780  30.3754730  28.3683220  68.2326290
  29.6435850  28.8770030  68.5816390  29.9779070  27.5513200  67.9315070
  26.8132120  25.0437420  66.6378780  26.8168180  24.6027370  65.7883320
  27.7083240  25.3654750  66.7450600  22.6634500  24.9263910  65.5972990
  22.3234550  25.4039140  66.3540040  21.9011820  24.4729030  65.2374090
  26.8752270  26.0449500  59.6285540  26.9965090  26.0035980  60.5771360
  26.4900780  26.9073650  59.4732270  30.8380640  23.8216900  67.6449230
  30.8553380  24.2725550  68.4891080  30.5896220  22.9222540  67.8582670
  25.8873770  28.3550640  59.0268840  25.3190670  27.9068890  58.4004750
  26.5962770  28.7143420  58.4933990  34.2651390  21.2349080  73.4835610
  34.5897160  20.5038740  74.0093590  34.3007900  20.9162720  72.5816600
  20.9642950  32.2562660  72.9035570  20.5797740  31.6156330  73.5018530
  21.2755140  32.9598780  73.4730300  27.1140090  29.1039200  68.3844190
  27.4810220  28.6297770  69.1305530  26.9245150  29.9780770  68.7252530
  19.9780580  23.8482890  64.5137660  19.6927500  23.4838560  65.3516280
  19.9159440  23.1163350  63.9000800  24.9039460  28.1447840  70.7028400
  24.5996530  29.0239820  70.9278760  25.8585920  28.2047630  70.7385840
  23.4321250  32.3508830  61.2995250  22.6583510  31.8106450  61.1393970
  24.1615880  31.8315440  60.9613010  29.6519170  22.7412150  61.2351030
  28.8383780  22.2425320  61.1596340  29.4581120  23.5810400  60.8187380
  32.3667560  27.1131800  59.5313190  33.2547180  27.4249030  59.3564530
  32.3372650  26.2404050  59.1393770  23.4758650  32.0189210  64.9374060
  23.9937320  31.2157470  64.8830950  23.0242670  31.9568350  65.7790890
  28.3628150  33.2855490  60.2101360  28.7043850  34.0297720  59.7144680
  27.5340860  33.5986610  60.5726190  20.9603190  28.9850580  71.8499760
  20.6018130  29.6504430  72.4373100  20.6657750  28.1534130  72.2212380
  24.1616310  29.4434820  74.7339310  23.8616450  29.5892000  73.8367130
  24.9327550  28.8840110  74.6412700  34.6381830  28.4243640  58.9993050
  34.5545550  28.8557860  58.1489490  35.3576020  28.8841990  59.4319870
  35.7155970  30.8811160  72.0763020  34.9904160  31.4739940  71.8792410
  36.2431430  30.8734700  71.2776390  31.2455560  32.6071330  65.5746870
  31.5979380  32.0099460  64.9148240  30.3617890  32.2815560  65.7455120
  27.3318840  33.3669020  62.9817280  28.0189970  33.9138230  63.3624870
  26.5451260  33.9109750  63.0166890  19.4711240  28.9841840  58.4734360
  20.3406090  29.2666640  58.7570280  18.9801560  29.7977710  58.3583170
  26.6346050  30.3715050  62.5942640  27.0908830  31.1820300  62.8202830
  26.2834260  30.0538190  63.4261130  28.9378660  35.8821390  69.8234940
  29.5820880  36.0880770  70.5008360  29.3008100  35.1209790  69.3705790
  22.5357830  20.7152700  63.0665160  22.4072460  20.7070600  64.0150080
  21.7119850  21.0535790  62.7156170  30.2110740  33.8853740  68.5412390
  30.8532970  33.1846900  68.6544560  30.7360090  34.6652180  68.3609280
  34.0566460  34.1702360  58.2651530  33.8304040  33.4532800  58.8576170
  33.6662660  33.9214800  57.4273280  31.9848360  34.6848640  71.7448450
  32.3204600  35.2715330  72.4226370  31.0648700  34.5541350  71.9746240
  19.8382490  38.1969220  59.0395990  20.1980130  38.7958560  58.3853260
  19.6974830  38.7429110  59.8131020  19.5351760  22.4743820  72.5271860
  18.8210280  22.6740740  73.1324470  19.9546800  21.6983390  72.8986660
  33.6382710  32.0874300  59.9265690  33.3504410  32.5486990  60.7143570
  34.4334880  31.6272070  60.1949910  19.8224350  36.4624080  73.5138390
  19.9315470  35.5218820  73.3733780  19.1704910  36.7278830  72.8652120
  25.8551110  35.5800420  59.8569660  25.8461210  36.3130110  59.2414170
  24.9349470  35.3332000  59.9496620  21.4557750  30.8015310  60.6016420
  20.8485700  31.5414210  60.6111720  21.9307100  30.8914670  59.7754620
  31.0290540  24.9666130  70.2773310  31.3971360  24.1461340  70.6052880
  30.1688740  25.0268020  70.6928960  34.3952570  23.9223070  61.0860870
  33.7665730  24.0268740  60.3719100  33.9004490  24.1419850  61.8754750
  26.3636600  26.2009020  62.5018750  25.6552750  26.6695360  62.9432360
  26.6481080  25.5431030  63.1363940  27.9892530  27.6205720  70.5011280
  28.4877780  28.0951540  71.1663130  28.1315480  26.6969240  70.7081310
  30.3952030  22.9259680  63.9414540  30.2719810  22.9445810  62.9924050
  31.3436590  22.9738620  64.0612940  27.4828820  38.1614980  63.2142520
  27.7370320  38.1236370  62.2921890  26.5341300  38.0348310  63.2070770
  24.5671620  24.5094100  59.8769460  25.4162150  24.9464250  59.8109650
  24.2002890  24.8214360  60.7041520  35.1959390  23.8373680  71.3439670
  34.6932990  24.5779080  71.6833480  36.0116050  24.2257680  71.0276460
  33.4881400  29.0806860  64.7901030  32.5471540  29.0957090  64.9648720
  33.8025470  28.2942820  65.2361330  23.4663040  30.7626460  58.3504990
  24.2326310  30.6507820  58.9130420  23.5437730  30.0664430  57.6981760
  22.1609800  28.1951530  59.0337880  22.2413390  27.2479040  59.1455280
  23.0529550  28.5258410  59.1398540  35.4906980  36.2515710  66.4655290
  35.6154400  37.0746880  66.9379100  36.3572540  36.0406440  66.1179440
  22.9624510  38.3446920  66.1372420  23.6986990  37.7962380  66.4080990
  23.3465430  39.2102930  65.9978410  19.8469990  34.4120490  62.0113930
  18.9209770  34.6541630  62.0019340  20.3126420  35.2394750  61.8898680
  21.9682790  37.5292990  75.3258000  22.7695520  37.8505040  75.7393400
  21.4534610  37.1688570  76.0477910  26.0726820  37.5177230  57.9597990
  26.8655430  37.8066060  57.5079780  25.5531170  37.0869400  57.2810470
  35.1256990  36.7447360  59.3834730  34.8398500  36.3312500  58.5688910
  34.9276540  37.6735070  59.2635250  19.6880600  30.0166450  74.2694050
  20.1919620  29.4373730  74.8410280  18.9488020  30.3006680  74.8070420
  26.5904220  32.7380640  57.8240340  26.4854860  32.1232990  58.5501720
  26.4228440  32.2146530  57.0403350  26.7418540  31.4237440  73.8029570
  25.9764210  31.9922440  73.7184240  26.9234500  31.1313650  72.9097800
  29.8306950  31.8000670  58.4282330  29.2817050  32.2469970  59.0725070
  30.4526210  31.2949920  58.9520000  21.7203680  28.1596040  75.1644120
  21.7609020  27.8609910  76.0729350  22.5749180  28.5603650  75.0051640
  25.4982070  30.7591590  60.3247630  25.9198490  30.5931460  61.1679020
  25.6232910  29.9491820  59.8302770  23.6609490  26.7388140  73.1318610
  23.1305950  26.2479090  72.5041950  24.3297560  27.1672340  72.5976540
  28.0109710  29.7829200  57.5724730  28.5315370  29.0678220  57.2065880
  28.6578110  30.4215070  57.8725240  33.0309720  28.5453760  74.8998950
  33.6130490  27.7906080  74.8119430  33.2071490  29.0761200  74.1230430
  24.1481790  23.7050510  73.2115900  24.0538660  23.0871260  72.4866770
  23.5679180  24.4316800  72.9845810  26.9143230  22.2623750  70.2443290
  26.4660530  22.2848010  69.3988840  26.2808430  21.8642770  70.8413590
  27.3202780  31.1578080  70.8655730  27.7390890  32.0010810  70.6931970
  26.4011410  31.2950120  70.6362510  29.6566680  28.8894260  72.2493570
  29.7762890  28.2935400  72.9888410  30.5160680  28.9263950  71.8294870
  31.9954580  29.4431450  70.8256080  31.4689800  29.9674070  70.2221220
  32.3385920  30.0758840  71.4565810  24.3940970  26.8324820  57.2705790
  24.1930030  25.9692180  57.6319130  24.2233020  26.7458180  56.3327390
  25.1710200  37.4631090  71.9813460  24.6331290  38.1877150  71.6622160
  25.4244160  36.9861430  71.1910800  26.4235450  25.4315610  73.5069390
  27.0135140  25.1231460  74.1947210  25.6055690  24.9595360  73.6629290
  31.2428880  25.0481420  73.7402410  30.5544400  24.3862960  73.6752400
  31.9634900  24.6019690  74.1850870  31.8729280  21.6433050  59.7992670
  32.1531570  20.8000950  60.1552090  31.0995010  21.8756160  60.3131420
  23.1923770  23.9325440  57.2583670  23.4949670  23.9392870  56.3502820
  23.9318360  23.5823300  57.7551330  28.0272410  38.6982300  72.2400110
  27.9531110  39.6017440  72.5472480  27.1251250  38.3794200  72.2122180
  26.4108700  22.8760060  58.2439870  26.0630700  22.1984050  57.6642320
  26.6121470  22.4149570  59.0583260  22.2153900  33.2367860  58.0913470
  22.6528770  33.7797530  58.7471050  22.7001630  32.4114810  58.1009810
  19.4299700  36.0256890  65.5433730  19.7602710  35.1577950  65.3112370
  19.8590700  36.2315410  66.3738690  24.0261620  34.3565900  63.2035700
  23.7257160  34.2330870  64.1039610  23.9199110  33.4974490  62.7951430
  19.9189910  36.8927480  68.2815360  19.4820900  37.0728280  69.1139510
  20.4867590  37.6502100  68.1397080  35.5552090  36.3944480  72.5692670
  34.9554080  36.4537040  71.8256590  35.6845990  35.4549460  72.6989520
  19.7514340  29.4047710  64.6404240  19.0963180  29.1359350  63.9963940
  20.5892290  29.2952190  64.1906220  34.2403730  33.1196460  70.6668830
  33.4263570  33.5493620  70.9294620  34.6477930  33.7314870  70.0537880
  36.3029170  31.1744150  57.5669100  36.5778010  32.0823030  57.4388320
  36.1139910  31.1106680  58.5031090  32.7004780  24.1989000  58.8622730
  33.1189660  24.0119980  58.0219390  32.3940840  23.3468050  59.1725660
  36.1994510  29.1113140  62.5598530  35.8238110  28.3441070  62.1279820
  35.4697630  29.4935840  63.0473460  20.7890270  29.7900280  69.1807580
  21.1563310  29.7027680  70.0603600  20.2201090  29.0266830  69.0814440
  20.3406270  26.7009370  73.0866000  19.4462320  26.6676130  73.4259710
  20.8803820  26.8996160  73.8517250  34.0282200  23.4841090  74.9717750
  34.9052380  23.4924490  75.3551750  34.0403040  22.7471930  74.3610100
  18.9652420  26.6146640  60.5829570  18.0616500  26.8776840  60.4081230
  19.4493040  26.8857810  59.8029530  21.5079630  25.6712180  58.4923950
  22.2171330  25.2495400  58.0071230  20.7919570  25.7387410  57.8607300
  21.1553790  21.7251510  57.5326600  21.8781920  22.2660450  57.8507820
  21.4278310  21.4514930  56.6568140  34.9645440  26.5943980  61.7998180
  35.4604560  26.3614850  62.5847060  34.7661510  25.7555820  61.3835820
  20.8445980  20.9757700  67.4349220  21.4922170  20.4255080  66.9944380
  21.2647820  21.2300850  68.2565030  36.3932600  25.2304930  64.3335860
  36.2831880  25.0760970  65.2718130  37.1540190  24.7025870  64.0911270
  34.7398320  21.1699060  70.7918860  35.3770540  21.7833200  71.1578050
  34.8873210  21.2059720  69.8468090  37.2822870  23.0612850  57.5742000
  38.2072180  22.9294030  57.3660290  37.2598660  23.1405670  58.5278450
  37.3561360  23.8323510  60.1998710  36.5612860  23.7668630  60.7291620
  37.5604640  24.7674150  60.1884060  34.2979780  37.8715060  64.1937100
  34.8938850  37.5499630  63.5171520  34.5557930  37.3986880  64.9850370
  20.5977980  21.1313370  70.1774540  20.2492800  21.5877190  70.9432720
  20.2665680  20.2370500  70.2596970  22.2042350  34.3032970  74.3427730
  22.1611980  33.9325880  75.2242190  22.3353360  35.2410540  74.4829550
  25.9048380  35.8592560  69.9437450  25.6639740  36.1267120  69.0567970
  26.8451020  36.0298290  69.9988310  28.1102800  22.3225250  73.6993960
  28.0491690  22.9147080  74.4489370  29.0503180  22.2151210  73.5544220
  30.7477360  21.9795310  73.3386250  31.3617770  22.2974600  72.6767330
  31.2926920  21.4943900  73.9582110  21.2698620  20.6589570  73.4525310
  21.8181610  20.4777620  72.6891420  21.3353930  19.8683680  73.9881620
  22.0430380  37.2495220  71.4625510  21.4490700  37.1179920  72.2015550
  22.0354220  36.4133360  70.9967610  31.4885400  20.5427450  69.6655540
  30.6145240  20.8762560  69.4628470  31.3796150  20.0700630  70.4907410
  32.3957380  22.7498320  71.0497260  32.0670740  21.9350080  70.6698990
  33.3439680  22.7068130  70.9262950  21.6742610  34.6153600  70.4133550
  20.9476670  33.9958890  70.3459500  21.7351760  35.0094210  69.5431630
  25.2787710  36.8298600  67.1982960  25.7952730  36.2185960  66.6731220
  25.9285090  37.3327380  67.6893970  28.0183210  37.7207090  68.0251940
  28.3061020  37.4661390  67.1484950  28.5306430  37.1684450  68.6157510
  29.2360220  21.4597290  68.6048450  28.4532010  21.9342790  68.8845210
  28.9423150  20.5552120  68.4961630  33.7881290  22.1620390  66.6497540
  34.2289380  22.1065490  65.8019140  33.5188880  23.0778400  66.7207720
  35.6519860  21.7935630  64.6606360  35.5908260  20.8496850  64.5137380
  36.4311890  21.9015720  65.2059820  19.9572610  37.9327990  63.6230310
  19.7894650  37.2998670  64.3212200  19.0907120  38.1387390  63.2724500
  20.5800630  21.7644770  61.1262170  21.3379990  21.8773650  60.5526200
  20.1177800  22.6013970  61.0805600  27.1214440  23.8784040  64.1164480
  26.3088950  23.5040930  63.7760360  27.6256080  23.1229120  64.4185670
  31.6239420  20.5426490  65.3547550  32.2268790  21.1146700  65.8296070
  30.8832410  21.1065930  65.1321450  34.7674020  20.9448050  60.6287830
  34.9624650  21.8431500  60.8955260  33.9803890  20.7135130  61.1220780
  21.5635310  36.6261220  61.0680450  21.0382930  37.0069250  60.3642410
  21.4879890  37.2511990  61.7890160  22.9525780  22.2908820  59.6664140
  23.4818540  21.5038620  59.5372090  23.5854100  22.9700010  59.8999670
  25.1463620  22.0283960  62.7209530  24.5166360  21.3271270  62.8879660
  24.6068760  22.7888090  62.5042690  28.0855570  38.6423190  75.3920140
  29.0122880  38.4067460  75.4356100  28.0706000  39.4695190  74.9106170
  36.3200630  38.1848760  62.3894390  36.4952820  37.4986500  61.7455310
  35.6222200  38.7095810  61.9971060  25.2719180  21.3067940  75.1562020
  24.9903450  21.8101540  74.3922840  25.6538880  20.5089690  74.7904150
  24.1628280  38.5743600  59.9429700  24.8947100  38.2902880  59.3953590
  24.4221950  38.3356880  60.8329080  23.3243070  34.6908330  59.9476030
  22.6951950  35.1593430  60.4961860  23.4390900  33.8457550  60.3822220
  31.8734640  20.7221520  75.7342490  31.7600090  21.0416130  76.6294010
  32.6904380  21.1234030  75.4379770  30.7792790  28.7413990  46.0977230
  30.6986840  27.8268600  45.8268940  30.3657210  29.2381060  45.3916940
  28.9110830  30.5193010  47.9786500  28.1352930  30.0393450  48.2685070
  29.5623760  29.8398660  47.8042660  22.9276660  30.8312820  48.8562260
  22.0961540  30.5761530  49.2558770  23.5357640  30.9023590  49.5920180
  32.9318260  34.9253200  46.7585630  32.4699790  34.1540440  47.0872800
  33.7443810  34.9519270  47.2638080  22.9077920  34.8652910  49.0520280
  23.2105960  33.9750650  48.8730500  23.6521510  35.4223130  48.8242530
  21.3368610  25.7914710  42.6404650  20.4485310  26.1330680  42.5384530
  21.6209800  25.5915030  41.7485480  19.3001620  28.3920360  48.5244350
  19.8717730  27.6242560  48.5247990  19.3003160  28.6909120  47.6150960
  29.1581570  37.2111210  46.3789620  28.5393010  37.6668710  45.8084060
  30.0133350  37.3662670  45.9779320  28.3519820  33.1950200  47.9856660
  28.2828100  32.2540140  47.8245790  29.1139680  33.2851610  48.5579230
  20.5426490  23.8004720  50.3113280  20.3629330  22.9030470  50.5916040
  20.1406570  24.3476590  50.9860230  29.3824990  26.0020580  48.2125590
  29.7589810  25.1292460  48.0999260  29.2844500  26.3379280  47.3216030
  23.5130000  24.3746210  43.6743030  23.6196750  25.2749940  43.9811790
  22.6022360  24.3264180  43.3837680  33.1649110  23.4971020  45.1453930
  33.9858730  23.0067590  45.1879410  33.1983190  24.0868680  45.8985770
  21.1613160  26.2965220  48.9195620  21.8423270  26.5603590  49.5383020
  20.8461210  25.4566090  49.2533630  25.3537730  27.3432580  48.0068210
  25.8615950  27.8413550  48.6473230  25.8850970  26.5667780  47.8307570
  37.4548660  25.5137770  51.7097560  36.7500830  25.9019480  51.1912670
  37.7206580  26.2088060  52.3118490  23.6373830  21.9831140  52.2731630
  23.6392270  22.5003530  51.4677530  22.8078140  21.5061320  52.2501560
  30.0244920  32.0950450  43.7721530  29.4062190  32.5599900  43.2084250
  30.5368170  32.7877930  44.1891040  24.8876680  31.6226320  50.4505130
  24.5546060  32.2495240  51.0926200  25.0643360  32.1488200  49.6706800
  33.4010590  25.4371400  47.9181470  32.6966160  25.7256290  48.4984580
  33.7622750  26.2471510  47.5581030  23.3189160  23.6941100  50.2802080
  23.6605970  24.5383150  49.9855950  22.3804970  23.8424840  50.3967420
  24.0995780  33.5907120  52.2654310  24.7169780  34.2658200  51.9838760
  23.2388900  33.9995100  52.1741810  19.3928120  32.7806980  41.1461160
  19.0156100  33.2694080  40.4146060  19.6501190  33.4532260  41.7767690
  35.0173370  35.0546530  50.1808950  34.3336890  35.7245640  50.1725620
  35.5567660  35.2527180  49.4153810  36.4697510  24.8826190  48.3090680
  35.5222420  24.9165170  48.4406110  36.7947500  25.6965140  48.6940040
  27.0017050  21.1823370  46.6046670  27.3092030  20.6270260  45.8882170
  26.0717750  21.3167830  46.4219660  32.5532110  36.8990660  48.8954130
  32.5659270  36.4952950  48.0276390  32.0007330  37.6737950  48.7915560
  33.8477530  33.6206880  43.9844300  33.7373860  32.6781210  44.1093720
  33.8445780  33.9822520  44.8707060  31.9517550  31.8020500  50.2236740
  32.3686340  31.5880610  49.3890200  32.6757370  32.0593290  50.7945360
  29.3897810  29.2472200  43.3406790  28.4627090  29.1809580  43.5695260
  29.5422630  30.1852330  43.2262030  29.3766890  25.5189200  40.3373950
  28.4370560  25.6803160  40.4226410  29.6950150  26.2374880  39.7909940
  35.8979650  30.2007720  50.3152980  35.0698280  30.2700810  49.8403110
  36.4930130  30.7862030  49.8468810  33.4195100  30.8092500  43.8442040
  32.8007520  30.4712050  43.1968340  33.4019550  30.1652260  44.5521230
  32.8621660  26.9877040  51.2607850  32.4492840  27.8130750  51.5147840
  32.1297610  26.4022080  51.0684210  24.9954450  29.7736940  46.1226520
  24.5911450  29.0614190  45.6272420  25.0817570  29.4290180  47.0114560
  25.4636150  33.4604500  48.2865730  25.1664440  32.8549970  47.6073510
  26.4135970  33.4981810  48.1755090  23.7083070  26.5480150  49.9025560
  24.2597660  26.6575490  49.1278810  24.2226580  26.9217750  50.6180790
  24.5554580  33.1986190  54.9373530  23.6583110  33.4226160  55.1846930
  24.5807450  33.3221130  53.9884930  31.5959800  30.0479310  40.8514790
  32.0353080  29.2101740  40.7052610  32.3088220  30.6808710  40.9378930
  23.3825800  30.0699510  53.5130900  23.2433570  30.9422310  53.8818300
  22.5007160  29.7272320  53.3678840  29.7055180  34.9875380  44.8196030
  30.1451090  35.7299710  44.4051420  29.6442070  35.2301950  45.7434990
  25.1806150  36.0121210  55.7216050  25.1521580  36.4164160  54.8544480
  25.0171120  35.0831570  55.5587650  35.1776940  21.3022120  39.1655830
  34.8649600  21.3948950  40.0654900  35.9389410  21.8803150  39.1153260
  21.6959080  28.6681920  43.6233170  21.5756680  29.3944010  43.0114440
  21.3859970  27.8984830  43.1461080  37.1320970  36.7948310  57.0180220
  37.6080690  37.2731200  57.6969300  37.7528130  36.7265800  56.2925720
  19.3344450  31.8397060  49.4301810  19.4124870  31.9745830  48.4857530
  19.9486130  31.1312950  49.6229930  20.5792080  33.5397250  45.8407990
  20.1720160  33.6811840  44.9861590  21.4705090  33.2557410  45.6379200
  36.5354220  33.9861160  54.1780230  36.6617280  33.7473040  53.2597410
  36.5775600  33.1545700  54.6502310  32.3725360  37.9744500  42.1759040
  32.2126500  37.6847440  43.0740870  32.2072070  37.1984630  41.6404270
  24.8513740  37.7543030  43.9530660  24.6756220  36.8378570  43.7398460
  23.9969480  38.1130320  44.1928460  32.0751490  35.4832060  40.7357040
  31.3816650  35.4809350  40.0759320  32.8174350  35.0591380  40.3051210
  31.6401420  37.1094770  44.8105530  32.0958370  36.3284150  45.1244150
  31.9793940  37.8201590  45.3546710  36.3878230  26.0393620  55.1429970
  35.7722500  26.5473290  54.6145430  36.0674650  25.1391950  55.0855910
  19.3903970  32.8811230  51.9696270  19.5535010  32.4116590  51.1515640
  19.8556420  32.3734790  52.6345110  24.1622740  22.0116990  47.0056840
  23.7190890  22.7926530  46.6741360  24.7207730  22.3346880  47.7127780
  28.4492550  24.8785510  52.6092160  27.9871920  25.0868530  53.4212100
  28.0470660  24.0644860  52.3062830  33.4497060  26.0994460  53.7388820
  32.5990650  25.8000210  54.0597890  33.2898850  26.3436470  52.8272640
  30.5446770  27.5996210  55.8387610  30.8700180  26.7659960  55.4989840
  31.3327100  28.1224730  55.9865940  27.2781560  21.6327690  41.8862670
  26.6535740  21.6287560  42.6115980  27.1911680  20.7658650  41.4898640
  26.1998640  22.5564320  48.8646440  26.4970970  23.4627150  48.7838460
  26.7484200  22.0683100  48.2506010  23.9536960  27.1350560  44.7338090
  23.7277880  26.9187730  45.6384710  23.1729490  27.5679020  44.3884060
  31.1834720  27.1413930  43.3328740  30.5843610  27.8649730  43.1492360
  31.7314330  27.0790710  42.5505190  26.3936170  28.0336140  55.3998360
  26.2979770  27.0930870  55.2498760  27.2368150  28.2551210  55.0046430
  29.7899590  25.7777470  45.3632020  30.1829160  26.0949670  44.5500710
  30.1516440  24.8989350  45.4776540  21.5246710  24.4449810  53.5532140
  21.1310100  25.2925020  53.7604920  20.8365110  23.8076180  53.7440780
  28.0991760  24.5284780  56.6228880  27.4090080  24.3356980  57.2574970
  28.8424060  24.8119420  57.1553180  18.8263760  22.3678270  47.5862220
  18.5376810  22.9381130  48.2987200  19.5709520  21.8882720  47.9493450
  19.0133990  26.3098390  38.7964940  18.9308660  27.2529150  38.9379930
  18.6617050  26.1673300  37.9177290  30.3754730  28.3683220  49.4582800
  29.6435850  28.8770030  49.8072900  29.9779070  27.5513200  49.1571580
  26.8132120  25.0437420  47.8635290  26.8168180  24.6027370  47.0139830
  27.7083240  25.3654750  47.9707110  22.6634500  24.9263910  46.8229500
  22.3234550  25.4039140  47.5796550  21.9011820  24.4729030  46.4630600
  26.8752270  26.0449500  40.8542050  26.9965090  26.0035980  41.8027870
  26.4900780  26.9073650  40.6988780  30.8380640  23.8216900  48.8705740
  30.8553380  24.2725550  49.7147590  30.5896220  22.9222540  49.0839180
  25.8873770  28.3550640  40.2525350  25.3190670  27.9068890  39.6261260
  26.5962770  28.7143420  39.7190500  34.2651390  21.2349080  54.7092120
  34.5897160  20.5038740  55.2350100  34.3007900  20.9162720  53.8073110
  20.9642950  32.2562660  54.1292080  20.5797740  31.6156330  54.7275040
  21.2755140  32.9598780  54.6986810  27.1140090  29.1039200  49.6100700
  27.4810220  28.6297770  50.3562040  26.9245150  29.9780770  49.9509040
  19.9780580  23.8482890  45.7394170  19.6927500  23.4838560  46.5772790
  19.9159440  23.1163350  45.1257310  24.9039460  28.1447840  51.9284910
  24.5996530  29.0239820  52.1535270  25.8585920  28.2047630  51.9642350
  23.4321250  32.3508830  42.5251760  22.6583510  31.8106450  42.3650480
  24.1615880  31.8315440  42.1869520  34.1909230  31.3474190  48.3178150
  34.9108350  31.8429480  47.9274260  33.9891050  30.6692080  47.6732020
  29.6519170  22.7412150  42.4607540  28.8383780  22.2425320  42.3852850
  29.4581120  23.5810400  42.0443890  29.5728030  31.4183250  54.2047150
  29.5065340  30.4978920  53.9504740  28.9433170  31.5158690  54.9191790
  32.3667560  27.1131800  40.7569700  33.2547180  27.4249030  40.5821040
  32.3372650  26.2404050  40.3650280  23.4758650  32.0189210  46.1630570
  23.9937320  31.2157470  46.1087460  23.0242670  31.9568350  47.0047400
  28.3628150  33.2855490  41.4357870  28.7043850  34.0297720  40.9401190
  27.5340860  33.5986610  41.7982700  20.9603190  28.9850580  53.0756270
  20.6018130  29.6504430  53.6629610  20.6657750  28.1534130  53.4468890
  24.1616310  29.4434820  55.9595820  23.8616450  29.5892000  55.0623640
  24.9327550  28.8840110  55.8669210  34.6381830  28.4243640  40.2249560
  34.5545550  28.8557860  39.3746000  35.3576020  28.8841990  40.6576380
  35.7155970  30.8811160  53.3019530  34.9904160  31.4739940  53.1048920
  36.2431430  30.8734700  52.5032900  35.6669080  35.2785900  42.9531690
  35.0245240  34.6241520  43.2275410  35.2799740  35.6840990  42.1772360
  31.2455560  32.6071330  46.8003380  31.5979380  32.0099460  46.1404750
  30.3617890  32.2815560  46.9711630  27.3318840  33.3669020  44.2073790
  28.0189970  33.9138230  44.5881380  26.5451260  33.9109750  44.2423400
  19.4711240  28.9841840  39.6990870  20.3406090  29.2666640  39.9826790
  18.9801560  29.7977710  39.5839680  26.6346050  30.3715050  43.8199150
  27.0908830  31.1820300  44.0459340  26.2834260  30.0538190  44.6517640
  28.9378660  35.8821390  51.0491450  29.5820880  36.0880770  51.7264870
  29.3008100  35.1209790  50.5962300  22.5357830  20.7152700  44.2921670
  22.4072460  20.7070600  45.2406590  21.7119850  21.0535790  43.9412680
  30.2110740  33.8853740  49.7668900  30.8532970  33.1846900  49.8801070
  30.7360090  34.6652180  49.5865790  34.0566460  34.1702360  39.4908040
  33.8304040  33.4532800  40.0832680  33.6662660  33.9214800  38.6529790
  19.8382490  38.1969220  40.2652500  20.1980130  38.7958560  39.6109770
  19.6974830  38.7429110  41.0387530  19.5351760  22.4743820  53.7528370
  18.8210280  22.6740740  54.3580980  19.9546800  21.6983390  54.1243170
  33.6382710  32.0874300  41.1522200  33.3504410  32.5486990  41.9400080
  34.4334880  31.6272070  41.4206420  19.8224350  36.4624080  54.7394900
  19.9315470  35.5218820  54.5990290  19.1704910  36.7278830  54.0908630
  25.8551110  35.5800420  41.0826170  25.8461210  36.3130110  40.4670680
  24.9349470  35.3332000  41.1753130  21.4557750  30.8015310  41.8272930
  20.8485700  31.5414210  41.8368230  21.9307100  30.8914670  41.0011130
  31.0290540  24.9666130  51.5029820  31.3971360  24.1461340  51.8309390
  30.1688740  25.0268020  51.9185470  34.3952570  23.9223070  42.3117380
  33.7665730  24.0268740  41.5975610  33.9004490  24.1419850  43.1011260
  28.8410710  35.6428660  39.7451360  28.9422690  35.4392650  38.8153340
  27.9412450  35.3886940  39.9499140  26.3636600  26.2009020  43.7275260
  25.6552750  26.6695360  44.1688870  26.6481080  25.5431030  44.3620450
  27.9892530  27.6205720  51.7267790  28.4877780  28.0951540  52.3919640
  28.1315480  26.6969240  51.9337820  30.3952030  22.9259680  45.1671050
  30.2719810  22.9445810  44.2180560  31.3436590  22.9738620  45.2869450
  27.4828820  38.1614980  44.4399030  27.7370320  38.1236370  43.5178400
  26.5341300  38.0348310  44.4327280  24.5671620  24.5094100  41.1025970
  25.4162150  24.9464250  41.0366160  24.2002890  24.8214360  41.9298030
  35.1959390  23.8373680  52.5696180  34.6932990  24.5779080  52.9089990
  36.0116050  24.2257680  52.2532970  33.4881400  29.0806860  46.0157540
  32.5471540  29.0957090  46.1905230  33.8025470  28.2942820  46.4617840
  23.4663040  30.7626460  39.5761500  24.2326310  30.6507820  40.1386930
  23.5437730  30.0664430  38.9238270  22.1609800  28.1951530  40.2594390
  22.2413390  27.2479040  40.3711790  23.0529550  28.5258410  40.3655050
  35.4906980  36.2515710  47.6911800  35.6154400  37.0746880  48.1635610
  36.3572540  36.0406440  47.3435950  22.9624510  38.3446920  47.3628930
  23.6986990  37.7962380  47.6337500  23.3465430  39.2102930  47.2234920
  19.8469990  34.4120490  43.2370440  18.9209770  34.6541630  43.2275850
  20.3126420  35.2394750  43.1155190  21.9682790  37.5292990  56.5514510
  22.7695520  37.8505040  56.9649910  21.4534610  37.1688570  57.2734420
  26.0726820  37.5177230  39.1854500  26.8655430  37.8066060  38.7336290
  25.5531170  37.0869400  38.5066980  35.1256990  36.7447360  40.6091240
  34.8398500  36.3312500  39.7945420  34.9276540  37.6735070  40.4891760
  19.6880600  30.0166450  55.4950560  20.1919620  29.4373730  56.0666790
  18.9488020  30.3006680  56.0326930  26.5904220  32.7380640  39.0496850
  26.4854860  32.1232990  39.7758230  26.4228440  32.2146530  38.2659860
  26.7418540  31.4237440  55.0286080  25.9764210  31.9922440  54.9440750
  26.9234500  31.1313650  54.1354310  29.8306950  31.8000670  39.6538840
  29.2817050  32.2469970  40.2981580  30.4526210  31.2949920  40.1776510
  33.8841890  33.1542770  55.5861100  34.6251360  33.4918530  55.0828560
  33.1214570  33.3234830  55.0330870  21.7203680  28.1596040  56.3900630
  21.7609020  27.8609910  57.2985860  22.5749180  28.5603650  56.2308150
  25.4982070  30.7591590  41.5504140  25.9198490  30.5931460  42.3935530
  25.6232910  29.9491820  41.0559280  23.6609490  26.7388140  54.3575120
  23.1305950  26.2479090  53.7298460  24.3297560  27.1672340  53.8233050
  28.0109710  29.7829200  38.7981240  28.5315370  29.0678220  38.4322390
  28.6578110  30.4215070  39.0981750  32.5587550  31.2057600  54.1216310
  32.9728570  31.3602680  54.9706730  31.6238550  31.3312820  54.2842090
  33.0309720  28.5453760  56.1255460  33.6130490  27.7906080  56.0375940
  33.2071490  29.0761200  55.3486940  24.1481790  23.7050510  54.4372410
  24.0538660  23.0871260  53.7123280  23.5679180  24.4316800  54.2102320
  26.9143230  22.2623750  51.4699800  26.4660530  22.2848010  50.6245350
  26.2808430  21.8642770  52.0670100  27.3202780  31.1578080  52.0912240
  27.7390890  32.0010810  51.9188480  26.4011410  31.2950120  51.8619020
  29.6566680  28.8894260  53.4750080  29.7762890  28.2935400  54.2144920
  30.5160680  28.9263950  53.0551380  31.9954580  29.4431450  52.0512590
  31.4689800  29.9674070  51.4477730  32.3385920  30.0758840  52.6822320
  24.3940970  26.8324820  38.4962300  24.1930030  25.9692180  38.8575640
  24.2233020  26.7458180  37.5583900  25.1710200  37.4631090  53.2069970
  24.6331290  38.1877150  52.8878670  25.4244160  36.9861430  52.4167310
  26.4235450  25.4315610  54.7325900  27.0135140  25.1231460  55.4203720
  25.6055690  24.9595360  54.8885800  31.2428880  25.0481420  54.9658920
  30.5544400  24.3862960  54.9008910  31.9634900  24.6019690  55.4107380
  31.8729280  21.6433050  41.0249180  32.1531570  20.8000950  41.3808600
  31.0995010  21.8756160  41.5387930  23.1923770  23.9325440  38.4840180
  23.4949670  23.9392870  37.5759330  23.9318360  23.5823300  38.9807840
  26.4108700  22.8760060  39.4696380  26.0630700  22.1984050  38.8898830
  26.6121470  22.4149570  40.2839770  28.5757740  37.8640810  41.0882980
  29.4708530  38.2025780  41.1101740  28.6075370  37.1420220  40.4607260
  22.2153900  33.2367860  39.3169980  22.6528770  33.7797530  39.9727560
  22.7001630  32.4114810  39.3266320  19.4299700  36.0256890  46.7690240
  19.7602710  35.1577950  46.5368880  19.8590700  36.2315410  47.5995200
  24.0261620  34.3565900  44.4292210  23.7257160  34.2330870  45.3296120
  23.9199110  33.4974490  44.0207940  19.9189910  36.8927480  49.5071870
  19.4820900  37.0728280  50.3396020  20.4867590  37.6502100  49.3653590
  35.5552090  36.3944480  53.7949180  34.9554080  36.4537040  53.0513100
  35.6845990  35.4549460  53.9246030  36.7953540  34.1362300  39.1318890
  35.9646500  34.2038950  39.6026120  36.9725370  35.0266420  38.8285750
  36.2510000  30.8809780  41.6353090  37.0128910  31.4506430  41.7412780
  36.2664370  30.3136980  42.4061400  19.7514340  29.4047710  45.8660750
  19.0963180  29.1359350  45.2220450  20.5892290  29.2952190  45.4162730
  37.2569970  31.7359880  46.4795020  37.6278800  30.9527200  46.0730990
  37.8971900  32.4248980  46.3012320  34.2403730  33.1196460  51.8925340
  33.4263570  33.5493620  52.1551130  34.6477930  33.7314870  51.2794390
  36.3029170  31.1744150  38.7925610  36.5778010  32.0823030  38.6644830
  36.1139910  31.1106680  39.7287600  32.7004780  24.1989000  40.0879240
  33.1189660  24.0119980  39.2475900  32.3940840  23.3468050  40.3982170
  36.1994510  29.1113140  43.7855040  35.8238110  28.3441070  43.3536330
  35.4697630  29.4935840  44.2729970  20.7890270  29.7900280  50.4064090
  21.1563310  29.7027680  51.2860110  20.2201090  29.0266830  50.3070950
  35.5894130  28.2584660  53.4194560  35.3580220  28.0297410  52.5192510
  35.8498680  29.1784210  53.3739450  20.3406270  26.7009370  54.3122510
  19.4462320  26.6676130  54.6516220  20.8803820  26.8996160  55.0773760
  34.0282200  23.4841090  56.1974260  34.9052380  23.4924490  56.5808260
  34.0403040  22.7471930  55.5866610  18.9652420  26.6146640  41.8086080
  18.0616500  26.8776840  41.6337740  19.4493040  26.8857810  41.0286040
  35.4745470  27.3370630  47.0862280  35.9982950  26.8433280  46.4552450
  36.0604890  27.4720990  47.8309850  35.6535190  27.4210500  50.6081830
  34.7037900  27.3874040  50.7226820  35.8348200  28.3310610  50.3731600
  21.5079630  25.6712180  39.7180460  22.2171330  25.2495400  39.2327740
  20.7919570  25.7387410  39.0863810  21.1553790  21.7251510  38.7583110
  21.8781920  22.2660450  39.0764330  21.4278310  21.4514930  37.8824650
  34.9645440  26.5943980  43.0254690  35.4604560  26.3614850  43.8103570
  34.7661510  25.7555820  42.6092330  20.8445980  20.9757700  48.6605730
  21.4922170  20.4255080  48.2200890  21.2647820  21.2300850  49.4821540
  36.3932600  25.2304930  45.5592370  36.2831880  25.0760970  46.4974640
  37.1540190  24.7025870  45.3167780  34.7398320  21.1699060  52.0175370
  35.3770540  21.7833200  52.3834560  34.8873210  21.2059720  51.0724600
  37.2822870  23.0612850  38.7998510  38.2072180  22.9294030  38.5916800
  37.2598660  23.1405670  39.7534960  37.3561360  23.8323510  41.4255220
  36.5612860  23.7668630  41.9548130  37.5604640  24.7674150  41.4140570
  34.2979780  37.8715060  45.4193610  34.8938850  37.5499630  44.7428030
  34.5557930  37.3986880  46.2106880  20.5977980  21.1313370  51.4031050
  20.2492800  21.5877190  52.1689230  20.2665680  20.2370500  51.4853480
  22.2042350  34.3032970  55.5684240  22.1611980  33.9325880  56.4498700
  22.3353360  35.2410540  55.7086060  25.9048380  35.8592560  51.1693960
  25.6639740  36.1267120  50.2824480  26.8451020  36.0298290  51.2244820
  28.1102800  22.3225250  54.9250470  28.0491690  22.9147080  55.6745880
  29.0503180  22.2151210  54.7800730  30.7477360  21.9795310  54.5642760
  31.3617770  22.2974600  53.9023840  31.2926920  21.4943900  55.1838620
  37.1652540  37.8786940  51.9704600  36.6710820  38.2755810  51.2531730
  36.5565830  37.2536150  52.3641880  21.2698620  20.6589570  54.6781820
  21.8181610  20.4777620  53.9147930  21.3353930  19.8683680  55.2138130
  22.0430380  37.2495220  52.6882020  21.4490700  37.1179920  53.4272060
  22.0354220  36.4133360  52.2224120  31.4885400  20.5427450  50.8912050
  30.6145240  20.8762560  50.6884980  31.3796150  20.0700630  51.7163920
  32.3957380  22.7498320  52.2753770  32.0670740  21.9350080  51.8955500
  33.3439680  22.7068130  52.1519460  34.8491990  38.5210360  49.2491340
  34.3894960  39.2726170  48.8749360  34.2204450  37.8016830  49.1906140
  21.6742610  34.6153600  51.6390060  20.9476670  33.9958890  51.5716010
  21.7351760  35.0094210  50.7688140  25.2787710  36.8298600  48.4239470
  25.7952730  36.2185960  47.8987730  25.9285090  37.3327380  48.9150480
  29.2360220  21.4597290  49.8304960  28.4532010  21.9342790  50.1101720
  28.9423150  20.5552120  49.7218140  33.7881290  22.1620390  47.8754050
  34.2289380  22.1065490  47.0275650  33.5188880  23.0778400  47.9464230
  35.6519860  21.7935630  45.8862870  35.5908260  20.8496850  45.7393890
  36.4311890  21.9015720  46.4316330  19.9572610  37.9327990  44.8486820
  19.7894650  37.2998670  45.5468710  19.0907120  38.1387390  44.4981010
  20.5800630  21.7644770  42.3518680  21.3379990  21.8773650  41.7782710
  20.1177800  22.6013970  42.3062110  27.1214440  23.8784040  45.3420990
  26.3088950  23.5040930  45.0016870  27.6256080  23.1229120  45.6442180
  31.6239420  20.5426490  46.5804060  32.2268790  21.1146700  47.0552580
  30.8832410  21.1065930  46.3577960  34.7674020  20.9448050  41.8544340
  34.9624650  21.8431500  42.1211770  33.9803890  20.7135130  42.3477290
  21.5635310  36.6261220  42.2936960  21.0382930  37.0069250  41.5898920
  21.4879890  37.2511990  43.0146670  22.9525780  22.2908820  40.8920650
  23.4818540  21.5038620  40.7628600  23.5854100  22.9700010  41.1256180
  25.1463620  22.0283960  43.9466040  24.5166360  21.3271270  44.1136170
  24.6068760  22.7888090  43.7299200  36.3200630  38.1848760  43.6150900
  36.4952820  37.4986500  42.9711820  35.6222200  38.7095810  43.2227570
  25.2719180  21.3067940  56.3818530  24.9903450  21.8101540  55.6179350
  25.6538880  20.5089690  56.0160660  24.1628280  38.5743600  41.1686210
  24.8947100  38.2902880  40.6210100  24.4221950  38.3356880  42.0585590
  23.3243070  34.6908330  41.1732540  22.6951950  35.1593430  41.7218370
  23.4390900  33.8457550  41.6078730  31.8734640  20.7221520  56.9599000
  31.7600090  21.0416130  57.8550520  32.6904380  21.1234030  56.6636280
  34.6533130  37.8693050  56.4417690  35.4458450  37.3742280  56.2343650
  34.9466280  38.5483190  57.0493300  30.7792790  28.7413990  27.3233740
  30.6986840  27.8268600  27.0525450  30.3657210  29.2381060  26.6173450
  28.9110830  30.5193010  29.2043010  28.1352930  30.0393450  29.4941580
  29.5623760  29.8398660  29.0299170  22.9276660  30.8312820  30.0818770
  22.0961540  30.5761530  30.4815280  23.5357640  30.9023590  30.8176690
  32.9318260  34.9253200  27.9842140  32.4699790  34.1540440  28.3129310
  33.7443810  34.9519270  28.4894590  22.9077920  34.8652910  30.2776790
  23.2105960  33.9750650  30.0987010  23.6521510  35.4223130  30.0499040
  21.3368610  25.7914710  23.8661160  20.4485310  26.1330680  23.7641040
  21.6209800  25.5915030  22.9741990  19.3001620  28.3920360  29.7500860
  19.8717730  27.6242560  29.7504500  19.3003160  28.6909120  28.8407470
  29.1581570  37.2111210  27.6046130  28.5393010  37.6668710  27.0340570
  30.0133350  37.3662670  27.2035830  28.3519820  33.1950200  29.2113170
  28.2828100  32.2540140  29.0502300  29.1139680  33.2851610  29.7835740
  20.5426490  23.8004720  31.5369790  20.3629330  22.9030470  31.8172550
  20.1406570  24.3476590  32.2116740  29.3824990  26.0020580  29.4382100
  29.7589810  25.1292460  29.3255770  29.2844500  26.3379280  28.5472540
  23.5130000  24.3746210  24.8999540  23.6196750  25.2749940  25.2068300
  22.6022360  24.3264180  24.6094190  33.1649110  23.4971020  26.3710440
  33.9858730  23.0067590  26.4135920  33.1983190  24.0868680  27.1242280
  21.1613160  26.2965220  30.1452130  21.8423270  26.5603590  30.7639530
  20.8461210  25.4566090  30.4790140  25.3537730  27.3432580  29.2324720
  25.8615950  27.8413550  29.8729740  25.8850970  26.5667780  29.0564080
  37.4548660  25.5137770  32.9354070  36.7500830  25.9019480  32.4169180
  37.7206580  26.2088060  33.5375000  23.6373830  21.9831140  33.4988140
  23.6392270  22.5003530  32.6934040  22.8078140  21.5061320  33.4758070
  30.0244920  32.0950450  24.9978040  29.4062190  32.5599900  24.4340760
  30.5368170  32.7877930  25.4147550  24.8876680  31.6226320  31.6761640
  24.5546060  32.2495240  32.3182710  25.0643360  32.1488200  30.8963310
  33.4010590  25.4371400  29.1437980  32.6966160  25.7256290  29.7241090
  33.7622750  26.2471510  28.7837540  23.3189160  23.6941100  31.5058590
  23.6605970  24.5383150  31.2112460  22.3804970  23.8424840  31.6223930
  24.0995780  33.5907120  33.4910820  24.7169780  34.2658200  33.2095270
  23.2388900  33.9995100  33.3998320  19.3928120  32.7806980  22.3717670
  19.0156100  33.2694080  21.6402570  19.6501190  33.4532260  23.0024200
  35.0173370  35.0546530  31.4065460  34.3336890  35.7245640  31.3982130
  35.5567660  35.2527180  30.6410320  36.4697510  24.8826190  29.5347190
  35.5222420  24.9165170  29.6662620  36.7947500  25.6965140  29.9196550
  27.0017050  21.1823370  27.8303180  27.3092030  20.6270260  27.1138680
  26.0717750  21.3167830  27.6476170  32.5532110  36.8990660  30.1210640
  32.5659270  36.4952950  29.2532900  32.0007330  37.6737950  30.0172070
  33.8477530  33.6206880  25.2100810  33.7373860  32.6781210  25.3350230
  33.8445780  33.9822520  26.0963570  31.9517550  31.8020500  31.4493250
  32.3686340  31.5880610  30.6146710  32.6757370  32.0593290  32.0201870
  29.3897810  29.2472200  24.5663300  28.4627090  29.1809580  24.7951770
  29.5422630  30.1852330  24.4518540  29.3766890  25.5189200  21.5630460
  28.4370560  25.6803160  21.6482920  29.6950150  26.2374880  21.0166450
  35.8979650  30.2007720  31.5409490  35.0698280  30.2700810  31.0659620
  36.4930130  30.7862030  31.0725320  33.4195100  30.8092500  25.0698550
  32.8007520  30.4712050  24.4224850  33.4019550  30.1652260  25.7777740
  32.8621660  26.9877040  32.4864360  32.4492840  27.8130750  32.7404350
  32.1297610  26.4022080  32.2940720  24.9954450  29.7736940  27.3483030
  24.5911450  29.0614190  26.8528930  25.0817570  29.4290180  28.2371070
  25.4636150  33.4604500  29.5122240  25.1664440  32.8549970  28.8330020
  26.4135970  33.4981810  29.4011600  23.7083070  26.5480150  31.1282070
  24.2597660  26.6575490  30.3535320  24.2226580  26.9217750  31.8437300
  33.5521760  37.0336370  33.1745340  33.0752320  37.8408560  32.9817950
  32.8683550  36.3814700  33.3271550  24.5554580  33.1986190  36.1630040
  23.6583110  33.4226160  36.4103440  24.5807450  33.3221130  35.2141440
  31.5959800  30.0479310  22.0771300  32.0353080  29.2101740  21.9309120
  32.3088220  30.6808710  22.1635440  23.3825800  30.0699510  34.7387410
  23.2433570  30.9422310  35.1074810  22.5007160  29.7272320  34.5935350
  29.7055180  34.9875380  26.0452540  30.1451090  35.7299710  25.6307930
  29.6442070  35.2301950  26.9691500  25.1806150  36.0121210  36.9472560
  25.1521580  36.4164160  36.0800990  25.0171120  35.0831570  36.7844160
  35.1776940  21.3022120  20.3912340  34.8649600  21.3948950  21.2911410
  35.9389410  21.8803150  20.3409770  21.6959080  28.6681920  24.8489680
  21.5756680  29.3944010  24.2370950  21.3859970  27.8984830  24.3717590
  37.1320970  36.7948310  38.2436730  37.6080690  37.2731200  38.9225810
  37.7528130  36.7265800  37.5182230  19.3344450  31.8397060  30.6558320
  19.4124870  31.9745830  29.7114040  19.9486130  31.1312950  30.8486440
  20.5792080  33.5397250  27.0664500  20.1720160  33.6811840  26.2118100
  21.4705090  33.2557410  26.8635710  36.5354220  33.9861160  35.4036740
  36.6617280  33.7473040  34.4853920  36.5775600  33.1545700  35.8758820
  30.3970960  37.6889160  33.9731550  30.9115630  37.5997170  34.7753980
  29.5540040  38.0348860  34.2659460  32.3725360  37.9744500  23.4015550
  32.2126500  37.6847440  24.2997380  32.2072070  37.1984630  22.8660780
  24.8513740  37.7543030  25.1787170  24.6756220  36.8378570  24.9654970
  23.9969480  38.1130320  25.4184970  32.0751490  35.4832060  21.9613550
  31.3816650  35.4809350  21.3015830  32.8174350  35.0591380  21.5307720
  31.6401420  37.1094770  26.0362040  32.0958370  36.3284150  26.3500660
  31.9793940  37.8201590  26.5803220  36.3878230  26.0393620  36.3686480
  35.7722500  26.5473290  35.8401940  36.0674650  25.1391950  36.3112420
  19.3903970  32.8811230  33.1952780  19.5535010  32.4116590  32.3772150
  19.8556420  32.3734790  33.8601620  24.1622740  22.0116990  28.2313350
  23.7190890  22.7926530  27.8997870  24.7207730  22.3346880  28.9384290
  28.4492550  24.8785510  33.8348670  27.9871920  25.0868530  34.6468610
  28.0470660  24.0644860  33.5319340  33.4497060  26.0994460  34.9645330
  32.5990650  25.8000210  35.2854400  33.2898850  26.3436470  34.0529150
  30.5446770  27.5996210  37.0644120  30.8700180  26.7659960  36.7246350
  31.3327100  28.1224730  37.2122450  27.2781560  21.6327690  23.1119180
  26.6535740  21.6287560  23.8372490  27.1911680  20.7658650  22.7155150
  26.1998640  22.5564320  30.0902950  26.4970970  23.4627150  30.0094970
  26.7484200  22.0683100  29.4762520  23.9536960  27.1350560  25.9594600
  23.7277880  26.9187730  26.8641220  23.1729490  27.5679020  25.6140570
  31.1834720  27.1413930  24.5585250  30.5843610  27.8649730  24.3748870
  31.7314330  27.0790710  23.7761700  26.3936170  28.0336140  36.6254870
  26.2979770  27.0930870  36.4755270  27.2368150  28.2551210  36.2302940
  29.7899590  25.7777470  26.5888530  30.1829160  26.0949670  25.7757220
  30.1516440  24.8989350  26.7033050  21.5246710  24.4449810  34.7788650
  21.1310100  25.2925020  34.9861430  20.8365110  23.8076180  34.9697290
  28.0991760  24.5284780  37.8485390  27.4090080  24.3356980  38.4831480
  28.8424060  24.8119420  38.3809690  18.8263760  22.3678270  28.8118730
  18.5376810  22.9381130  29.5243710  19.5709520  21.8882720  29.1749960
  19.0133990  26.3098390  20.0221450  18.9308660  27.2529150  20.1636440
  18.6617050  26.1673300  19.1433800  30.3754730  28.3683220  30.6839310
  29.6435850  28.8770030  31.0329410  29.9779070  27.5513200  30.3828090
  26.8132120  25.0437420  29.0891800  26.8168180  24.6027370  28.2396340
  27.7083240  25.3654750  29.1963620  22.6634500  24.9263910  28.0486010
  22.3234550  25.4039140  28.8053060  21.9011820  24.4729030  27.6887110
  26.8752270  26.0449500  22.0798560  26.9965090  26.0035980  23.0284380
  26.4900780  26.9073650  21.9245290  30.8380640  23.8216900  30.0962250
  30.8553380  24.2725550  30.9404100  30.5896220  22.9222540  30.3095690
  25.8873770  28.3550640  21.4781860  25.3190670  27.9068890  20.8517770
  26.5962770  28.7143420  20.9447010  34.2651390  21.2349080  35.9348630
  34.5897160  20.5038740  36.4606610  34.3007900  20.9162720  35.0329620
  20.9642950  32.2562660  35.3548590  20.5797740  31.6156330  35.9531550
  21.2755140  32.9598780  35.9243320  27.1140090  29.1039200  30.8357210
  27.4810220  28.6297770  31.5818550  26.9245150  29.9780770  31.1765550
  19.9780580  23.8482890  26.9650680  19.6927500  23.4838560  27.8029300
  19.9159440  23.1163350  26.3513820  24.9039460  28.1447840  33.1541420
  24.5996530  29.0239820  33.3791780  25.8585920  28.2047630  33.1898860
  23.4321250  32.3508830  23.7508270  22.6583510  31.8106450  23.5906990
  24.1615880  31.8315440  23.4126030  34.1909230  31.3474190  29.5434660
  34.9108350  31.8429480  29.1530770  33.9891050  30.6692080  28.8988530
  29.6519170  22.7412150  23.6864050  28.8383780  22.2425320  23.6109360
  29.4581120  23.5810400  23.2700400  29.5728030  31.4183250  35.4303660
  29.5065340  30.4978920  35.1761250  28.9433170  31.5158690  36.1448300
  32.3667560  27.1131800  21.9826210  33.2547180  27.4249030  21.8077550
  32.3372650  26.2404050  21.5906790  23.4758650  32.0189210  27.3887080
  23.9937320  31.2157470  27.3343970  23.0242670  31.9568350  28.2303910
  28.3628150  33.2855490  22.6614380  28.7043850  34.0297720  22.1657700
  27.5340860  33.5986610  23.0239210  20.9603190  28.9850580  34.3012780
  20.6018130  29.6504430  34.8886120  20.6657750  28.1534130  34.6725400
  24.1616310  29.4434820  37.1852330  23.8616450  29.5892000  36.2880150
  24.9327550  28.8840110  37.0925720  29.5044760  34.2403820  35.1807460
  29.5189300  33.3084780  34.9626370  28.7969860  34.3263580  35.8197230
  34.6381830  28.4243640  21.4506070  34.5545550  28.8557860  20.6002510
  35.3576020  28.8841990  21.8832890  35.7155970  30.8811160  34.5276040
  34.9904160  31.4739940  34.3305430  36.2431430  30.8734700  33.7289410
  35.6669080  35.2785900  24.1788200  35.0245240  34.6241520  24.4531920
  35.2799740  35.6840990  23.4028870  31.2455560  32.6071330  28.0259890
  31.5979380  32.0099460  27.3661260  30.3617890  32.2815560  28.1968140
  27.3318840  33.3669020  25.4330300  28.0189970  33.9138230  25.8137890
  26.5451260  33.9109750  25.4679910  19.4711240  28.9841840  20.9247380
  20.3406090  29.2666640  21.2083300  18.9801560  29.7977710  20.8096190
  26.6346050  30.3715050  25.0455660  27.0908830  31.1820300  25.2715850
  26.2834260  30.0538190  25.8774150  28.9378660  35.8821390  32.2747960
  29.5820880  36.0880770  32.9521380  29.3008100  35.1209790  31.8218810
  22.5357830  20.7152700  25.5178180  22.4072460  20.7070600  26.4663100
  21.7119850  21.0535790  25.1669190  30.2110740  33.8853740  30.9925410
  30.8532970  33.1846900  31.1057580  30.7360090  34.6652180  30.8122300
  34.0566460  34.1702360  20.7164550  33.8304040  33.4532800  21.3089190
  33.6662660  33.9214800  19.8786300  31.9848360  34.6848640  34.1961470
  32.3204600  35.2715330  34.8739390  31.0648700  34.5541350  34.4259260
  19.8382490  38.1969220  21.4909010  20.1980130  38.7958560  20.8366280
  19.6974830  38.7429110  22.2644040  19.5351760  22.4743820  34.9784880
  18.8210280  22.6740740  35.5837490  19.9546800  21.6983390  35.3499680
  33.6382710  32.0874300  22.3778710  33.3504410  32.5486990  23.1656590
  34.4334880  31.6272070  22.6462930  19.8224350  36.4624080  35.9651410
  19.9315470  35.5218820  35.8246800  19.1704910  36.7278830  35.3165140
  27.8136940  34.7339970  37.3649530  27.4933810  34.0149210  37.9095220
  27.1395300  35.4095040  37.4385590  25.8551110  35.5800420  22.3082680
  25.8461210  36.3130110  21.6927190  24.9349470  35.3332000  22.4009640
  21.4557750  30.8015310  23.0529440  20.8485700  31.5414210  23.0624740
  21.9307100  30.8914670  22.2267640  31.0290540  24.9666130  32.7286330
  31.3971360  24.1461340  33.0565900  30.1688740  25.0268020  33.1441980
  34.3952570  23.9223070  23.5373890  33.7665730  24.0268740  22.8232120
  33.9004490  24.1419850  24.3267770  28.8410710  35.6428660  20.9707870
  28.9422690  35.4392650  20.0409850  27.9412450  35.3886940  21.1755650
  26.3636600  26.2009020  24.9531770  25.6552750  26.6695360  25.3945380
  26.6481080  25.5431030  25.5876960  27.9892530  27.6205720  32.9524300
  28.4877780  28.0951540  33.6176150  28.1315480  26.6969240  33.1594330
  30.3952030  22.9259680  26.3927560  30.2719810  22.9445810  25.4437070
  31.3436590  22.9738620  26.5125960  27.4828820  38.1614980  25.6655540
  27.7370320  38.1236370  24.7434910  26.5341300  38.0348310  25.6583790
  24.5671620  24.5094100  22.3282480  25.4162150  24.9464250  22.2622670
  24.2002890  24.8214360  23.1554540  35.1959390  23.8373680  33.7952690
  34.6932990  24.5779080  34.1346500  36.0116050  24.2257680  33.4789480
  33.4881400  29.0806860  27.2414050  32.5471540  29.0957090  27.4161740
  33.8025470  28.2942820  27.6874350  23.4663040  30.7626460  20.8018010
  24.2326310  30.6507820  21.3643440  23.5437730  30.0664430  20.1494780
  22.1609800  28.1951530  21.4850900  22.2413390  27.2479040  21.5968300
  23.0529550  28.5258410  21.5911560  35.4906980  36.2515710  28.9168310
  35.6154400  37.0746880  29.3892120  36.3572540  36.0406440  28.5692460
  22.9624510  38.3446920  28.5885440  23.6986990  37.7962380  28.8594010
  23.3465430  39.2102930  28.4491430  19.8469990  34.4120490  24.4626950
  18.9209770  34.6541630  24.4532360  20.3126420  35.2394750  24.3411700
  21.9682790  37.5292990  37.7771020  22.7695520  37.8505040  38.1906420
  21.4534610  37.1688570  38.4990930  26.0726820  37.5177230  20.4111010
  26.8655430  37.8066060  19.9592800  25.5531170  37.0869400  19.7323490
  30.8047420  33.6372860  37.7246430  30.1985580  33.6604460  36.9842180
  30.5001530  32.9055900  38.2613680  32.2347790  37.3653150  36.3355840
  33.1869540  37.2811170  36.2856080  32.0876010  38.0294860  37.0089630
  35.1256990  36.7447360  21.8347750  34.8398500  36.3312500  21.0201930
  34.9276540  37.6735070  21.7148270  19.6880600  30.0166450  36.7207070
  20.1919620  29.4373730  37.2923300  18.9488020  30.3006680  37.2583440
  26.5904220  32.7380640  20.2753360  26.4854860  32.1232990  21.0014740
  26.4228440  32.2146530  19.4916370  26.7418540  31.4237440  36.2542590
  25.9764210  31.9922440  36.1697260  26.9234500  31.1313650  35.3610820
  29.8306950  31.8000670  20.8795350  29.2817050  32.2469970  21.5238090
  30.4526210  31.2949920  21.4033020  33.8841890  33.1542770  36.8117610
  34.6251360  33.4918530  36.3085070  33.1214570  33.3234830  36.2587380
  21.7203680  28.1596040  37.6157140  21.7609020  27.8609910  38.5242370
  22.5749180  28.5603650  37.4564660  25.4982070  30.7591590  22.7760650
  25.9198490  30.5931460  23.6192040  25.6232910  29.9491820  22.2815790
  23.6609490  26.7388140  35.5831630  23.1305950  26.2479090  34.9554970
  24.3297560  27.1672340  35.0489560  28.0109710  29.7829200  20.0237750
  28.5315370  29.0678220  19.6578900  28.6578110  30.4215070  20.3238260
  32.5587550  31.2057600  35.3472820  32.9728570  31.3602680  36.1963240
  31.6238550  31.3312820  35.5098600  33.0309720  28.5453760  37.3511970
  33.6130490  27.7906080  37.2632450  33.2071490  29.0761200  36.5743450
  24.1481790  23.7050510  35.6628920  24.0538660  23.0871260  34.9379790
  23.5679180  24.4316800  35.4358830  26.9143230  22.2623750  32.6956310
  26.4660530  22.2848010  31.8501860  26.2808430  21.8642770  33.2926610
  27.3202780  31.1578080  33.3168750  27.7390890  32.0010810  33.1444990
  26.4011410  31.2950120  33.0875530  29.6566680  28.8894260  34.7006590
  29.7762890  28.2935400  35.4401430  30.5160680  28.9263950  34.2807890
  31.9954580  29.4431450  33.2769100  31.4689800  29.9674070  32.6734240
  32.3385920  30.0758840  33.9078830  24.3940970  26.8324820  19.7218810
  24.1930030  25.9692180  20.0832150  24.2233020  26.7458180  18.7840410
  25.1710200  37.4631090  34.4326480  24.6331290  38.1877150  34.1135180
  25.4244160  36.9861430  33.6423820  26.4235450  25.4315610  35.9582410
  27.0135140  25.1231460  36.6460230  25.6055690  24.9595360  36.1142310
  31.2428880  25.0481420  36.1915430  30.5544400  24.3862960  36.1265420
  31.9634900  24.6019690  36.6363890  31.8729280  21.6433050  22.2505690
  32.1531570  20.8000950  22.6065110  31.0995010  21.8756160  22.7644440
  23.1923770  23.9325440  19.7096690  23.4949670  23.9392870  18.8015840
  23.9318360  23.5823300  20.2064350  28.0272410  38.6982300  34.6913130
  27.9531110  39.6017440  34.9985500  27.1251250  38.3794200  34.6635200
  26.4108700  22.8760060  20.6952890  26.0630700  22.1984050  20.1155340
  26.6121470  22.4149570  21.5096280  28.5757740  37.8640810  22.3139490
  29.4708530  38.2025780  22.3358250  28.6075370  37.1420220  21.6863770
  22.2153900  33.2367860  20.5426490  22.6528770  33.7797530  21.1984070
  22.7001630  32.4114810  20.5522830  19.4299700  36.0256890  27.9946750
  19.7602710  35.1577950  27.7625390  19.8590700  36.2315410  28.8251710
  24.0261620  34.3565900  25.6548720  23.7257160  34.2330870  26.5552630
  23.9199110  33.4974490  25.2464450  19.9189910  36.8927480  30.7328380
  19.4820900  37.0728280  31.5652530  20.4867590  37.6502100  30.5910100
  35.5552090  36.3944480  35.0205690  34.9554080  36.4537040  34.2769610
  35.6845990  35.4549460  35.1502540  36.7953540  34.1362300  20.3575400
  35.9646500  34.2038950  20.8282630  36.9725370  35.0266420  20.0542260
  36.2510000  30.8809780  22.8609600  37.0128910  31.4506430  22.9669290
  36.2664370  30.3136980  23.6317910  19.7514340  29.4047710  27.0917260
  19.0963180  29.1359350  26.4476960  20.5892290  29.2952190  26.6419240
  37.2569970  31.7359880  27.7051530  37.6278800  30.9527200  27.2987500
  37.8971900  32.4248980  27.5268830  34.2403730  33.1196460  33.1181850
  33.4263570  33.5493620  33.3807640  34.6477930  33.7314870  32.5050900
  36.3029170  31.1744150  20.0182120  36.5778010  32.0823030  19.8901340
  36.1139910  31.1106680  20.9544110  32.7004780  24.1989000  21.3135750
  33.1189660  24.0119980  20.4732410  32.3940840  23.3468050  21.6238680
  36.1994510  29.1113140  25.0111550  35.8238110  28.3441070  24.5792840
  35.4697630  29.4935840  25.4986480  20.7890270  29.7900280  31.6320600
  21.1563310  29.7027680  32.5116620  20.2201090  29.0266830  31.5327460
  35.5894130  28.2584660  34.6451070  35.3580220  28.0297410  33.7449020
  35.8498680  29.1784210  34.5995960  20.3406270  26.7009370  35.5379020
  19.4462320  26.6676130  35.8772730  20.8803820  26.8996160  36.3030270
  34.0282200  23.4841090  37.4230770  34.9052380  23.4924490  37.8064770
  34.0403040  22.7471930  36.8123120  18.9652420  26.6146640  23.0342590
  18.0616500  26.8776840  22.8594250  19.4493040  26.8857810  22.2542550
  35.4745470  27.3370630  28.3118790  35.9982950  26.8433280  27.6808960
  36.0604890  27.4720990  29.0566360  35.6535190  27.4210500  31.8338340
  34.7037900  27.3874040  31.9483330  35.8348200  28.3310610  31.5988110
  21.5079630  25.6712180  20.9436970  22.2171330  25.2495400  20.4584250
  20.7919570  25.7387410  20.3120320  21.1553790  21.7251510  19.9839620
  21.8781920  22.2660450  20.3020840  21.4278310  21.4514930  19.1081160
  34.9645440  26.5943980  24.2511200  35.4604560  26.3614850  25.0360080
  34.7661510  25.7555820  23.8348840  20.8445980  20.9757700  29.8862240
  21.4922170  20.4255080  29.4457400  21.2647820  21.2300850  30.7078050
  36.3932600  25.2304930  26.7848880  36.2831880  25.0760970  27.7231150
  37.1540190  24.7025870  26.5424290  34.7398320  21.1699060  33.2431880
  35.3770540  21.7833200  33.6091070  34.8873210  21.2059720  32.2981110
  37.2822870  23.0612850  20.0255020  38.2072180  22.9294030  19.8173310
  37.2598660  23.1405670  20.9791470  37.3561360  23.8323510  22.6511730
  36.5612860  23.7668630  23.1804640  37.5604640  24.7674150  22.6397080
  34.2979780  37.8715060  26.6450120  34.8938850  37.5499630  25.9684540
  34.5557930  37.3986880  27.4363390  20.5977980  21.1313370  32.6287560
  20.2492800  21.5877190  33.3945740  20.2665680  20.2370500  32.7109990
  22.2042350  34.3032970  36.7940750  22.1611980  33.9325880  37.6755210
  22.3353360  35.2410540  36.9342570  25.9048380  35.8592560  32.3950470
  25.6639740  36.1267120  31.5080990  26.8451020  36.0298290  32.4501330
  28.1102800  22.3225250  36.1506980  28.0491690  22.9147080  36.9002390
  29.0503180  22.2151210  36.0057240  30.7477360  21.9795310  35.7899270
  31.3617770  22.2974600  35.1280350  31.2926920  21.4943900  36.4095130
  37.1652540  37.8786940  33.1961110  36.6710820  38.2755810  32.4788240
  36.5565830  37.2536150  33.5898390  21.2698620  20.6589570  35.9038330
  21.8181610  20.4777620  35.1404440  21.3353930  19.8683680  36.4394640
  22.0430380  37.2495220  33.9138530  21.4490700  37.1179920  34.6528570
  22.0354220  36.4133360  33.4480630  31.4885400  20.5427450  32.1168560
  30.6145240  20.8762560  31.9141490  31.3796150  20.0700630  32.9420430
  32.3957380  22.7498320  33.5010280  32.0670740  21.9350080  33.1212010
  33.3439680  22.7068130  33.3775970  34.8491990  38.5210360  30.4747850
  34.3894960  39.2726170  30.1005870  34.2204450  37.8016830  30.4162650
  21.6742610  34.6153600  32.8646570  20.9476670  33.9958890  32.7972520
  21.7351760  35.0094210  31.9944650  25.2787710  36.8298600  29.6495980
  25.7952730  36.2185960  29.1244240  25.9285090  37.3327380  30.1406990
  28.0183210  37.7207090  30.4764960  28.3061020  37.4661390  29.5997970
  28.5306430  37.1684450  31.0670530  29.2360220  21.4597290  31.0561470
  28.4532010  21.9342790  31.3358230  28.9423150  20.5552120  30.9474650
  33.7881290  22.1620390  29.1010560  34.2289380  22.1065490  28.2532160
  33.5188880  23.0778400  29.1720740  35.6519860  21.7935630  27.1119380
  35.5908260  20.8496850  26.9650400  36.4311890  21.9015720  27.6572840
  19.9572610  37.9327990  26.0743330  19.7894650  37.2998670  26.7725220
  19.0907120  38.1387390  25.7237520  20.5800630  21.7644770  23.5775190
  21.3379990  21.8773650  23.0039220  20.1177800  22.6013970  23.5318620
  27.1214440  23.8784040  26.5677500  26.3088950  23.5040930  26.2273380
  27.6256080  23.1229120  26.8698690  31.6239420  20.5426490  27.8060570
  32.2268790  21.1146700  28.2809090  30.8832410  21.1065930  27.5834470
  34.7674020  20.9448050  23.0800850  34.9624650  21.8431500  23.3468280
  33.9803890  20.7135130  23.5733800  21.5635310  36.6261220  23.5193470
  21.0382930  37.0069250  22.8155430  21.4879890  37.2511990  24.2403180
  22.9525780  22.2908820  22.1177160  23.4818540  21.5038620  21.9885110
  23.5854100  22.9700010  22.3512690  25.1463620  22.0283960  25.1722550
  24.5166360  21.3271270  25.3392680  24.6068760  22.7888090  24.9555710
  28.0855570  38.6423190  37.8433160  29.0122880  38.4067460  37.8869120
  28.0706000  39.4695190  37.3619190  36.3200630  38.1848760  24.8407410
  36.4952820  37.4986500  24.1968330  35.6222200  38.7095810  24.4484080
  25.2719180  21.3067940  37.6075040  24.9903450  21.8101540  36.8435860
  25.6538880  20.5089690  37.2417170  24.1628280  38.5743600  22.3942720
  24.8947100  38.2902880  21.8466610  24.4221950  38.3356880  23.2842100
  23.3243070  34.6908330  22.3989050  22.6951950  35.1593430  22.9474880
  23.4390900  33.8457550  22.8335240  31.8734640  20.7221520  38.1855510
  31.7600090  21.0416130  39.0807030  32.6904380  21.1234030  37.8892790
  30.7792790  28.7413990   8.5490250  30.6986840  27.8268600   8.2781960
  30.3657210  29.2381060   7.8429960  28.9110830  30.5193010  10.4299520
  28.1352930  30.0393450  10.7198090  29.5623760  29.8398660  10.2555680
  22.9276660  30.8312820  11.3075280  22.0961540  30.5761530  11.7071790
  23.5357640  30.9023590  12.0433200  32.9318260  34.9253200   9.2098650
  32.4699790  34.1540440   9.5385820  33.7443810  34.9519270   9.7151100
  22.9077920  34.8652910  11.5033300  23.2105960  33.9750650  11.3243520
  23.6521510  35.4223130  11.2755550  21.3368610  25.7914710   5.0917670
  20.4485310  26.1330680   4.9897550  21.6209800  25.5915030   4.1998500
  19.3001620  28.3920360  10.9757370  19.8717730  27.6242560  10.9761010
  19.3003160  28.6909120  10.0663980  29.1581570  37.2111210   8.8302640
  28.5393010  37.6668710   8.2597080  30.0133350  37.3662670   8.4292340
  28.3519820  33.1950200  10.4369680  28.2828100  32.2540140  10.2758810
  29.1139680  33.2851610  11.0092250  20.5426490  23.8004720  12.7626300
  20.3629330  22.9030470  13.0429060  20.1406570  24.3476590  13.4373250
  29.3824990  26.0020580  10.6638610  29.7589810  25.1292460  10.5512280
  29.2844500  26.3379280   9.7729050  23.5130000  24.3746210   6.1256050
  23.6196750  25.2749940   6.4324810  22.6022360  24.3264180   5.8350700
  33.1649110  23.4971020   7.5966950  33.9858730  23.0067590   7.6392430
  33.1983190  24.0868680   8.3498790  21.1613160  26.2965220  11.3708640
  21.8423270  26.5603590  11.9896040  20.8461210  25.4566090  11.7046650
  25.3537730  27.3432580  10.4581230  25.8615950  27.8413550  11.0986250
  25.8850970  26.5667780  10.2820590  37.4548660  25.5137770  14.1610580
  36.7500830  25.9019480  13.6425690  37.7206580  26.2088060  14.7631510
  23.6373830  21.9831140  14.7244650  23.6392270  22.5003530  13.9190550
  22.8078140  21.5061320  14.7014580  30.0244920  32.0950450   6.2234550
  29.4062190  32.5599900   5.6597270  30.5368170  32.7877930   6.6404060
  24.8876680  31.6226320  12.9018150  24.5546060  32.2495240  13.5439220
  25.0643360  32.1488200  12.1219820  33.4010590  25.4371400  10.3694490
  32.6966160  25.7256290  10.9497600  33.7622750  26.2471510  10.0094050
  23.3189160  23.6941100  12.7315100  23.6605970  24.5383150  12.4368970
  22.3804970  23.8424840  12.8480440  24.0995780  33.5907120  14.7167330
  24.7169780  34.2658200  14.4351780  23.2388900  33.9995100  14.6254830
  19.3928120  32.7806980   3.5974180  19.0156100  33.2694080   2.8659080
  19.6501190  33.4532260   4.2280710  35.0173370  35.0546530  12.6321970
  34.3336890  35.7245640  12.6238640  35.5567660  35.2527180  11.8666830
  36.4697510  24.8826190  10.7603700  35.5222420  24.9165170  10.8919130
  36.7947500  25.6965140  11.1453060  27.0017050  21.1823370   9.0559690
  27.3092030  20.6270260   8.3395190  26.0717750  21.3167830   8.8732680
  32.5532110  36.8990660  11.3467150  32.5659270  36.4952950  10.4789410
  32.0007330  37.6737950  11.2428580  33.8477530  33.6206880   6.4357320
  33.7373860  32.6781210   6.5606740  33.8445780  33.9822520   7.3220080
  31.9517550  31.8020500  12.6749760  32.3686340  31.5880610  11.8403220
  32.6757370  32.0593290  13.2458380  29.3897810  29.2472200   5.7919810
  28.4627090  29.1809580   6.0208280  29.5422630  30.1852330   5.6775050
  29.3766890  25.5189200   2.7886970  28.4370560  25.6803160   2.8739430
  29.6950150  26.2374880   2.2422960  35.8979650  30.2007720  12.7666000
  35.0698280  30.2700810  12.2916130  36.4930130  30.7862030  12.2981830
  33.4195100  30.8092500   6.2955060  32.8007520  30.4712050   5.6481360
  33.4019550  30.1652260   7.0034250  32.8621660  26.9877040  13.7120870
  32.4492840  27.8130750  13.9660860  32.1297610  26.4022080  13.5197230
  24.9954450  29.7736940   8.5739540  24.5911450  29.0614190   8.0785440
  25.0817570  29.4290180   9.4627580  25.4636150  33.4604500  10.7378750
  25.1664440  32.8549970  10.0586530  26.4135970  33.4981810  10.6268110
  23.7083070  26.5480150  12.3538580  24.2597660  26.6575490  11.5791830
  24.2226580  26.9217750  13.0693810  33.5521760  37.0336370  14.4001850
  33.0752320  37.8408560  14.2074460  32.8683550  36.3814700  14.5528060
  24.5554580  33.1986190  17.3886550  23.6583110  33.4226160  17.6359950
  24.5807450  33.3221130  16.4397950  31.5959800  30.0479310   3.3027810
  32.0353080  29.2101740   3.1565630  32.3088220  30.6808710   3.3891950
  23.3825800  30.0699510  15.9643920  23.2433570  30.9422310  16.3331320
  22.5007160  29.7272320  15.8191860  29.7055180  34.9875380   7.2709050
  30.1451090  35.7299710   6.8564440  29.6442070  35.2301950   8.1948010
  25.1806150  36.0121210  18.1729070  25.1521580  36.4164160  17.3057500
  25.0171120  35.0831570  18.0100670  21.6959080  28.6681920   6.0746190
  21.5756680  29.3944010   5.4627460  21.3859970  27.8984830   5.5974100
  37.1320970  36.7948310  19.4693240  37.6080690  37.2731200  20.1482320
  37.7528130  36.7265800  18.7438740  19.3344450  31.8397060  11.8814830
  19.4124870  31.9745830  10.9370550  19.9486130  31.1312950  12.0742950
  20.5792080  33.5397250   8.2921010  20.1720160  33.6811840   7.4374610
  21.4705090  33.2557410   8.0892220  36.5354220  33.9861160  16.6293250
  36.6617280  33.7473040  15.7110430  36.5775600  33.1545700  17.1015330
  30.3970960  37.6889160  15.1988060  30.9115630  37.5997170  16.0010490
  29.5540040  38.0348860  15.4915970  32.3725360  37.9744500   4.6272060
  32.2126500  37.6847440   5.5253890  32.2072070  37.1984630   4.0917290
  24.8513740  37.7543030   6.4043680  24.6756220  36.8378570   6.1911480
  23.9969480  38.1130320   6.6441480  32.0751490  35.4832060   3.1870060
  31.3816650  35.4809350   2.5272340  32.8174350  35.0591380   2.7564230
  31.6401420  37.1094770   7.2618550  32.0958370  36.3284150   7.5757170
  31.9793940  37.8201590   7.8059730  36.3878230  26.0393620  17.5942990
  35.7722500  26.5473290  17.0658450  36.0674650  25.1391950  17.5368930
  19.3903970  32.8811230  14.4209290  19.5535010  32.4116590  13.6028660
  19.8556420  32.3734790  15.0858130  24.1622740  22.0116990   9.4569860
  23.7190890  22.7926530   9.1254380  24.7207730  22.3346880  10.1640800
  28.4492550  24.8785510  15.0605180  27.9871920  25.0868530  15.8725120
  28.0470660  24.0644860  14.7575850  33.4497060  26.0994460  16.1901840
  32.5990650  25.8000210  16.5110910  33.2898850  26.3436470  15.2785660
  30.5446770  27.5996210  18.2900630  30.8700180  26.7659960  17.9502860
  31.3327100  28.1224730  18.4378960  27.2781560  21.6327690   4.3375690
  26.6535740  21.6287560   5.0629000  27.1911680  20.7658650   3.9411660
  26.1998640  22.5564320  11.3159460  26.4970970  23.4627150  11.2351480
  26.7484200  22.0683100  10.7019030  23.9536960  27.1350560   7.1851110
  23.7277880  26.9187730   8.0897730  23.1729490  27.5679020   6.8397080
  31.1834720  27.1413930   5.7841760  30.5843610  27.8649730   5.6005380
  31.7314330  27.0790710   5.0018210  26.3936170  28.0336140  17.8511380
  26.2979770  27.0930870  17.7011780  27.2368150  28.2551210  17.4559450
  29.7899590  25.7777470   7.8145040  30.1829160  26.0949670   7.0013730
  30.1516440  24.8989350   7.9289560  21.5246710  24.4449810  16.0045160
  21.1310100  25.2925020  16.2117940  20.8365110  23.8076180  16.1953800
  28.0991760  24.5284780  19.0741900  27.4090080  24.3356980  19.7087990
  28.8424060  24.8119420  19.6066200  18.8263760  22.3678270  10.0375240
  18.5376810  22.9381130  10.7500220  19.5709520  21.8882720  10.4006470
  30.3754730  28.3683220  11.9095820  29.6435850  28.8770030  12.2585920
  29.9779070  27.5513200  11.6084600  26.8132120  25.0437420  10.3148310
  26.8168180  24.6027370   9.4652850  27.7083240  25.3654750  10.4220130
  22.6634500  24.9263910   9.2742520  22.3234550  25.4039140  10.0309570
  21.9011820  24.4729030   8.9143620  26.8752270  26.0449500   3.3055070
  26.9965090  26.0035980   4.2540890  26.4900780  26.9073650   3.1501800
  30.8380640  23.8216900  11.3218760  30.8553380  24.2725550  12.1660610
  30.5896220  22.9222540  11.5352200  25.8873770  28.3550640   2.7038370
  25.3190670  27.9068890   2.0774280  26.5962770  28.7143420   2.1703520
  34.2651390  21.2349080  17.1605140  34.5897160  20.5038740  17.6863120
  34.3007900  20.9162720  16.2586130  20.9642950  32.2562660  16.5805100
  20.5797740  31.6156330  17.1788060  21.2755140  32.9598780  17.1499830
  27.1140090  29.1039200  12.0613720  27.4810220  28.6297770  12.8075060
  26.9245150  29.9780770  12.4022060  19.9780580  23.8482890   8.1907190
  19.6927500  23.4838560   9.0285810  19.9159440  23.1163350   7.5770330
  24.9039460  28.1447840  14.3797930  24.5996530  29.0239820  14.6048290
  25.8585920  28.2047630  14.4155370  23.4321250  32.3508830   4.9764780
  22.6583510  31.8106450   4.8163500  24.1615880  31.8315440   4.6382540
  34.1909230  31.3474190  10.7691170  34.9108350  31.8429480  10.3787280
  33.9891050  30.6692080  10.1245040  29.6519170  22.7412150   4.9120560
  28.8383780  22.2425320   4.8365870  29.4581120  23.5810400   4.4956910
  29.5728030  31.4183250  16.6560170  29.5065340  30.4978920  16.4017760
  28.9433170  31.5158690  17.3704810  32.3667560  27.1131800   3.2082720
  33.2547180  27.4249030   3.0334060  32.3372650  26.2404050   2.8163300
  23.4758650  32.0189210   8.6143590  23.9937320  31.2157470   8.5600480
  23.0242670  31.9568350   9.4560420  28.3628150  33.2855490   3.8870890
  28.7043850  34.0297720   3.3914210  27.5340860  33.5986610   4.2495720
  20.9603190  28.9850580  15.5269290  20.6018130  29.6504430  16.1142630
  20.6657750  28.1534130  15.8981910  24.1616310  29.4434820  18.4108840
  23.8616450  29.5892000  17.5136660  24.9327550  28.8840110  18.3182230
  29.5044760  34.2403820  16.4063970  29.5189300  33.3084780  16.1882880
  28.7969860  34.3263580  17.0453740  34.6381830  28.4243640   2.6762580
  34.5545550  28.8557860   1.8259020  35.3576020  28.8841990   3.1089400
  35.7155970  30.8811160  15.7532550  34.9904160  31.4739940  15.5561940
  36.2431430  30.8734700  14.9545920  35.6669080  35.2785900   5.4044710
  35.0245240  34.6241520   5.6788430  35.2799740  35.6840990   4.6285380
  31.2455560  32.6071330   9.2516400  31.5979380  32.0099460   8.5917770
  30.3617890  32.2815560   9.4224650  27.3318840  33.3669020   6.6586810
  28.0189970  33.9138230   7.0394400  26.5451260  33.9109750   6.6936420
  19.4711240  28.9841840   2.1503890  20.3406090  29.2666640   2.4339810
  18.9801560  29.7977710   2.0352700  26.6346050  30.3715050   6.2712170
  27.0908830  31.1820300   6.4972360  26.2834260  30.0538190   7.1030660
  28.9378660  35.8821390  13.5004470  29.5820880  36.0880770  14.1777890
  29.3008100  35.1209790  13.0475320  22.5357830  20.7152700   6.7434690
  22.4072460  20.7070600   7.6919610  21.7119850  21.0535790   6.3925700
  30.2110740  33.8853740  12.2181920  30.8532970  33.1846900  12.3314090
  30.7360090  34.6652180  12.0378810  31.9848360  34.6848640  15.4217980
  32.3204600  35.2715330  16.0995900  31.0648700  34.5541350  15.6515770
  19.8382490  38.1969220   2.7165520  20.1980130  38.7958560   2.0622790
  19.6974830  38.7429110   3.4900550  19.5351760  22.4743820  16.2041390
  18.8210280  22.6740740  16.8094000  19.9546800  21.6983390  16.5756190
  33.6382710  32.0874300   3.6035220  33.3504410  32.5486990   4.3913100
  34.4334880  31.6272070   3.8719440  19.8224350  36.4624080  17.1907920
  19.9315470  35.5218820  17.0503310  19.1704910  36.7278830  16.5421650
  27.8136940  34.7339970  18.5906040  27.4933810  34.0149210  19.1351730
  27.1395300  35.4095040  18.6642100  25.8551110  35.5800420   3.5339190
  25.8461210  36.3130110   2.9183700  24.9349470  35.3332000   3.6266150
  21.4557750  30.8015310   4.2785950  20.8485700  31.5414210   4.2881250
  21.9307100  30.8914670   3.4524150  31.0290540  24.9666130  13.9542840
  31.3971360  24.1461340  14.2822410  30.1688740  25.0268020  14.3698490
  34.3952570  23.9223070   4.7630400  33.7665730  24.0268740   4.0488630
  33.9004490  24.1419850   5.5524280  26.3636600  26.2009020   6.1788280
  25.6552750  26.6695360   6.6201890  26.6481080  25.5431030   6.8133470
  27.9892530  27.6205720  14.1780810  28.4877780  28.0951540  14.8432660
  28.1315480  26.6969240  14.3850840  30.3952030  22.9259680   7.6184070
  30.2719810  22.9445810   6.6693580  31.3436590  22.9738620   7.7382470
  27.4828820  38.1614980   6.8912050  27.7370320  38.1236370   5.9691420
  26.5341300  38.0348310   6.8840300  24.5671620  24.5094100   3.5538990
  25.4162150  24.9464250   3.4879180  24.2002890  24.8214360   4.3811050
  35.1959390  23.8373680  15.0209200  34.6932990  24.5779080  15.3603010
  36.0116050  24.2257680  14.7045990  33.4881400  29.0806860   8.4670560
  32.5471540  29.0957090   8.6418250  33.8025470  28.2942820   8.9130860
  22.1609800  28.1951530   2.7107410  22.2413390  27.2479040   2.8224810
  23.0529550  28.5258410   2.8168070  35.4906980  36.2515710  10.1424820
  35.6154400  37.0746880  10.6148630  36.3572540  36.0406440   9.7948970
  22.9624510  38.3446920   9.8141950  23.6986990  37.7962380  10.0850520
  23.3465430  39.2102930   9.6747940  19.8469990  34.4120490   5.6883460
  18.9209770  34.6541630   5.6788870  20.3126420  35.2394750   5.5668210
  21.9682790  37.5292990  19.0027530  22.7695520  37.8505040  19.4162930
  21.4534610  37.1688570  19.7247440  30.8047420  33.6372860  18.9502940
  30.1985580  33.6604460  18.2098690  30.5001530  32.9055900  19.4870190
  32.2347790  37.3653150  17.5612350  33.1869540  37.2811170  17.5112590
  32.0876010  38.0294860  18.2346140  35.1256990  36.7447360   3.0604260
  34.8398500  36.3312500   2.2458440  34.9276540  37.6735070   2.9404780
  19.6880600  30.0166450  17.9463580  20.1919620  29.4373730  18.5179810
  18.9488020  30.3006680  18.4839950  26.7418540  31.4237440  17.4799100
  25.9764210  31.9922440  17.3953770  26.9234500  31.1313650  16.5867330
  29.8306950  31.8000670   2.1051860  29.2817050  32.2469970   2.7494600
  30.4526210  31.2949920   2.6289530  33.8841890  33.1542770  18.0374120
  34.6251360  33.4918530  17.5341580  33.1214570  33.3234830  17.4843890
  21.7203680  28.1596040  18.8413650  21.7609020  27.8609910  19.7498880
  22.5749180  28.5603650  18.6821170  25.4982070  30.7591590   4.0017160
  25.9198490  30.5931460   4.8448550  25.6232910  29.9491820   3.5072300
  23.6609490  26.7388140  16.8088140  23.1305950  26.2479090  16.1811480
  24.3297560  27.1672340  16.2746070  32.5587550  31.2057600  16.5729330
  32.9728570  31.3602680  17.4219750  31.6238550  31.3312820  16.7355110
  33.0309720  28.5453760  18.5768480  33.6130490  27.7906080  18.4888960
  33.2071490  29.0761200  17.7999960  24.1481790  23.7050510  16.8885430
  24.0538660  23.0871260  16.1636300  23.5679180  24.4316800  16.6615340
  26.9143230  22.2623750  13.9212820  26.4660530  22.2848010  13.0758370
  26.2808430  21.8642770  14.5183120  27.3202780  31.1578080  14.5425260
  27.7390890  32.0010810  14.3701500  26.4011410  31.2950120  14.3132040
  29.6566680  28.8894260  15.9263100  29.7762890  28.2935400  16.6657940
  30.5160680  28.9263950  15.5064400  31.9954580  29.4431450  14.5025610
  31.4689800  29.9674070  13.8990750  32.3385920  30.0758840  15.1335340
  25.1710200  37.4631090  15.6582990  24.6331290  38.1877150  15.3391690
  25.4244160  36.9861430  14.8680330  26.4235450  25.4315610  17.1838920
  27.0135140  25.1231460  17.8716740  25.6055690  24.9595360  17.3398820
  31.2428880  25.0481420  17.4171940  30.5544400  24.3862960  17.3521930
  31.9634900  24.6019690  17.8620400  31.8729280  21.6433050   3.4762200
  32.1531570  20.8000950   3.8321620  31.0995010  21.8756160   3.9900950
  28.0272410  38.6982300  15.9169640  27.9531110  39.6017440  16.2242010
  27.1251250  38.3794200  15.8891710  28.5757740  37.8640810   3.5396000
  29.4708530  38.2025780   3.5614760  28.6075370  37.1420220   2.9120280
  22.2153900  33.2367860   1.7683000  22.6528770  33.7797530   2.4240580
  22.7001630  32.4114810   1.7779340  19.4299700  36.0256890   9.2203260
  19.7602710  35.1577950   8.9881900  19.8590700  36.2315410  10.0508220
  24.0261620  34.3565900   6.8805230  23.7257160  34.2330870   7.7809140
  23.9199110  33.4974490   6.4720960  19.9189910  36.8927480  11.9584890
  19.4820900  37.0728280  12.7909040  20.4867590  37.6502100  11.8166610
  35.5552090  36.3944480  16.2462200  34.9554080  36.4537040  15.5026120
  35.6845990  35.4549460  16.3759050  36.2510000  30.8809780   4.0866110
  37.0128910  31.4506430   4.1925800  36.2664370  30.3136980   4.8574420
  19.7514340  29.4047710   8.3173770  19.0963180  29.1359350   7.6733470
  20.5892290  29.2952190   7.8675750  37.2569970  31.7359880   8.9308040
  37.6278800  30.9527200   8.5244010  37.8971900  32.4248980   8.7525340
  34.2403730  33.1196460  14.3438360  33.4263570  33.5493620  14.6064150
  34.6477930  33.7314870  13.7307410  32.7004780  24.1989000   2.5392260
  33.1189660  24.0119980   1.6988920  32.3940840  23.3468050   2.8495190
  36.1994510  29.1113140   6.2368060  35.8238110  28.3441070   5.8049350
  35.4697630  29.4935840   6.7242990  20.7890270  29.7900280  12.8577110
  21.1563310  29.7027680  13.7373130  20.2201090  29.0266830  12.7583970
  35.5894130  28.2584660  15.8707580  35.3580220  28.0297410  14.9705530
  35.8498680  29.1784210  15.8252470  20.3406270  26.7009370  16.7635530
  19.4462320  26.6676130  17.1029240  20.8803820  26.8996160  17.5286780
  34.0282200  23.4841090  18.6487280  34.9052380  23.4924490  19.0321280
  34.0403040  22.7471930  18.0379630  18.9652420  26.6146640   4.2599100
  18.0616500  26.8776840   4.0850760  19.4493040  26.8857810   3.4799060
  35.4745470  27.3370630   9.5375300  35.9982950  26.8433280   8.9065470
  36.0604890  27.4720990  10.2822870  35.6535190  27.4210500  13.0594850
  34.7037900  27.3874040  13.1739840  35.8348200  28.3310610  12.8244620
  34.9645440  26.5943980   5.4767710  35.4604560  26.3614850   6.2616590
  34.7661510  25.7555820   5.0605350  20.8445980  20.9757700  11.1118750
  21.4922170  20.4255080  10.6713910  21.2647820  21.2300850  11.9334560
  36.3932600  25.2304930   8.0105390  36.2831880  25.0760970   8.9487660
  37.1540190  24.7025870   7.7680800  34.7398320  21.1699060  14.4688390
  35.3770540  21.7833200  14.8347580  34.8873210  21.2059720  13.5237620
  37.3561360  23.8323510   3.8768240  36.5612860  23.7668630   4.4061150
  37.5604640  24.7674150   3.8653590  34.2979780  37.8715060   7.8706630
  34.8938850  37.5499630   7.1941050  34.5557930  37.3986880   8.6619900
  20.5977980  21.1313370  13.8544070  20.2492800  21.5877190  14.6202250
  20.2665680  20.2370500  13.9366500  22.2042350  34.3032970  18.0197260
  22.1611980  33.9325880  18.9011720  22.3353360  35.2410540  18.1599080
  25.9048380  35.8592560  13.6206980  25.6639740  36.1267120  12.7337500
  26.8451020  36.0298290  13.6757840  28.1102800  22.3225250  17.3763490
  28.0491690  22.9147080  18.1258900  29.0503180  22.2151210  17.2313750
  30.7477360  21.9795310  17.0155780  31.3617770  22.2974600  16.3536860
  31.2926920  21.4943900  17.6351640  37.1652540  37.8786940  14.4217620
  36.6710820  38.2755810  13.7044750  36.5565830  37.2536150  14.8154900
  21.2698620  20.6589570  17.1294840  21.8181610  20.4777620  16.3660950
  21.3353930  19.8683680  17.6651150  22.0430380  37.2495220  15.1395040
  21.4490700  37.1179920  15.8785080  22.0354220  36.4133360  14.6737140
  31.4885400  20.5427450  13.3425070  30.6145240  20.8762560  13.1398000
  31.3796150  20.0700630  14.1676940  32.3957380  22.7498320  14.7266790
  32.0670740  21.9350080  14.3468520  33.3439680  22.7068130  14.6032480
  34.8491990  38.5210360  11.7004360  34.3894960  39.2726170  11.3262380
  34.2204450  37.8016830  11.6419160  21.6742610  34.6153600  14.0903080
  20.9476670  33.9958890  14.0229030  21.7351760  35.0094210  13.2201160
  25.2787710  36.8298600  10.8752490  25.7952730  36.2185960  10.3500750
  25.9285090  37.3327380  11.3663500  28.0183210  37.7207090  11.7021470
  28.3061020  37.4661390  10.8254480  28.5306430  37.1684450  12.2927040
  29.2360220  21.4597290  12.2817980  28.4532010  21.9342790  12.5614740
  28.9423150  20.5552120  12.1731160  33.7881290  22.1620390  10.3267070
  34.2289380  22.1065490   9.4788670  33.5188880  23.0778400  10.3977250
  35.6519860  21.7935630   8.3375890  35.5908260  20.8496850   8.1906910
  36.4311890  21.9015720   8.8829350  19.9572610  37.9327990   7.2999840
  19.7894650  37.2998670   7.9981730  19.0907120  38.1387390   6.9494030
  20.5800630  21.7644770   4.8031700  21.3379990  21.8773650   4.2295730
  20.1177800  22.6013970   4.7575130  27.1214440  23.8784040   7.7934010
  26.3088950  23.5040930   7.4529890  27.6256080  23.1229120   8.0955200
  31.6239420  20.5426490   9.0317080  32.2268790  21.1146700   9.5065600
  30.8832410  21.1065930   8.8090980  34.7674020  20.9448050   4.3057360
  34.9624650  21.8431500   4.5724790  33.9803890  20.7135130   4.7990310
  21.5635310  36.6261220   4.7449980  21.0382930  37.0069250   4.0411940
  21.4879890  37.2511990   5.4659690  22.9525780  22.2908820   3.3433670
  23.4818540  21.5038620   3.2141620  23.5854100  22.9700010   3.5769200
  25.1463620  22.0283960   6.3979060  24.5166360  21.3271270   6.5649190
  24.6068760  22.7888090   6.1812220  28.0855570  38.6423190  19.0689670
  29.0122880  38.4067460  19.1125630  28.0706000  39.4695190  18.5875700
  36.3200630  38.1848760   6.0663920  36.4952820  37.4986500   5.4224840
  35.6222200  38.7095810   5.6740590  25.2719180  21.3067940  18.8331550
  24.9903450  21.8101540  18.0692370  25.6538880  20.5089690  18.4673680
  24.1628280  38.5743600   3.6199230  24.8947100  38.2902880   3.0723120
  24.4221950  38.3356880   4.5098610  23.3243070  34.6908330   3.6245560
  22.6951950  35.1593430   4.1731390  23.4390900  33.8457550   4.0591750
  31.8734640  20.7221520  19.4112020  31.7600090  21.0416130  20.3063540
  32.6904380  21.1234030  19.1149300  34.6533130  37.8693050  18.8930710
  35.4458450  37.3742280  18.6856670  34.9466280  38.5483190  19.5006320
  30.7792790   9.9670500 139.9694680  30.6986840   9.0525110 139.6986390
  30.3657210  10.4637570 139.2634390  28.9110830  11.7449520 141.8503950
  28.1352930  11.2649960 142.1402520  29.5623760  11.0655170 141.6760110
  22.9276660  12.0569330 142.7279710  22.0961540  11.8018040 143.1276220
  23.5357640  12.1280100 143.4637630  32.9318260  16.1509710 140.6303080
  32.4699790  15.3796950 140.9590250  33.7443810  16.1775780 141.1355530
  22.9077920  16.0909420 142.9237730  23.2105960  15.2007160 142.7447950
  23.6521510  16.6479640 142.6959980  21.3368610   7.0171220 136.5122100
  20.4485310   7.3587190 136.4101980  21.6209800   6.8171540 135.6202930
  19.3001620   9.6176870 142.3961800  19.8717730   8.8499070 142.3965440
  19.3003160   9.9165630 141.4868410  29.1581570  18.4367720 140.2507070
  28.5393010  18.8925220 139.6801510  30.0133350  18.5919180 139.8496770
  28.3519820  14.4206710 141.8574110  28.2828100  13.4796650 141.6963240
  29.1139680  14.5108120 142.4296680  20.5426490   5.0261230 144.1830730
  20.3629330   4.1286980 144.4633490  20.1406570   5.5733100 144.8577680
  29.3824990   7.2277090 142.0843040  29.7589810   6.3548970 141.9716710
  29.2844500   7.5635790 141.1933480  23.5130000   5.6002720 137.5460480
  23.6196750   6.5006450 137.8529240  22.6022360   5.5520690 137.2555130
  33.1649110   4.7227530 139.0171380  33.9858730   4.2324100 139.0596860
  33.1983190   5.3125190 139.7703220  21.1613160   7.5221730 142.7913070
  21.8423270   7.7860100 143.4100470  20.8461210   6.6822600 143.1251080
  25.3537730   8.5689090 141.8785660  25.8615950   9.0670060 142.5190680
  25.8850970   7.7924290 141.7025020  37.4548660   6.7394280 145.5815010
  36.7500830   7.1275990 145.0630120  37.7206580   7.4344570 146.1835940
  23.6373830   3.2087650 146.1449080  23.6392270   3.7260040 145.3394980
  22.8078140   2.7317830 146.1219010  30.0244920  13.3206960 137.6438980
  29.4062190  13.7856410 137.0801700  30.5368170  14.0134440 138.0608490
  24.8876680  12.8482830 144.3222580  24.5546060  13.4751750 144.9643650
  25.0643360  13.3744710 143.5424250  33.4010590   6.6627910 141.7898920
  32.6966160   6.9512800 142.3702030  33.7622750   7.4728020 141.4298480
  23.3189160   4.9197610 144.1519530  23.6605970   5.7639660 143.8573400
  22.3804970   5.0681350 144.2684870  24.0995780  14.8163630 146.1371760
  24.7169780  15.4914710 145.8556210  23.2388900  15.2251610 146.0459260
  19.3928120  14.0063490 135.0178610  19.0156100  14.4950590 134.2863510
  19.6501190  14.6788770 135.6485140  35.0173370  16.2803040 144.0526400
  34.3336890  16.9502150 144.0443070  35.5567660  16.4783690 143.2871260
  36.4697510   6.1082700 142.1808130  35.5222420   6.1421680 142.3123560
  36.7947500   6.9221650 142.5657490  27.0017050   2.4079880 140.4764120
  27.3092030   1.8526770 139.7599620  26.0717750   2.5424340 140.2937110
  32.5532110  18.1247170 142.7671580  32.5659270  17.7209460 141.8993840
  32.0007330  18.8994460 142.6633010  33.8477530  14.8463390 137.8561750
  33.7373860  13.9037720 137.9811170  33.8445780  15.2079030 138.7424510
  31.9517550  13.0277010 144.0954190  32.3686340  12.8137120 143.2607650
  32.6757370  13.2849800 144.6662810  29.3897810  10.4728710 137.2124240
  28.4627090  10.4066090 137.4412710  29.5422630  11.4108840 137.0979480
  29.3766890   6.7445710 134.2091400  28.4370560   6.9059670 134.2943860
  29.6950150   7.4631390 133.6627390  35.8979650  11.4264230 144.1870430
  35.0698280  11.4957320 143.7120560  36.4930130  12.0118540 143.7186260
  33.4195100  12.0349010 137.7159490  32.8007520  11.6968560 137.0685790
  33.4019550  11.3908770 138.4238680  32.8621660   8.2133550 145.1325300
  32.4492840   9.0387260 145.3865290  32.1297610   7.6278590 144.9401660
  24.9954450  10.9993450 139.9943970  24.5911450  10.2870700 139.4989870
  25.0817570  10.6546690 140.8832010  25.4636150  14.6861010 142.1583180
  25.1664440  14.0806480 141.4790960  26.4135970  14.7238320 142.0472540
  23.7083070   7.7736660 143.7743010  24.2597660   7.8832000 142.9996260
  24.2226580   8.1474260 144.4898240  33.5521760  18.2592880 145.8206280
  33.0752320  19.0665070 145.6278890  32.8683550  17.6071210 145.9732490
  24.5554580  14.4242700 148.8090980  23.6583110  14.6482670 149.0564380
  24.5807450  14.5477640 147.8602380  31.5959800  11.2735820 134.7232240
  32.0353080  10.4358250 134.5770060  32.3088220  11.9065220 134.8096380
  23.3825800  11.2956020 147.3848350  23.2433570  12.1678820 147.7535750
  22.5007160  10.9528830 147.2396290  29.7055180  16.2131890 138.6913480
  30.1451090  16.9556220 138.2768870  29.6442070  16.4558460 139.6152440
  25.1806150  17.2377720 149.5933500  25.1521580  17.6420670 148.7261930
  25.0171120  16.3088080 149.4305100  35.1776940   2.5278630 133.0373280
  34.8649600   2.6205460 133.9372350  35.9389410   3.1059660 132.9870710
  21.6959080   9.8938430 137.4950620  21.5756680  10.6200520 136.8831890
  21.3859970   9.1241340 137.0178530  19.3344450  13.0653570 143.3019260
  19.4124870  13.2002340 142.3574980  19.9486130  12.3569460 143.4947380
  20.5792080  14.7653760 139.7125440  20.1720160  14.9068350 138.8579040
  21.4705090  14.4813920 139.5096650  36.5354220  15.2117670 148.0497680
  36.6617280  14.9729550 147.1314860  36.5775600  14.3802210 148.5219760
  30.3970960  18.9145670 146.6192490  30.9115630  18.8253680 147.4214920
  29.5540040  19.2605370 146.9120400  32.3725360  19.2001010 136.0476490
  32.2126500  18.9103950 136.9458320  32.2072070  18.4241140 135.5121720
  24.8513740  18.9799540 137.8248110  24.6756220  18.0635080 137.6115910
  23.9969480  19.3386830 138.0645910  32.0751490  16.7088570 134.6074490
  31.3816650  16.7065860 133.9476770  32.8174350  16.2847890 134.1768660
  31.6401420  18.3351280 138.6822980  32.0958370  17.5540660 138.9961600
  31.9793940  19.0458100 139.2264160  36.3878230   7.2650130 149.0147420
  35.7722500   7.7729800 148.4862880  36.0674650   6.3648460 148.9573360
  19.3903970  14.1067740 145.8413720  19.5535010  13.6373100 145.0233090
  19.8556420  13.5991300 146.5062560  24.1622740   3.2373500 140.8774290
  23.7190890   4.0183040 140.5458810  24.7207730   3.5603390 141.5845230
  28.4492550   6.1042020 146.4809610  27.9871920   6.3125040 147.2929550
  28.0470660   5.2901370 146.1780280  33.4497060   7.3250970 147.6106270
  32.5990650   7.0256720 147.9315340  33.2898850   7.5692980 146.6990090
  30.5446770   8.8252720 149.7105060  30.8700180   7.9916470 149.3707290
  31.3327100   9.3481240 149.8583390  27.2781560   2.8584200 135.7580120
  26.6535740   2.8544070 136.4833430  27.1911680   1.9915160 135.3616090
  26.1998640   3.7820830 142.7363890  26.4970970   4.6883660 142.6555910
  26.7484200   3.2939610 142.1223460  23.9536960   8.3607070 138.6055540
  23.7277880   8.1444240 139.5102160  23.1729490   8.7935530 138.2601510
  31.1834720   8.3670440 137.2046190  30.5843610   9.0906240 137.0209810
  31.7314330   8.3047220 136.4222640  26.3936170   9.2592650 149.2715810
  26.2979770   8.3187380 149.1216210  27.2368150   9.4807720 148.8763880
  29.7899590   7.0033980 139.2349470  30.1829160   7.3206180 138.4218160
  30.1516440   6.1245860 139.3493990  21.5246710   5.6706320 147.4249590
  21.1310100   6.5181530 147.6322370  20.8365110   5.0332690 147.6158230
  18.8263760   3.5934780 141.4579670  18.5376810   4.1637640 142.1704650
  19.5709520   3.1139230 141.8210900  19.0133990   7.5354900 132.6682390
  18.9308660   8.4785660 132.8097380  18.6617050   7.3929810 131.7894740
  30.3754730   9.5939730 143.3300250  29.6435850  10.1026540 143.6790350
  29.9779070   8.7769710 143.0289030  26.8132120   6.2693930 141.7352740
  26.8168180   5.8283880 140.8857280  27.7083240   6.5911260 141.8424560
  22.6634500   6.1520420 140.6946950  22.3234550   6.6295650 141.4514000
  21.9011820   5.6985540 140.3348050  26.8752270   7.2706010 134.7259500
  26.9965090   7.2292490 135.6745320  26.4900780   8.1330160 134.5706230
  30.8380640   5.0473410 142.7423190  30.8553380   5.4982060 143.5865040
  30.5896220   4.1479050 142.9556630  25.8873770   9.5807150 134.1242800
  25.3190670   9.1325400 133.4978710  26.5962770   9.9399930 133.5907950
  34.2651390   2.4605590 148.5809570  34.5897160   1.7295250 149.1067550
  34.3007900   2.1419230 147.6790560  20.9642950  13.4819170 148.0009530
  20.5797740  12.8412840 148.5992490  21.2755140  14.1855290 148.5704260
  27.1140090  10.3295710 143.4818150  27.4810220   9.8554280 144.2279490
  26.9245150  11.2037280 143.8226490  19.9780580   5.0739400 139.6111620
  19.6927500   4.7095070 140.4490240  19.9159440   4.3419860 138.9974760
  24.9039460   9.3704350 145.8002360  24.5996530  10.2496330 146.0252720
  25.8585920   9.4304140 145.8359800  23.4321250  13.5765340 136.3969210
  22.6583510  13.0362960 136.2367930  24.1615880  13.0571950 136.0586970
  34.1909230  12.5730700 142.1895600  34.9108350  13.0685990 141.7991710
  33.9891050  11.8948590 141.5449470  29.6519170   3.9668660 136.3324990
  28.8383780   3.4681830 136.2570300  29.4581120   4.8066910 135.9161340
  29.5728030  12.6439760 148.0764600  29.5065340  11.7235430 147.8222190
  28.9433170  12.7415200 148.7909240  32.3667560   8.3388310 134.6287150
  33.2547180   8.6505540 134.4538490  32.3372650   7.4660560 134.2367730
  23.4758650  13.2445720 140.0348020  23.9937320  12.4413980 139.9804910
  23.0242670  13.1824860 140.8764850  28.3628150  14.5112000 135.3075320
  28.7043850  15.2554230 134.8118640  27.5340860  14.8243120 135.6700150
  20.9603190  10.2107090 146.9473720  20.6018130  10.8760940 147.5347060
  20.6657750   9.3790640 147.3186340  24.1616310  10.6691330 149.8313270
  23.8616450  10.8148510 148.9341090  24.9327550  10.1096620 149.7386660
  29.5044760  15.4660330 147.8268400  29.5189300  14.5341290 147.6087310
  28.7969860  15.5520090 148.4658170  34.6381830   9.6500150 134.0967010
  34.5545550  10.0814370 133.2463450  35.3576020  10.1098500 134.5293830
  35.7155970  12.1067670 147.1736980  34.9904160  12.6996450 146.9766370
  36.2431430  12.0991210 146.3750350  35.6669080  16.5042410 136.8249140
  35.0245240  15.8498030 137.0992860  35.2799740  16.9097500 136.0489810
  31.2455560  13.8327840 140.6720830  31.5979380  13.2355970 140.0122200
  30.3617890  13.5072070 140.8429080  27.3318840  14.5925530 138.0791240
  28.0189970  15.1394740 138.4598830  26.5451260  15.1366260 138.1140850
  19.4711240  10.2098350 133.5708320  20.3406090  10.4923150 133.8544240
  18.9801560  11.0234220 133.4557130  26.6346050  11.5971560 137.6916600
  27.0908830  12.4076810 137.9176790  26.2834260  11.2794700 138.5235090
  28.9378660  17.1077900 144.9208900  29.5820880  17.3137280 145.5982320
  29.3008100  16.3466300 144.4679750  22.5357830   1.9409210 138.1639120
  22.4072460   1.9327110 139.1124040  21.7119850   2.2792300 137.8130130
  30.2110740  15.1110250 143.6386350  30.8532970  14.4103410 143.7518520
  30.7360090  15.8908690 143.4583240  34.0566460  15.3958870 133.3625490
  33.8304040  14.6789310 133.9550130  33.6662660  15.1471310 132.5247240
  31.9848360  15.9105150 146.8422410  32.3204600  16.4971840 147.5200330
  31.0648700  15.7797860 147.0720200  19.8382490  19.4225730 134.1369950
  20.1980130  20.0215070 133.4827220  19.6974830  19.9685620 134.9104980
  19.5351760   3.7000330 147.6245820  18.8210280   3.8997250 148.2298430
  19.9546800   2.9239900 147.9960620  33.6382710  13.3130810 135.0239650
  33.3504410  13.7743500 135.8117530  34.4334880  12.8528580 135.2923870
  19.8224350  17.6880590 148.6112350  19.9315470  16.7475330 148.4707740
  19.1704910  17.9535340 147.9626080  25.8551110  16.8056930 134.9543620
  25.8461210  17.5386620 134.3388130  24.9349470  16.5588510 135.0470580
  21.4557750  12.0271820 135.6990380  20.8485700  12.7670720 135.7085680
  21.9307100  12.1171180 134.8728580  31.0290540   6.1922640 145.3747270
  31.3971360   5.3717850 145.7026840  30.1688740   6.2524530 145.7902920
  34.3952570   5.1479580 136.1834830  33.7665730   5.2525250 135.4693060
  33.9004490   5.3676360 136.9728710  28.8410710  16.8685170 133.6168810
  28.9422690  16.6649160 132.6870790  27.9412450  16.6143450 133.8216590
  26.3636600   7.4265530 137.5992710  25.6552750   7.8951870 138.0406320
  26.6481080   6.7687540 138.2337900  27.9892530   8.8462230 145.5985240
  28.4877780   9.3208050 146.2637090  28.1315480   7.9225750 145.8055270
  30.3952030   4.1516190 139.0388500  30.2719810   4.1702320 138.0898010
  31.3436590   4.1995130 139.1586900  27.4828820  19.3871490 138.3116480
  27.7370320  19.3492880 137.3895850  26.5341300  19.2604820 138.3044730
  24.5671620   5.7350610 134.9743420  25.4162150   6.1720760 134.9083610
  24.2002890   6.0470870 135.8015480  35.1959390   5.0630190 146.4413630
  34.6932990   5.8035590 146.7807440  36.0116050   5.4514190 146.1250420
  33.4881400  10.3063370 139.8874990  32.5471540  10.3213600 140.0622680
  33.8025470   9.5199330 140.3335290  23.4663040  11.9882970 133.4478950
  24.2326310  11.8764330 134.0104380  23.5437730  11.2920940 132.7955720
  22.1609800   9.4208040 134.1311840  22.2413390   8.4735550 134.2429240
  23.0529550   9.7514920 134.2372500  35.4906980  17.4772220 141.5629250
  35.6154400  18.3003390 142.0353060  36.3572540  17.2662950 141.2153400
  22.9624510  19.5703430 141.2346380  23.6986990  19.0218890 141.5054950
  23.3465430  20.4359440 141.0952370  19.8469990  15.6377000 137.1087890
  18.9209770  15.8798140 137.0993300  20.3126420  16.4651260 136.9872640
  26.0726820  18.7433740 133.0571950  26.8655430  19.0322570 132.6053740
  25.5531170  18.3125910 132.3784430  32.2347790  18.5909660 148.9816780
  33.1869540  18.5067680 148.9317020  32.0876010  19.2551370 149.6550570
  35.1256990  17.9703870 134.4808690  34.8398500  17.5569010 133.6662870
  34.9276540  18.8991580 134.3609210  19.6880600  11.2422960 149.3668010
  20.1919620  10.6630240 149.9384240  18.9488020  11.5263190 149.9044380
  26.5904220  13.9637150 132.9214300  26.4854860  13.3489500 133.6475680
  26.4228440  13.4403040 132.1377310  26.7418540  12.6493950 148.9003530
  25.9764210  13.2178950 148.8158200  26.9234500  12.3570160 148.0071760
  29.8306950  13.0257180 133.5256290  29.2817050  13.4726480 134.1699030
  30.4526210  12.5206430 134.0493960  33.8841890  14.3799280 149.4578550
  34.6251360  14.7175040 148.9546010  33.1214570  14.5491340 148.9048320
  25.4982070  11.9848100 135.4221590  25.9198490  11.8187970 136.2652980
  25.6232910  11.1748330 134.9276730  23.6609490   7.9644650 148.2292570
  23.1305950   7.4735600 147.6015910  24.3297560   8.3928850 147.6950500
  28.0109710  11.0085710 132.6698690  28.5315370  10.2934730 132.3039840
  28.6578110  11.6471580 132.9699200  32.5587550  12.4314110 147.9933760
  32.9728570  12.5859190 148.8424180  31.6238550  12.5569330 148.1559540
  33.0309720   9.7710270 149.9972910  33.6130490   9.0162590 149.9093390
  33.2071490  10.3017710 149.2204390  24.1481790   4.9307020 148.3089860
  24.0538660   4.3127770 147.5840730  23.5679180   5.6573310 148.0819770
  26.9143230   3.4880260 145.3417250  26.4660530   3.5104520 144.4962800
  26.2808430   3.0899280 145.9387550  27.3202780  12.3834590 145.9629690
  27.7390890  13.2267320 145.7905930  26.4011410  12.5206630 145.7336470
  29.6566680  10.1150770 147.3467530  29.7762890   9.5191910 148.0862370
  30.5160680  10.1520460 146.9268830  31.9954580  10.6687960 145.9230040
  31.4689800  11.1930580 145.3195180  32.3385920  11.3015350 146.5539770
  24.3940970   8.0581330 132.3679750  24.1930030   7.1948690 132.7293090
  24.2233020   7.9714690 131.4301350  25.1710200  18.6887600 147.0787420
  24.6331290  19.4133660 146.7596120  25.4244160  18.2117940 146.2884760
  26.4235450   6.6572120 148.6043350  27.0135140   6.3487970 149.2921170
  25.6055690   6.1851870 148.7603250  31.2428880   6.2737930 148.8376370
  30.5544400   5.6119470 148.7726360  31.9634900   5.8276200 149.2824830
  31.8729280   2.8689560 134.8966630  32.1531570   2.0257460 135.2526050
  31.0995010   3.1012670 135.4105380  23.1923770   5.1581950 132.3557630
  23.4949670   5.1649380 131.4476780  23.9318360   4.8079810 132.8525290
  28.0272410  19.9238810 147.3374070  27.9531110  20.8273950 147.6446440
  27.1251250  19.6050710 147.3096140  26.4108700   4.1016570 133.3413830
  26.0630700   3.4240560 132.7616280  26.6121470   3.6406080 134.1557220
  28.5757740  19.0897320 134.9600430  29.4708530  19.4282290 134.9819190
  28.6075370  18.3676730 134.3324710  22.2153900  14.4624370 133.1887430
  22.6528770  15.0054040 133.8445010  22.7001630  13.6371320 133.1983770
  19.4299700  17.2513400 140.6407690  19.7602710  16.3834460 140.4086330
  19.8590700  17.4571920 141.4712650  24.0261620  15.5822410 138.3009660
  23.7257160  15.4587380 139.2013570  23.9199110  14.7231000 137.8925390
  19.9189910  18.1183990 143.3789320  19.4820900  18.2984790 144.2113470
  20.4867590  18.8758610 143.2371040  35.5552090  17.6200990 147.6666630
  34.9554080  17.6793550 146.9230550  35.6845990  16.6805970 147.7963480
  36.7953540  15.3618810 133.0036340  35.9646500  15.4295460 133.4743570
  36.9725370  16.2522930 132.7003200  36.2510000  12.1066290 135.5070540
  37.0128910  12.6762940 135.6130230  36.2664370  11.5393490 136.2778850
  19.7514340  10.6304220 139.7378200  19.0963180  10.3615860 139.0937900
  20.5892290  10.5208700 139.2880180  37.2569970  12.9616390 140.3512470
  37.6278800  12.1783710 139.9448440  37.8971900  13.6505490 140.1729770
  34.2403730  14.3452970 145.7642790  33.4263570  14.7750130 146.0268580
  34.6477930  14.9571380 145.1511840  36.3029170  12.4000660 132.6643060
  36.5778010  13.3079540 132.5362280  36.1139910  12.3363190 133.6005050
  32.7004780   5.4245510 133.9596690  33.1189660   5.2376490 133.1193350
  32.3940840   4.5724560 134.2699620  36.1994510  10.3369650 137.6572490
  35.8238110   9.5697580 137.2253780  35.4697630  10.7192350 138.1447420
  20.7890270  11.0156790 144.2781540  21.1563310  10.9284190 145.1577560
  20.2201090  10.2523340 144.1788400  35.5894130   9.4841170 147.2912010
  35.3580220   9.2553920 146.3909960  35.8498680  10.4040720 147.2456900
  20.3406270   7.9265880 148.1839960  19.4462320   7.8932640 148.5233670
  20.8803820   8.1252670 148.9491210  18.9652420   7.8403150 135.6803530
  18.0616500   8.1033350 135.5055190  19.4493040   8.1114320 134.9003490
  35.4745470   8.5627140 140.9579730  35.9982950   8.0689790 140.3269900
  36.0604890   8.6977500 141.7027300  35.6535190   8.6467010 144.4799280
  34.7037900   8.6130550 144.5944270  35.8348200   9.5567120 144.2449050
  21.5079630   6.8968690 133.5897910  22.2171330   6.4751910 133.1045190
  20.7919570   6.9643920 132.9581260  21.1553790   2.9508020 132.6300560
  21.8781920   3.4916960 132.9481780  21.4278310   2.6771440 131.7542100
  34.9645440   7.8200490 136.8972140  35.4604560   7.5871360 137.6821020
  34.7661510   6.9812330 136.4809780  20.8445980   2.2014210 142.5323180
  21.4922170   1.6511590 142.0918340  21.2647820   2.4557360 143.3538990
  36.3932600   6.4561440 139.4309820  36.2831880   6.3017480 140.3692090
  37.1540190   5.9282380 139.1885230  34.7398320   2.3955570 145.8892820
  35.3770540   3.0089710 146.2552010  34.8873210   2.4316230 144.9442050
  37.2822870   4.2869360 132.6715960  38.2072180   4.1550540 132.4634250
  37.2598660   4.3662180 133.6252410  37.3561360   5.0580020 135.2972670
  36.5612860   4.9925140 135.8265580  37.5604640   5.9930660 135.2858020
  34.2979780  19.0971570 139.2911060  34.8938850  18.7756140 138.6145480
  34.5557930  18.6243390 140.0824330  20.5977980   2.3569880 145.2748500
  20.2492800   2.8133700 146.0406680  20.2665680   1.4627010 145.3570930
  25.9048380  17.0849070 145.0411410  25.6639740  17.3523630 144.1541930
  26.8451020  17.2554800 145.0962270  28.1102800   3.5481760 148.7967920
  28.0491690   4.1403590 149.5463330  29.0503180   3.4407720 148.6518180
  30.7477360   3.2051820 148.4360210  31.3617770   3.5231110 147.7741290
  31.2926920   2.7200410 149.0556070  37.1652540  19.1043450 145.8422050
  36.6710820  19.5012320 145.1249180  36.5565830  18.4792660 146.2359330
  22.0430380  18.4751730 146.5599470  21.4490700  18.3436430 147.2989510
  22.0354220  17.6389870 146.0941570  32.3957380   3.9754830 146.1471220
  32.0670740   3.1606590 145.7672950  33.3439680   3.9324640 146.0236910
  34.8491990  19.7466870 143.1208790  34.3894960  20.4982680 142.7466810
  34.2204450  19.0273340 143.0623590  21.6742610  15.8410110 145.5107510
  20.9476670  15.2215400 145.4433460  21.7351760  16.2350720 144.6405590
  25.2787710  18.0555110 142.2956920  25.7952730  17.4442470 141.7705180
  25.9285090  18.5583890 142.7867930  28.0183210  18.9463600 143.1225900
  28.3061020  18.6917900 142.2458910  28.5306430  18.3940960 143.7131470
  29.2360220   2.6853800 143.7022410  28.4532010   3.1599300 143.9819170
  28.9423150   1.7808630 143.5935590  33.7881290   3.3876900 141.7471500
  34.2289380   3.3322000 140.8993100  33.5188880   4.3034910 141.8181680
  35.6519860   3.0192140 139.7580320  35.5908260   2.0753360 139.6111340
  36.4311890   3.1272230 140.3033780  19.9572610  19.1584500 138.7204270
  19.7894650  18.5255180 139.4186160  19.0907120  19.3643900 138.3698460
  20.5800630   2.9901280 136.2236130  21.3379990   3.1030160 135.6500160
  20.1177800   3.8270480 136.1779560  27.1214440   5.1040550 139.2138440
  26.3088950   4.7297440 138.8734320  27.6256080   4.3485630 139.5159630
  31.6239420   1.7683000 140.4521510  32.2268790   2.3403210 140.9270030
  30.8832410   2.3322440 140.2295410  34.7674020   2.1704560 135.7261790
  34.9624650   3.0688010 135.9929220  33.9803890   1.9391640 136.2194740
  21.5635310  17.8517730 136.1654410  21.0382930  18.2325760 135.4616370
  21.4879890  18.4768500 136.8864120  22.9525780   3.5165330 134.7638100
  23.4818540   2.7295130 134.6346050  23.5854100   4.1956520 134.9973630
  25.1463620   3.2540470 137.8183490  24.5166360   2.5527780 137.9853620
  24.6068760   4.0144600 137.6016650  36.3200630  19.4105270 137.4868350
  36.4952820  18.7243010 136.8429270  35.6222200  19.9352320 137.0945020
  24.1628280  19.8000110 135.0403660  24.8947100  19.5159390 134.4927550
  24.4221950  19.5613390 135.9303040  23.3243070  15.9164840 135.0449990
  22.6951950  16.3849940 135.5935820  23.4390900  15.0714060 135.4796180
  30.7792790   9.9670500 121.1951190  30.6986840   9.0525110 120.9242900
  30.3657210  10.4637570 120.4890900  28.9110830  11.7449520 123.0760460
  28.1352930  11.2649960 123.3659030  29.5623760  11.0655170 122.9016620
  22.9276660  12.0569330 123.9536220  22.0961540  11.8018040 124.3532730
  23.5357640  12.1280100 124.6894140  32.9318260  16.1509710 121.8559590
  32.4699790  15.3796950 122.1846760  33.7443810  16.1775780 122.3612040
  22.9077920  16.0909420 124.1494240  23.2105960  15.2007160 123.9704460
  23.6521510  16.6479640 123.9216490  21.3368610   7.0171220 117.7378610
  20.4485310   7.3587190 117.6358490  21.6209800   6.8171540 116.8459440
  19.3001620   9.6176870 123.6218310  19.8717730   8.8499070 123.6221950
  19.3003160   9.9165630 122.7124920  29.1581570  18.4367720 121.4763580
  28.5393010  18.8925220 120.9058020  30.0133350  18.5919180 121.0753280
  28.3519820  14.4206710 123.0830620  28.2828100  13.4796650 122.9219750
  29.1139680  14.5108120 123.6553190  20.5426490   5.0261230 125.4087240
  20.3629330   4.1286980 125.6890000  20.1406570   5.5733100 126.0834190
  29.3824990   7.2277090 123.3099550  29.7589810   6.3548970 123.1973220
  29.2844500   7.5635790 122.4189990  23.5130000   5.6002720 118.7716990
  23.6196750   6.5006450 119.0785750  22.6022360   5.5520690 118.4811640
  33.1649110   4.7227530 120.2427890  33.9858730   4.2324100 120.2853370
  33.1983190   5.3125190 120.9959730  21.1613160   7.5221730 124.0169580
  21.8423270   7.7860100 124.6356980  20.8461210   6.6822600 124.3507590
  25.3537730   8.5689090 123.1042170  25.8615950   9.0670060 123.7447190
  25.8850970   7.7924290 122.9281530  37.4548660   6.7394280 126.8071520
  36.7500830   7.1275990 126.2886630  37.7206580   7.4344570 127.4092450
  23.6373830   3.2087650 127.3705590  23.6392270   3.7260040 126.5651490
  22.8078140   2.7317830 127.3475520  30.0244920  13.3206960 118.8695490
  29.4062190  13.7856410 118.3058210  30.5368170  14.0134440 119.2865000
  24.8876680  12.8482830 125.5479090  24.5546060  13.4751750 126.1900160
  25.0643360  13.3744710 124.7680760  33.4010590   6.6627910 123.0155430
  32.6966160   6.9512800 123.5958540  33.7622750   7.4728020 122.6554990
  23.3189160   4.9197610 125.3776040  23.6605970   5.7639660 125.0829910
  22.3804970   5.0681350 125.4941380  24.0995780  14.8163630 127.3628270
  24.7169780  15.4914710 127.0812720  23.2388900  15.2251610 127.2715770
  19.3928120  14.0063490 116.2435120  19.0156100  14.4950590 115.5120020
  19.6501190  14.6788770 116.8741650  35.0173370  16.2803040 125.2782910
  34.3336890  16.9502150 125.2699580  35.5567660  16.4783690 124.5127770
  36.4697510   6.1082700 123.4064640  35.5222420   6.1421680 123.5380070
  36.7947500   6.9221650 123.7914000  27.0017050   2.4079880 121.7020630
  27.3092030   1.8526770 120.9856130  26.0717750   2.5424340 121.5193620
  32.5532110  18.1247170 123.9928090  32.5659270  17.7209460 123.1250350
  32.0007330  18.8994460 123.8889520  33.8477530  14.8463390 119.0818260
  33.7373860  13.9037720 119.2067680  33.8445780  15.2079030 119.9681020
  31.9517550  13.0277010 125.3210700  32.3686340  12.8137120 124.4864160
  32.6757370  13.2849800 125.8919320  29.3897810  10.4728710 118.4380750
  28.4627090  10.4066090 118.6669220  29.5422630  11.4108840 118.3235990
  29.3766890   6.7445710 115.4347910  28.4370560   6.9059670 115.5200370
  29.6950150   7.4631390 114.8883900  35.8979650  11.4264230 125.4126940
  35.0698280  11.4957320 124.9377070  36.4930130  12.0118540 124.9442770
  33.4195100  12.0349010 118.9416000  32.8007520  11.6968560 118.2942300
  33.4019550  11.3908770 119.6495190  32.8621660   8.2133550 126.3581810
  32.4492840   9.0387260 126.6121800  32.1297610   7.6278590 126.1658170
  24.9954450  10.9993450 121.2200480  24.5911450  10.2870700 120.7246380
  25.0817570  10.6546690 122.1088520  25.4636150  14.6861010 123.3839690
  25.1664440  14.0806480 122.7047470  26.4135970  14.7238320 123.2729050
  23.7083070   7.7736660 124.9999520  24.2597660   7.8832000 124.2252770
  24.2226580   8.1474260 125.7154750  33.5521760  18.2592880 127.0462790
  33.0752320  19.0665070 126.8535400  32.8683550  17.6071210 127.1989000
  24.5554580  14.4242700 130.0347490  23.6583110  14.6482670 130.2820890
  24.5807450  14.5477640 129.0858890  31.5959800  11.2735820 115.9488750
  32.0353080  10.4358250 115.8026570  32.3088220  11.9065220 116.0352890
  23.3825800  11.2956020 128.6104860  23.2433570  12.1678820 128.9792260
  22.5007160  10.9528830 128.4652800  29.7055180  16.2131890 119.9169990
  30.1451090  16.9556220 119.5025380  29.6442070  16.4558460 120.8408950
  25.1806150  17.2377720 130.8190010  25.1521580  17.6420670 129.9518440
  25.0171120  16.3088080 130.6561610  35.1776940   2.5278630 114.2629790
  34.8649600   2.6205460 115.1628860  35.9389410   3.1059660 114.2127220
  21.6959080   9.8938430 118.7207130  21.5756680  10.6200520 118.1088400
  21.3859970   9.1241340 118.2435040  37.1320970  18.0204820 132.1154180
  37.6080690  18.4987710 132.7943260  37.7528130  17.9522310 131.3899680
  19.3344450  13.0653570 124.5275770  19.4124870  13.2002340 123.5831490
  19.9486130  12.3569460 124.7203890  20.5792080  14.7653760 120.9381950
  20.1720160  14.9068350 120.0835550  21.4705090  14.4813920 120.7353160
  36.5354220  15.2117670 129.2754190  36.6617280  14.9729550 128.3571370
  36.5775600  14.3802210 129.7476270  30.3970960  18.9145670 127.8449000
  30.9115630  18.8253680 128.6471430  29.5540040  19.2605370 128.1376910
  32.3725360  19.2001010 117.2733000  32.2126500  18.9103950 118.1714830
  32.2072070  18.4241140 116.7378230  24.8513740  18.9799540 119.0504620
  24.6756220  18.0635080 118.8372420  23.9969480  19.3386830 119.2902420
  32.0751490  16.7088570 115.8331000  31.3816650  16.7065860 115.1733280
  32.8174350  16.2847890 115.4025170  31.6401420  18.3351280 119.9079490
  32.0958370  17.5540660 120.2218110  31.9793940  19.0458100 120.4520670
  36.3878230   7.2650130 130.2403930  35.7722500   7.7729800 129.7119390
  36.0674650   6.3648460 130.1829870  19.3903970  14.1067740 127.0670230
  19.5535010  13.6373100 126.2489600  19.8556420  13.5991300 127.7319070
  24.1622740   3.2373500 122.1030800  23.7190890   4.0183040 121.7715320
  24.7207730   3.5603390 122.8101740  28.4492550   6.1042020 127.7066120
  27.9871920   6.3125040 128.5186060  28.0470660   5.2901370 127.4036790
  33.4497060   7.3250970 128.8362780  32.5990650   7.0256720 129.1571850
  33.2898850   7.5692980 127.9246600  30.5446770   8.8252720 130.9361570
  30.8700180   7.9916470 130.5963800  31.3327100   9.3481240 131.0839900
  27.2781560   2.8584200 116.9836630  26.6535740   2.8544070 117.7089940
  27.1911680   1.9915160 116.5872600  26.1998640   3.7820830 123.9620400
  26.4970970   4.6883660 123.8812420  26.7484200   3.2939610 123.3479970
  23.9536960   8.3607070 119.8312050  23.7277880   8.1444240 120.7358670
  23.1729490   8.7935530 119.4858020  31.1834720   8.3670440 118.4302700
  30.5843610   9.0906240 118.2466320  31.7314330   8.3047220 117.6479150
  26.3936170   9.2592650 130.4972320  26.2979770   8.3187380 130.3472720
  27.2368150   9.4807720 130.1020390  29.7899590   7.0033980 120.4605980
  30.1829160   7.3206180 119.6474670  30.1516440   6.1245860 120.5750500
  21.5246710   5.6706320 128.6506100  21.1310100   6.5181530 128.8578880
  20.8365110   5.0332690 128.8414740  28.0991760   5.7541290 131.7202840
  27.4090080   5.5613490 132.3548930  28.8424060   6.0375930 132.2527140
  18.8263760   3.5934780 122.6836180  18.5376810   4.1637640 123.3961160
  19.5709520   3.1139230 123.0467410  19.0133990   7.5354900 113.8938900
  18.9308660   8.4785660 114.0353890  18.6617050   7.3929810 113.0151250
  30.3754730   9.5939730 124.5556760  29.6435850  10.1026540 124.9046860
  29.9779070   8.7769710 124.2545540  26.8132120   6.2693930 122.9609250
  26.8168180   5.8283880 122.1113790  27.7083240   6.5911260 123.0681070
  22.6634500   6.1520420 121.9203460  22.3234550   6.6295650 122.6770510
  21.9011820   5.6985540 121.5604560  26.8752270   7.2706010 115.9516010
  26.9965090   7.2292490 116.9001830  26.4900780   8.1330160 115.7962740
  30.8380640   5.0473410 123.9679700  30.8553380   5.4982060 124.8121550
  30.5896220   4.1479050 124.1813140  25.8873770   9.5807150 115.3499310
  25.3190670   9.1325400 114.7235220  26.5962770   9.9399930 114.8164460
  34.2651390   2.4605590 129.8066080  34.5897160   1.7295250 130.3324060
  34.3007900   2.1419230 128.9047070  20.9642950  13.4819170 129.2266040
  20.5797740  12.8412840 129.8249000  21.2755140  14.1855290 129.7960770
  27.1140090  10.3295710 124.7074660  27.4810220   9.8554280 125.4536000
  26.9245150  11.2037280 125.0483000  19.9780580   5.0739400 120.8368130
  19.6927500   4.7095070 121.6746750  19.9159440   4.3419860 120.2231270
  24.9039460   9.3704350 127.0258870  24.5996530  10.2496330 127.2509230
  25.8585920   9.4304140 127.0616310  23.4321250  13.5765340 117.6225720
  22.6583510  13.0362960 117.4624440  24.1615880  13.0571950 117.2843480
  34.1909230  12.5730700 123.4152110  34.9108350  13.0685990 123.0248220
  33.9891050  11.8948590 122.7705980  29.6519170   3.9668660 117.5581500
  28.8383780   3.4681830 117.4826810  29.4581120   4.8066910 117.1417850
  29.5728030  12.6439760 129.3021110  29.5065340  11.7235430 129.0478700
  28.9433170  12.7415200 130.0165750  32.3667560   8.3388310 115.8543660
  33.2547180   8.6505540 115.6795000  32.3372650   7.4660560 115.4624240
  23.4758650  13.2445720 121.2604530  23.9937320  12.4413980 121.2061420
  23.0242670  13.1824860 122.1021360  28.3628150  14.5112000 116.5331830
  28.7043850  15.2554230 116.0375150  27.5340860  14.8243120 116.8956660
  20.9603190  10.2107090 128.1730230  20.6018130  10.8760940 128.7603570
  20.6657750   9.3790640 128.5442850  24.1616310  10.6691330 131.0569780
  23.8616450  10.8148510 130.1597600  24.9327550  10.1096620 130.9643170
  29.5044760  15.4660330 129.0524910  29.5189300  14.5341290 128.8343820
  28.7969860  15.5520090 129.6914680  34.6381830   9.6500150 115.3223520
  34.5545550  10.0814370 114.4719960  35.3576020  10.1098500 115.7550340
  35.7155970  12.1067670 128.3993490  34.9904160  12.6996450 128.2022880
  36.2431430  12.0991210 127.6006860  35.6669080  16.5042410 118.0505650
  35.0245240  15.8498030 118.3249370  35.2799740  16.9097500 117.2746320
  31.2455560  13.8327840 121.8977340  31.5979380  13.2355970 121.2378710
  30.3617890  13.5072070 122.0685590  27.3318840  14.5925530 119.3047750
  28.0189970  15.1394740 119.6855340  26.5451260  15.1366260 119.3397360
  19.4711240  10.2098350 114.7964830  20.3406090  10.4923150 115.0800750
  18.9801560  11.0234220 114.6813640  26.6346050  11.5971560 118.9173110
  27.0908830  12.4076810 119.1433300  26.2834260  11.2794700 119.7491600
  28.9378660  17.1077900 126.1465410  29.5820880  17.3137280 126.8238830
  29.3008100  16.3466300 125.6936260  22.5357830   1.9409210 119.3895630
  22.4072460   1.9327110 120.3380550  21.7119850   2.2792300 119.0386640
  30.2110740  15.1110250 124.8642860  30.8532970  14.4103410 124.9775030
  30.7360090  15.8908690 124.6839750  34.0566460  15.3958870 114.5882000
  33.8304040  14.6789310 115.1806640  33.6662660  15.1471310 113.7503750
  31.9848360  15.9105150 128.0678920  32.3204600  16.4971840 128.7456840
  31.0648700  15.7797860 128.2976710  19.8382490  19.4225730 115.3626460
  20.1980130  20.0215070 114.7083730  19.6974830  19.9685620 116.1361490
  19.5351760   3.7000330 128.8502330  18.8210280   3.8997250 129.4554940
  19.9546800   2.9239900 129.2217130  33.6382710  13.3130810 116.2496160
  33.3504410  13.7743500 117.0374040  34.4334880  12.8528580 116.5180380
  19.8224350  17.6880590 129.8368860  19.9315470  16.7475330 129.6964250
  19.1704910  17.9535340 129.1882590  27.8136940  15.9596480 131.2366980
  27.4933810  15.2405720 131.7812670  27.1395300  16.6351550 131.3103040
  25.8551110  16.8056930 116.1800130  25.8461210  17.5386620 115.5644640
  24.9349470  16.5588510 116.2727090  21.4557750  12.0271820 116.9246890
  20.8485700  12.7670720 116.9342190  21.9307100  12.1171180 116.0985090
  31.0290540   6.1922640 126.6003780  31.3971360   5.3717850 126.9283350
  30.1688740   6.2524530 127.0159430  34.3952570   5.1479580 117.4091340
  33.7665730   5.2525250 116.6949570  33.9004490   5.3676360 118.1985220
  28.8410710  16.8685170 114.8425320  28.9422690  16.6649160 113.9127300
  27.9412450  16.6143450 115.0473100  26.3636600   7.4265530 118.8249220
  25.6552750   7.8951870 119.2662830  26.6481080   6.7687540 119.4594410
  27.9892530   8.8462230 126.8241750  28.4877780   9.3208050 127.4893600
  28.1315480   7.9225750 127.0311780  30.3952030   4.1516190 120.2645010
  30.2719810   4.1702320 119.3154520  31.3436590   4.1995130 120.3843410
  27.4828820  19.3871490 119.5372990  27.7370320  19.3492880 118.6152360
  26.5341300  19.2604820 119.5301240  24.5671620   5.7350610 116.1999930
  25.4162150   6.1720760 116.1340120  24.2002890   6.0470870 117.0271990
  35.1959390   5.0630190 127.6670140  34.6932990   5.8035590 128.0063950
  36.0116050   5.4514190 127.3506930  33.4881400  10.3063370 121.1131500
  32.5471540  10.3213600 121.2879190  33.8025470   9.5199330 121.5591800
  23.4663040  11.9882970 114.6735460  24.2326310  11.8764330 115.2360890
  23.5437730  11.2920940 114.0212230  22.1609800   9.4208040 115.3568350
  22.2413390   8.4735550 115.4685750  23.0529550   9.7514920 115.4629010
  35.4906980  17.4772220 122.7885760  35.6154400  18.3003390 123.2609570
  36.3572540  17.2662950 122.4409910  22.9624510  19.5703430 122.4602890
  23.6986990  19.0218890 122.7311460  23.3465430  20.4359440 122.3208880
  19.8469990  15.6377000 118.3344400  18.9209770  15.8798140 118.3249810
  20.3126420  16.4651260 118.2129150  21.9682790  18.7549500 131.6488470
  22.7695520  19.0761550 132.0623870  21.4534610  18.3945080 132.3708380
  26.0726820  18.7433740 114.2828460  26.8655430  19.0322570 113.8310250
  25.5531170  18.3125910 113.6040940  30.8047420  14.8629370 131.5963880
  30.1985580  14.8860970 130.8559630  30.5001530  14.1312410 132.1331130
  32.2347790  18.5909660 130.2073290  33.1869540  18.5067680 130.1573530
  32.0876010  19.2551370 130.8807080  35.1256990  17.9703870 115.7065200
  34.8398500  17.5569010 114.8919380  34.9276540  18.8991580 115.5865720
  19.6880600  11.2422960 130.5924520  20.1919620  10.6630240 131.1640750
  18.9488020  11.5263190 131.1300890  26.5904220  13.9637150 114.1470810
  26.4854860  13.3489500 114.8732190  26.4228440  13.4403040 113.3633820
  26.7418540  12.6493950 130.1260040  25.9764210  13.2178950 130.0414710
  26.9234500  12.3570160 129.2328270  29.8306950  13.0257180 114.7512800
  29.2817050  13.4726480 115.3955540  30.4526210  12.5206430 115.2750470
  33.8841890  14.3799280 130.6835060  34.6251360  14.7175040 130.1802520
  33.1214570  14.5491340 130.1304830  21.7203680   9.3852550 131.4874590
  21.7609020   9.0866420 132.3959820  22.5749180   9.7860160 131.3282110
  25.4982070  11.9848100 116.6478100  25.9198490  11.8187970 117.4909490
  25.6232910  11.1748330 116.1533240  23.6609490   7.9644650 129.4549080
  23.1305950   7.4735600 128.8272420  24.3297560   8.3928850 128.9207010
  28.0109710  11.0085710 113.8955200  28.5315370  10.2934730 113.5296350
  28.6578110  11.6471580 114.1955710  32.5587550  12.4314110 129.2190270
  32.9728570  12.5859190 130.0680690  31.6238550  12.5569330 129.3816050
  33.0309720   9.7710270 131.2229420  33.6130490   9.0162590 131.1349900
  33.2071490  10.3017710 130.4460900  24.1481790   4.9307020 129.5346370
  24.0538660   4.3127770 128.8097240  23.5679180   5.6573310 129.3076280
  26.9143230   3.4880260 126.5673760  26.4660530   3.5104520 125.7219310
  26.2808430   3.0899280 127.1644060  27.3202780  12.3834590 127.1886200
  27.7390890  13.2267320 127.0162440  26.4011410  12.5206630 126.9592980
  29.6566680  10.1150770 128.5724040  29.7762890   9.5191910 129.3118880
  30.5160680  10.1520460 128.1525340  31.9954580  10.6687960 127.1486550
  31.4689800  11.1930580 126.5451690  32.3385920  11.3015350 127.7796280
  24.3940970   8.0581330 113.5936260  24.1930030   7.1948690 113.9549600
  24.2233020   7.9714690 112.6557860  25.1710200  18.6887600 128.3043930
  24.6331290  19.4133660 127.9852630  25.4244160  18.2117940 127.5141270
  26.4235450   6.6572120 129.8299860  27.0135140   6.3487970 130.5177680
  25.6055690   6.1851870 129.9859760  31.2428880   6.2737930 130.0632880
  30.5544400   5.6119470 129.9982870  31.9634900   5.8276200 130.5081340
  31.8729280   2.8689560 116.1223140  32.1531570   2.0257460 116.4782560
  31.0995010   3.1012670 116.6361890  23.1923770   5.1581950 113.5814140
  23.4949670   5.1649380 112.6733290  23.9318360   4.8079810 114.0781800
  28.0272410  19.9238810 128.5630580  27.9531110  20.8273950 128.8702950
  27.1251250  19.6050710 128.5352650  26.4108700   4.1016570 114.5670340
  26.0630700   3.4240560 113.9872790  26.6121470   3.6406080 115.3813730
  28.5757740  19.0897320 116.1856940  29.4708530  19.4282290 116.2075700
  28.6075370  18.3676730 115.5581220  22.2153900  14.4624370 114.4143940
  22.6528770  15.0054040 115.0701520  22.7001630  13.6371320 114.4240280
  19.4299700  17.2513400 121.8664200  19.7602710  16.3834460 121.6342840
  19.8590700  17.4571920 122.6969160  24.0261620  15.5822410 119.5266170
  23.7257160  15.4587380 120.4270080  23.9199110  14.7231000 119.1181900
  19.9189910  18.1183990 124.6045830  19.4820900  18.2984790 125.4369980
  20.4867590  18.8758610 124.4627550  35.5552090  17.6200990 128.8923140
  34.9554080  17.6793550 128.1487060  35.6845990  16.6805970 129.0219990
  36.7953540  15.3618810 114.2292850  35.9646500  15.4295460 114.7000080
  36.9725370  16.2522930 113.9259710  36.2510000  12.1066290 116.7327050
  37.0128910  12.6762940 116.8386740  36.2664370  11.5393490 117.5035360
  19.7514340  10.6304220 120.9634710  19.0963180  10.3615860 120.3194410
  20.5892290  10.5208700 120.5136690  37.2569970  12.9616390 121.5768980
  37.6278800  12.1783710 121.1704950  37.8971900  13.6505490 121.3986280
  34.2403730  14.3452970 126.9899300  33.4263570  14.7750130 127.2525090
  34.6477930  14.9571380 126.3768350  36.3029170  12.4000660 113.8899570
  36.5778010  13.3079540 113.7618790  36.1139910  12.3363190 114.8261560
  32.7004780   5.4245510 115.1853200  33.1189660   5.2376490 114.3449860
  32.3940840   4.5724560 115.4956130  36.1994510  10.3369650 118.8829000
  35.8238110   9.5697580 118.4510290  35.4697630  10.7192350 119.3703930
  20.7890270  11.0156790 125.5038050  21.1563310  10.9284190 126.3834070
  20.2201090  10.2523340 125.4044910  35.5894130   9.4841170 128.5168520
  35.3580220   9.2553920 127.6166470  35.8498680  10.4040720 128.4713410
  20.3406270   7.9265880 129.4096470  19.4462320   7.8932640 129.7490180
  20.8803820   8.1252670 130.1747720  34.0282200   4.7097600 131.2948220
  34.9052380   4.7181000 131.6782220  34.0403040   3.9728440 130.6840570
  18.9652420   7.8403150 116.9060040  18.0616500   8.1033350 116.7311700
  19.4493040   8.1114320 116.1260000  35.4745470   8.5627140 122.1836240
  35.9982950   8.0689790 121.5526410  36.0604890   8.6977500 122.9283810
  35.6535190   8.6467010 125.7055790  34.7037900   8.6130550 125.8200780
  35.8348200   9.5567120 125.4705560  21.5079630   6.8968690 114.8154420
  22.2171330   6.4751910 114.3301700  20.7919570   6.9643920 114.1837770
  21.1553790   2.9508020 113.8557070  21.8781920   3.4916960 114.1738290
  21.4278310   2.6771440 112.9798610  34.9645440   7.8200490 118.1228650
  35.4604560   7.5871360 118.9077530  34.7661510   6.9812330 117.7066290
  20.8445980   2.2014210 123.7579690  21.4922170   1.6511590 123.3174850
  21.2647820   2.4557360 124.5795500  36.3932600   6.4561440 120.6566330
  36.2831880   6.3017480 121.5948600  37.1540190   5.9282380 120.4141740
  34.7398320   2.3955570 127.1149330  35.3770540   3.0089710 127.4808520
  34.8873210   2.4316230 126.1698560  37.2822870   4.2869360 113.8972470
  38.2072180   4.1550540 113.6890760  37.2598660   4.3662180 114.8508920
  37.3561360   5.0580020 116.5229180  36.5612860   4.9925140 117.0522090
  37.5604640   5.9930660 116.5114530  34.2979780  19.0971570 120.5167570
  34.8938850  18.7756140 119.8401990  34.5557930  18.6243390 121.3080840
  20.5977980   2.3569880 126.5005010  20.2492800   2.8133700 127.2663190
  20.2665680   1.4627010 126.5827440  22.2042350  15.5289480 130.6658200
  22.1611980  15.1582390 131.5472660  22.3353360  16.4667050 130.8060020
  25.9048380  17.0849070 126.2667920  25.6639740  17.3523630 125.3798440
  26.8451020  17.2554800 126.3218780  28.1102800   3.5481760 130.0224430
  28.0491690   4.1403590 130.7719840  29.0503180   3.4407720 129.8774690
  30.7477360   3.2051820 129.6616720  31.3617770   3.5231110 128.9997800
  31.2926920   2.7200410 130.2812580  37.1652540  19.1043450 127.0678560
  36.6710820  19.5012320 126.3505690  36.5565830  18.4792660 127.4615840
  22.0430380  18.4751730 127.7855980  21.4490700  18.3436430 128.5246020
  22.0354220  17.6389870 127.3198080  32.3957380   3.9754830 127.3727730
  32.0670740   3.1606590 126.9929460  33.3439680   3.9324640 127.2493420
  34.8491990  19.7466870 124.3465300  34.3894960  20.4982680 123.9723320
  34.2204450  19.0273340 124.2880100  21.6742610  15.8410110 126.7364020
  20.9476670  15.2215400 126.6689970  21.7351760  16.2350720 125.8662100
  25.2787710  18.0555110 123.5213430  25.7952730  17.4442470 122.9961690
  25.9285090  18.5583890 124.0124440  28.0183210  18.9463600 124.3482410
  28.3061020  18.6917900 123.4715420  28.5306430  18.3940960 124.9387980
  29.2360220   2.6853800 124.9278920  28.4532010   3.1599300 125.2075680
  28.9423150   1.7808630 124.8192100  33.7881290   3.3876900 122.9728010
  34.2289380   3.3322000 122.1249610  33.5188880   4.3034910 123.0438190
  35.6519860   3.0192140 120.9836830  35.5908260   2.0753360 120.8367850
  36.4311890   3.1272230 121.5290290  19.9572610  19.1584500 119.9460780
  19.7894650  18.5255180 120.6442670  19.0907120  19.3643900 119.5954970
  20.5800630   2.9901280 117.4492640  21.3379990   3.1030160 116.8756670
  20.1177800   3.8270480 117.4036070  27.1214440   5.1040550 120.4394950
  26.3088950   4.7297440 120.0990830  27.6256080   4.3485630 120.7416140
  31.6239420   1.7683000 121.6778020  32.2268790   2.3403210 122.1526540
  30.8832410   2.3322440 121.4551920  34.7674020   2.1704560 116.9518300
  34.9624650   3.0688010 117.2185730  33.9803890   1.9391640 117.4451250
  21.5635310  17.8517730 117.3910920  21.0382930  18.2325760 116.6872880
  21.4879890  18.4768500 118.1120630  22.9525780   3.5165330 115.9894610
  23.4818540   2.7295130 115.8602560  23.5854100   4.1956520 116.2230140
  25.1463620   3.2540470 119.0440000  24.5166360   2.5527780 119.2110130
  24.6068760   4.0144600 118.8273160  28.0855570  19.8679700 131.7150610
  29.0122880  19.6323970 131.7586570  28.0706000  20.6951700 131.2336640
  36.3200630  19.4105270 118.7124860  36.4952820  18.7243010 118.0685780
  35.6222200  19.9352320 118.3201530  25.2719180   2.5324450 131.4792490
  24.9903450   3.0358050 130.7153310  25.6538880   1.7346200 131.1134620
  24.1628280  19.8000110 116.2660170  24.8947100  19.5159390 115.7184060
  24.4221950  19.5613390 117.1559550  23.3243070  15.9164840 116.2706500
  22.6951950  16.3849940 116.8192330  23.4390900  15.0714060 116.7052690
  31.8734640   1.9478030 132.0572960  31.7600090   2.2672640 132.9524480
  32.6904380   2.3490540 131.7610240  34.6533130  19.0949560 131.5391650
  35.4458450  18.5998790 131.3317610  34.9466280  19.7739700 132.1467260
  30.7792790   9.9670500 102.4207700  30.6986840   9.0525110 102.1499410
  30.3657210  10.4637570 101.7147410  28.9110830  11.7449520 104.3016970
  28.1352930  11.2649960 104.5915540  29.5623760  11.0655170 104.1273130
  22.9276660  12.0569330 105.1792730  22.0961540  11.8018040 105.5789240
  23.5357640  12.1280100 105.9150650  32.9318260  16.1509710 103.0816100
  32.4699790  15.3796950 103.4103270  33.7443810  16.1775780 103.5868550
  22.9077920  16.0909420 105.3750750  23.2105960  15.2007160 105.1960970
  23.6521510  16.6479640 105.1473000  21.3368610   7.0171220  98.9635120
  20.4485310   7.3587190  98.8615000  21.6209800   6.8171540  98.0715950
  19.3001620   9.6176870 104.8474820  19.8717730   8.8499070 104.8478460
  19.3003160   9.9165630 103.9381430  29.1581570  18.4367720 102.7020090
  28.5393010  18.8925220 102.1314530  30.0133350  18.5919180 102.3009790
  28.3519820  14.4206710 104.3087130  28.2828100  13.4796650 104.1476260
  29.1139680  14.5108120 104.8809700  20.5426490   5.0261230 106.6343750
  20.3629330   4.1286980 106.9146510  20.1406570   5.5733100 107.3090700
  29.3824990   7.2277090 104.5356060  29.7589810   6.3548970 104.4229730
  29.2844500   7.5635790 103.6446500  23.5130000   5.6002720  99.9973500
  23.6196750   6.5006450 100.3042260  22.6022360   5.5520690  99.7068150
  33.1649110   4.7227530 101.4684400  33.9858730   4.2324100 101.5109880
  33.1983190   5.3125190 102.2216240  21.1613160   7.5221730 105.2426090
  21.8423270   7.7860100 105.8613490  20.8461210   6.6822600 105.5764100
  25.3537730   8.5689090 104.3298680  25.8615950   9.0670060 104.9703700
  25.8850970   7.7924290 104.1538040  37.4548660   6.7394280 108.0328030
  36.7500830   7.1275990 107.5143140  37.7206580   7.4344570 108.6348960
  23.6373830   3.2087650 108.5962100  23.6392270   3.7260040 107.7908000
  22.8078140   2.7317830 108.5732030  30.0244920  13.3206960 100.0952000
  29.4062190  13.7856410  99.5314720  30.5368170  14.0134440 100.5121510
  24.8876680  12.8482830 106.7735600  24.5546060  13.4751750 107.4156670
  25.0643360  13.3744710 105.9937270  33.4010590   6.6627910 104.2411940
  32.6966160   6.9512800 104.8215050  33.7622750   7.4728020 103.8811500
  23.3189160   4.9197610 106.6032550  23.6605970   5.7639660 106.3086420
  22.3804970   5.0681350 106.7197890  24.0995780  14.8163630 108.5884780
  24.7169780  15.4914710 108.3069230  23.2388900  15.2251610 108.4972280
  19.3928120  14.0063490  97.4691630  19.0156100  14.4950590  96.7376530
  19.6501190  14.6788770  98.0998160  35.0173370  16.2803040 106.5039420
  34.3336890  16.9502150 106.4956090  35.5567660  16.4783690 105.7384280
  36.4697510   6.1082700 104.6321150  35.5222420   6.1421680 104.7636580
  36.7947500   6.9221650 105.0170510  27.0017050   2.4079880 102.9277140
  27.3092030   1.8526770 102.2112640  26.0717750   2.5424340 102.7450130
  32.5532110  18.1247170 105.2184600  32.5659270  17.7209460 104.3506860
  32.0007330  18.8994460 105.1146030  33.8477530  14.8463390 100.3074770
  33.7373860  13.9037720 100.4324190  33.8445780  15.2079030 101.1937530
  31.9517550  13.0277010 106.5467210  32.3686340  12.8137120 105.7120670
  32.6757370  13.2849800 107.1175830  29.3897810  10.4728710  99.6637260
  28.4627090  10.4066090  99.8925730  29.5422630  11.4108840  99.5492500
  29.3766890   6.7445710  96.6604420  28.4370560   6.9059670  96.7456880
  29.6950150   7.4631390  96.1140410  35.8979650  11.4264230 106.6383450
  35.0698280  11.4957320 106.1633580  36.4930130  12.0118540 106.1699280
  33.4195100  12.0349010 100.1672510  32.8007520  11.6968560  99.5198810
  33.4019550  11.3908770 100.8751700  32.8621660   8.2133550 107.5838320
  32.4492840   9.0387260 107.8378310  32.1297610   7.6278590 107.3914680
  24.9954450  10.9993450 102.4456990  24.5911450  10.2870700 101.9502890
  25.0817570  10.6546690 103.3345030  25.4636150  14.6861010 104.6096200
  25.1664440  14.0806480 103.9303980  26.4135970  14.7238320 104.4985560
  23.7083070   7.7736660 106.2256030  24.2597660   7.8832000 105.4509280
  24.2226580   8.1474260 106.9411260  33.5521760  18.2592880 108.2719300
  33.0752320  19.0665070 108.0791910  32.8683550  17.6071210 108.4245510
  24.5554580  14.4242700 111.2604000  23.6583110  14.6482670 111.5077400
  24.5807450  14.5477640 110.3115400  31.5959800  11.2735820  97.1745260
  32.0353080  10.4358250  97.0283080  32.3088220  11.9065220  97.2609400
  23.3825800  11.2956020 109.8361370  23.2433570  12.1678820 110.2048770
  22.5007160  10.9528830 109.6909310  29.7055180  16.2131890 101.1426500
  30.1451090  16.9556220 100.7281890  29.6442070  16.4558460 102.0665460
  25.1806150  17.2377720 112.0446520  25.1521580  17.6420670 111.1774950
  25.0171120  16.3088080 111.8818120  35.1776940   2.5278630  95.4886300
  34.8649600   2.6205460  96.3885370  35.9389410   3.1059660  95.4383730
  21.6959080   9.8938430  99.9463640  21.5756680  10.6200520  99.3344910
  21.3859970   9.1241340  99.4691550  37.1320970  18.0204820 113.3410690
  37.6080690  18.4987710 114.0199770  37.7528130  17.9522310 112.6156190
  19.3344450  13.0653570 105.7532280  19.4124870  13.2002340 104.8088000
  19.9486130  12.3569460 105.9460400  20.5792080  14.7653760 102.1638460
  20.1720160  14.9068350 101.3092060  21.4705090  14.4813920 101.9609670
  36.5354220  15.2117670 110.5010700  36.6617280  14.9729550 109.5827880
  36.5775600  14.3802210 110.9732780  30.3970960  18.9145670 109.0705510
  30.9115630  18.8253680 109.8727940  29.5540040  19.2605370 109.3633420
  32.3725360  19.2001010  98.4989510  32.2126500  18.9103950  99.3971340
  32.2072070  18.4241140  97.9634740  24.8513740  18.9799540 100.2761130
  24.6756220  18.0635080 100.0628930  23.9969480  19.3386830 100.5158930
  32.0751490  16.7088570  97.0587510  31.3816650  16.7065860  96.3989790
  32.8174350  16.2847890  96.6281680  31.6401420  18.3351280 101.1336000
  32.0958370  17.5540660 101.4474620  31.9793940  19.0458100 101.6777180
  36.3878230   7.2650130 111.4660440  35.7722500   7.7729800 110.9375900
  36.0674650   6.3648460 111.4086380  19.3903970  14.1067740 108.2926740
  19.5535010  13.6373100 107.4746110  19.8556420  13.5991300 108.9575580
  24.1622740   3.2373500 103.3287310  23.7190890   4.0183040 102.9971830
  24.7207730   3.5603390 104.0358250  28.4492550   6.1042020 108.9322630
  27.9871920   6.3125040 109.7442570  28.0470660   5.2901370 108.6293300
  33.4497060   7.3250970 110.0619290  32.5990650   7.0256720 110.3828360
  33.2898850   7.5692980 109.1503110  30.5446770   8.8252720 112.1618080
  30.8700180   7.9916470 111.8220310  31.3327100   9.3481240 112.3096410
  27.2781560   2.8584200  98.2093140  26.6535740   2.8544070  98.9346450
  27.1911680   1.9915160  97.8129110  26.1998640   3.7820830 105.1876910
  26.4970970   4.6883660 105.1068930  26.7484200   3.2939610 104.5736480
  23.9536960   8.3607070 101.0568560  23.7277880   8.1444240 101.9615180
  23.1729490   8.7935530 100.7114530  31.1834720   8.3670440  99.6559210
  30.5843610   9.0906240  99.4722830  31.7314330   8.3047220  98.8735660
  26.3936170   9.2592650 111.7228830  26.2979770   8.3187380 111.5729230
  27.2368150   9.4807720 111.3276900  29.7899590   7.0033980 101.6862490
  30.1829160   7.3206180 100.8731180  30.1516440   6.1245860 101.8007010
  21.5246710   5.6706320 109.8762610  21.1310100   6.5181530 110.0835390
  20.8365110   5.0332690 110.0671250  28.0991760   5.7541290 112.9459350
  27.4090080   5.5613490 113.5805440  28.8424060   6.0375930 113.4783650
  18.8263760   3.5934780 103.9092690  18.5376810   4.1637640 104.6217670
  19.5709520   3.1139230 104.2723920  19.0133990   7.5354900  95.1195410
  18.9308660   8.4785660  95.2610400  18.6617050   7.3929810  94.2407760
  30.3754730   9.5939730 105.7813270  29.6435850  10.1026540 106.1303370
  29.9779070   8.7769710 105.4802050  26.8132120   6.2693930 104.1865760
  26.8168180   5.8283880 103.3370300  27.7083240   6.5911260 104.2937580
  22.6634500   6.1520420 103.1459970  22.3234550   6.6295650 103.9027020
  21.9011820   5.6985540 102.7861070  26.8752270   7.2706010  97.1772520
  26.9965090   7.2292490  98.1258340  26.4900780   8.1330160  97.0219250
  30.8380640   5.0473410 105.1936210  30.8553380   5.4982060 106.0378060
  30.5896220   4.1479050 105.4069650  25.8873770   9.5807150  96.5755820
  25.3190670   9.1325400  95.9491730  26.5962770   9.9399930  96.0420970
  34.2651390   2.4605590 111.0322590  34.5897160   1.7295250 111.5580570
  34.3007900   2.1419230 110.1303580  20.9642950  13.4819170 110.4522550
  20.5797740  12.8412840 111.0505510  21.2755140  14.1855290 111.0217280
  27.1140090  10.3295710 105.9331170  27.4810220   9.8554280 106.6792510
  26.9245150  11.2037280 106.2739510  19.9780580   5.0739400 102.0624640
  19.6927500   4.7095070 102.9003260  19.9159440   4.3419860 101.4487780
  24.9039460   9.3704350 108.2515380  24.5996530  10.2496330 108.4765740
  25.8585920   9.4304140 108.2872820  23.4321250  13.5765340  98.8482230
  22.6583510  13.0362960  98.6880950  24.1615880  13.0571950  98.5099990
  34.1909230  12.5730700 104.6408620  34.9108350  13.0685990 104.2504730
  33.9891050  11.8948590 103.9962490  29.6519170   3.9668660  98.7838010
  28.8383780   3.4681830  98.7083320  29.4581120   4.8066910  98.3674360
  29.5728030  12.6439760 110.5277620  29.5065340  11.7235430 110.2735210
  28.9433170  12.7415200 111.2422260  32.3667560   8.3388310  97.0800170
  33.2547180   8.6505540  96.9051510  32.3372650   7.4660560  96.6880750
  23.4758650  13.2445720 102.4861040  23.9937320  12.4413980 102.4317930
  23.0242670  13.1824860 103.3277870  28.3628150  14.5112000  97.7588340
  28.7043850  15.2554230  97.2631660  27.5340860  14.8243120  98.1213170
  20.9603190  10.2107090 109.3986740  20.6018130  10.8760940 109.9860080
  20.6657750   9.3790640 109.7699360  24.1616310  10.6691330 112.2826290
  23.8616450  10.8148510 111.3854110  24.9327550  10.1096620 112.1899680
  29.5044760  15.4660330 110.2781420  29.5189300  14.5341290 110.0600330
  28.7969860  15.5520090 110.9171190  34.6381830   9.6500150  96.5480030
  34.5545550  10.0814370  95.6976470  35.3576020  10.1098500  96.9806850
  35.7155970  12.1067670 109.6250000  34.9904160  12.6996450 109.4279390
  36.2431430  12.0991210 108.8263370  35.6669080  16.5042410  99.2762160
  35.0245240  15.8498030  99.5505880  35.2799740  16.9097500  98.5002830
  31.2455560  13.8327840 103.1233850  31.5979380  13.2355970 102.4635220
  30.3617890  13.5072070 103.2942100  27.3318840  14.5925530 100.5304260
  28.0189970  15.1394740 100.9111850  26.5451260  15.1366260 100.5653870
  19.4711240  10.2098350  96.0221340  20.3406090  10.4923150  96.3057260
  18.9801560  11.0234220  95.9070150  26.6346050  11.5971560 100.1429620
  27.0908830  12.4076810 100.3689810  26.2834260  11.2794700 100.9748110
  28.9378660  17.1077900 107.3721920  29.5820880  17.3137280 108.0495340
  29.3008100  16.3466300 106.9192770  22.5357830   1.9409210 100.6152140
  22.4072460   1.9327110 101.5637060  21.7119850   2.2792300 100.2643150
  30.2110740  15.1110250 106.0899370  30.8532970  14.4103410 106.2031540
  30.7360090  15.8908690 105.9096260  34.0566460  15.3958870  95.8138510
  33.8304040  14.6789310  96.4063150  33.6662660  15.1471310  94.9760260
  31.9848360  15.9105150 109.2935430  32.3204600  16.4971840 109.9713350
  31.0648700  15.7797860 109.5233220  19.8382490  19.4225730  96.5882970
  20.1980130  20.0215070  95.9340240  19.6974830  19.9685620  97.3618000
  19.5351760   3.7000330 110.0758840  18.8210280   3.8997250 110.6811450
  19.9546800   2.9239900 110.4473640  33.6382710  13.3130810  97.4752670
  33.3504410  13.7743500  98.2630550  34.4334880  12.8528580  97.7436890
  19.8224350  17.6880590 111.0625370  19.9315470  16.7475330 110.9220760
  19.1704910  17.9535340 110.4139100  27.8136940  15.9596480 112.4623490
  27.4933810  15.2405720 113.0069180  27.1395300  16.6351550 112.5359550
  25.8551110  16.8056930  97.4056640  25.8461210  17.5386620  96.7901150
  24.9349470  16.5588510  97.4983600  21.4557750  12.0271820  98.1503400
  20.8485700  12.7670720  98.1598700  21.9307100  12.1171180  97.3241600
  31.0290540   6.1922640 107.8260290  31.3971360   5.3717850 108.1539860
  30.1688740   6.2524530 108.2415940  34.3952570   5.1479580  98.6347850
  33.7665730   5.2525250  97.9206080  33.9004490   5.3676360  99.4241730
  28.8410710  16.8685170  96.0681830  28.9422690  16.6649160  95.1383810
  27.9412450  16.6143450  96.2729610  26.3636600   7.4265530 100.0505730
  25.6552750   7.8951870 100.4919340  26.6481080   6.7687540 100.6850920
  27.9892530   8.8462230 108.0498260  28.4877780   9.3208050 108.7150110
  28.1315480   7.9225750 108.2568290  30.3952030   4.1516190 101.4901520
  30.2719810   4.1702320 100.5411030  31.3436590   4.1995130 101.6099920
  27.4828820  19.3871490 100.7629500  27.7370320  19.3492880  99.8408870
  26.5341300  19.2604820 100.7557750  24.5671620   5.7350610  97.4256440
  25.4162150   6.1720760  97.3596630  24.2002890   6.0470870  98.2528500
  35.1959390   5.0630190 108.8926650  34.6932990   5.8035590 109.2320460
  36.0116050   5.4514190 108.5763440  33.4881400  10.3063370 102.3388010
  32.5471540  10.3213600 102.5135700  33.8025470   9.5199330 102.7848310
  23.4663040  11.9882970  95.8991970  24.2326310  11.8764330  96.4617400
  23.5437730  11.2920940  95.2468740  22.1609800   9.4208040  96.5824860
  22.2413390   8.4735550  96.6942260  23.0529550   9.7514920  96.6885520
  35.4906980  17.4772220 104.0142270  35.6154400  18.3003390 104.4866080
  36.3572540  17.2662950 103.6666420  22.9624510  19.5703430 103.6859400
  23.6986990  19.0218890 103.9567970  23.3465430  20.4359440 103.5465390
  19.8469990  15.6377000  99.5600910  18.9209770  15.8798140  99.5506320
  20.3126420  16.4651260  99.4385660  21.9682790  18.7549500 112.8744980
  22.7695520  19.0761550 113.2880380  21.4534610  18.3945080 113.5964890
  26.0726820  18.7433740  95.5084970  26.8655430  19.0322570  95.0566760
  25.5531170  18.3125910  94.8297450  30.8047420  14.8629370 112.8220390
  30.1985580  14.8860970 112.0816140  30.5001530  14.1312410 113.3587640
  32.2347790  18.5909660 111.4329800  33.1869540  18.5067680 111.3830040
  32.0876010  19.2551370 112.1063590  35.1256990  17.9703870  96.9321710
  34.8398500  17.5569010  96.1175890  34.9276540  18.8991580  96.8122230
  19.6880600  11.2422960 111.8181030  20.1919620  10.6630240 112.3897260
  18.9488020  11.5263190 112.3557400  26.5904220  13.9637150  95.3727320
  26.4854860  13.3489500  96.0988700  26.4228440  13.4403040  94.5890330
  26.7418540  12.6493950 111.3516550  25.9764210  13.2178950 111.2671220
  26.9234500  12.3570160 110.4584780  29.8306950  13.0257180  95.9769310
  29.2817050  13.4726480  96.6212050  30.4526210  12.5206430  96.5006980
  33.8841890  14.3799280 111.9091570  34.6251360  14.7175040 111.4059030
  33.1214570  14.5491340 111.3561340  21.7203680   9.3852550 112.7131100
  21.7609020   9.0866420 113.6216330  22.5749180   9.7860160 112.5538620
  25.4982070  11.9848100  97.8734610  25.9198490  11.8187970  98.7166000
  25.6232910  11.1748330  97.3789750  23.6609490   7.9644650 110.6805590
  23.1305950   7.4735600 110.0528930  24.3297560   8.3928850 110.1463520
  28.0109710  11.0085710  95.1211710  28.5315370  10.2934730  94.7552860
  28.6578110  11.6471580  95.4212220  32.5587550  12.4314110 110.4446780
  32.9728570  12.5859190 111.2937200  31.6238550  12.5569330 110.6072560
  33.0309720   9.7710270 112.4485930  33.6130490   9.0162590 112.3606410
  33.2071490  10.3017710 111.6717410  24.1481790   4.9307020 110.7602880
  24.0538660   4.3127770 110.0353750  23.5679180   5.6573310 110.5332790
  26.9143230   3.4880260 107.7930270  26.4660530   3.5104520 106.9475820
  26.2808430   3.0899280 108.3900570  27.3202780  12.3834590 108.4142710
  27.7390890  13.2267320 108.2418950  26.4011410  12.5206630 108.1849490
  29.6566680  10.1150770 109.7980550  29.7762890   9.5191910 110.5375390
  30.5160680  10.1520460 109.3781850  31.9954580  10.6687960 108.3743060
  31.4689800  11.1930580 107.7708200  32.3385920  11.3015350 109.0052790
  24.3940970   8.0581330  94.8192770  24.1930030   7.1948690  95.1806110
  24.2233020   7.9714690  93.8814370  25.1710200  18.6887600 109.5300440
  24.6331290  19.4133660 109.2109140  25.4244160  18.2117940 108.7397780
  26.4235450   6.6572120 111.0556370  27.0135140   6.3487970 111.7434190
  25.6055690   6.1851870 111.2116270  31.2428880   6.2737930 111.2889390
  30.5544400   5.6119470 111.2239380  31.9634900   5.8276200 111.7337850
  31.8729280   2.8689560  97.3479650  32.1531570   2.0257460  97.7039070
  31.0995010   3.1012670  97.8618400  23.1923770   5.1581950  94.8070650
  23.4949670   5.1649380  93.8989800  23.9318360   4.8079810  95.3038310
  28.0272410  19.9238810 109.7887090  27.9531110  20.8273950 110.0959460
  27.1251250  19.6050710 109.7609160  26.4108700   4.1016570  95.7926850
  26.0630700   3.4240560  95.2129300  26.6121470   3.6406080  96.6070240
  28.5757740  19.0897320  97.4113450  29.4708530  19.4282290  97.4332210
  28.6075370  18.3676730  96.7837730  22.2153900  14.4624370  95.6400450
  22.6528770  15.0054040  96.2958030  22.7001630  13.6371320  95.6496790
  19.4299700  17.2513400 103.0920710  19.7602710  16.3834460 102.8599350
  19.8590700  17.4571920 103.9225670  24.0261620  15.5822410 100.7522680
  23.7257160  15.4587380 101.6526590  23.9199110  14.7231000 100.3438410
  19.9189910  18.1183990 105.8302340  19.4820900  18.2984790 106.6626490
  20.4867590  18.8758610 105.6884060  35.5552090  17.6200990 110.1179650
  34.9554080  17.6793550 109.3743570  35.6845990  16.6805970 110.2476500
  36.7953540  15.3618810  95.4549360  35.9646500  15.4295460  95.9256590
  36.9725370  16.2522930  95.1516220  36.2510000  12.1066290  97.9583560
  37.0128910  12.6762940  98.0643250  36.2664370  11.5393490  98.7291870
  19.7514340  10.6304220 102.1891220  19.0963180  10.3615860 101.5450920
  20.5892290  10.5208700 101.7393200  37.2569970  12.9616390 102.8025490
  37.6278800  12.1783710 102.3961460  37.8971900  13.6505490 102.6242790
  34.2403730  14.3452970 108.2155810  33.4263570  14.7750130 108.4781600
  34.6477930  14.9571380 107.6024860  36.3029170  12.4000660  95.1156080
  36.5778010  13.3079540  94.9875300  36.1139910  12.3363190  96.0518070
  32.7004780   5.4245510  96.4109710  33.1189660   5.2376490  95.5706370
  32.3940840   4.5724560  96.7212640  36.1994510  10.3369650 100.1085510
  35.8238110   9.5697580  99.6766800  35.4697630  10.7192350 100.5960440
  20.7890270  11.0156790 106.7294560  21.1563310  10.9284190 107.6090580
  20.2201090  10.2523340 106.6301420  35.5894130   9.4841170 109.7425030
  35.3580220   9.2553920 108.8422980  35.8498680  10.4040720 109.6969920
  20.3406270   7.9265880 110.6352980  19.4462320   7.8932640 110.9746690
  20.8803820   8.1252670 111.4004230  34.0282200   4.7097600 112.5204730
  34.9052380   4.7181000 112.9038730  34.0403040   3.9728440 111.9097080
  18.9652420   7.8403150  98.1316550  18.0616500   8.1033350  97.9568210
  19.4493040   8.1114320  97.3516510  35.4745470   8.5627140 103.4092750
  35.9982950   8.0689790 102.7782920  36.0604890   8.6977500 104.1540320
  35.6535190   8.6467010 106.9312300  34.7037900   8.6130550 107.0457290
  35.8348200   9.5567120 106.6962070  21.5079630   6.8968690  96.0410930
  22.2171330   6.4751910  95.5558210  20.7919570   6.9643920  95.4094280
  21.1553790   2.9508020  95.0813580  21.8781920   3.4916960  95.3994800
  21.4278310   2.6771440  94.2055120  34.9645440   7.8200490  99.3485160
  35.4604560   7.5871360 100.1334040  34.7661510   6.9812330  98.9322800
  20.8445980   2.2014210 104.9836200  21.4922170   1.6511590 104.5431360
  21.2647820   2.4557360 105.8052010  36.3932600   6.4561440 101.8822840
  36.2831880   6.3017480 102.8205110  37.1540190   5.9282380 101.6398250
  34.7398320   2.3955570 108.3405840  35.3770540   3.0089710 108.7065030
  34.8873210   2.4316230 107.3955070  37.2822870   4.2869360  95.1228980
  38.2072180   4.1550540  94.9147270  37.2598660   4.3662180  96.0765430
  37.3561360   5.0580020  97.7485690  36.5612860   4.9925140  98.2778600
  37.5604640   5.9930660  97.7371040  34.2979780  19.0971570 101.7424080
  34.8938850  18.7756140 101.0658500  34.5557930  18.6243390 102.5337350
  20.5977980   2.3569880 107.7261520  20.2492800   2.8133700 108.4919700
  20.2665680   1.4627010 107.8083950  22.2042350  15.5289480 111.8914710
  22.1611980  15.1582390 112.7729170  22.3353360  16.4667050 112.0316530
  25.9048380  17.0849070 107.4924430  25.6639740  17.3523630 106.6054950
  26.8451020  17.2554800 107.5475290  28.1102800   3.5481760 111.2480940
  28.0491690   4.1403590 111.9976350  29.0503180   3.4407720 111.1031200
  30.7477360   3.2051820 110.8873230  31.3617770   3.5231110 110.2254310
  31.2926920   2.7200410 111.5069090  37.1652540  19.1043450 108.2935070
  36.6710820  19.5012320 107.5762200  36.5565830  18.4792660 108.6872350
  22.0430380  18.4751730 109.0112490  21.4490700  18.3436430 109.7502530
  22.0354220  17.6389870 108.5454590  32.3957380   3.9754830 108.5984240
  32.0670740   3.1606590 108.2185970  33.3439680   3.9324640 108.4749930
  34.8491990  19.7466870 105.5721810  34.3894960  20.4982680 105.1979830
  34.2204450  19.0273340 105.5136610  21.6742610  15.8410110 107.9620530
  20.9476670  15.2215400 107.8946480  21.7351760  16.2350720 107.0918610
  25.2787710  18.0555110 104.7469940  25.7952730  17.4442470 104.2218200
  25.9285090  18.5583890 105.2380950  28.0183210  18.9463600 105.5738920
  28.3061020  18.6917900 104.6971930  28.5306430  18.3940960 106.1644490
  29.2360220   2.6853800 106.1535430  28.4532010   3.1599300 106.4332190
  28.9423150   1.7808630 106.0448610  33.7881290   3.3876900 104.1984520
  34.2289380   3.3322000 103.3506120  33.5188880   4.3034910 104.2694700
  35.6519860   3.0192140 102.2093340  35.5908260   2.0753360 102.0624360
  36.4311890   3.1272230 102.7546800  19.9572610  19.1584500 101.1717290
  19.7894650  18.5255180 101.8699180  19.0907120  19.3643900 100.8211480
  20.5800630   2.9901280  98.6749150  21.3379990   3.1030160  98.1013180
  20.1177800   3.8270480  98.6292580  27.1214440   5.1040550 101.6651460
  26.3088950   4.7297440 101.3247340  27.6256080   4.3485630 101.9672650
  31.6239420   1.7683000 102.9034530  32.2268790   2.3403210 103.3783050
  30.8832410   2.3322440 102.6808430  34.7674020   2.1704560  98.1774810
  34.9624650   3.0688010  98.4442240  33.9803890   1.9391640  98.6707760
  21.5635310  17.8517730  98.6167430  21.0382930  18.2325760  97.9129390
  21.4879890  18.4768500  99.3377140  22.9525780   3.5165330  97.2151120
  23.4818540   2.7295130  97.0859070  23.5854100   4.1956520  97.4486650
  25.1463620   3.2540470 100.2696510  24.5166360   2.5527780 100.4366640
  24.6068760   4.0144600 100.0529670  28.0855570  19.8679700 112.9407120
  29.0122880  19.6323970 112.9843080  28.0706000  20.6951700 112.4593150
  36.3200630  19.4105270  99.9381370  36.4952820  18.7243010  99.2942290
  35.6222200  19.9352320  99.5458040  25.2719180   2.5324450 112.7049000
  24.9903450   3.0358050 111.9409820  25.6538880   1.7346200 112.3391130
  24.1628280  19.8000110  97.4916680  24.8947100  19.5159390  96.9440570
  24.4221950  19.5613390  98.3816060  23.3243070  15.9164840  97.4963010
  22.6951950  16.3849940  98.0448840  23.4390900  15.0714060  97.9309200
  31.8734640   1.9478030 113.2829470  31.7600090   2.2672640 114.1780990
  32.6904380   2.3490540 112.9866750  34.6533130  19.0949560 112.7648160
  35.4458450  18.5998790 112.5574120  34.9466280  19.7739700 113.3723770
  30.7792790   9.9670500  83.6464210  30.6986840   9.0525110  83.3755920
  30.3657210  10.4637570  82.9403920  28.9110830  11.7449520  85.5273480
  28.1352930  11.2649960  85.8172050  29.5623760  11.0655170  85.3529640
  22.9276660  12.0569330  86.4049240  22.0961540  11.8018040  86.8045750
  23.5357640  12.1280100  87.1407160  32.9318260  16.1509710  84.3072610
  32.4699790  15.3796950  84.6359780  33.7443810  16.1775780  84.8125060
  22.9077920  16.0909420  86.6007260  23.2105960  15.2007160  86.4217480
  23.6521510  16.6479640  86.3729510  21.3368610   7.0171220  80.1891630
  20.4485310   7.3587190  80.0871510  21.6209800   6.8171540  79.2972460
  19.3001620   9.6176870  86.0731330  19.8717730   8.8499070  86.0734970
  19.3003160   9.9165630  85.1637940  29.1581570  18.4367720  83.9276600
  28.5393010  18.8925220  83.3571040  30.0133350  18.5919180  83.5266300
  28.3519820  14.4206710  85.5343640  28.2828100  13.4796650  85.3732770
  29.1139680  14.5108120  86.1066210  20.5426490   5.0261230  87.8600260
  20.3629330   4.1286980  88.1403020  20.1406570   5.5733100  88.5347210
  29.3824990   7.2277090  85.7612570  29.7589810   6.3548970  85.6486240
  29.2844500   7.5635790  84.8703010  23.5130000   5.6002720  81.2230010
  23.6196750   6.5006450  81.5298770  22.6022360   5.5520690  80.9324660
  33.1649110   4.7227530  82.6940910  33.9858730   4.2324100  82.7366390
  33.1983190   5.3125190  83.4472750  21.1613160   7.5221730  86.4682600
  21.8423270   7.7860100  87.0870000  20.8461210   6.6822600  86.8020610
  25.3537730   8.5689090  85.5555190  25.8615950   9.0670060  86.1960210
  25.8850970   7.7924290  85.3794550  37.4548660   6.7394280  89.2584540
  36.7500830   7.1275990  88.7399650  37.7206580   7.4344570  89.8605470
  23.6373830   3.2087650  89.8218610  23.6392270   3.7260040  89.0164510
  22.8078140   2.7317830  89.7988540  30.0244920  13.3206960  81.3208510
  29.4062190  13.7856410  80.7571230  30.5368170  14.0134440  81.7378020
  24.8876680  12.8482830  87.9992110  24.5546060  13.4751750  88.6413180
  25.0643360  13.3744710  87.2193780  33.4010590   6.6627910  85.4668450
  32.6966160   6.9512800  86.0471560  33.7622750   7.4728020  85.1068010
  23.3189160   4.9197610  87.8289060  23.6605970   5.7639660  87.5342930
  22.3804970   5.0681350  87.9454400  24.0995780  14.8163630  89.8141290
  24.7169780  15.4914710  89.5325740  23.2388900  15.2251610  89.7228790
  19.3928120  14.0063490  78.6948140  19.0156100  14.4950590  77.9633040
  19.6501190  14.6788770  79.3254670  35.0173370  16.2803040  87.7295930
  34.3336890  16.9502150  87.7212600  35.5567660  16.4783690  86.9640790
  36.4697510   6.1082700  85.8577660  35.5222420   6.1421680  85.9893090
  36.7947500   6.9221650  86.2427020  27.0017050   2.4079880  84.1533650
  27.3092030   1.8526770  83.4369150  26.0717750   2.5424340  83.9706640
  32.5532110  18.1247170  86.4441110  32.5659270  17.7209460  85.5763370
  32.0007330  18.8994460  86.3402540  33.8477530  14.8463390  81.5331280
  33.7373860  13.9037720  81.6580700  33.8445780  15.2079030  82.4194040
  31.9517550  13.0277010  87.7723720  32.3686340  12.8137120  86.9377180
  32.6757370  13.2849800  88.3432340  29.3897810  10.4728710  80.8893770
  28.4627090  10.4066090  81.1182240  29.5422630  11.4108840  80.7749010
  29.3766890   6.7445710  77.8860930  28.4370560   6.9059670  77.9713390
  29.6950150   7.4631390  77.3396920  35.8979650  11.4264230  87.8639960
  35.0698280  11.4957320  87.3890090  36.4930130  12.0118540  87.3955790
  33.4195100  12.0349010  81.3929020  32.8007520  11.6968560  80.7455320
  33.4019550  11.3908770  82.1008210  32.8621660   8.2133550  88.8094830
  32.4492840   9.0387260  89.0634820  32.1297610   7.6278590  88.6171190
  24.9954450  10.9993450  83.6713500  24.5911450  10.2870700  83.1759400
  25.0817570  10.6546690  84.5601540  25.4636150  14.6861010  85.8352710
  25.1664440  14.0806480  85.1560490  26.4135970  14.7238320  85.7242070
  23.7083070   7.7736660  87.4512540  24.2597660   7.8832000  86.6765790
  24.2226580   8.1474260  88.1667770  33.5521760  18.2592880  89.4975810
  33.0752320  19.0665070  89.3048420  32.8683550  17.6071210  89.6502020
  24.5554580  14.4242700  92.4860510  23.6583110  14.6482670  92.7333910
  24.5807450  14.5477640  91.5371910  31.5959800  11.2735820  78.4001770
  32.0353080  10.4358250  78.2539590  32.3088220  11.9065220  78.4865910
  23.3825800  11.2956020  91.0617880  23.2433570  12.1678820  91.4305280
  22.5007160  10.9528830  90.9165820  29.7055180  16.2131890  82.3683010
  30.1451090  16.9556220  81.9538400  29.6442070  16.4558460  83.2921970
  25.1806150  17.2377720  93.2703030  25.1521580  17.6420670  92.4031460
  25.0171120  16.3088080  93.1074630  35.1776940   2.5278630  76.7142810
  34.8649600   2.6205460  77.6141880  35.9389410   3.1059660  76.6640240
  21.6959080   9.8938430  81.1720150  21.5756680  10.6200520  80.5601420
  21.3859970   9.1241340  80.6948060  37.1320970  18.0204820  94.5667200
  37.6080690  18.4987710  95.2456280  37.7528130  17.9522310  93.8412700
  19.3344450  13.0653570  86.9788790  19.4124870  13.2002340  86.0344510
  19.9486130  12.3569460  87.1716910  20.5792080  14.7653760  83.3894970
  20.1720160  14.9068350  82.5348570  21.4705090  14.4813920  83.1866180
  36.5354220  15.2117670  91.7267210  36.6617280  14.9729550  90.8084390
  36.5775600  14.3802210  92.1989290  30.3970960  18.9145670  90.2962020
  30.9115630  18.8253680  91.0984450  29.5540040  19.2605370  90.5889930
  32.3725360  19.2001010  79.7246020  32.2126500  18.9103950  80.6227850
  32.2072070  18.4241140  79.1891250  24.8513740  18.9799540  81.5017640
  24.6756220  18.0635080  81.2885440  23.9969480  19.3386830  81.7415440
  32.0751490  16.7088570  78.2844020  31.3816650  16.7065860  77.6246300
  32.8174350  16.2847890  77.8538190  31.6401420  18.3351280  82.3592510
  32.0958370  17.5540660  82.6731130  31.9793940  19.0458100  82.9033690
  36.3878230   7.2650130  92.6916950  35.7722500   7.7729800  92.1632410
  36.0674650   6.3648460  92.6342890  19.3903970  14.1067740  89.5183250
  19.5535010  13.6373100  88.7002620  19.8556420  13.5991300  90.1832090
  24.1622740   3.2373500  84.5543820  23.7190890   4.0183040  84.2228340
  24.7207730   3.5603390  85.2614760  28.4492550   6.1042020  90.1579140
  27.9871920   6.3125040  90.9699080  28.0470660   5.2901370  89.8549810
  33.4497060   7.3250970  91.2875800  32.5990650   7.0256720  91.6084870
  33.2898850   7.5692980  90.3759620  30.5446770   8.8252720  93.3874590
  30.8700180   7.9916470  93.0476820  31.3327100   9.3481240  93.5352920
  27.2781560   2.8584200  79.4349650  26.6535740   2.8544070  80.1602960
  27.1911680   1.9915160  79.0385620  26.1998640   3.7820830  86.4133420
  26.4970970   4.6883660  86.3325440  26.7484200   3.2939610  85.7992990
  23.9536960   8.3607070  82.2825070  23.7277880   8.1444240  83.1871690
  23.1729490   8.7935530  81.9371040  31.1834720   8.3670440  80.8815720
  30.5843610   9.0906240  80.6979340  31.7314330   8.3047220  80.0992170
  26.3936170   9.2592650  92.9485340  26.2979770   8.3187380  92.7985740
  27.2368150   9.4807720  92.5533410  29.7899590   7.0033980  82.9119000
  30.1829160   7.3206180  82.0987690  30.1516440   6.1245860  83.0263520
  21.5246710   5.6706320  91.1019120  21.1310100   6.5181530  91.3091900
  20.8365110   5.0332690  91.2927760  28.0991760   5.7541290  94.1715860
  27.4090080   5.5613490  94.8061950  28.8424060   6.0375930  94.7040160
  18.8263760   3.5934780  85.1349200  18.5376810   4.1637640  85.8474180
  19.5709520   3.1139230  85.4980430  19.0133990   7.5354900  76.3451920
  18.9308660   8.4785660  76.4866910  18.6617050   7.3929810  75.4664270
  30.3754730   9.5939730  87.0069780  29.6435850  10.1026540  87.3559880
  29.9779070   8.7769710  86.7058560  26.8132120   6.2693930  85.4122270
  26.8168180   5.8283880  84.5626810  27.7083240   6.5911260  85.5194090
  22.6634500   6.1520420  84.3716480  22.3234550   6.6295650  85.1283530
  21.9011820   5.6985540  84.0117580  26.8752270   7.2706010  78.4029030
  26.9965090   7.2292490  79.3514850  26.4900780   8.1330160  78.2475760
  30.8380640   5.0473410  86.4192720  30.8553380   5.4982060  87.2634570
  30.5896220   4.1479050  86.6326160  25.8873770   9.5807150  77.8012330
  25.3190670   9.1325400  77.1748240  26.5962770   9.9399930  77.2677480
  34.2651390   2.4605590  92.2579100  34.5897160   1.7295250  92.7837080
  34.3007900   2.1419230  91.3560090  20.9642950  13.4819170  91.6779060
  20.5797740  12.8412840  92.2762020  21.2755140  14.1855290  92.2473790
  27.1140090  10.3295710  87.1587680  27.4810220   9.8554280  87.9049020
  26.9245150  11.2037280  87.4996020  19.9780580   5.0739400  83.2881150
  19.6927500   4.7095070  84.1259770  19.9159440   4.3419860  82.6744290
  24.9039460   9.3704350  89.4771890  24.5996530  10.2496330  89.7022250
  25.8585920   9.4304140  89.5129330  23.4321250  13.5765340  80.0738740
  22.6583510  13.0362960  79.9137460  24.1615880  13.0571950  79.7356500
  34.1909230  12.5730700  85.8665130  34.9108350  13.0685990  85.4761240
  33.9891050  11.8948590  85.2219000  29.6519170   3.9668660  80.0094520
  28.8383780   3.4681830  79.9339830  29.4581120   4.8066910  79.5930870
  29.5728030  12.6439760  91.7534130  29.5065340  11.7235430  91.4991720
  28.9433170  12.7415200  92.4678770  32.3667560   8.3388310  78.3056680
  33.2547180   8.6505540  78.1308020  32.3372650   7.4660560  77.9137260
  23.4758650  13.2445720  83.7117550  23.9937320  12.4413980  83.6574440
  23.0242670  13.1824860  84.5534380  28.3628150  14.5112000  78.9844850
  28.7043850  15.2554230  78.4888170  27.5340860  14.8243120  79.3469680
  20.9603190  10.2107090  90.6243250  20.6018130  10.8760940  91.2116590
  20.6657750   9.3790640  90.9955870  24.1616310  10.6691330  93.5082800
  23.8616450  10.8148510  92.6110620  24.9327550  10.1096620  93.4156190
  29.5044760  15.4660330  91.5037930  29.5189300  14.5341290  91.2856840
  28.7969860  15.5520090  92.1427700  34.6381830   9.6500150  77.7736540
  34.5545550  10.0814370  76.9232980  35.3576020  10.1098500  78.2063360
  35.7155970  12.1067670  90.8506510  34.9904160  12.6996450  90.6535900
  36.2431430  12.0991210  90.0519880  35.6669080  16.5042410  80.5018670
  35.0245240  15.8498030  80.7762390  35.2799740  16.9097500  79.7259340
  31.2455560  13.8327840  84.3490360  31.5979380  13.2355970  83.6891730
  30.3617890  13.5072070  84.5198610  27.3318840  14.5925530  81.7560770
  28.0189970  15.1394740  82.1368360  26.5451260  15.1366260  81.7910380
  19.4711240  10.2098350  77.2477850  20.3406090  10.4923150  77.5313770
  18.9801560  11.0234220  77.1326660  26.6346050  11.5971560  81.3686130
  27.0908830  12.4076810  81.5946320  26.2834260  11.2794700  82.2004620
  28.9378660  17.1077900  88.5978430  29.5820880  17.3137280  89.2751850
  29.3008100  16.3466300  88.1449280  22.5357830   1.9409210  81.8408650
  22.4072460   1.9327110  82.7893570  21.7119850   2.2792300  81.4899660
  30.2110740  15.1110250  87.3155880  30.8532970  14.4103410  87.4288050
  30.7360090  15.8908690  87.1352770  34.0566460  15.3958870  77.0395020
  33.8304040  14.6789310  77.6319660  33.6662660  15.1471310  76.2016770
  31.9848360  15.9105150  90.5191940  32.3204600  16.4971840  91.1969860
  31.0648700  15.7797860  90.7489730  19.8382490  19.4225730  77.8139480
  20.1980130  20.0215070  77.1596750  19.6974830  19.9685620  78.5874510
  19.5351760   3.7000330  91.3015350  18.8210280   3.8997250  91.9067960
  19.9546800   2.9239900  91.6730150  33.6382710  13.3130810  78.7009180
  33.3504410  13.7743500  79.4887060  34.4334880  12.8528580  78.9693400
  19.8224350  17.6880590  92.2881880  19.9315470  16.7475330  92.1477270
  19.1704910  17.9535340  91.6395610  27.8136940  15.9596480  93.6880000
  27.4933810  15.2405720  94.2325690  27.1395300  16.6351550  93.7616060
  25.8551110  16.8056930  78.6313150  25.8461210  17.5386620  78.0157660
  24.9349470  16.5588510  78.7240110  21.4557750  12.0271820  79.3759910
  20.8485700  12.7670720  79.3855210  21.9307100  12.1171180  78.5498110
  31.0290540   6.1922640  89.0516800  31.3971360   5.3717850  89.3796370
  30.1688740   6.2524530  89.4672450  34.3952570   5.1479580  79.8604360
  33.7665730   5.2525250  79.1462590  33.9004490   5.3676360  80.6498240
  28.8410710  16.8685170  77.2938340  28.9422690  16.6649160  76.3640320
  27.9412450  16.6143450  77.4986120  26.3636600   7.4265530  81.2762240
  25.6552750   7.8951870  81.7175850  26.6481080   6.7687540  81.9107430
  27.9892530   8.8462230  89.2754770  28.4877780   9.3208050  89.9406620
  28.1315480   7.9225750  89.4824800  30.3952030   4.1516190  82.7158030
  30.2719810   4.1702320  81.7667540  31.3436590   4.1995130  82.8356430
  27.4828820  19.3871490  81.9886010  27.7370320  19.3492880  81.0665380
  26.5341300  19.2604820  81.9814260  24.5671620   5.7350610  78.6512950
  25.4162150   6.1720760  78.5853140  24.2002890   6.0470870  79.4785010
  35.1959390   5.0630190  90.1183160  34.6932990   5.8035590  90.4576970
  36.0116050   5.4514190  89.8019950  33.4881400  10.3063370  83.5644520
  32.5471540  10.3213600  83.7392210  33.8025470   9.5199330  84.0104820
  23.4663040  11.9882970  77.1248480  24.2326310  11.8764330  77.6873910
  23.5437730  11.2920940  76.4725250  22.1609800   9.4208040  77.8081370
  22.2413390   8.4735550  77.9198770  23.0529550   9.7514920  77.9142030
  35.4906980  17.4772220  85.2398780  35.6154400  18.3003390  85.7122590
  36.3572540  17.2662950  84.8922930  22.9624510  19.5703430  84.9115910
  23.6986990  19.0218890  85.1824480  23.3465430  20.4359440  84.7721900
  19.8469990  15.6377000  80.7857420  18.9209770  15.8798140  80.7762830
  20.3126420  16.4651260  80.6642170  21.9682790  18.7549500  94.1001490
  22.7695520  19.0761550  94.5136890  21.4534610  18.3945080  94.8221400
  26.0726820  18.7433740  76.7341480  26.8655430  19.0322570  76.2823270
  25.5531170  18.3125910  76.0553960  30.8047420  14.8629370  94.0476900
  30.1985580  14.8860970  93.3072650  30.5001530  14.1312410  94.5844150
  32.2347790  18.5909660  92.6586310  33.1869540  18.5067680  92.6086550
  32.0876010  19.2551370  93.3320100  35.1256990  17.9703870  78.1578220
  34.8398500  17.5569010  77.3432400  34.9276540  18.8991580  78.0378740
  19.6880600  11.2422960  93.0437540  20.1919620  10.6630240  93.6153770
  18.9488020  11.5263190  93.5813910  26.5904220  13.9637150  76.5983830
  26.4854860  13.3489500  77.3245210  26.4228440  13.4403040  75.8146840
  26.7418540  12.6493950  92.5773060  25.9764210  13.2178950  92.4927730
  26.9234500  12.3570160  91.6841290  29.8306950  13.0257180  77.2025820
  29.2817050  13.4726480  77.8468560  30.4526210  12.5206430  77.7263490
  33.8841890  14.3799280  93.1348080  34.6251360  14.7175040  92.6315540
  33.1214570  14.5491340  92.5817850  21.7203680   9.3852550  93.9387610
  21.7609020   9.0866420  94.8472840  22.5749180   9.7860160  93.7795130
  25.4982070  11.9848100  79.0991120  25.9198490  11.8187970  79.9422510
  25.6232910  11.1748330  78.6046260  23.6609490   7.9644650  91.9062100
  23.1305950   7.4735600  91.2785440  24.3297560   8.3928850  91.3720030
  28.0109710  11.0085710  76.3468220  28.5315370  10.2934730  75.9809370
  28.6578110  11.6471580  76.6468730  32.5587550  12.4314110  91.6703290
  32.9728570  12.5859190  92.5193710  31.6238550  12.5569330  91.8329070
  33.0309720   9.7710270  93.6742440  33.6130490   9.0162590  93.5862920
  33.2071490  10.3017710  92.8973920  24.1481790   4.9307020  91.9859390
  24.0538660   4.3127770  91.2610260  23.5679180   5.6573310  91.7589300
  26.9143230   3.4880260  89.0186780  26.4660530   3.5104520  88.1732330
  26.2808430   3.0899280  89.6157080  27.3202780  12.3834590  89.6399220
  27.7390890  13.2267320  89.4675460  26.4011410  12.5206630  89.4106000
  29.6566680  10.1150770  91.0237060  29.7762890   9.5191910  91.7631900
  30.5160680  10.1520460  90.6038360  31.9954580  10.6687960  89.5999570
  31.4689800  11.1930580  88.9964710  32.3385920  11.3015350  90.2309300
  24.3940970   8.0581330  76.0449280  24.1930030   7.1948690  76.4062620
  24.2233020   7.9714690  75.1070880  25.1710200  18.6887600  90.7556950
  24.6331290  19.4133660  90.4365650  25.4244160  18.2117940  89.9654290
  26.4235450   6.6572120  92.2812880  27.0135140   6.3487970  92.9690700
  25.6055690   6.1851870  92.4372780  31.2428880   6.2737930  92.5145900
  30.5544400   5.6119470  92.4495890  31.9634900   5.8276200  92.9594360
  31.8729280   2.8689560  78.5736160  32.1531570   2.0257460  78.9295580
  31.0995010   3.1012670  79.0874910  23.1923770   5.1581950  76.0327160
  23.4949670   5.1649380  75.1246310  23.9318360   4.8079810  76.5294820
  28.0272410  19.9238810  91.0143600  27.9531110  20.8273950  91.3215970
  27.1251250  19.6050710  90.9865670  26.4108700   4.1016570  77.0183360
  26.0630700   3.4240560  76.4385810  26.6121470   3.6406080  77.8326750
  28.5757740  19.0897320  78.6369960  29.4708530  19.4282290  78.6588720
  28.6075370  18.3676730  78.0094240  22.2153900  14.4624370  76.8656960
  22.6528770  15.0054040  77.5214540  22.7001630  13.6371320  76.8753300
  19.4299700  17.2513400  84.3177220  19.7602710  16.3834460  84.0855860
  19.8590700  17.4571920  85.1482180  24.0261620  15.5822410  81.9779190
  23.7257160  15.4587380  82.8783100  23.9199110  14.7231000  81.5694920
  19.9189910  18.1183990  87.0558850  19.4820900  18.2984790  87.8883000
  20.4867590  18.8758610  86.9140570  35.5552090  17.6200990  91.3436160
  34.9554080  17.6793550  90.6000080  35.6845990  16.6805970  91.4733010
  36.7953540  15.3618810  76.6805870  35.9646500  15.4295460  77.1513100
  36.9725370  16.2522930  76.3772730  36.2510000  12.1066290  79.1840070
  37.0128910  12.6762940  79.2899760  36.2664370  11.5393490  79.9548380
  19.7514340  10.6304220  83.4147730  19.0963180  10.3615860  82.7707430
  20.5892290  10.5208700  82.9649710  37.2569970  12.9616390  84.0282000
  37.6278800  12.1783710  83.6217970  37.8971900  13.6505490  83.8499300
  34.2403730  14.3452970  89.4412320  33.4263570  14.7750130  89.7038110
  34.6477930  14.9571380  88.8281370  36.3029170  12.4000660  76.3412590
  36.5778010  13.3079540  76.2131810  36.1139910  12.3363190  77.2774580
  32.7004780   5.4245510  77.6366220  33.1189660   5.2376490  76.7962880
  32.3940840   4.5724560  77.9469150  36.1994510  10.3369650  81.3342020
  35.8238110   9.5697580  80.9023310  35.4697630  10.7192350  81.8216950
  20.7890270  11.0156790  87.9551070  21.1563310  10.9284190  88.8347090
  20.2201090  10.2523340  87.8557930  35.5894130   9.4841170  90.9681540
  35.3580220   9.2553920  90.0679490  35.8498680  10.4040720  90.9226430
  20.3406270   7.9265880  91.8609490  19.4462320   7.8932640  92.2003200
  20.8803820   8.1252670  92.6260740  34.0282200   4.7097600  93.7461240
  34.9052380   4.7181000  94.1295240  34.0403040   3.9728440  93.1353590
  18.9652420   7.8403150  79.3573060  18.0616500   8.1033350  79.1824720
  19.4493040   8.1114320  78.5773020  35.4745470   8.5627140  84.6349260
  35.9982950   8.0689790  84.0039430  36.0604890   8.6977500  85.3796830
  35.6535190   8.6467010  88.1568810  34.7037900   8.6130550  88.2713800
  35.8348200   9.5567120  87.9218580  21.5079630   6.8968690  77.2667440
  22.2171330   6.4751910  76.7814720  20.7919570   6.9643920  76.6350790
  21.1553790   2.9508020  76.3070090  21.8781920   3.4916960  76.6251310
  21.4278310   2.6771440  75.4311630  34.9645440   7.8200490  80.5741670
  35.4604560   7.5871360  81.3590550  34.7661510   6.9812330  80.1579310
  20.8445980   2.2014210  86.2092710  21.4922170   1.6511590  85.7687870
  21.2647820   2.4557360  87.0308520  36.3932600   6.4561440  83.1079350
  36.2831880   6.3017480  84.0461620  37.1540190   5.9282380  82.8654760
  34.7398320   2.3955570  89.5662350  35.3770540   3.0089710  89.9321540
  34.8873210   2.4316230  88.6211580  37.2822870   4.2869360  76.3485490
  38.2072180   4.1550540  76.1403780  37.2598660   4.3662180  77.3021940
  37.3561360   5.0580020  78.9742200  36.5612860   4.9925140  79.5035110
  37.5604640   5.9930660  78.9627550  34.2979780  19.0971570  82.9680590
  34.8938850  18.7756140  82.2915010  34.5557930  18.6243390  83.7593860
  20.5977980   2.3569880  88.9518030  20.2492800   2.8133700  89.7176210
  20.2665680   1.4627010  89.0340460  22.2042350  15.5289480  93.1171220
  22.1611980  15.1582390  93.9985680  22.3353360  16.4667050  93.2573040
  25.9048380  17.0849070  88.7180940  25.6639740  17.3523630  87.8311460
  26.8451020  17.2554800  88.7731800  28.1102800   3.5481760  92.4737450
  28.0491690   4.1403590  93.2232860  29.0503180   3.4407720  92.3287710
  30.7477360   3.2051820  92.1129740  31.3617770   3.5231110  91.4510820
  31.2926920   2.7200410  92.7325600  37.1652540  19.1043450  89.5191580
  36.6710820  19.5012320  88.8018710  36.5565830  18.4792660  89.9128860
  22.0430380  18.4751730  90.2369000  21.4490700  18.3436430  90.9759040
  22.0354220  17.6389870  89.7711100  32.3957380   3.9754830  89.8240750
  32.0670740   3.1606590  89.4442480  33.3439680   3.9324640  89.7006440
  34.8491990  19.7466870  86.7978320  34.3894960  20.4982680  86.4236340
  34.2204450  19.0273340  86.7393120  21.6742610  15.8410110  89.1877040
  20.9476670  15.2215400  89.1202990  21.7351760  16.2350720  88.3175120
  25.2787710  18.0555110  85.9726450  25.7952730  17.4442470  85.4474710
  25.9285090  18.5583890  86.4637460  28.0183210  18.9463600  86.7995430
  28.3061020  18.6917900  85.9228440  28.5306430  18.3940960  87.3901000
  29.2360220   2.6853800  87.3791940  28.4532010   3.1599300  87.6588700
  28.9423150   1.7808630  87.2705120  33.7881290   3.3876900  85.4241030
  34.2289380   3.3322000  84.5762630  33.5188880   4.3034910  85.4951210
  35.6519860   3.0192140  83.4349850  35.5908260   2.0753360  83.2880870
  36.4311890   3.1272230  83.9803310  19.9572610  19.1584500  82.3973800
  19.7894650  18.5255180  83.0955690  19.0907120  19.3643900  82.0467990
  20.5800630   2.9901280  79.9005660  21.3379990   3.1030160  79.3269690
  20.1177800   3.8270480  79.8549090  27.1214440   5.1040550  82.8907970
  26.3088950   4.7297440  82.5503850  27.6256080   4.3485630  83.1929160
  31.6239420   1.7683000  84.1291040  32.2268790   2.3403210  84.6039560
  30.8832410   2.3322440  83.9064940  34.7674020   2.1704560  79.4031320
  34.9624650   3.0688010  79.6698750  33.9803890   1.9391640  79.8964270
  21.5635310  17.8517730  79.8423940  21.0382930  18.2325760  79.1385900
  21.4879890  18.4768500  80.5633650  22.9525780   3.5165330  78.4407630
  23.4818540   2.7295130  78.3115580  23.5854100   4.1956520  78.6743160
  25.1463620   3.2540470  81.4953020  24.5166360   2.5527780  81.6623150
  24.6068760   4.0144600  81.2786180  28.0855570  19.8679700  94.1663630
  29.0122880  19.6323970  94.2099590  28.0706000  20.6951700  93.6849660
  36.3200630  19.4105270  81.1637880  36.4952820  18.7243010  80.5198800
  35.6222200  19.9352320  80.7714550  25.2719180   2.5324450  93.9305510
  24.9903450   3.0358050  93.1666330  25.6538880   1.7346200  93.5647640
  24.1628280  19.8000110  78.7173190  24.8947100  19.5159390  78.1697080
  24.4221950  19.5613390  79.6072570  23.3243070  15.9164840  78.7219520
  22.6951950  16.3849940  79.2705350  23.4390900  15.0714060  79.1565710
  31.8734640   1.9478030  94.5085980  31.7600090   2.2672640  95.4037500
  32.6904380   2.3490540  94.2123260  34.6533130  19.0949560  93.9904670
  35.4458450  18.5998790  93.7830630  34.9466280  19.7739700  94.5980280
  30.7792790   9.9670500  64.8720720  30.6986840   9.0525110  64.6012430
  30.3657210  10.4637570  64.1660430  28.9110830  11.7449520  66.7529990
  28.1352930  11.2649960  67.0428560  29.5623760  11.0655170  66.5786150
  22.9276660  12.0569330  67.6305750  22.0961540  11.8018040  68.0302260
  23.5357640  12.1280100  68.3663670  32.9318260  16.1509710  65.5329120
  32.4699790  15.3796950  65.8616290  33.7443810  16.1775780  66.0381570
  22.9077920  16.0909420  67.8263770  23.2105960  15.2007160  67.6473990
  23.6521510  16.6479640  67.5986020  21.3368610   7.0171220  61.4148140
  20.4485310   7.3587190  61.3128020  21.6209800   6.8171540  60.5228970
  19.3001620   9.6176870  67.2987840  19.8717730   8.8499070  67.2991480
  19.3003160   9.9165630  66.3894450  29.1581570  18.4367720  65.1533110
  28.5393010  18.8925220  64.5827550  30.0133350  18.5919180  64.7522810
  28.3519820  14.4206710  66.7600150  28.2828100  13.4796650  66.5989280
  29.1139680  14.5108120  67.3322720  20.5426490   5.0261230  69.0856770
  20.3629330   4.1286980  69.3659530  20.1406570   5.5733100  69.7603720
  29.3824990   7.2277090  66.9869080  29.7589810   6.3548970  66.8742750
  29.2844500   7.5635790  66.0959520  23.5130000   5.6002720  62.4486520
  23.6196750   6.5006450  62.7555280  22.6022360   5.5520690  62.1581170
  33.1649110   4.7227530  63.9197420  33.9858730   4.2324100  63.9622900
  33.1983190   5.3125190  64.6729260  21.1613160   7.5221730  67.6939110
  21.8423270   7.7860100  68.3126510  20.8461210   6.6822600  68.0277120
  25.3537730   8.5689090  66.7811700  25.8615950   9.0670060  67.4216720
  25.8850970   7.7924290  66.6051060  37.4548660   6.7394280  70.4841050
  36.7500830   7.1275990  69.9656160  37.7206580   7.4344570  71.0861980
  23.6373830   3.2087650  71.0475120  23.6392270   3.7260040  70.2421020
  22.8078140   2.7317830  71.0245050  30.0244920  13.3206960  62.5465020
  29.4062190  13.7856410  61.9827740  30.5368170  14.0134440  62.9634530
  24.8876680  12.8482830  69.2248620  24.5546060  13.4751750  69.8669690
  25.0643360  13.3744710  68.4450290  33.4010590   6.6627910  66.6924960
  32.6966160   6.9512800  67.2728070  33.7622750   7.4728020  66.3324520
  23.3189160   4.9197610  69.0545570  23.6605970   5.7639660  68.7599440
  22.3804970   5.0681350  69.1710910  24.0995780  14.8163630  71.0397800
  24.7169780  15.4914710  70.7582250  23.2388900  15.2251610  70.9485300
  19.3928120  14.0063490  59.9204650  19.0156100  14.4950590  59.1889550
  19.6501190  14.6788770  60.5511180  35.0173370  16.2803040  68.9552440
  34.3336890  16.9502150  68.9469110  35.5567660  16.4783690  68.1897300
  36.4697510   6.1082700  67.0834170  35.5222420   6.1421680  67.2149600
  36.7947500   6.9221650  67.4683530  27.0017050   2.4079880  65.3790160
  27.3092030   1.8526770  64.6625660  26.0717750   2.5424340  65.1963150
  32.5532110  18.1247170  67.6697620  32.5659270  17.7209460  66.8019880
  32.0007330  18.8994460  67.5659050  33.8477530  14.8463390  62.7587790
  33.7373860  13.9037720  62.8837210  33.8445780  15.2079030  63.6450550
  31.9517550  13.0277010  68.9980230  32.3686340  12.8137120  68.1633690
  32.6757370  13.2849800  69.5688850  29.3897810  10.4728710  62.1150280
  28.4627090  10.4066090  62.3438750  29.5422630  11.4108840  62.0005520
  29.3766890   6.7445710  59.1117440  28.4370560   6.9059670  59.1969900
  29.6950150   7.4631390  58.5653430  35.8979650  11.4264230  69.0896470
  35.0698280  11.4957320  68.6146600  36.4930130  12.0118540  68.6212300
  33.4195100  12.0349010  62.6185530  32.8007520  11.6968560  61.9711830
  33.4019550  11.3908770  63.3264720  32.8621660   8.2133550  70.0351340
  32.4492840   9.0387260  70.2891330  32.1297610   7.6278590  69.8427700
  24.9954450  10.9993450  64.8970010  24.5911450  10.2870700  64.4015910
  25.0817570  10.6546690  65.7858050  25.4636150  14.6861010  67.0609220
  25.1664440  14.0806480  66.3817000  26.4135970  14.7238320  66.9498580
  23.7083070   7.7736660  68.6769050  24.2597660   7.8832000  67.9022300
  24.2226580   8.1474260  69.3924280  33.5521760  18.2592880  70.7232320
  33.0752320  19.0665070  70.5304930  32.8683550  17.6071210  70.8758530
  24.5554580  14.4242700  73.7117020  23.6583110  14.6482670  73.9590420
  24.5807450  14.5477640  72.7628420  31.5959800  11.2735820  59.6258280
  32.0353080  10.4358250  59.4796100  32.3088220  11.9065220  59.7122420
  23.3825800  11.2956020  72.2874390  23.2433570  12.1678820  72.6561790
  22.5007160  10.9528830  72.1422330  29.7055180  16.2131890  63.5939520
  30.1451090  16.9556220  63.1794910  29.6442070  16.4558460  64.5178480
  25.1806150  17.2377720  74.4959540  25.1521580  17.6420670  73.6287970
  25.0171120  16.3088080  74.3331140  35.1776940   2.5278630  57.9399320
  34.8649600   2.6205460  58.8398390  35.9389410   3.1059660  57.8896750
  21.6959080   9.8938430  62.3976660  21.5756680  10.6200520  61.7857930
  21.3859970   9.1241340  61.9204570  37.1320970  18.0204820  75.7923710
  37.6080690  18.4987710  76.4712790  37.7528130  17.9522310  75.0669210
  19.3344450  13.0653570  68.2045300  19.4124870  13.2002340  67.2601020
  19.9486130  12.3569460  68.3973420  20.5792080  14.7653760  64.6151480
  20.1720160  14.9068350  63.7605080  21.4705090  14.4813920  64.4122690
  36.5354220  15.2117670  72.9523720  36.6617280  14.9729550  72.0340900
  36.5775600  14.3802210  73.4245800  30.3970960  18.9145670  71.5218530
  30.9115630  18.8253680  72.3240960  29.5540040  19.2605370  71.8146440
  32.3725360  19.2001010  60.9502530  32.2126500  18.9103950  61.8484360
  32.2072070  18.4241140  60.4147760  24.8513740  18.9799540  62.7274150
  24.6756220  18.0635080  62.5141950  23.9969480  19.3386830  62.9671950
  32.0751490  16.7088570  59.5100530  31.3816650  16.7065860  58.8502810
  32.8174350  16.2847890  59.0794700  31.6401420  18.3351280  63.5849020
  32.0958370  17.5540660  63.8987640  31.9793940  19.0458100  64.1290200
  36.3878230   7.2650130  73.9173460  35.7722500   7.7729800  73.3888920
  36.0674650   6.3648460  73.8599400  19.3903970  14.1067740  70.7439760
  19.5535010  13.6373100  69.9259130  19.8556420  13.5991300  71.4088600
  24.1622740   3.2373500  65.7800330  23.7190890   4.0183040  65.4484850
  24.7207730   3.5603390  66.4871270  28.4492550   6.1042020  71.3835650
  27.9871920   6.3125040  72.1955590  28.0470660   5.2901370  71.0806320
  33.4497060   7.3250970  72.5132310  32.5990650   7.0256720  72.8341380
  33.2898850   7.5692980  71.6016130  30.5446770   8.8252720  74.6131100
  30.8700180   7.9916470  74.2733330  31.3327100   9.3481240  74.7609430
  27.2781560   2.8584200  60.6606160  26.6535740   2.8544070  61.3859470
  27.1911680   1.9915160  60.2642130  26.1998640   3.7820830  67.6389930
  26.4970970   4.6883660  67.5581950  26.7484200   3.2939610  67.0249500
  23.9536960   8.3607070  63.5081580  23.7277880   8.1444240  64.4128200
  23.1729490   8.7935530  63.1627550  31.1834720   8.3670440  62.1072230
  30.5843610   9.0906240  61.9235850  31.7314330   8.3047220  61.3248680
  26.3936170   9.2592650  74.1741850  26.2979770   8.3187380  74.0242250
  27.2368150   9.4807720  73.7789920  29.7899590   7.0033980  64.1375510
  30.1829160   7.3206180  63.3244200  30.1516440   6.1245860  64.2520030
  21.5246710   5.6706320  72.3275630  21.1310100   6.5181530  72.5348410
  20.8365110   5.0332690  72.5184270  28.0991760   5.7541290  75.3972370
  27.4090080   5.5613490  76.0318460  28.8424060   6.0375930  75.9296670
  18.8263760   3.5934780  66.3605710  18.5376810   4.1637640  67.0730690
  19.5709520   3.1139230  66.7236940  19.0133990   7.5354900  57.5708430
  18.9308660   8.4785660  57.7123420  18.6617050   7.3929810  56.6920780
  30.3754730   9.5939730  68.2326290  29.6435850  10.1026540  68.5816390
  29.9779070   8.7769710  67.9315070  26.8132120   6.2693930  66.6378780
  26.8168180   5.8283880  65.7883320  27.7083240   6.5911260  66.7450600
  22.6634500   6.1520420  65.5972990  22.3234550   6.6295650  66.3540040
  21.9011820   5.6985540  65.2374090  26.8752270   7.2706010  59.6285540
  26.9965090   7.2292490  60.5771360  26.4900780   8.1330160  59.4732270
  30.8380640   5.0473410  67.6449230  30.8553380   5.4982060  68.4891080
  30.5896220   4.1479050  67.8582670  25.8873770   9.5807150  59.0268840
  25.3190670   9.1325400  58.4004750  26.5962770   9.9399930  58.4933990
  34.2651390   2.4605590  73.4835610  34.5897160   1.7295250  74.0093590
  34.3007900   2.1419230  72.5816600  20.9642950  13.4819170  72.9035570
  20.5797740  12.8412840  73.5018530  21.2755140  14.1855290  73.4730300
  27.1140090  10.3295710  68.3844190  27.4810220   9.8554280  69.1305530
  26.9245150  11.2037280  68.7252530  19.9780580   5.0739400  64.5137660
  19.6927500   4.7095070  65.3516280  19.9159440   4.3419860  63.9000800
  24.9039460   9.3704350  70.7028400  24.5996530  10.2496330  70.9278760
  25.8585920   9.4304140  70.7385840  23.4321250  13.5765340  61.2995250
  22.6583510  13.0362960  61.1393970  24.1615880  13.0571950  60.9613010
  34.1909230  12.5730700  67.0921640  34.9108350  13.0685990  66.7017750
  33.9891050  11.8948590  66.4475510  29.6519170   3.9668660  61.2351030
  28.8383780   3.4681830  61.1596340  29.4581120   4.8066910  60.8187380
  29.5728030  12.6439760  72.9790640  29.5065340  11.7235430  72.7248230
  28.9433170  12.7415200  73.6935280  32.3667560   8.3388310  59.5313190
  33.2547180   8.6505540  59.3564530  32.3372650   7.4660560  59.1393770
  23.4758650  13.2445720  64.9374060  23.9937320  12.4413980  64.8830950
  23.0242670  13.1824860  65.7790890  28.3628150  14.5112000  60.2101360
  28.7043850  15.2554230  59.7144680  27.5340860  14.8243120  60.5726190
  20.9603190  10.2107090  71.8499760  20.6018130  10.8760940  72.4373100
  20.6657750   9.3790640  72.2212380  24.1616310  10.6691330  74.7339310
  23.8616450  10.8148510  73.8367130  24.9327550  10.1096620  74.6412700
  29.5044760  15.4660330  72.7294440  29.5189300  14.5341290  72.5113350
  28.7969860  15.5520090  73.3684210  34.6381830   9.6500150  58.9993050
  34.5545550  10.0814370  58.1489490  35.3576020  10.1098500  59.4319870
  35.7155970  12.1067670  72.0763020  34.9904160  12.6996450  71.8792410
  36.2431430  12.0991210  71.2776390  35.6669080  16.5042410  61.7275180
  35.0245240  15.8498030  62.0018900  35.2799740  16.9097500  60.9515850
  31.2455560  13.8327840  65.5746870  31.5979380  13.2355970  64.9148240
  30.3617890  13.5072070  65.7455120  27.3318840  14.5925530  62.9817280
  28.0189970  15.1394740  63.3624870  26.5451260  15.1366260  63.0166890
  19.4711240  10.2098350  58.4734360  20.3406090  10.4923150  58.7570280
  18.9801560  11.0234220  58.3583170  26.6346050  11.5971560  62.5942640
  27.0908830  12.4076810  62.8202830  26.2834260  11.2794700  63.4261130
  28.9378660  17.1077900  69.8234940  29.5820880  17.3137280  70.5008360
  29.3008100  16.3466300  69.3705790  22.5357830   1.9409210  63.0665160
  22.4072460   1.9327110  64.0150080  21.7119850   2.2792300  62.7156170
  30.2110740  15.1110250  68.5412390  30.8532970  14.4103410  68.6544560
  30.7360090  15.8908690  68.3609280  34.0566460  15.3958870  58.2651530
  33.8304040  14.6789310  58.8576170  33.6662660  15.1471310  57.4273280
  31.9848360  15.9105150  71.7448450  32.3204600  16.4971840  72.4226370
  31.0648700  15.7797860  71.9746240  19.8382490  19.4225730  59.0395990
  20.1980130  20.0215070  58.3853260  19.6974830  19.9685620  59.8131020
  19.5351760   3.7000330  72.5271860  18.8210280   3.8997250  73.1324470
  19.9546800   2.9239900  72.8986660  33.6382710  13.3130810  59.9265690
  33.3504410  13.7743500  60.7143570  34.4334880  12.8528580  60.1949910
  19.8224350  17.6880590  73.5138390  19.9315470  16.7475330  73.3733780
  19.1704910  17.9535340  72.8652120  27.8136940  15.9596480  74.9136510
  27.4933810  15.2405720  75.4582200  27.1395300  16.6351550  74.9872570
  25.8551110  16.8056930  59.8569660  25.8461210  17.5386620  59.2414170
  24.9349470  16.5588510  59.9496620  21.4557750  12.0271820  60.6016420
  20.8485700  12.7670720  60.6111720  21.9307100  12.1171180  59.7754620
  31.0290540   6.1922640  70.2773310  31.3971360   5.3717850  70.6052880
  30.1688740   6.2524530  70.6928960  34.3952570   5.1479580  61.0860870
  33.7665730   5.2525250  60.3719100  33.9004490   5.3676360  61.8754750
  28.8410710  16.8685170  58.5194850  28.9422690  16.6649160  57.5896830
  27.9412450  16.6143450  58.7242630  26.3636600   7.4265530  62.5018750
  25.6552750   7.8951870  62.9432360  26.6481080   6.7687540  63.1363940
  27.9892530   8.8462230  70.5011280  28.4877780   9.3208050  71.1663130
  28.1315480   7.9225750  70.7081310  30.3952030   4.1516190  63.9414540
  30.2719810   4.1702320  62.9924050  31.3436590   4.1995130  64.0612940
  27.4828820  19.3871490  63.2142520  27.7370320  19.3492880  62.2921890
  26.5341300  19.2604820  63.2070770  24.5671620   5.7350610  59.8769460
  25.4162150   6.1720760  59.8109650  24.2002890   6.0470870  60.7041520
  35.1959390   5.0630190  71.3439670  34.6932990   5.8035590  71.6833480
  36.0116050   5.4514190  71.0276460  33.4881400  10.3063370  64.7901030
  32.5471540  10.3213600  64.9648720  33.8025470   9.5199330  65.2361330
  23.4663040  11.9882970  58.3504990  24.2326310  11.8764330  58.9130420
  23.5437730  11.2920940  57.6981760  22.1609800   9.4208040  59.0337880
  22.2413390   8.4735550  59.1455280  23.0529550   9.7514920  59.1398540
  35.4906980  17.4772220  66.4655290  35.6154400  18.3003390  66.9379100
  36.3572540  17.2662950  66.1179440  22.9624510  19.5703430  66.1372420
  23.6986990  19.0218890  66.4080990  23.3465430  20.4359440  65.9978410
  19.8469990  15.6377000  62.0113930  18.9209770  15.8798140  62.0019340
  20.3126420  16.4651260  61.8898680  21.9682790  18.7549500  75.3258000
  22.7695520  19.0761550  75.7393400  21.4534610  18.3945080  76.0477910
  26.0726820  18.7433740  57.9597990  26.8655430  19.0322570  57.5079780
  25.5531170  18.3125910  57.2810470  30.8047420  14.8629370  75.2733410
  30.1985580  14.8860970  74.5329160  30.5001530  14.1312410  75.8100660
  32.2347790  18.5909660  73.8842820  33.1869540  18.5067680  73.8343060
  32.0876010  19.2551370  74.5576610  35.1256990  17.9703870  59.3834730
  34.8398500  17.5569010  58.5688910  34.9276540  18.8991580  59.2635250
  19.6880600  11.2422960  74.2694050  20.1919620  10.6630240  74.8410280
  18.9488020  11.5263190  74.8070420  26.5904220  13.9637150  57.8240340
  26.4854860  13.3489500  58.5501720  26.4228440  13.4403040  57.0403350
  26.7418540  12.6493950  73.8029570  25.9764210  13.2178950  73.7184240
  26.9234500  12.3570160  72.9097800  29.8306950  13.0257180  58.4282330
  29.2817050  13.4726480  59.0725070  30.4526210  12.5206430  58.9520000
  33.8841890  14.3799280  74.3604590  34.6251360  14.7175040  73.8572050
  33.1214570  14.5491340  73.8074360  21.7203680   9.3852550  75.1644120
  21.7609020   9.0866420  76.0729350  22.5749180   9.7860160  75.0051640
  25.4982070  11.9848100  60.3247630  25.9198490  11.8187970  61.1679020
  25.6232910  11.1748330  59.8302770  23.6609490   7.9644650  73.1318610
  23.1305950   7.4735600  72.5041950  24.3297560   8.3928850  72.5976540
  28.0109710  11.0085710  57.5724730  28.5315370  10.2934730  57.2065880
  28.6578110  11.6471580  57.8725240  32.5587550  12.4314110  72.8959800
  32.9728570  12.5859190  73.7450220  31.6238550  12.5569330  73.0585580
  33.0309720   9.7710270  74.8998950  33.6130490   9.0162590  74.8119430
  33.2071490  10.3017710  74.1230430  24.1481790   4.9307020  73.2115900
  24.0538660   4.3127770  72.4866770  23.5679180   5.6573310  72.9845810
  26.9143230   3.4880260  70.2443290  26.4660530   3.5104520  69.3988840
  26.2808430   3.0899280  70.8413590  27.3202780  12.3834590  70.8655730
  27.7390890  13.2267320  70.6931970  26.4011410  12.5206630  70.6362510
  29.6566680  10.1150770  72.2493570  29.7762890   9.5191910  72.9888410
  30.5160680  10.1520460  71.8294870  31.9954580  10.6687960  70.8256080
  31.4689800  11.1930580  70.2221220  32.3385920  11.3015350  71.4565810
  24.3940970   8.0581330  57.2705790  24.1930030   7.1948690  57.6319130
  24.2233020   7.9714690  56.3327390  25.1710200  18.6887600  71.9813460
  24.6331290  19.4133660  71.6622160  25.4244160  18.2117940  71.1910800
  26.4235450   6.6572120  73.5069390  27.0135140   6.3487970  74.1947210
  25.6055690   6.1851870  73.6629290  31.2428880   6.2737930  73.7402410
  30.5544400   5.6119470  73.6752400  31.9634900   5.8276200  74.1850870
  31.8729280   2.8689560  59.7992670  32.1531570   2.0257460  60.1552090
  31.0995010   3.1012670  60.3131420  23.1923770   5.1581950  57.2583670
  23.4949670   5.1649380  56.3502820  23.9318360   4.8079810  57.7551330
  28.0272410  19.9238810  72.2400110  27.9531110  20.8273950  72.5472480
  27.1251250  19.6050710  72.2122180  26.4108700   4.1016570  58.2439870
  26.0630700   3.4240560  57.6642320  26.6121470   3.6406080  59.0583260
  28.5757740  19.0897320  59.8626470  29.4708530  19.4282290  59.8845230
  28.6075370  18.3676730  59.2350750  22.2153900  14.4624370  58.0913470
  22.6528770  15.0054040  58.7471050  22.7001630  13.6371320  58.1009810
  19.4299700  17.2513400  65.5433730  19.7602710  16.3834460  65.3112370
  19.8590700  17.4571920  66.3738690  24.0261620  15.5822410  63.2035700
  23.7257160  15.4587380  64.1039610  23.9199110  14.7231000  62.7951430
  19.9189910  18.1183990  68.2815360  19.4820900  18.2984790  69.1139510
  20.4867590  18.8758610  68.1397080  35.5552090  17.6200990  72.5692670
  34.9554080  17.6793550  71.8256590  35.6845990  16.6805970  72.6989520
  36.7953540  15.3618810  57.9062380  35.9646500  15.4295460  58.3769610
  36.9725370  16.2522930  57.6029240  36.2510000  12.1066290  60.4096580
  37.0128910  12.6762940  60.5156270  36.2664370  11.5393490  61.1804890
  19.7514340  10.6304220  64.6404240  19.0963180  10.3615860  63.9963940
  20.5892290  10.5208700  64.1906220  37.2569970  12.9616390  65.2538510
  37.6278800  12.1783710  64.8474480  37.8971900  13.6505490  65.0755810
  34.2403730  14.3452970  70.6668830  33.4263570  14.7750130  70.9294620
  34.6477930  14.9571380  70.0537880  36.3029170  12.4000660  57.5669100
  36.5778010  13.3079540  57.4388320  36.1139910  12.3363190  58.5031090
  32.7004780   5.4245510  58.8622730  33.1189660   5.2376490  58.0219390
  32.3940840   4.5724560  59.1725660  36.1994510  10.3369650  62.5598530
  35.8238110   9.5697580  62.1279820  35.4697630  10.7192350  63.0473460
  20.7890270  11.0156790  69.1807580  21.1563310  10.9284190  70.0603600
  20.2201090  10.2523340  69.0814440  35.5894130   9.4841170  72.1938050
  35.3580220   9.2553920  71.2936000  35.8498680  10.4040720  72.1482940
  20.3406270   7.9265880  73.0866000  19.4462320   7.8932640  73.4259710
  20.8803820   8.1252670  73.8517250  34.0282200   4.7097600  74.9717750
  34.9052380   4.7181000  75.3551750  34.0403040   3.9728440  74.3610100
  18.9652420   7.8403150  60.5829570  18.0616500   8.1033350  60.4081230
  19.4493040   8.1114320  59.8029530  35.4745470   8.5627140  65.8605770
  35.9982950   8.0689790  65.2295940  36.0604890   8.6977500  66.6053340
  35.6535190   8.6467010  69.3825320  34.7037900   8.6130550  69.4970310
  35.8348200   9.5567120  69.1475090  21.5079630   6.8968690  58.4923950
  22.2171330   6.4751910  58.0071230  20.7919570   6.9643920  57.8607300
  21.1553790   2.9508020  57.5326600  21.8781920   3.4916960  57.8507820
  21.4278310   2.6771440  56.6568140  34.9645440   7.8200490  61.7998180
  35.4604560   7.5871360  62.5847060  34.7661510   6.9812330  61.3835820
  20.8445980   2.2014210  67.4349220  21.4922170   1.6511590  66.9944380
  21.2647820   2.4557360  68.2565030  36.3932600   6.4561440  64.3335860
  36.2831880   6.3017480  65.2718130  37.1540190   5.9282380  64.0911270
  34.7398320   2.3955570  70.7918860  35.3770540   3.0089710  71.1578050
  34.8873210   2.4316230  69.8468090  37.2822870   4.2869360  57.5742000
  38.2072180   4.1550540  57.3660290  37.2598660   4.3662180  58.5278450
  37.3561360   5.0580020  60.1998710  36.5612860   4.9925140  60.7291620
  37.5604640   5.9930660  60.1884060  34.2979780  19.0971570  64.1937100
  34.8938850  18.7756140  63.5171520  34.5557930  18.6243390  64.9850370
  20.5977980   2.3569880  70.1774540  20.2492800   2.8133700  70.9432720
  20.2665680   1.4627010  70.2596970  22.2042350  15.5289480  74.3427730
  22.1611980  15.1582390  75.2242190  22.3353360  16.4667050  74.4829550
  25.9048380  17.0849070  69.9437450  25.6639740  17.3523630  69.0567970
  26.8451020  17.2554800  69.9988310  28.1102800   3.5481760  73.6993960
  28.0491690   4.1403590  74.4489370  29.0503180   3.4407720  73.5544220
  30.7477360   3.2051820  73.3386250  31.3617770   3.5231110  72.6767330
  31.2926920   2.7200410  73.9582110  37.1652540  19.1043450  70.7448090
  36.6710820  19.5012320  70.0275220  36.5565830  18.4792660  71.1385370
  22.0430380  18.4751730  71.4625510  21.4490700  18.3436430  72.2015550
  22.0354220  17.6389870  70.9967610  32.3957380   3.9754830  71.0497260
  32.0670740   3.1606590  70.6698990  33.3439680   3.9324640  70.9262950
  34.8491990  19.7466870  68.0234830  34.3894960  20.4982680  67.6492850
  34.2204450  19.0273340  67.9649630  21.6742610  15.8410110  70.4133550
  20.9476670  15.2215400  70.3459500  21.7351760  16.2350720  69.5431630
  25.2787710  18.0555110  67.1982960  25.7952730  17.4442470  66.6731220
  25.9285090  18.5583890  67.6893970  28.0183210  18.9463600  68.0251940
  28.3061020  18.6917900  67.1484950  28.5306430  18.3940960  68.6157510
  29.2360220   2.6853800  68.6048450  28.4532010   3.1599300  68.8845210
  28.9423150   1.7808630  68.4961630  33.7881290   3.3876900  66.6497540
  34.2289380   3.3322000  65.8019140  33.5188880   4.3034910  66.7207720
  35.6519860   3.0192140  64.6606360  35.5908260   2.0753360  64.5137380
  36.4311890   3.1272230  65.2059820  19.9572610  19.1584500  63.6230310
  19.7894650  18.5255180  64.3212200  19.0907120  19.3643900  63.2724500
  20.5800630   2.9901280  61.1262170  21.3379990   3.1030160  60.5526200
  20.1177800   3.8270480  61.0805600  27.1214440   5.1040550  64.1164480
  26.3088950   4.7297440  63.7760360  27.6256080   4.3485630  64.4185670
  31.6239420   1.7683000  65.3547550  32.2268790   2.3403210  65.8296070
  30.8832410   2.3322440  65.1321450  34.7674020   2.1704560  60.6287830
  34.9624650   3.0688010  60.8955260  33.9803890   1.9391640  61.1220780
  21.5635310  17.8517730  61.0680450  21.0382930  18.2325760  60.3642410
  21.4879890  18.4768500  61.7890160  22.9525780   3.5165330  59.6664140
  23.4818540   2.7295130  59.5372090  23.5854100   4.1956520  59.8999670
  25.1463620   3.2540470  62.7209530  24.5166360   2.5527780  62.8879660
  24.6068760   4.0144600  62.5042690  28.0855570  19.8679700  75.3920140
  29.0122880  19.6323970  75.4356100  28.0706000  20.6951700  74.9106170
  36.3200630  19.4105270  62.3894390  36.4952820  18.7243010  61.7455310
  35.6222200  19.9352320  61.9971060  25.2719180   2.5324450  75.1562020
  24.9903450   3.0358050  74.3922840  25.6538880   1.7346200  74.7904150
  24.1628280  19.8000110  59.9429700  24.8947100  19.5159390  59.3953590
  24.4221950  19.5613390  60.8329080  23.3243070  15.9164840  59.9476030
  22.6951950  16.3849940  60.4961860  23.4390900  15.0714060  60.3822220
  31.8734640   1.9478030  75.7342490  31.7600090   2.2672640  76.6294010
  32.6904380   2.3490540  75.4379770  34.6533130  19.0949560  75.2161180
  35.4458450  18.5998790  75.0087140  34.9466280  19.7739700  75.8236790
  30.7792790   9.9670500  46.0977230  30.6986840   9.0525110  45.8268940
  30.3657210  10.4637570  45.3916940  28.9110830  11.7449520  47.9786500
  28.1352930  11.2649960  48.2685070  29.5623760  11.0655170  47.8042660
  22.9276660  12.0569330  48.8562260  22.0961540  11.8018040  49.2558770
  23.5357640  12.1280100  49.5920180  32.9318260  16.1509710  46.7585630
  32.4699790  15.3796950  47.0872800  33.7443810  16.1775780  47.2638080
  22.9077920  16.0909420  49.0520280  23.2105960  15.2007160  48.8730500
  23.6521510  16.6479640  48.8242530  21.3368610   7.0171220  42.6404650
  20.4485310   7.3587190  42.5384530  21.6209800   6.8171540  41.7485480
  19.3001620   9.6176870  48.5244350  19.8717730   8.8499070  48.5247990
  19.3003160   9.9165630  47.6150960  29.1581570  18.4367720  46.3789620
  28.5393010  18.8925220  45.8084060  30.0133350  18.5919180  45.9779320
  28.3519820  14.4206710  47.9856660  28.2828100  13.4796650  47.8245790
  29.1139680  14.5108120  48.5579230  20.5426490   5.0261230  50.3113280
  20.3629330   4.1286980  50.5916040  20.1406570   5.5733100  50.9860230
  29.3824990   7.2277090  48.2125590  29.7589810   6.3548970  48.0999260
  29.2844500   7.5635790  47.3216030  23.5130000   5.6002720  43.6743030
  23.6196750   6.5006450  43.9811790  22.6022360   5.5520690  43.3837680
  33.1649110   4.7227530  45.1453930  33.9858730   4.2324100  45.1879410
  33.1983190   5.3125190  45.8985770  21.1613160   7.5221730  48.9195620
  21.8423270   7.7860100  49.5383020  20.8461210   6.6822600  49.2533630
  25.3537730   8.5689090  48.0068210  25.8615950   9.0670060  48.6473230
  25.8850970   7.7924290  47.8307570  37.4548660   6.7394280  51.7097560
  36.7500830   7.1275990  51.1912670  37.7206580   7.4344570  52.3118490
  23.6373830   3.2087650  52.2731630  23.6392270   3.7260040  51.4677530
  22.8078140   2.7317830  52.2501560  30.0244920  13.3206960  43.7721530
  29.4062190  13.7856410  43.2084250  30.5368170  14.0134440  44.1891040
  24.8876680  12.8482830  50.4505130  24.5546060  13.4751750  51.0926200
  25.0643360  13.3744710  49.6706800  33.4010590   6.6627910  47.9181470
  32.6966160   6.9512800  48.4984580  33.7622750   7.4728020  47.5581030
  23.3189160   4.9197610  50.2802080  23.6605970   5.7639660  49.9855950
  22.3804970   5.0681350  50.3967420  24.0995780  14.8163630  52.2654310
  24.7169780  15.4914710  51.9838760  23.2388900  15.2251610  52.1741810
  19.3928120  14.0063490  41.1461160  19.0156100  14.4950590  40.4146060
  19.6501190  14.6788770  41.7767690  35.0173370  16.2803040  50.1808950
  34.3336890  16.9502150  50.1725620  35.5567660  16.4783690  49.4153810
  36.4697510   6.1082700  48.3090680  35.5222420   6.1421680  48.4406110
  36.7947500   6.9221650  48.6940040  27.0017050   2.4079880  46.6046670
  27.3092030   1.8526770  45.8882170  26.0717750   2.5424340  46.4219660
  32.5532110  18.1247170  48.8954130  32.5659270  17.7209460  48.0276390
  32.0007330  18.8994460  48.7915560  33.8477530  14.8463390  43.9844300
  33.7373860  13.9037720  44.1093720  33.8445780  15.2079030  44.8707060
  31.9517550  13.0277010  50.2236740  32.3686340  12.8137120  49.3890200
  32.6757370  13.2849800  50.7945360  29.3897810  10.4728710  43.3406790
  28.4627090  10.4066090  43.5695260  29.5422630  11.4108840  43.2262030
  29.3766890   6.7445710  40.3373950  28.4370560   6.9059670  40.4226410
  29.6950150   7.4631390  39.7909940  35.8979650  11.4264230  50.3152980
  35.0698280  11.4957320  49.8403110  36.4930130  12.0118540  49.8468810
  33.4195100  12.0349010  43.8442040  32.8007520  11.6968560  43.1968340
  33.4019550  11.3908770  44.5521230  32.8621660   8.2133550  51.2607850
  32.4492840   9.0387260  51.5147840  32.1297610   7.6278590  51.0684210
  24.9954450  10.9993450  46.1226520  24.5911450  10.2870700  45.6272420
  25.0817570  10.6546690  47.0114560  25.4636150  14.6861010  48.2865730
  25.1664440  14.0806480  47.6073510  26.4135970  14.7238320  48.1755090
  23.7083070   7.7736660  49.9025560  24.2597660   7.8832000  49.1278810
  24.2226580   8.1474260  50.6180790  33.5521760  18.2592880  51.9488830
  33.0752320  19.0665070  51.7561440  32.8683550  17.6071210  52.1015040
  24.5554580  14.4242700  54.9373530  23.6583110  14.6482670  55.1846930
  24.5807450  14.5477640  53.9884930  31.5959800  11.2735820  40.8514790
  32.0353080  10.4358250  40.7052610  32.3088220  11.9065220  40.9378930
  23.3825800  11.2956020  53.5130900  23.2433570  12.1678820  53.8818300
  22.5007160  10.9528830  53.3678840  29.7055180  16.2131890  44.8196030
  30.1451090  16.9556220  44.4051420  29.6442070  16.4558460  45.7434990
  25.1806150  17.2377720  55.7216050  25.1521580  17.6420670  54.8544480
  25.0171120  16.3088080  55.5587650  35.1776940   2.5278630  39.1655830
  34.8649600   2.6205460  40.0654900  35.9389410   3.1059660  39.1153260
  21.6959080   9.8938430  43.6233170  21.5756680  10.6200520  43.0114440
  21.3859970   9.1241340  43.1461080  37.1320970  18.0204820  57.0180220
  37.6080690  18.4987710  57.6969300  37.7528130  17.9522310  56.2925720
  19.3344450  13.0653570  49.4301810  19.4124870  13.2002340  48.4857530
  19.9486130  12.3569460  49.6229930  20.5792080  14.7653760  45.8407990
  20.1720160  14.9068350  44.9861590  21.4705090  14.4813920  45.6379200
  36.5354220  15.2117670  54.1780230  36.6617280  14.9729550  53.2597410
  36.5775600  14.3802210  54.6502310  30.3970960  18.9145670  52.7475040
  30.9115630  18.8253680  53.5497470  29.5540040  19.2605370  53.0402950
  32.3725360  19.2001010  42.1759040  32.2126500  18.9103950  43.0740870
  32.2072070  18.4241140  41.6404270  24.8513740  18.9799540  43.9530660
  24.6756220  18.0635080  43.7398460  23.9969480  19.3386830  44.1928460
  32.0751490  16.7088570  40.7357040  31.3816650  16.7065860  40.0759320
  32.8174350  16.2847890  40.3051210  31.6401420  18.3351280  44.8105530
  32.0958370  17.5540660  45.1244150  31.9793940  19.0458100  45.3546710
  36.3878230   7.2650130  55.1429970  35.7722500   7.7729800  54.6145430
  36.0674650   6.3648460  55.0855910  19.3903970  14.1067740  51.9696270
  19.5535010  13.6373100  51.1515640  19.8556420  13.5991300  52.6345110
  24.1622740   3.2373500  47.0056840  23.7190890   4.0183040  46.6741360
  24.7207730   3.5603390  47.7127780  28.4492550   6.1042020  52.6092160
  27.9871920   6.3125040  53.4212100  28.0470660   5.2901370  52.3062830
  33.4497060   7.3250970  53.7388820  32.5990650   7.0256720  54.0597890
  33.2898850   7.5692980  52.8272640  30.5446770   8.8252720  55.8387610
  30.8700180   7.9916470  55.4989840  31.3327100   9.3481240  55.9865940
  27.2781560   2.8584200  41.8862670  26.6535740   2.8544070  42.6115980
  27.1911680   1.9915160  41.4898640  26.1998640   3.7820830  48.8646440
  26.4970970   4.6883660  48.7838460  26.7484200   3.2939610  48.2506010
  23.9536960   8.3607070  44.7338090  23.7277880   8.1444240  45.6384710
  23.1729490   8.7935530  44.3884060  31.1834720   8.3670440  43.3328740
  30.5843610   9.0906240  43.1492360  31.7314330   8.3047220  42.5505190
  26.3936170   9.2592650  55.3998360  26.2979770   8.3187380  55.2498760
  27.2368150   9.4807720  55.0046430  29.7899590   7.0033980  45.3632020
  30.1829160   7.3206180  44.5500710  30.1516440   6.1245860  45.4776540
  21.5246710   5.6706320  53.5532140  21.1310100   6.5181530  53.7604920
  20.8365110   5.0332690  53.7440780  28.0991760   5.7541290  56.6228880
  27.4090080   5.5613490  57.2574970  28.8424060   6.0375930  57.1553180
  18.8263760   3.5934780  47.5862220  18.5376810   4.1637640  48.2987200
  19.5709520   3.1139230  47.9493450  19.0133990   7.5354900  38.7964940
  18.9308660   8.4785660  38.9379930  18.6617050   7.3929810  37.9177290
  30.3754730   9.5939730  49.4582800  29.6435850  10.1026540  49.8072900
  29.9779070   8.7769710  49.1571580  26.8132120   6.2693930  47.8635290
  26.8168180   5.8283880  47.0139830  27.7083240   6.5911260  47.9707110
  22.6634500   6.1520420  46.8229500  22.3234550   6.6295650  47.5796550
  21.9011820   5.6985540  46.4630600  26.8752270   7.2706010  40.8542050
  26.9965090   7.2292490  41.8027870  26.4900780   8.1330160  40.6988780
  30.8380640   5.0473410  48.8705740  30.8553380   5.4982060  49.7147590
  30.5896220   4.1479050  49.0839180  25.8873770   9.5807150  40.2525350
  25.3190670   9.1325400  39.6261260  26.5962770   9.9399930  39.7190500
  34.2651390   2.4605590  54.7092120  34.5897160   1.7295250  55.2350100
  34.3007900   2.1419230  53.8073110  20.9642950  13.4819170  54.1292080
  20.5797740  12.8412840  54.7275040  21.2755140  14.1855290  54.6986810
  27.1140090  10.3295710  49.6100700  27.4810220   9.8554280  50.3562040
  26.9245150  11.2037280  49.9509040  19.9780580   5.0739400  45.7394170
  19.6927500   4.7095070  46.5772790  19.9159440   4.3419860  45.1257310
  24.9039460   9.3704350  51.9284910  24.5996530  10.2496330  52.1535270
  25.8585920   9.4304140  51.9642350  23.4321250  13.5765340  42.5251760
  22.6583510  13.0362960  42.3650480  24.1615880  13.0571950  42.1869520
  34.1909230  12.5730700  48.3178150  34.9108350  13.0685990  47.9274260
  33.9891050  11.8948590  47.6732020  29.6519170   3.9668660  42.4607540
  28.8383780   3.4681830  42.3852850  29.4581120   4.8066910  42.0443890
  29.5728030  12.6439760  54.2047150  29.5065340  11.7235430  53.9504740
  28.9433170  12.7415200  54.9191790  32.3667560   8.3388310  40.7569700
  33.2547180   8.6505540  40.5821040  32.3372650   7.4660560  40.3650280
  23.4758650  13.2445720  46.1630570  23.9937320  12.4413980  46.1087460
  23.0242670  13.1824860  47.0047400  28.3628150  14.5112000  41.4357870
  28.7043850  15.2554230  40.9401190  27.5340860  14.8243120  41.7982700
  20.9603190  10.2107090  53.0756270  20.6018130  10.8760940  53.6629610
  20.6657750   9.3790640  53.4468890  24.1616310  10.6691330  55.9595820
  23.8616450  10.8148510  55.0623640  24.9327550  10.1096620  55.8669210
  29.5044760  15.4660330  53.9550950  29.5189300  14.5341290  53.7369860
  28.7969860  15.5520090  54.5940720  34.6381830   9.6500150  40.2249560
  34.5545550  10.0814370  39.3746000  35.3576020  10.1098500  40.6576380
  35.7155970  12.1067670  53.3019530  34.9904160  12.6996450  53.1048920
  36.2431430  12.0991210  52.5032900  35.6669080  16.5042410  42.9531690
  35.0245240  15.8498030  43.2275410  35.2799740  16.9097500  42.1772360
  31.2455560  13.8327840  46.8003380  31.5979380  13.2355970  46.1404750
  30.3617890  13.5072070  46.9711630  27.3318840  14.5925530  44.2073790
  28.0189970  15.1394740  44.5881380  26.5451260  15.1366260  44.2423400
  19.4711240  10.2098350  39.6990870  20.3406090  10.4923150  39.9826790
  18.9801560  11.0234220  39.5839680  26.6346050  11.5971560  43.8199150
  27.0908830  12.4076810  44.0459340  26.2834260  11.2794700  44.6517640
  28.9378660  17.1077900  51.0491450  29.5820880  17.3137280  51.7264870
  29.3008100  16.3466300  50.5962300  22.5357830   1.9409210  44.2921670
  22.4072460   1.9327110  45.2406590  21.7119850   2.2792300  43.9412680
  30.2110740  15.1110250  49.7668900  30.8532970  14.4103410  49.8801070
  30.7360090  15.8908690  49.5865790  34.0566460  15.3958870  39.4908040
  33.8304040  14.6789310  40.0832680  33.6662660  15.1471310  38.6529790
  31.9848360  15.9105150  52.9704960  32.3204600  16.4971840  53.6482880
  31.0648700  15.7797860  53.2002750  19.8382490  19.4225730  40.2652500
  20.1980130  20.0215070  39.6109770  19.6974830  19.9685620  41.0387530
  19.5351760   3.7000330  53.7528370  18.8210280   3.8997250  54.3580980
  19.9546800   2.9239900  54.1243170  33.6382710  13.3130810  41.1522200
  33.3504410  13.7743500  41.9400080  34.4334880  12.8528580  41.4206420
  19.8224350  17.6880590  54.7394900  19.9315470  16.7475330  54.5990290
  19.1704910  17.9535340  54.0908630  27.8136940  15.9596480  56.1393020
  27.4933810  15.2405720  56.6838710  27.1395300  16.6351550  56.2129080
  25.8551110  16.8056930  41.0826170  25.8461210  17.5386620  40.4670680
  24.9349470  16.5588510  41.1753130  21.4557750  12.0271820  41.8272930
  20.8485700  12.7670720  41.8368230  21.9307100  12.1171180  41.0011130
  31.0290540   6.1922640  51.5029820  31.3971360   5.3717850  51.8309390
  30.1688740   6.2524530  51.9185470  34.3952570   5.1479580  42.3117380
  33.7665730   5.2525250  41.5975610  33.9004490   5.3676360  43.1011260
  28.8410710  16.8685170  39.7451360  28.9422690  16.6649160  38.8153340
  27.9412450  16.6143450  39.9499140  26.3636600   7.4265530  43.7275260
  25.6552750   7.8951870  44.1688870  26.6481080   6.7687540  44.3620450
  27.9892530   8.8462230  51.7267790  28.4877780   9.3208050  52.3919640
  28.1315480   7.9225750  51.9337820  30.3952030   4.1516190  45.1671050
  30.2719810   4.1702320  44.2180560  31.3436590   4.1995130  45.2869450
  27.4828820  19.3871490  44.4399030  27.7370320  19.3492880  43.5178400
  26.5341300  19.2604820  44.4327280  24.5671620   5.7350610  41.1025970
  25.4162150   6.1720760  41.0366160  24.2002890   6.0470870  41.9298030
  35.1959390   5.0630190  52.5696180  34.6932990   5.8035590  52.9089990
  36.0116050   5.4514190  52.2532970  33.4881400  10.3063370  46.0157540
  32.5471540  10.3213600  46.1905230  33.8025470   9.5199330  46.4617840
  23.4663040  11.9882970  39.5761500  24.2326310  11.8764330  40.1386930
  23.5437730  11.2920940  38.9238270  22.1609800   9.4208040  40.2594390
  22.2413390   8.4735550  40.3711790  23.0529550   9.7514920  40.3655050
  35.4906980  17.4772220  47.6911800  35.6154400  18.3003390  48.1635610
  36.3572540  17.2662950  47.3435950  22.9624510  19.5703430  47.3628930
  23.6986990  19.0218890  47.6337500  23.3465430  20.4359440  47.2234920
  19.8469990  15.6377000  43.2370440  18.9209770  15.8798140  43.2275850
  20.3126420  16.4651260  43.1155190  21.9682790  18.7549500  56.5514510
  22.7695520  19.0761550  56.9649910  21.4534610  18.3945080  57.2734420
  26.0726820  18.7433740  39.1854500  26.8655430  19.0322570  38.7336290
  25.5531170  18.3125910  38.5066980  30.8047420  14.8629370  56.4989920
  30.1985580  14.8860970  55.7585670  30.5001530  14.1312410  57.0357170
  32.2347790  18.5909660  55.1099330  33.1869540  18.5067680  55.0599570
  32.0876010  19.2551370  55.7833120  35.1256990  17.9703870  40.6091240
  34.8398500  17.5569010  39.7945420  34.9276540  18.8991580  40.4891760
  19.6880600  11.2422960  55.4950560  20.1919620  10.6630240  56.0666790
  18.9488020  11.5263190  56.0326930  26.5904220  13.9637150  39.0496850
  26.4854860  13.3489500  39.7758230  26.4228440  13.4403040  38.2659860
  26.7418540  12.6493950  55.0286080  25.9764210  13.2178950  54.9440750
  26.9234500  12.3570160  54.1354310  29.8306950  13.0257180  39.6538840
  29.2817050  13.4726480  40.2981580  30.4526210  12.5206430  40.1776510
  33.8841890  14.3799280  55.5861100  34.6251360  14.7175040  55.0828560
  33.1214570  14.5491340  55.0330870  21.7203680   9.3852550  56.3900630
  21.7609020   9.0866420  57.2985860  22.5749180   9.7860160  56.2308150
  25.4982070  11.9848100  41.5504140  25.9198490  11.8187970  42.3935530
  25.6232910  11.1748330  41.0559280  23.6609490   7.9644650  54.3575120
  23.1305950   7.4735600  53.7298460  24.3297560   8.3928850  53.8233050
  28.0109710  11.0085710  38.7981240  28.5315370  10.2934730  38.4322390
  28.6578110  11.6471580  39.0981750  32.5587550  12.4314110  54.1216310
  32.9728570  12.5859190  54.9706730  31.6238550  12.5569330  54.2842090
  33.0309720   9.7710270  56.1255460  33.6130490   9.0162590  56.0375940
  33.2071490  10.3017710  55.3486940  24.1481790   4.9307020  54.4372410
  24.0538660   4.3127770  53.7123280  23.5679180   5.6573310  54.2102320
  26.9143230   3.4880260  51.4699800  26.4660530   3.5104520  50.6245350
  26.2808430   3.0899280  52.0670100  27.3202780  12.3834590  52.0912240
  27.7390890  13.2267320  51.9188480  26.4011410  12.5206630  51.8619020
  29.6566680  10.1150770  53.4750080  29.7762890   9.5191910  54.2144920
  30.5160680  10.1520460  53.0551380  31.9954580  10.6687960  52.0512590
  31.4689800  11.1930580  51.4477730  32.3385920  11.3015350  52.6822320
  24.3940970   8.0581330  38.4962300  24.1930030   7.1948690  38.8575640
  24.2233020   7.9714690  37.5583900  25.1710200  18.6887600  53.2069970
  24.6331290  19.4133660  52.8878670  25.4244160  18.2117940  52.4167310
  26.4235450   6.6572120  54.7325900  27.0135140   6.3487970  55.4203720
  25.6055690   6.1851870  54.8885800  31.2428880   6.2737930  54.9658920
  30.5544400   5.6119470  54.9008910  31.9634900   5.8276200  55.4107380
  31.8729280   2.8689560  41.0249180  32.1531570   2.0257460  41.3808600
  31.0995010   3.1012670  41.5387930  23.1923770   5.1581950  38.4840180
  23.4949670   5.1649380  37.5759330  23.9318360   4.8079810  38.9807840
  28.0272410  19.9238810  53.4656620  27.9531110  20.8273950  53.7728990
  27.1251250  19.6050710  53.4378690  26.4108700   4.1016570  39.4696380
  26.0630700   3.4240560  38.8898830  26.6121470   3.6406080  40.2839770
  28.5757740  19.0897320  41.0882980  29.4708530  19.4282290  41.1101740
  28.6075370  18.3676730  40.4607260  22.2153900  14.4624370  39.3169980
  22.6528770  15.0054040  39.9727560  22.7001630  13.6371320  39.3266320
  19.4299700  17.2513400  46.7690240  19.7602710  16.3834460  46.5368880
  19.8590700  17.4571920  47.5995200  24.0261620  15.5822410  44.4292210
  23.7257160  15.4587380  45.3296120  23.9199110  14.7231000  44.0207940
  19.9189910  18.1183990  49.5071870  19.4820900  18.2984790  50.3396020
  20.4867590  18.8758610  49.3653590  35.5552090  17.6200990  53.7949180
  34.9554080  17.6793550  53.0513100  35.6845990  16.6805970  53.9246030
  36.7953540  15.3618810  39.1318890  35.9646500  15.4295460  39.6026120
  36.9725370  16.2522930  38.8285750  36.2510000  12.1066290  41.6353090
  37.0128910  12.6762940  41.7412780  36.2664370  11.5393490  42.4061400
  19.7514340  10.6304220  45.8660750  19.0963180  10.3615860  45.2220450
  20.5892290  10.5208700  45.4162730  37.2569970  12.9616390  46.4795020
  37.6278800  12.1783710  46.0730990  37.8971900  13.6505490  46.3012320
  34.2403730  14.3452970  51.8925340  33.4263570  14.7750130  52.1551130
  34.6477930  14.9571380  51.2794390  36.3029170  12.4000660  38.7925610
  36.5778010  13.3079540  38.6644830  36.1139910  12.3363190  39.7287600
  32.7004780   5.4245510  40.0879240  33.1189660   5.2376490  39.2475900
  32.3940840   4.5724560  40.3982170  36.1994510  10.3369650  43.7855040
  35.8238110   9.5697580  43.3536330  35.4697630  10.7192350  44.2729970
  20.7890270  11.0156790  50.4064090  21.1563310  10.9284190  51.2860110
  20.2201090  10.2523340  50.3070950  35.5894130   9.4841170  53.4194560
  35.3580220   9.2553920  52.5192510  35.8498680  10.4040720  53.3739450
  20.3406270   7.9265880  54.3122510  19.4462320   7.8932640  54.6516220
  20.8803820   8.1252670  55.0773760  34.0282200   4.7097600  56.1974260
  34.9052380   4.7181000  56.5808260  34.0403040   3.9728440  55.5866610
  18.9652420   7.8403150  41.8086080  18.0616500   8.1033350  41.6337740
  19.4493040   8.1114320  41.0286040  35.4745470   8.5627140  47.0862280
  35.9982950   8.0689790  46.4552450  36.0604890   8.6977500  47.8309850
  35.6535190   8.6467010  50.6081830  34.7037900   8.6130550  50.7226820
  35.8348200   9.5567120  50.3731600  21.5079630   6.8968690  39.7180460
  22.2171330   6.4751910  39.2327740  20.7919570   6.9643920  39.0863810
  21.1553790   2.9508020  38.7583110  21.8781920   3.4916960  39.0764330
  21.4278310   2.6771440  37.8824650  34.9645440   7.8200490  43.0254690
  35.4604560   7.5871360  43.8103570  34.7661510   6.9812330  42.6092330
  20.8445980   2.2014210  48.6605730  21.4922170   1.6511590  48.2200890
  21.2647820   2.4557360  49.4821540  36.3932600   6.4561440  45.5592370
  36.2831880   6.3017480  46.4974640  37.1540190   5.9282380  45.3167780
  34.7398320   2.3955570  52.0175370  35.3770540   3.0089710  52.3834560
  34.8873210   2.4316230  51.0724600  37.2822870   4.2869360  38.7998510
  38.2072180   4.1550540  38.5916800  37.2598660   4.3662180  39.7534960
  37.3561360   5.0580020  41.4255220  36.5612860   4.9925140  41.9548130
  37.5604640   5.9930660  41.4140570  34.2979780  19.0971570  45.4193610
  34.8938850  18.7756140  44.7428030  34.5557930  18.6243390  46.2106880
  20.5977980   2.3569880  51.4031050  20.2492800   2.8133700  52.1689230
  20.2665680   1.4627010  51.4853480  22.2042350  15.5289480  55.5684240
  22.1611980  15.1582390  56.4498700  22.3353360  16.4667050  55.7086060
  25.9048380  17.0849070  51.1693960  25.6639740  17.3523630  50.2824480
  26.8451020  17.2554800  51.2244820  28.1102800   3.5481760  54.9250470
  28.0491690   4.1403590  55.6745880  29.0503180   3.4407720  54.7800730
  30.7477360   3.2051820  54.5642760  31.3617770   3.5231110  53.9023840
  31.2926920   2.7200410  55.1838620  37.1652540  19.1043450  51.9704600
  36.6710820  19.5012320  51.2531730  36.5565830  18.4792660  52.3641880
  22.0430380  18.4751730  52.6882020  21.4490700  18.3436430  53.4272060
  22.0354220  17.6389870  52.2224120  32.3957380   3.9754830  52.2753770
  32.0670740   3.1606590  51.8955500  33.3439680   3.9324640  52.1519460
  34.8491990  19.7466870  49.2491340  34.3894960  20.4982680  48.8749360
  34.2204450  19.0273340  49.1906140  21.6742610  15.8410110  51.6390060
  20.9476670  15.2215400  51.5716010  21.7351760  16.2350720  50.7688140
  25.2787710  18.0555110  48.4239470  25.7952730  17.4442470  47.8987730
  25.9285090  18.5583890  48.9150480  28.0183210  18.9463600  49.2508450
  28.3061020  18.6917900  48.3741460  28.5306430  18.3940960  49.8414020
  29.2360220   2.6853800  49.8304960  28.4532010   3.1599300  50.1101720
  28.9423150   1.7808630  49.7218140  33.7881290   3.3876900  47.8754050
  34.2289380   3.3322000  47.0275650  33.5188880   4.3034910  47.9464230
  35.6519860   3.0192140  45.8862870  35.5908260   2.0753360  45.7393890
  36.4311890   3.1272230  46.4316330  19.9572610  19.1584500  44.8486820
  19.7894650  18.5255180  45.5468710  19.0907120  19.3643900  44.4981010
  20.5800630   2.9901280  42.3518680  21.3379990   3.1030160  41.7782710
  20.1177800   3.8270480  42.3062110  27.1214440   5.1040550  45.3420990
  26.3088950   4.7297440  45.0016870  27.6256080   4.3485630  45.6442180
  31.6239420   1.7683000  46.5804060  32.2268790   2.3403210  47.0552580
  30.8832410   2.3322440  46.3577960  34.7674020   2.1704560  41.8544340
  34.9624650   3.0688010  42.1211770  33.9803890   1.9391640  42.3477290
  21.5635310  17.8517730  42.2936960  21.0382930  18.2325760  41.5898920
  21.4879890  18.4768500  43.0146670  22.9525780   3.5165330  40.8920650
  23.4818540   2.7295130  40.7628600  23.5854100   4.1956520  41.1256180
  25.1463620   3.2540470  43.9466040  24.5166360   2.5527780  44.1136170
  24.6068760   4.0144600  43.7299200  28.0855570  19.8679700  56.6176650
  29.0122880  19.6323970  56.6612610  28.0706000  20.6951700  56.1362680
  36.3200630  19.4105270  43.6150900  36.4952820  18.7243010  42.9711820
  35.6222200  19.9352320  43.2227570  25.2719180   2.5324450  56.3818530
  24.9903450   3.0358050  55.6179350  25.6538880   1.7346200  56.0160660
  24.1628280  19.8000110  41.1686210  24.8947100  19.5159390  40.6210100
  24.4221950  19.5613390  42.0585590  23.3243070  15.9164840  41.1732540
  22.6951950  16.3849940  41.7218370  23.4390900  15.0714060  41.6078730
  31.8734640   1.9478030  56.9599000  31.7600090   2.2672640  57.8550520
  32.6904380   2.3490540  56.6636280  34.6533130  19.0949560  56.4417690
  35.4458450  18.5998790  56.2343650  34.9466280  19.7739700  57.0493300
  30.7792790   9.9670500  27.3233740  30.6986840   9.0525110  27.0525450
  30.3657210  10.4637570  26.6173450  28.9110830  11.7449520  29.2043010
  28.1352930  11.2649960  29.4941580  29.5623760  11.0655170  29.0299170
  22.9276660  12.0569330  30.0818770  22.0961540  11.8018040  30.4815280
  23.5357640  12.1280100  30.8176690  32.9318260  16.1509710  27.9842140
  32.4699790  15.3796950  28.3129310  33.7443810  16.1775780  28.4894590
  22.9077920  16.0909420  30.2776790  23.2105960  15.2007160  30.0987010
  23.6521510  16.6479640  30.0499040  21.3368610   7.0171220  23.8661160
  20.4485310   7.3587190  23.7641040  21.6209800   6.8171540  22.9741990
  19.3001620   9.6176870  29.7500860  19.8717730   8.8499070  29.7504500
  19.3003160   9.9165630  28.8407470  29.1581570  18.4367720  27.6046130
  28.5393010  18.8925220  27.0340570  30.0133350  18.5919180  27.2035830
  28.3519820  14.4206710  29.2113170  28.2828100  13.4796650  29.0502300
  29.1139680  14.5108120  29.7835740  20.5426490   5.0261230  31.5369790
  20.3629330   4.1286980  31.8172550  20.1406570   5.5733100  32.2116740
  29.3824990   7.2277090  29.4382100  29.7589810   6.3548970  29.3255770
  29.2844500   7.5635790  28.5472540  23.5130000   5.6002720  24.8999540
  23.6196750   6.5006450  25.2068300  22.6022360   5.5520690  24.6094190
  33.1649110   4.7227530  26.3710440  33.9858730   4.2324100  26.4135920
  33.1983190   5.3125190  27.1242280  21.1613160   7.5221730  30.1452130
  21.8423270   7.7860100  30.7639530  20.8461210   6.6822600  30.4790140
  25.3537730   8.5689090  29.2324720  25.8615950   9.0670060  29.8729740
  25.8850970   7.7924290  29.0564080  37.4548660   6.7394280  32.9354070
  36.7500830   7.1275990  32.4169180  37.7206580   7.4344570  33.5375000
  23.6373830   3.2087650  33.4988140  23.6392270   3.7260040  32.6934040
  22.8078140   2.7317830  33.4758070  30.0244920  13.3206960  24.9978040
  29.4062190  13.7856410  24.4340760  30.5368170  14.0134440  25.4147550
  24.8876680  12.8482830  31.6761640  24.5546060  13.4751750  32.3182710
  25.0643360  13.3744710  30.8963310  33.4010590   6.6627910  29.1437980
  32.6966160   6.9512800  29.7241090  33.7622750   7.4728020  28.7837540
  23.3189160   4.9197610  31.5058590  23.6605970   5.7639660  31.2112460
  22.3804970   5.0681350  31.6223930  24.0995780  14.8163630  33.4910820
  24.7169780  15.4914710  33.2095270  23.2388900  15.2251610  33.3998320
  19.3928120  14.0063490  22.3717670  19.0156100  14.4950590  21.6402570
  19.6501190  14.6788770  23.0024200  35.0173370  16.2803040  31.4065460
  34.3336890  16.9502150  31.3982130  35.5567660  16.4783690  30.6410320
  36.4697510   6.1082700  29.5347190  35.5222420   6.1421680  29.6662620
  36.7947500   6.9221650  29.9196550  27.0017050   2.4079880  27.8303180
  27.3092030   1.8526770  27.1138680  26.0717750   2.5424340  27.6476170
  32.5532110  18.1247170  30.1210640  32.5659270  17.7209460  29.2532900
  32.0007330  18.8994460  30.0172070  33.8477530  14.8463390  25.2100810
  33.7373860  13.9037720  25.3350230  33.8445780  15.2079030  26.0963570
  31.9517550  13.0277010  31.4493250  32.3686340  12.8137120  30.6146710
  32.6757370  13.2849800  32.0201870  29.3897810  10.4728710  24.5663300
  28.4627090  10.4066090  24.7951770  29.5422630  11.4108840  24.4518540
  29.3766890   6.7445710  21.5630460  28.4370560   6.9059670  21.6482920
  29.6950150   7.4631390  21.0166450  35.8979650  11.4264230  31.5409490
  35.0698280  11.4957320  31.0659620  36.4930130  12.0118540  31.0725320
  33.4195100  12.0349010  25.0698550  32.8007520  11.6968560  24.4224850
  33.4019550  11.3908770  25.7777740  32.8621660   8.2133550  32.4864360
  32.4492840   9.0387260  32.7404350  32.1297610   7.6278590  32.2940720
  24.9954450  10.9993450  27.3483030  24.5911450  10.2870700  26.8528930
  25.0817570  10.6546690  28.2371070  25.4636150  14.6861010  29.5122240
  25.1664440  14.0806480  28.8330020  26.4135970  14.7238320  29.4011600
  23.7083070   7.7736660  31.1282070  24.2597660   7.8832000  30.3535320
  24.2226580   8.1474260  31.8437300  33.5521760  18.2592880  33.1745340
  33.0752320  19.0665070  32.9817950  32.8683550  17.6071210  33.3271550
  24.5554580  14.4242700  36.1630040  23.6583110  14.6482670  36.4103440
  24.5807450  14.5477640  35.2141440  31.5959800  11.2735820  22.0771300
  32.0353080  10.4358250  21.9309120  32.3088220  11.9065220  22.1635440
  23.3825800  11.2956020  34.7387410  23.2433570  12.1678820  35.1074810
  22.5007160  10.9528830  34.5935350  29.7055180  16.2131890  26.0452540
  30.1451090  16.9556220  25.6307930  29.6442070  16.4558460  26.9691500
  25.1806150  17.2377720  36.9472560  25.1521580  17.6420670  36.0800990
  25.0171120  16.3088080  36.7844160  35.1776940   2.5278630  20.3912340
  34.8649600   2.6205460  21.2911410  35.9389410   3.1059660  20.3409770
  21.6959080   9.8938430  24.8489680  21.5756680  10.6200520  24.2370950
  21.3859970   9.1241340  24.3717590  37.1320970  18.0204820  38.2436730
  37.6080690  18.4987710  38.9225810  37.7528130  17.9522310  37.5182230
  19.3344450  13.0653570  30.6558320  19.4124870  13.2002340  29.7114040
  19.9486130  12.3569460  30.8486440  20.5792080  14.7653760  27.0664500
  20.1720160  14.9068350  26.2118100  21.4705090  14.4813920  26.8635710
  36.5354220  15.2117670  35.4036740  36.6617280  14.9729550  34.4853920
  36.5775600  14.3802210  35.8758820  30.3970960  18.9145670  33.9731550
  30.9115630  18.8253680  34.7753980  29.5540040  19.2605370  34.2659460
  32.3725360  19.2001010  23.4015550  32.2126500  18.9103950  24.2997380
  32.2072070  18.4241140  22.8660780  24.8513740  18.9799540  25.1787170
  24.6756220  18.0635080  24.9654970  23.9969480  19.3386830  25.4184970
  32.0751490  16.7088570  21.9613550  31.3816650  16.7065860  21.3015830
  32.8174350  16.2847890  21.5307720  31.6401420  18.3351280  26.0362040
  32.0958370  17.5540660  26.3500660  31.9793940  19.0458100  26.5803220
  36.3878230   7.2650130  36.3686480  35.7722500   7.7729800  35.8401940
  36.0674650   6.3648460  36.3112420  19.3903970  14.1067740  33.1952780
  19.5535010  13.6373100  32.3772150  19.8556420  13.5991300  33.8601620
  24.1622740   3.2373500  28.2313350  23.7190890   4.0183040  27.8997870
  24.7207730   3.5603390  28.9384290  28.4492550   6.1042020  33.8348670
  27.9871920   6.3125040  34.6468610  28.0470660   5.2901370  33.5319340
  33.4497060   7.3250970  34.9645330  32.5990650   7.0256720  35.2854400
  33.2898850   7.5692980  34.0529150  30.5446770   8.8252720  37.0644120
  30.8700180   7.9916470  36.7246350  31.3327100   9.3481240  37.2122450
  27.2781560   2.8584200  23.1119180  26.6535740   2.8544070  23.8372490
  27.1911680   1.9915160  22.7155150  26.1998640   3.7820830  30.0902950
  26.4970970   4.6883660  30.0094970  26.7484200   3.2939610  29.4762520
  23.9536960   8.3607070  25.9594600  23.7277880   8.1444240  26.8641220
  23.1729490   8.7935530  25.6140570  31.1834720   8.3670440  24.5585250
  30.5843610   9.0906240  24.3748870  31.7314330   8.3047220  23.7761700
  26.3936170   9.2592650  36.6254870  26.2979770   8.3187380  36.4755270
  27.2368150   9.4807720  36.2302940  29.7899590   7.0033980  26.5888530
  30.1829160   7.3206180  25.7757220  30.1516440   6.1245860  26.7033050
  21.5246710   5.6706320  34.7788650  21.1310100   6.5181530  34.9861430
  20.8365110   5.0332690  34.9697290  28.0991760   5.7541290  37.8485390
  27.4090080   5.5613490  38.4831480  28.8424060   6.0375930  38.3809690
  18.8263760   3.5934780  28.8118730  18.5376810   4.1637640  29.5243710
  19.5709520   3.1139230  29.1749960  19.0133990   7.5354900  20.0221450
  18.9308660   8.4785660  20.1636440  18.6617050   7.3929810  19.1433800
  30.3754730   9.5939730  30.6839310  29.6435850  10.1026540  31.0329410
  29.9779070   8.7769710  30.3828090  26.8132120   6.2693930  29.0891800
  26.8168180   5.8283880  28.2396340  27.7083240   6.5911260  29.1963620
  22.6634500   6.1520420  28.0486010  22.3234550   6.6295650  28.8053060
  21.9011820   5.6985540  27.6887110  26.8752270   7.2706010  22.0798560
  26.9965090   7.2292490  23.0284380  26.4900780   8.1330160  21.9245290
  30.8380640   5.0473410  30.0962250  30.8553380   5.4982060  30.9404100
  30.5896220   4.1479050  30.3095690  25.8873770   9.5807150  21.4781860
  25.3190670   9.1325400  20.8517770  26.5962770   9.9399930  20.9447010
  34.2651390   2.4605590  35.9348630  34.5897160   1.7295250  36.4606610
  34.3007900   2.1419230  35.0329620  20.9642950  13.4819170  35.3548590
  20.5797740  12.8412840  35.9531550  21.2755140  14.1855290  35.9243320
  27.1140090  10.3295710  30.8357210  27.4810220   9.8554280  31.5818550
  26.9245150  11.2037280  31.1765550  19.9780580   5.0739400  26.9650680
  19.6927500   4.7095070  27.8029300  19.9159440   4.3419860  26.3513820
  24.9039460   9.3704350  33.1541420  24.5996530  10.2496330  33.3791780
  25.8585920   9.4304140  33.1898860  23.4321250  13.5765340  23.7508270
  22.6583510  13.0362960  23.5906990  24.1615880  13.0571950  23.4126030
  34.1909230  12.5730700  29.5434660  34.9108350  13.0685990  29.1530770
  33.9891050  11.8948590  28.8988530  29.6519170   3.9668660  23.6864050
  28.8383780   3.4681830  23.6109360  29.4581120   4.8066910  23.2700400
  29.5728030  12.6439760  35.4303660  29.5065340  11.7235430  35.1761250
  28.9433170  12.7415200  36.1448300  32.3667560   8.3388310  21.9826210
  33.2547180   8.6505540  21.8077550  32.3372650   7.4660560  21.5906790
  23.4758650  13.2445720  27.3887080  23.9937320  12.4413980  27.3343970
  23.0242670  13.1824860  28.2303910  28.3628150  14.5112000  22.6614380
  28.7043850  15.2554230  22.1657700  27.5340860  14.8243120  23.0239210
  20.9603190  10.2107090  34.3012780  20.6018130  10.8760940  34.8886120
  20.6657750   9.3790640  34.6725400  24.1616310  10.6691330  37.1852330
  23.8616450  10.8148510  36.2880150  24.9327550  10.1096620  37.0925720
  29.5044760  15.4660330  35.1807460  29.5189300  14.5341290  34.9626370
  28.7969860  15.5520090  35.8197230  34.6381830   9.6500150  21.4506070
  34.5545550  10.0814370  20.6002510  35.3576020  10.1098500  21.8832890
  35.7155970  12.1067670  34.5276040  34.9904160  12.6996450  34.3305430
  36.2431430  12.0991210  33.7289410  35.6669080  16.5042410  24.1788200
  35.0245240  15.8498030  24.4531920  35.2799740  16.9097500  23.4028870
  31.2455560  13.8327840  28.0259890  31.5979380  13.2355970  27.3661260
  30.3617890  13.5072070  28.1968140  27.3318840  14.5925530  25.4330300
  28.0189970  15.1394740  25.8137890  26.5451260  15.1366260  25.4679910
  19.4711240  10.2098350  20.9247380  20.3406090  10.4923150  21.2083300
  18.9801560  11.0234220  20.8096190  26.6346050  11.5971560  25.0455660
  27.0908830  12.4076810  25.2715850  26.2834260  11.2794700  25.8774150
  28.9378660  17.1077900  32.2747960  29.5820880  17.3137280  32.9521380
  29.3008100  16.3466300  31.8218810  22.5357830   1.9409210  25.5178180
  22.4072460   1.9327110  26.4663100  21.7119850   2.2792300  25.1669190
  30.2110740  15.1110250  30.9925410  30.8532970  14.4103410  31.1057580
  30.7360090  15.8908690  30.8122300  34.0566460  15.3958870  20.7164550
  33.8304040  14.6789310  21.3089190  33.6662660  15.1471310  19.8786300
  31.9848360  15.9105150  34.1961470  32.3204600  16.4971840  34.8739390
  31.0648700  15.7797860  34.4259260  19.8382490  19.4225730  21.4909010
  20.1980130  20.0215070  20.8366280  19.6974830  19.9685620  22.2644040
  19.5351760   3.7000330  34.9784880  18.8210280   3.8997250  35.5837490
  19.9546800   2.9239900  35.3499680  33.6382710  13.3130810  22.3778710
  33.3504410  13.7743500  23.1656590  34.4334880  12.8528580  22.6462930
  19.8224350  17.6880590  35.9651410  19.9315470  16.7475330  35.8246800
  19.1704910  17.9535340  35.3165140  27.8136940  15.9596480  37.3649530
  27.4933810  15.2405720  37.9095220  27.1395300  16.6351550  37.4385590
  25.8551110  16.8056930  22.3082680  25.8461210  17.5386620  21.6927190
  24.9349470  16.5588510  22.4009640  21.4557750  12.0271820  23.0529440
  20.8485700  12.7670720  23.0624740  21.9307100  12.1171180  22.2267640
  31.0290540   6.1922640  32.7286330  31.3971360   5.3717850  33.0565900
  30.1688740   6.2524530  33.1441980  34.3952570   5.1479580  23.5373890
  33.7665730   5.2525250  22.8232120  33.9004490   5.3676360  24.3267770
  28.8410710  16.8685170  20.9707870  28.9422690  16.6649160  20.0409850
  27.9412450  16.6143450  21.1755650  26.3636600   7.4265530  24.9531770
  25.6552750   7.8951870  25.3945380  26.6481080   6.7687540  25.5876960
  27.9892530   8.8462230  32.9524300  28.4877780   9.3208050  33.6176150
  28.1315480   7.9225750  33.1594330  30.3952030   4.1516190  26.3927560
  30.2719810   4.1702320  25.4437070  31.3436590   4.1995130  26.5125960
  27.4828820  19.3871490  25.6655540  27.7370320  19.3492880  24.7434910
  26.5341300  19.2604820  25.6583790  24.5671620   5.7350610  22.3282480
  25.4162150   6.1720760  22.2622670  24.2002890   6.0470870  23.1554540
  35.1959390   5.0630190  33.7952690  34.6932990   5.8035590  34.1346500
  36.0116050   5.4514190  33.4789480  33.4881400  10.3063370  27.2414050
  32.5471540  10.3213600  27.4161740  33.8025470   9.5199330  27.6874350
  23.4663040  11.9882970  20.8018010  24.2326310  11.8764330  21.3643440
  23.5437730  11.2920940  20.1494780  22.1609800   9.4208040  21.4850900
  22.2413390   8.4735550  21.5968300  23.0529550   9.7514920  21.5911560
  35.4906980  17.4772220  28.9168310  35.6154400  18.3003390  29.3892120
  36.3572540  17.2662950  28.5692460  22.9624510  19.5703430  28.5885440
  23.6986990  19.0218890  28.8594010  23.3465430  20.4359440  28.4491430
  19.8469990  15.6377000  24.4626950  18.9209770  15.8798140  24.4532360
  20.3126420  16.4651260  24.3411700  21.9682790  18.7549500  37.7771020
  22.7695520  19.0761550  38.1906420  21.4534610  18.3945080  38.4990930
  26.0726820  18.7433740  20.4111010  26.8655430  19.0322570  19.9592800
  25.5531170  18.3125910  19.7323490  30.8047420  14.8629370  37.7246430
  30.1985580  14.8860970  36.9842180  30.5001530  14.1312410  38.2613680
  32.2347790  18.5909660  36.3355840  33.1869540  18.5067680  36.2856080
  32.0876010  19.2551370  37.0089630  35.1256990  17.9703870  21.8347750
  34.8398500  17.5569010  21.0201930  34.9276540  18.8991580  21.7148270
  19.6880600  11.2422960  36.7207070  20.1919620  10.6630240  37.2923300
  18.9488020  11.5263190  37.2583440  26.5904220  13.9637150  20.2753360
  26.4854860  13.3489500  21.0014740  26.4228440  13.4403040  19.4916370
  26.7418540  12.6493950  36.2542590  25.9764210  13.2178950  36.1697260
  26.9234500  12.3570160  35.3610820  29.8306950  13.0257180  20.8795350
  29.2817050  13.4726480  21.5238090  30.4526210  12.5206430  21.4033020
  33.8841890  14.3799280  36.8117610  34.6251360  14.7175040  36.3085070
  33.1214570  14.5491340  36.2587380  21.7203680   9.3852550  37.6157140
  21.7609020   9.0866420  38.5242370  22.5749180   9.7860160  37.4564660
  25.4982070  11.9848100  22.7760650  25.9198490  11.8187970  23.6192040
  25.6232910  11.1748330  22.2815790  23.6609490   7.9644650  35.5831630
  23.1305950   7.4735600  34.9554970  24.3297560   8.3928850  35.0489560
  28.0109710  11.0085710  20.0237750  28.5315370  10.2934730  19.6578900
  28.6578110  11.6471580  20.3238260  32.5587550  12.4314110  35.3472820
  32.9728570  12.5859190  36.1963240  31.6238550  12.5569330  35.5098600
  33.0309720   9.7710270  37.3511970  33.6130490   9.0162590  37.2632450
  33.2071490  10.3017710  36.5743450  24.1481790   4.9307020  35.6628920
  24.0538660   4.3127770  34.9379790  23.5679180   5.6573310  35.4358830
  26.9143230   3.4880260  32.6956310  26.4660530   3.5104520  31.8501860
  26.2808430   3.0899280  33.2926610  27.3202780  12.3834590  33.3168750
  27.7390890  13.2267320  33.1444990  26.4011410  12.5206630  33.0875530
  29.6566680  10.1150770  34.7006590  29.7762890   9.5191910  35.4401430
  30.5160680  10.1520460  34.2807890  31.9954580  10.6687960  33.2769100
  31.4689800  11.1930580  32.6734240  32.3385920  11.3015350  33.9078830
  24.3940970   8.0581330  19.7218810  24.1930030   7.1948690  20.0832150
  24.2233020   7.9714690  18.7840410  25.1710200  18.6887600  34.4326480
  24.6331290  19.4133660  34.1135180  25.4244160  18.2117940  33.6423820
  26.4235450   6.6572120  35.9582410  27.0135140   6.3487970  36.6460230
  25.6055690   6.1851870  36.1142310  31.2428880   6.2737930  36.1915430
  30.5544400   5.6119470  36.1265420  31.9634900   5.8276200  36.6363890
  31.8729280   2.8689560  22.2505690  32.1531570   2.0257460  22.6065110
  31.0995010   3.1012670  22.7644440  23.1923770   5.1581950  19.7096690
  23.4949670   5.1649380  18.8015840  23.9318360   4.8079810  20.2064350
  28.0272410  19.9238810  34.6913130  27.9531110  20.8273950  34.9985500
  27.1251250  19.6050710  34.6635200  26.4108700   4.1016570  20.6952890
  26.0630700   3.4240560  20.1155340  26.6121470   3.6406080  21.5096280
  28.5757740  19.0897320  22.3139490  29.4708530  19.4282290  22.3358250
  28.6075370  18.3676730  21.6863770  22.2153900  14.4624370  20.5426490
  22.6528770  15.0054040  21.1984070  22.7001630  13.6371320  20.5522830
  19.4299700  17.2513400  27.9946750  19.7602710  16.3834460  27.7625390
  19.8590700  17.4571920  28.8251710  24.0261620  15.5822410  25.6548720
  23.7257160  15.4587380  26.5552630  23.9199110  14.7231000  25.2464450
  19.9189910  18.1183990  30.7328380  19.4820900  18.2984790  31.5652530
  20.4867590  18.8758610  30.5910100  35.5552090  17.6200990  35.0205690
  34.9554080  17.6793550  34.2769610  35.6845990  16.6805970  35.1502540
  36.7953540  15.3618810  20.3575400  35.9646500  15.4295460  20.8282630
  36.9725370  16.2522930  20.0542260  36.2510000  12.1066290  22.8609600
  37.0128910  12.6762940  22.9669290  36.2664370  11.5393490  23.6317910
  19.7514340  10.6304220  27.0917260  19.0963180  10.3615860  26.4476960
  20.5892290  10.5208700  26.6419240  37.2569970  12.9616390  27.7051530
  37.6278800  12.1783710  27.2987500  37.8971900  13.6505490  27.5268830
  34.2403730  14.3452970  33.1181850  33.4263570  14.7750130  33.3807640
  34.6477930  14.9571380  32.5050900  36.3029170  12.4000660  20.0182120
  36.5778010  13.3079540  19.8901340  36.1139910  12.3363190  20.9544110
  32.7004780   5.4245510  21.3135750  33.1189660   5.2376490  20.4732410
  32.3940840   4.5724560  21.6238680  36.1994510  10.3369650  25.0111550
  35.8238110   9.5697580  24.5792840  35.4697630  10.7192350  25.4986480
  20.7890270  11.0156790  31.6320600  21.1563310  10.9284190  32.5116620
  20.2201090  10.2523340  31.5327460  35.5894130   9.4841170  34.6451070
  35.3580220   9.2553920  33.7449020  35.8498680  10.4040720  34.5995960
  20.3406270   7.9265880  35.5379020  19.4462320   7.8932640  35.8772730
  20.8803820   8.1252670  36.3030270  34.0282200   4.7097600  37.4230770
  34.9052380   4.7181000  37.8064770  34.0403040   3.9728440  36.8123120
  18.9652420   7.8403150  23.0342590  18.0616500   8.1033350  22.8594250
  19.4493040   8.1114320  22.2542550  35.4745470   8.5627140  28.3118790
  35.9982950   8.0689790  27.6808960  36.0604890   8.6977500  29.0566360
  35.6535190   8.6467010  31.8338340  34.7037900   8.6130550  31.9483330
  35.8348200   9.5567120  31.5988110  21.5079630   6.8968690  20.9436970
  22.2171330   6.4751910  20.4584250  20.7919570   6.9643920  20.3120320
  21.1553790   2.9508020  19.9839620  21.8781920   3.4916960  20.3020840
  21.4278310   2.6771440  19.1081160  34.9645440   7.8200490  24.2511200
  35.4604560   7.5871360  25.0360080  34.7661510   6.9812330  23.8348840
  20.8445980   2.2014210  29.8862240  21.4922170   1.6511590  29.4457400
  21.2647820   2.4557360  30.7078050  36.3932600   6.4561440  26.7848880
  36.2831880   6.3017480  27.7231150  37.1540190   5.9282380  26.5424290
  34.7398320   2.3955570  33.2431880  35.3770540   3.0089710  33.6091070
  34.8873210   2.4316230  32.2981110  37.2822870   4.2869360  20.0255020
  38.2072180   4.1550540  19.8173310  37.2598660   4.3662180  20.9791470
  37.3561360   5.0580020  22.6511730  36.5612860   4.9925140  23.1804640
  37.5604640   5.9930660  22.6397080  34.2979780  19.0971570  26.6450120
  34.8938850  18.7756140  25.9684540  34.5557930  18.6243390  27.4363390
  20.5977980   2.3569880  32.6287560  20.2492800   2.8133700  33.3945740
  20.2665680   1.4627010  32.7109990  22.2042350  15.5289480  36.7940750
  22.1611980  15.1582390  37.6755210  22.3353360  16.4667050  36.9342570
  25.9048380  17.0849070  32.3950470  25.6639740  17.3523630  31.5080990
  26.8451020  17.2554800  32.4501330  28.1102800   3.5481760  36.1506980
  28.0491690   4.1403590  36.9002390  29.0503180   3.4407720  36.0057240
  30.7477360   3.2051820  35.7899270  31.3617770   3.5231110  35.1280350
  31.2926920   2.7200410  36.4095130  37.1652540  19.1043450  33.1961110
  36.6710820  19.5012320  32.4788240  36.5565830  18.4792660  33.5898390
  22.0430380  18.4751730  33.9138530  21.4490700  18.3436430  34.6528570
  22.0354220  17.6389870  33.4480630  32.3957380   3.9754830  33.5010280
  32.0670740   3.1606590  33.1212010  33.3439680   3.9324640  33.3775970
  34.8491990  19.7466870  30.4747850  34.3894960  20.4982680  30.1005870
  34.2204450  19.0273340  30.4162650  21.6742610  15.8410110  32.8646570
  20.9476670  15.2215400  32.7972520  21.7351760  16.2350720  31.9944650
  25.2787710  18.0555110  29.6495980  25.7952730  17.4442470  29.1244240
  25.9285090  18.5583890  30.1406990  28.0183210  18.9463600  30.4764960
  28.3061020  18.6917900  29.5997970  28.5306430  18.3940960  31.0670530
  29.2360220   2.6853800  31.0561470  28.4532010   3.1599300  31.3358230
  28.9423150   1.7808630  30.9474650  33.7881290   3.3876900  29.1010560
  34.2289380   3.3322000  28.2532160  33.5188880   4.3034910  29.1720740
  35.6519860   3.0192140  27.1119380  35.5908260   2.0753360  26.9650400
  36.4311890   3.1272230  27.6572840  19.9572610  19.1584500  26.0743330
  19.7894650  18.5255180  26.7725220  19.0907120  19.3643900  25.7237520
  20.5800630   2.9901280  23.5775190  21.3379990   3.1030160  23.0039220
  20.1177800   3.8270480  23.5318620  27.1214440   5.1040550  26.5677500
  26.3088950   4.7297440  26.2273380  27.6256080   4.3485630  26.8698690
  31.6239420   1.7683000  27.8060570  32.2268790   2.3403210  28.2809090
  30.8832410   2.3322440  27.5834470  34.7674020   2.1704560  23.0800850
  34.9624650   3.0688010  23.3468280  33.9803890   1.9391640  23.5733800
  21.5635310  17.8517730  23.5193470  21.0382930  18.2325760  22.8155430
  21.4879890  18.4768500  24.2403180  22.9525780   3.5165330  22.1177160
  23.4818540   2.7295130  21.9885110  23.5854100   4.1956520  22.3512690
  25.1463620   3.2540470  25.1722550  24.5166360   2.5527780  25.3392680
  24.6068760   4.0144600  24.9555710  28.0855570  19.8679700  37.8433160
  29.0122880  19.6323970  37.8869120  28.0706000  20.6951700  37.3619190
  36.3200630  19.4105270  24.8407410  36.4952820  18.7243010  24.1968330
  35.6222200  19.9352320  24.4484080  25.2719180   2.5324450  37.6075040
  24.9903450   3.0358050  36.8435860  25.6538880   1.7346200  37.2417170
  24.1628280  19.8000110  22.3942720  24.8947100  19.5159390  21.8466610
  24.4221950  19.5613390  23.2842100  23.3243070  15.9164840  22.3989050
  22.6951950  16.3849940  22.9474880  23.4390900  15.0714060  22.8335240
  31.8734640   1.9478030  38.1855510  31.7600090   2.2672640  39.0807030
  32.6904380   2.3490540  37.8892790  34.6533130  19.0949560  37.6674200
  35.4458450  18.5998790  37.4600160  34.9466280  19.7739700  38.2749810
  30.7792790   9.9670500   8.5490250  30.6986840   9.0525110   8.2781960
  30.3657210  10.4637570   7.8429960  28.9110830  11.7449520  10.4299520
  28.1352930  11.2649960  10.7198090  29.5623760  11.0655170  10.2555680
  22.9276660  12.0569330  11.3075280  22.0961540  11.8018040  11.7071790
  23.5357640  12.1280100  12.0433200  32.9318260  16.1509710   9.2098650
  32.4699790  15.3796950   9.5385820  33.7443810  16.1775780   9.7151100
  22.9077920  16.0909420  11.5033300  23.2105960  15.2007160  11.3243520
  23.6521510  16.6479640  11.2755550  21.3368610   7.0171220   5.0917670
  20.4485310   7.3587190   4.9897550  21.6209800   6.8171540   4.1998500
  19.3001620   9.6176870  10.9757370  19.8717730   8.8499070  10.9761010
  19.3003160   9.9165630  10.0663980  29.1581570  18.4367720   8.8302640
  28.5393010  18.8925220   8.2597080  30.0133350  18.5919180   8.4292340
  28.3519820  14.4206710  10.4369680  28.2828100  13.4796650  10.2758810
  29.1139680  14.5108120  11.0092250  20.5426490   5.0261230  12.7626300
  20.3629330   4.1286980  13.0429060  20.1406570   5.5733100  13.4373250
  29.3824990   7.2277090  10.6638610  29.7589810   6.3548970  10.5512280
  29.2844500   7.5635790   9.7729050  23.5130000   5.6002720   6.1256050
  23.6196750   6.5006450   6.4324810  22.6022360   5.5520690   5.8350700
  33.1649110   4.7227530   7.5966950  33.9858730   4.2324100   7.6392430
  33.1983190   5.3125190   8.3498790  21.1613160   7.5221730  11.3708640
  21.8423270   7.7860100  11.9896040  20.8461210   6.6822600  11.7046650
  25.3537730   8.5689090  10.4581230  25.8615950   9.0670060  11.0986250
  25.8850970   7.7924290  10.2820590  37.4548660   6.7394280  14.1610580
  36.7500830   7.1275990  13.6425690  37.7206580   7.4344570  14.7631510
  23.6373830   3.2087650  14.7244650  23.6392270   3.7260040  13.9190550
  22.8078140   2.7317830  14.7014580  30.0244920  13.3206960   6.2234550
  29.4062190  13.7856410   5.6597270  30.5368170  14.0134440   6.6404060
  24.8876680  12.8482830  12.9018150  24.5546060  13.4751750  13.5439220
  25.0643360  13.3744710  12.1219820  33.4010590   6.6627910  10.3694490
  32.6966160   6.9512800  10.9497600  33.7622750   7.4728020  10.0094050
  23.3189160   4.9197610  12.7315100  23.6605970   5.7639660  12.4368970
  22.3804970   5.0681350  12.8480440  24.0995780  14.8163630  14.7167330
  24.7169780  15.4914710  14.4351780  23.2388900  15.2251610  14.6254830
  19.3928120  14.0063490   3.5974180  19.0156100  14.4950590   2.8659080
  19.6501190  14.6788770   4.2280710  35.0173370  16.2803040  12.6321970
  34.3336890  16.9502150  12.6238640  35.5567660  16.4783690  11.8666830
  36.4697510   6.1082700  10.7603700  35.5222420   6.1421680  10.8919130
  36.7947500   6.9221650  11.1453060  27.0017050   2.4079880   9.0559690
  27.3092030   1.8526770   8.3395190  26.0717750   2.5424340   8.8732680
  32.5532110  18.1247170  11.3467150  32.5659270  17.7209460  10.4789410
  32.0007330  18.8994460  11.2428580  33.8477530  14.8463390   6.4357320
  33.7373860  13.9037720   6.5606740  33.8445780  15.2079030   7.3220080
  31.9517550  13.0277010  12.6749760  32.3686340  12.8137120  11.8403220
  32.6757370  13.2849800  13.2458380  29.3897810  10.4728710   5.7919810
  28.4627090  10.4066090   6.0208280  29.5422630  11.4108840   5.6775050
  29.3766890   6.7445710   2.7886970  28.4370560   6.9059670   2.8739430
  29.6950150   7.4631390   2.2422960  35.8979650  11.4264230  12.7666000
  35.0698280  11.4957320  12.2916130  36.4930130  12.0118540  12.2981830
  33.4195100  12.0349010   6.2955060  32.8007520  11.6968560   5.6481360
  33.4019550  11.3908770   7.0034250  32.8621660   8.2133550  13.7120870
  32.4492840   9.0387260  13.9660860  32.1297610   7.6278590  13.5197230
  24.9954450  10.9993450   8.5739540  24.5911450  10.2870700   8.0785440
  25.0817570  10.6546690   9.4627580  25.4636150  14.6861010  10.7378750
  25.1664440  14.0806480  10.0586530  26.4135970  14.7238320  10.6268110
  23.7083070   7.7736660  12.3538580  24.2597660   7.8832000  11.5791830
  24.2226580   8.1474260  13.0693810  33.5521760  18.2592880  14.4001850
  33.0752320  19.0665070  14.2074460  32.8683550  17.6071210  14.5528060
  24.5554580  14.4242700  17.3886550  23.6583110  14.6482670  17.6359950
  24.5807450  14.5477640  16.4397950  31.5959800  11.2735820   3.3027810
  32.0353080  10.4358250   3.1565630  32.3088220  11.9065220   3.3891950
  23.3825800  11.2956020  15.9643920  23.2433570  12.1678820  16.3331320
  22.5007160  10.9528830  15.8191860  29.7055180  16.2131890   7.2709050
  30.1451090  16.9556220   6.8564440  29.6442070  16.4558460   8.1948010
  25.1806150  17.2377720  18.1729070  25.1521580  17.6420670  17.3057500
  25.0171120  16.3088080  18.0100670  21.6959080   9.8938430   6.0746190
  21.5756680  10.6200520   5.4627460  21.3859970   9.1241340   5.5974100
  37.1320970  18.0204820  19.4693240  37.6080690  18.4987710  20.1482320
  37.7528130  17.9522310  18.7438740  19.3344450  13.0653570  11.8814830
  19.4124870  13.2002340  10.9370550  19.9486130  12.3569460  12.0742950
  20.5792080  14.7653760   8.2921010  20.1720160  14.9068350   7.4374610
  21.4705090  14.4813920   8.0892220  36.5354220  15.2117670  16.6293250
  36.6617280  14.9729550  15.7110430  36.5775600  14.3802210  17.1015330
  30.3970960  18.9145670  15.1988060  30.9115630  18.8253680  16.0010490
  29.5540040  19.2605370  15.4915970  32.3725360  19.2001010   4.6272060
  32.2126500  18.9103950   5.5253890  32.2072070  18.4241140   4.0917290
  24.8513740  18.9799540   6.4043680  24.6756220  18.0635080   6.1911480
  23.9969480  19.3386830   6.6441480  32.0751490  16.7088570   3.1870060
  31.3816650  16.7065860   2.5272340  32.8174350  16.2847890   2.7564230
  31.6401420  18.3351280   7.2618550  32.0958370  17.5540660   7.5757170
  31.9793940  19.0458100   7.8059730  36.3878230   7.2650130  17.5942990
  35.7722500   7.7729800  17.0658450  36.0674650   6.3648460  17.5368930
  19.3903970  14.1067740  14.4209290  19.5535010  13.6373100  13.6028660
  19.8556420  13.5991300  15.0858130  24.1622740   3.2373500   9.4569860
  23.7190890   4.0183040   9.1254380  24.7207730   3.5603390  10.1640800
  28.4492550   6.1042020  15.0605180  27.9871920   6.3125040  15.8725120
  28.0470660   5.2901370  14.7575850  33.4497060   7.3250970  16.1901840
  32.5990650   7.0256720  16.5110910  33.2898850   7.5692980  15.2785660
  30.5446770   8.8252720  18.2900630  30.8700180   7.9916470  17.9502860
  31.3327100   9.3481240  18.4378960  27.2781560   2.8584200   4.3375690
  26.6535740   2.8544070   5.0629000  27.1911680   1.9915160   3.9411660
  26.1998640   3.7820830  11.3159460  26.4970970   4.6883660  11.2351480
  26.7484200   3.2939610  10.7019030  23.9536960   8.3607070   7.1851110
  23.7277880   8.1444240   8.0897730  23.1729490   8.7935530   6.8397080
  31.1834720   8.3670440   5.7841760  30.5843610   9.0906240   5.6005380
  31.7314330   8.3047220   5.0018210  26.3936170   9.2592650  17.8511380
  26.2979770   8.3187380  17.7011780  27.2368150   9.4807720  17.4559450
  29.7899590   7.0033980   7.8145040  30.1829160   7.3206180   7.0013730
  30.1516440   6.1245860   7.9289560  21.5246710   5.6706320  16.0045160
  21.1310100   6.5181530  16.2117940  20.8365110   5.0332690  16.1953800
  28.0991760   5.7541290  19.0741900  27.4090080   5.5613490  19.7087990
  28.8424060   6.0375930  19.6066200  18.8263760   3.5934780  10.0375240
  18.5376810   4.1637640  10.7500220  19.5709520   3.1139230  10.4006470
  30.3754730   9.5939730  11.9095820  29.6435850  10.1026540  12.2585920
  29.9779070   8.7769710  11.6084600  26.8132120   6.2693930  10.3148310
  26.8168180   5.8283880   9.4652850  27.7083240   6.5911260  10.4220130
  22.6634500   6.1520420   9.2742520  22.3234550   6.6295650  10.0309570
  21.9011820   5.6985540   8.9143620  26.8752270   7.2706010   3.3055070
  26.9965090   7.2292490   4.2540890  26.4900780   8.1330160   3.1501800
  30.8380640   5.0473410  11.3218760  30.8553380   5.4982060  12.1660610
  30.5896220   4.1479050  11.5352200  25.8873770   9.5807150   2.7038370
  25.3190670   9.1325400   2.0774280  26.5962770   9.9399930   2.1703520
  34.2651390   2.4605590  17.1605140  34.5897160   1.7295250  17.6863120
  34.3007900   2.1419230  16.2586130  20.9642950  13.4819170  16.5805100
  20.5797740  12.8412840  17.1788060  21.2755140  14.1855290  17.1499830
  27.1140090  10.3295710  12.0613720  27.4810220   9.8554280  12.8075060
  26.9245150  11.2037280  12.4022060  19.9780580   5.0739400   8.1907190
  19.6927500   4.7095070   9.0285810  19.9159440   4.3419860   7.5770330
  24.9039460   9.3704350  14.3797930  24.5996530  10.2496330  14.6048290
  25.8585920   9.4304140  14.4155370  23.4321250  13.5765340   4.9764780
  22.6583510  13.0362960   4.8163500  24.1615880  13.0571950   4.6382540
  34.1909230  12.5730700  10.7691170  34.9108350  13.0685990  10.3787280
  33.9891050  11.8948590  10.1245040  29.6519170   3.9668660   4.9120560
  28.8383780   3.4681830   4.8365870  29.4581120   4.8066910   4.4956910
  29.5728030  12.6439760  16.6560170  29.5065340  11.7235430  16.4017760
  28.9433170  12.7415200  17.3704810  32.3667560   8.3388310   3.2082720
  33.2547180   8.6505540   3.0334060  32.3372650   7.4660560   2.8163300
  23.4758650  13.2445720   8.6143590  23.9937320  12.4413980   8.5600480
  23.0242670  13.1824860   9.4560420  28.3628150  14.5112000   3.8870890
  28.7043850  15.2554230   3.3914210  27.5340860  14.8243120   4.2495720
  20.9603190  10.2107090  15.5269290  20.6018130  10.8760940  16.1142630
  20.6657750   9.3790640  15.8981910  24.1616310  10.6691330  18.4108840
  23.8616450  10.8148510  17.5136660  24.9327550  10.1096620  18.3182230
  29.5044760  15.4660330  16.4063970  29.5189300  14.5341290  16.1882880
  28.7969860  15.5520090  17.0453740  34.6381830   9.6500150   2.6762580
  34.5545550  10.0814370   1.8259020  35.3576020  10.1098500   3.1089400
  35.7155970  12.1067670  15.7532550  34.9904160  12.6996450  15.5561940
  36.2431430  12.0991210  14.9545920  35.6669080  16.5042410   5.4044710
  35.0245240  15.8498030   5.6788430  35.2799740  16.9097500   4.6285380
  31.2455560  13.8327840   9.2516400  31.5979380  13.2355970   8.5917770
  30.3617890  13.5072070   9.4224650  27.3318840  14.5925530   6.6586810
  28.0189970  15.1394740   7.0394400  26.5451260  15.1366260   6.6936420
  19.4711240  10.2098350   2.1503890  20.3406090  10.4923150   2.4339810
  18.9801560  11.0234220   2.0352700  26.6346050  11.5971560   6.2712170
  27.0908830  12.4076810   6.4972360  26.2834260  11.2794700   7.1030660
  28.9378660  17.1077900  13.5004470  29.5820880  17.3137280  14.1777890
  29.3008100  16.3466300  13.0475320  22.5357830   1.9409210   6.7434690
  22.4072460   1.9327110   7.6919610  21.7119850   2.2792300   6.3925700
  30.2110740  15.1110250  12.2181920  30.8532970  14.4103410  12.3314090
  30.7360090  15.8908690  12.0378810  31.9848360  15.9105150  15.4217980
  32.3204600  16.4971840  16.0995900  31.0648700  15.7797860  15.6515770
  19.8382490  19.4225730   2.7165520  20.1980130  20.0215070   2.0622790
  19.6974830  19.9685620   3.4900550  19.5351760   3.7000330  16.2041390
  18.8210280   3.8997250  16.8094000  19.9546800   2.9239900  16.5756190
  33.6382710  13.3130810   3.6035220  33.3504410  13.7743500   4.3913100
  34.4334880  12.8528580   3.8719440  19.8224350  17.6880590  17.1907920
  19.9315470  16.7475330  17.0503310  19.1704910  17.9535340  16.5421650
  27.8136940  15.9596480  18.5906040  27.4933810  15.2405720  19.1351730
  27.1395300  16.6351550  18.6642100  25.8551110  16.8056930   3.5339190
  25.8461210  17.5386620   2.9183700  24.9349470  16.5588510   3.6266150
  21.4557750  12.0271820   4.2785950  20.8485700  12.7670720   4.2881250
  21.9307100  12.1171180   3.4524150  31.0290540   6.1922640  13.9542840
  31.3971360   5.3717850  14.2822410  30.1688740   6.2524530  14.3698490
  34.3952570   5.1479580   4.7630400  33.7665730   5.2525250   4.0488630
  33.9004490   5.3676360   5.5524280  26.3636600   7.4265530   6.1788280
  25.6552750   7.8951870   6.6201890  26.6481080   6.7687540   6.8133470
  27.9892530   8.8462230  14.1780810  28.4877780   9.3208050  14.8432660
  28.1315480   7.9225750  14.3850840  30.3952030   4.1516190   7.6184070
  30.2719810   4.1702320   6.6693580  31.3436590   4.1995130   7.7382470
  27.4828820  19.3871490   6.8912050  27.7370320  19.3492880   5.9691420
  26.5341300  19.2604820   6.8840300  24.5671620   5.7350610   3.5538990
  25.4162150   6.1720760   3.4879180  24.2002890   6.0470870   4.3811050
  35.1959390   5.0630190  15.0209200  34.6932990   5.8035590  15.3603010
  36.0116050   5.4514190  14.7045990  33.4881400  10.3063370   8.4670560
  32.5471540  10.3213600   8.6418250  33.8025470   9.5199330   8.9130860
  22.1609800   9.4208040   2.7107410  22.2413390   8.4735550   2.8224810
  23.0529550   9.7514920   2.8168070  35.4906980  17.4772220  10.1424820
  35.6154400  18.3003390  10.6148630  36.3572540  17.2662950   9.7948970
  22.9624510  19.5703430   9.8141950  23.6986990  19.0218890  10.0850520
  23.3465430  20.4359440   9.6747940  19.8469990  15.6377000   5.6883460
  18.9209770  15.8798140   5.6788870  20.3126420  16.4651260   5.5668210
  21.9682790  18.7549500  19.0027530  22.7695520  19.0761550  19.4162930
  21.4534610  18.3945080  19.7247440  30.8047420  14.8629370  18.9502940
  30.1985580  14.8860970  18.2098690  30.5001530  14.1312410  19.4870190
  32.2347790  18.5909660  17.5612350  33.1869540  18.5067680  17.5112590
  32.0876010  19.2551370  18.2346140  35.1256990  17.9703870   3.0604260
  34.8398500  17.5569010   2.2458440  34.9276540  18.8991580   2.9404780
  19.6880600  11.2422960  17.9463580  20.1919620  10.6630240  18.5179810
  18.9488020  11.5263190  18.4839950  26.7418540  12.6493950  17.4799100
  25.9764210  13.2178950  17.3953770  26.9234500  12.3570160  16.5867330
  29.8306950  13.0257180   2.1051860  29.2817050  13.4726480   2.7494600
  30.4526210  12.5206430   2.6289530  33.8841890  14.3799280  18.0374120
  34.6251360  14.7175040  17.5341580  33.1214570  14.5491340  17.4843890
  21.7203680   9.3852550  18.8413650  21.7609020   9.0866420  19.7498880
  22.5749180   9.7860160  18.6821170  25.4982070  11.9848100   4.0017160
  25.9198490  11.8187970   4.8448550  25.6232910  11.1748330   3.5072300
  23.6609490   7.9644650  16.8088140  23.1305950   7.4735600  16.1811480
  24.3297560   8.3928850  16.2746070  32.5587550  12.4314110  16.5729330
  32.9728570  12.5859190  17.4219750  31.6238550  12.5569330  16.7355110
  33.0309720   9.7710270  18.5768480  33.6130490   9.0162590  18.4888960
  33.2071490  10.3017710  17.7999960  24.1481790   4.9307020  16.8885430
  24.0538660   4.3127770  16.1636300  23.5679180   5.6573310  16.6615340
  26.9143230   3.4880260  13.9212820  26.4660530   3.5104520  13.0758370
  26.2808430   3.0899280  14.5183120  27.3202780  12.3834590  14.5425260
  27.7390890  13.2267320  14.3701500  26.4011410  12.5206630  14.3132040
  29.6566680  10.1150770  15.9263100  29.7762890   9.5191910  16.6657940
  30.5160680  10.1520460  15.5064400  31.9954580  10.6687960  14.5025610
  31.4689800  11.1930580  13.8990750  32.3385920  11.3015350  15.1335340
  25.1710200  18.6887600  15.6582990  24.6331290  19.4133660  15.3391690
  25.4244160  18.2117940  14.8680330  26.4235450   6.6572120  17.1838920
  27.0135140   6.3487970  17.8716740  25.6055690   6.1851870  17.3398820
  31.2428880   6.2737930  17.4171940  30.5544400   5.6119470  17.3521930
  31.9634900   5.8276200  17.8620400  31.8729280   2.8689560   3.4762200
  32.1531570   2.0257460   3.8321620  31.0995010   3.1012670   3.9900950
  28.0272410  19.9238810  15.9169640  27.9531110  20.8273950  16.2242010
  27.1251250  19.6050710  15.8891710  28.5757740  19.0897320   3.5396000
  29.4708530  19.4282290   3.5614760  28.6075370  18.3676730   2.9120280
  22.2153900  14.4624370   1.7683000  22.6528770  15.0054040   2.4240580
  22.7001630  13.6371320   1.7779340  19.4299700  17.2513400   9.2203260
  19.7602710  16.3834460   8.9881900  19.8590700  17.4571920  10.0508220
  24.0261620  15.5822410   6.8805230  23.7257160  15.4587380   7.7809140
  23.9199110  14.7231000   6.4720960  19.9189910  18.1183990  11.9584890
  19.4820900  18.2984790  12.7909040  20.4867590  18.8758610  11.8166610
  35.5552090  17.6200990  16.2462200  34.9554080  17.6793550  15.5026120
  35.6845990  16.6805970  16.3759050  36.2510000  12.1066290   4.0866110
  37.0128910  12.6762940   4.1925800  36.2664370  11.5393490   4.8574420
  19.7514340  10.6304220   8.3173770  19.0963180  10.3615860   7.6733470
  20.5892290  10.5208700   7.8675750  37.2569970  12.9616390   8.9308040
  37.6278800  12.1783710   8.5244010  37.8971900  13.6505490   8.7525340
  34.2403730  14.3452970  14.3438360  33.4263570  14.7750130  14.6064150
  34.6477930  14.9571380  13.7307410  32.7004780   5.4245510   2.5392260
  33.1189660   5.2376490   1.6988920  32.3940840   4.5724560   2.8495190
  36.1994510  10.3369650   6.2368060  35.8238110   9.5697580   5.8049350
  35.4697630  10.7192350   6.7242990  20.7890270  11.0156790  12.8577110
  21.1563310  10.9284190  13.7373130  20.2201090  10.2523340  12.7583970
  35.5894130   9.4841170  15.8707580  35.3580220   9.2553920  14.9705530
  35.8498680  10.4040720  15.8252470  20.3406270   7.9265880  16.7635530
  19.4462320   7.8932640  17.1029240  20.8803820   8.1252670  17.5286780
  34.0282200   4.7097600  18.6487280  34.9052380   4.7181000  19.0321280
  34.0403040   3.9728440  18.0379630  18.9652420   7.8403150   4.2599100
  18.0616500   8.1033350   4.0850760  19.4493040   8.1114320   3.4799060
  35.4745470   8.5627140   9.5375300  35.9982950   8.0689790   8.9065470
  36.0604890   8.6977500  10.2822870  35.6535190   8.6467010  13.0594850
  34.7037900   8.6130550  13.1739840  35.8348200   9.5567120  12.8244620
  34.9645440   7.8200490   5.4767710  35.4604560   7.5871360   6.2616590
  34.7661510   6.9812330   5.0605350  20.8445980   2.2014210  11.1118750
  21.4922170   1.6511590  10.6713910  21.2647820   2.4557360  11.9334560
  36.3932600   6.4561440   8.0105390  36.2831880   6.3017480   8.9487660
  37.1540190   5.9282380   7.7680800  34.7398320   2.3955570  14.4688390
  35.3770540   3.0089710  14.8347580  34.8873210   2.4316230  13.5237620
  37.3561360   5.0580020   3.8768240  36.5612860   4.9925140   4.4061150
  37.5604640   5.9930660   3.8653590  34.2979780  19.0971570   7.8706630
  34.8938850  18.7756140   7.1941050  34.5557930  18.6243390   8.6619900
  20.5977980   2.3569880  13.8544070  20.2492800   2.8133700  14.6202250
  20.2665680   1.4627010  13.9366500  22.2042350  15.5289480  18.0197260
  22.1611980  15.1582390  18.9011720  22.3353360  16.4667050  18.1599080
  25.9048380  17.0849070  13.6206980  25.6639740  17.3523630  12.7337500
  26.8451020  17.2554800  13.6757840  28.1102800   3.5481760  17.3763490
  28.0491690   4.1403590  18.1258900  29.0503180   3.4407720  17.2313750
  30.7477360   3.2051820  17.0155780  31.3617770   3.5231110  16.3536860
  31.2926920   2.7200410  17.6351640  37.1652540  19.1043450  14.4217620
  36.6710820  19.5012320  13.7044750  36.5565830  18.4792660  14.8154900
  22.0430380  18.4751730  15.1395040  21.4490700  18.3436430  15.8785080
  22.0354220  17.6389870  14.6737140  32.3957380   3.9754830  14.7266790
  32.0670740   3.1606590  14.3468520  33.3439680   3.9324640  14.6032480
  34.8491990  19.7466870  11.7004360  34.3894960  20.4982680  11.3262380
  34.2204450  19.0273340  11.6419160  21.6742610  15.8410110  14.0903080
  20.9476670  15.2215400  14.0229030  21.7351760  16.2350720  13.2201160
  25.2787710  18.0555110  10.8752490  25.7952730  17.4442470  10.3500750
  25.9285090  18.5583890  11.3663500  28.0183210  18.9463600  11.7021470
  28.3061020  18.6917900  10.8254480  28.5306430  18.3940960  12.2927040
  29.2360220   2.6853800  12.2817980  28.4532010   3.1599300  12.5614740
  28.9423150   1.7808630  12.1731160  33.7881290   3.3876900  10.3267070
  34.2289380   3.3322000   9.4788670  33.5188880   4.3034910  10.3977250
  35.6519860   3.0192140   8.3375890  35.5908260   2.0753360   8.1906910
  36.4311890   3.1272230   8.8829350  19.9572610  19.1584500   7.2999840
  19.7894650  18.5255180   7.9981730  19.0907120  19.3643900   6.9494030
  20.5800630   2.9901280   4.8031700  21.3379990   3.1030160   4.2295730
  20.1177800   3.8270480   4.7575130  27.1214440   5.1040550   7.7934010
  26.3088950   4.7297440   7.4529890  27.6256080   4.3485630   8.0955200
  31.6239420   1.7683000   9.0317080  32.2268790   2.3403210   9.5065600
  30.8832410   2.3322440   8.8090980  34.7674020   2.1704560   4.3057360
  34.9624650   3.0688010   4.5724790  33.9803890   1.9391640   4.7990310
  21.5635310  17.8517730   4.7449980  21.0382930  18.2325760   4.0411940
  21.4879890  18.4768500   5.4659690  22.9525780   3.5165330   3.3433670
  23.4818540   2.7295130   3.2141620  23.5854100   4.1956520   3.5769200
  25.1463620   3.2540470   6.3979060  24.5166360   2.5527780   6.5649190
  24.6068760   4.0144600   6.1812220  28.0855570  19.8679700  19.0689670
  29.0122880  19.6323970  19.1125630  28.0706000  20.6951700  18.5875700
  36.3200630  19.4105270   6.0663920  36.4952820  18.7243010   5.4224840
  35.6222200  19.9352320   5.6740590  25.2719180   2.5324450  18.8331550
  24.9903450   3.0358050  18.0692370  25.6538880   1.7346200  18.4673680
  24.1628280  19.8000110   3.6199230  24.8947100  19.5159390   3.0723120
  24.4221950  19.5613390   4.5098610  23.3243070  15.9164840   3.6245560
  22.6951950  16.3849940   4.1731390  23.4390900  15.0714060   4.0591750
  31.8734640   1.9478030  19.4112020  31.7600090   2.2672640  20.3063540
  32.6904380   2.3490540  19.1149300  34.6533130  19.0949560  18.8930710
  35.4458450  18.5998790  18.6856670  34.9466280  19.7739700  19.5006320
  12.0049300 141.3874930 139.9694680  11.9243350 140.4729540 139.6986390
  11.5913720 141.8842000 139.2634390  10.1367340 143.1653950 141.8503950
   9.3609440 142.6854390 142.1402520  10.7880270 142.4859600 141.6760110
   4.1533170 143.4773760 142.7279710   3.3218050 143.2222470 143.1276220
   4.7614150 143.5484530 143.4637630  14.1574770 147.5714140 140.6303080
  13.6956300 146.8001380 140.9590250  14.9700320 147.5980210 141.1355530
   4.1334430 147.5113850 142.9237730   4.4362470 146.6211590 142.7447950
   4.8778020 148.0684070 142.6959980   2.5625120 138.4375650 136.5122100
   1.6741820 138.7791620 136.4101980   2.8466310 138.2375970 135.6202930
  10.3838080 149.8572150 140.2507070   9.7649520 150.3129650 139.6801510
  11.2389860 150.0123610 139.8496770   9.5776330 145.8411140 141.8574110
   9.5084610 144.9001080 141.6963240  10.3396190 145.9312550 142.4296680
   1.7683000 136.4465660 144.1830730   1.5885840 135.5491410 144.4633490
   1.3663080 136.9937530 144.8577680  10.6081500 138.6481520 142.0843040
  10.9846320 137.7753400 141.9716710  10.5101010 138.9840220 141.1933480
   4.7386510 137.0207150 137.5460480   4.8453260 137.9210880 137.8529240
   3.8278870 136.9725120 137.2555130  14.3905620 136.1431960 139.0171380
  15.2115240 135.6528530 139.0596860  14.4239700 136.7329620 139.7703220
   2.3869670 138.9426160 142.7913070   3.0679780 139.2064530 143.4100470
   2.0717720 138.1027030 143.1251080   6.5794240 139.9893520 141.8785660
   7.0872460 140.4874490 142.5190680   7.1107480 139.2128720 141.7025020
  18.6805170 138.1598710 145.5815010  17.9757340 138.5480420 145.0630120
  18.9463090 138.8549000 146.1835940   4.8630340 134.6292080 146.1449080
   4.8648780 135.1464470 145.3394980   4.0334650 134.1522260 146.1219010
  11.2501430 144.7411390 137.6438980  10.6318700 145.2060840 137.0801700
  11.7624680 145.4338870 138.0608490   6.1133190 144.2687260 144.3222580
   5.7802570 144.8956180 144.9643650   6.2899870 144.7949140 143.5424250
  14.6267100 138.0832340 141.7898920  13.9222670 138.3717230 142.3702030
  14.9879260 138.8932450 141.4298480   4.5445670 136.3402040 144.1519530
   4.8862480 137.1844090 143.8573400   3.6061480 136.4885780 144.2684870
   5.3252290 146.2368060 146.1371760   5.9426290 146.9119140 145.8556210
   4.4645410 146.6456040 146.0459260  16.2429880 147.7007470 144.0526400
  15.5593400 148.3706580 144.0443070  16.7824170 147.8988120 143.2871260
  17.6954020 137.5287130 142.1808130  16.7478930 137.5626110 142.3123560
  18.0204010 138.3426080 142.5657490   8.2273560 133.8284310 140.4764120
   8.5348540 133.2731200 139.7599620   7.2974260 133.9628770 140.2937110
  13.7788620 149.5451600 142.7671580  13.7915780 149.1413890 141.8993840
  13.2263840 150.3198890 142.6633010  15.0734040 146.2667820 137.8561750
  14.9630370 145.3242150 137.9811170  15.0702290 146.6283460 138.7424510
  13.1774060 144.4481440 144.0954190  13.5942850 144.2341550 143.2607650
  13.9013880 144.7054230 144.6662810  10.6154320 141.8933140 137.2124240
   9.6883600 141.8270520 137.4412710  10.7679140 142.8313270 137.0979480
  10.6023400 138.1650140 134.2091400   9.6627070 138.3264100 134.2943860
  10.9206660 138.8835820 133.6627390  17.1236160 142.8468660 144.1870430
  16.2954790 142.9161750 143.7120560  17.7186640 143.4322970 143.7186260
  14.6451610 143.4553440 137.7159490  14.0264030 143.1172990 137.0685790
  14.6276060 142.8113200 138.4238680  14.0878170 139.6337980 145.1325300
  13.6749350 140.4591690 145.3865290  13.3554120 139.0483020 144.9401660
   6.2210960 142.4197880 139.9943970   5.8167960 141.7075130 139.4989870
   6.3074080 142.0751120 140.8832010   6.6892660 146.1065440 142.1583180
   6.3920950 145.5010910 141.4790960   7.6392480 146.1442750 142.0472540
   4.9339580 139.1941090 143.7743010   5.4854170 139.3036430 142.9996260
   5.4483090 139.5678690 144.4898240  14.7778270 149.6797310 145.8206280
  14.3008830 150.4869500 145.6278890  14.0940060 149.0275640 145.9732490
   5.7811090 145.8447130 148.8090980   4.8839620 146.0687100 149.0564380
   5.8063960 145.9682070 147.8602380  12.8216310 142.6940250 134.7232240
  13.2609590 141.8562680 134.5770060  13.5344730 143.3269650 134.8096380
   4.6082310 142.7160450 147.3848350   4.4690080 143.5883250 147.7535750
   3.7263670 142.3733260 147.2396290  10.9311690 147.6336320 138.6913480
  11.3707600 148.3760650 138.2768870  10.8698580 147.8762890 139.6152440
   6.4062660 148.6582150 149.5933500   6.3778090 149.0625100 148.7261930
   6.2427630 147.7292510 149.4305100  16.4033450 133.9483060 133.0373280
  16.0906110 134.0409890 133.9372350  17.1645920 134.5264090 132.9870710
   2.9215590 141.3142860 137.4950620   2.8013190 142.0404950 136.8831890
   2.6116480 140.5445770 137.0178530   1.8048590 146.1858190 139.7125440
   1.3976670 146.3272780 138.8579040   2.6961600 145.9018350 139.5096650
  17.7610730 146.6322100 148.0497680  17.8873790 146.3933980 147.1314860
  17.8032110 145.8006640 148.5219760  11.6227470 150.3350100 146.6192490
  12.1372140 150.2458110 147.4214920  10.7796550 150.6809800 146.9120400
  13.5981870 150.6205440 136.0476490  13.4383010 150.3308380 136.9458320
  13.4328580 149.8445570 135.5121720   6.0770250 150.4003970 137.8248110
   5.9012730 149.4839510 137.6115910   5.2225990 150.7591260 138.0645910
  13.3008000 148.1293000 134.6074490  12.6073160 148.1270290 133.9476770
  14.0430860 147.7052320 134.1768660  12.8657930 149.7555710 138.6822980
  13.3214880 148.9745090 138.9961600  13.2050450 150.4662530 139.2264160
  17.6134740 138.6854560 149.0147420  16.9979010 139.1934230 148.4862880
  17.2931160 137.7852890 148.9573360   5.3879250 134.6577930 140.8774290
   4.9447400 135.4387470 140.5458810   5.9464240 134.9807820 141.5845230
   9.6749060 137.5246450 146.4809610   9.2128430 137.7329470 147.2929550
   9.2727170 136.7105800 146.1780280  14.6753570 138.7455400 147.6106270
  13.8247160 138.4461150 147.9315340  14.5155360 138.9897410 146.6990090
  11.7703280 140.2457150 149.7105060  12.0956690 139.4120900 149.3707290
  12.5583610 140.7685670 149.8583390   8.5038070 134.2788630 135.7580120
   7.8792250 134.2748500 136.4833430   8.4168190 133.4119590 135.3616090
   7.4255150 135.2025260 142.7363890   7.7227480 136.1088090 142.6555910
   7.9740710 134.7144040 142.1223460   5.1793470 139.7811500 138.6055540
   4.9534390 139.5648670 139.5102160   4.3986000 140.2139960 138.2601510
  12.4091230 139.7874870 137.2046190  11.8100120 140.5110670 137.0209810
  12.9570840 139.7251650 136.4222640   7.6192680 140.6797080 149.2715810
   7.5236280 139.7391810 149.1216210   8.4624660 140.9012150 148.8763880
  11.0156100 138.4238410 139.2349470  11.4085670 138.7410610 138.4218160
  11.3772950 137.5450290 139.3493990   2.7503220 137.0910750 147.4249590
   2.3566610 137.9385960 147.6322370   2.0621620 136.4537120 147.6158230
  11.6011240 141.0144160 143.3300250  10.8692360 141.5230970 143.6790350
  11.2035580 140.1974140 143.0289030   8.0388630 137.6898360 141.7352740
   8.0424690 137.2488310 140.8857280   8.9339750 138.0115690 141.8424560
   3.8891010 137.5724850 140.6946950   3.5491060 138.0500080 141.4514000
   3.1268330 137.1189970 140.3348050   8.1008780 138.6910440 134.7259500
   8.2221600 138.6496920 135.6745320   7.7157290 139.5534590 134.5706230
  12.0637150 136.4677840 142.7423190  12.0809890 136.9186490 143.5865040
  11.8152730 135.5683480 142.9556630   7.1130280 141.0011580 134.1242800
   6.5447180 140.5529830 133.4978710   7.8219280 141.3604360 133.5907950
  15.4907900 133.8810020 148.5809570  15.8153670 133.1499680 149.1067550
  15.5264410 133.5623660 147.6790560   2.1899460 144.9023600 148.0009530
   1.8054250 144.2617270 148.5992490   2.5011650 145.6059720 148.5704260
   8.3396600 141.7500140 143.4818150   8.7066730 141.2758710 144.2279490
   8.1501660 142.6241710 143.8226490   6.1295970 140.7908780 145.8002360
   5.8253040 141.6700760 146.0252720   7.0842430 140.8508570 145.8359800
   4.6577760 144.9969770 136.3969210   3.8840020 144.4567390 136.2367930
   5.3872390 144.4776380 136.0586970  15.4165740 143.9935130 142.1895600
  16.1364860 144.4890420 141.7991710  15.2147560 143.3153020 141.5449470
  10.8775680 135.3873090 136.3324990  10.0640290 134.8886260 136.2570300
  10.6837630 136.2271340 135.9161340  10.7984540 144.0644190 148.0764600
  10.7321850 143.1439860 147.8222190  10.1689680 144.1619630 148.7909240
  13.5924070 139.7592740 134.6287150  14.4803690 140.0709970 134.4538490
  13.5629160 138.8864990 134.2367730   4.7015160 144.6650150 140.0348020
   5.2193830 143.8618410 139.9804910   4.2499180 144.6029290 140.8764850
   9.5884660 145.9316430 135.3075320   9.9300360 146.6758660 134.8118640
   8.7597370 146.2447550 135.6700150   2.1859700 141.6311520 146.9473720
   1.8274640 142.2965370 147.5347060   1.8914260 140.7995070 147.3186340
   5.3872820 142.0895760 149.8313270   5.0872960 142.2352940 148.9341090
   6.1584060 141.5301050 149.7386660  10.7301270 146.8864760 147.8268400
  10.7445810 145.9545720 147.6087310  10.0226370 146.9724520 148.4658170
  15.8638340 141.0704580 134.0967010  15.7802060 141.5018800 133.2463450
  16.5832530 141.5302930 134.5293830  16.9412480 143.5272100 147.1736980
  16.2160670 144.1200880 146.9766370  17.4687940 143.5195640 146.3750350
  16.8925590 147.9246840 136.8249140  16.2501750 147.2702460 137.0992860
  16.5056250 148.3301930 136.0489810  12.4712070 145.2532270 140.6720830
  12.8235890 144.6560400 140.0122200  11.5874400 144.9276500 140.8429080
   8.5575350 146.0129960 138.0791240   9.2446480 146.5599170 138.4598830
   7.7707770 146.5570690 138.1140850   7.8602560 143.0175990 137.6916600
   8.3165340 143.8281240 137.9176790   7.5090770 142.6999130 138.5235090
  10.1635170 148.5282330 144.9208900  10.8077390 148.7341710 145.5982320
  10.5264610 147.7670730 144.4679750   3.7614340 133.3613640 138.1639120
   3.6328970 133.3531540 139.1124040   2.9376360 133.6996730 137.8130130
  11.4367250 146.5314680 143.6386350  12.0789480 145.8307840 143.7518520
  11.9616600 147.3113120 143.4583240  15.2822970 146.8163300 133.3625490
  15.0560550 146.0993740 133.9550130  14.8919170 146.5675740 132.5247240
  13.2104870 147.3309580 146.8422410  13.5461110 147.9176270 147.5200330
  12.2905210 147.2002290 147.0720200  14.8639220 144.7335240 135.0239650
  14.5760920 145.1947930 135.8117530  15.6591390 144.2733010 135.2923870
   7.0807620 148.2261360 134.9543620   7.0717720 148.9591050 134.3388130
   6.1605980 147.9792940 135.0470580   2.6814260 143.4476250 135.6990380
   2.0742210 144.1875150 135.7085680   3.1563610 143.5375610 134.8728580
  12.2547050 137.6127070 145.3747270  12.6227870 136.7922280 145.7026840
  11.3945250 137.6728960 145.7902920  15.6209080 136.5684010 136.1834830
  14.9922240 136.6729680 135.4693060  15.1261000 136.7880790 136.9728710
  10.0667220 148.2889600 133.6168810  10.1679200 148.0853590 132.6870790
   9.1668960 148.0347880 133.8216590   7.5893110 138.8469960 137.5992710
   6.8809260 139.3156300 138.0406320   7.8737590 138.1891970 138.2337900
   9.2149040 140.2666660 145.5985240   9.7134290 140.7412480 146.2637090
   9.3571990 139.3430180 145.8055270  11.6208540 135.5720620 139.0388500
  11.4976320 135.5906750 138.0898010  12.5693100 135.6199560 139.1586900
   8.7085330 150.8075920 138.3116480   8.9626830 150.7697310 137.3895850
   7.7597810 150.6809250 138.3044730   5.7928130 137.1555040 134.9743420
   6.6418660 137.5925190 134.9083610   5.4259400 137.4675300 135.8015480
  16.4215900 136.4834620 146.4413630  15.9189500 137.2240020 146.7807440
  17.2372560 136.8718620 146.1250420  14.7137910 141.7267800 139.8874990
  13.7728050 141.7418030 140.0622680  15.0281980 140.9403760 140.3335290
   4.6919550 143.4087400 133.4478950   5.4582820 143.2968760 134.0104380
   4.7694240 142.7125370 132.7955720   3.3866310 140.8412470 134.1311840
   3.4669900 139.8939980 134.2429240   4.2786060 141.1719350 134.2372500
  16.7163490 148.8976650 141.5629250  16.8410910 149.7207820 142.0353060
  17.5829050 148.6867380 141.2153400   7.2983330 150.1638170 133.0571950
   8.0911940 150.4527000 132.6053740   6.7787680 149.7330340 132.3784430
  13.4604300 150.0114090 148.9816780  14.4126050 149.9272110 148.9317020
  13.3132520 150.6755800 149.6550570  16.3513500 149.3908300 134.4808690
  16.0655010 148.9773440 133.6662870  16.1533050 150.3196010 134.3609210
   7.8160730 145.3841580 132.9214300   7.7111370 144.7693930 133.6475680
   7.6484950 144.8607470 132.1377310   7.9675050 144.0698380 148.9003530
   7.2020720 144.6383380 148.8158200   8.1491010 143.7774590 148.0071760
  11.0563460 144.4461610 133.5256290  10.5073560 144.8930910 134.1699030
  11.6782720 143.9410860 134.0493960  15.1098400 145.8003710 149.4578550
  15.8507870 146.1379470 148.9546010  14.3471080 145.9695770 148.9048320
   6.7238580 143.4052530 135.4221590   7.1455000 143.2392400 136.2652980
   6.8489420 142.5952760 134.9276730   4.8866000 139.3849080 148.2292570
   4.3562460 138.8940030 147.6015910   5.5554070 139.8133280 147.6950500
   9.2366220 142.4290140 132.6698690   9.7571880 141.7139160 132.3039840
   9.8834620 143.0676010 132.9699200  13.7844060 143.8518540 147.9933760
  14.1985080 144.0063620 148.8424180  12.8495060 143.9773760 148.1559540
  14.2566230 141.1914700 149.9972910  14.8387000 140.4367020 149.9093390
  14.4328000 141.7222140 149.2204390   5.3738300 136.3511450 148.3089860
   5.2795170 135.7332200 147.5840730   4.7935690 137.0777740 148.0819770
   8.1399740 134.9084690 145.3417250   7.6917040 134.9308950 144.4962800
   7.5064940 134.5103710 145.9387550   8.5459290 143.8039020 145.9629690
   8.9647400 144.6471750 145.7905930   7.6267920 143.9411060 145.7336470
  10.8823190 141.5355200 147.3467530  11.0019400 140.9396340 148.0862370
  11.7417190 141.5724890 146.9268830  13.2211090 142.0892390 145.9230040
  12.6946310 142.6135010 145.3195180  13.5642430 142.7219780 146.5539770
   5.6197480 139.4785760 132.3679750   5.4186540 138.6153120 132.7293090
   5.4489530 139.3919120 131.4301350   6.3966710 150.1092030 147.0787420
   5.8587800 150.8338090 146.7596120   6.6500670 149.6322370 146.2884760
   7.6491960 138.0776550 148.6043350   8.2391650 137.7692400 149.2921170
   6.8312200 137.6056300 148.7603250  12.4685390 137.6942360 148.8376370
  11.7800910 137.0323900 148.7726360  13.1891410 137.2480630 149.2824830
  13.0985790 134.2893990 134.8966630  13.3788080 133.4461890 135.2526050
  12.3251520 134.5217100 135.4105380   4.4180280 136.5786380 132.3557630
   4.7206180 136.5853810 131.4476780   5.1574870 136.2284240 132.8525290
   7.6365210 135.5221000 133.3413830   7.2887210 134.8444990 132.7616280
   7.8377980 135.0610510 134.1557220   9.8014250 150.5101750 134.9600430
  10.6965040 150.8486720 134.9819190   9.8331880 149.7881160 134.3324710
   3.4410410 145.8828800 133.1887430   3.8785280 146.4258470 133.8445010
   3.9258140 145.0575750 133.1983770   5.2518130 147.0026840 138.3009660
   4.9513670 146.8791810 139.2013570   5.1455620 146.1435430 137.8925390
  16.7808600 149.0405420 147.6666630  16.1810590 149.0997980 146.9230550
  16.9102500 148.1010400 147.7963480  18.0210050 146.7823240 133.0036340
  17.1903010 146.8499890 133.4743570  18.1981880 147.6727360 132.7003200
  17.4766510 143.5270720 135.5070540  18.2385420 144.0967370 135.6130230
  17.4920880 142.9597920 136.2778850  18.4826480 144.3820820 140.3512470
  18.8535310 143.5988140 139.9448440  19.1228410 145.0709920 140.1729770
  15.4660240 145.7657400 145.7642790  14.6520080 146.1954560 146.0268580
  15.8734440 146.3775810 145.1511840  17.5285680 143.8205090 132.6643060
  17.8034520 144.7283970 132.5362280  17.3396420 143.7567620 133.6005050
  13.9261290 136.8449940 133.9596690  14.3446170 136.6580920 133.1193350
  13.6197350 135.9928990 134.2699620  17.4251020 141.7574080 137.6572490
  17.0494620 140.9902010 137.2253780  16.6954140 142.1396780 138.1447420
   2.0146780 142.4361220 144.2781540   2.3819820 142.3488620 145.1577560
   1.4457600 141.6727770 144.1788400  16.8150640 140.9045600 147.2912010
  16.5836730 140.6758350 146.3909960  17.0755190 141.8245150 147.2456900
  16.7001980 139.9831570 140.9579730  17.2239460 139.4894220 140.3269900
  17.2861400 140.1181930 141.7027300  16.8791700 140.0671440 144.4799280
  15.9294410 140.0334980 144.5944270  17.0604710 140.9771550 144.2449050
   2.7336140 138.3173120 133.5897910   3.4427840 137.8956340 133.1045190
   2.0176080 138.3848350 132.9581260   2.3810300 134.3712450 132.6300560
   3.1038430 134.9121390 132.9481780   2.6534820 134.0975870 131.7542100
  16.1901950 139.2404920 136.8972140  16.6861070 139.0075790 137.6821020
  15.9918020 138.4016760 136.4809780   2.0702490 133.6218640 142.5323180
   2.7178680 133.0716020 142.0918340   2.4904330 133.8761790 143.3538990
  17.6189110 137.8765870 139.4309820  17.5088390 137.7221910 140.3692090
  18.3796700 137.3486810 139.1885230  15.9654830 133.8160000 145.8892820
  16.6027050 134.4294140 146.2552010  16.1129720 133.8520660 144.9442050
  18.5079380 135.7073790 132.6715960  19.4328690 135.5754970 132.4634250
  18.4855170 135.7866610 133.6252410  18.5817870 136.4784450 135.2972670
  17.7869370 136.4129570 135.8265580  18.7861150 137.4135090 135.2858020
  15.5236290 150.5176000 139.2911060  16.1195360 150.1960570 138.6145480
  15.7814440 150.0447820 140.0824330   1.8234490 133.7774310 145.2748500
   1.4749310 134.2338130 146.0406680   1.4922190 132.8831440 145.3570930
   7.1304890 148.5053500 145.0411410   6.8896250 148.7728060 144.1541930
   8.0707530 148.6759230 145.0962270   9.3359310 134.9686190 148.7967920
   9.2748200 135.5608020 149.5463330  10.2759690 134.8612150 148.6518180
  11.9733870 134.6256250 148.4360210  12.5874280 134.9435540 147.7741290
  12.5183430 134.1404840 149.0556070  18.3909050 150.5247880 145.8422050
  17.8967330 150.9216750 145.1249180  17.7822340 149.8997090 146.2359330
   2.4955130 133.3050510 148.5499270   3.0438120 133.1238560 147.7865380
   2.5610440 132.5144620 149.0855580   3.2686890 149.8956160 146.5599470
   2.6747210 149.7640860 147.2989510   3.2610730 149.0594300 146.0941570
  12.7141910 133.1888390 144.7629500  11.8401750 133.5223500 144.5602430
  12.6052660 132.7161570 145.5881370  13.6213890 135.3959260 146.1471220
  13.2927250 134.5811020 145.7672950  14.5696190 135.3529070 146.0236910
   2.8999120 147.2614540 145.5107510   2.1733180 146.6419830 145.4433460
   2.9608270 147.6555150 144.6405590   6.5044220 149.4759540 142.2956920
   7.0209240 148.8646900 141.7705180   7.1541600 149.9788320 142.7867930
   9.2439720 150.3668030 143.1225900   9.5317530 150.1122330 142.2458910
   9.7562940 149.8145390 143.7131470  10.4616730 134.1058230 143.7022410
   9.6788520 134.5803730 143.9819170  10.1679660 133.2013060 143.5935590
  15.0137800 134.8081330 141.7471500  15.4545890 134.7526430 140.8993100
  14.7445390 135.7239340 141.8181680  16.8776370 134.4396570 139.7580320
  16.8164770 133.4957790 139.6111340  17.6568400 134.5476660 140.3033780
   1.8057140 134.4105710 136.2236130   2.5636500 134.5234590 135.6500160
   1.3434310 135.2474910 136.1779560   8.3470950 136.5244980 139.2138440
   7.5345460 136.1501870 138.8734320   8.8512590 135.7690060 139.5159630
  12.8495930 133.1887430 140.4521510  13.4525300 133.7607640 140.9270030
  12.1088920 133.7526870 140.2295410  15.9930530 133.5908990 135.7261790
  16.1881160 134.4892440 135.9929220  15.2060400 133.3596070 136.2194740
   2.7891820 149.2722160 136.1654410   2.2639440 149.6530190 135.4616370
   2.7136400 149.8972930 136.8864120   4.1782290 134.9369760 134.7638100
   4.7075050 134.1499560 134.6346050   4.8110610 135.6160950 134.9973630
   6.3720130 134.6744900 137.8183490   5.7422870 133.9732210 137.9853620
   5.8325270 135.4349030 137.6016650  17.5457140 150.8309700 137.4868350
  17.7209330 150.1447440 136.8429270  16.8478710 151.3556750 137.0945020
   5.3884790 151.2204540 135.0403660   6.1203610 150.9363820 134.4927550
   5.6478460 150.9817820 135.9303040   4.5499580 147.3369270 135.0449990
   3.9208460 147.8054370 135.5935820   4.6647410 146.4918490 135.4796180
  12.0049300 141.3874930 121.1951190  11.9243350 140.4729540 120.9242900
  11.5913720 141.8842000 120.4890900  10.1367340 143.1653950 123.0760460
   9.3609440 142.6854390 123.3659030  10.7880270 142.4859600 122.9016620
   4.1533170 143.4773760 123.9536220   3.3218050 143.2222470 124.3532730
   4.7614150 143.5484530 124.6894140  14.1574770 147.5714140 121.8559590
  13.6956300 146.8001380 122.1846760  14.9700320 147.5980210 122.3612040
   4.1334430 147.5113850 124.1494240   4.4362470 146.6211590 123.9704460
   4.8778020 148.0684070 123.9216490   2.5625120 138.4375650 117.7378610
   1.6741820 138.7791620 117.6358490   2.8466310 138.2375970 116.8459440
  10.3838080 149.8572150 121.4763580   9.7649520 150.3129650 120.9058020
  11.2389860 150.0123610 121.0753280   9.5776330 145.8411140 123.0830620
   9.5084610 144.9001080 122.9219750  10.3396190 145.9312550 123.6553190
   1.7683000 136.4465660 125.4087240   1.5885840 135.5491410 125.6890000
   1.3663080 136.9937530 126.0834190  10.6081500 138.6481520 123.3099550
  10.9846320 137.7753400 123.1973220  10.5101010 138.9840220 122.4189990
   4.7386510 137.0207150 118.7716990   4.8453260 137.9210880 119.0785750
   3.8278870 136.9725120 118.4811640  14.3905620 136.1431960 120.2427890
  15.2115240 135.6528530 120.2853370  14.4239700 136.7329620 120.9959730
   2.3869670 138.9426160 124.0169580   3.0679780 139.2064530 124.6356980
   2.0717720 138.1027030 124.3507590   6.5794240 139.9893520 123.1042170
   7.0872460 140.4874490 123.7447190   7.1107480 139.2128720 122.9281530
  18.6805170 138.1598710 126.8071520  17.9757340 138.5480420 126.2886630
  18.9463090 138.8549000 127.4092450   4.8630340 134.6292080 127.3705590
   4.8648780 135.1464470 126.5651490   4.0334650 134.1522260 127.3475520
  11.2501430 144.7411390 118.8695490  10.6318700 145.2060840 118.3058210
  11.7624680 145.4338870 119.2865000   6.1133190 144.2687260 125.5479090
   5.7802570 144.8956180 126.1900160   6.2899870 144.7949140 124.7680760
  14.6267100 138.0832340 123.0155430  13.9222670 138.3717230 123.5958540
  14.9879260 138.8932450 122.6554990   4.5445670 136.3402040 125.3776040
   4.8862480 137.1844090 125.0829910   3.6061480 136.4885780 125.4941380
   5.3252290 146.2368060 127.3628270   5.9426290 146.9119140 127.0812720
   4.4645410 146.6456040 127.2715770  16.2429880 147.7007470 125.2782910
  15.5593400 148.3706580 125.2699580  16.7824170 147.8988120 124.5127770
  17.6954020 137.5287130 123.4064640  16.7478930 137.5626110 123.5380070
  18.0204010 138.3426080 123.7914000   8.2273560 133.8284310 121.7020630
   8.5348540 133.2731200 120.9856130   7.2974260 133.9628770 121.5193620
  13.7788620 149.5451600 123.9928090  13.7915780 149.1413890 123.1250350
  13.2263840 150.3198890 123.8889520  15.0734040 146.2667820 119.0818260
  14.9630370 145.3242150 119.2067680  15.0702290 146.6283460 119.9681020
  13.1774060 144.4481440 125.3210700  13.5942850 144.2341550 124.4864160
  13.9013880 144.7054230 125.8919320  10.6154320 141.8933140 118.4380750
   9.6883600 141.8270520 118.6669220  10.7679140 142.8313270 118.3235990
  10.6023400 138.1650140 115.4347910   9.6627070 138.3264100 115.5200370
  10.9206660 138.8835820 114.8883900  17.1236160 142.8468660 125.4126940
  16.2954790 142.9161750 124.9377070  17.7186640 143.4322970 124.9442770
  14.6451610 143.4553440 118.9416000  14.0264030 143.1172990 118.2942300
  14.6276060 142.8113200 119.6495190  14.0878170 139.6337980 126.3581810
  13.6749350 140.4591690 126.6121800  13.3554120 139.0483020 126.1658170
   6.2210960 142.4197880 121.2200480   5.8167960 141.7075130 120.7246380
   6.3074080 142.0751120 122.1088520   6.6892660 146.1065440 123.3839690
   6.3920950 145.5010910 122.7047470   7.6392480 146.1442750 123.2729050
   4.9339580 139.1941090 124.9999520   5.4854170 139.3036430 124.2252770
   5.4483090 139.5678690 125.7154750  14.7778270 149.6797310 127.0462790
  14.3008830 150.4869500 126.8535400  14.0940060 149.0275640 127.1989000
   5.7811090 145.8447130 130.0347490   4.8839620 146.0687100 130.2820890
   5.8063960 145.9682070 129.0858890  12.8216310 142.6940250 115.9488750
  13.2609590 141.8562680 115.8026570  13.5344730 143.3269650 116.0352890
   4.6082310 142.7160450 128.6104860   4.4690080 143.5883250 128.9792260
   3.7263670 142.3733260 128.4652800  10.9311690 147.6336320 119.9169990
  11.3707600 148.3760650 119.5025380  10.8698580 147.8762890 120.8408950
   6.4062660 148.6582150 130.8190010   6.3778090 149.0625100 129.9518440
   6.2427630 147.7292510 130.6561610  16.4033450 133.9483060 114.2629790
  16.0906110 134.0409890 115.1628860  17.1645920 134.5264090 114.2127220
   2.9215590 141.3142860 118.7207130   2.8013190 142.0404950 118.1088400
   2.6116480 140.5445770 118.2435040  18.3577480 149.4409250 132.1154180
  18.8337200 149.9192140 132.7943260  18.9784640 149.3726740 131.3899680
   1.8048590 146.1858190 120.9381950   1.3976670 146.3272780 120.0835550
   2.6961600 145.9018350 120.7353160  17.7610730 146.6322100 129.2754190
  17.8873790 146.3933980 128.3571370  17.8032110 145.8006640 129.7476270
  11.6227470 150.3350100 127.8449000  12.1372140 150.2458110 128.6471430
  10.7796550 150.6809800 128.1376910  13.5981870 150.6205440 117.2733000
  13.4383010 150.3308380 118.1714830  13.4328580 149.8445570 116.7378230
   6.0770250 150.4003970 119.0504620   5.9012730 149.4839510 118.8372420
   5.2225990 150.7591260 119.2902420  13.3008000 148.1293000 115.8331000
  12.6073160 148.1270290 115.1733280  14.0430860 147.7052320 115.4025170
  12.8657930 149.7555710 119.9079490  13.3214880 148.9745090 120.2218110
  13.2050450 150.4662530 120.4520670  17.6134740 138.6854560 130.2403930
  16.9979010 139.1934230 129.7119390  17.2931160 137.7852890 130.1829870
   5.3879250 134.6577930 122.1030800   4.9447400 135.4387470 121.7715320
   5.9464240 134.9807820 122.8101740   9.6749060 137.5246450 127.7066120
   9.2128430 137.7329470 128.5186060   9.2727170 136.7105800 127.4036790
  14.6753570 138.7455400 128.8362780  13.8247160 138.4461150 129.1571850
  14.5155360 138.9897410 127.9246600  11.7703280 140.2457150 130.9361570
  12.0956690 139.4120900 130.5963800  12.5583610 140.7685670 131.0839900
   8.5038070 134.2788630 116.9836630   7.8792250 134.2748500 117.7089940
   8.4168190 133.4119590 116.5872600   7.4255150 135.2025260 123.9620400
   7.7227480 136.1088090 123.8812420   7.9740710 134.7144040 123.3479970
   5.1793470 139.7811500 119.8312050   4.9534390 139.5648670 120.7358670
   4.3986000 140.2139960 119.4858020  12.4091230 139.7874870 118.4302700
  11.8100120 140.5110670 118.2466320  12.9570840 139.7251650 117.6479150
   7.6192680 140.6797080 130.4972320   7.5236280 139.7391810 130.3472720
   8.4624660 140.9012150 130.1020390  11.0156100 138.4238410 120.4605980
  11.4085670 138.7410610 119.6474670  11.3772950 137.5450290 120.5750500
   2.7503220 137.0910750 128.6506100   2.3566610 137.9385960 128.8578880
   2.0621620 136.4537120 128.8414740   9.3248270 137.1745720 131.7202840
   8.6346590 136.9817920 132.3548930  10.0680570 137.4580360 132.2527140
  11.6011240 141.0144160 124.5556760  10.8692360 141.5230970 124.9046860
  11.2035580 140.1974140 124.2545540   8.0388630 137.6898360 122.9609250
   8.0424690 137.2488310 122.1113790   8.9339750 138.0115690 123.0681070
   3.8891010 137.5724850 121.9203460   3.5491060 138.0500080 122.6770510
   3.1268330 137.1189970 121.5604560   8.1008780 138.6910440 115.9516010
   8.2221600 138.6496920 116.9001830   7.7157290 139.5534590 115.7962740
  12.0637150 136.4677840 123.9679700  12.0809890 136.9186490 124.8121550
  11.8152730 135.5683480 124.1813140   7.1130280 141.0011580 115.3499310
   6.5447180 140.5529830 114.7235220   7.8219280 141.3604360 114.8164460
  15.4907900 133.8810020 129.8066080  15.8153670 133.1499680 130.3324060
  15.5264410 133.5623660 128.9047070   2.1899460 144.9023600 129.2266040
   1.8054250 144.2617270 129.8249000   2.5011650 145.6059720 129.7960770
   8.3396600 141.7500140 124.7074660   8.7066730 141.2758710 125.4536000
   8.1501660 142.6241710 125.0483000   6.1295970 140.7908780 127.0258870
   5.8253040 141.6700760 127.2509230   7.0842430 140.8508570 127.0616310
   4.6577760 144.9969770 117.6225720   3.8840020 144.4567390 117.4624440
   5.3872390 144.4776380 117.2843480  15.4165740 143.9935130 123.4152110
  16.1364860 144.4890420 123.0248220  15.2147560 143.3153020 122.7705980
  10.8775680 135.3873090 117.5581500  10.0640290 134.8886260 117.4826810
  10.6837630 136.2271340 117.1417850  10.7984540 144.0644190 129.3021110
  10.7321850 143.1439860 129.0478700  10.1689680 144.1619630 130.0165750
  13.5924070 139.7592740 115.8543660  14.4803690 140.0709970 115.6795000
  13.5629160 138.8864990 115.4624240   4.7015160 144.6650150 121.2604530
   5.2193830 143.8618410 121.2061420   4.2499180 144.6029290 122.1021360
   9.5884660 145.9316430 116.5331830   9.9300360 146.6758660 116.0375150
   8.7597370 146.2447550 116.8956660   2.1859700 141.6311520 128.1730230
   1.8274640 142.2965370 128.7603570   1.8914260 140.7995070 128.5442850
   5.3872820 142.0895760 131.0569780   5.0872960 142.2352940 130.1597600
   6.1584060 141.5301050 130.9643170  10.7301270 146.8864760 129.0524910
  10.7445810 145.9545720 128.8343820  10.0226370 146.9724520 129.6914680
  15.8638340 141.0704580 115.3223520  15.7802060 141.5018800 114.4719960
  16.5832530 141.5302930 115.7550340  16.9412480 143.5272100 128.3993490
  16.2160670 144.1200880 128.2022880  17.4687940 143.5195640 127.6006860
  16.8925590 147.9246840 118.0505650  16.2501750 147.2702460 118.3249370
  16.5056250 148.3301930 117.2746320  12.4712070 145.2532270 121.8977340
  12.8235890 144.6560400 121.2378710  11.5874400 144.9276500 122.0685590
   8.5575350 146.0129960 119.3047750   9.2446480 146.5599170 119.6855340
   7.7707770 146.5570690 119.3397360   7.8602560 143.0175990 118.9173110
   8.3165340 143.8281240 119.1433300   7.5090770 142.6999130 119.7491600
  10.1635170 148.5282330 126.1465410  10.8077390 148.7341710 126.8238830
  10.5264610 147.7670730 125.6936260   3.7614340 133.3613640 119.3895630
   3.6328970 133.3531540 120.3380550   2.9376360 133.6996730 119.0386640
  11.4367250 146.5314680 124.8642860  12.0789480 145.8307840 124.9775030
  11.9616600 147.3113120 124.6839750  15.2822970 146.8163300 114.5882000
  15.0560550 146.0993740 115.1806640  14.8919170 146.5675740 113.7503750
  13.2104870 147.3309580 128.0678920  13.5461110 147.9176270 128.7456840
  12.2905210 147.2002290 128.2976710  14.8639220 144.7335240 116.2496160
  14.5760920 145.1947930 117.0374040  15.6591390 144.2733010 116.5180380
   9.0393450 147.3800910 131.2366980   8.7190320 146.6610150 131.7812670
   8.3651810 148.0555980 131.3103040   7.0807620 148.2261360 116.1800130
   7.0717720 148.9591050 115.5644640   6.1605980 147.9792940 116.2727090
   2.6814260 143.4476250 116.9246890   2.0742210 144.1875150 116.9342190
   3.1563610 143.5375610 116.0985090  12.2547050 137.6127070 126.6003780
  12.6227870 136.7922280 126.9283350  11.3945250 137.6728960 127.0159430
  15.6209080 136.5684010 117.4091340  14.9922240 136.6729680 116.6949570
  15.1261000 136.7880790 118.1985220  10.0667220 148.2889600 114.8425320
  10.1679200 148.0853590 113.9127300   9.1668960 148.0347880 115.0473100
   7.5893110 138.8469960 118.8249220   6.8809260 139.3156300 119.2662830
   7.8737590 138.1891970 119.4594410   9.2149040 140.2666660 126.8241750
   9.7134290 140.7412480 127.4893600   9.3571990 139.3430180 127.0311780
  11.6208540 135.5720620 120.2645010  11.4976320 135.5906750 119.3154520
  12.5693100 135.6199560 120.3843410   8.7085330 150.8075920 119.5372990
   8.9626830 150.7697310 118.6152360   7.7597810 150.6809250 119.5301240
   5.7928130 137.1555040 116.1999930   6.6418660 137.5925190 116.1340120
   5.4259400 137.4675300 117.0271990  16.4215900 136.4834620 127.6670140
  15.9189500 137.2240020 128.0063950  17.2372560 136.8718620 127.3506930
  14.7137910 141.7267800 121.1131500  13.7728050 141.7418030 121.2879190
  15.0281980 140.9403760 121.5591800   4.6919550 143.4087400 114.6735460
   5.4582820 143.2968760 115.2360890   4.7694240 142.7125370 114.0212230
   3.3866310 140.8412470 115.3568350   3.4669900 139.8939980 115.4685750
   4.2786060 141.1719350 115.4629010  16.7163490 148.8976650 122.7885760
  16.8410910 149.7207820 123.2609570  17.5829050 148.6867380 122.4409910
   3.1939300 150.1753930 131.6488470   3.9952030 150.4965980 132.0623870
   2.6791120 149.8149510 132.3708380   7.2983330 150.1638170 114.2828460
   8.0911940 150.4527000 113.8310250   6.7787680 149.7330340 113.6040940
  12.0303930 146.2833800 131.5963880  11.4242090 146.3065400 130.8559630
  11.7258040 145.5516840 132.1331130  13.4604300 150.0114090 130.2073290
  14.4126050 149.9272110 130.1573530  13.3132520 150.6755800 130.8807080
  16.3513500 149.3908300 115.7065200  16.0655010 148.9773440 114.8919380
  16.1533050 150.3196010 115.5865720   7.8160730 145.3841580 114.1470810
   7.7111370 144.7693930 114.8732190   7.6484950 144.8607470 113.3633820
   7.9675050 144.0698380 130.1260040   7.2020720 144.6383380 130.0414710
   8.1491010 143.7774590 129.2328270  11.0563460 144.4461610 114.7512800
  10.5073560 144.8930910 115.3955540  11.6782720 143.9410860 115.2750470
  15.1098400 145.8003710 130.6835060  15.8507870 146.1379470 130.1802520
  14.3471080 145.9695770 130.1304830   2.9460190 140.8056980 131.4874590
   2.9865530 140.5070850 132.3959820   3.8005690 141.2064590 131.3282110
   6.7238580 143.4052530 116.6478100   7.1455000 143.2392400 117.4909490
   6.8489420 142.5952760 116.1533240   4.8866000 139.3849080 129.4549080
   4.3562460 138.8940030 128.8272420   5.5554070 139.8133280 128.9207010
   9.2366220 142.4290140 113.8955200   9.7571880 141.7139160 113.5296350
   9.8834620 143.0676010 114.1955710  13.7844060 143.8518540 129.2190270
  14.1985080 144.0063620 130.0680690  12.8495060 143.9773760 129.3816050
  14.2566230 141.1914700 131.2229420  14.8387000 140.4367020 131.1349900
  14.4328000 141.7222140 130.4460900   5.3738300 136.3511450 129.5346370
   5.2795170 135.7332200 128.8097240   4.7935690 137.0777740 129.3076280
   8.1399740 134.9084690 126.5673760   7.6917040 134.9308950 125.7219310
   7.5064940 134.5103710 127.1644060   8.5459290 143.8039020 127.1886200
   8.9647400 144.6471750 127.0162440   7.6267920 143.9411060 126.9592980
  10.8823190 141.5355200 128.5724040  11.0019400 140.9396340 129.3118880
  11.7417190 141.5724890 128.1525340  13.2211090 142.0892390 127.1486550
  12.6946310 142.6135010 126.5451690  13.5642430 142.7219780 127.7796280
   5.6197480 139.4785760 113.5936260   5.4186540 138.6153120 113.9549600
   5.4489530 139.3919120 112.6557860   6.3966710 150.1092030 128.3043930
   5.8587800 150.8338090 127.9852630   6.6500670 149.6322370 127.5141270
   7.6491960 138.0776550 129.8299860   8.2391650 137.7692400 130.5177680
   6.8312200 137.6056300 129.9859760  12.4685390 137.6942360 130.0632880
  11.7800910 137.0323900 129.9982870  13.1891410 137.2480630 130.5081340
  13.0985790 134.2893990 116.1223140  13.3788080 133.4461890 116.4782560
  12.3251520 134.5217100 116.6361890   4.4180280 136.5786380 113.5814140
   4.7206180 136.5853810 112.6733290   5.1574870 136.2284240 114.0781800
   7.6365210 135.5221000 114.5670340   7.2887210 134.8444990 113.9872790
   7.8377980 135.0610510 115.3813730   9.8014250 150.5101750 116.1856940
  10.6965040 150.8486720 116.2075700   9.8331880 149.7881160 115.5581220
   3.4410410 145.8828800 114.4143940   3.8785280 146.4258470 115.0701520
   3.9258140 145.0575750 114.4240280   5.2518130 147.0026840 119.5266170
   4.9513670 146.8791810 120.4270080   5.1455620 146.1435430 119.1181900
  16.7808600 149.0405420 128.8923140  16.1810590 149.0997980 128.1487060
  16.9102500 148.1010400 129.0219990  18.0210050 146.7823240 114.2292850
  17.1903010 146.8499890 114.7000080  18.1981880 147.6727360 113.9259710
  17.4766510 143.5270720 116.7327050  18.2385420 144.0967370 116.8386740
  17.4920880 142.9597920 117.5035360  18.4826480 144.3820820 121.5768980
  18.8535310 143.5988140 121.1704950  19.1228410 145.0709920 121.3986280
  15.4660240 145.7657400 126.9899300  14.6520080 146.1954560 127.2525090
  15.8734440 146.3775810 126.3768350  17.5285680 143.8205090 113.8899570
  17.8034520 144.7283970 113.7618790  17.3396420 143.7567620 114.8261560
  13.9261290 136.8449940 115.1853200  14.3446170 136.6580920 114.3449860
  13.6197350 135.9928990 115.4956130  17.4251020 141.7574080 118.8829000
  17.0494620 140.9902010 118.4510290  16.6954140 142.1396780 119.3703930
   2.0146780 142.4361220 125.5038050   2.3819820 142.3488620 126.3834070
   1.4457600 141.6727770 125.4044910  16.8150640 140.9045600 128.5168520
  16.5836730 140.6758350 127.6166470  17.0755190 141.8245150 128.4713410
  15.2538710 136.1302030 131.2948220  16.1308890 136.1385430 131.6782220
  15.2659550 135.3932870 130.6840570  16.7001980 139.9831570 122.1836240
  17.2239460 139.4894220 121.5526410  17.2861400 140.1181930 122.9283810
  16.8791700 140.0671440 125.7055790  15.9294410 140.0334980 125.8200780
  17.0604710 140.9771550 125.4705560   2.7336140 138.3173120 114.8154420
   3.4427840 137.8956340 114.3301700   2.0176080 138.3848350 114.1837770
   2.3810300 134.3712450 113.8557070   3.1038430 134.9121390 114.1738290
   2.6534820 134.0975870 112.9798610  16.1901950 139.2404920 118.1228650
  16.6861070 139.0075790 118.9077530  15.9918020 138.4016760 117.7066290
   2.0702490 133.6218640 123.7579690   2.7178680 133.0716020 123.3174850
   2.4904330 133.8761790 124.5795500  17.6189110 137.8765870 120.6566330
  17.5088390 137.7221910 121.5948600  18.3796700 137.3486810 120.4141740
  15.9654830 133.8160000 127.1149330  16.6027050 134.4294140 127.4808520
  16.1129720 133.8520660 126.1698560  18.5079380 135.7073790 113.8972470
  19.4328690 135.5754970 113.6890760  18.4855170 135.7866610 114.8508920
  18.5817870 136.4784450 116.5229180  17.7869370 136.4129570 117.0522090
  18.7861150 137.4135090 116.5114530  15.5236290 150.5176000 120.5167570
  16.1195360 150.1960570 119.8401990  15.7814440 150.0447820 121.3080840
   1.8234490 133.7774310 126.5005010   1.4749310 134.2338130 127.2663190
   1.4922190 132.8831440 126.5827440   3.4298860 146.9493910 130.6658200
   3.3868490 146.5786820 131.5472660   3.5609870 147.8871480 130.8060020
   7.1304890 148.5053500 126.2667920   6.8896250 148.7728060 125.3798440
   8.0707530 148.6759230 126.3218780   9.3359310 134.9686190 130.0224430
   9.2748200 135.5608020 130.7719840  10.2759690 134.8612150 129.8774690
  11.9733870 134.6256250 129.6616720  12.5874280 134.9435540 128.9997800
  12.5183430 134.1404840 130.2812580  18.3909050 150.5247880 127.0678560
  17.8967330 150.9216750 126.3505690  17.7822340 149.8997090 127.4615840
   2.4955130 133.3050510 129.7755780   3.0438120 133.1238560 129.0121890
   2.5610440 132.5144620 130.3112090   3.2686890 149.8956160 127.7855980
   2.6747210 149.7640860 128.5246020   3.2610730 149.0594300 127.3198080
  12.7141910 133.1888390 125.9886010  11.8401750 133.5223500 125.7858940
  12.6052660 132.7161570 126.8137880  13.6213890 135.3959260 127.3727730
  13.2927250 134.5811020 126.9929460  14.5696190 135.3529070 127.2493420
   2.8999120 147.2614540 126.7364020   2.1733180 146.6419830 126.6689970
   2.9608270 147.6555150 125.8662100   6.5044220 149.4759540 123.5213430
   7.0209240 148.8646900 122.9961690   7.1541600 149.9788320 124.0124440
   9.2439720 150.3668030 124.3482410   9.5317530 150.1122330 123.4715420
   9.7562940 149.8145390 124.9387980  10.4616730 134.1058230 124.9278920
   9.6788520 134.5803730 125.2075680  10.1679660 133.2013060 124.8192100
  15.0137800 134.8081330 122.9728010  15.4545890 134.7526430 122.1249610
  14.7445390 135.7239340 123.0438190  16.8776370 134.4396570 120.9836830
  16.8164770 133.4957790 120.8367850  17.6568400 134.5476660 121.5290290
   1.8057140 134.4105710 117.4492640   2.5636500 134.5234590 116.8756670
   1.3434310 135.2474910 117.4036070   8.3470950 136.5244980 120.4394950
   7.5345460 136.1501870 120.0990830   8.8512590 135.7690060 120.7416140
  12.8495930 133.1887430 121.6778020  13.4525300 133.7607640 122.1526540
  12.1088920 133.7526870 121.4551920  15.9930530 133.5908990 116.9518300
  16.1881160 134.4892440 117.2185730  15.2060400 133.3596070 117.4451250
   2.7891820 149.2722160 117.3910920   2.2639440 149.6530190 116.6872880
   2.7136400 149.8972930 118.1120630   4.1782290 134.9369760 115.9894610
   4.7075050 134.1499560 115.8602560   4.8110610 135.6160950 116.2230140
   6.3720130 134.6744900 119.0440000   5.7422870 133.9732210 119.2110130
   5.8325270 135.4349030 118.8273160  17.5457140 150.8309700 118.7124860
  17.7209330 150.1447440 118.0685780  16.8478710 151.3556750 118.3201530
   6.4975690 133.9528880 131.4792490   6.2159960 134.4562480 130.7153310
   6.8795390 133.1550630 131.1134620   5.3884790 151.2204540 116.2660170
   6.1203610 150.9363820 115.7184060   5.6478460 150.9817820 117.1559550
   4.5499580 147.3369270 116.2706500   3.9208460 147.8054370 116.8192330
   4.6647410 146.4918490 116.7052690  13.0991150 133.3682460 132.0572960
  12.9856600 133.6877070 132.9524480  13.9160890 133.7694970 131.7610240
  15.8789640 150.5153990 131.5391650  16.6714960 150.0203220 131.3317610
  16.1722790 151.1944130 132.1467260  12.0049300 141.3874930 102.4207700
  11.9243350 140.4729540 102.1499410  11.5913720 141.8842000 101.7147410
  10.1367340 143.1653950 104.3016970   9.3609440 142.6854390 104.5915540
  10.7880270 142.4859600 104.1273130   4.1533170 143.4773760 105.1792730
   3.3218050 143.2222470 105.5789240   4.7614150 143.5484530 105.9150650
  14.1574770 147.5714140 103.0816100  13.6956300 146.8001380 103.4103270
  14.9700320 147.5980210 103.5868550   4.1334430 147.5113850 105.3750750
   4.4362470 146.6211590 105.1960970   4.8778020 148.0684070 105.1473000
   2.5625120 138.4375650  98.9635120   1.6741820 138.7791620  98.8615000
   2.8466310 138.2375970  98.0715950  10.3838080 149.8572150 102.7020090
   9.7649520 150.3129650 102.1314530  11.2389860 150.0123610 102.3009790
   9.5776330 145.8411140 104.3087130   9.5084610 144.9001080 104.1476260
  10.3396190 145.9312550 104.8809700   1.7683000 136.4465660 106.6343750
   1.5885840 135.5491410 106.9146510   1.3663080 136.9937530 107.3090700
  10.6081500 138.6481520 104.5356060  10.9846320 137.7753400 104.4229730
  10.5101010 138.9840220 103.6446500   4.7386510 137.0207150  99.9973500
   4.8453260 137.9210880 100.3042260   3.8278870 136.9725120  99.7068150
  14.3905620 136.1431960 101.4684400  15.2115240 135.6528530 101.5109880
  14.4239700 136.7329620 102.2216240   2.3869670 138.9426160 105.2426090
   3.0679780 139.2064530 105.8613490   2.0717720 138.1027030 105.5764100
   6.5794240 139.9893520 104.3298680   7.0872460 140.4874490 104.9703700
   7.1107480 139.2128720 104.1538040  18.6805170 138.1598710 108.0328030
  17.9757340 138.5480420 107.5143140  18.9463090 138.8549000 108.6348960
   4.8630340 134.6292080 108.5962100   4.8648780 135.1464470 107.7908000
   4.0334650 134.1522260 108.5732030  11.2501430 144.7411390 100.0952000
  10.6318700 145.2060840  99.5314720  11.7624680 145.4338870 100.5121510
   6.1133190 144.2687260 106.7735600   5.7802570 144.8956180 107.4156670
   6.2899870 144.7949140 105.9937270  14.6267100 138.0832340 104.2411940
  13.9222670 138.3717230 104.8215050  14.9879260 138.8932450 103.8811500
   4.5445670 136.3402040 106.6032550   4.8862480 137.1844090 106.3086420
   3.6061480 136.4885780 106.7197890   5.3252290 146.2368060 108.5884780
   5.9426290 146.9119140 108.3069230   4.4645410 146.6456040 108.4972280
  16.2429880 147.7007470 106.5039420  15.5593400 148.3706580 106.4956090
  16.7824170 147.8988120 105.7384280  17.6954020 137.5287130 104.6321150
  16.7478930 137.5626110 104.7636580  18.0204010 138.3426080 105.0170510
   8.2273560 133.8284310 102.9277140   8.5348540 133.2731200 102.2112640
   7.2974260 133.9628770 102.7450130  13.7788620 149.5451600 105.2184600
  13.7915780 149.1413890 104.3506860  13.2263840 150.3198890 105.1146030
  15.0734040 146.2667820 100.3074770  14.9630370 145.3242150 100.4324190
  15.0702290 146.6283460 101.1937530  13.1774060 144.4481440 106.5467210
  13.5942850 144.2341550 105.7120670  13.9013880 144.7054230 107.1175830
  10.6154320 141.8933140  99.6637260   9.6883600 141.8270520  99.8925730
  10.7679140 142.8313270  99.5492500  10.6023400 138.1650140  96.6604420
   9.6627070 138.3264100  96.7456880  10.9206660 138.8835820  96.1140410
  17.1236160 142.8468660 106.6383450  16.2954790 142.9161750 106.1633580
  17.7186640 143.4322970 106.1699280  14.6451610 143.4553440 100.1672510
  14.0264030 143.1172990  99.5198810  14.6276060 142.8113200 100.8751700
  14.0878170 139.6337980 107.5838320  13.6749350 140.4591690 107.8378310
  13.3554120 139.0483020 107.3914680   6.2210960 142.4197880 102.4456990
   5.8167960 141.7075130 101.9502890   6.3074080 142.0751120 103.3345030
   6.6892660 146.1065440 104.6096200   6.3920950 145.5010910 103.9303980
   7.6392480 146.1442750 104.4985560   4.9339580 139.1941090 106.2256030
   5.4854170 139.3036430 105.4509280   5.4483090 139.5678690 106.9411260
  14.7778270 149.6797310 108.2719300  14.3008830 150.4869500 108.0791910
  14.0940060 149.0275640 108.4245510   5.7811090 145.8447130 111.2604000
   4.8839620 146.0687100 111.5077400   5.8063960 145.9682070 110.3115400
  12.8216310 142.6940250  97.1745260  13.2609590 141.8562680  97.0283080
  13.5344730 143.3269650  97.2609400   4.6082310 142.7160450 109.8361370
   4.4690080 143.5883250 110.2048770   3.7263670 142.3733260 109.6909310
  10.9311690 147.6336320 101.1426500  11.3707600 148.3760650 100.7281890
  10.8698580 147.8762890 102.0665460   6.4062660 148.6582150 112.0446520
   6.3778090 149.0625100 111.1774950   6.2427630 147.7292510 111.8818120
  16.4033450 133.9483060  95.4886300  16.0906110 134.0409890  96.3885370
  17.1645920 134.5264090  95.4383730   2.9215590 141.3142860  99.9463640
   2.8013190 142.0404950  99.3344910   2.6116480 140.5445770  99.4691550
  18.3577480 149.4409250 113.3410690  18.8337200 149.9192140 114.0199770
  18.9784640 149.3726740 112.6156190   1.8048590 146.1858190 102.1638460
   1.3976670 146.3272780 101.3092060   2.6961600 145.9018350 101.9609670
  17.7610730 146.6322100 110.5010700  17.8873790 146.3933980 109.5827880
  17.8032110 145.8006640 110.9732780  11.6227470 150.3350100 109.0705510
  12.1372140 150.2458110 109.8727940  10.7796550 150.6809800 109.3633420
  13.5981870 150.6205440  98.4989510  13.4383010 150.3308380  99.3971340
  13.4328580 149.8445570  97.9634740   6.0770250 150.4003970 100.2761130
   5.9012730 149.4839510 100.0628930   5.2225990 150.7591260 100.5158930
  13.3008000 148.1293000  97.0587510  12.6073160 148.1270290  96.3989790
  14.0430860 147.7052320  96.6281680  12.8657930 149.7555710 101.1336000
  13.3214880 148.9745090 101.4474620  13.2050450 150.4662530 101.6777180
  17.6134740 138.6854560 111.4660440  16.9979010 139.1934230 110.9375900
  17.2931160 137.7852890 111.4086380   5.3879250 134.6577930 103.3287310
   4.9447400 135.4387470 102.9971830   5.9464240 134.9807820 104.0358250
   9.6749060 137.5246450 108.9322630   9.2128430 137.7329470 109.7442570
   9.2727170 136.7105800 108.6293300  14.6753570 138.7455400 110.0619290
  13.8247160 138.4461150 110.3828360  14.5155360 138.9897410 109.1503110
  11.7703280 140.2457150 112.1618080  12.0956690 139.4120900 111.8220310
  12.5583610 140.7685670 112.3096410   8.5038070 134.2788630  98.2093140
   7.8792250 134.2748500  98.9346450   8.4168190 133.4119590  97.8129110
   7.4255150 135.2025260 105.1876910   7.7227480 136.1088090 105.1068930
   7.9740710 134.7144040 104.5736480   5.1793470 139.7811500 101.0568560
   4.9534390 139.5648670 101.9615180   4.3986000 140.2139960 100.7114530
  12.4091230 139.7874870  99.6559210  11.8100120 140.5110670  99.4722830
  12.9570840 139.7251650  98.8735660   7.6192680 140.6797080 111.7228830
   7.5236280 139.7391810 111.5729230   8.4624660 140.9012150 111.3276900
  11.0156100 138.4238410 101.6862490  11.4085670 138.7410610 100.8731180
  11.3772950 137.5450290 101.8007010   2.7503220 137.0910750 109.8762610
   2.3566610 137.9385960 110.0835390   2.0621620 136.4537120 110.0671250
   9.3248270 137.1745720 112.9459350   8.6346590 136.9817920 113.5805440
  10.0680570 137.4580360 113.4783650  11.6011240 141.0144160 105.7813270
  10.8692360 141.5230970 106.1303370  11.2035580 140.1974140 105.4802050
   8.0388630 137.6898360 104.1865760   8.0424690 137.2488310 103.3370300
   8.9339750 138.0115690 104.2937580   3.8891010 137.5724850 103.1459970
   3.5491060 138.0500080 103.9027020   3.1268330 137.1189970 102.7861070
   8.1008780 138.6910440  97.1772520   8.2221600 138.6496920  98.1258340
   7.7157290 139.5534590  97.0219250  12.0637150 136.4677840 105.1936210
  12.0809890 136.9186490 106.0378060  11.8152730 135.5683480 105.4069650
   7.1130280 141.0011580  96.5755820   6.5447180 140.5529830  95.9491730
   7.8219280 141.3604360  96.0420970  15.4907900 133.8810020 111.0322590
  15.8153670 133.1499680 111.5580570  15.5264410 133.5623660 110.1303580
   2.1899460 144.9023600 110.4522550   1.8054250 144.2617270 111.0505510
   2.5011650 145.6059720 111.0217280   8.3396600 141.7500140 105.9331170
   8.7066730 141.2758710 106.6792510   8.1501660 142.6241710 106.2739510
   6.1295970 140.7908780 108.2515380   5.8253040 141.6700760 108.4765740
   7.0842430 140.8508570 108.2872820   4.6577760 144.9969770  98.8482230
   3.8840020 144.4567390  98.6880950   5.3872390 144.4776380  98.5099990
  15.4165740 143.9935130 104.6408620  16.1364860 144.4890420 104.2504730
  15.2147560 143.3153020 103.9962490  10.8775680 135.3873090  98.7838010
  10.0640290 134.8886260  98.7083320  10.6837630 136.2271340  98.3674360
  10.7984540 144.0644190 110.5277620  10.7321850 143.1439860 110.2735210
  10.1689680 144.1619630 111.2422260  13.5924070 139.7592740  97.0800170
  14.4803690 140.0709970  96.9051510  13.5629160 138.8864990  96.6880750
   4.7015160 144.6650150 102.4861040   5.2193830 143.8618410 102.4317930
   4.2499180 144.6029290 103.3277870   9.5884660 145.9316430  97.7588340
   9.9300360 146.6758660  97.2631660   8.7597370 146.2447550  98.1213170
   2.1859700 141.6311520 109.3986740   1.8274640 142.2965370 109.9860080
   1.8914260 140.7995070 109.7699360   5.3872820 142.0895760 112.2826290
   5.0872960 142.2352940 111.3854110   6.1584060 141.5301050 112.1899680
  10.7301270 146.8864760 110.2781420  10.7445810 145.9545720 110.0600330
  10.0226370 146.9724520 110.9171190  15.8638340 141.0704580  96.5480030
  15.7802060 141.5018800  95.6976470  16.5832530 141.5302930  96.9806850
  16.9412480 143.5272100 109.6250000  16.2160670 144.1200880 109.4279390
  17.4687940 143.5195640 108.8263370  16.8925590 147.9246840  99.2762160
  16.2501750 147.2702460  99.5505880  16.5056250 148.3301930  98.5002830
  12.4712070 145.2532270 103.1233850  12.8235890 144.6560400 102.4635220
  11.5874400 144.9276500 103.2942100   8.5575350 146.0129960 100.5304260
   9.2446480 146.5599170 100.9111850   7.7707770 146.5570690 100.5653870
   7.8602560 143.0175990 100.1429620   8.3165340 143.8281240 100.3689810
   7.5090770 142.6999130 100.9748110  10.1635170 148.5282330 107.3721920
  10.8077390 148.7341710 108.0495340  10.5264610 147.7670730 106.9192770
   3.7614340 133.3613640 100.6152140   3.6328970 133.3531540 101.5637060
   2.9376360 133.6996730 100.2643150  11.4367250 146.5314680 106.0899370
  12.0789480 145.8307840 106.2031540  11.9616600 147.3113120 105.9096260
  15.2822970 146.8163300  95.8138510  15.0560550 146.0993740  96.4063150
  14.8919170 146.5675740  94.9760260  13.2104870 147.3309580 109.2935430
  13.5461110 147.9176270 109.9713350  12.2905210 147.2002290 109.5233220
  14.8639220 144.7335240  97.4752670  14.5760920 145.1947930  98.2630550
  15.6591390 144.2733010  97.7436890   9.0393450 147.3800910 112.4623490
   8.7190320 146.6610150 113.0069180   8.3651810 148.0555980 112.5359550
   7.0807620 148.2261360  97.4056640   7.0717720 148.9591050  96.7901150
   6.1605980 147.9792940  97.4983600   2.6814260 143.4476250  98.1503400
   2.0742210 144.1875150  98.1598700   3.1563610 143.5375610  97.3241600
  12.2547050 137.6127070 107.8260290  12.6227870 136.7922280 108.1539860
  11.3945250 137.6728960 108.2415940  15.6209080 136.5684010  98.6347850
  14.9922240 136.6729680  97.9206080  15.1261000 136.7880790  99.4241730
  10.0667220 148.2889600  96.0681830  10.1679200 148.0853590  95.1383810
   9.1668960 148.0347880  96.2729610   7.5893110 138.8469960 100.0505730
   6.8809260 139.3156300 100.4919340   7.8737590 138.1891970 100.6850920
   9.2149040 140.2666660 108.0498260   9.7134290 140.7412480 108.7150110
   9.3571990 139.3430180 108.2568290  11.6208540 135.5720620 101.4901520
  11.4976320 135.5906750 100.5411030  12.5693100 135.6199560 101.6099920
   8.7085330 150.8075920 100.7629500   8.9626830 150.7697310  99.8408870
   7.7597810 150.6809250 100.7557750   5.7928130 137.1555040  97.4256440
   6.6418660 137.5925190  97.3596630   5.4259400 137.4675300  98.2528500
  16.4215900 136.4834620 108.8926650  15.9189500 137.2240020 109.2320460
  17.2372560 136.8718620 108.5763440  14.7137910 141.7267800 102.3388010
  13.7728050 141.7418030 102.5135700  15.0281980 140.9403760 102.7848310
   4.6919550 143.4087400  95.8991970   5.4582820 143.2968760  96.4617400
   4.7694240 142.7125370  95.2468740   3.3866310 140.8412470  96.5824860
   3.4669900 139.8939980  96.6942260   4.2786060 141.1719350  96.6885520
  16.7163490 148.8976650 104.0142270  16.8410910 149.7207820 104.4866080
  17.5829050 148.6867380 103.6666420   3.1939300 150.1753930 112.8744980
   3.9952030 150.4965980 113.2880380   2.6791120 149.8149510 113.5964890
   7.2983330 150.1638170  95.5084970   8.0911940 150.4527000  95.0566760
   6.7787680 149.7330340  94.8297450  12.0303930 146.2833800 112.8220390
  11.4242090 146.3065400 112.0816140  11.7258040 145.5516840 113.3587640
  13.4604300 150.0114090 111.4329800  14.4126050 149.9272110 111.3830040
  13.3132520 150.6755800 112.1063590  16.3513500 149.3908300  96.9321710
  16.0655010 148.9773440  96.1175890  16.1533050 150.3196010  96.8122230
   7.8160730 145.3841580  95.3727320   7.7111370 144.7693930  96.0988700
   7.6484950 144.8607470  94.5890330   7.9675050 144.0698380 111.3516550
   7.2020720 144.6383380 111.2671220   8.1491010 143.7774590 110.4584780
  11.0563460 144.4461610  95.9769310  10.5073560 144.8930910  96.6212050
  11.6782720 143.9410860  96.5006980  15.1098400 145.8003710 111.9091570
  15.8507870 146.1379470 111.4059030  14.3471080 145.9695770 111.3561340
   2.9460190 140.8056980 112.7131100   2.9865530 140.5070850 113.6216330
   3.8005690 141.2064590 112.5538620   6.7238580 143.4052530  97.8734610
   7.1455000 143.2392400  98.7166000   6.8489420 142.5952760  97.3789750
   4.8866000 139.3849080 110.6805590   4.3562460 138.8940030 110.0528930
   5.5554070 139.8133280 110.1463520   9.2366220 142.4290140  95.1211710
   9.7571880 141.7139160  94.7552860   9.8834620 143.0676010  95.4212220
  13.7844060 143.8518540 110.4446780  14.1985080 144.0063620 111.2937200
  12.8495060 143.9773760 110.6072560  14.2566230 141.1914700 112.4485930
  14.8387000 140.4367020 112.3606410  14.4328000 141.7222140 111.6717410
   5.3738300 136.3511450 110.7602880   5.2795170 135.7332200 110.0353750
   4.7935690 137.0777740 110.5332790   8.1399740 134.9084690 107.7930270
   7.6917040 134.9308950 106.9475820   7.5064940 134.5103710 108.3900570
   8.5459290 143.8039020 108.4142710   8.9647400 144.6471750 108.2418950
   7.6267920 143.9411060 108.1849490  10.8823190 141.5355200 109.7980550
  11.0019400 140.9396340 110.5375390  11.7417190 141.5724890 109.3781850
  13.2211090 142.0892390 108.3743060  12.6946310 142.6135010 107.7708200
  13.5642430 142.7219780 109.0052790   5.6197480 139.4785760  94.8192770
   5.4186540 138.6153120  95.1806110   5.4489530 139.3919120  93.8814370
   6.3966710 150.1092030 109.5300440   5.8587800 150.8338090 109.2109140
   6.6500670 149.6322370 108.7397780   7.6491960 138.0776550 111.0556370
   8.2391650 137.7692400 111.7434190   6.8312200 137.6056300 111.2116270
  12.4685390 137.6942360 111.2889390  11.7800910 137.0323900 111.2239380
  13.1891410 137.2480630 111.7337850  13.0985790 134.2893990  97.3479650
  13.3788080 133.4461890  97.7039070  12.3251520 134.5217100  97.8618400
   4.4180280 136.5786380  94.8070650   4.7206180 136.5853810  93.8989800
   5.1574870 136.2284240  95.3038310   7.6365210 135.5221000  95.7926850
   7.2887210 134.8444990  95.2129300   7.8377980 135.0610510  96.6070240
   9.8014250 150.5101750  97.4113450  10.6965040 150.8486720  97.4332210
   9.8331880 149.7881160  96.7837730   3.4410410 145.8828800  95.6400450
   3.8785280 146.4258470  96.2958030   3.9258140 145.0575750  95.6496790
   5.2518130 147.0026840 100.7522680   4.9513670 146.8791810 101.6526590
   5.1455620 146.1435430 100.3438410  16.7808600 149.0405420 110.1179650
  16.1810590 149.0997980 109.3743570  16.9102500 148.1010400 110.2476500
  18.0210050 146.7823240  95.4549360  17.1903010 146.8499890  95.9256590
  18.1981880 147.6727360  95.1516220  17.4766510 143.5270720  97.9583560
  18.2385420 144.0967370  98.0643250  17.4920880 142.9597920  98.7291870
  18.4826480 144.3820820 102.8025490  18.8535310 143.5988140 102.3961460
  19.1228410 145.0709920 102.6242790  15.4660240 145.7657400 108.2155810
  14.6520080 146.1954560 108.4781600  15.8734440 146.3775810 107.6024860
  17.5285680 143.8205090  95.1156080  17.8034520 144.7283970  94.9875300
  17.3396420 143.7567620  96.0518070  13.9261290 136.8449940  96.4109710
  14.3446170 136.6580920  95.5706370  13.6197350 135.9928990  96.7212640
  17.4251020 141.7574080 100.1085510  17.0494620 140.9902010  99.6766800
  16.6954140 142.1396780 100.5960440   2.0146780 142.4361220 106.7294560
   2.3819820 142.3488620 107.6090580   1.4457600 141.6727770 106.6301420
  16.8150640 140.9045600 109.7425030  16.5836730 140.6758350 108.8422980
  17.0755190 141.8245150 109.6969920  15.2538710 136.1302030 112.5204730
  16.1308890 136.1385430 112.9038730  15.2659550 135.3932870 111.9097080
  16.7001980 139.9831570 103.4092750  17.2239460 139.4894220 102.7782920
  17.2861400 140.1181930 104.1540320  16.8791700 140.0671440 106.9312300
  15.9294410 140.0334980 107.0457290  17.0604710 140.9771550 106.6962070
   2.7336140 138.3173120  96.0410930   3.4427840 137.8956340  95.5558210
   2.0176080 138.3848350  95.4094280   2.3810300 134.3712450  95.0813580
   3.1038430 134.9121390  95.3994800   2.6534820 134.0975870  94.2055120
  16.1901950 139.2404920  99.3485160  16.6861070 139.0075790 100.1334040
  15.9918020 138.4016760  98.9322800   2.0702490 133.6218640 104.9836200
   2.7178680 133.0716020 104.5431360   2.4904330 133.8761790 105.8052010
  17.6189110 137.8765870 101.8822840  17.5088390 137.7221910 102.8205110
  18.3796700 137.3486810 101.6398250  15.9654830 133.8160000 108.3405840
  16.6027050 134.4294140 108.7065030  16.1129720 133.8520660 107.3955070
  18.5079380 135.7073790  95.1228980  19.4328690 135.5754970  94.9147270
  18.4855170 135.7866610  96.0765430  18.5817870 136.4784450  97.7485690
  17.7869370 136.4129570  98.2778600  18.7861150 137.4135090  97.7371040
  15.5236290 150.5176000 101.7424080  16.1195360 150.1960570 101.0658500
  15.7814440 150.0447820 102.5337350   1.8234490 133.7774310 107.7261520
   1.4749310 134.2338130 108.4919700   1.4922190 132.8831440 107.8083950
   3.4298860 146.9493910 111.8914710   3.3868490 146.5786820 112.7729170
   3.5609870 147.8871480 112.0316530   7.1304890 148.5053500 107.4924430
   6.8896250 148.7728060 106.6054950   8.0707530 148.6759230 107.5475290
   9.3359310 134.9686190 111.2480940   9.2748200 135.5608020 111.9976350
  10.2759690 134.8612150 111.1031200  11.9733870 134.6256250 110.8873230
  12.5874280 134.9435540 110.2254310  12.5183430 134.1404840 111.5069090
  18.3909050 150.5247880 108.2935070  17.8967330 150.9216750 107.5762200
  17.7822340 149.8997090 108.6872350   2.4955130 133.3050510 111.0012290
   3.0438120 133.1238560 110.2378400   2.5610440 132.5144620 111.5368600
   3.2686890 149.8956160 109.0112490   2.6747210 149.7640860 109.7502530
   3.2610730 149.0594300 108.5454590  12.7141910 133.1888390 107.2142520
  11.8401750 133.5223500 107.0115450  12.6052660 132.7161570 108.0394390
  13.6213890 135.3959260 108.5984240  13.2927250 134.5811020 108.2185970
  14.5696190 135.3529070 108.4749930   2.8999120 147.2614540 107.9620530
   2.1733180 146.6419830 107.8946480   2.9608270 147.6555150 107.0918610
   6.5044220 149.4759540 104.7469940   7.0209240 148.8646900 104.2218200
   7.1541600 149.9788320 105.2380950   9.2439720 150.3668030 105.5738920
   9.5317530 150.1122330 104.6971930   9.7562940 149.8145390 106.1644490
  10.4616730 134.1058230 106.1535430   9.6788520 134.5803730 106.4332190
  10.1679660 133.2013060 106.0448610  15.0137800 134.8081330 104.1984520
  15.4545890 134.7526430 103.3506120  14.7445390 135.7239340 104.2694700
  16.8776370 134.4396570 102.2093340  16.8164770 133.4957790 102.0624360
  17.6568400 134.5476660 102.7546800   1.8057140 134.4105710  98.6749150
   2.5636500 134.5234590  98.1013180   1.3434310 135.2474910  98.6292580
   8.3470950 136.5244980 101.6651460   7.5345460 136.1501870 101.3247340
   8.8512590 135.7690060 101.9672650  12.8495930 133.1887430 102.9034530
  13.4525300 133.7607640 103.3783050  12.1088920 133.7526870 102.6808430
  15.9930530 133.5908990  98.1774810  16.1881160 134.4892440  98.4442240
  15.2060400 133.3596070  98.6707760   2.7891820 149.2722160  98.6167430
   2.2639440 149.6530190  97.9129390   2.7136400 149.8972930  99.3377140
   4.1782290 134.9369760  97.2151120   4.7075050 134.1499560  97.0859070
   4.8110610 135.6160950  97.4486650   6.3720130 134.6744900 100.2696510
   5.7422870 133.9732210 100.4366640   5.8325270 135.4349030 100.0529670
  17.5457140 150.8309700  99.9381370  17.7209330 150.1447440  99.2942290
  16.8478710 151.3556750  99.5458040   6.4975690 133.9528880 112.7049000
   6.2159960 134.4562480 111.9409820   6.8795390 133.1550630 112.3391130
   5.3884790 151.2204540  97.4916680   6.1203610 150.9363820  96.9440570
   5.6478460 150.9817820  98.3816060   4.5499580 147.3369270  97.4963010
   3.9208460 147.8054370  98.0448840   4.6647410 146.4918490  97.9309200
  13.0991150 133.3682460 113.2829470  12.9856600 133.6877070 114.1780990
  13.9160890 133.7694970 112.9866750  15.8789640 150.5153990 112.7648160
  16.6714960 150.0203220 112.5574120  16.1722790 151.1944130 113.3723770
  12.0049300 141.3874930  83.6464210  11.9243350 140.4729540  83.3755920
  11.5913720 141.8842000  82.9403920  10.1367340 143.1653950  85.5273480
   9.3609440 142.6854390  85.8172050  10.7880270 142.4859600  85.3529640
   4.1533170 143.4773760  86.4049240   3.3218050 143.2222470  86.8045750
   4.7614150 143.5484530  87.1407160  14.1574770 147.5714140  84.3072610
  13.6956300 146.8001380  84.6359780  14.9700320 147.5980210  84.8125060
   4.1334430 147.5113850  86.6007260   4.4362470 146.6211590  86.4217480
   4.8778020 148.0684070  86.3729510   2.5625120 138.4375650  80.1891630
   1.6741820 138.7791620  80.0871510   2.8466310 138.2375970  79.2972460
  10.3838080 149.8572150  83.9276600   9.7649520 150.3129650  83.3571040
  11.2389860 150.0123610  83.5266300   9.5776330 145.8411140  85.5343640
   9.5084610 144.9001080  85.3732770  10.3396190 145.9312550  86.1066210
   1.7683000 136.4465660  87.8600260   1.5885840 135.5491410  88.1403020
   1.3663080 136.9937530  88.5347210  10.6081500 138.6481520  85.7612570
  10.9846320 137.7753400  85.6486240  10.5101010 138.9840220  84.8703010
   4.7386510 137.0207150  81.2230010   4.8453260 137.9210880  81.5298770
   3.8278870 136.9725120  80.9324660  14.3905620 136.1431960  82.6940910
  15.2115240 135.6528530  82.7366390  14.4239700 136.7329620  83.4472750
   2.3869670 138.9426160  86.4682600   3.0679780 139.2064530  87.0870000
   2.0717720 138.1027030  86.8020610   6.5794240 139.9893520  85.5555190
   7.0872460 140.4874490  86.1960210   7.1107480 139.2128720  85.3794550
  18.6805170 138.1598710  89.2584540  17.9757340 138.5480420  88.7399650
  18.9463090 138.8549000  89.8605470   4.8630340 134.6292080  89.8218610
   4.8648780 135.1464470  89.0164510   4.0334650 134.1522260  89.7988540
  11.2501430 144.7411390  81.3208510  10.6318700 145.2060840  80.7571230
  11.7624680 145.4338870  81.7378020   6.1133190 144.2687260  87.9992110
   5.7802570 144.8956180  88.6413180   6.2899870 144.7949140  87.2193780
  14.6267100 138.0832340  85.4668450  13.9222670 138.3717230  86.0471560
  14.9879260 138.8932450  85.1068010   4.5445670 136.3402040  87.8289060
   4.8862480 137.1844090  87.5342930   3.6061480 136.4885780  87.9454400
   5.3252290 146.2368060  89.8141290   5.9426290 146.9119140  89.5325740
   4.4645410 146.6456040  89.7228790  16.2429880 147.7007470  87.7295930
  15.5593400 148.3706580  87.7212600  16.7824170 147.8988120  86.9640790
  17.6954020 137.5287130  85.8577660  16.7478930 137.5626110  85.9893090
  18.0204010 138.3426080  86.2427020   8.2273560 133.8284310  84.1533650
   8.5348540 133.2731200  83.4369150   7.2974260 133.9628770  83.9706640
  13.7788620 149.5451600  86.4441110  13.7915780 149.1413890  85.5763370
  13.2263840 150.3198890  86.3402540  15.0734040 146.2667820  81.5331280
  14.9630370 145.3242150  81.6580700  15.0702290 146.6283460  82.4194040
  13.1774060 144.4481440  87.7723720  13.5942850 144.2341550  86.9377180
  13.9013880 144.7054230  88.3432340  10.6154320 141.8933140  80.8893770
   9.6883600 141.8270520  81.1182240  10.7679140 142.8313270  80.7749010
  10.6023400 138.1650140  77.8860930   9.6627070 138.3264100  77.9713390
  10.9206660 138.8835820  77.3396920  17.1236160 142.8468660  87.8639960
  16.2954790 142.9161750  87.3890090  17.7186640 143.4322970  87.3955790
  14.6451610 143.4553440  81.3929020  14.0264030 143.1172990  80.7455320
  14.6276060 142.8113200  82.1008210  14.0878170 139.6337980  88.8094830
  13.6749350 140.4591690  89.0634820  13.3554120 139.0483020  88.6171190
   6.2210960 142.4197880  83.6713500   5.8167960 141.7075130  83.1759400
   6.3074080 142.0751120  84.5601540   6.6892660 146.1065440  85.8352710
   6.3920950 145.5010910  85.1560490   7.6392480 146.1442750  85.7242070
   4.9339580 139.1941090  87.4512540   5.4854170 139.3036430  86.6765790
   5.4483090 139.5678690  88.1667770  14.7778270 149.6797310  89.4975810
  14.3008830 150.4869500  89.3048420  14.0940060 149.0275640  89.6502020
   5.7811090 145.8447130  92.4860510   4.8839620 146.0687100  92.7333910
   5.8063960 145.9682070  91.5371910  12.8216310 142.6940250  78.4001770
  13.2609590 141.8562680  78.2539590  13.5344730 143.3269650  78.4865910
   4.6082310 142.7160450  91.0617880   4.4690080 143.5883250  91.4305280
   3.7263670 142.3733260  90.9165820  10.9311690 147.6336320  82.3683010
  11.3707600 148.3760650  81.9538400  10.8698580 147.8762890  83.2921970
   6.4062660 148.6582150  93.2703030   6.3778090 149.0625100  92.4031460
   6.2427630 147.7292510  93.1074630  16.4033450 133.9483060  76.7142810
  16.0906110 134.0409890  77.6141880  17.1645920 134.5264090  76.6640240
   2.9215590 141.3142860  81.1720150   2.8013190 142.0404950  80.5601420
   2.6116480 140.5445770  80.6948060  18.3577480 149.4409250  94.5667200
  18.8337200 149.9192140  95.2456280  18.9784640 149.3726740  93.8412700
   1.8048590 146.1858190  83.3894970   1.3976670 146.3272780  82.5348570
   2.6961600 145.9018350  83.1866180  17.7610730 146.6322100  91.7267210
  17.8873790 146.3933980  90.8084390  17.8032110 145.8006640  92.1989290
  11.6227470 150.3350100  90.2962020  12.1372140 150.2458110  91.0984450
  10.7796550 150.6809800  90.5889930  13.5981870 150.6205440  79.7246020
  13.4383010 150.3308380  80.6227850  13.4328580 149.8445570  79.1891250
   6.0770250 150.4003970  81.5017640   5.9012730 149.4839510  81.2885440
   5.2225990 150.7591260  81.7415440  13.3008000 148.1293000  78.2844020
  12.6073160 148.1270290  77.6246300  14.0430860 147.7052320  77.8538190
  12.8657930 149.7555710  82.3592510  13.3214880 148.9745090  82.6731130
  13.2050450 150.4662530  82.9033690  17.6134740 138.6854560  92.6916950
  16.9979010 139.1934230  92.1632410  17.2931160 137.7852890  92.6342890
   5.3879250 134.6577930  84.5543820   4.9447400 135.4387470  84.2228340
   5.9464240 134.9807820  85.2614760   9.6749060 137.5246450  90.1579140
   9.2128430 137.7329470  90.9699080   9.2727170 136.7105800  89.8549810
  14.6753570 138.7455400  91.2875800  13.8247160 138.4461150  91.6084870
  14.5155360 138.9897410  90.3759620  11.7703280 140.2457150  93.3874590
  12.0956690 139.4120900  93.0476820  12.5583610 140.7685670  93.5352920
   8.5038070 134.2788630  79.4349650   7.8792250 134.2748500  80.1602960
   8.4168190 133.4119590  79.0385620   7.4255150 135.2025260  86.4133420
   7.7227480 136.1088090  86.3325440   7.9740710 134.7144040  85.7992990
   5.1793470 139.7811500  82.2825070   4.9534390 139.5648670  83.1871690
   4.3986000 140.2139960  81.9371040  12.4091230 139.7874870  80.8815720
  11.8100120 140.5110670  80.6979340  12.9570840 139.7251650  80.0992170
   7.6192680 140.6797080  92.9485340   7.5236280 139.7391810  92.7985740
   8.4624660 140.9012150  92.5533410  11.0156100 138.4238410  82.9119000
  11.4085670 138.7410610  82.0987690  11.3772950 137.5450290  83.0263520
   2.7503220 137.0910750  91.1019120   2.3566610 137.9385960  91.3091900
   2.0621620 136.4537120  91.2927760   9.3248270 137.1745720  94.1715860
   8.6346590 136.9817920  94.8061950  10.0680570 137.4580360  94.7040160
  11.6011240 141.0144160  87.0069780  10.8692360 141.5230970  87.3559880
  11.2035580 140.1974140  86.7058560   8.0388630 137.6898360  85.4122270
   8.0424690 137.2488310  84.5626810   8.9339750 138.0115690  85.5194090
   3.8891010 137.5724850  84.3716480   3.5491060 138.0500080  85.1283530
   3.1268330 137.1189970  84.0117580   8.1008780 138.6910440  78.4029030
   8.2221600 138.6496920  79.3514850   7.7157290 139.5534590  78.2475760
  12.0637150 136.4677840  86.4192720  12.0809890 136.9186490  87.2634570
  11.8152730 135.5683480  86.6326160   7.1130280 141.0011580  77.8012330
   6.5447180 140.5529830  77.1748240   7.8219280 141.3604360  77.2677480
  15.4907900 133.8810020  92.2579100  15.8153670 133.1499680  92.7837080
  15.5264410 133.5623660  91.3560090   2.1899460 144.9023600  91.6779060
   1.8054250 144.2617270  92.2762020   2.5011650 145.6059720  92.2473790
   8.3396600 141.7500140  87.1587680   8.7066730 141.2758710  87.9049020
   8.1501660 142.6241710  87.4996020   6.1295970 140.7908780  89.4771890
   5.8253040 141.6700760  89.7022250   7.0842430 140.8508570  89.5129330
   4.6577760 144.9969770  80.0738740   3.8840020 144.4567390  79.9137460
   5.3872390 144.4776380  79.7356500  15.4165740 143.9935130  85.8665130
  16.1364860 144.4890420  85.4761240  15.2147560 143.3153020  85.2219000
  10.8775680 135.3873090  80.0094520  10.0640290 134.8886260  79.9339830
  10.6837630 136.2271340  79.5930870  10.7984540 144.0644190  91.7534130
  10.7321850 143.1439860  91.4991720  10.1689680 144.1619630  92.4678770
  13.5924070 139.7592740  78.3056680  14.4803690 140.0709970  78.1308020
  13.5629160 138.8864990  77.9137260   4.7015160 144.6650150  83.7117550
   5.2193830 143.8618410  83.6574440   4.2499180 144.6029290  84.5534380
   9.5884660 145.9316430  78.9844850   9.9300360 146.6758660  78.4888170
   8.7597370 146.2447550  79.3469680   2.1859700 141.6311520  90.6243250
   1.8274640 142.2965370  91.2116590   1.8914260 140.7995070  90.9955870
   5.3872820 142.0895760  93.5082800   5.0872960 142.2352940  92.6110620
   6.1584060 141.5301050  93.4156190  10.7301270 146.8864760  91.5037930
  10.7445810 145.9545720  91.2856840  10.0226370 146.9724520  92.1427700
  15.8638340 141.0704580  77.7736540  15.7802060 141.5018800  76.9232980
  16.5832530 141.5302930  78.2063360  16.9412480 143.5272100  90.8506510
  16.2160670 144.1200880  90.6535900  17.4687940 143.5195640  90.0519880
  16.8925590 147.9246840  80.5018670  16.2501750 147.2702460  80.7762390
  16.5056250 148.3301930  79.7259340  12.4712070 145.2532270  84.3490360
  12.8235890 144.6560400  83.6891730  11.5874400 144.9276500  84.5198610
   8.5575350 146.0129960  81.7560770   9.2446480 146.5599170  82.1368360
   7.7707770 146.5570690  81.7910380   7.8602560 143.0175990  81.3686130
   8.3165340 143.8281240  81.5946320   7.5090770 142.6999130  82.2004620
  10.1635170 148.5282330  88.5978430  10.8077390 148.7341710  89.2751850
  10.5264610 147.7670730  88.1449280   3.7614340 133.3613640  81.8408650
   3.6328970 133.3531540  82.7893570   2.9376360 133.6996730  81.4899660
  11.4367250 146.5314680  87.3155880  12.0789480 145.8307840  87.4288050
  11.9616600 147.3113120  87.1352770  15.2822970 146.8163300  77.0395020
  15.0560550 146.0993740  77.6319660  14.8919170 146.5675740  76.2016770
  13.2104870 147.3309580  90.5191940  13.5461110 147.9176270  91.1969860
  12.2905210 147.2002290  90.7489730  14.8639220 144.7335240  78.7009180
  14.5760920 145.1947930  79.4887060  15.6591390 144.2733010  78.9693400
   9.0393450 147.3800910  93.6880000   8.7190320 146.6610150  94.2325690
   8.3651810 148.0555980  93.7616060   7.0807620 148.2261360  78.6313150
   7.0717720 148.9591050  78.0157660   6.1605980 147.9792940  78.7240110
   2.6814260 143.4476250  79.3759910   2.0742210 144.1875150  79.3855210
   3.1563610 143.5375610  78.5498110  12.2547050 137.6127070  89.0516800
  12.6227870 136.7922280  89.3796370  11.3945250 137.6728960  89.4672450
  15.6209080 136.5684010  79.8604360  14.9922240 136.6729680  79.1462590
  15.1261000 136.7880790  80.6498240  10.0667220 148.2889600  77.2938340
  10.1679200 148.0853590  76.3640320   9.1668960 148.0347880  77.4986120
   7.5893110 138.8469960  81.2762240   6.8809260 139.3156300  81.7175850
   7.8737590 138.1891970  81.9107430   9.2149040 140.2666660  89.2754770
   9.7134290 140.7412480  89.9406620   9.3571990 139.3430180  89.4824800
  11.6208540 135.5720620  82.7158030  11.4976320 135.5906750  81.7667540
  12.5693100 135.6199560  82.8356430   8.7085330 150.8075920  81.9886010
   8.9626830 150.7697310  81.0665380   7.7597810 150.6809250  81.9814260
   5.7928130 137.1555040  78.6512950   6.6418660 137.5925190  78.5853140
   5.4259400 137.4675300  79.4785010  16.4215900 136.4834620  90.1183160
  15.9189500 137.2240020  90.4576970  17.2372560 136.8718620  89.8019950
  14.7137910 141.7267800  83.5644520  13.7728050 141.7418030  83.7392210
  15.0281980 140.9403760  84.0104820   4.6919550 143.4087400  77.1248480
   5.4582820 143.2968760  77.6873910   4.7694240 142.7125370  76.4725250
   3.3866310 140.8412470  77.8081370   3.4669900 139.8939980  77.9198770
   4.2786060 141.1719350  77.9142030  16.7163490 148.8976650  85.2398780
  16.8410910 149.7207820  85.7122590  17.5829050 148.6867380  84.8922930
   3.1939300 150.1753930  94.1001490   3.9952030 150.4965980  94.5136890
   2.6791120 149.8149510  94.8221400   7.2983330 150.1638170  76.7341480
   8.0911940 150.4527000  76.2823270   6.7787680 149.7330340  76.0553960
  12.0303930 146.2833800  94.0476900  11.4242090 146.3065400  93.3072650
  11.7258040 145.5516840  94.5844150  13.4604300 150.0114090  92.6586310
  14.4126050 149.9272110  92.6086550  13.3132520 150.6755800  93.3320100
  16.3513500 149.3908300  78.1578220  16.0655010 148.9773440  77.3432400
  16.1533050 150.3196010  78.0378740   7.8160730 145.3841580  76.5983830
   7.7111370 144.7693930  77.3245210   7.6484950 144.8607470  75.8146840
   7.9675050 144.0698380  92.5773060   7.2020720 144.6383380  92.4927730
   8.1491010 143.7774590  91.6841290  11.0563460 144.4461610  77.2025820
  10.5073560 144.8930910  77.8468560  11.6782720 143.9410860  77.7263490
  15.1098400 145.8003710  93.1348080  15.8507870 146.1379470  92.6315540
  14.3471080 145.9695770  92.5817850   2.9460190 140.8056980  93.9387610
   2.9865530 140.5070850  94.8472840   3.8005690 141.2064590  93.7795130
   6.7238580 143.4052530  79.0991120   7.1455000 143.2392400  79.9422510
   6.8489420 142.5952760  78.6046260   4.8866000 139.3849080  91.9062100
   4.3562460 138.8940030  91.2785440   5.5554070 139.8133280  91.3720030
   9.2366220 142.4290140  76.3468220   9.7571880 141.7139160  75.9809370
   9.8834620 143.0676010  76.6468730  13.7844060 143.8518540  91.6703290
  14.1985080 144.0063620  92.5193710  12.8495060 143.9773760  91.8329070
  14.2566230 141.1914700  93.6742440  14.8387000 140.4367020  93.5862920
  14.4328000 141.7222140  92.8973920   5.3738300 136.3511450  91.9859390
   5.2795170 135.7332200  91.2610260   4.7935690 137.0777740  91.7589300
   8.1399740 134.9084690  89.0186780   7.6917040 134.9308950  88.1732330
   7.5064940 134.5103710  89.6157080   8.5459290 143.8039020  89.6399220
   8.9647400 144.6471750  89.4675460   7.6267920 143.9411060  89.4106000
  10.8823190 141.5355200  91.0237060  11.0019400 140.9396340  91.7631900
  11.7417190 141.5724890  90.6038360  13.2211090 142.0892390  89.5999570
  12.6946310 142.6135010  88.9964710  13.5642430 142.7219780  90.2309300
   5.6197480 139.4785760  76.0449280   5.4186540 138.6153120  76.4062620
   5.4489530 139.3919120  75.1070880   6.3966710 150.1092030  90.7556950
   5.8587800 150.8338090  90.4365650   6.6500670 149.6322370  89.9654290
   7.6491960 138.0776550  92.2812880   8.2391650 137.7692400  92.9690700
   6.8312200 137.6056300  92.4372780  12.4685390 137.6942360  92.5145900
  11.7800910 137.0323900  92.4495890  13.1891410 137.2480630  92.9594360
  13.0985790 134.2893990  78.5736160  13.3788080 133.4461890  78.9295580
  12.3251520 134.5217100  79.0874910   4.4180280 136.5786380  76.0327160
   4.7206180 136.5853810  75.1246310   5.1574870 136.2284240  76.5294820
   7.6365210 135.5221000  77.0183360   7.2887210 134.8444990  76.4385810
   7.8377980 135.0610510  77.8326750   9.8014250 150.5101750  78.6369960
  10.6965040 150.8486720  78.6588720   9.8331880 149.7881160  78.0094240
   3.4410410 145.8828800  76.8656960   3.8785280 146.4258470  77.5214540
   3.9258140 145.0575750  76.8753300   5.2518130 147.0026840  81.9779190
   4.9513670 146.8791810  82.8783100   5.1455620 146.1435430  81.5694920
  16.7808600 149.0405420  91.3436160  16.1810590 149.0997980  90.6000080
  16.9102500 148.1010400  91.4733010  18.0210050 146.7823240  76.6805870
  17.1903010 146.8499890  77.1513100  18.1981880 147.6727360  76.3772730
  17.4766510 143.5270720  79.1840070  18.2385420 144.0967370  79.2899760
  17.4920880 142.9597920  79.9548380  18.4826480 144.3820820  84.0282000
  18.8535310 143.5988140  83.6217970  19.1228410 145.0709920  83.8499300
  15.4660240 145.7657400  89.4412320  14.6520080 146.1954560  89.7038110
  15.8734440 146.3775810  88.8281370  17.5285680 143.8205090  76.3412590
  17.8034520 144.7283970  76.2131810  17.3396420 143.7567620  77.2774580
  13.9261290 136.8449940  77.6366220  14.3446170 136.6580920  76.7962880
  13.6197350 135.9928990  77.9469150  17.4251020 141.7574080  81.3342020
  17.0494620 140.9902010  80.9023310  16.6954140 142.1396780  81.8216950
   2.0146780 142.4361220  87.9551070   2.3819820 142.3488620  88.8347090
   1.4457600 141.6727770  87.8557930  16.8150640 140.9045600  90.9681540
  16.5836730 140.6758350  90.0679490  17.0755190 141.8245150  90.9226430
  15.2538710 136.1302030  93.7461240  16.1308890 136.1385430  94.1295240
  15.2659550 135.3932870  93.1353590  16.7001980 139.9831570  84.6349260
  17.2239460 139.4894220  84.0039430  17.2861400 140.1181930  85.3796830
  16.8791700 140.0671440  88.1568810  15.9294410 140.0334980  88.2713800
  17.0604710 140.9771550  87.9218580   2.7336140 138.3173120  77.2667440
   3.4427840 137.8956340  76.7814720   2.0176080 138.3848350  76.6350790
   2.3810300 134.3712450  76.3070090   3.1038430 134.9121390  76.6251310
   2.6534820 134.0975870  75.4311630  16.1901950 139.2404920  80.5741670
  16.6861070 139.0075790  81.3590550  15.9918020 138.4016760  80.1579310
   2.0702490 133.6218640  86.2092710   2.7178680 133.0716020  85.7687870
   2.4904330 133.8761790  87.0308520  17.6189110 137.8765870  83.1079350
  17.5088390 137.7221910  84.0461620  18.3796700 137.3486810  82.8654760
  15.9654830 133.8160000  89.5662350  16.6027050 134.4294140  89.9321540
  16.1129720 133.8520660  88.6211580  18.5079380 135.7073790  76.3485490
  19.4328690 135.5754970  76.1403780  18.4855170 135.7866610  77.3021940
  18.5817870 136.4784450  78.9742200  17.7869370 136.4129570  79.5035110
  18.7861150 137.4135090  78.9627550  15.5236290 150.5176000  82.9680590
  16.1195360 150.1960570  82.2915010  15.7814440 150.0447820  83.7593860
   1.8234490 133.7774310  88.9518030   1.4749310 134.2338130  89.7176210
   1.4922190 132.8831440  89.0340460   3.4298860 146.9493910  93.1171220
   3.3868490 146.5786820  93.9985680   3.5609870 147.8871480  93.2573040
   7.1304890 148.5053500  88.7180940   6.8896250 148.7728060  87.8311460
   8.0707530 148.6759230  88.7731800   9.3359310 134.9686190  92.4737450
   9.2748200 135.5608020  93.2232860  10.2759690 134.8612150  92.3287710
  11.9733870 134.6256250  92.1129740  12.5874280 134.9435540  91.4510820
  12.5183430 134.1404840  92.7325600  18.3909050 150.5247880  89.5191580
  17.8967330 150.9216750  88.8018710  17.7822340 149.8997090  89.9128860
   2.4955130 133.3050510  92.2268800   3.0438120 133.1238560  91.4634910
   2.5610440 132.5144620  92.7625110   3.2686890 149.8956160  90.2369000
   2.6747210 149.7640860  90.9759040   3.2610730 149.0594300  89.7711100
  12.7141910 133.1888390  88.4399030  11.8401750 133.5223500  88.2371960
  12.6052660 132.7161570  89.2650900  13.6213890 135.3959260  89.8240750
  13.2927250 134.5811020  89.4442480  14.5696190 135.3529070  89.7006440
   2.8999120 147.2614540  89.1877040   2.1733180 146.6419830  89.1202990
   2.9608270 147.6555150  88.3175120   6.5044220 149.4759540  85.9726450
   7.0209240 148.8646900  85.4474710   7.1541600 149.9788320  86.4637460
   9.2439720 150.3668030  86.7995430   9.5317530 150.1122330  85.9228440
   9.7562940 149.8145390  87.3901000  10.4616730 134.1058230  87.3791940
   9.6788520 134.5803730  87.6588700  10.1679660 133.2013060  87.2705120
  15.0137800 134.8081330  85.4241030  15.4545890 134.7526430  84.5762630
  14.7445390 135.7239340  85.4951210  16.8776370 134.4396570  83.4349850
  16.8164770 133.4957790  83.2880870  17.6568400 134.5476660  83.9803310
   1.8057140 134.4105710  79.9005660   2.5636500 134.5234590  79.3269690
   1.3434310 135.2474910  79.8549090   8.3470950 136.5244980  82.8907970
   7.5345460 136.1501870  82.5503850   8.8512590 135.7690060  83.1929160
  12.8495930 133.1887430  84.1291040  13.4525300 133.7607640  84.6039560
  12.1088920 133.7526870  83.9064940  15.9930530 133.5908990  79.4031320
  16.1881160 134.4892440  79.6698750  15.2060400 133.3596070  79.8964270
   2.7891820 149.2722160  79.8423940   2.2639440 149.6530190  79.1385900
   2.7136400 149.8972930  80.5633650   4.1782290 134.9369760  78.4407630
   4.7075050 134.1499560  78.3115580   4.8110610 135.6160950  78.6743160
   6.3720130 134.6744900  81.4953020   5.7422870 133.9732210  81.6623150
   5.8325270 135.4349030  81.2786180  17.5457140 150.8309700  81.1637880
  17.7209330 150.1447440  80.5198800  16.8478710 151.3556750  80.7714550
   6.4975690 133.9528880  93.9305510   6.2159960 134.4562480  93.1666330
   6.8795390 133.1550630  93.5647640   5.3884790 151.2204540  78.7173190
   6.1203610 150.9363820  78.1697080   5.6478460 150.9817820  79.6072570
   4.5499580 147.3369270  78.7219520   3.9208460 147.8054370  79.2705350
   4.6647410 146.4918490  79.1565710  13.0991150 133.3682460  94.5085980
  12.9856600 133.6877070  95.4037500  13.9160890 133.7694970  94.2123260
  15.8789640 150.5153990  93.9904670  16.6714960 150.0203220  93.7830630
  16.1722790 151.1944130  94.5980280  12.0049300 141.3874930  64.8720720
  11.9243350 140.4729540  64.6012430  11.5913720 141.8842000  64.1660430
  10.1367340 143.1653950  66.7529990   9.3609440 142.6854390  67.0428560
  10.7880270 142.4859600  66.5786150   4.1533170 143.4773760  67.6305750
   3.3218050 143.2222470  68.0302260   4.7614150 143.5484530  68.3663670
  14.1574770 147.5714140  65.5329120  13.6956300 146.8001380  65.8616290
  14.9700320 147.5980210  66.0381570   4.1334430 147.5113850  67.8263770
   4.4362470 146.6211590  67.6473990   4.8778020 148.0684070  67.5986020
   2.5625120 138.4375650  61.4148140   1.6741820 138.7791620  61.3128020
   2.8466310 138.2375970  60.5228970  10.3838080 149.8572150  65.1533110
   9.7649520 150.3129650  64.5827550  11.2389860 150.0123610  64.7522810
   9.5776330 145.8411140  66.7600150   9.5084610 144.9001080  66.5989280
  10.3396190 145.9312550  67.3322720   1.7683000 136.4465660  69.0856770
   1.5885840 135.5491410  69.3659530   1.3663080 136.9937530  69.7603720
  10.6081500 138.6481520  66.9869080  10.9846320 137.7753400  66.8742750
  10.5101010 138.9840220  66.0959520   4.7386510 137.0207150  62.4486520
   4.8453260 137.9210880  62.7555280   3.8278870 136.9725120  62.1581170
  14.3905620 136.1431960  63.9197420  15.2115240 135.6528530  63.9622900
  14.4239700 136.7329620  64.6729260   2.3869670 138.9426160  67.6939110
   3.0679780 139.2064530  68.3126510   2.0717720 138.1027030  68.0277120
   6.5794240 139.9893520  66.7811700   7.0872460 140.4874490  67.4216720
   7.1107480 139.2128720  66.6051060  18.6805170 138.1598710  70.4841050
  17.9757340 138.5480420  69.9656160  18.9463090 138.8549000  71.0861980
   4.8630340 134.6292080  71.0475120   4.8648780 135.1464470  70.2421020
   4.0334650 134.1522260  71.0245050  11.2501430 144.7411390  62.5465020
  10.6318700 145.2060840  61.9827740  11.7624680 145.4338870  62.9634530
   6.1133190 144.2687260  69.2248620   5.7802570 144.8956180  69.8669690
   6.2899870 144.7949140  68.4450290  14.6267100 138.0832340  66.6924960
  13.9222670 138.3717230  67.2728070  14.9879260 138.8932450  66.3324520
   4.5445670 136.3402040  69.0545570   4.8862480 137.1844090  68.7599440
   3.6061480 136.4885780  69.1710910   5.3252290 146.2368060  71.0397800
   5.9426290 146.9119140  70.7582250   4.4645410 146.6456040  70.9485300
  16.2429880 147.7007470  68.9552440  15.5593400 148.3706580  68.9469110
  16.7824170 147.8988120  68.1897300  17.6954020 137.5287130  67.0834170
  16.7478930 137.5626110  67.2149600  18.0204010 138.3426080  67.4683530
   8.2273560 133.8284310  65.3790160   8.5348540 133.2731200  64.6625660
   7.2974260 133.9628770  65.1963150  13.7788620 149.5451600  67.6697620
  13.7915780 149.1413890  66.8019880  13.2263840 150.3198890  67.5659050
  15.0734040 146.2667820  62.7587790  14.9630370 145.3242150  62.8837210
  15.0702290 146.6283460  63.6450550  13.1774060 144.4481440  68.9980230
  13.5942850 144.2341550  68.1633690  13.9013880 144.7054230  69.5688850
  10.6154320 141.8933140  62.1150280   9.6883600 141.8270520  62.3438750
  10.7679140 142.8313270  62.0005520  10.6023400 138.1650140  59.1117440
   9.6627070 138.3264100  59.1969900  10.9206660 138.8835820  58.5653430
  17.1236160 142.8468660  69.0896470  16.2954790 142.9161750  68.6146600
  17.7186640 143.4322970  68.6212300  14.6451610 143.4553440  62.6185530
  14.0264030 143.1172990  61.9711830  14.6276060 142.8113200  63.3264720
  14.0878170 139.6337980  70.0351340  13.6749350 140.4591690  70.2891330
  13.3554120 139.0483020  69.8427700   6.2210960 142.4197880  64.8970010
   5.8167960 141.7075130  64.4015910   6.3074080 142.0751120  65.7858050
   6.6892660 146.1065440  67.0609220   6.3920950 145.5010910  66.3817000
   7.6392480 146.1442750  66.9498580   4.9339580 139.1941090  68.6769050
   5.4854170 139.3036430  67.9022300   5.4483090 139.5678690  69.3924280
  14.7778270 149.6797310  70.7232320  14.3008830 150.4869500  70.5304930
  14.0940060 149.0275640  70.8758530   5.7811090 145.8447130  73.7117020
   4.8839620 146.0687100  73.9590420   5.8063960 145.9682070  72.7628420
  12.8216310 142.6940250  59.6258280  13.2609590 141.8562680  59.4796100
  13.5344730 143.3269650  59.7122420   4.6082310 142.7160450  72.2874390
   4.4690080 143.5883250  72.6561790   3.7263670 142.3733260  72.1422330
  10.9311690 147.6336320  63.5939520  11.3707600 148.3760650  63.1794910
  10.8698580 147.8762890  64.5178480   6.4062660 148.6582150  74.4959540
   6.3778090 149.0625100  73.6287970   6.2427630 147.7292510  74.3331140
  16.4033450 133.9483060  57.9399320  16.0906110 134.0409890  58.8398390
  17.1645920 134.5264090  57.8896750   2.9215590 141.3142860  62.3976660
   2.8013190 142.0404950  61.7857930   2.6116480 140.5445770  61.9204570
  18.3577480 149.4409250  75.7923710  18.8337200 149.9192140  76.4712790
  18.9784640 149.3726740  75.0669210   1.8048590 146.1858190  64.6151480
   1.3976670 146.3272780  63.7605080   2.6961600 145.9018350  64.4122690
  17.7610730 146.6322100  72.9523720  17.8873790 146.3933980  72.0340900
  17.8032110 145.8006640  73.4245800  11.6227470 150.3350100  71.5218530
  12.1372140 150.2458110  72.3240960  10.7796550 150.6809800  71.8146440
  13.5981870 150.6205440  60.9502530  13.4383010 150.3308380  61.8484360
  13.4328580 149.8445570  60.4147760   6.0770250 150.4003970  62.7274150
   5.9012730 149.4839510  62.5141950   5.2225990 150.7591260  62.9671950
  13.3008000 148.1293000  59.5100530  12.6073160 148.1270290  58.8502810
  14.0430860 147.7052320  59.0794700  12.8657930 149.7555710  63.5849020
  13.3214880 148.9745090  63.8987640  13.2050450 150.4662530  64.1290200
  17.6134740 138.6854560  73.9173460  16.9979010 139.1934230  73.3888920
  17.2931160 137.7852890  73.8599400   5.3879250 134.6577930  65.7800330
   4.9447400 135.4387470  65.4484850   5.9464240 134.9807820  66.4871270
   9.6749060 137.5246450  71.3835650   9.2128430 137.7329470  72.1955590
   9.2727170 136.7105800  71.0806320  14.6753570 138.7455400  72.5132310
  13.8247160 138.4461150  72.8341380  14.5155360 138.9897410  71.6016130
  11.7703280 140.2457150  74.6131100  12.0956690 139.4120900  74.2733330
  12.5583610 140.7685670  74.7609430   8.5038070 134.2788630  60.6606160
   7.8792250 134.2748500  61.3859470   8.4168190 133.4119590  60.2642130
   7.4255150 135.2025260  67.6389930   7.7227480 136.1088090  67.5581950
   7.9740710 134.7144040  67.0249500   5.1793470 139.7811500  63.5081580
   4.9534390 139.5648670  64.4128200   4.3986000 140.2139960  63.1627550
  12.4091230 139.7874870  62.1072230  11.8100120 140.5110670  61.9235850
  12.9570840 139.7251650  61.3248680   7.6192680 140.6797080  74.1741850
   7.5236280 139.7391810  74.0242250   8.4624660 140.9012150  73.7789920
  11.0156100 138.4238410  64.1375510  11.4085670 138.7410610  63.3244200
  11.3772950 137.5450290  64.2520030   2.7503220 137.0910750  72.3275630
   2.3566610 137.9385960  72.5348410   2.0621620 136.4537120  72.5184270
   9.3248270 137.1745720  75.3972370   8.6346590 136.9817920  76.0318460
  10.0680570 137.4580360  75.9296670  11.6011240 141.0144160  68.2326290
  10.8692360 141.5230970  68.5816390  11.2035580 140.1974140  67.9315070
   8.0388630 137.6898360  66.6378780   8.0424690 137.2488310  65.7883320
   8.9339750 138.0115690  66.7450600   3.8891010 137.5724850  65.5972990
   3.5491060 138.0500080  66.3540040   3.1268330 137.1189970  65.2374090
   8.1008780 138.6910440  59.6285540   8.2221600 138.6496920  60.5771360
   7.7157290 139.5534590  59.4732270  12.0637150 136.4677840  67.6449230
  12.0809890 136.9186490  68.4891080  11.8152730 135.5683480  67.8582670
   7.1130280 141.0011580  59.0268840   6.5447180 140.5529830  58.4004750
   7.8219280 141.3604360  58.4933990  15.4907900 133.8810020  73.4835610
  15.8153670 133.1499680  74.0093590  15.5264410 133.5623660  72.5816600
   2.1899460 144.9023600  72.9035570   1.8054250 144.2617270  73.5018530
   2.5011650 145.6059720  73.4730300   8.3396600 141.7500140  68.3844190
   8.7066730 141.2758710  69.1305530   8.1501660 142.6241710  68.7252530
   6.1295970 140.7908780  70.7028400   5.8253040 141.6700760  70.9278760
   7.0842430 140.8508570  70.7385840   4.6577760 144.9969770  61.2995250
   3.8840020 144.4567390  61.1393970   5.3872390 144.4776380  60.9613010
  15.4165740 143.9935130  67.0921640  16.1364860 144.4890420  66.7017750
  15.2147560 143.3153020  66.4475510  10.8775680 135.3873090  61.2351030
  10.0640290 134.8886260  61.1596340  10.6837630 136.2271340  60.8187380
  10.7984540 144.0644190  72.9790640  10.7321850 143.1439860  72.7248230
  10.1689680 144.1619630  73.6935280  13.5924070 139.7592740  59.5313190
  14.4803690 140.0709970  59.3564530  13.5629160 138.8864990  59.1393770
   4.7015160 144.6650150  64.9374060   5.2193830 143.8618410  64.8830950
   4.2499180 144.6029290  65.7790890   9.5884660 145.9316430  60.2101360
   9.9300360 146.6758660  59.7144680   8.7597370 146.2447550  60.5726190
   2.1859700 141.6311520  71.8499760   1.8274640 142.2965370  72.4373100
   1.8914260 140.7995070  72.2212380   5.3872820 142.0895760  74.7339310
   5.0872960 142.2352940  73.8367130   6.1584060 141.5301050  74.6412700
  10.7301270 146.8864760  72.7294440  10.7445810 145.9545720  72.5113350
  10.0226370 146.9724520  73.3684210  15.8638340 141.0704580  58.9993050
  15.7802060 141.5018800  58.1489490  16.5832530 141.5302930  59.4319870
  16.9412480 143.5272100  72.0763020  16.2160670 144.1200880  71.8792410
  17.4687940 143.5195640  71.2776390  16.8925590 147.9246840  61.7275180
  16.2501750 147.2702460  62.0018900  16.5056250 148.3301930  60.9515850
  12.4712070 145.2532270  65.5746870  12.8235890 144.6560400  64.9148240
  11.5874400 144.9276500  65.7455120   8.5575350 146.0129960  62.9817280
   9.2446480 146.5599170  63.3624870   7.7707770 146.5570690  63.0166890
   7.8602560 143.0175990  62.5942640   8.3165340 143.8281240  62.8202830
   7.5090770 142.6999130  63.4261130  10.1635170 148.5282330  69.8234940
  10.8077390 148.7341710  70.5008360  10.5264610 147.7670730  69.3705790
   3.7614340 133.3613640  63.0665160   3.6328970 133.3531540  64.0150080
   2.9376360 133.6996730  62.7156170  11.4367250 146.5314680  68.5412390
  12.0789480 145.8307840  68.6544560  11.9616600 147.3113120  68.3609280
  15.2822970 146.8163300  58.2651530  15.0560550 146.0993740  58.8576170
  14.8919170 146.5675740  57.4273280  13.2104870 147.3309580  71.7448450
  13.5461110 147.9176270  72.4226370  12.2905210 147.2002290  71.9746240
  14.8639220 144.7335240  59.9265690  14.5760920 145.1947930  60.7143570
  15.6591390 144.2733010  60.1949910   9.0393450 147.3800910  74.9136510
   8.7190320 146.6610150  75.4582200   8.3651810 148.0555980  74.9872570
   7.0807620 148.2261360  59.8569660   7.0717720 148.9591050  59.2414170
   6.1605980 147.9792940  59.9496620   2.6814260 143.4476250  60.6016420
   2.0742210 144.1875150  60.6111720   3.1563610 143.5375610  59.7754620
  12.2547050 137.6127070  70.2773310  12.6227870 136.7922280  70.6052880
  11.3945250 137.6728960  70.6928960  15.6209080 136.5684010  61.0860870
  14.9922240 136.6729680  60.3719100  15.1261000 136.7880790  61.8754750
  10.0667220 148.2889600  58.5194850  10.1679200 148.0853590  57.5896830
   9.1668960 148.0347880  58.7242630   7.5893110 138.8469960  62.5018750
   6.8809260 139.3156300  62.9432360   7.8737590 138.1891970  63.1363940
   9.2149040 140.2666660  70.5011280   9.7134290 140.7412480  71.1663130
   9.3571990 139.3430180  70.7081310  11.6208540 135.5720620  63.9414540
  11.4976320 135.5906750  62.9924050  12.5693100 135.6199560  64.0612940
   8.7085330 150.8075920  63.2142520   8.9626830 150.7697310  62.2921890
   7.7597810 150.6809250  63.2070770   5.7928130 137.1555040  59.8769460
   6.6418660 137.5925190  59.8109650   5.4259400 137.4675300  60.7041520
  16.4215900 136.4834620  71.3439670  15.9189500 137.2240020  71.6833480
  17.2372560 136.8718620  71.0276460  14.7137910 141.7267800  64.7901030
  13.7728050 141.7418030  64.9648720  15.0281980 140.9403760  65.2361330
   4.6919550 143.4087400  58.3504990   5.4582820 143.2968760  58.9130420
   4.7694240 142.7125370  57.6981760   3.3866310 140.8412470  59.0337880
   3.4669900 139.8939980  59.1455280   4.2786060 141.1719350  59.1398540
  16.7163490 148.8976650  66.4655290  16.8410910 149.7207820  66.9379100
  17.5829050 148.6867380  66.1179440   3.1939300 150.1753930  75.3258000
   3.9952030 150.4965980  75.7393400   2.6791120 149.8149510  76.0477910
   7.2983330 150.1638170  57.9597990   8.0911940 150.4527000  57.5079780
   6.7787680 149.7330340  57.2810470  12.0303930 146.2833800  75.2733410
  11.4242090 146.3065400  74.5329160  11.7258040 145.5516840  75.8100660
  13.4604300 150.0114090  73.8842820  14.4126050 149.9272110  73.8343060
  13.3132520 150.6755800  74.5576610  16.3513500 149.3908300  59.3834730
  16.0655010 148.9773440  58.5688910  16.1533050 150.3196010  59.2635250
   7.8160730 145.3841580  57.8240340   7.7111370 144.7693930  58.5501720
   7.6484950 144.8607470  57.0403350   7.9675050 144.0698380  73.8029570
   7.2020720 144.6383380  73.7184240   8.1491010 143.7774590  72.9097800
  11.0563460 144.4461610  58.4282330  10.5073560 144.8930910  59.0725070
  11.6782720 143.9410860  58.9520000  15.1098400 145.8003710  74.3604590
  15.8507870 146.1379470  73.8572050  14.3471080 145.9695770  73.8074360
   2.9460190 140.8056980  75.1644120   2.9865530 140.5070850  76.0729350
   3.8005690 141.2064590  75.0051640   6.7238580 143.4052530  60.3247630
   7.1455000 143.2392400  61.1679020   6.8489420 142.5952760  59.8302770
   4.8866000 139.3849080  73.1318610   4.3562460 138.8940030  72.5041950
   5.5554070 139.8133280  72.5976540   9.2366220 142.4290140  57.5724730
   9.7571880 141.7139160  57.2065880   9.8834620 143.0676010  57.8725240
  13.7844060 143.8518540  72.8959800  14.1985080 144.0063620  73.7450220
  12.8495060 143.9773760  73.0585580  14.2566230 141.1914700  74.8998950
  14.8387000 140.4367020  74.8119430  14.4328000 141.7222140  74.1230430
   5.3738300 136.3511450  73.2115900   5.2795170 135.7332200  72.4866770
   4.7935690 137.0777740  72.9845810   8.1399740 134.9084690  70.2443290
   7.6917040 134.9308950  69.3988840   7.5064940 134.5103710  70.8413590
   8.5459290 143.8039020  70.8655730   8.9647400 144.6471750  70.6931970
   7.6267920 143.9411060  70.6362510  10.8823190 141.5355200  72.2493570
  11.0019400 140.9396340  72.9888410  11.7417190 141.5724890  71.8294870
  13.2211090 142.0892390  70.8256080  12.6946310 142.6135010  70.2221220
  13.5642430 142.7219780  71.4565810   5.6197480 139.4785760  57.2705790
   5.4186540 138.6153120  57.6319130   5.4489530 139.3919120  56.3327390
   6.3966710 150.1092030  71.9813460   5.8587800 150.8338090  71.6622160
   6.6500670 149.6322370  71.1910800   7.6491960 138.0776550  73.5069390
   8.2391650 137.7692400  74.1947210   6.8312200 137.6056300  73.6629290
  12.4685390 137.6942360  73.7402410  11.7800910 137.0323900  73.6752400
  13.1891410 137.2480630  74.1850870  13.0985790 134.2893990  59.7992670
  13.3788080 133.4461890  60.1552090  12.3251520 134.5217100  60.3131420
   4.4180280 136.5786380  57.2583670   4.7206180 136.5853810  56.3502820
   5.1574870 136.2284240  57.7551330   7.6365210 135.5221000  58.2439870
   7.2887210 134.8444990  57.6642320   7.8377980 135.0610510  59.0583260
   9.8014250 150.5101750  59.8626470  10.6965040 150.8486720  59.8845230
   9.8331880 149.7881160  59.2350750   3.4410410 145.8828800  58.0913470
   3.8785280 146.4258470  58.7471050   3.9258140 145.0575750  58.1009810
   5.2518130 147.0026840  63.2035700   4.9513670 146.8791810  64.1039610
   5.1455620 146.1435430  62.7951430  16.7808600 149.0405420  72.5692670
  16.1810590 149.0997980  71.8256590  16.9102500 148.1010400  72.6989520
  18.0210050 146.7823240  57.9062380  17.1903010 146.8499890  58.3769610
  18.1981880 147.6727360  57.6029240  17.4766510 143.5270720  60.4096580
  18.2385420 144.0967370  60.5156270  17.4920880 142.9597920  61.1804890
  18.4826480 144.3820820  65.2538510  18.8535310 143.5988140  64.8474480
  19.1228410 145.0709920  65.0755810  15.4660240 145.7657400  70.6668830
  14.6520080 146.1954560  70.9294620  15.8734440 146.3775810  70.0537880
  17.5285680 143.8205090  57.5669100  17.8034520 144.7283970  57.4388320
  17.3396420 143.7567620  58.5031090  13.9261290 136.8449940  58.8622730
  14.3446170 136.6580920  58.0219390  13.6197350 135.9928990  59.1725660
  17.4251020 141.7574080  62.5598530  17.0494620 140.9902010  62.1279820
  16.6954140 142.1396780  63.0473460   2.0146780 142.4361220  69.1807580
   2.3819820 142.3488620  70.0603600   1.4457600 141.6727770  69.0814440
  16.8150640 140.9045600  72.1938050  16.5836730 140.6758350  71.2936000
  17.0755190 141.8245150  72.1482940  15.2538710 136.1302030  74.9717750
  16.1308890 136.1385430  75.3551750  15.2659550 135.3932870  74.3610100
  16.7001980 139.9831570  65.8605770  17.2239460 139.4894220  65.2295940
  17.2861400 140.1181930  66.6053340  16.8791700 140.0671440  69.3825320
  15.9294410 140.0334980  69.4970310  17.0604710 140.9771550  69.1475090
   2.7336140 138.3173120  58.4923950   3.4427840 137.8956340  58.0071230
   2.0176080 138.3848350  57.8607300   2.3810300 134.3712450  57.5326600
   3.1038430 134.9121390  57.8507820   2.6534820 134.0975870  56.6568140
  16.1901950 139.2404920  61.7998180  16.6861070 139.0075790  62.5847060
  15.9918020 138.4016760  61.3835820   2.0702490 133.6218640  67.4349220
   2.7178680 133.0716020  66.9944380   2.4904330 133.8761790  68.2565030
  17.6189110 137.8765870  64.3335860  17.5088390 137.7221910  65.2718130
  18.3796700 137.3486810  64.0911270  15.9654830 133.8160000  70.7918860
  16.6027050 134.4294140  71.1578050  16.1129720 133.8520660  69.8468090
  18.5079380 135.7073790  57.5742000  19.4328690 135.5754970  57.3660290
  18.4855170 135.7866610  58.5278450  18.5817870 136.4784450  60.1998710
  17.7869370 136.4129570  60.7291620  18.7861150 137.4135090  60.1884060
  15.5236290 150.5176000  64.1937100  16.1195360 150.1960570  63.5171520
  15.7814440 150.0447820  64.9850370   1.8234490 133.7774310  70.1774540
   1.4749310 134.2338130  70.9432720   1.4922190 132.8831440  70.2596970
   3.4298860 146.9493910  74.3427730   3.3868490 146.5786820  75.2242190
   3.5609870 147.8871480  74.4829550   7.1304890 148.5053500  69.9437450
   6.8896250 148.7728060  69.0567970   8.0707530 148.6759230  69.9988310
   9.3359310 134.9686190  73.6993960   9.2748200 135.5608020  74.4489370
  10.2759690 134.8612150  73.5544220  11.9733870 134.6256250  73.3386250
  12.5874280 134.9435540  72.6767330  12.5183430 134.1404840  73.9582110
  18.3909050 150.5247880  70.7448090  17.8967330 150.9216750  70.0275220
  17.7822340 149.8997090  71.1385370   2.4955130 133.3050510  73.4525310
   3.0438120 133.1238560  72.6891420   2.5610440 132.5144620  73.9881620
   3.2686890 149.8956160  71.4625510   2.6747210 149.7640860  72.2015550
   3.2610730 149.0594300  70.9967610  12.7141910 133.1888390  69.6655540
  11.8401750 133.5223500  69.4628470  12.6052660 132.7161570  70.4907410
  13.6213890 135.3959260  71.0497260  13.2927250 134.5811020  70.6698990
  14.5696190 135.3529070  70.9262950   2.8999120 147.2614540  70.4133550
   2.1733180 146.6419830  70.3459500   2.9608270 147.6555150  69.5431630
   6.5044220 149.4759540  67.1982960   7.0209240 148.8646900  66.6731220
   7.1541600 149.9788320  67.6893970   9.2439720 150.3668030  68.0251940
   9.5317530 150.1122330  67.1484950   9.7562940 149.8145390  68.6157510
  10.4616730 134.1058230  68.6048450   9.6788520 134.5803730  68.8845210
  10.1679660 133.2013060  68.4961630  15.0137800 134.8081330  66.6497540
  15.4545890 134.7526430  65.8019140  14.7445390 135.7239340  66.7207720
  16.8776370 134.4396570  64.6606360  16.8164770 133.4957790  64.5137380
  17.6568400 134.5476660  65.2059820   1.8057140 134.4105710  61.1262170
   2.5636500 134.5234590  60.5526200   1.3434310 135.2474910  61.0805600
   8.3470950 136.5244980  64.1164480   7.5345460 136.1501870  63.7760360
   8.8512590 135.7690060  64.4185670  12.8495930 133.1887430  65.3547550
  13.4525300 133.7607640  65.8296070  12.1088920 133.7526870  65.1321450
  15.9930530 133.5908990  60.6287830  16.1881160 134.4892440  60.8955260
  15.2060400 133.3596070  61.1220780   2.7891820 149.2722160  61.0680450
   2.2639440 149.6530190  60.3642410   2.7136400 149.8972930  61.7890160
   4.1782290 134.9369760  59.6664140   4.7075050 134.1499560  59.5372090
   4.8110610 135.6160950  59.8999670   6.3720130 134.6744900  62.7209530
   5.7422870 133.9732210  62.8879660   5.8325270 135.4349030  62.5042690
  17.5457140 150.8309700  62.3894390  17.7209330 150.1447440  61.7455310
  16.8478710 151.3556750  61.9971060   6.4975690 133.9528880  75.1562020
   6.2159960 134.4562480  74.3922840   6.8795390 133.1550630  74.7904150
   5.3884790 151.2204540  59.9429700   6.1203610 150.9363820  59.3953590
   5.6478460 150.9817820  60.8329080   4.5499580 147.3369270  59.9476030
   3.9208460 147.8054370  60.4961860   4.6647410 146.4918490  60.3822220
  13.0991150 133.3682460  75.7342490  12.9856600 133.6877070  76.6294010
  13.9160890 133.7694970  75.4379770  15.8789640 150.5153990  75.2161180
  16.6714960 150.0203220  75.0087140  16.1722790 151.1944130  75.8236790
  12.0049300 141.3874930  46.0977230  11.9243350 140.4729540  45.8268940
  11.5913720 141.8842000  45.3916940  10.1367340 143.1653950  47.9786500
   9.3609440 142.6854390  48.2685070  10.7880270 142.4859600  47.8042660
   4.1533170 143.4773760  48.8562260   3.3218050 143.2222470  49.2558770
   4.7614150 143.5484530  49.5920180  14.1574770 147.5714140  46.7585630
  13.6956300 146.8001380  47.0872800  14.9700320 147.5980210  47.2638080
   4.1334430 147.5113850  49.0520280   4.4362470 146.6211590  48.8730500
   4.8778020 148.0684070  48.8242530   2.5625120 138.4375650  42.6404650
   1.6741820 138.7791620  42.5384530   2.8466310 138.2375970  41.7485480
  10.3838080 149.8572150  46.3789620   9.7649520 150.3129650  45.8084060
  11.2389860 150.0123610  45.9779320   9.5776330 145.8411140  47.9856660
   9.5084610 144.9001080  47.8245790  10.3396190 145.9312550  48.5579230
   1.7683000 136.4465660  50.3113280   1.5885840 135.5491410  50.5916040
   1.3663080 136.9937530  50.9860230  10.6081500 138.6481520  48.2125590
  10.9846320 137.7753400  48.0999260  10.5101010 138.9840220  47.3216030
   4.7386510 137.0207150  43.6743030   4.8453260 137.9210880  43.9811790
   3.8278870 136.9725120  43.3837680  14.3905620 136.1431960  45.1453930
  15.2115240 135.6528530  45.1879410  14.4239700 136.7329620  45.8985770
   2.3869670 138.9426160  48.9195620   3.0679780 139.2064530  49.5383020
   2.0717720 138.1027030  49.2533630   6.5794240 139.9893520  48.0068210
   7.0872460 140.4874490  48.6473230   7.1107480 139.2128720  47.8307570
  18.6805170 138.1598710  51.7097560  17.9757340 138.5480420  51.1912670
  18.9463090 138.8549000  52.3118490   4.8630340 134.6292080  52.2731630
   4.8648780 135.1464470  51.4677530   4.0334650 134.1522260  52.2501560
  11.2501430 144.7411390  43.7721530  10.6318700 145.2060840  43.2084250
  11.7624680 145.4338870  44.1891040   6.1133190 144.2687260  50.4505130
   5.7802570 144.8956180  51.0926200   6.2899870 144.7949140  49.6706800
  14.6267100 138.0832340  47.9181470  13.9222670 138.3717230  48.4984580
  14.9879260 138.8932450  47.5581030   4.5445670 136.3402040  50.2802080
   4.8862480 137.1844090  49.9855950   3.6061480 136.4885780  50.3967420
   5.3252290 146.2368060  52.2654310   5.9426290 146.9119140  51.9838760
   4.4645410 146.6456040  52.1741810  16.2429880 147.7007470  50.1808950
  15.5593400 148.3706580  50.1725620  16.7824170 147.8988120  49.4153810
  17.6954020 137.5287130  48.3090680  16.7478930 137.5626110  48.4406110
  18.0204010 138.3426080  48.6940040   8.2273560 133.8284310  46.6046670
   8.5348540 133.2731200  45.8882170   7.2974260 133.9628770  46.4219660
  13.7788620 149.5451600  48.8954130  13.7915780 149.1413890  48.0276390
  13.2263840 150.3198890  48.7915560  15.0734040 146.2667820  43.9844300
  14.9630370 145.3242150  44.1093720  15.0702290 146.6283460  44.8707060
  13.1774060 144.4481440  50.2236740  13.5942850 144.2341550  49.3890200
  13.9013880 144.7054230  50.7945360  10.6154320 141.8933140  43.3406790
   9.6883600 141.8270520  43.5695260  10.7679140 142.8313270  43.2262030
  10.6023400 138.1650140  40.3373950   9.6627070 138.3264100  40.4226410
  10.9206660 138.8835820  39.7909940  17.1236160 142.8468660  50.3152980
  16.2954790 142.9161750  49.8403110  17.7186640 143.4322970  49.8468810
  14.6451610 143.4553440  43.8442040  14.0264030 143.1172990  43.1968340
  14.6276060 142.8113200  44.5521230  14.0878170 139.6337980  51.2607850
  13.6749350 140.4591690  51.5147840  13.3554120 139.0483020  51.0684210
   6.2210960 142.4197880  46.1226520   5.8167960 141.7075130  45.6272420
   6.3074080 142.0751120  47.0114560   6.6892660 146.1065440  48.2865730
   6.3920950 145.5010910  47.6073510   7.6392480 146.1442750  48.1755090
   4.9339580 139.1941090  49.9025560   5.4854170 139.3036430  49.1278810
   5.4483090 139.5678690  50.6180790  14.7778270 149.6797310  51.9488830
  14.3008830 150.4869500  51.7561440  14.0940060 149.0275640  52.1015040
   5.7811090 145.8447130  54.9373530   4.8839620 146.0687100  55.1846930
   5.8063960 145.9682070  53.9884930  12.8216310 142.6940250  40.8514790
  13.2609590 141.8562680  40.7052610  13.5344730 143.3269650  40.9378930
   4.6082310 142.7160450  53.5130900   4.4690080 143.5883250  53.8818300
   3.7263670 142.3733260  53.3678840  10.9311690 147.6336320  44.8196030
  11.3707600 148.3760650  44.4051420  10.8698580 147.8762890  45.7434990
   6.4062660 148.6582150  55.7216050   6.3778090 149.0625100  54.8544480
   6.2427630 147.7292510  55.5587650  16.4033450 133.9483060  39.1655830
  16.0906110 134.0409890  40.0654900  17.1645920 134.5264090  39.1153260
   2.9215590 141.3142860  43.6233170   2.8013190 142.0404950  43.0114440
   2.6116480 140.5445770  43.1461080  18.3577480 149.4409250  57.0180220
  18.8337200 149.9192140  57.6969300  18.9784640 149.3726740  56.2925720
   1.8048590 146.1858190  45.8407990   1.3976670 146.3272780  44.9861590
   2.6961600 145.9018350  45.6379200  17.7610730 146.6322100  54.1780230
  17.8873790 146.3933980  53.2597410  17.8032110 145.8006640  54.6502310
  11.6227470 150.3350100  52.7475040  12.1372140 150.2458110  53.5497470
  10.7796550 150.6809800  53.0402950  13.5981870 150.6205440  42.1759040
  13.4383010 150.3308380  43.0740870  13.4328580 149.8445570  41.6404270
   6.0770250 150.4003970  43.9530660   5.9012730 149.4839510  43.7398460
   5.2225990 150.7591260  44.1928460  13.3008000 148.1293000  40.7357040
  12.6073160 148.1270290  40.0759320  14.0430860 147.7052320  40.3051210
  12.8657930 149.7555710  44.8105530  13.3214880 148.9745090  45.1244150
  13.2050450 150.4662530  45.3546710  17.6134740 138.6854560  55.1429970
  16.9979010 139.1934230  54.6145430  17.2931160 137.7852890  55.0855910
   5.3879250 134.6577930  47.0056840   4.9447400 135.4387470  46.6741360
   5.9464240 134.9807820  47.7127780   9.6749060 137.5246450  52.6092160
   9.2128430 137.7329470  53.4212100   9.2727170 136.7105800  52.3062830
  14.6753570 138.7455400  53.7388820  13.8247160 138.4461150  54.0597890
  14.5155360 138.9897410  52.8272640  11.7703280 140.2457150  55.8387610
  12.0956690 139.4120900  55.4989840  12.5583610 140.7685670  55.9865940
   8.5038070 134.2788630  41.8862670   7.8792250 134.2748500  42.6115980
   8.4168190 133.4119590  41.4898640   7.4255150 135.2025260  48.8646440
   7.7227480 136.1088090  48.7838460   7.9740710 134.7144040  48.2506010
   5.1793470 139.7811500  44.7338090   4.9534390 139.5648670  45.6384710
   4.3986000 140.2139960  44.3884060  12.4091230 139.7874870  43.3328740
  11.8100120 140.5110670  43.1492360  12.9570840 139.7251650  42.5505190
   7.6192680 140.6797080  55.3998360   7.5236280 139.7391810  55.2498760
   8.4624660 140.9012150  55.0046430  11.0156100 138.4238410  45.3632020
  11.4085670 138.7410610  44.5500710  11.3772950 137.5450290  45.4776540
   2.7503220 137.0910750  53.5532140   2.3566610 137.9385960  53.7604920
   2.0621620 136.4537120  53.7440780   9.3248270 137.1745720  56.6228880
   8.6346590 136.9817920  57.2574970  10.0680570 137.4580360  57.1553180
  11.6011240 141.0144160  49.4582800  10.8692360 141.5230970  49.8072900
  11.2035580 140.1974140  49.1571580   8.0388630 137.6898360  47.8635290
   8.0424690 137.2488310  47.0139830   8.9339750 138.0115690  47.9707110
   3.8891010 137.5724850  46.8229500   3.5491060 138.0500080  47.5796550
   3.1268330 137.1189970  46.4630600   8.1008780 138.6910440  40.8542050
   8.2221600 138.6496920  41.8027870   7.7157290 139.5534590  40.6988780
  12.0637150 136.4677840  48.8705740  12.0809890 136.9186490  49.7147590
  11.8152730 135.5683480  49.0839180   7.1130280 141.0011580  40.2525350
   6.5447180 140.5529830  39.6261260   7.8219280 141.3604360  39.7190500
  15.4907900 133.8810020  54.7092120  15.8153670 133.1499680  55.2350100
  15.5264410 133.5623660  53.8073110   2.1899460 144.9023600  54.1292080
   1.8054250 144.2617270  54.7275040   2.5011650 145.6059720  54.6986810
   8.3396600 141.7500140  49.6100700   8.7066730 141.2758710  50.3562040
   8.1501660 142.6241710  49.9509040   6.1295970 140.7908780  51.9284910
   5.8253040 141.6700760  52.1535270   7.0842430 140.8508570  51.9642350
   4.6577760 144.9969770  42.5251760   3.8840020 144.4567390  42.3650480
   5.3872390 144.4776380  42.1869520  15.4165740 143.9935130  48.3178150
  16.1364860 144.4890420  47.9274260  15.2147560 143.3153020  47.6732020
  10.8775680 135.3873090  42.4607540  10.0640290 134.8886260  42.3852850
  10.6837630 136.2271340  42.0443890  10.7984540 144.0644190  54.2047150
  10.7321850 143.1439860  53.9504740  10.1689680 144.1619630  54.9191790
  13.5924070 139.7592740  40.7569700  14.4803690 140.0709970  40.5821040
  13.5629160 138.8864990  40.3650280   4.7015160 144.6650150  46.1630570
   5.2193830 143.8618410  46.1087460   4.2499180 144.6029290  47.0047400
   9.5884660 145.9316430  41.4357870   9.9300360 146.6758660  40.9401190
   8.7597370 146.2447550  41.7982700   2.1859700 141.6311520  53.0756270
   1.8274640 142.2965370  53.6629610   1.8914260 140.7995070  53.4468890
   5.3872820 142.0895760  55.9595820   5.0872960 142.2352940  55.0623640
   6.1584060 141.5301050  55.8669210  10.7301270 146.8864760  53.9550950
  10.7445810 145.9545720  53.7369860  10.0226370 146.9724520  54.5940720
  15.8638340 141.0704580  40.2249560  15.7802060 141.5018800  39.3746000
  16.5832530 141.5302930  40.6576380  16.9412480 143.5272100  53.3019530
  16.2160670 144.1200880  53.1048920  17.4687940 143.5195640  52.5032900
  16.8925590 147.9246840  42.9531690  16.2501750 147.2702460  43.2275410
  16.5056250 148.3301930  42.1772360  12.4712070 145.2532270  46.8003380
  12.8235890 144.6560400  46.1404750  11.5874400 144.9276500  46.9711630
   8.5575350 146.0129960  44.2073790   9.2446480 146.5599170  44.5881380
   7.7707770 146.5570690  44.2423400   7.8602560 143.0175990  43.8199150
   8.3165340 143.8281240  44.0459340   7.5090770 142.6999130  44.6517640
  10.1635170 148.5282330  51.0491450  10.8077390 148.7341710  51.7264870
  10.5264610 147.7670730  50.5962300   3.7614340 133.3613640  44.2921670
   3.6328970 133.3531540  45.2406590   2.9376360 133.6996730  43.9412680
  11.4367250 146.5314680  49.7668900  12.0789480 145.8307840  49.8801070
  11.9616600 147.3113120  49.5865790  15.2822970 146.8163300  39.4908040
  15.0560550 146.0993740  40.0832680  14.8919170 146.5675740  38.6529790
  13.2104870 147.3309580  52.9704960  13.5461110 147.9176270  53.6482880
  12.2905210 147.2002290  53.2002750  14.8639220 144.7335240  41.1522200
  14.5760920 145.1947930  41.9400080  15.6591390 144.2733010  41.4206420
   9.0393450 147.3800910  56.1393020   8.7190320 146.6610150  56.6838710
   8.3651810 148.0555980  56.2129080   7.0807620 148.2261360  41.0826170
   7.0717720 148.9591050  40.4670680   6.1605980 147.9792940  41.1753130
   2.6814260 143.4476250  41.8272930   2.0742210 144.1875150  41.8368230
   3.1563610 143.5375610  41.0011130  12.2547050 137.6127070  51.5029820
  12.6227870 136.7922280  51.8309390  11.3945250 137.6728960  51.9185470
  15.6209080 136.5684010  42.3117380  14.9922240 136.6729680  41.5975610
  15.1261000 136.7880790  43.1011260  10.0667220 148.2889600  39.7451360
  10.1679200 148.0853590  38.8153340   9.1668960 148.0347880  39.9499140
   7.5893110 138.8469960  43.7275260   6.8809260 139.3156300  44.1688870
   7.8737590 138.1891970  44.3620450   9.2149040 140.2666660  51.7267790
   9.7134290 140.7412480  52.3919640   9.3571990 139.3430180  51.9337820
  11.6208540 135.5720620  45.1671050  11.4976320 135.5906750  44.2180560
  12.5693100 135.6199560  45.2869450   8.7085330 150.8075920  44.4399030
   8.9626830 150.7697310  43.5178400   7.7597810 150.6809250  44.4327280
   5.7928130 137.1555040  41.1025970   6.6418660 137.5925190  41.0366160
   5.4259400 137.4675300  41.9298030  16.4215900 136.4834620  52.5696180
  15.9189500 137.2240020  52.9089990  17.2372560 136.8718620  52.2532970
  14.7137910 141.7267800  46.0157540  13.7728050 141.7418030  46.1905230
  15.0281980 140.9403760  46.4617840   4.6919550 143.4087400  39.5761500
   5.4582820 143.2968760  40.1386930   4.7694240 142.7125370  38.9238270
   3.3866310 140.8412470  40.2594390   3.4669900 139.8939980  40.3711790
   4.2786060 141.1719350  40.3655050  16.7163490 148.8976650  47.6911800
  16.8410910 149.7207820  48.1635610  17.5829050 148.6867380  47.3435950
   3.1939300 150.1753930  56.5514510   3.9952030 150.4965980  56.9649910
   2.6791120 149.8149510  57.2734420   7.2983330 150.1638170  39.1854500
   8.0911940 150.4527000  38.7336290   6.7787680 149.7330340  38.5066980
  12.0303930 146.2833800  56.4989920  11.4242090 146.3065400  55.7585670
  11.7258040 145.5516840  57.0357170  13.4604300 150.0114090  55.1099330
  14.4126050 149.9272110  55.0599570  13.3132520 150.6755800  55.7833120
  16.3513500 149.3908300  40.6091240  16.0655010 148.9773440  39.7945420
  16.1533050 150.3196010  40.4891760   7.8160730 145.3841580  39.0496850
   7.7111370 144.7693930  39.7758230   7.6484950 144.8607470  38.2659860
   7.9675050 144.0698380  55.0286080   7.2020720 144.6383380  54.9440750
   8.1491010 143.7774590  54.1354310  11.0563460 144.4461610  39.6538840
  10.5073560 144.8930910  40.2981580  11.6782720 143.9410860  40.1776510
  15.1098400 145.8003710  55.5861100  15.8507870 146.1379470  55.0828560
  14.3471080 145.9695770  55.0330870   2.9460190 140.8056980  56.3900630
   2.9865530 140.5070850  57.2985860   3.8005690 141.2064590  56.2308150
   6.7238580 143.4052530  41.5504140   7.1455000 143.2392400  42.3935530
   6.8489420 142.5952760  41.0559280   4.8866000 139.3849080  54.3575120
   4.3562460 138.8940030  53.7298460   5.5554070 139.8133280  53.8233050
   9.2366220 142.4290140  38.7981240   9.7571880 141.7139160  38.4322390
   9.8834620 143.0676010  39.0981750  13.7844060 143.8518540  54.1216310
  14.1985080 144.0063620  54.9706730  12.8495060 143.9773760  54.2842090
  14.2566230 141.1914700  56.1255460  14.8387000 140.4367020  56.0375940
  14.4328000 141.7222140  55.3486940   5.3738300 136.3511450  54.4372410
   5.2795170 135.7332200  53.7123280   4.7935690 137.0777740  54.2102320
   8.1399740 134.9084690  51.4699800   7.6917040 134.9308950  50.6245350
   7.5064940 134.5103710  52.0670100   8.5459290 143.8039020  52.0912240
   8.9647400 144.6471750  51.9188480   7.6267920 143.9411060  51.8619020
  10.8823190 141.5355200  53.4750080  11.0019400 140.9396340  54.2144920
  11.7417190 141.5724890  53.0551380  13.2211090 142.0892390  52.0512590
  12.6946310 142.6135010  51.4477730  13.5642430 142.7219780  52.6822320
   5.6197480 139.4785760  38.4962300   5.4186540 138.6153120  38.8575640
   5.4489530 139.3919120  37.5583900   6.3966710 150.1092030  53.2069970
   5.8587800 150.8338090  52.8878670   6.6500670 149.6322370  52.4167310
   7.6491960 138.0776550  54.7325900   8.2391650 137.7692400  55.4203720
   6.8312200 137.6056300  54.8885800  12.4685390 137.6942360  54.9658920
  11.7800910 137.0323900  54.9008910  13.1891410 137.2480630  55.4107380
  13.0985790 134.2893990  41.0249180  13.3788080 133.4461890  41.3808600
  12.3251520 134.5217100  41.5387930   4.4180280 136.5786380  38.4840180
   4.7206180 136.5853810  37.5759330   5.1574870 136.2284240  38.9807840
   7.6365210 135.5221000  39.4696380   7.2887210 134.8444990  38.8898830
   7.8377980 135.0610510  40.2839770   9.8014250 150.5101750  41.0882980
  10.6965040 150.8486720  41.1101740   9.8331880 149.7881160  40.4607260
   3.4410410 145.8828800  39.3169980   3.8785280 146.4258470  39.9727560
   3.9258140 145.0575750  39.3266320   5.2518130 147.0026840  44.4292210
   4.9513670 146.8791810  45.3296120   5.1455620 146.1435430  44.0207940
  16.7808600 149.0405420  53.7949180  16.1810590 149.0997980  53.0513100
  16.9102500 148.1010400  53.9246030  18.0210050 146.7823240  39.1318890
  17.1903010 146.8499890  39.6026120  18.1981880 147.6727360  38.8285750
  17.4766510 143.5270720  41.6353090  18.2385420 144.0967370  41.7412780
  17.4920880 142.9597920  42.4061400  18.4826480 144.3820820  46.4795020
  18.8535310 143.5988140  46.0730990  19.1228410 145.0709920  46.3012320
  15.4660240 145.7657400  51.8925340  14.6520080 146.1954560  52.1551130
  15.8734440 146.3775810  51.2794390  17.5285680 143.8205090  38.7925610
  17.8034520 144.7283970  38.6644830  17.3396420 143.7567620  39.7287600
  13.9261290 136.8449940  40.0879240  14.3446170 136.6580920  39.2475900
  13.6197350 135.9928990  40.3982170  17.4251020 141.7574080  43.7855040
  17.0494620 140.9902010  43.3536330  16.6954140 142.1396780  44.2729970
   2.0146780 142.4361220  50.4064090   2.3819820 142.3488620  51.2860110
   1.4457600 141.6727770  50.3070950  16.8150640 140.9045600  53.4194560
  16.5836730 140.6758350  52.5192510  17.0755190 141.8245150  53.3739450
  15.2538710 136.1302030  56.1974260  16.1308890 136.1385430  56.5808260
  15.2659550 135.3932870  55.5866610  16.7001980 139.9831570  47.0862280
  17.2239460 139.4894220  46.4552450  17.2861400 140.1181930  47.8309850
  16.8791700 140.0671440  50.6081830  15.9294410 140.0334980  50.7226820
  17.0604710 140.9771550  50.3731600   2.7336140 138.3173120  39.7180460
   3.4427840 137.8956340  39.2327740   2.0176080 138.3848350  39.0863810
   2.3810300 134.3712450  38.7583110   3.1038430 134.9121390  39.0764330
   2.6534820 134.0975870  37.8824650  16.1901950 139.2404920  43.0254690
  16.6861070 139.0075790  43.8103570  15.9918020 138.4016760  42.6092330
   2.0702490 133.6218640  48.6605730   2.7178680 133.0716020  48.2200890
   2.4904330 133.8761790  49.4821540  17.6189110 137.8765870  45.5592370
  17.5088390 137.7221910  46.4974640  18.3796700 137.3486810  45.3167780
  15.9654830 133.8160000  52.0175370  16.6027050 134.4294140  52.3834560
  16.1129720 133.8520660  51.0724600  18.5079380 135.7073790  38.7998510
  19.4328690 135.5754970  38.5916800  18.4855170 135.7866610  39.7534960
  18.5817870 136.4784450  41.4255220  17.7869370 136.4129570  41.9548130
  18.7861150 137.4135090  41.4140570  15.5236290 150.5176000  45.4193610
  16.1195360 150.1960570  44.7428030  15.7814440 150.0447820  46.2106880
   1.8234490 133.7774310  51.4031050   1.4749310 134.2338130  52.1689230
   1.4922190 132.8831440  51.4853480   3.4298860 146.9493910  55.5684240
   3.3868490 146.5786820  56.4498700   3.5609870 147.8871480  55.7086060
   7.1304890 148.5053500  51.1693960   6.8896250 148.7728060  50.2824480
   8.0707530 148.6759230  51.2244820   9.3359310 134.9686190  54.9250470
   9.2748200 135.5608020  55.6745880  10.2759690 134.8612150  54.7800730
  11.9733870 134.6256250  54.5642760  12.5874280 134.9435540  53.9023840
  12.5183430 134.1404840  55.1838620  18.3909050 150.5247880  51.9704600
  17.8967330 150.9216750  51.2531730  17.7822340 149.8997090  52.3641880
   2.4955130 133.3050510  54.6781820   3.0438120 133.1238560  53.9147930
   2.5610440 132.5144620  55.2138130   3.2686890 149.8956160  52.6882020
   2.6747210 149.7640860  53.4272060   3.2610730 149.0594300  52.2224120
  12.7141910 133.1888390  50.8912050  11.8401750 133.5223500  50.6884980
  12.6052660 132.7161570  51.7163920  13.6213890 135.3959260  52.2753770
  13.2927250 134.5811020  51.8955500  14.5696190 135.3529070  52.1519460
   2.8999120 147.2614540  51.6390060   2.1733180 146.6419830  51.5716010
   2.9608270 147.6555150  50.7688140   6.5044220 149.4759540  48.4239470
   7.0209240 148.8646900  47.8987730   7.1541600 149.9788320  48.9150480
   9.2439720 150.3668030  49.2508450   9.5317530 150.1122330  48.3741460
   9.7562940 149.8145390  49.8414020  10.4616730 134.1058230  49.8304960
   9.6788520 134.5803730  50.1101720  10.1679660 133.2013060  49.7218140
  15.0137800 134.8081330  47.8754050  15.4545890 134.7526430  47.0275650
  14.7445390 135.7239340  47.9464230  16.8776370 134.4396570  45.8862870
  16.8164770 133.4957790  45.7393890  17.6568400 134.5476660  46.4316330
   1.8057140 134.4105710  42.3518680   2.5636500 134.5234590  41.7782710
   1.3434310 135.2474910  42.3062110   8.3470950 136.5244980  45.3420990
   7.5345460 136.1501870  45.0016870   8.8512590 135.7690060  45.6442180
  12.8495930 133.1887430  46.5804060  13.4525300 133.7607640  47.0552580
  12.1088920 133.7526870  46.3577960  15.9930530 133.5908990  41.8544340
  16.1881160 134.4892440  42.1211770  15.2060400 133.3596070  42.3477290
   2.7891820 149.2722160  42.2936960   2.2639440 149.6530190  41.5898920
   2.7136400 149.8972930  43.0146670   4.1782290 134.9369760  40.8920650
   4.7075050 134.1499560  40.7628600   4.8110610 135.6160950  41.1256180
   6.3720130 134.6744900  43.9466040   5.7422870 133.9732210  44.1136170
   5.8325270 135.4349030  43.7299200  17.5457140 150.8309700  43.6150900
  17.7209330 150.1447440  42.9711820  16.8478710 151.3556750  43.2227570
   6.4975690 133.9528880  56.3818530   6.2159960 134.4562480  55.6179350
   6.8795390 133.1550630  56.0160660   5.3884790 151.2204540  41.1686210
   6.1203610 150.9363820  40.6210100   5.6478460 150.9817820  42.0585590
   4.5499580 147.3369270  41.1732540   3.9208460 147.8054370  41.7218370
   4.6647410 146.4918490  41.6078730  13.0991150 133.3682460  56.9599000
  12.9856600 133.6877070  57.8550520  13.9160890 133.7694970  56.6636280
  15.8789640 150.5153990  56.4417690  16.6714960 150.0203220  56.2343650
  16.1722790 151.1944130  57.0493300  12.0049300 141.3874930  27.3233740
  11.9243350 140.4729540  27.0525450  11.5913720 141.8842000  26.6173450
  10.1367340 143.1653950  29.2043010   9.3609440 142.6854390  29.4941580
  10.7880270 142.4859600  29.0299170   4.1533170 143.4773760  30.0818770
   3.3218050 143.2222470  30.4815280   4.7614150 143.5484530  30.8176690
  14.1574770 147.5714140  27.9842140  13.6956300 146.8001380  28.3129310
  14.9700320 147.5980210  28.4894590   4.1334430 147.5113850  30.2776790
   4.4362470 146.6211590  30.0987010   4.8778020 148.0684070  30.0499040
   2.5625120 138.4375650  23.8661160   1.6741820 138.7791620  23.7641040
   2.8466310 138.2375970  22.9741990  10.3838080 149.8572150  27.6046130
   9.7649520 150.3129650  27.0340570  11.2389860 150.0123610  27.2035830
   9.5776330 145.8411140  29.2113170   9.5084610 144.9001080  29.0502300
  10.3396190 145.9312550  29.7835740   1.7683000 136.4465660  31.5369790
   1.5885840 135.5491410  31.8172550   1.3663080 136.9937530  32.2116740
  10.6081500 138.6481520  29.4382100  10.9846320 137.7753400  29.3255770
  10.5101010 138.9840220  28.5472540   4.7386510 137.0207150  24.8999540
   4.8453260 137.9210880  25.2068300   3.8278870 136.9725120  24.6094190
  14.3905620 136.1431960  26.3710440  15.2115240 135.6528530  26.4135920
  14.4239700 136.7329620  27.1242280   2.3869670 138.9426160  30.1452130
   3.0679780 139.2064530  30.7639530   2.0717720 138.1027030  30.4790140
   6.5794240 139.9893520  29.2324720   7.0872460 140.4874490  29.8729740
   7.1107480 139.2128720  29.0564080  18.6805170 138.1598710  32.9354070
  17.9757340 138.5480420  32.4169180  18.9463090 138.8549000  33.5375000
   4.8630340 134.6292080  33.4988140   4.8648780 135.1464470  32.6934040
   4.0334650 134.1522260  33.4758070  11.2501430 144.7411390  24.9978040
  10.6318700 145.2060840  24.4340760  11.7624680 145.4338870  25.4147550
   6.1133190 144.2687260  31.6761640   5.7802570 144.8956180  32.3182710
   6.2899870 144.7949140  30.8963310  14.6267100 138.0832340  29.1437980
  13.9222670 138.3717230  29.7241090  14.9879260 138.8932450  28.7837540
   4.5445670 136.3402040  31.5058590   4.8862480 137.1844090  31.2112460
   3.6061480 136.4885780  31.6223930   5.3252290 146.2368060  33.4910820
   5.9426290 146.9119140  33.2095270   4.4645410 146.6456040  33.3998320
  16.2429880 147.7007470  31.4065460  15.5593400 148.3706580  31.3982130
  16.7824170 147.8988120  30.6410320  17.6954020 137.5287130  29.5347190
  16.7478930 137.5626110  29.6662620  18.0204010 138.3426080  29.9196550
   8.2273560 133.8284310  27.8303180   8.5348540 133.2731200  27.1138680
   7.2974260 133.9628770  27.6476170  13.7788620 149.5451600  30.1210640
  13.7915780 149.1413890  29.2532900  13.2263840 150.3198890  30.0172070
  15.0734040 146.2667820  25.2100810  14.9630370 145.3242150  25.3350230
  15.0702290 146.6283460  26.0963570  13.1774060 144.4481440  31.4493250
  13.5942850 144.2341550  30.6146710  13.9013880 144.7054230  32.0201870
  10.6154320 141.8933140  24.5663300   9.6883600 141.8270520  24.7951770
  10.7679140 142.8313270  24.4518540  10.6023400 138.1650140  21.5630460
   9.6627070 138.3264100  21.6482920  10.9206660 138.8835820  21.0166450
  17.1236160 142.8468660  31.5409490  16.2954790 142.9161750  31.0659620
  17.7186640 143.4322970  31.0725320  14.6451610 143.4553440  25.0698550
  14.0264030 143.1172990  24.4224850  14.6276060 142.8113200  25.7777740
  14.0878170 139.6337980  32.4864360  13.6749350 140.4591690  32.7404350
  13.3554120 139.0483020  32.2940720   6.2210960 142.4197880  27.3483030
   5.8167960 141.7075130  26.8528930   6.3074080 142.0751120  28.2371070
   6.6892660 146.1065440  29.5122240   6.3920950 145.5010910  28.8330020
   7.6392480 146.1442750  29.4011600   4.9339580 139.1941090  31.1282070
   5.4854170 139.3036430  30.3535320   5.4483090 139.5678690  31.8437300
  14.7778270 149.6797310  33.1745340  14.3008830 150.4869500  32.9817950
  14.0940060 149.0275640  33.3271550   5.7811090 145.8447130  36.1630040
   4.8839620 146.0687100  36.4103440   5.8063960 145.9682070  35.2141440
  12.8216310 142.6940250  22.0771300  13.2609590 141.8562680  21.9309120
  13.5344730 143.3269650  22.1635440   4.6082310 142.7160450  34.7387410
   4.4690080 143.5883250  35.1074810   3.7263670 142.3733260  34.5935350
  10.9311690 147.6336320  26.0452540  11.3707600 148.3760650  25.6307930
  10.8698580 147.8762890  26.9691500   6.4062660 148.6582150  36.9472560
   6.3778090 149.0625100  36.0800990   6.2427630 147.7292510  36.7844160
  16.4033450 133.9483060  20.3912340  16.0906110 134.0409890  21.2911410
  17.1645920 134.5264090  20.3409770   2.9215590 141.3142860  24.8489680
   2.8013190 142.0404950  24.2370950   2.6116480 140.5445770  24.3717590
  18.3577480 149.4409250  38.2436730  18.8337200 149.9192140  38.9225810
  18.9784640 149.3726740  37.5182230   1.8048590 146.1858190  27.0664500
   1.3976670 146.3272780  26.2118100   2.6961600 145.9018350  26.8635710
  17.7610730 146.6322100  35.4036740  17.8873790 146.3933980  34.4853920
  17.8032110 145.8006640  35.8758820  11.6227470 150.3350100  33.9731550
  12.1372140 150.2458110  34.7753980  10.7796550 150.6809800  34.2659460
  13.5981870 150.6205440  23.4015550  13.4383010 150.3308380  24.2997380
  13.4328580 149.8445570  22.8660780   6.0770250 150.4003970  25.1787170
   5.9012730 149.4839510  24.9654970   5.2225990 150.7591260  25.4184970
  13.3008000 148.1293000  21.9613550  12.6073160 148.1270290  21.3015830
  14.0430860 147.7052320  21.5307720  12.8657930 149.7555710  26.0362040
  13.3214880 148.9745090  26.3500660  13.2050450 150.4662530  26.5803220
  17.6134740 138.6854560  36.3686480  16.9979010 139.1934230  35.8401940
  17.2931160 137.7852890  36.3112420   5.3879250 134.6577930  28.2313350
   4.9447400 135.4387470  27.8997870   5.9464240 134.9807820  28.9384290
   9.6749060 137.5246450  33.8348670   9.2128430 137.7329470  34.6468610
   9.2727170 136.7105800  33.5319340  14.6753570 138.7455400  34.9645330
  13.8247160 138.4461150  35.2854400  14.5155360 138.9897410  34.0529150
  11.7703280 140.2457150  37.0644120  12.0956690 139.4120900  36.7246350
  12.5583610 140.7685670  37.2122450   8.5038070 134.2788630  23.1119180
   7.8792250 134.2748500  23.8372490   8.4168190 133.4119590  22.7155150
   7.4255150 135.2025260  30.0902950   7.7227480 136.1088090  30.0094970
   7.9740710 134.7144040  29.4762520   5.1793470 139.7811500  25.9594600
   4.9534390 139.5648670  26.8641220   4.3986000 140.2139960  25.6140570
  12.4091230 139.7874870  24.5585250  11.8100120 140.5110670  24.3748870
  12.9570840 139.7251650  23.7761700   7.6192680 140.6797080  36.6254870
   7.5236280 139.7391810  36.4755270   8.4624660 140.9012150  36.2302940
  11.0156100 138.4238410  26.5888530  11.4085670 138.7410610  25.7757220
  11.3772950 137.5450290  26.7033050   2.7503220 137.0910750  34.7788650
   2.3566610 137.9385960  34.9861430   2.0621620 136.4537120  34.9697290
   9.3248270 137.1745720  37.8485390   8.6346590 136.9817920  38.4831480
  10.0680570 137.4580360  38.3809690  11.6011240 141.0144160  30.6839310
  10.8692360 141.5230970  31.0329410  11.2035580 140.1974140  30.3828090
   8.0388630 137.6898360  29.0891800   8.0424690 137.2488310  28.2396340
   8.9339750 138.0115690  29.1963620   3.8891010 137.5724850  28.0486010
   3.5491060 138.0500080  28.8053060   3.1268330 137.1189970  27.6887110
   8.1008780 138.6910440  22.0798560   8.2221600 138.6496920  23.0284380
   7.7157290 139.5534590  21.9245290  12.0637150 136.4677840  30.0962250
  12.0809890 136.9186490  30.9404100  11.8152730 135.5683480  30.3095690
   7.1130280 141.0011580  21.4781860   6.5447180 140.5529830  20.8517770
   7.8219280 141.3604360  20.9447010  15.4907900 133.8810020  35.9348630
  15.8153670 133.1499680  36.4606610  15.5264410 133.5623660  35.0329620
   2.1899460 144.9023600  35.3548590   1.8054250 144.2617270  35.9531550
   2.5011650 145.6059720  35.9243320   8.3396600 141.7500140  30.8357210
   8.7066730 141.2758710  31.5818550   8.1501660 142.6241710  31.1765550
   6.1295970 140.7908780  33.1541420   5.8253040 141.6700760  33.3791780
   7.0842430 140.8508570  33.1898860   4.6577760 144.9969770  23.7508270
   3.8840020 144.4567390  23.5906990   5.3872390 144.4776380  23.4126030
  15.4165740 143.9935130  29.5434660  16.1364860 144.4890420  29.1530770
  15.2147560 143.3153020  28.8988530  10.8775680 135.3873090  23.6864050
  10.0640290 134.8886260  23.6109360  10.6837630 136.2271340  23.2700400
  10.7984540 144.0644190  35.4303660  10.7321850 143.1439860  35.1761250
  10.1689680 144.1619630  36.1448300  13.5924070 139.7592740  21.9826210
  14.4803690 140.0709970  21.8077550  13.5629160 138.8864990  21.5906790
   4.7015160 144.6650150  27.3887080   5.2193830 143.8618410  27.3343970
   4.2499180 144.6029290  28.2303910   9.5884660 145.9316430  22.6614380
   9.9300360 146.6758660  22.1657700   8.7597370 146.2447550  23.0239210
   2.1859700 141.6311520  34.3012780   1.8274640 142.2965370  34.8886120
   1.8914260 140.7995070  34.6725400   5.3872820 142.0895760  37.1852330
   5.0872960 142.2352940  36.2880150   6.1584060 141.5301050  37.0925720
  10.7301270 146.8864760  35.1807460  10.7445810 145.9545720  34.9626370
  10.0226370 146.9724520  35.8197230  15.8638340 141.0704580  21.4506070
  15.7802060 141.5018800  20.6002510  16.5832530 141.5302930  21.8832890
  16.9412480 143.5272100  34.5276040  16.2160670 144.1200880  34.3305430
  17.4687940 143.5195640  33.7289410  16.8925590 147.9246840  24.1788200
  16.2501750 147.2702460  24.4531920  16.5056250 148.3301930  23.4028870
  12.4712070 145.2532270  28.0259890  12.8235890 144.6560400  27.3661260
  11.5874400 144.9276500  28.1968140   8.5575350 146.0129960  25.4330300
   9.2446480 146.5599170  25.8137890   7.7707770 146.5570690  25.4679910
   7.8602560 143.0175990  25.0455660   8.3165340 143.8281240  25.2715850
   7.5090770 142.6999130  25.8774150  10.1635170 148.5282330  32.2747960
  10.8077390 148.7341710  32.9521380  10.5264610 147.7670730  31.8218810
   3.7614340 133.3613640  25.5178180   3.6328970 133.3531540  26.4663100
   2.9376360 133.6996730  25.1669190  11.4367250 146.5314680  30.9925410
  12.0789480 145.8307840  31.1057580  11.9616600 147.3113120  30.8122300
  15.2822970 146.8163300  20.7164550  15.0560550 146.0993740  21.3089190
  14.8919170 146.5675740  19.8786300  13.2104870 147.3309580  34.1961470
  13.5461110 147.9176270  34.8739390  12.2905210 147.2002290  34.4259260
  14.8639220 144.7335240  22.3778710  14.5760920 145.1947930  23.1656590
  15.6591390 144.2733010  22.6462930   9.0393450 147.3800910  37.3649530
   8.7190320 146.6610150  37.9095220   8.3651810 148.0555980  37.4385590
   7.0807620 148.2261360  22.3082680   7.0717720 148.9591050  21.6927190
   6.1605980 147.9792940  22.4009640   2.6814260 143.4476250  23.0529440
   2.0742210 144.1875150  23.0624740   3.1563610 143.5375610  22.2267640
  12.2547050 137.6127070  32.7286330  12.6227870 136.7922280  33.0565900
  11.3945250 137.6728960  33.1441980  15.6209080 136.5684010  23.5373890
  14.9922240 136.6729680  22.8232120  15.1261000 136.7880790  24.3267770
  10.0667220 148.2889600  20.9707870  10.1679200 148.0853590  20.0409850
   9.1668960 148.0347880  21.1755650   7.5893110 138.8469960  24.9531770
   6.8809260 139.3156300  25.3945380   7.8737590 138.1891970  25.5876960
   9.2149040 140.2666660  32.9524300   9.7134290 140.7412480  33.6176150
   9.3571990 139.3430180  33.1594330  11.6208540 135.5720620  26.3927560
  11.4976320 135.5906750  25.4437070  12.5693100 135.6199560  26.5125960
   8.7085330 150.8075920  25.6655540   8.9626830 150.7697310  24.7434910
   7.7597810 150.6809250  25.6583790   5.7928130 137.1555040  22.3282480
   6.6418660 137.5925190  22.2622670   5.4259400 137.4675300  23.1554540
  16.4215900 136.4834620  33.7952690  15.9189500 137.2240020  34.1346500
  17.2372560 136.8718620  33.4789480  14.7137910 141.7267800  27.2414050
  13.7728050 141.7418030  27.4161740  15.0281980 140.9403760  27.6874350
   4.6919550 143.4087400  20.8018010   5.4582820 143.2968760  21.3643440
   4.7694240 142.7125370  20.1494780   3.3866310 140.8412470  21.4850900
   3.4669900 139.8939980  21.5968300   4.2786060 141.1719350  21.5911560
  16.7163490 148.8976650  28.9168310  16.8410910 149.7207820  29.3892120
  17.5829050 148.6867380  28.5692460   3.1939300 150.1753930  37.7771020
   3.9952030 150.4965980  38.1906420   2.6791120 149.8149510  38.4990930
   7.2983330 150.1638170  20.4111010   8.0911940 150.4527000  19.9592800
   6.7787680 149.7330340  19.7323490  12.0303930 146.2833800  37.7246430
  11.4242090 146.3065400  36.9842180  11.7258040 145.5516840  38.2613680
  13.4604300 150.0114090  36.3355840  14.4126050 149.9272110  36.2856080
  13.3132520 150.6755800  37.0089630  16.3513500 149.3908300  21.8347750
  16.0655010 148.9773440  21.0201930  16.1533050 150.3196010  21.7148270
   7.8160730 145.3841580  20.2753360   7.7111370 144.7693930  21.0014740
   7.6484950 144.8607470  19.4916370   7.9675050 144.0698380  36.2542590
   7.2020720 144.6383380  36.1697260   8.1491010 143.7774590  35.3610820
  11.0563460 144.4461610  20.8795350  10.5073560 144.8930910  21.5238090
  11.6782720 143.9410860  21.4033020  15.1098400 145.8003710  36.8117610
  15.8507870 146.1379470  36.3085070  14.3471080 145.9695770  36.2587380
   2.9460190 140.8056980  37.6157140   2.9865530 140.5070850  38.5242370
   3.8005690 141.2064590  37.4564660   6.7238580 143.4052530  22.7760650
   7.1455000 143.2392400  23.6192040   6.8489420 142.5952760  22.2815790
   4.8866000 139.3849080  35.5831630   4.3562460 138.8940030  34.9554970
   5.5554070 139.8133280  35.0489560   9.2366220 142.4290140  20.0237750
   9.7571880 141.7139160  19.6578900   9.8834620 143.0676010  20.3238260
  13.7844060 143.8518540  35.3472820  14.1985080 144.0063620  36.1963240
  12.8495060 143.9773760  35.5098600  14.2566230 141.1914700  37.3511970
  14.8387000 140.4367020  37.2632450  14.4328000 141.7222140  36.5743450
   5.3738300 136.3511450  35.6628920   5.2795170 135.7332200  34.9379790
   4.7935690 137.0777740  35.4358830   8.1399740 134.9084690  32.6956310
   7.6917040 134.9308950  31.8501860   7.5064940 134.5103710  33.2926610
   8.5459290 143.8039020  33.3168750   8.9647400 144.6471750  33.1444990
   7.6267920 143.9411060  33.0875530  10.8823190 141.5355200  34.7006590
  11.0019400 140.9396340  35.4401430  11.7417190 141.5724890  34.2807890
  13.2211090 142.0892390  33.2769100  12.6946310 142.6135010  32.6734240
  13.5642430 142.7219780  33.9078830   5.6197480 139.4785760  19.7218810
   5.4186540 138.6153120  20.0832150   5.4489530 139.3919120  18.7840410
   6.3966710 150.1092030  34.4326480   5.8587800 150.8338090  34.1135180
   6.6500670 149.6322370  33.6423820   7.6491960 138.0776550  35.9582410
   8.2391650 137.7692400  36.6460230   6.8312200 137.6056300  36.1142310
  12.4685390 137.6942360  36.1915430  11.7800910 137.0323900  36.1265420
  13.1891410 137.2480630  36.6363890  13.0985790 134.2893990  22.2505690
  13.3788080 133.4461890  22.6065110  12.3251520 134.5217100  22.7644440
   4.4180280 136.5786380  19.7096690   4.7206180 136.5853810  18.8015840
   5.1574870 136.2284240  20.2064350   7.6365210 135.5221000  20.6952890
   7.2887210 134.8444990  20.1155340   7.8377980 135.0610510  21.5096280
   9.8014250 150.5101750  22.3139490  10.6965040 150.8486720  22.3358250
   9.8331880 149.7881160  21.6863770   3.4410410 145.8828800  20.5426490
   3.8785280 146.4258470  21.1984070   3.9258140 145.0575750  20.5522830
   5.2518130 147.0026840  25.6548720   4.9513670 146.8791810  26.5552630
   5.1455620 146.1435430  25.2464450  16.7808600 149.0405420  35.0205690
  16.1810590 149.0997980  34.2769610  16.9102500 148.1010400  35.1502540
  18.0210050 146.7823240  20.3575400  17.1903010 146.8499890  20.8282630
  18.1981880 147.6727360  20.0542260  17.4766510 143.5270720  22.8609600
  18.2385420 144.0967370  22.9669290  17.4920880 142.9597920  23.6317910
  18.4826480 144.3820820  27.7051530  18.8535310 143.5988140  27.2987500
  19.1228410 145.0709920  27.5268830  15.4660240 145.7657400  33.1181850
  14.6520080 146.1954560  33.3807640  15.8734440 146.3775810  32.5050900
  17.5285680 143.8205090  20.0182120  17.8034520 144.7283970  19.8901340
  17.3396420 143.7567620  20.9544110  13.9261290 136.8449940  21.3135750
  14.3446170 136.6580920  20.4732410  13.6197350 135.9928990  21.6238680
  17.4251020 141.7574080  25.0111550  17.0494620 140.9902010  24.5792840
  16.6954140 142.1396780  25.4986480   2.0146780 142.4361220  31.6320600
   2.3819820 142.3488620  32.5116620   1.4457600 141.6727770  31.5327460
  16.8150640 140.9045600  34.6451070  16.5836730 140.6758350  33.7449020
  17.0755190 141.8245150  34.5995960  15.2538710 136.1302030  37.4230770
  16.1308890 136.1385430  37.8064770  15.2659550 135.3932870  36.8123120
  16.7001980 139.9831570  28.3118790  17.2239460 139.4894220  27.6808960
  17.2861400 140.1181930  29.0566360  16.8791700 140.0671440  31.8338340
  15.9294410 140.0334980  31.9483330  17.0604710 140.9771550  31.5988110
   2.7336140 138.3173120  20.9436970   3.4427840 137.8956340  20.4584250
   2.0176080 138.3848350  20.3120320   2.3810300 134.3712450  19.9839620
   3.1038430 134.9121390  20.3020840   2.6534820 134.0975870  19.1081160
  16.1901950 139.2404920  24.2511200  16.6861070 139.0075790  25.0360080
  15.9918020 138.4016760  23.8348840   2.0702490 133.6218640  29.8862240
   2.7178680 133.0716020  29.4457400   2.4904330 133.8761790  30.7078050
  17.6189110 137.8765870  26.7848880  17.5088390 137.7221910  27.7231150
  18.3796700 137.3486810  26.5424290  15.9654830 133.8160000  33.2431880
  16.6027050 134.4294140  33.6091070  16.1129720 133.8520660  32.2981110
  18.5079380 135.7073790  20.0255020  19.4328690 135.5754970  19.8173310
  18.4855170 135.7866610  20.9791470  18.5817870 136.4784450  22.6511730
  17.7869370 136.4129570  23.1804640  18.7861150 137.4135090  22.6397080
  15.5236290 150.5176000  26.6450120  16.1195360 150.1960570  25.9684540
  15.7814440 150.0447820  27.4363390   1.8234490 133.7774310  32.6287560
   1.4749310 134.2338130  33.3945740   1.4922190 132.8831440  32.7109990
   3.4298860 146.9493910  36.7940750   3.3868490 146.5786820  37.6755210
   3.5609870 147.8871480  36.9342570   7.1304890 148.5053500  32.3950470
   6.8896250 148.7728060  31.5080990   8.0707530 148.6759230  32.4501330
   9.3359310 134.9686190  36.1506980   9.2748200 135.5608020  36.9002390
  10.2759690 134.8612150  36.0057240  11.9733870 134.6256250  35.7899270
  12.5874280 134.9435540  35.1280350  12.5183430 134.1404840  36.4095130
  18.3909050 150.5247880  33.1961110  17.8967330 150.9216750  32.4788240
  17.7822340 149.8997090  33.5898390   2.4955130 133.3050510  35.9038330
   3.0438120 133.1238560  35.1404440   2.5610440 132.5144620  36.4394640
   3.2686890 149.8956160  33.9138530   2.6747210 149.7640860  34.6528570
   3.2610730 149.0594300  33.4480630  12.7141910 133.1888390  32.1168560
  11.8401750 133.5223500  31.9141490  12.6052660 132.7161570  32.9420430
  13.6213890 135.3959260  33.5010280  13.2927250 134.5811020  33.1212010
  14.5696190 135.3529070  33.3775970   2.8999120 147.2614540  32.8646570
   2.1733180 146.6419830  32.7972520   2.9608270 147.6555150  31.9944650
   6.5044220 149.4759540  29.6495980   7.0209240 148.8646900  29.1244240
   7.1541600 149.9788320  30.1406990   9.2439720 150.3668030  30.4764960
   9.5317530 150.1122330  29.5997970   9.7562940 149.8145390  31.0670530
  10.4616730 134.1058230  31.0561470   9.6788520 134.5803730  31.3358230
  10.1679660 133.2013060  30.9474650  15.0137800 134.8081330  29.1010560
  15.4545890 134.7526430  28.2532160  14.7445390 135.7239340  29.1720740
  16.8776370 134.4396570  27.1119380  16.8164770 133.4957790  26.9650400
  17.6568400 134.5476660  27.6572840   1.8057140 134.4105710  23.5775190
   2.5636500 134.5234590  23.0039220   1.3434310 135.2474910  23.5318620
   8.3470950 136.5244980  26.5677500   7.5345460 136.1501870  26.2273380
   8.8512590 135.7690060  26.8698690  12.8495930 133.1887430  27.8060570
  13.4525300 133.7607640  28.2809090  12.1088920 133.7526870  27.5834470
  15.9930530 133.5908990  23.0800850  16.1881160 134.4892440  23.3468280
  15.2060400 133.3596070  23.5733800   2.7891820 149.2722160  23.5193470
   2.2639440 149.6530190  22.8155430   2.7136400 149.8972930  24.2403180
   4.1782290 134.9369760  22.1177160   4.7075050 134.1499560  21.9885110
   4.8110610 135.6160950  22.3512690   6.3720130 134.6744900  25.1722550
   5.7422870 133.9732210  25.3392680   5.8325270 135.4349030  24.9555710
  17.5457140 150.8309700  24.8407410  17.7209330 150.1447440  24.1968330
  16.8478710 151.3556750  24.4484080   6.4975690 133.9528880  37.6075040
   6.2159960 134.4562480  36.8435860   6.8795390 133.1550630  37.2417170
   5.3884790 151.2204540  22.3942720   6.1203610 150.9363820  21.8466610
   5.6478460 150.9817820  23.2842100   4.5499580 147.3369270  22.3989050
   3.9208460 147.8054370  22.9474880   4.6647410 146.4918490  22.8335240
  13.0991150 133.3682460  38.1855510  12.9856600 133.6877070  39.0807030
  13.9160890 133.7694970  37.8892790  15.8789640 150.5153990  37.6674200
  16.6714960 150.0203220  37.4600160  16.1722790 151.1944130  38.2749810
  12.0049300 141.3874930   8.5490250  11.9243350 140.4729540   8.2781960
  11.5913720 141.8842000   7.8429960  10.1367340 143.1653950  10.4299520
   9.3609440 142.6854390  10.7198090  10.7880270 142.4859600  10.2555680
   4.1533170 143.4773760  11.3075280   3.3218050 143.2222470  11.7071790
   4.7614150 143.5484530  12.0433200  14.1574770 147.5714140   9.2098650
  13.6956300 146.8001380   9.5385820  14.9700320 147.5980210   9.7151100
   4.1334430 147.5113850  11.5033300   4.4362470 146.6211590  11.3243520
   4.8778020 148.0684070  11.2755550   2.5625120 138.4375650   5.0917670
   1.6741820 138.7791620   4.9897550   2.8466310 138.2375970   4.1998500
  10.3838080 149.8572150   8.8302640   9.7649520 150.3129650   8.2597080
  11.2389860 150.0123610   8.4292340   9.5776330 145.8411140  10.4369680
   9.5084610 144.9001080  10.2758810  10.3396190 145.9312550  11.0092250
   1.7683000 136.4465660  12.7626300   1.5885840 135.5491410  13.0429060
   1.3663080 136.9937530  13.4373250  10.6081500 138.6481520  10.6638610
  10.9846320 137.7753400  10.5512280  10.5101010 138.9840220   9.7729050
   4.7386510 137.0207150   6.1256050   4.8453260 137.9210880   6.4324810
   3.8278870 136.9725120   5.8350700  14.3905620 136.1431960   7.5966950
  15.2115240 135.6528530   7.6392430  14.4239700 136.7329620   8.3498790
   2.3869670 138.9426160  11.3708640   3.0679780 139.2064530  11.9896040
   2.0717720 138.1027030  11.7046650   6.5794240 139.9893520  10.4581230
   7.0872460 140.4874490  11.0986250   7.1107480 139.2128720  10.2820590
  18.6805170 138.1598710  14.1610580  17.9757340 138.5480420  13.6425690
  18.9463090 138.8549000  14.7631510   4.8630340 134.6292080  14.7244650
   4.8648780 135.1464470  13.9190550   4.0334650 134.1522260  14.7014580
  11.2501430 144.7411390   6.2234550  10.6318700 145.2060840   5.6597270
  11.7624680 145.4338870   6.6404060   6.1133190 144.2687260  12.9018150
   5.7802570 144.8956180  13.5439220   6.2899870 144.7949140  12.1219820
  14.6267100 138.0832340  10.3694490  13.9222670 138.3717230  10.9497600
  14.9879260 138.8932450  10.0094050   4.5445670 136.3402040  12.7315100
   4.8862480 137.1844090  12.4368970   3.6061480 136.4885780  12.8480440
   5.3252290 146.2368060  14.7167330   5.9426290 146.9119140  14.4351780
   4.4645410 146.6456040  14.6254830  16.2429880 147.7007470  12.6321970
  15.5593400 148.3706580  12.6238640  16.7824170 147.8988120  11.8666830
  17.6954020 137.5287130  10.7603700  16.7478930 137.5626110  10.8919130
  18.0204010 138.3426080  11.1453060   8.2273560 133.8284310   9.0559690
   8.5348540 133.2731200   8.3395190   7.2974260 133.9628770   8.8732680
  13.7788620 149.5451600  11.3467150  13.7915780 149.1413890  10.4789410
  13.2263840 150.3198890  11.2428580  15.0734040 146.2667820   6.4357320
  14.9630370 145.3242150   6.5606740  15.0702290 146.6283460   7.3220080
  13.1774060 144.4481440  12.6749760  13.5942850 144.2341550  11.8403220
  13.9013880 144.7054230  13.2458380  10.6154320 141.8933140   5.7919810
   9.6883600 141.8270520   6.0208280  10.7679140 142.8313270   5.6775050
  10.6023400 138.1650140   2.7886970   9.6627070 138.3264100   2.8739430
  10.9206660 138.8835820   2.2422960  17.1236160 142.8468660  12.7666000
  16.2954790 142.9161750  12.2916130  17.7186640 143.4322970  12.2981830
  14.6451610 143.4553440   6.2955060  14.0264030 143.1172990   5.6481360
  14.6276060 142.8113200   7.0034250  14.0878170 139.6337980  13.7120870
  13.6749350 140.4591690  13.9660860  13.3554120 139.0483020  13.5197230
   6.2210960 142.4197880   8.5739540   5.8167960 141.7075130   8.0785440
   6.3074080 142.0751120   9.4627580   6.6892660 146.1065440  10.7378750
   6.3920950 145.5010910  10.0586530   7.6392480 146.1442750  10.6268110
   4.9339580 139.1941090  12.3538580   5.4854170 139.3036430  11.5791830
   5.4483090 139.5678690  13.0693810  14.7778270 149.6797310  14.4001850
  14.3008830 150.4869500  14.2074460  14.0940060 149.0275640  14.5528060
   5.7811090 145.8447130  17.3886550   4.8839620 146.0687100  17.6359950
   5.8063960 145.9682070  16.4397950  12.8216310 142.6940250   3.3027810
  13.2609590 141.8562680   3.1565630  13.5344730 143.3269650   3.3891950
   4.6082310 142.7160450  15.9643920   4.4690080 143.5883250  16.3331320
   3.7263670 142.3733260  15.8191860  10.9311690 147.6336320   7.2709050
  11.3707600 148.3760650   6.8564440  10.8698580 147.8762890   8.1948010
   6.4062660 148.6582150  18.1729070   6.3778090 149.0625100  17.3057500
   6.2427630 147.7292510  18.0100670   2.9215590 141.3142860   6.0746190
   2.8013190 142.0404950   5.4627460   2.6116480 140.5445770   5.5974100
  18.3577480 149.4409250  19.4693240  18.8337200 149.9192140  20.1482320
  18.9784640 149.3726740  18.7438740   1.8048590 146.1858190   8.2921010
   1.3976670 146.3272780   7.4374610   2.6961600 145.9018350   8.0892220
  17.7610730 146.6322100  16.6293250  17.8873790 146.3933980  15.7110430
  17.8032110 145.8006640  17.1015330  11.6227470 150.3350100  15.1988060
  12.1372140 150.2458110  16.0010490  10.7796550 150.6809800  15.4915970
  13.5981870 150.6205440   4.6272060  13.4383010 150.3308380   5.5253890
  13.4328580 149.8445570   4.0917290   6.0770250 150.4003970   6.4043680
   5.9012730 149.4839510   6.1911480   5.2225990 150.7591260   6.6441480
  13.3008000 148.1293000   3.1870060  12.6073160 148.1270290   2.5272340
  14.0430860 147.7052320   2.7564230  12.8657930 149.7555710   7.2618550
  13.3214880 148.9745090   7.5757170  13.2050450 150.4662530   7.8059730
  17.6134740 138.6854560  17.5942990  16.9979010 139.1934230  17.0658450
  17.2931160 137.7852890  17.5368930   5.3879250 134.6577930   9.4569860
   4.9447400 135.4387470   9.1254380   5.9464240 134.9807820  10.1640800
   9.6749060 137.5246450  15.0605180   9.2128430 137.7329470  15.8725120
   9.2727170 136.7105800  14.7575850  14.6753570 138.7455400  16.1901840
  13.8247160 138.4461150  16.5110910  14.5155360 138.9897410  15.2785660
  11.7703280 140.2457150  18.2900630  12.0956690 139.4120900  17.9502860
  12.5583610 140.7685670  18.4378960   8.5038070 134.2788630   4.3375690
   7.8792250 134.2748500   5.0629000   8.4168190 133.4119590   3.9411660
   7.4255150 135.2025260  11.3159460   7.7227480 136.1088090  11.2351480
   7.9740710 134.7144040  10.7019030   5.1793470 139.7811500   7.1851110
   4.9534390 139.5648670   8.0897730   4.3986000 140.2139960   6.8397080
  12.4091230 139.7874870   5.7841760  11.8100120 140.5110670   5.6005380
  12.9570840 139.7251650   5.0018210   7.6192680 140.6797080  17.8511380
   7.5236280 139.7391810  17.7011780   8.4624660 140.9012150  17.4559450
  11.0156100 138.4238410   7.8145040  11.4085670 138.7410610   7.0013730
  11.3772950 137.5450290   7.9289560   2.7503220 137.0910750  16.0045160
   2.3566610 137.9385960  16.2117940   2.0621620 136.4537120  16.1953800
   9.3248270 137.1745720  19.0741900   8.6346590 136.9817920  19.7087990
  10.0680570 137.4580360  19.6066200  11.6011240 141.0144160  11.9095820
  10.8692360 141.5230970  12.2585920  11.2035580 140.1974140  11.6084600
   8.0388630 137.6898360  10.3148310   8.0424690 137.2488310   9.4652850
   8.9339750 138.0115690  10.4220130   3.8891010 137.5724850   9.2742520
   3.5491060 138.0500080  10.0309570   3.1268330 137.1189970   8.9143620
   8.1008780 138.6910440   3.3055070   8.2221600 138.6496920   4.2540890
   7.7157290 139.5534590   3.1501800  12.0637150 136.4677840  11.3218760
  12.0809890 136.9186490  12.1660610  11.8152730 135.5683480  11.5352200
   7.1130280 141.0011580   2.7038370   6.5447180 140.5529830   2.0774280
   7.8219280 141.3604360   2.1703520  15.4907900 133.8810020  17.1605140
  15.8153670 133.1499680  17.6863120  15.5264410 133.5623660  16.2586130
   2.1899460 144.9023600  16.5805100   1.8054250 144.2617270  17.1788060
   2.5011650 145.6059720  17.1499830   8.3396600 141.7500140  12.0613720
   8.7066730 141.2758710  12.8075060   8.1501660 142.6241710  12.4022060
   6.1295970 140.7908780  14.3797930   5.8253040 141.6700760  14.6048290
   7.0842430 140.8508570  14.4155370   4.6577760 144.9969770   4.9764780
   3.8840020 144.4567390   4.8163500   5.3872390 144.4776380   4.6382540
  15.4165740 143.9935130  10.7691170  16.1364860 144.4890420  10.3787280
  15.2147560 143.3153020  10.1245040  10.8775680 135.3873090   4.9120560
  10.0640290 134.8886260   4.8365870  10.6837630 136.2271340   4.4956910
  10.7984540 144.0644190  16.6560170  10.7321850 143.1439860  16.4017760
  10.1689680 144.1619630  17.3704810  13.5924070 139.7592740   3.2082720
  14.4803690 140.0709970   3.0334060  13.5629160 138.8864990   2.8163300
   4.7015160 144.6650150   8.6143590   5.2193830 143.8618410   8.5600480
   4.2499180 144.6029290   9.4560420   9.5884660 145.9316430   3.8870890
   9.9300360 146.6758660   3.3914210   8.7597370 146.2447550   4.2495720
   2.1859700 141.6311520  15.5269290   1.8274640 142.2965370  16.1142630
   1.8914260 140.7995070  15.8981910   5.3872820 142.0895760  18.4108840
   5.0872960 142.2352940  17.5136660   6.1584060 141.5301050  18.3182230
  10.7301270 146.8864760  16.4063970  10.7445810 145.9545720  16.1882880
  10.0226370 146.9724520  17.0453740  15.8638340 141.0704580   2.6762580
  15.7802060 141.5018800   1.8259020  16.5832530 141.5302930   3.1089400
  16.9412480 143.5272100  15.7532550  16.2160670 144.1200880  15.5561940
  17.4687940 143.5195640  14.9545920  16.8925590 147.9246840   5.4044710
  16.2501750 147.2702460   5.6788430  16.5056250 148.3301930   4.6285380
  12.4712070 145.2532270   9.2516400  12.8235890 144.6560400   8.5917770
  11.5874400 144.9276500   9.4224650   8.5575350 146.0129960   6.6586810
   9.2446480 146.5599170   7.0394400   7.7707770 146.5570690   6.6936420
   7.8602560 143.0175990   6.2712170   8.3165340 143.8281240   6.4972360
   7.5090770 142.6999130   7.1030660  10.1635170 148.5282330  13.5004470
  10.8077390 148.7341710  14.1777890  10.5264610 147.7670730  13.0475320
   3.7614340 133.3613640   6.7434690   3.6328970 133.3531540   7.6919610
   2.9376360 133.6996730   6.3925700  11.4367250 146.5314680  12.2181920
  12.0789480 145.8307840  12.3314090  11.9616600 147.3113120  12.0378810
  13.2104870 147.3309580  15.4217980  13.5461110 147.9176270  16.0995900
  12.2905210 147.2002290  15.6515770  14.8639220 144.7335240   3.6035220
  14.5760920 145.1947930   4.3913100  15.6591390 144.2733010   3.8719440
   9.0393450 147.3800910  18.5906040   8.7190320 146.6610150  19.1351730
   8.3651810 148.0555980  18.6642100   7.0807620 148.2261360   3.5339190
   7.0717720 148.9591050   2.9183700   6.1605980 147.9792940   3.6266150
   2.6814260 143.4476250   4.2785950   2.0742210 144.1875150   4.2881250
   3.1563610 143.5375610   3.4524150  12.2547050 137.6127070  13.9542840
  12.6227870 136.7922280  14.2822410  11.3945250 137.6728960  14.3698490
  15.6209080 136.5684010   4.7630400  14.9922240 136.6729680   4.0488630
  15.1261000 136.7880790   5.5524280   7.5893110 138.8469960   6.1788280
   6.8809260 139.3156300   6.6201890   7.8737590 138.1891970   6.8133470
   9.2149040 140.2666660  14.1780810   9.7134290 140.7412480  14.8432660
   9.3571990 139.3430180  14.3850840  11.6208540 135.5720620   7.6184070
  11.4976320 135.5906750   6.6693580  12.5693100 135.6199560   7.7382470
   8.7085330 150.8075920   6.8912050   8.9626830 150.7697310   5.9691420
   7.7597810 150.6809250   6.8840300   5.7928130 137.1555040   3.5538990
   6.6418660 137.5925190   3.4879180   5.4259400 137.4675300   4.3811050
  16.4215900 136.4834620  15.0209200  15.9189500 137.2240020  15.3603010
  17.2372560 136.8718620  14.7045990  14.7137910 141.7267800   8.4670560
  13.7728050 141.7418030   8.6418250  15.0281980 140.9403760   8.9130860
   3.3866310 140.8412470   2.7107410   3.4669900 139.8939980   2.8224810
   4.2786060 141.1719350   2.8168070  16.7163490 148.8976650  10.1424820
  16.8410910 149.7207820  10.6148630  17.5829050 148.6867380   9.7948970
   3.1939300 150.1753930  19.0027530   3.9952030 150.4965980  19.4162930
   2.6791120 149.8149510  19.7247440  12.0303930 146.2833800  18.9502940
  11.4242090 146.3065400  18.2098690  11.7258040 145.5516840  19.4870190
  13.4604300 150.0114090  17.5612350  14.4126050 149.9272110  17.5112590
  13.3132520 150.6755800  18.2346140  16.3513500 149.3908300   3.0604260
  16.0655010 148.9773440   2.2458440  16.1533050 150.3196010   2.9404780
   7.9675050 144.0698380  17.4799100   7.2020720 144.6383380  17.3953770
   8.1491010 143.7774590  16.5867330  11.0563460 144.4461610   2.1051860
  10.5073560 144.8930910   2.7494600  11.6782720 143.9410860   2.6289530
  15.1098400 145.8003710  18.0374120  15.8507870 146.1379470  17.5341580
  14.3471080 145.9695770  17.4843890   2.9460190 140.8056980  18.8413650
   2.9865530 140.5070850  19.7498880   3.8005690 141.2064590  18.6821170
   6.7238580 143.4052530   4.0017160   7.1455000 143.2392400   4.8448550
   6.8489420 142.5952760   3.5072300   4.8866000 139.3849080  16.8088140
   4.3562460 138.8940030  16.1811480   5.5554070 139.8133280  16.2746070
  13.7844060 143.8518540  16.5729330  14.1985080 144.0063620  17.4219750
  12.8495060 143.9773760  16.7355110  14.2566230 141.1914700  18.5768480
  14.8387000 140.4367020  18.4888960  14.4328000 141.7222140  17.7999960
   5.3738300 136.3511450  16.8885430   5.2795170 135.7332200  16.1636300
   4.7935690 137.0777740  16.6615340   8.1399740 134.9084690  13.9212820
   7.6917040 134.9308950  13.0758370   7.5064940 134.5103710  14.5183120
   8.5459290 143.8039020  14.5425260   8.9647400 144.6471750  14.3701500
   7.6267920 143.9411060  14.3132040  10.8823190 141.5355200  15.9263100
  11.0019400 140.9396340  16.6657940  11.7417190 141.5724890  15.5064400
  13.2211090 142.0892390  14.5025610  12.6946310 142.6135010  13.8990750
  13.5642430 142.7219780  15.1335340   6.3966710 150.1092030  15.6582990
   5.8587800 150.8338090  15.3391690   6.6500670 149.6322370  14.8680330
   7.6491960 138.0776550  17.1838920   8.2391650 137.7692400  17.8716740
   6.8312200 137.6056300  17.3398820  12.4685390 137.6942360  17.4171940
  11.7800910 137.0323900  17.3521930  13.1891410 137.2480630  17.8620400
  13.0985790 134.2893990   3.4762200  13.3788080 133.4461890   3.8321620
  12.3251520 134.5217100   3.9900950   9.8014250 150.5101750   3.5396000
  10.6965040 150.8486720   3.5614760   9.8331880 149.7881160   2.9120280
   3.4410410 145.8828800   1.7683000   3.8785280 146.4258470   2.4240580
   3.9258140 145.0575750   1.7779340   5.2518130 147.0026840   6.8805230
   4.9513670 146.8791810   7.7809140   5.1455620 146.1435430   6.4720960
  16.7808600 149.0405420  16.2462200  16.1810590 149.0997980  15.5026120
  16.9102500 148.1010400  16.3759050  17.4766510 143.5270720   4.0866110
  18.2385420 144.0967370   4.1925800  17.4920880 142.9597920   4.8574420
  18.4826480 144.3820820   8.9308040  18.8535310 143.5988140   8.5244010
  19.1228410 145.0709920   8.7525340  15.4660240 145.7657400  14.3438360
  14.6520080 146.1954560  14.6064150  15.8734440 146.3775810  13.7307410
  13.9261290 136.8449940   2.5392260  14.3446170 136.6580920   1.6988920
  13.6197350 135.9928990   2.8495190  17.4251020 141.7574080   6.2368060
  17.0494620 140.9902010   5.8049350  16.6954140 142.1396780   6.7242990
   2.0146780 142.4361220  12.8577110   2.3819820 142.3488620  13.7373130
   1.4457600 141.6727770  12.7583970  16.8150640 140.9045600  15.8707580
  16.5836730 140.6758350  14.9705530  17.0755190 141.8245150  15.8252470
  15.2538710 136.1302030  18.6487280  16.1308890 136.1385430  19.0321280
  15.2659550 135.3932870  18.0379630  16.7001980 139.9831570   9.5375300
  17.2239460 139.4894220   8.9065470  17.2861400 140.1181930  10.2822870
  16.8791700 140.0671440  13.0594850  15.9294410 140.0334980  13.1739840
  17.0604710 140.9771550  12.8244620  16.1901950 139.2404920   5.4767710
  16.6861070 139.0075790   6.2616590  15.9918020 138.4016760   5.0605350
   2.0702490 133.6218640  11.1118750   2.7178680 133.0716020  10.6713910
   2.4904330 133.8761790  11.9334560  17.6189110 137.8765870   8.0105390
  17.5088390 137.7221910   8.9487660  18.3796700 137.3486810   7.7680800
  15.9654830 133.8160000  14.4688390  16.6027050 134.4294140  14.8347580
  16.1129720 133.8520660  13.5237620  18.5817870 136.4784450   3.8768240
  17.7869370 136.4129570   4.4061150  18.7861150 137.4135090   3.8653590
  15.5236290 150.5176000   7.8706630  16.1195360 150.1960570   7.1941050
  15.7814440 150.0447820   8.6619900   1.8234490 133.7774310  13.8544070
   1.4749310 134.2338130  14.6202250   1.4922190 132.8831440  13.9366500
   3.4298860 146.9493910  18.0197260   3.3868490 146.5786820  18.9011720
   3.5609870 147.8871480  18.1599080   7.1304890 148.5053500  13.6206980
   6.8896250 148.7728060  12.7337500   8.0707530 148.6759230  13.6757840
   9.3359310 134.9686190  17.3763490   9.2748200 135.5608020  18.1258900
  10.2759690 134.8612150  17.2313750  11.9733870 134.6256250  17.0155780
  12.5874280 134.9435540  16.3536860  12.5183430 134.1404840  17.6351640
  18.3909050 150.5247880  14.4217620  17.8967330 150.9216750  13.7044750
  17.7822340 149.8997090  14.8154900   2.4955130 133.3050510  17.1294840
   3.0438120 133.1238560  16.3660950   2.5610440 132.5144620  17.6651150
   3.2686890 149.8956160  15.1395040   2.6747210 149.7640860  15.8785080
   3.2610730 149.0594300  14.6737140  12.7141910 133.1888390  13.3425070
  11.8401750 133.5223500  13.1398000  12.6052660 132.7161570  14.1676940
  13.6213890 135.3959260  14.7266790  13.2927250 134.5811020  14.3468520
  14.5696190 135.3529070  14.6032480   2.8999120 147.2614540  14.0903080
   2.1733180 146.6419830  14.0229030   2.9608270 147.6555150  13.2201160
   6.5044220 149.4759540  10.8752490   7.0209240 148.8646900  10.3500750
   7.1541600 149.9788320  11.3663500   9.2439720 150.3668030  11.7021470
   9.5317530 150.1122330  10.8254480   9.7562940 149.8145390  12.2927040
  10.4616730 134.1058230  12.2817980   9.6788520 134.5803730  12.5614740
  10.1679660 133.2013060  12.1731160  15.0137800 134.8081330  10.3267070
  15.4545890 134.7526430   9.4788670  14.7445390 135.7239340  10.3977250
  16.8776370 134.4396570   8.3375890  16.8164770 133.4957790   8.1906910
  17.6568400 134.5476660   8.8829350   1.8057140 134.4105710   4.8031700
   2.5636500 134.5234590   4.2295730   1.3434310 135.2474910   4.7575130
   8.3470950 136.5244980   7.7934010   7.5345460 136.1501870   7.4529890
   8.8512590 135.7690060   8.0955200  12.8495930 133.1887430   9.0317080
  13.4525300 133.7607640   9.5065600  12.1088920 133.7526870   8.8090980
  15.9930530 133.5908990   4.3057360  16.1881160 134.4892440   4.5724790
  15.2060400 133.3596070   4.7990310   2.7891820 149.2722160   4.7449980
   2.2639440 149.6530190   4.0411940   2.7136400 149.8972930   5.4659690
   4.1782290 134.9369760   3.3433670   4.7075050 134.1499560   3.2141620
   4.8110610 135.6160950   3.5769200   6.3720130 134.6744900   6.3979060
   5.7422870 133.9732210   6.5649190   5.8325270 135.4349030   6.1812220
  17.5457140 150.8309700   6.0663920  17.7209330 150.1447440   5.4224840
  16.8478710 151.3556750   5.6740590   6.4975690 133.9528880  18.8331550
   6.2159960 134.4562480  18.0692370   6.8795390 133.1550630  18.4673680
   5.3884790 151.2204540   3.6199230   6.1203610 150.9363820   3.0723120
   5.6478460 150.9817820   4.5098610   4.5499580 147.3369270   3.6245560
   3.9208460 147.8054370   4.1731390   4.6647410 146.4918490   4.0591750
  13.0991150 133.3682460  19.4112020  12.9856600 133.6877070  20.3063540
  13.9160890 133.7694970  19.1149300  15.8789640 150.5153990  18.8930710
  16.6714960 150.0203220  18.6856670  16.1722790 151.1944130  19.5006320
  12.0049300 122.6131440 139.9694680  11.9243350 121.6986050 139.6986390
  11.5913720 123.1098510 139.2634390  10.1367340 124.3910460 141.8503950
   9.3609440 123.9110900 142.1402520  10.7880270 123.7116110 141.6760110
   4.1533170 124.7030270 142.7279710   3.3218050 124.4478980 143.1276220
   4.7614150 124.7741040 143.4637630  14.1574770 128.7970650 140.6303080
  13.6956300 128.0257890 140.9590250  14.9700320 128.8236720 141.1355530
   4.1334430 128.7370360 142.9237730   4.4362470 127.8468100 142.7447950
   4.8778020 129.2940580 142.6959980   2.5625120 119.6632160 136.5122100
   1.6741820 120.0048130 136.4101980   2.8466310 119.4632480 135.6202930
  10.3838080 131.0828660 140.2507070   9.7649520 131.5386160 139.6801510
  11.2389860 131.2380120 139.8496770   9.5776330 127.0667650 141.8574110
   9.5084610 126.1257590 141.6963240  10.3396190 127.1569060 142.4296680
   1.7683000 117.6722170 144.1830730   1.5885840 116.7747920 144.4633490
   1.3663080 118.2194040 144.8577680  10.6081500 119.8738030 142.0843040
  10.9846320 119.0009910 141.9716710  10.5101010 120.2096730 141.1933480
   4.7386510 118.2463660 137.5460480   4.8453260 119.1467390 137.8529240
   3.8278870 118.1981630 137.2555130  14.3905620 117.3688470 139.0171380
  15.2115240 116.8785040 139.0596860  14.4239700 117.9586130 139.7703220
   2.3869670 120.1682670 142.7913070   3.0679780 120.4321040 143.4100470
   2.0717720 119.3283540 143.1251080   6.5794240 121.2150030 141.8785660
   7.0872460 121.7131000 142.5190680   7.1107480 120.4385230 141.7025020
  18.6805170 119.3855220 145.5815010  17.9757340 119.7736930 145.0630120
  18.9463090 120.0805510 146.1835940   4.8630340 115.8548590 146.1449080
   4.8648780 116.3720980 145.3394980   4.0334650 115.3778770 146.1219010
  11.2501430 125.9667900 137.6438980  10.6318700 126.4317350 137.0801700
  11.7624680 126.6595380 138.0608490   6.1133190 125.4943770 144.3222580
   5.7802570 126.1212690 144.9643650   6.2899870 126.0205650 143.5424250
  14.6267100 119.3088850 141.7898920  13.9222670 119.5973740 142.3702030
  14.9879260 120.1188960 141.4298480   4.5445670 117.5658550 144.1519530
   4.8862480 118.4100600 143.8573400   3.6061480 117.7142290 144.2684870
   5.3252290 127.4624570 146.1371760   5.9426290 128.1375650 145.8556210
   4.4645410 127.8712550 146.0459260  16.2429880 128.9263980 144.0526400
  15.5593400 129.5963090 144.0443070  16.7824170 129.1244630 143.2871260
  17.6954020 118.7543640 142.1808130  16.7478930 118.7882620 142.3123560
  18.0204010 119.5682590 142.5657490   8.2273560 115.0540820 140.4764120
   8.5348540 114.4987710 139.7599620   7.2974260 115.1885280 140.2937110
  13.7788620 130.7708110 142.7671580  13.7915780 130.3670400 141.8993840
  13.2263840 131.5455400 142.6633010  15.0734040 127.4924330 137.8561750
  14.9630370 126.5498660 137.9811170  15.0702290 127.8539970 138.7424510
  13.1774060 125.6737950 144.0954190  13.5942850 125.4598060 143.2607650
  13.9013880 125.9310740 144.6662810  10.6154320 123.1189650 137.2124240
   9.6883600 123.0527030 137.4412710  10.7679140 124.0569780 137.0979480
  10.6023400 119.3906650 134.2091400   9.6627070 119.5520610 134.2943860
  10.9206660 120.1092330 133.6627390  17.1236160 124.0725170 144.1870430
  16.2954790 124.1418260 143.7120560  17.7186640 124.6579480 143.7186260
  14.6451610 124.6809950 137.7159490  14.0264030 124.3429500 137.0685790
  14.6276060 124.0369710 138.4238680  14.0878170 120.8594490 145.1325300
  13.6749350 121.6848200 145.3865290  13.3554120 120.2739530 144.9401660
   6.2210960 123.6454390 139.9943970   5.8167960 122.9331640 139.4989870
   6.3074080 123.3007630 140.8832010   6.6892660 127.3321950 142.1583180
   6.3920950 126.7267420 141.4790960   7.6392480 127.3699260 142.0472540
   4.9339580 120.4197600 143.7743010   5.4854170 120.5292940 142.9996260
   5.4483090 120.7935200 144.4898240  14.7778270 130.9053820 145.8206280
  14.3008830 131.7126010 145.6278890  14.0940060 130.2532150 145.9732490
   5.7811090 127.0703640 148.8090980   4.8839620 127.2943610 149.0564380
   5.8063960 127.1938580 147.8602380  12.8216310 123.9196760 134.7232240
  13.2609590 123.0819190 134.5770060  13.5344730 124.5526160 134.8096380
   4.6082310 123.9416960 147.3848350   4.4690080 124.8139760 147.7535750
   3.7263670 123.5989770 147.2396290  10.9311690 128.8592830 138.6913480
  11.3707600 129.6017160 138.2768870  10.8698580 129.1019400 139.6152440
   6.4062660 129.8838660 149.5933500   6.3778090 130.2881610 148.7261930
   6.2427630 128.9549020 149.4305100  16.4033450 115.1739570 133.0373280
  16.0906110 115.2666400 133.9372350  17.1645920 115.7520600 132.9870710
   2.9215590 122.5399370 137.4950620   2.8013190 123.2661460 136.8831890
   2.6116480 121.7702280 137.0178530   1.8048590 127.4114700 139.7125440
   1.3976670 127.5529290 138.8579040   2.6961600 127.1274860 139.5096650
  17.7610730 127.8578610 148.0497680  17.8873790 127.6190490 147.1314860
  17.8032110 127.0263150 148.5219760  11.6227470 131.5606610 146.6192490
  12.1372140 131.4714620 147.4214920  10.7796550 131.9066310 146.9120400
  13.5981870 131.8461950 136.0476490  13.4383010 131.5564890 136.9458320
  13.4328580 131.0702080 135.5121720   6.0770250 131.6260480 137.8248110
   5.9012730 130.7096020 137.6115910   5.2225990 131.9847770 138.0645910
  13.3008000 129.3549510 134.6074490  12.6073160 129.3526800 133.9476770
  14.0430860 128.9308830 134.1768660  12.8657930 130.9812220 138.6822980
  13.3214880 130.2001600 138.9961600  13.2050450 131.6919040 139.2264160
  17.6134740 119.9111070 149.0147420  16.9979010 120.4190740 148.4862880
  17.2931160 119.0109400 148.9573360   5.3879250 115.8834440 140.8774290
   4.9447400 116.6643980 140.5458810   5.9464240 116.2064330 141.5845230
   9.6749060 118.7502960 146.4809610   9.2128430 118.9585980 147.2929550
   9.2727170 117.9362310 146.1780280  14.6753570 119.9711910 147.6106270
  13.8247160 119.6717660 147.9315340  14.5155360 120.2153920 146.6990090
  11.7703280 121.4713660 149.7105060  12.0956690 120.6377410 149.3707290
  12.5583610 121.9942180 149.8583390   8.5038070 115.5045140 135.7580120
   7.8792250 115.5005010 136.4833430   8.4168190 114.6376100 135.3616090
   7.4255150 116.4281770 142.7363890   7.7227480 117.3344600 142.6555910
   7.9740710 115.9400550 142.1223460   5.1793470 121.0068010 138.6055540
   4.9534390 120.7905180 139.5102160   4.3986000 121.4396470 138.2601510
  12.4091230 121.0131380 137.2046190  11.8100120 121.7367180 137.0209810
  12.9570840 120.9508160 136.4222640   7.6192680 121.9053590 149.2715810
   7.5236280 120.9648320 149.1216210   8.4624660 122.1268660 148.8763880
  11.0156100 119.6494920 139.2349470  11.4085670 119.9667120 138.4218160
  11.3772950 118.7706800 139.3493990   2.7503220 118.3167260 147.4249590
   2.3566610 119.1642470 147.6322370   2.0621620 117.6793630 147.6158230
  11.6011240 122.2400670 143.3300250  10.8692360 122.7487480 143.6790350
  11.2035580 121.4230650 143.0289030   8.0388630 118.9154870 141.7352740
   8.0424690 118.4744820 140.8857280   8.9339750 119.2372200 141.8424560
   3.8891010 118.7981360 140.6946950   3.5491060 119.2756590 141.4514000
   3.1268330 118.3446480 140.3348050   8.1008780 119.9166950 134.7259500
   8.2221600 119.8753430 135.6745320   7.7157290 120.7791100 134.5706230
  12.0637150 117.6934350 142.7423190  12.0809890 118.1443000 143.5865040
  11.8152730 116.7939990 142.9556630   7.1130280 122.2268090 134.1242800
   6.5447180 121.7786340 133.4978710   7.8219280 122.5860870 133.5907950
  15.4907900 115.1066530 148.5809570  15.8153670 114.3756190 149.1067550
  15.5264410 114.7880170 147.6790560   2.1899460 126.1280110 148.0009530
   1.8054250 125.4873780 148.5992490   2.5011650 126.8316230 148.5704260
   8.3396600 122.9756650 143.4818150   8.7066730 122.5015220 144.2279490
   8.1501660 123.8498220 143.8226490   6.1295970 122.0165290 145.8002360
   5.8253040 122.8957270 146.0252720   7.0842430 122.0765080 145.8359800
   4.6577760 126.2226280 136.3969210   3.8840020 125.6823900 136.2367930
   5.3872390 125.7032890 136.0586970  15.4165740 125.2191640 142.1895600
  16.1364860 125.7146930 141.7991710  15.2147560 124.5409530 141.5449470
  10.8775680 116.6129600 136.3324990  10.0640290 116.1142770 136.2570300
  10.6837630 117.4527850 135.9161340  10.7984540 125.2900700 148.0764600
  10.7321850 124.3696370 147.8222190  10.1689680 125.3876140 148.7909240
  13.5924070 120.9849250 134.6287150  14.4803690 121.2966480 134.4538490
  13.5629160 120.1121500 134.2367730   4.7015160 125.8906660 140.0348020
   5.2193830 125.0874920 139.9804910   4.2499180 125.8285800 140.8764850
   9.5884660 127.1572940 135.3075320   9.9300360 127.9015170 134.8118640
   8.7597370 127.4704060 135.6700150   2.1859700 122.8568030 146.9473720
   1.8274640 123.5221880 147.5347060   1.8914260 122.0251580 147.3186340
   5.3872820 123.3152270 149.8313270   5.0872960 123.4609450 148.9341090
   6.1584060 122.7557560 149.7386660  10.7301270 128.1121270 147.8268400
  10.7445810 127.1802230 147.6087310  10.0226370 128.1981030 148.4658170
  15.8638340 122.2961090 134.0967010  15.7802060 122.7275310 133.2463450
  16.5832530 122.7559440 134.5293830  16.9412480 124.7528610 147.1736980
  16.2160670 125.3457390 146.9766370  17.4687940 124.7452150 146.3750350
  16.8925590 129.1503350 136.8249140  16.2501750 128.4958970 137.0992860
  16.5056250 129.5558440 136.0489810  12.4712070 126.4788780 140.6720830
  12.8235890 125.8816910 140.0122200  11.5874400 126.1533010 140.8429080
   8.5575350 127.2386470 138.0791240   9.2446480 127.7855680 138.4598830
   7.7707770 127.7827200 138.1140850   7.8602560 124.2432500 137.6916600
   8.3165340 125.0537750 137.9176790   7.5090770 123.9255640 138.5235090
  10.1635170 129.7538840 144.9208900  10.8077390 129.9598220 145.5982320
  10.5264610 128.9927240 144.4679750   3.7614340 114.5870150 138.1639120
   3.6328970 114.5788050 139.1124040   2.9376360 114.9253240 137.8130130
  11.4367250 127.7571190 143.6386350  12.0789480 127.0564350 143.7518520
  11.9616600 128.5369630 143.4583240  15.2822970 128.0419810 133.3625490
  15.0560550 127.3250250 133.9550130  14.8919170 127.7932250 132.5247240
  13.2104870 128.5566090 146.8422410  13.5461110 129.1432780 147.5200330
  12.2905210 128.4258800 147.0720200  14.8639220 125.9591750 135.0239650
  14.5760920 126.4204440 135.8117530  15.6591390 125.4989520 135.2923870
   7.0807620 129.4517870 134.9543620   7.0717720 130.1847560 134.3388130
   6.1605980 129.2049450 135.0470580   2.6814260 124.6732760 135.6990380
   2.0742210 125.4131660 135.7085680   3.1563610 124.7632120 134.8728580
  12.2547050 118.8383580 145.3747270  12.6227870 118.0178790 145.7026840
  11.3945250 118.8985470 145.7902920  15.6209080 117.7940520 136.1834830
  14.9922240 117.8986190 135.4693060  15.1261000 118.0137300 136.9728710
  10.0667220 129.5146110 133.6168810  10.1679200 129.3110100 132.6870790
   9.1668960 129.2604390 133.8216590   7.5893110 120.0726470 137.5992710
   6.8809260 120.5412810 138.0406320   7.8737590 119.4148480 138.2337900
   9.2149040 121.4923170 145.5985240   9.7134290 121.9668990 146.2637090
   9.3571990 120.5686690 145.8055270  11.6208540 116.7977130 139.0388500
  11.4976320 116.8163260 138.0898010  12.5693100 116.8456070 139.1586900
   8.7085330 132.0332430 138.3116480   8.9626830 131.9953820 137.3895850
   7.7597810 131.9065760 138.3044730   5.7928130 118.3811550 134.9743420
   6.6418660 118.8181700 134.9083610   5.4259400 118.6931810 135.8015480
  16.4215900 117.7091130 146.4413630  15.9189500 118.4496530 146.7807440
  17.2372560 118.0975130 146.1250420  14.7137910 122.9524310 139.8874990
  13.7728050 122.9674540 140.0622680  15.0281980 122.1660270 140.3335290
   4.6919550 124.6343910 133.4478950   5.4582820 124.5225270 134.0104380
   4.7694240 123.9381880 132.7955720   3.3866310 122.0668980 134.1311840
   3.4669900 121.1196490 134.2429240   4.2786060 122.3975860 134.2372500
  16.7163490 130.1233160 141.5629250  16.8410910 130.9464330 142.0353060
  17.5829050 129.9123890 141.2153400   4.1881020 132.2164370 141.2346380
   4.9243500 131.6679830 141.5054950   4.5721940 133.0820380 141.0952370
   7.2983330 131.3894680 133.0571950   8.0911940 131.6783510 132.6053740
   6.7787680 130.9586850 132.3784430  13.4604300 131.2370600 148.9816780
  14.4126050 131.1528620 148.9317020  13.3132520 131.9012310 149.6550570
  16.3513500 130.6164810 134.4808690  16.0655010 130.2029950 133.6662870
  16.1533050 131.5452520 134.3609210   7.8160730 126.6098090 132.9214300
   7.7111370 125.9950440 133.6475680   7.6484950 126.0863980 132.1377310
   7.9675050 125.2954890 148.9003530   7.2020720 125.8639890 148.8158200
   8.1491010 125.0031100 148.0071760  11.0563460 125.6718120 133.5256290
  10.5073560 126.1187420 134.1699030  11.6782720 125.1667370 134.0493960
  15.1098400 127.0260220 149.4578550  15.8507870 127.3635980 148.9546010
  14.3471080 127.1952280 148.9048320   6.7238580 124.6309040 135.4221590
   7.1455000 124.4648910 136.2652980   6.8489420 123.8209270 134.9276730
   4.8866000 120.6105590 148.2292570   4.3562460 120.1196540 147.6015910
   5.5554070 121.0389790 147.6950500   9.2366220 123.6546650 132.6698690
   9.7571880 122.9395670 132.3039840   9.8834620 124.2932520 132.9699200
  13.7844060 125.0775050 147.9933760  14.1985080 125.2320130 148.8424180
  12.8495060 125.2030270 148.1559540  14.2566230 122.4171210 149.9972910
  14.8387000 121.6623530 149.9093390  14.4328000 122.9478650 149.2204390
   5.3738300 117.5767960 148.3089860   5.2795170 116.9588710 147.5840730
   4.7935690 118.3034250 148.0819770   8.1399740 116.1341200 145.3417250
   7.6917040 116.1565460 144.4962800   7.5064940 115.7360220 145.9387550
   8.5459290 125.0295530 145.9629690   8.9647400 125.8728260 145.7905930
   7.6267920 125.1667570 145.7336470  10.8823190 122.7611710 147.3467530
  11.0019400 122.1652850 148.0862370  11.7417190 122.7981400 146.9268830
  13.2211090 123.3148900 145.9230040  12.6946310 123.8391520 145.3195180
  13.5642430 123.9476290 146.5539770   5.6197480 120.7042270 132.3679750
   5.4186540 119.8409630 132.7293090   5.4489530 120.6175630 131.4301350
   6.3966710 131.3348540 147.0787420   5.8587800 132.0594600 146.7596120
   6.6500670 130.8578880 146.2884760   7.6491960 119.3033060 148.6043350
   8.2391650 118.9948910 149.2921170   6.8312200 118.8312810 148.7603250
  12.4685390 118.9198870 148.8376370  11.7800910 118.2580410 148.7726360
  13.1891410 118.4737140 149.2824830  13.0985790 115.5150500 134.8966630
  13.3788080 114.6718400 135.2526050  12.3251520 115.7473610 135.4105380
   4.4180280 117.8042890 132.3557630   4.7206180 117.8110320 131.4476780
   5.1574870 117.4540750 132.8525290   9.2528920 132.5699750 147.3374070
   9.1787620 133.4734890 147.6446440   8.3507760 132.2511650 147.3096140
   7.6365210 116.7477510 133.3413830   7.2887210 116.0701500 132.7616280
   7.8377980 116.2867020 134.1557220   9.8014250 131.7358260 134.9600430
  10.6965040 132.0743230 134.9819190   9.8331880 131.0137670 134.3324710
   3.4410410 127.1085310 133.1887430   3.8785280 127.6514980 133.8445010
   3.9258140 126.2832260 133.1983770   5.2518130 128.2283350 138.3009660
   4.9513670 128.1048320 139.2013570   5.1455620 127.3691940 137.8925390
  16.7808600 130.2661930 147.6666630  16.1810590 130.3254490 146.9230550
  16.9102500 129.3266910 147.7963480  18.0210050 128.0079750 133.0036340
  17.1903010 128.0756400 133.4743570  18.1981880 128.8983870 132.7003200
  17.4766510 124.7527230 135.5070540  18.2385420 125.3223880 135.6130230
  17.4920880 124.1854430 136.2778850  18.4826480 125.6077330 140.3512470
  18.8535310 124.8244650 139.9448440  19.1228410 126.2966430 140.1729770
  15.4660240 126.9913910 145.7642790  14.6520080 127.4211070 146.0268580
  15.8734440 127.6032320 145.1511840  17.5285680 125.0461600 132.6643060
  17.8034520 125.9540480 132.5362280  17.3396420 124.9824130 133.6005050
  13.9261290 118.0706450 133.9596690  14.3446170 117.8837430 133.1193350
  13.6197350 117.2185500 134.2699620  17.4251020 122.9830590 137.6572490
  17.0494620 122.2158520 137.2253780  16.6954140 123.3653290 138.1447420
   2.0146780 123.6617730 144.2781540   2.3819820 123.5745130 145.1577560
   1.4457600 122.8984280 144.1788400  16.8150640 122.1302110 147.2912010
  16.5836730 121.9014860 146.3909960  17.0755190 123.0501660 147.2456900
  16.7001980 121.2088080 140.9579730  17.2239460 120.7150730 140.3269900
  17.2861400 121.3438440 141.7027300  16.8791700 121.2927950 144.4799280
  15.9294410 121.2591490 144.5944270  17.0604710 122.2028060 144.2449050
   2.7336140 119.5429630 133.5897910   3.4427840 119.1212850 133.1045190
   2.0176080 119.6104860 132.9581260   2.3810300 115.5968960 132.6300560
   3.1038430 116.1377900 132.9481780   2.6534820 115.3232380 131.7542100
  16.1901950 120.4661430 136.8972140  16.6861070 120.2332300 137.6821020
  15.9918020 119.6273270 136.4809780   2.0702490 114.8475150 142.5323180
   2.7178680 114.2972530 142.0918340   2.4904330 115.1018300 143.3538990
  17.6189110 119.1022380 139.4309820  17.5088390 118.9478420 140.3692090
  18.3796700 118.5743320 139.1885230  15.9654830 115.0416510 145.8892820
  16.6027050 115.6550650 146.2552010  16.1129720 115.0777170 144.9442050
  18.5079380 116.9330300 132.6715960  19.4328690 116.8011480 132.4634250
  18.4855170 117.0123120 133.6252410  18.5817870 117.7040960 135.2972670
  17.7869370 117.6386080 135.8265580  18.7861150 118.6391600 135.2858020
  15.5236290 131.7432510 139.2911060  16.1195360 131.4217080 138.6145480
  15.7814440 131.2704330 140.0824330   1.8234490 115.0030820 145.2748500
   1.4749310 115.4594640 146.0406680   1.4922190 114.1087950 145.3570930
   7.1304890 129.7310010 145.0411410   6.8896250 129.9984570 144.1541930
   8.0707530 129.9015740 145.0962270   9.3359310 116.1942700 148.7967920
   9.2748200 116.7864530 149.5463330  10.2759690 116.0868660 148.6518180
  11.9733870 115.8512760 148.4360210  12.5874280 116.1692050 147.7741290
  12.5183430 115.3661350 149.0556070  18.3909050 131.7504390 145.8422050
  17.8967330 132.1473260 145.1249180  17.7822340 131.1253600 146.2359330
   2.4955130 114.5307020 148.5499270   3.0438120 114.3495070 147.7865380
   2.5610440 113.7401130 149.0855580   3.2686890 131.1212670 146.5599470
   2.6747210 130.9897370 147.2989510   3.2610730 130.2850810 146.0941570
  12.7141910 114.4144900 144.7629500  11.8401750 114.7480010 144.5602430
  12.6052660 113.9418080 145.5881370  13.6213890 116.6215770 146.1471220
  13.2927250 115.8067530 145.7672950  14.5696190 116.5785580 146.0236910
  16.0748500 132.3927810 143.1208790  15.6151470 133.1443620 142.7466810
  15.4460960 131.6734280 143.0623590   2.8999120 128.4871050 145.5107510
   2.1733180 127.8676340 145.4433460   2.9608270 128.8811660 144.6405590
   6.5044220 130.7016050 142.2956920   7.0209240 130.0903410 141.7705180
   7.1541600 131.2044830 142.7867930   9.2439720 131.5924540 143.1225900
   9.5317530 131.3378840 142.2458910   9.7562940 131.0401900 143.7131470
  10.4616730 115.3314740 143.7022410   9.6788520 115.8060240 143.9819170
  10.1679660 114.4269570 143.5935590  15.0137800 116.0337840 141.7471500
  15.4545890 115.9782940 140.8993100  14.7445390 116.9495850 141.8181680
  16.8776370 115.6653080 139.7580320  16.8164770 114.7214300 139.6111340
  17.6568400 115.7733170 140.3033780   1.8057140 115.6362220 136.2236130
   2.5636500 115.7491100 135.6500160   1.3434310 116.4731420 136.1779560
   8.3470950 117.7501490 139.2138440   7.5345460 117.3758380 138.8734320
   8.8512590 116.9946570 139.5159630  12.8495930 114.4143940 140.4521510
  13.4525300 114.9864150 140.9270030  12.1088920 114.9783380 140.2295410
  15.9930530 114.8165500 135.7261790  16.1881160 115.7148950 135.9929220
  15.2060400 114.5852580 136.2194740   2.7891820 130.4978670 136.1654410
   2.2639440 130.8786700 135.4616370   2.7136400 131.1229440 136.8864120
   4.1782290 116.1626270 134.7638100   4.7075050 115.3756070 134.6346050
   4.8110610 116.8417460 134.9973630   6.3720130 115.9001410 137.8183490
   5.7422870 115.1988720 137.9853620   5.8325270 116.6605540 137.6016650
  17.5457140 132.0566210 137.4868350  17.7209330 131.3703950 136.8429270
  16.8478710 132.5813260 137.0945020   5.3884790 132.4461050 135.0403660
   6.1203610 132.1620330 134.4927550   5.6478460 132.2074330 135.9303040
   4.5499580 128.5625780 135.0449990   3.9208460 129.0310880 135.5935820
   4.6647410 127.7175000 135.4796180  12.0049300 122.6131440 121.1951190
  11.9243350 121.6986050 120.9242900  11.5913720 123.1098510 120.4890900
  10.1367340 124.3910460 123.0760460   9.3609440 123.9110900 123.3659030
  10.7880270 123.7116110 122.9016620   4.1533170 124.7030270 123.9536220
   3.3218050 124.4478980 124.3532730   4.7614150 124.7741040 124.6894140
  14.1574770 128.7970650 121.8559590  13.6956300 128.0257890 122.1846760
  14.9700320 128.8236720 122.3612040   4.1334430 128.7370360 124.1494240
   4.4362470 127.8468100 123.9704460   4.8778020 129.2940580 123.9216490
   2.5625120 119.6632160 117.7378610   1.6741820 120.0048130 117.6358490
   2.8466310 119.4632480 116.8459440  10.3838080 131.0828660 121.4763580
   9.7649520 131.5386160 120.9058020  11.2389860 131.2380120 121.0753280
   9.5776330 127.0667650 123.0830620   9.5084610 126.1257590 122.9219750
  10.3396190 127.1569060 123.6553190   1.7683000 117.6722170 125.4087240
   1.5885840 116.7747920 125.6890000   1.3663080 118.2194040 126.0834190
  10.6081500 119.8738030 123.3099550  10.9846320 119.0009910 123.1973220
  10.5101010 120.2096730 122.4189990   4.7386510 118.2463660 118.7716990
   4.8453260 119.1467390 119.0785750   3.8278870 118.1981630 118.4811640
  14.3905620 117.3688470 120.2427890  15.2115240 116.8785040 120.2853370
  14.4239700 117.9586130 120.9959730   2.3869670 120.1682670 124.0169580
   3.0679780 120.4321040 124.6356980   2.0717720 119.3283540 124.3507590
   6.5794240 121.2150030 123.1042170   7.0872460 121.7131000 123.7447190
   7.1107480 120.4385230 122.9281530  18.6805170 119.3855220 126.8071520
  17.9757340 119.7736930 126.2886630  18.9463090 120.0805510 127.4092450
   4.8630340 115.8548590 127.3705590   4.8648780 116.3720980 126.5651490
   4.0334650 115.3778770 127.3475520  11.2501430 125.9667900 118.8695490
  10.6318700 126.4317350 118.3058210  11.7624680 126.6595380 119.2865000
   6.1133190 125.4943770 125.5479090   5.7802570 126.1212690 126.1900160
   6.2899870 126.0205650 124.7680760  14.6267100 119.3088850 123.0155430
  13.9222670 119.5973740 123.5958540  14.9879260 120.1188960 122.6554990
   4.5445670 117.5658550 125.3776040   4.8862480 118.4100600 125.0829910
   3.6061480 117.7142290 125.4941380   5.3252290 127.4624570 127.3628270
   5.9426290 128.1375650 127.0812720   4.4645410 127.8712550 127.2715770
  16.2429880 128.9263980 125.2782910  15.5593400 129.5963090 125.2699580
  16.7824170 129.1244630 124.5127770  17.6954020 118.7543640 123.4064640
  16.7478930 118.7882620 123.5380070  18.0204010 119.5682590 123.7914000
   8.2273560 115.0540820 121.7020630   8.5348540 114.4987710 120.9856130
   7.2974260 115.1885280 121.5193620  13.7788620 130.7708110 123.9928090
  13.7915780 130.3670400 123.1250350  13.2263840 131.5455400 123.8889520
  15.0734040 127.4924330 119.0818260  14.9630370 126.5498660 119.2067680
  15.0702290 127.8539970 119.9681020  13.1774060 125.6737950 125.3210700
  13.5942850 125.4598060 124.4864160  13.9013880 125.9310740 125.8919320
  10.6154320 123.1189650 118.4380750   9.6883600 123.0527030 118.6669220
  10.7679140 124.0569780 118.3235990  10.6023400 119.3906650 115.4347910
   9.6627070 119.5520610 115.5200370  10.9206660 120.1092330 114.8883900
  17.1236160 124.0725170 125.4126940  16.2954790 124.1418260 124.9377070
  17.7186640 124.6579480 124.9442770  14.6451610 124.6809950 118.9416000
  14.0264030 124.3429500 118.2942300  14.6276060 124.0369710 119.6495190
  14.0878170 120.8594490 126.3581810  13.6749350 121.6848200 126.6121800
  13.3554120 120.2739530 126.1658170   6.2210960 123.6454390 121.2200480
   5.8167960 122.9331640 120.7246380   6.3074080 123.3007630 122.1088520
   6.6892660 127.3321950 123.3839690   6.3920950 126.7267420 122.7047470
   7.6392480 127.3699260 123.2729050   4.9339580 120.4197600 124.9999520
   5.4854170 120.5292940 124.2252770   5.4483090 120.7935200 125.7154750
  14.7778270 130.9053820 127.0462790  14.3008830 131.7126010 126.8535400
  14.0940060 130.2532150 127.1989000   5.7811090 127.0703640 130.0347490
   4.8839620 127.2943610 130.2820890   5.8063960 127.1938580 129.0858890
  12.8216310 123.9196760 115.9488750  13.2609590 123.0819190 115.8026570
  13.5344730 124.5526160 116.0352890   4.6082310 123.9416960 128.6104860
   4.4690080 124.8139760 128.9792260   3.7263670 123.5989770 128.4652800
  10.9311690 128.8592830 119.9169990  11.3707600 129.6017160 119.5025380
  10.8698580 129.1019400 120.8408950   6.4062660 129.8838660 130.8190010
   6.3778090 130.2881610 129.9518440   6.2427630 128.9549020 130.6561610
  16.4033450 115.1739570 114.2629790  16.0906110 115.2666400 115.1628860
  17.1645920 115.7520600 114.2127220   2.9215590 122.5399370 118.7207130
   2.8013190 123.2661460 118.1088400   2.6116480 121.7702280 118.2435040
  18.3577480 130.6665760 132.1154180  18.8337200 131.1448650 132.7943260
  18.9784640 130.5983250 131.3899680   1.8048590 127.4114700 120.9381950
   1.3976670 127.5529290 120.0835550   2.6961600 127.1274860 120.7353160
  17.7610730 127.8578610 129.2754190  17.8873790 127.6190490 128.3571370
  17.8032110 127.0263150 129.7476270  11.6227470 131.5606610 127.8449000
  12.1372140 131.4714620 128.6471430  10.7796550 131.9066310 128.1376910
  13.5981870 131.8461950 117.2733000  13.4383010 131.5564890 118.1714830
  13.4328580 131.0702080 116.7378230   6.0770250 131.6260480 119.0504620
   5.9012730 130.7096020 118.8372420   5.2225990 131.9847770 119.2902420
  13.3008000 129.3549510 115.8331000  12.6073160 129.3526800 115.1733280
  14.0430860 128.9308830 115.4025170  12.8657930 130.9812220 119.9079490
  13.3214880 130.2001600 120.2218110  13.2050450 131.6919040 120.4520670
  17.6134740 119.9111070 130.2403930  16.9979010 120.4190740 129.7119390
  17.2931160 119.0109400 130.1829870   5.3879250 115.8834440 122.1030800
   4.9447400 116.6643980 121.7715320   5.9464240 116.2064330 122.8101740
   9.6749060 118.7502960 127.7066120   9.2128430 118.9585980 128.5186060
   9.2727170 117.9362310 127.4036790  14.6753570 119.9711910 128.8362780
  13.8247160 119.6717660 129.1571850  14.5155360 120.2153920 127.9246600
  11.7703280 121.4713660 130.9361570  12.0956690 120.6377410 130.5963800
  12.5583610 121.9942180 131.0839900   8.5038070 115.5045140 116.9836630
   7.8792250 115.5005010 117.7089940   8.4168190 114.6376100 116.5872600
   7.4255150 116.4281770 123.9620400   7.7227480 117.3344600 123.8812420
   7.9740710 115.9400550 123.3479970   5.1793470 121.0068010 119.8312050
   4.9534390 120.7905180 120.7358670   4.3986000 121.4396470 119.4858020
  12.4091230 121.0131380 118.4302700  11.8100120 121.7367180 118.2466320
  12.9570840 120.9508160 117.6479150   7.6192680 121.9053590 130.4972320
   7.5236280 120.9648320 130.3472720   8.4624660 122.1268660 130.1020390
  11.0156100 119.6494920 120.4605980  11.4085670 119.9667120 119.6474670
  11.3772950 118.7706800 120.5750500   2.7503220 118.3167260 128.6506100
   2.3566610 119.1642470 128.8578880   2.0621620 117.6793630 128.8414740
   9.3248270 118.4002230 131.7202840   8.6346590 118.2074430 132.3548930
  10.0680570 118.6836870 132.2527140  11.6011240 122.2400670 124.5556760
  10.8692360 122.7487480 124.9046860  11.2035580 121.4230650 124.2545540
   8.0388630 118.9154870 122.9609250   8.0424690 118.4744820 122.1113790
   8.9339750 119.2372200 123.0681070   3.8891010 118.7981360 121.9203460
   3.5491060 119.2756590 122.6770510   3.1268330 118.3446480 121.5604560
   8.1008780 119.9166950 115.9516010   8.2221600 119.8753430 116.9001830
   7.7157290 120.7791100 115.7962740  12.0637150 117.6934350 123.9679700
  12.0809890 118.1443000 124.8121550  11.8152730 116.7939990 124.1813140
   7.1130280 122.2268090 115.3499310   6.5447180 121.7786340 114.7235220
   7.8219280 122.5860870 114.8164460  15.4907900 115.1066530 129.8066080
  15.8153670 114.3756190 130.3324060  15.5264410 114.7880170 128.9047070
   2.1899460 126.1280110 129.2266040   1.8054250 125.4873780 129.8249000
   2.5011650 126.8316230 129.7960770   8.3396600 122.9756650 124.7074660
   8.7066730 122.5015220 125.4536000   8.1501660 123.8498220 125.0483000
   6.1295970 122.0165290 127.0258870   5.8253040 122.8957270 127.2509230
   7.0842430 122.0765080 127.0616310   4.6577760 126.2226280 117.6225720
   3.8840020 125.6823900 117.4624440   5.3872390 125.7032890 117.2843480
  15.4165740 125.2191640 123.4152110  16.1364860 125.7146930 123.0248220
  15.2147560 124.5409530 122.7705980  10.8775680 116.6129600 117.5581500
  10.0640290 116.1142770 117.4826810  10.6837630 117.4527850 117.1417850
  10.7984540 125.2900700 129.3021110  10.7321850 124.3696370 129.0478700
  10.1689680 125.3876140 130.0165750  13.5924070 120.9849250 115.8543660
  14.4803690 121.2966480 115.6795000  13.5629160 120.1121500 115.4624240
   4.7015160 125.8906660 121.2604530   5.2193830 125.0874920 121.2061420
   4.2499180 125.8285800 122.1021360   9.5884660 127.1572940 116.5331830
   9.9300360 127.9015170 116.0375150   8.7597370 127.4704060 116.8956660
   2.1859700 122.8568030 128.1730230   1.8274640 123.5221880 128.7603570
   1.8914260 122.0251580 128.5442850   5.3872820 123.3152270 131.0569780
   5.0872960 123.4609450 130.1597600   6.1584060 122.7557560 130.9643170
  10.7301270 128.1121270 129.0524910  10.7445810 127.1802230 128.8343820
  10.0226370 128.1981030 129.6914680  15.8638340 122.2961090 115.3223520
  15.7802060 122.7275310 114.4719960  16.5832530 122.7559440 115.7550340
  16.9412480 124.7528610 128.3993490  16.2160670 125.3457390 128.2022880
  17.4687940 124.7452150 127.6006860  16.8925590 129.1503350 118.0505650
  16.2501750 128.4958970 118.3249370  16.5056250 129.5558440 117.2746320
  12.4712070 126.4788780 121.8977340  12.8235890 125.8816910 121.2378710
  11.5874400 126.1533010 122.0685590   8.5575350 127.2386470 119.3047750
   9.2446480 127.7855680 119.6855340   7.7707770 127.7827200 119.3397360
   7.8602560 124.2432500 118.9173110   8.3165340 125.0537750 119.1433300
   7.5090770 123.9255640 119.7491600  10.1635170 129.7538840 126.1465410
  10.8077390 129.9598220 126.8238830  10.5264610 128.9927240 125.6936260
   3.7614340 114.5870150 119.3895630   3.6328970 114.5788050 120.3380550
   2.9376360 114.9253240 119.0386640  11.4367250 127.7571190 124.8642860
  12.0789480 127.0564350 124.9775030  11.9616600 128.5369630 124.6839750
  15.2822970 128.0419810 114.5882000  15.0560550 127.3250250 115.1806640
  14.8919170 127.7932250 113.7503750  13.2104870 128.5566090 128.0678920
  13.5461110 129.1432780 128.7456840  12.2905210 128.4258800 128.2976710
  14.8639220 125.9591750 116.2496160  14.5760920 126.4204440 117.0374040
  15.6591390 125.4989520 116.5180380   9.0393450 128.6057420 131.2366980
   8.7190320 127.8866660 131.7812670   8.3651810 129.2812490 131.3103040
   7.0807620 129.4517870 116.1800130   7.0717720 130.1847560 115.5644640
   6.1605980 129.2049450 116.2727090   2.6814260 124.6732760 116.9246890
   2.0742210 125.4131660 116.9342190   3.1563610 124.7632120 116.0985090
  12.2547050 118.8383580 126.6003780  12.6227870 118.0178790 126.9283350
  11.3945250 118.8985470 127.0159430  15.6209080 117.7940520 117.4091340
  14.9922240 117.8986190 116.6949570  15.1261000 118.0137300 118.1985220
  10.0667220 129.5146110 114.8425320  10.1679200 129.3110100 113.9127300
   9.1668960 129.2604390 115.0473100   7.5893110 120.0726470 118.8249220
   6.8809260 120.5412810 119.2662830   7.8737590 119.4148480 119.4594410
   9.2149040 121.4923170 126.8241750   9.7134290 121.9668990 127.4893600
   9.3571990 120.5686690 127.0311780  11.6208540 116.7977130 120.2645010
  11.4976320 116.8163260 119.3154520  12.5693100 116.8456070 120.3843410
   8.7085330 132.0332430 119.5372990   8.9626830 131.9953820 118.6152360
   7.7597810 131.9065760 119.5301240   5.7928130 118.3811550 116.1999930
   6.6418660 118.8181700 116.1340120   5.4259400 118.6931810 117.0271990
  16.4215900 117.7091130 127.6670140  15.9189500 118.4496530 128.0063950
  17.2372560 118.0975130 127.3506930  14.7137910 122.9524310 121.1131500
  13.7728050 122.9674540 121.2879190  15.0281980 122.1660270 121.5591800
   4.6919550 124.6343910 114.6735460   5.4582820 124.5225270 115.2360890
   4.7694240 123.9381880 114.0212230   3.3866310 122.0668980 115.3568350
   3.4669900 121.1196490 115.4685750   4.2786060 122.3975860 115.4629010
  16.7163490 130.1233160 122.7885760  16.8410910 130.9464330 123.2609570
  17.5829050 129.9123890 122.4409910   4.1881020 132.2164370 122.4602890
   4.9243500 131.6679830 122.7311460   4.5721940 133.0820380 122.3208880
   3.1939300 131.4010440 131.6488470   3.9952030 131.7222490 132.0623870
   2.6791120 131.0406020 132.3708380   7.2983330 131.3894680 114.2828460
   8.0911940 131.6783510 113.8310250   6.7787680 130.9586850 113.6040940
  12.0303930 127.5090310 131.5963880  11.4242090 127.5321910 130.8559630
  11.7258040 126.7773350 132.1331130  13.4604300 131.2370600 130.2073290
  14.4126050 131.1528620 130.1573530  13.3132520 131.9012310 130.8807080
  16.3513500 130.6164810 115.7065200  16.0655010 130.2029950 114.8919380
  16.1533050 131.5452520 115.5865720   7.8160730 126.6098090 114.1470810
   7.7111370 125.9950440 114.8732190   7.6484950 126.0863980 113.3633820
   7.9675050 125.2954890 130.1260040   7.2020720 125.8639890 130.0414710
   8.1491010 125.0031100 129.2328270  11.0563460 125.6718120 114.7512800
  10.5073560 126.1187420 115.3955540  11.6782720 125.1667370 115.2750470
  15.1098400 127.0260220 130.6835060  15.8507870 127.3635980 130.1802520
  14.3471080 127.1952280 130.1304830   2.9460190 122.0313490 131.4874590
   2.9865530 121.7327360 132.3959820   3.8005690 122.4321100 131.3282110
   6.7238580 124.6309040 116.6478100   7.1455000 124.4648910 117.4909490
   6.8489420 123.8209270 116.1533240   4.8866000 120.6105590 129.4549080
   4.3562460 120.1196540 128.8272420   5.5554070 121.0389790 128.9207010
   9.2366220 123.6546650 113.8955200   9.7571880 122.9395670 113.5296350
   9.8834620 124.2932520 114.1955710  13.7844060 125.0775050 129.2190270
  14.1985080 125.2320130 130.0680690  12.8495060 125.2030270 129.3816050
  14.2566230 122.4171210 131.2229420  14.8387000 121.6623530 131.1349900
  14.4328000 122.9478650 130.4460900   5.3738300 117.5767960 129.5346370
   5.2795170 116.9588710 128.8097240   4.7935690 118.3034250 129.3076280
   8.1399740 116.1341200 126.5673760   7.6917040 116.1565460 125.7219310
   7.5064940 115.7360220 127.1644060   8.5459290 125.0295530 127.1886200
   8.9647400 125.8728260 127.0162440   7.6267920 125.1667570 126.9592980
  10.8823190 122.7611710 128.5724040  11.0019400 122.1652850 129.3118880
  11.7417190 122.7981400 128.1525340  13.2211090 123.3148900 127.1486550
  12.6946310 123.8391520 126.5451690  13.5642430 123.9476290 127.7796280
   5.6197480 120.7042270 113.5936260   5.4186540 119.8409630 113.9549600
   5.4489530 120.6175630 112.6557860   6.3966710 131.3348540 128.3043930
   5.8587800 132.0594600 127.9852630   6.6500670 130.8578880 127.5141270
   7.6491960 119.3033060 129.8299860   8.2391650 118.9948910 130.5177680
   6.8312200 118.8312810 129.9859760  12.4685390 118.9198870 130.0632880
  11.7800910 118.2580410 129.9982870  13.1891410 118.4737140 130.5081340
  13.0985790 115.5150500 116.1223140  13.3788080 114.6718400 116.4782560
  12.3251520 115.7473610 116.6361890   4.4180280 117.8042890 113.5814140
   4.7206180 117.8110320 112.6733290   5.1574870 117.4540750 114.0781800
   9.2528920 132.5699750 128.5630580   9.1787620 133.4734890 128.8702950
   8.3507760 132.2511650 128.5352650   7.6365210 116.7477510 114.5670340
   7.2887210 116.0701500 113.9872790   7.8377980 116.2867020 115.3813730
   9.8014250 131.7358260 116.1856940  10.6965040 132.0743230 116.2075700
   9.8331880 131.0137670 115.5581220   3.4410410 127.1085310 114.4143940
   3.8785280 127.6514980 115.0701520   3.9258140 126.2832260 114.4240280
   5.2518130 128.2283350 119.5266170   4.9513670 128.1048320 120.4270080
   5.1455620 127.3691940 119.1181900  16.7808600 130.2661930 128.8923140
  16.1810590 130.3254490 128.1487060  16.9102500 129.3266910 129.0219990
  18.0210050 128.0079750 114.2292850  17.1903010 128.0756400 114.7000080
  18.1981880 128.8983870 113.9259710  17.4766510 124.7527230 116.7327050
  18.2385420 125.3223880 116.8386740  17.4920880 124.1854430 117.5035360
  18.4826480 125.6077330 121.5768980  18.8535310 124.8244650 121.1704950
  19.1228410 126.2966430 121.3986280  15.4660240 126.9913910 126.9899300
  14.6520080 127.4211070 127.2525090  15.8734440 127.6032320 126.3768350
  17.5285680 125.0461600 113.8899570  17.8034520 125.9540480 113.7618790
  17.3396420 124.9824130 114.8261560  13.9261290 118.0706450 115.1853200
  14.3446170 117.8837430 114.3449860  13.6197350 117.2185500 115.4956130
  17.4251020 122.9830590 118.8829000  17.0494620 122.2158520 118.4510290
  16.6954140 123.3653290 119.3703930   2.0146780 123.6617730 125.5038050
   2.3819820 123.5745130 126.3834070   1.4457600 122.8984280 125.4044910
  16.8150640 122.1302110 128.5168520  16.5836730 121.9014860 127.6166470
  17.0755190 123.0501660 128.4713410  15.2538710 117.3558540 131.2948220
  16.1308890 117.3641940 131.6782220  15.2659550 116.6189380 130.6840570
  16.7001980 121.2088080 122.1836240  17.2239460 120.7150730 121.5526410
  17.2861400 121.3438440 122.9283810  16.8791700 121.2927950 125.7055790
  15.9294410 121.2591490 125.8200780  17.0604710 122.2028060 125.4705560
   2.7336140 119.5429630 114.8154420   3.4427840 119.1212850 114.3301700
   2.0176080 119.6104860 114.1837770   2.3810300 115.5968960 113.8557070
   3.1038430 116.1377900 114.1738290   2.6534820 115.3232380 112.9798610
  16.1901950 120.4661430 118.1228650  16.6861070 120.2332300 118.9077530
  15.9918020 119.6273270 117.7066290   2.0702490 114.8475150 123.7579690
   2.7178680 114.2972530 123.3174850   2.4904330 115.1018300 124.5795500
  17.6189110 119.1022380 120.6566330  17.5088390 118.9478420 121.5948600
  18.3796700 118.5743320 120.4141740  15.9654830 115.0416510 127.1149330
  16.6027050 115.6550650 127.4808520  16.1129720 115.0777170 126.1698560
  18.5079380 116.9330300 113.8972470  19.4328690 116.8011480 113.6890760
  18.4855170 117.0123120 114.8508920  18.5817870 117.7040960 116.5229180
  17.7869370 117.6386080 117.0522090  18.7861150 118.6391600 116.5114530
  15.5236290 131.7432510 120.5167570  16.1195360 131.4217080 119.8401990
  15.7814440 131.2704330 121.3080840   1.8234490 115.0030820 126.5005010
   1.4749310 115.4594640 127.2663190   1.4922190 114.1087950 126.5827440
   3.4298860 128.1750420 130.6658200   3.3868490 127.8043330 131.5472660
   3.5609870 129.1127990 130.8060020   7.1304890 129.7310010 126.2667920
   6.8896250 129.9984570 125.3798440   8.0707530 129.9015740 126.3218780
   9.3359310 116.1942700 130.0224430   9.2748200 116.7864530 130.7719840
  10.2759690 116.0868660 129.8774690  11.9733870 115.8512760 129.6616720
  12.5874280 116.1692050 128.9997800  12.5183430 115.3661350 130.2812580
  18.3909050 131.7504390 127.0678560  17.8967330 132.1473260 126.3505690
  17.7822340 131.1253600 127.4615840   2.4955130 114.5307020 129.7755780
   3.0438120 114.3495070 129.0121890   2.5610440 113.7401130 130.3112090
   3.2686890 131.1212670 127.7855980   2.6747210 130.9897370 128.5246020
   3.2610730 130.2850810 127.3198080  12.7141910 114.4144900 125.9886010
  11.8401750 114.7480010 125.7858940  12.6052660 113.9418080 126.8137880
  13.6213890 116.6215770 127.3727730  13.2927250 115.8067530 126.9929460
  14.5696190 116.5785580 127.2493420  16.0748500 132.3927810 124.3465300
  15.6151470 133.1443620 123.9723320  15.4460960 131.6734280 124.2880100
   2.8999120 128.4871050 126.7364020   2.1733180 127.8676340 126.6689970
   2.9608270 128.8811660 125.8662100   6.5044220 130.7016050 123.5213430
   7.0209240 130.0903410 122.9961690   7.1541600 131.2044830 124.0124440
   9.2439720 131.5924540 124.3482410   9.5317530 131.3378840 123.4715420
   9.7562940 131.0401900 124.9387980  10.4616730 115.3314740 124.9278920
   9.6788520 115.8060240 125.2075680  10.1679660 114.4269570 124.8192100
  15.0137800 116.0337840 122.9728010  15.4545890 115.9782940 122.1249610
  14.7445390 116.9495850 123.0438190  16.8776370 115.6653080 120.9836830
  16.8164770 114.7214300 120.8367850  17.6568400 115.7733170 121.5290290
   1.8057140 115.6362220 117.4492640   2.5636500 115.7491100 116.8756670
   1.3434310 116.4731420 117.4036070   8.3470950 117.7501490 120.4394950
   7.5345460 117.3758380 120.0990830   8.8512590 116.9946570 120.7416140
  12.8495930 114.4143940 121.6778020  13.4525300 114.9864150 122.1526540
  12.1088920 114.9783380 121.4551920  15.9930530 114.8165500 116.9518300
  16.1881160 115.7148950 117.2185730  15.2060400 114.5852580 117.4451250
   2.7891820 130.4978670 117.3910920   2.2639440 130.8786700 116.6872880
   2.7136400 131.1229440 118.1120630   4.1782290 116.1626270 115.9894610
   4.7075050 115.3756070 115.8602560   4.8110610 116.8417460 116.2230140
   6.3720130 115.9001410 119.0440000   5.7422870 115.1988720 119.2110130
   5.8325270 116.6605540 118.8273160   9.3112080 132.5140640 131.7150610
  10.2379390 132.2784910 131.7586570   9.2962510 133.3412640 131.2336640
  17.5457140 132.0566210 118.7124860  17.7209330 131.3703950 118.0685780
  16.8478710 132.5813260 118.3201530   6.4975690 115.1785390 131.4792490
   6.2159960 115.6818990 130.7153310   6.8795390 114.3807140 131.1134620
   5.3884790 132.4461050 116.2660170   6.1203610 132.1620330 115.7184060
   5.6478460 132.2074330 117.1559550   4.5499580 128.5625780 116.2706500
   3.9208460 129.0310880 116.8192330   4.6647410 127.7175000 116.7052690
  13.0991150 114.5938970 132.0572960  12.9856600 114.9133580 132.9524480
  13.9160890 114.9951480 131.7610240  15.8789640 131.7410500 131.5391650
  16.6714960 131.2459730 131.3317610  16.1722790 132.4200640 132.1467260
  12.0049300 122.6131440 102.4207700  11.9243350 121.6986050 102.1499410
  11.5913720 123.1098510 101.7147410  10.1367340 124.3910460 104.3016970
   9.3609440 123.9110900 104.5915540  10.7880270 123.7116110 104.1273130
   4.1533170 124.7030270 105.1792730   3.3218050 124.4478980 105.5789240
   4.7614150 124.7741040 105.9150650  14.1574770 128.7970650 103.0816100
  13.6956300 128.0257890 103.4103270  14.9700320 128.8236720 103.5868550
   4.1334430 128.7370360 105.3750750   4.4362470 127.8468100 105.1960970
   4.8778020 129.2940580 105.1473000   2.5625120 119.6632160  98.9635120
   1.6741820 120.0048130  98.8615000   2.8466310 119.4632480  98.0715950
  10.3838080 131.0828660 102.7020090   9.7649520 131.5386160 102.1314530
  11.2389860 131.2380120 102.3009790   9.5776330 127.0667650 104.3087130
   9.5084610 126.1257590 104.1476260  10.3396190 127.1569060 104.8809700
   1.7683000 117.6722170 106.6343750   1.5885840 116.7747920 106.9146510
   1.3663080 118.2194040 107.3090700  10.6081500 119.8738030 104.5356060
  10.9846320 119.0009910 104.4229730  10.5101010 120.2096730 103.6446500
   4.7386510 118.2463660  99.9973500   4.8453260 119.1467390 100.3042260
   3.8278870 118.1981630  99.7068150  14.3905620 117.3688470 101.4684400
  15.2115240 116.8785040 101.5109880  14.4239700 117.9586130 102.2216240
   2.3869670 120.1682670 105.2426090   3.0679780 120.4321040 105.8613490
   2.0717720 119.3283540 105.5764100   6.5794240 121.2150030 104.3298680
   7.0872460 121.7131000 104.9703700   7.1107480 120.4385230 104.1538040
  18.6805170 119.3855220 108.0328030  17.9757340 119.7736930 107.5143140
  18.9463090 120.0805510 108.6348960   4.8630340 115.8548590 108.5962100
   4.8648780 116.3720980 107.7908000   4.0334650 115.3778770 108.5732030
  11.2501430 125.9667900 100.0952000  10.6318700 126.4317350  99.5314720
  11.7624680 126.6595380 100.5121510   6.1133190 125.4943770 106.7735600
   5.7802570 126.1212690 107.4156670   6.2899870 126.0205650 105.9937270
  14.6267100 119.3088850 104.2411940  13.9222670 119.5973740 104.8215050
  14.9879260 120.1188960 103.8811500   4.5445670 117.5658550 106.6032550
   4.8862480 118.4100600 106.3086420   3.6061480 117.7142290 106.7197890
   5.3252290 127.4624570 108.5884780   5.9426290 128.1375650 108.3069230
   4.4645410 127.8712550 108.4972280  16.2429880 128.9263980 106.5039420
  15.5593400 129.5963090 106.4956090  16.7824170 129.1244630 105.7384280
  17.6954020 118.7543640 104.6321150  16.7478930 118.7882620 104.7636580
  18.0204010 119.5682590 105.0170510   8.2273560 115.0540820 102.9277140
   8.5348540 114.4987710 102.2112640   7.2974260 115.1885280 102.7450130
  13.7788620 130.7708110 105.2184600  13.7915780 130.3670400 104.3506860
  13.2263840 131.5455400 105.1146030  15.0734040 127.4924330 100.3074770
  14.9630370 126.5498660 100.4324190  15.0702290 127.8539970 101.1937530
  13.1774060 125.6737950 106.5467210  13.5942850 125.4598060 105.7120670
  13.9013880 125.9310740 107.1175830  10.6154320 123.1189650  99.6637260
   9.6883600 123.0527030  99.8925730  10.7679140 124.0569780  99.5492500
  10.6023400 119.3906650  96.6604420   9.6627070 119.5520610  96.7456880
  10.9206660 120.1092330  96.1140410  17.1236160 124.0725170 106.6383450
  16.2954790 124.1418260 106.1633580  17.7186640 124.6579480 106.1699280
  14.6451610 124.6809950 100.1672510  14.0264030 124.3429500  99.5198810
  14.6276060 124.0369710 100.8751700  14.0878170 120.8594490 107.5838320
  13.6749350 121.6848200 107.8378310  13.3554120 120.2739530 107.3914680
   6.2210960 123.6454390 102.4456990   5.8167960 122.9331640 101.9502890
   6.3074080 123.3007630 103.3345030   6.6892660 127.3321950 104.6096200
   6.3920950 126.7267420 103.9303980   7.6392480 127.3699260 104.4985560
   4.9339580 120.4197600 106.2256030   5.4854170 120.5292940 105.4509280
   5.4483090 120.7935200 106.9411260  14.7778270 130.9053820 108.2719300
  14.3008830 131.7126010 108.0791910  14.0940060 130.2532150 108.4245510
   5.7811090 127.0703640 111.2604000   4.8839620 127.2943610 111.5077400
   5.8063960 127.1938580 110.3115400  12.8216310 123.9196760  97.1745260
  13.2609590 123.0819190  97.0283080  13.5344730 124.5526160  97.2609400
   4.6082310 123.9416960 109.8361370   4.4690080 124.8139760 110.2048770
   3.7263670 123.5989770 109.6909310  10.9311690 128.8592830 101.1426500
  11.3707600 129.6017160 100.7281890  10.8698580 129.1019400 102.0665460
   6.4062660 129.8838660 112.0446520   6.3778090 130.2881610 111.1774950
   6.2427630 128.9549020 111.8818120  16.4033450 115.1739570  95.4886300
  16.0906110 115.2666400  96.3885370  17.1645920 115.7520600  95.4383730
   2.9215590 122.5399370  99.9463640   2.8013190 123.2661460  99.3344910
   2.6116480 121.7702280  99.4691550  18.3577480 130.6665760 113.3410690
  18.8337200 131.1448650 114.0199770  18.9784640 130.5983250 112.6156190
   1.8048590 127.4114700 102.1638460   1.3976670 127.5529290 101.3092060
   2.6961600 127.1274860 101.9609670  17.7610730 127.8578610 110.5010700
  17.8873790 127.6190490 109.5827880  17.8032110 127.0263150 110.9732780
  11.6227470 131.5606610 109.0705510  12.1372140 131.4714620 109.8727940
  10.7796550 131.9066310 109.3633420  13.5981870 131.8461950  98.4989510
  13.4383010 131.5564890  99.3971340  13.4328580 131.0702080  97.9634740
   6.0770250 131.6260480 100.2761130   5.9012730 130.7096020 100.0628930
   5.2225990 131.9847770 100.5158930  13.3008000 129.3549510  97.0587510
  12.6073160 129.3526800  96.3989790  14.0430860 128.9308830  96.6281680
  12.8657930 130.9812220 101.1336000  13.3214880 130.2001600 101.4474620
  13.2050450 131.6919040 101.6777180  17.6134740 119.9111070 111.4660440
  16.9979010 120.4190740 110.9375900  17.2931160 119.0109400 111.4086380
   5.3879250 115.8834440 103.3287310   4.9447400 116.6643980 102.9971830
   5.9464240 116.2064330 104.0358250   9.6749060 118.7502960 108.9322630
   9.2128430 118.9585980 109.7442570   9.2727170 117.9362310 108.6293300
  14.6753570 119.9711910 110.0619290  13.8247160 119.6717660 110.3828360
  14.5155360 120.2153920 109.1503110  11.7703280 121.4713660 112.1618080
  12.0956690 120.6377410 111.8220310  12.5583610 121.9942180 112.3096410
   8.5038070 115.5045140  98.2093140   7.8792250 115.5005010  98.9346450
   8.4168190 114.6376100  97.8129110   7.4255150 116.4281770 105.1876910
   7.7227480 117.3344600 105.1068930   7.9740710 115.9400550 104.5736480
   5.1793470 121.0068010 101.0568560   4.9534390 120.7905180 101.9615180
   4.3986000 121.4396470 100.7114530  12.4091230 121.0131380  99.6559210
  11.8100120 121.7367180  99.4722830  12.9570840 120.9508160  98.8735660
   7.6192680 121.9053590 111.7228830   7.5236280 120.9648320 111.5729230
   8.4624660 122.1268660 111.3276900  11.0156100 119.6494920 101.6862490
  11.4085670 119.9667120 100.8731180  11.3772950 118.7706800 101.8007010
   2.7503220 118.3167260 109.8762610   2.3566610 119.1642470 110.0835390
   2.0621620 117.6793630 110.0671250   9.3248270 118.4002230 112.9459350
   8.6346590 118.2074430 113.5805440  10.0680570 118.6836870 113.4783650
  11.6011240 122.2400670 105.7813270  10.8692360 122.7487480 106.1303370
  11.2035580 121.4230650 105.4802050   8.0388630 118.9154870 104.1865760
   8.0424690 118.4744820 103.3370300   8.9339750 119.2372200 104.2937580
   3.8891010 118.7981360 103.1459970   3.5491060 119.2756590 103.9027020
   3.1268330 118.3446480 102.7861070   8.1008780 119.9166950  97.1772520
   8.2221600 119.8753430  98.1258340   7.7157290 120.7791100  97.0219250
  12.0637150 117.6934350 105.1936210  12.0809890 118.1443000 106.0378060
  11.8152730 116.7939990 105.4069650   7.1130280 122.2268090  96.5755820
   6.5447180 121.7786340  95.9491730   7.8219280 122.5860870  96.0420970
  15.4907900 115.1066530 111.0322590  15.8153670 114.3756190 111.5580570
  15.5264410 114.7880170 110.1303580   2.1899460 126.1280110 110.4522550
   1.8054250 125.4873780 111.0505510   2.5011650 126.8316230 111.0217280
   8.3396600 122.9756650 105.9331170   8.7066730 122.5015220 106.6792510
   8.1501660 123.8498220 106.2739510   6.1295970 122.0165290 108.2515380
   5.8253040 122.8957270 108.4765740   7.0842430 122.0765080 108.2872820
   4.6577760 126.2226280  98.8482230   3.8840020 125.6823900  98.6880950
   5.3872390 125.7032890  98.5099990  15.4165740 125.2191640 104.6408620
  16.1364860 125.7146930 104.2504730  15.2147560 124.5409530 103.9962490
  10.8775680 116.6129600  98.7838010  10.0640290 116.1142770  98.7083320
  10.6837630 117.4527850  98.3674360  10.7984540 125.2900700 110.5277620
  10.7321850 124.3696370 110.2735210  10.1689680 125.3876140 111.2422260
  13.5924070 120.9849250  97.0800170  14.4803690 121.2966480  96.9051510
  13.5629160 120.1121500  96.6880750   4.7015160 125.8906660 102.4861040
   5.2193830 125.0874920 102.4317930   4.2499180 125.8285800 103.3277870
   9.5884660 127.1572940  97.7588340   9.9300360 127.9015170  97.2631660
   8.7597370 127.4704060  98.1213170   2.1859700 122.8568030 109.3986740
   1.8274640 123.5221880 109.9860080   1.8914260 122.0251580 109.7699360
   5.3872820 123.3152270 112.2826290   5.0872960 123.4609450 111.3854110
   6.1584060 122.7557560 112.1899680  10.7301270 128.1121270 110.2781420
  10.7445810 127.1802230 110.0600330  10.0226370 128.1981030 110.9171190
  15.8638340 122.2961090  96.5480030  15.7802060 122.7275310  95.6976470
  16.5832530 122.7559440  96.9806850  16.9412480 124.7528610 109.6250000
  16.2160670 125.3457390 109.4279390  17.4687940 124.7452150 108.8263370
  16.8925590 129.1503350  99.2762160  16.2501750 128.4958970  99.5505880
  16.5056250 129.5558440  98.5002830  12.4712070 126.4788780 103.1233850
  12.8235890 125.8816910 102.4635220  11.5874400 126.1533010 103.2942100
   8.5575350 127.2386470 100.5304260   9.2446480 127.7855680 100.9111850
   7.7707770 127.7827200 100.5653870   7.8602560 124.2432500 100.1429620
   8.3165340 125.0537750 100.3689810   7.5090770 123.9255640 100.9748110
  10.1635170 129.7538840 107.3721920  10.8077390 129.9598220 108.0495340
  10.5264610 128.9927240 106.9192770   3.7614340 114.5870150 100.6152140
   3.6328970 114.5788050 101.5637060   2.9376360 114.9253240 100.2643150
  11.4367250 127.7571190 106.0899370  12.0789480 127.0564350 106.2031540
  11.9616600 128.5369630 105.9096260  15.2822970 128.0419810  95.8138510
  15.0560550 127.3250250  96.4063150  14.8919170 127.7932250  94.9760260
  13.2104870 128.5566090 109.2935430  13.5461110 129.1432780 109.9713350
  12.2905210 128.4258800 109.5233220  14.8639220 125.9591750  97.4752670
  14.5760920 126.4204440  98.2630550  15.6591390 125.4989520  97.7436890
   9.0393450 128.6057420 112.4623490   8.7190320 127.8866660 113.0069180
   8.3651810 129.2812490 112.5359550   7.0807620 129.4517870  97.4056640
   7.0717720 130.1847560  96.7901150   6.1605980 129.2049450  97.4983600
   2.6814260 124.6732760  98.1503400   2.0742210 125.4131660  98.1598700
   3.1563610 124.7632120  97.3241600  12.2547050 118.8383580 107.8260290
  12.6227870 118.0178790 108.1539860  11.3945250 118.8985470 108.2415940
  15.6209080 117.7940520  98.6347850  14.9922240 117.8986190  97.9206080
  15.1261000 118.0137300  99.4241730  10.0667220 129.5146110  96.0681830
  10.1679200 129.3110100  95.1383810   9.1668960 129.2604390  96.2729610
   7.5893110 120.0726470 100.0505730   6.8809260 120.5412810 100.4919340
   7.8737590 119.4148480 100.6850920   9.2149040 121.4923170 108.0498260
   9.7134290 121.9668990 108.7150110   9.3571990 120.5686690 108.2568290
  11.6208540 116.7977130 101.4901520  11.4976320 116.8163260 100.5411030
  12.5693100 116.8456070 101.6099920   8.7085330 132.0332430 100.7629500
   8.9626830 131.9953820  99.8408870   7.7597810 131.9065760 100.7557750
   5.7928130 118.3811550  97.4256440   6.6418660 118.8181700  97.3596630
   5.4259400 118.6931810  98.2528500  16.4215900 117.7091130 108.8926650
  15.9189500 118.4496530 109.2320460  17.2372560 118.0975130 108.5763440
  14.7137910 122.9524310 102.3388010  13.7728050 122.9674540 102.5135700
  15.0281980 122.1660270 102.7848310   4.6919550 124.6343910  95.8991970
   5.4582820 124.5225270  96.4617400   4.7694240 123.9381880  95.2468740
   3.3866310 122.0668980  96.5824860   3.4669900 121.1196490  96.6942260
   4.2786060 122.3975860  96.6885520  16.7163490 130.1233160 104.0142270
  16.8410910 130.9464330 104.4866080  17.5829050 129.9123890 103.6666420
   4.1881020 132.2164370 103.6859400   4.9243500 131.6679830 103.9567970
   4.5721940 133.0820380 103.5465390   3.1939300 131.4010440 112.8744980
   3.9952030 131.7222490 113.2880380   2.6791120 131.0406020 113.5964890
   7.2983330 131.3894680  95.5084970   8.0911940 131.6783510  95.0566760
   6.7787680 130.9586850  94.8297450  12.0303930 127.5090310 112.8220390
  11.4242090 127.5321910 112.0816140  11.7258040 126.7773350 113.3587640
  13.4604300 131.2370600 111.4329800  14.4126050 131.1528620 111.3830040
  13.3132520 131.9012310 112.1063590  16.3513500 130.6164810  96.9321710
  16.0655010 130.2029950  96.1175890  16.1533050 131.5452520  96.8122230
   7.8160730 126.6098090  95.3727320   7.7111370 125.9950440  96.0988700
   7.6484950 126.0863980  94.5890330   7.9675050 125.2954890 111.3516550
   7.2020720 125.8639890 111.2671220   8.1491010 125.0031100 110.4584780
  11.0563460 125.6718120  95.9769310  10.5073560 126.1187420  96.6212050
  11.6782720 125.1667370  96.5006980  15.1098400 127.0260220 111.9091570
  15.8507870 127.3635980 111.4059030  14.3471080 127.1952280 111.3561340
   2.9460190 122.0313490 112.7131100   2.9865530 121.7327360 113.6216330
   3.8005690 122.4321100 112.5538620   6.7238580 124.6309040  97.8734610
   7.1455000 124.4648910  98.7166000   6.8489420 123.8209270  97.3789750
   4.8866000 120.6105590 110.6805590   4.3562460 120.1196540 110.0528930
   5.5554070 121.0389790 110.1463520   9.2366220 123.6546650  95.1211710
   9.7571880 122.9395670  94.7552860   9.8834620 124.2932520  95.4212220
  13.7844060 125.0775050 110.4446780  14.1985080 125.2320130 111.2937200
  12.8495060 125.2030270 110.6072560  14.2566230 122.4171210 112.4485930
  14.8387000 121.6623530 112.3606410  14.4328000 122.9478650 111.6717410
   5.3738300 117.5767960 110.7602880   5.2795170 116.9588710 110.0353750
   4.7935690 118.3034250 110.5332790   8.1399740 116.1341200 107.7930270
   7.6917040 116.1565460 106.9475820   7.5064940 115.7360220 108.3900570
   8.5459290 125.0295530 108.4142710   8.9647400 125.8728260 108.2418950
   7.6267920 125.1667570 108.1849490  10.8823190 122.7611710 109.7980550
  11.0019400 122.1652850 110.5375390  11.7417190 122.7981400 109.3781850
  13.2211090 123.3148900 108.3743060  12.6946310 123.8391520 107.7708200
  13.5642430 123.9476290 109.0052790   5.6197480 120.7042270  94.8192770
   5.4186540 119.8409630  95.1806110   5.4489530 120.6175630  93.8814370
   6.3966710 131.3348540 109.5300440   5.8587800 132.0594600 109.2109140
   6.6500670 130.8578880 108.7397780   7.6491960 119.3033060 111.0556370
   8.2391650 118.9948910 111.7434190   6.8312200 118.8312810 111.2116270
  12.4685390 118.9198870 111.2889390  11.7800910 118.2580410 111.2239380
  13.1891410 118.4737140 111.7337850  13.0985790 115.5150500  97.3479650
  13.3788080 114.6718400  97.7039070  12.3251520 115.7473610  97.8618400
   4.4180280 117.8042890  94.8070650   4.7206180 117.8110320  93.8989800
   5.1574870 117.4540750  95.3038310   9.2528920 132.5699750 109.7887090
   9.1787620 133.4734890 110.0959460   8.3507760 132.2511650 109.7609160
   7.6365210 116.7477510  95.7926850   7.2887210 116.0701500  95.2129300
   7.8377980 116.2867020  96.6070240   9.8014250 131.7358260  97.4113450
  10.6965040 132.0743230  97.4332210   9.8331880 131.0137670  96.7837730
   3.4410410 127.1085310  95.6400450   3.8785280 127.6514980  96.2958030
   3.9258140 126.2832260  95.6496790   5.2518130 128.2283350 100.7522680
   4.9513670 128.1048320 101.6526590   5.1455620 127.3691940 100.3438410
  16.7808600 130.2661930 110.1179650  16.1810590 130.3254490 109.3743570
  16.9102500 129.3266910 110.2476500  18.0210050 128.0079750  95.4549360
  17.1903010 128.0756400  95.9256590  18.1981880 128.8983870  95.1516220
  17.4766510 124.7527230  97.9583560  18.2385420 125.3223880  98.0643250
  17.4920880 124.1854430  98.7291870  18.4826480 125.6077330 102.8025490
  18.8535310 124.8244650 102.3961460  19.1228410 126.2966430 102.6242790
  15.4660240 126.9913910 108.2155810  14.6520080 127.4211070 108.4781600
  15.8734440 127.6032320 107.6024860  17.5285680 125.0461600  95.1156080
  17.8034520 125.9540480  94.9875300  17.3396420 124.9824130  96.0518070
  13.9261290 118.0706450  96.4109710  14.3446170 117.8837430  95.5706370
  13.6197350 117.2185500  96.7212640  17.4251020 122.9830590 100.1085510
  17.0494620 122.2158520  99.6766800  16.6954140 123.3653290 100.5960440
   2.0146780 123.6617730 106.7294560   2.3819820 123.5745130 107.6090580
   1.4457600 122.8984280 106.6301420  16.8150640 122.1302110 109.7425030
  16.5836730 121.9014860 108.8422980  17.0755190 123.0501660 109.6969920
  15.2538710 117.3558540 112.5204730  16.1308890 117.3641940 112.9038730
  15.2659550 116.6189380 111.9097080  16.7001980 121.2088080 103.4092750
  17.2239460 120.7150730 102.7782920  17.2861400 121.3438440 104.1540320
  16.8791700 121.2927950 106.9312300  15.9294410 121.2591490 107.0457290
  17.0604710 122.2028060 106.6962070   2.7336140 119.5429630  96.0410930
   3.4427840 119.1212850  95.5558210   2.0176080 119.6104860  95.4094280
   2.3810300 115.5968960  95.0813580   3.1038430 116.1377900  95.3994800
   2.6534820 115.3232380  94.2055120  16.1901950 120.4661430  99.3485160
  16.6861070 120.2332300 100.1334040  15.9918020 119.6273270  98.9322800
   2.0702490 114.8475150 104.9836200   2.7178680 114.2972530 104.5431360
   2.4904330 115.1018300 105.8052010  17.6189110 119.1022380 101.8822840
  17.5088390 118.9478420 102.8205110  18.3796700 118.5743320 101.6398250
  15.9654830 115.0416510 108.3405840  16.6027050 115.6550650 108.7065030
  16.1129720 115.0777170 107.3955070  18.5079380 116.9330300  95.1228980
  19.4328690 116.8011480  94.9147270  18.4855170 117.0123120  96.0765430
  18.5817870 117.7040960  97.7485690  17.7869370 117.6386080  98.2778600
  18.7861150 118.6391600  97.7371040  15.5236290 131.7432510 101.7424080
  16.1195360 131.4217080 101.0658500  15.7814440 131.2704330 102.5337350
   1.8234490 115.0030820 107.7261520   1.4749310 115.4594640 108.4919700
   1.4922190 114.1087950 107.8083950   3.4298860 128.1750420 111.8914710
   3.3868490 127.8043330 112.7729170   3.5609870 129.1127990 112.0316530
   7.1304890 129.7310010 107.4924430   6.8896250 129.9984570 106.6054950
   8.0707530 129.9015740 107.5475290   9.3359310 116.1942700 111.2480940
   9.2748200 116.7864530 111.9976350  10.2759690 116.0868660 111.1031200
  11.9733870 115.8512760 110.8873230  12.5874280 116.1692050 110.2254310
  12.5183430 115.3661350 111.5069090  18.3909050 131.7504390 108.2935070
  17.8967330 132.1473260 107.5762200  17.7822340 131.1253600 108.6872350
   2.4955130 114.5307020 111.0012290   3.0438120 114.3495070 110.2378400
   2.5610440 113.7401130 111.5368600   3.2686890 131.1212670 109.0112490
   2.6747210 130.9897370 109.7502530   3.2610730 130.2850810 108.5454590
  12.7141910 114.4144900 107.2142520  11.8401750 114.7480010 107.0115450
  12.6052660 113.9418080 108.0394390  13.6213890 116.6215770 108.5984240
  13.2927250 115.8067530 108.2185970  14.5696190 116.5785580 108.4749930
  16.0748500 132.3927810 105.5721810  15.6151470 133.1443620 105.1979830
  15.4460960 131.6734280 105.5136610   2.8999120 128.4871050 107.9620530
   2.1733180 127.8676340 107.8946480   2.9608270 128.8811660 107.0918610
   6.5044220 130.7016050 104.7469940   7.0209240 130.0903410 104.2218200
   7.1541600 131.2044830 105.2380950   9.2439720 131.5924540 105.5738920
   9.5317530 131.3378840 104.6971930   9.7562940 131.0401900 106.1644490
  10.4616730 115.3314740 106.1535430   9.6788520 115.8060240 106.4332190
  10.1679660 114.4269570 106.0448610  15.0137800 116.0337840 104.1984520
  15.4545890 115.9782940 103.3506120  14.7445390 116.9495850 104.2694700
  16.8776370 115.6653080 102.2093340  16.8164770 114.7214300 102.0624360
  17.6568400 115.7733170 102.7546800   1.8057140 115.6362220  98.6749150
   2.5636500 115.7491100  98.1013180   1.3434310 116.4731420  98.6292580
   8.3470950 117.7501490 101.6651460   7.5345460 117.3758380 101.3247340
   8.8512590 116.9946570 101.9672650  12.8495930 114.4143940 102.9034530
  13.4525300 114.9864150 103.3783050  12.1088920 114.9783380 102.6808430
  15.9930530 114.8165500  98.1774810  16.1881160 115.7148950  98.4442240
  15.2060400 114.5852580  98.6707760   2.7891820 130.4978670  98.6167430
   2.2639440 130.8786700  97.9129390   2.7136400 131.1229440  99.3377140
   4.1782290 116.1626270  97.2151120   4.7075050 115.3756070  97.0859070
   4.8110610 116.8417460  97.4486650   6.3720130 115.9001410 100.2696510
   5.7422870 115.1988720 100.4366640   5.8325270 116.6605540 100.0529670
   9.3112080 132.5140640 112.9407120  10.2379390 132.2784910 112.9843080
   9.2962510 133.3412640 112.4593150  17.5457140 132.0566210  99.9381370
  17.7209330 131.3703950  99.2942290  16.8478710 132.5813260  99.5458040
   6.4975690 115.1785390 112.7049000   6.2159960 115.6818990 111.9409820
   6.8795390 114.3807140 112.3391130   5.3884790 132.4461050  97.4916680
   6.1203610 132.1620330  96.9440570   5.6478460 132.2074330  98.3816060
   4.5499580 128.5625780  97.4963010   3.9208460 129.0310880  98.0448840
   4.6647410 127.7175000  97.9309200  13.0991150 114.5938970 113.2829470
  12.9856600 114.9133580 114.1780990  13.9160890 114.9951480 112.9866750
  15.8789640 131.7410500 112.7648160  16.6714960 131.2459730 112.5574120
  16.1722790 132.4200640 113.3723770  12.0049300 122.6131440  83.6464210
  11.9243350 121.6986050  83.3755920  11.5913720 123.1098510  82.9403920
  10.1367340 124.3910460  85.5273480   9.3609440 123.9110900  85.8172050
  10.7880270 123.7116110  85.3529640   4.1533170 124.7030270  86.4049240
   3.3218050 124.4478980  86.8045750   4.7614150 124.7741040  87.1407160
  14.1574770 128.7970650  84.3072610  13.6956300 128.0257890  84.6359780
  14.9700320 128.8236720  84.8125060   4.1334430 128.7370360  86.6007260
   4.4362470 127.8468100  86.4217480   4.8778020 129.2940580  86.3729510
   2.5625120 119.6632160  80.1891630   1.6741820 120.0048130  80.0871510
   2.8466310 119.4632480  79.2972460  10.3838080 131.0828660  83.9276600
   9.7649520 131.5386160  83.3571040  11.2389860 131.2380120  83.5266300
   9.5776330 127.0667650  85.5343640   9.5084610 126.1257590  85.3732770
  10.3396190 127.1569060  86.1066210   1.7683000 117.6722170  87.8600260
   1.5885840 116.7747920  88.1403020   1.3663080 118.2194040  88.5347210
  10.6081500 119.8738030  85.7612570  10.9846320 119.0009910  85.6486240
  10.5101010 120.2096730  84.8703010   4.7386510 118.2463660  81.2230010
   4.8453260 119.1467390  81.5298770   3.8278870 118.1981630  80.9324660
  14.3905620 117.3688470  82.6940910  15.2115240 116.8785040  82.7366390
  14.4239700 117.9586130  83.4472750   2.3869670 120.1682670  86.4682600
   3.0679780 120.4321040  87.0870000   2.0717720 119.3283540  86.8020610
   6.5794240 121.2150030  85.5555190   7.0872460 121.7131000  86.1960210
   7.1107480 120.4385230  85.3794550  18.6805170 119.3855220  89.2584540
  17.9757340 119.7736930  88.7399650  18.9463090 120.0805510  89.8605470
   4.8630340 115.8548590  89.8218610   4.8648780 116.3720980  89.0164510
   4.0334650 115.3778770  89.7988540  11.2501430 125.9667900  81.3208510
  10.6318700 126.4317350  80.7571230  11.7624680 126.6595380  81.7378020
   6.1133190 125.4943770  87.9992110   5.7802570 126.1212690  88.6413180
   6.2899870 126.0205650  87.2193780  14.6267100 119.3088850  85.4668450
  13.9222670 119.5973740  86.0471560  14.9879260 120.1188960  85.1068010
   4.5445670 117.5658550  87.8289060   4.8862480 118.4100600  87.5342930
   3.6061480 117.7142290  87.9454400   5.3252290 127.4624570  89.8141290
   5.9426290 128.1375650  89.5325740   4.4645410 127.8712550  89.7228790
  16.2429880 128.9263980  87.7295930  15.5593400 129.5963090  87.7212600
  16.7824170 129.1244630  86.9640790  17.6954020 118.7543640  85.8577660
  16.7478930 118.7882620  85.9893090  18.0204010 119.5682590  86.2427020
   8.2273560 115.0540820  84.1533650   8.5348540 114.4987710  83.4369150
   7.2974260 115.1885280  83.9706640  13.7788620 130.7708110  86.4441110
  13.7915780 130.3670400  85.5763370  13.2263840 131.5455400  86.3402540
  15.0734040 127.4924330  81.5331280  14.9630370 126.5498660  81.6580700
  15.0702290 127.8539970  82.4194040  13.1774060 125.6737950  87.7723720
  13.5942850 125.4598060  86.9377180  13.9013880 125.9310740  88.3432340
  10.6154320 123.1189650  80.8893770   9.6883600 123.0527030  81.1182240
  10.7679140 124.0569780  80.7749010  10.6023400 119.3906650  77.8860930
   9.6627070 119.5520610  77.9713390  10.9206660 120.1092330  77.3396920
  17.1236160 124.0725170  87.8639960  16.2954790 124.1418260  87.3890090
  17.7186640 124.6579480  87.3955790  14.6451610 124.6809950  81.3929020
  14.0264030 124.3429500  80.7455320  14.6276060 124.0369710  82.1008210
  14.0878170 120.8594490  88.8094830  13.6749350 121.6848200  89.0634820
  13.3554120 120.2739530  88.6171190   6.2210960 123.6454390  83.6713500
   5.8167960 122.9331640  83.1759400   6.3074080 123.3007630  84.5601540
   6.6892660 127.3321950  85.8352710   6.3920950 126.7267420  85.1560490
   7.6392480 127.3699260  85.7242070   4.9339580 120.4197600  87.4512540
   5.4854170 120.5292940  86.6765790   5.4483090 120.7935200  88.1667770
  14.7778270 130.9053820  89.4975810  14.3008830 131.7126010  89.3048420
  14.0940060 130.2532150  89.6502020   5.7811090 127.0703640  92.4860510
   4.8839620 127.2943610  92.7333910   5.8063960 127.1938580  91.5371910
  12.8216310 123.9196760  78.4001770  13.2609590 123.0819190  78.2539590
  13.5344730 124.5526160  78.4865910   4.6082310 123.9416960  91.0617880
   4.4690080 124.8139760  91.4305280   3.7263670 123.5989770  90.9165820
  10.9311690 128.8592830  82.3683010  11.3707600 129.6017160  81.9538400
  10.8698580 129.1019400  83.2921970   6.4062660 129.8838660  93.2703030
   6.3778090 130.2881610  92.4031460   6.2427630 128.9549020  93.1074630
  16.4033450 115.1739570  76.7142810  16.0906110 115.2666400  77.6141880
  17.1645920 115.7520600  76.6640240   2.9215590 122.5399370  81.1720150
   2.8013190 123.2661460  80.5601420   2.6116480 121.7702280  80.6948060
  18.3577480 130.6665760  94.5667200  18.8337200 131.1448650  95.2456280
  18.9784640 130.5983250  93.8412700   1.8048590 127.4114700  83.3894970
   1.3976670 127.5529290  82.5348570   2.6961600 127.1274860  83.1866180
  17.7610730 127.8578610  91.7267210  17.8873790 127.6190490  90.8084390
  17.8032110 127.0263150  92.1989290  11.6227470 131.5606610  90.2962020
  12.1372140 131.4714620  91.0984450  10.7796550 131.9066310  90.5889930
  13.5981870 131.8461950  79.7246020  13.4383010 131.5564890  80.6227850
  13.4328580 131.0702080  79.1891250   6.0770250 131.6260480  81.5017640
   5.9012730 130.7096020  81.2885440   5.2225990 131.9847770  81.7415440
  13.3008000 129.3549510  78.2844020  12.6073160 129.3526800  77.6246300
  14.0430860 128.9308830  77.8538190  12.8657930 130.9812220  82.3592510
  13.3214880 130.2001600  82.6731130  13.2050450 131.6919040  82.9033690
  17.6134740 119.9111070  92.6916950  16.9979010 120.4190740  92.1632410
  17.2931160 119.0109400  92.6342890   5.3879250 115.8834440  84.5543820
   4.9447400 116.6643980  84.2228340   5.9464240 116.2064330  85.2614760
   9.6749060 118.7502960  90.1579140   9.2128430 118.9585980  90.9699080
   9.2727170 117.9362310  89.8549810  14.6753570 119.9711910  91.2875800
  13.8247160 119.6717660  91.6084870  14.5155360 120.2153920  90.3759620
  11.7703280 121.4713660  93.3874590  12.0956690 120.6377410  93.0476820
  12.5583610 121.9942180  93.5352920   8.5038070 115.5045140  79.4349650
   7.8792250 115.5005010  80.1602960   8.4168190 114.6376100  79.0385620
   7.4255150 116.4281770  86.4133420   7.7227480 117.3344600  86.3325440
   7.9740710 115.9400550  85.7992990   5.1793470 121.0068010  82.2825070
   4.9534390 120.7905180  83.1871690   4.3986000 121.4396470  81.9371040
  12.4091230 121.0131380  80.8815720  11.8100120 121.7367180  80.6979340
  12.9570840 120.9508160  80.0992170   7.6192680 121.9053590  92.9485340
   7.5236280 120.9648320  92.7985740   8.4624660 122.1268660  92.5533410
  11.0156100 119.6494920  82.9119000  11.4085670 119.9667120  82.0987690
  11.3772950 118.7706800  83.0263520   2.7503220 118.3167260  91.1019120
   2.3566610 119.1642470  91.3091900   2.0621620 117.6793630  91.2927760
   9.3248270 118.4002230  94.1715860   8.6346590 118.2074430  94.8061950
  10.0680570 118.6836870  94.7040160  11.6011240 122.2400670  87.0069780
  10.8692360 122.7487480  87.3559880  11.2035580 121.4230650  86.7058560
   8.0388630 118.9154870  85.4122270   8.0424690 118.4744820  84.5626810
   8.9339750 119.2372200  85.5194090   3.8891010 118.7981360  84.3716480
   3.5491060 119.2756590  85.1283530   3.1268330 118.3446480  84.0117580
   8.1008780 119.9166950  78.4029030   8.2221600 119.8753430  79.3514850
   7.7157290 120.7791100  78.2475760  12.0637150 117.6934350  86.4192720
  12.0809890 118.1443000  87.2634570  11.8152730 116.7939990  86.6326160
   7.1130280 122.2268090  77.8012330   6.5447180 121.7786340  77.1748240
   7.8219280 122.5860870  77.2677480  15.4907900 115.1066530  92.2579100
  15.8153670 114.3756190  92.7837080  15.5264410 114.7880170  91.3560090
   2.1899460 126.1280110  91.6779060   1.8054250 125.4873780  92.2762020
   2.5011650 126.8316230  92.2473790   8.3396600 122.9756650  87.1587680
   8.7066730 122.5015220  87.9049020   8.1501660 123.8498220  87.4996020
   6.1295970 122.0165290  89.4771890   5.8253040 122.8957270  89.7022250
   7.0842430 122.0765080  89.5129330   4.6577760 126.2226280  80.0738740
   3.8840020 125.6823900  79.9137460   5.3872390 125.7032890  79.7356500
  15.4165740 125.2191640  85.8665130  16.1364860 125.7146930  85.4761240
  15.2147560 124.5409530  85.2219000  10.8775680 116.6129600  80.0094520
  10.0640290 116.1142770  79.9339830  10.6837630 117.4527850  79.5930870
  10.7984540 125.2900700  91.7534130  10.7321850 124.3696370  91.4991720
  10.1689680 125.3876140  92.4678770  13.5924070 120.9849250  78.3056680
  14.4803690 121.2966480  78.1308020  13.5629160 120.1121500  77.9137260
   4.7015160 125.8906660  83.7117550   5.2193830 125.0874920  83.6574440
   4.2499180 125.8285800  84.5534380   9.5884660 127.1572940  78.9844850
   9.9300360 127.9015170  78.4888170   8.7597370 127.4704060  79.3469680
   2.1859700 122.8568030  90.6243250   1.8274640 123.5221880  91.2116590
   1.8914260 122.0251580  90.9955870   5.3872820 123.3152270  93.5082800
   5.0872960 123.4609450  92.6110620   6.1584060 122.7557560  93.4156190
  10.7301270 128.1121270  91.5037930  10.7445810 127.1802230  91.2856840
  10.0226370 128.1981030  92.1427700  15.8638340 122.2961090  77.7736540
  15.7802060 122.7275310  76.9232980  16.5832530 122.7559440  78.2063360
  16.9412480 124.7528610  90.8506510  16.2160670 125.3457390  90.6535900
  17.4687940 124.7452150  90.0519880  16.8925590 129.1503350  80.5018670
  16.2501750 128.4958970  80.7762390  16.5056250 129.5558440  79.7259340
  12.4712070 126.4788780  84.3490360  12.8235890 125.8816910  83.6891730
  11.5874400 126.1533010  84.5198610   8.5575350 127.2386470  81.7560770
   9.2446480 127.7855680  82.1368360   7.7707770 127.7827200  81.7910380
   7.8602560 124.2432500  81.3686130   8.3165340 125.0537750  81.5946320
   7.5090770 123.9255640  82.2004620  10.1635170 129.7538840  88.5978430
  10.8077390 129.9598220  89.2751850  10.5264610 128.9927240  88.1449280
   3.7614340 114.5870150  81.8408650   3.6328970 114.5788050  82.7893570
   2.9376360 114.9253240  81.4899660  11.4367250 127.7571190  87.3155880
  12.0789480 127.0564350  87.4288050  11.9616600 128.5369630  87.1352770
  15.2822970 128.0419810  77.0395020  15.0560550 127.3250250  77.6319660
  14.8919170 127.7932250  76.2016770  13.2104870 128.5566090  90.5191940
  13.5461110 129.1432780  91.1969860  12.2905210 128.4258800  90.7489730
  14.8639220 125.9591750  78.7009180  14.5760920 126.4204440  79.4887060
  15.6591390 125.4989520  78.9693400   9.0393450 128.6057420  93.6880000
   8.7190320 127.8866660  94.2325690   8.3651810 129.2812490  93.7616060
   7.0807620 129.4517870  78.6313150   7.0717720 130.1847560  78.0157660
   6.1605980 129.2049450  78.7240110   2.6814260 124.6732760  79.3759910
   2.0742210 125.4131660  79.3855210   3.1563610 124.7632120  78.5498110
  12.2547050 118.8383580  89.0516800  12.6227870 118.0178790  89.3796370
  11.3945250 118.8985470  89.4672450  15.6209080 117.7940520  79.8604360
  14.9922240 117.8986190  79.1462590  15.1261000 118.0137300  80.6498240
  10.0667220 129.5146110  77.2938340  10.1679200 129.3110100  76.3640320
   9.1668960 129.2604390  77.4986120   7.5893110 120.0726470  81.2762240
   6.8809260 120.5412810  81.7175850   7.8737590 119.4148480  81.9107430
   9.2149040 121.4923170  89.2754770   9.7134290 121.9668990  89.9406620
   9.3571990 120.5686690  89.4824800  11.6208540 116.7977130  82.7158030
  11.4976320 116.8163260  81.7667540  12.5693100 116.8456070  82.8356430
   8.7085330 132.0332430  81.9886010   8.9626830 131.9953820  81.0665380
   7.7597810 131.9065760  81.9814260   5.7928130 118.3811550  78.6512950
   6.6418660 118.8181700  78.5853140   5.4259400 118.6931810  79.4785010
  16.4215900 117.7091130  90.1183160  15.9189500 118.4496530  90.4576970
  17.2372560 118.0975130  89.8019950  14.7137910 122.9524310  83.5644520
  13.7728050 122.9674540  83.7392210  15.0281980 122.1660270  84.0104820
   4.6919550 124.6343910  77.1248480   5.4582820 124.5225270  77.6873910
   4.7694240 123.9381880  76.4725250   3.3866310 122.0668980  77.8081370
   3.4669900 121.1196490  77.9198770   4.2786060 122.3975860  77.9142030
  16.7163490 130.1233160  85.2398780  16.8410910 130.9464330  85.7122590
  17.5829050 129.9123890  84.8922930   4.1881020 132.2164370  84.9115910
   4.9243500 131.6679830  85.1824480   4.5721940 133.0820380  84.7721900
   3.1939300 131.4010440  94.1001490   3.9952030 131.7222490  94.5136890
   2.6791120 131.0406020  94.8221400   7.2983330 131.3894680  76.7341480
   8.0911940 131.6783510  76.2823270   6.7787680 130.9586850  76.0553960
  12.0303930 127.5090310  94.0476900  11.4242090 127.5321910  93.3072650
  11.7258040 126.7773350  94.5844150  13.4604300 131.2370600  92.6586310
  14.4126050 131.1528620  92.6086550  13.3132520 131.9012310  93.3320100
  16.3513500 130.6164810  78.1578220  16.0655010 130.2029950  77.3432400
  16.1533050 131.5452520  78.0378740   7.8160730 126.6098090  76.5983830
   7.7111370 125.9950440  77.3245210   7.6484950 126.0863980  75.8146840
   7.9675050 125.2954890  92.5773060   7.2020720 125.8639890  92.4927730
   8.1491010 125.0031100  91.6841290  11.0563460 125.6718120  77.2025820
  10.5073560 126.1187420  77.8468560  11.6782720 125.1667370  77.7263490
  15.1098400 127.0260220  93.1348080  15.8507870 127.3635980  92.6315540
  14.3471080 127.1952280  92.5817850   2.9460190 122.0313490  93.9387610
   2.9865530 121.7327360  94.8472840   3.8005690 122.4321100  93.7795130
   6.7238580 124.6309040  79.0991120   7.1455000 124.4648910  79.9422510
   6.8489420 123.8209270  78.6046260   4.8866000 120.6105590  91.9062100
   4.3562460 120.1196540  91.2785440   5.5554070 121.0389790  91.3720030
   9.2366220 123.6546650  76.3468220   9.7571880 122.9395670  75.9809370
   9.8834620 124.2932520  76.6468730  13.7844060 125.0775050  91.6703290
  14.1985080 125.2320130  92.5193710  12.8495060 125.2030270  91.8329070
  14.2566230 122.4171210  93.6742440  14.8387000 121.6623530  93.5862920
  14.4328000 122.9478650  92.8973920   5.3738300 117.5767960  91.9859390
   5.2795170 116.9588710  91.2610260   4.7935690 118.3034250  91.7589300
   8.1399740 116.1341200  89.0186780   7.6917040 116.1565460  88.1732330
   7.5064940 115.7360220  89.6157080   8.5459290 125.0295530  89.6399220
   8.9647400 125.8728260  89.4675460   7.6267920 125.1667570  89.4106000
  10.8823190 122.7611710  91.0237060  11.0019400 122.1652850  91.7631900
  11.7417190 122.7981400  90.6038360  13.2211090 123.3148900  89.5999570
  12.6946310 123.8391520  88.9964710  13.5642430 123.9476290  90.2309300
   5.6197480 120.7042270  76.0449280   5.4186540 119.8409630  76.4062620
   5.4489530 120.6175630  75.1070880   6.3966710 131.3348540  90.7556950
   5.8587800 132.0594600  90.4365650   6.6500670 130.8578880  89.9654290
   7.6491960 119.3033060  92.2812880   8.2391650 118.9948910  92.9690700
   6.8312200 118.8312810  92.4372780  12.4685390 118.9198870  92.5145900
  11.7800910 118.2580410  92.4495890  13.1891410 118.4737140  92.9594360
  13.0985790 115.5150500  78.5736160  13.3788080 114.6718400  78.9295580
  12.3251520 115.7473610  79.0874910   4.4180280 117.8042890  76.0327160
   4.7206180 117.8110320  75.1246310   5.1574870 117.4540750  76.5294820
   9.2528920 132.5699750  91.0143600   9.1787620 133.4734890  91.3215970
   8.3507760 132.2511650  90.9865670   7.6365210 116.7477510  77.0183360
   7.2887210 116.0701500  76.4385810   7.8377980 116.2867020  77.8326750
   9.8014250 131.7358260  78.6369960  10.6965040 132.0743230  78.6588720
   9.8331880 131.0137670  78.0094240   3.4410410 127.1085310  76.8656960
   3.8785280 127.6514980  77.5214540   3.9258140 126.2832260  76.8753300
   5.2518130 128.2283350  81.9779190   4.9513670 128.1048320  82.8783100
   5.1455620 127.3691940  81.5694920  16.7808600 130.2661930  91.3436160
  16.1810590 130.3254490  90.6000080  16.9102500 129.3266910  91.4733010
  18.0210050 128.0079750  76.6805870  17.1903010 128.0756400  77.1513100
  18.1981880 128.8983870  76.3772730  17.4766510 124.7527230  79.1840070
  18.2385420 125.3223880  79.2899760  17.4920880 124.1854430  79.9548380
  18.4826480 125.6077330  84.0282000  18.8535310 124.8244650  83.6217970
  19.1228410 126.2966430  83.8499300  15.4660240 126.9913910  89.4412320
  14.6520080 127.4211070  89.7038110  15.8734440 127.6032320  88.8281370
  17.5285680 125.0461600  76.3412590  17.8034520 125.9540480  76.2131810
  17.3396420 124.9824130  77.2774580  13.9261290 118.0706450  77.6366220
  14.3446170 117.8837430  76.7962880  13.6197350 117.2185500  77.9469150
  17.4251020 122.9830590  81.3342020  17.0494620 122.2158520  80.9023310
  16.6954140 123.3653290  81.8216950   2.0146780 123.6617730  87.9551070
   2.3819820 123.5745130  88.8347090   1.4457600 122.8984280  87.8557930
  16.8150640 122.1302110  90.9681540  16.5836730 121.9014860  90.0679490
  17.0755190 123.0501660  90.9226430  15.2538710 117.3558540  93.7461240
  16.1308890 117.3641940  94.1295240  15.2659550 116.6189380  93.1353590
  16.7001980 121.2088080  84.6349260  17.2239460 120.7150730  84.0039430
  17.2861400 121.3438440  85.3796830  16.8791700 121.2927950  88.1568810
  15.9294410 121.2591490  88.2713800  17.0604710 122.2028060  87.9218580
   2.7336140 119.5429630  77.2667440   3.4427840 119.1212850  76.7814720
   2.0176080 119.6104860  76.6350790   2.3810300 115.5968960  76.3070090
   3.1038430 116.1377900  76.6251310   2.6534820 115.3232380  75.4311630
  16.1901950 120.4661430  80.5741670  16.6861070 120.2332300  81.3590550
  15.9918020 119.6273270  80.1579310   2.0702490 114.8475150  86.2092710
   2.7178680 114.2972530  85.7687870   2.4904330 115.1018300  87.0308520
  17.6189110 119.1022380  83.1079350  17.5088390 118.9478420  84.0461620
  18.3796700 118.5743320  82.8654760  15.9654830 115.0416510  89.5662350
  16.6027050 115.6550650  89.9321540  16.1129720 115.0777170  88.6211580
  18.5079380 116.9330300  76.3485490  19.4328690 116.8011480  76.1403780
  18.4855170 117.0123120  77.3021940  18.5817870 117.7040960  78.9742200
  17.7869370 117.6386080  79.5035110  18.7861150 118.6391600  78.9627550
  15.5236290 131.7432510  82.9680590  16.1195360 131.4217080  82.2915010
  15.7814440 131.2704330  83.7593860   1.8234490 115.0030820  88.9518030
   1.4749310 115.4594640  89.7176210   1.4922190 114.1087950  89.0340460
   3.4298860 128.1750420  93.1171220   3.3868490 127.8043330  93.9985680
   3.5609870 129.1127990  93.2573040   7.1304890 129.7310010  88.7180940
   6.8896250 129.9984570  87.8311460   8.0707530 129.9015740  88.7731800
   9.3359310 116.1942700  92.4737450   9.2748200 116.7864530  93.2232860
  10.2759690 116.0868660  92.3287710  11.9733870 115.8512760  92.1129740
  12.5874280 116.1692050  91.4510820  12.5183430 115.3661350  92.7325600
  18.3909050 131.7504390  89.5191580  17.8967330 132.1473260  88.8018710
  17.7822340 131.1253600  89.9128860   2.4955130 114.5307020  92.2268800
   3.0438120 114.3495070  91.4634910   2.5610440 113.7401130  92.7625110
   3.2686890 131.1212670  90.2369000   2.6747210 130.9897370  90.9759040
   3.2610730 130.2850810  89.7711100  12.7141910 114.4144900  88.4399030
  11.8401750 114.7480010  88.2371960  12.6052660 113.9418080  89.2650900
  13.6213890 116.6215770  89.8240750  13.2927250 115.8067530  89.4442480
  14.5696190 116.5785580  89.7006440  16.0748500 132.3927810  86.7978320
  15.6151470 133.1443620  86.4236340  15.4460960 131.6734280  86.7393120
   2.8999120 128.4871050  89.1877040   2.1733180 127.8676340  89.1202990
   2.9608270 128.8811660  88.3175120   6.5044220 130.7016050  85.9726450
   7.0209240 130.0903410  85.4474710   7.1541600 131.2044830  86.4637460
   9.2439720 131.5924540  86.7995430   9.5317530 131.3378840  85.9228440
   9.7562940 131.0401900  87.3901000  10.4616730 115.3314740  87.3791940
   9.6788520 115.8060240  87.6588700  10.1679660 114.4269570  87.2705120
  15.0137800 116.0337840  85.4241030  15.4545890 115.9782940  84.5762630
  14.7445390 116.9495850  85.4951210  16.8776370 115.6653080  83.4349850
  16.8164770 114.7214300  83.2880870  17.6568400 115.7733170  83.9803310
   1.8057140 115.6362220  79.9005660   2.5636500 115.7491100  79.3269690
   1.3434310 116.4731420  79.8549090   8.3470950 117.7501490  82.8907970
   7.5345460 117.3758380  82.5503850   8.8512590 116.9946570  83.1929160
  12.8495930 114.4143940  84.1291040  13.4525300 114.9864150  84.6039560
  12.1088920 114.9783380  83.9064940  15.9930530 114.8165500  79.4031320
  16.1881160 115.7148950  79.6698750  15.2060400 114.5852580  79.8964270
   2.7891820 130.4978670  79.8423940   2.2639440 130.8786700  79.1385900
   2.7136400 131.1229440  80.5633650   4.1782290 116.1626270  78.4407630
   4.7075050 115.3756070  78.3115580   4.8110610 116.8417460  78.6743160
   6.3720130 115.9001410  81.4953020   5.7422870 115.1988720  81.6623150
   5.8325270 116.6605540  81.2786180   9.3112080 132.5140640  94.1663630
  10.2379390 132.2784910  94.2099590   9.2962510 133.3412640  93.6849660
  17.5457140 132.0566210  81.1637880  17.7209330 131.3703950  80.5198800
  16.8478710 132.5813260  80.7714550   6.4975690 115.1785390  93.9305510
   6.2159960 115.6818990  93.1666330   6.8795390 114.3807140  93.5647640
   5.3884790 132.4461050  78.7173190   6.1203610 132.1620330  78.1697080
   5.6478460 132.2074330  79.6072570   4.5499580 128.5625780  78.7219520
   3.9208460 129.0310880  79.2705350   4.6647410 127.7175000  79.1565710
  13.0991150 114.5938970  94.5085980  12.9856600 114.9133580  95.4037500
  13.9160890 114.9951480  94.2123260  15.8789640 131.7410500  93.9904670
  16.6714960 131.2459730  93.7830630  16.1722790 132.4200640  94.5980280
  12.0049300 122.6131440  64.8720720  11.9243350 121.6986050  64.6012430
  11.5913720 123.1098510  64.1660430  10.1367340 124.3910460  66.7529990
   9.3609440 123.9110900  67.0428560  10.7880270 123.7116110  66.5786150
   4.1533170 124.7030270  67.6305750   3.3218050 124.4478980  68.0302260
   4.7614150 124.7741040  68.3663670  14.1574770 128.7970650  65.5329120
  13.6956300 128.0257890  65.8616290  14.9700320 128.8236720  66.0381570
   4.1334430 128.7370360  67.8263770   4.4362470 127.8468100  67.6473990
   4.8778020 129.2940580  67.5986020   2.5625120 119.6632160  61.4148140
   1.6741820 120.0048130  61.3128020   2.8466310 119.4632480  60.5228970
  10.3838080 131.0828660  65.1533110   9.7649520 131.5386160  64.5827550
  11.2389860 131.2380120  64.7522810   9.5776330 127.0667650  66.7600150
   9.5084610 126.1257590  66.5989280  10.3396190 127.1569060  67.3322720
   1.7683000 117.6722170  69.0856770   1.5885840 116.7747920  69.3659530
   1.3663080 118.2194040  69.7603720  10.6081500 119.8738030  66.9869080
  10.9846320 119.0009910  66.8742750  10.5101010 120.2096730  66.0959520
   4.7386510 118.2463660  62.4486520   4.8453260 119.1467390  62.7555280
   3.8278870 118.1981630  62.1581170  14.3905620 117.3688470  63.9197420
  15.2115240 116.8785040  63.9622900  14.4239700 117.9586130  64.6729260
   2.3869670 120.1682670  67.6939110   3.0679780 120.4321040  68.3126510
   2.0717720 119.3283540  68.0277120   6.5794240 121.2150030  66.7811700
   7.0872460 121.7131000  67.4216720   7.1107480 120.4385230  66.6051060
  18.6805170 119.3855220  70.4841050  17.9757340 119.7736930  69.9656160
  18.9463090 120.0805510  71.0861980   4.8630340 115.8548590  71.0475120
   4.8648780 116.3720980  70.2421020   4.0334650 115.3778770  71.0245050
  11.2501430 125.9667900  62.5465020  10.6318700 126.4317350  61.9827740
  11.7624680 126.6595380  62.9634530   6.1133190 125.4943770  69.2248620
   5.7802570 126.1212690  69.8669690   6.2899870 126.0205650  68.4450290
  14.6267100 119.3088850  66.6924960  13.9222670 119.5973740  67.2728070
  14.9879260 120.1188960  66.3324520   4.5445670 117.5658550  69.0545570
   4.8862480 118.4100600  68.7599440   3.6061480 117.7142290  69.1710910
   5.3252290 127.4624570  71.0397800   5.9426290 128.1375650  70.7582250
   4.4645410 127.8712550  70.9485300  16.2429880 128.9263980  68.9552440
  15.5593400 129.5963090  68.9469110  16.7824170 129.1244630  68.1897300
  17.6954020 118.7543640  67.0834170  16.7478930 118.7882620  67.2149600
  18.0204010 119.5682590  67.4683530   8.2273560 115.0540820  65.3790160
   8.5348540 114.4987710  64.6625660   7.2974260 115.1885280  65.1963150
  13.7788620 130.7708110  67.6697620  13.7915780 130.3670400  66.8019880
  13.2263840 131.5455400  67.5659050  15.0734040 127.4924330  62.7587790
  14.9630370 126.5498660  62.8837210  15.0702290 127.8539970  63.6450550
  13.1774060 125.6737950  68.9980230  13.5942850 125.4598060  68.1633690
  13.9013880 125.9310740  69.5688850  10.6154320 123.1189650  62.1150280
   9.6883600 123.0527030  62.3438750  10.7679140 124.0569780  62.0005520
  10.6023400 119.3906650  59.1117440   9.6627070 119.5520610  59.1969900
  10.9206660 120.1092330  58.5653430  17.1236160 124.0725170  69.0896470
  16.2954790 124.1418260  68.6146600  17.7186640 124.6579480  68.6212300
  14.6451610 124.6809950  62.6185530  14.0264030 124.3429500  61.9711830
  14.6276060 124.0369710  63.3264720  14.0878170 120.8594490  70.0351340
  13.6749350 121.6848200  70.2891330  13.3554120 120.2739530  69.8427700
   6.2210960 123.6454390  64.8970010   5.8167960 122.9331640  64.4015910
   6.3074080 123.3007630  65.7858050   6.6892660 127.3321950  67.0609220
   6.3920950 126.7267420  66.3817000   7.6392480 127.3699260  66.9498580
   4.9339580 120.4197600  68.6769050   5.4854170 120.5292940  67.9022300
   5.4483090 120.7935200  69.3924280  14.7778270 130.9053820  70.7232320
  14.3008830 131.7126010  70.5304930  14.0940060 130.2532150  70.8758530
   5.7811090 127.0703640  73.7117020   4.8839620 127.2943610  73.9590420
   5.8063960 127.1938580  72.7628420  12.8216310 123.9196760  59.6258280
  13.2609590 123.0819190  59.4796100  13.5344730 124.5526160  59.7122420
   4.6082310 123.9416960  72.2874390   4.4690080 124.8139760  72.6561790
   3.7263670 123.5989770  72.1422330  10.9311690 128.8592830  63.5939520
  11.3707600 129.6017160  63.1794910  10.8698580 129.1019400  64.5178480
   6.4062660 129.8838660  74.4959540   6.3778090 130.2881610  73.6287970
   6.2427630 128.9549020  74.3331140  16.4033450 115.1739570  57.9399320
  16.0906110 115.2666400  58.8398390  17.1645920 115.7520600  57.8896750
   2.9215590 122.5399370  62.3976660   2.8013190 123.2661460  61.7857930
   2.6116480 121.7702280  61.9204570  18.3577480 130.6665760  75.7923710
  18.8337200 131.1448650  76.4712790  18.9784640 130.5983250  75.0669210
   1.8048590 127.4114700  64.6151480   1.3976670 127.5529290  63.7605080
   2.6961600 127.1274860  64.4122690  17.7610730 127.8578610  72.9523720
  17.8873790 127.6190490  72.0340900  17.8032110 127.0263150  73.4245800
  11.6227470 131.5606610  71.5218530  12.1372140 131.4714620  72.3240960
  10.7796550 131.9066310  71.8146440  13.5981870 131.8461950  60.9502530
  13.4383010 131.5564890  61.8484360  13.4328580 131.0702080  60.4147760
   6.0770250 131.6260480  62.7274150   5.9012730 130.7096020  62.5141950
   5.2225990 131.9847770  62.9671950  13.3008000 129.3549510  59.5100530
  12.6073160 129.3526800  58.8502810  14.0430860 128.9308830  59.0794700
  12.8657930 130.9812220  63.5849020  13.3214880 130.2001600  63.8987640
  13.2050450 131.6919040  64.1290200  17.6134740 119.9111070  73.9173460
  16.9979010 120.4190740  73.3888920  17.2931160 119.0109400  73.8599400
   5.3879250 115.8834440  65.7800330   4.9447400 116.6643980  65.4484850
   5.9464240 116.2064330  66.4871270   9.6749060 118.7502960  71.3835650
   9.2128430 118.9585980  72.1955590   9.2727170 117.9362310  71.0806320
  14.6753570 119.9711910  72.5132310  13.8247160 119.6717660  72.8341380
  14.5155360 120.2153920  71.6016130  11.7703280 121.4713660  74.6131100
  12.0956690 120.6377410  74.2733330  12.5583610 121.9942180  74.7609430
   8.5038070 115.5045140  60.6606160   7.8792250 115.5005010  61.3859470
   8.4168190 114.6376100  60.2642130   7.4255150 116.4281770  67.6389930
   7.7227480 117.3344600  67.5581950   7.9740710 115.9400550  67.0249500
   5.1793470 121.0068010  63.5081580   4.9534390 120.7905180  64.4128200
   4.3986000 121.4396470  63.1627550  12.4091230 121.0131380  62.1072230
  11.8100120 121.7367180  61.9235850  12.9570840 120.9508160  61.3248680
   7.6192680 121.9053590  74.1741850   7.5236280 120.9648320  74.0242250
   8.4624660 122.1268660  73.7789920  11.0156100 119.6494920  64.1375510
  11.4085670 119.9667120  63.3244200  11.3772950 118.7706800  64.2520030
   2.7503220 118.3167260  72.3275630   2.3566610 119.1642470  72.5348410
   2.0621620 117.6793630  72.5184270   9.3248270 118.4002230  75.3972370
   8.6346590 118.2074430  76.0318460  10.0680570 118.6836870  75.9296670
  11.6011240 122.2400670  68.2326290  10.8692360 122.7487480  68.5816390
  11.2035580 121.4230650  67.9315070   8.0388630 118.9154870  66.6378780
   8.0424690 118.4744820  65.7883320   8.9339750 119.2372200  66.7450600
   3.8891010 118.7981360  65.5972990   3.5491060 119.2756590  66.3540040
   3.1268330 118.3446480  65.2374090   8.1008780 119.9166950  59.6285540
   8.2221600 119.8753430  60.5771360   7.7157290 120.7791100  59.4732270
  12.0637150 117.6934350  67.6449230  12.0809890 118.1443000  68.4891080
  11.8152730 116.7939990  67.8582670   7.1130280 122.2268090  59.0268840
   6.5447180 121.7786340  58.4004750   7.8219280 122.5860870  58.4933990
  15.4907900 115.1066530  73.4835610  15.8153670 114.3756190  74.0093590
  15.5264410 114.7880170  72.5816600   2.1899460 126.1280110  72.9035570
   1.8054250 125.4873780  73.5018530   2.5011650 126.8316230  73.4730300
   8.3396600 122.9756650  68.3844190   8.7066730 122.5015220  69.1305530
   8.1501660 123.8498220  68.7252530   6.1295970 122.0165290  70.7028400
   5.8253040 122.8957270  70.9278760   7.0842430 122.0765080  70.7385840
   4.6577760 126.2226280  61.2995250   3.8840020 125.6823900  61.1393970
   5.3872390 125.7032890  60.9613010  15.4165740 125.2191640  67.0921640
  16.1364860 125.7146930  66.7017750  15.2147560 124.5409530  66.4475510
  10.8775680 116.6129600  61.2351030  10.0640290 116.1142770  61.1596340
  10.6837630 117.4527850  60.8187380  10.7984540 125.2900700  72.9790640
  10.7321850 124.3696370  72.7248230  10.1689680 125.3876140  73.6935280
  13.5924070 120.9849250  59.5313190  14.4803690 121.2966480  59.3564530
  13.5629160 120.1121500  59.1393770   4.7015160 125.8906660  64.9374060
   5.2193830 125.0874920  64.8830950   4.2499180 125.8285800  65.7790890
   9.5884660 127.1572940  60.2101360   9.9300360 127.9015170  59.7144680
   8.7597370 127.4704060  60.5726190   2.1859700 122.8568030  71.8499760
   1.8274640 123.5221880  72.4373100   1.8914260 122.0251580  72.2212380
   5.3872820 123.3152270  74.7339310   5.0872960 123.4609450  73.8367130
   6.1584060 122.7557560  74.6412700  10.7301270 128.1121270  72.7294440
  10.7445810 127.1802230  72.5113350  10.0226370 128.1981030  73.3684210
  15.8638340 122.2961090  58.9993050  15.7802060 122.7275310  58.1489490
  16.5832530 122.7559440  59.4319870  16.9412480 124.7528610  72.0763020
  16.2160670 125.3457390  71.8792410  17.4687940 124.7452150  71.2776390
  16.8925590 129.1503350  61.7275180  16.2501750 128.4958970  62.0018900
  16.5056250 129.5558440  60.9515850  12.4712070 126.4788780  65.5746870
  12.8235890 125.8816910  64.9148240  11.5874400 126.1533010  65.7455120
   8.5575350 127.2386470  62.9817280   9.2446480 127.7855680  63.3624870
   7.7707770 127.7827200  63.0166890   7.8602560 124.2432500  62.5942640
   8.3165340 125.0537750  62.8202830   7.5090770 123.9255640  63.4261130
  10.1635170 129.7538840  69.8234940  10.8077390 129.9598220  70.5008360
  10.5264610 128.9927240  69.3705790   3.7614340 114.5870150  63.0665160
   3.6328970 114.5788050  64.0150080   2.9376360 114.9253240  62.7156170
  11.4367250 127.7571190  68.5412390  12.0789480 127.0564350  68.6544560
  11.9616600 128.5369630  68.3609280  15.2822970 128.0419810  58.2651530
  15.0560550 127.3250250  58.8576170  14.8919170 127.7932250  57.4273280
  13.2104870 128.5566090  71.7448450  13.5461110 129.1432780  72.4226370
  12.2905210 128.4258800  71.9746240  14.8639220 125.9591750  59.9265690
  14.5760920 126.4204440  60.7143570  15.6591390 125.4989520  60.1949910
   9.0393450 128.6057420  74.9136510   8.7190320 127.8866660  75.4582200
   8.3651810 129.2812490  74.9872570   7.0807620 129.4517870  59.8569660
   7.0717720 130.1847560  59.2414170   6.1605980 129.2049450  59.9496620
   2.6814260 124.6732760  60.6016420   2.0742210 125.4131660  60.6111720
   3.1563610 124.7632120  59.7754620  12.2547050 118.8383580  70.2773310
  12.6227870 118.0178790  70.6052880  11.3945250 118.8985470  70.6928960
  15.6209080 117.7940520  61.0860870  14.9922240 117.8986190  60.3719100
  15.1261000 118.0137300  61.8754750  10.0667220 129.5146110  58.5194850
  10.1679200 129.3110100  57.5896830   9.1668960 129.2604390  58.7242630
   7.5893110 120.0726470  62.5018750   6.8809260 120.5412810  62.9432360
   7.8737590 119.4148480  63.1363940   9.2149040 121.4923170  70.5011280
   9.7134290 121.9668990  71.1663130   9.3571990 120.5686690  70.7081310
  11.6208540 116.7977130  63.9414540  11.4976320 116.8163260  62.9924050
  12.5693100 116.8456070  64.0612940   8.7085330 132.0332430  63.2142520
   8.9626830 131.9953820  62.2921890   7.7597810 131.9065760  63.2070770
   5.7928130 118.3811550  59.8769460   6.6418660 118.8181700  59.8109650
   5.4259400 118.6931810  60.7041520  16.4215900 117.7091130  71.3439670
  15.9189500 118.4496530  71.6833480  17.2372560 118.0975130  71.0276460
  14.7137910 122.9524310  64.7901030  13.7728050 122.9674540  64.9648720
  15.0281980 122.1660270  65.2361330   4.6919550 124.6343910  58.3504990
   5.4582820 124.5225270  58.9130420   4.7694240 123.9381880  57.6981760
   3.3866310 122.0668980  59.0337880   3.4669900 121.1196490  59.1455280
   4.2786060 122.3975860  59.1398540  16.7163490 130.1233160  66.4655290
  16.8410910 130.9464330  66.9379100  17.5829050 129.9123890  66.1179440
   4.1881020 132.2164370  66.1372420   4.9243500 131.6679830  66.4080990
   4.5721940 133.0820380  65.9978410   3.1939300 131.4010440  75.3258000
   3.9952030 131.7222490  75.7393400   2.6791120 131.0406020  76.0477910
   7.2983330 131.3894680  57.9597990   8.0911940 131.6783510  57.5079780
   6.7787680 130.9586850  57.2810470  12.0303930 127.5090310  75.2733410
  11.4242090 127.5321910  74.5329160  11.7258040 126.7773350  75.8100660
  13.4604300 131.2370600  73.8842820  14.4126050 131.1528620  73.8343060
  13.3132520 131.9012310  74.5576610  16.3513500 130.6164810  59.3834730
  16.0655010 130.2029950  58.5688910  16.1533050 131.5452520  59.2635250
   7.8160730 126.6098090  57.8240340   7.7111370 125.9950440  58.5501720
   7.6484950 126.0863980  57.0403350   7.9675050 125.2954890  73.8029570
   7.2020720 125.8639890  73.7184240   8.1491010 125.0031100  72.9097800
  11.0563460 125.6718120  58.4282330  10.5073560 126.1187420  59.0725070
  11.6782720 125.1667370  58.9520000  15.1098400 127.0260220  74.3604590
  15.8507870 127.3635980  73.8572050  14.3471080 127.1952280  73.8074360
   2.9460190 122.0313490  75.1644120   2.9865530 121.7327360  76.0729350
   3.8005690 122.4321100  75.0051640   6.7238580 124.6309040  60.3247630
   7.1455000 124.4648910  61.1679020   6.8489420 123.8209270  59.8302770
   4.8866000 120.6105590  73.1318610   4.3562460 120.1196540  72.5041950
   5.5554070 121.0389790  72.5976540   9.2366220 123.6546650  57.5724730
   9.7571880 122.9395670  57.2065880   9.8834620 124.2932520  57.8725240
  13.7844060 125.0775050  72.8959800  14.1985080 125.2320130  73.7450220
  12.8495060 125.2030270  73.0585580  14.2566230 122.4171210  74.8998950
  14.8387000 121.6623530  74.8119430  14.4328000 122.9478650  74.1230430
   5.3738300 117.5767960  73.2115900   5.2795170 116.9588710  72.4866770
   4.7935690 118.3034250  72.9845810   8.1399740 116.1341200  70.2443290
   7.6917040 116.1565460  69.3988840   7.5064940 115.7360220  70.8413590
   8.5459290 125.0295530  70.8655730   8.9647400 125.8728260  70.6931970
   7.6267920 125.1667570  70.6362510  10.8823190 122.7611710  72.2493570
  11.0019400 122.1652850  72.9888410  11.7417190 122.7981400  71.8294870
  13.2211090 123.3148900  70.8256080  12.6946310 123.8391520  70.2221220
  13.5642430 123.9476290  71.4565810   5.6197480 120.7042270  57.2705790
   5.4186540 119.8409630  57.6319130   5.4489530 120.6175630  56.3327390
   6.3966710 131.3348540  71.9813460   5.8587800 132.0594600  71.6622160
   6.6500670 130.8578880  71.1910800   7.6491960 119.3033060  73.5069390
   8.2391650 118.9948910  74.1947210   6.8312200 118.8312810  73.6629290
  12.4685390 118.9198870  73.7402410  11.7800910 118.2580410  73.6752400
  13.1891410 118.4737140  74.1850870  13.0985790 115.5150500  59.7992670
  13.3788080 114.6718400  60.1552090  12.3251520 115.7473610  60.3131420
   4.4180280 117.8042890  57.2583670   4.7206180 117.8110320  56.3502820
   5.1574870 117.4540750  57.7551330   9.2528920 132.5699750  72.2400110
   9.1787620 133.4734890  72.5472480   8.3507760 132.2511650  72.2122180
   7.6365210 116.7477510  58.2439870   7.2887210 116.0701500  57.6642320
   7.8377980 116.2867020  59.0583260   9.8014250 131.7358260  59.8626470
  10.6965040 132.0743230  59.8845230   9.8331880 131.0137670  59.2350750
   3.4410410 127.1085310  58.0913470   3.8785280 127.6514980  58.7471050
   3.9258140 126.2832260  58.1009810   5.2518130 128.2283350  63.2035700
   4.9513670 128.1048320  64.1039610   5.1455620 127.3691940  62.7951430
  16.7808600 130.2661930  72.5692670  16.1810590 130.3254490  71.8256590
  16.9102500 129.3266910  72.6989520  18.0210050 128.0079750  57.9062380
  17.1903010 128.0756400  58.3769610  18.1981880 128.8983870  57.6029240
  17.4766510 124.7527230  60.4096580  18.2385420 125.3223880  60.5156270
  17.4920880 124.1854430  61.1804890  18.4826480 125.6077330  65.2538510
  18.8535310 124.8244650  64.8474480  19.1228410 126.2966430  65.0755810
  15.4660240 126.9913910  70.6668830  14.6520080 127.4211070  70.9294620
  15.8734440 127.6032320  70.0537880  17.5285680 125.0461600  57.5669100
  17.8034520 125.9540480  57.4388320  17.3396420 124.9824130  58.5031090
  13.9261290 118.0706450  58.8622730  14.3446170 117.8837430  58.0219390
  13.6197350 117.2185500  59.1725660  17.4251020 122.9830590  62.5598530
  17.0494620 122.2158520  62.1279820  16.6954140 123.3653290  63.0473460
   2.0146780 123.6617730  69.1807580   2.3819820 123.5745130  70.0603600
   1.4457600 122.8984280  69.0814440  16.8150640 122.1302110  72.1938050
  16.5836730 121.9014860  71.2936000  17.0755190 123.0501660  72.1482940
  15.2538710 117.3558540  74.9717750  16.1308890 117.3641940  75.3551750
  15.2659550 116.6189380  74.3610100  16.7001980 121.2088080  65.8605770
  17.2239460 120.7150730  65.2295940  17.2861400 121.3438440  66.6053340
  16.8791700 121.2927950  69.3825320  15.9294410 121.2591490  69.4970310
  17.0604710 122.2028060  69.1475090   2.7336140 119.5429630  58.4923950
   3.4427840 119.1212850  58.0071230   2.0176080 119.6104860  57.8607300
   2.3810300 115.5968960  57.5326600   3.1038430 116.1377900  57.8507820
   2.6534820 115.3232380  56.6568140  16.1901950 120.4661430  61.7998180
  16.6861070 120.2332300  62.5847060  15.9918020 119.6273270  61.3835820
   2.0702490 114.8475150  67.4349220   2.7178680 114.2972530  66.9944380
   2.4904330 115.1018300  68.2565030  17.6189110 119.1022380  64.3335860
  17.5088390 118.9478420  65.2718130  18.3796700 118.5743320  64.0911270
  15.9654830 115.0416510  70.7918860  16.6027050 115.6550650  71.1578050
  16.1129720 115.0777170  69.8468090  18.5079380 116.9330300  57.5742000
  19.4328690 116.8011480  57.3660290  18.4855170 117.0123120  58.5278450
  18.5817870 117.7040960  60.1998710  17.7869370 117.6386080  60.7291620
  18.7861150 118.6391600  60.1884060  15.5236290 131.7432510  64.1937100
  16.1195360 131.4217080  63.5171520  15.7814440 131.2704330  64.9850370
   1.8234490 115.0030820  70.1774540   1.4749310 115.4594640  70.9432720
   1.4922190 114.1087950  70.2596970   3.4298860 128.1750420  74.3427730
   3.3868490 127.8043330  75.2242190   3.5609870 129.1127990  74.4829550
   7.1304890 129.7310010  69.9437450   6.8896250 129.9984570  69.0567970
   8.0707530 129.9015740  69.9988310   9.3359310 116.1942700  73.6993960
   9.2748200 116.7864530  74.4489370  10.2759690 116.0868660  73.5544220
  11.9733870 115.8512760  73.3386250  12.5874280 116.1692050  72.6767330
  12.5183430 115.3661350  73.9582110  18.3909050 131.7504390  70.7448090
  17.8967330 132.1473260  70.0275220  17.7822340 131.1253600  71.1385370
   2.4955130 114.5307020  73.4525310   3.0438120 114.3495070  72.6891420
   2.5610440 113.7401130  73.9881620   3.2686890 131.1212670  71.4625510
   2.6747210 130.9897370  72.2015550   3.2610730 130.2850810  70.9967610
  12.7141910 114.4144900  69.6655540  11.8401750 114.7480010  69.4628470
  12.6052660 113.9418080  70.4907410  13.6213890 116.6215770  71.0497260
  13.2927250 115.8067530  70.6698990  14.5696190 116.5785580  70.9262950
  16.0748500 132.3927810  68.0234830  15.6151470 133.1443620  67.6492850
  15.4460960 131.6734280  67.9649630   2.8999120 128.4871050  70.4133550
   2.1733180 127.8676340  70.3459500   2.9608270 128.8811660  69.5431630
   6.5044220 130.7016050  67.1982960   7.0209240 130.0903410  66.6731220
   7.1541600 131.2044830  67.6893970   9.2439720 131.5924540  68.0251940
   9.5317530 131.3378840  67.1484950   9.7562940 131.0401900  68.6157510
  10.4616730 115.3314740  68.6048450   9.6788520 115.8060240  68.8845210
  10.1679660 114.4269570  68.4961630  15.0137800 116.0337840  66.6497540
  15.4545890 115.9782940  65.8019140  14.7445390 116.9495850  66.7207720
  16.8776370 115.6653080  64.6606360  16.8164770 114.7214300  64.5137380
  17.6568400 115.7733170  65.2059820   1.8057140 115.6362220  61.1262170
   2.5636500 115.7491100  60.5526200   1.3434310 116.4731420  61.0805600
   8.3470950 117.7501490  64.1164480   7.5345460 117.3758380  63.7760360
   8.8512590 116.9946570  64.4185670  12.8495930 114.4143940  65.3547550
  13.4525300 114.9864150  65.8296070  12.1088920 114.9783380  65.1321450
  15.9930530 114.8165500  60.6287830  16.1881160 115.7148950  60.8955260
  15.2060400 114.5852580  61.1220780   2.7891820 130.4978670  61.0680450
   2.2639440 130.8786700  60.3642410   2.7136400 131.1229440  61.7890160
   4.1782290 116.1626270  59.6664140   4.7075050 115.3756070  59.5372090
   4.8110610 116.8417460  59.8999670   6.3720130 115.9001410  62.7209530
   5.7422870 115.1988720  62.8879660   5.8325270 116.6605540  62.5042690
   9.3112080 132.5140640  75.3920140  10.2379390 132.2784910  75.4356100
   9.2962510 133.3412640  74.9106170  17.5457140 132.0566210  62.3894390
  17.7209330 131.3703950  61.7455310  16.8478710 132.5813260  61.9971060
   6.4975690 115.1785390  75.1562020   6.2159960 115.6818990  74.3922840
   6.8795390 114.3807140  74.7904150   5.3884790 132.4461050  59.9429700
   6.1203610 132.1620330  59.3953590   5.6478460 132.2074330  60.8329080
   4.5499580 128.5625780  59.9476030   3.9208460 129.0310880  60.4961860
   4.6647410 127.7175000  60.3822220  13.0991150 114.5938970  75.7342490
  12.9856600 114.9133580  76.6294010  13.9160890 114.9951480  75.4379770
  15.8789640 131.7410500  75.2161180  16.6714960 131.2459730  75.0087140
  16.1722790 132.4200640  75.8236790  12.0049300 122.6131440  46.0977230
  11.9243350 121.6986050  45.8268940  11.5913720 123.1098510  45.3916940
  10.1367340 124.3910460  47.9786500   9.3609440 123.9110900  48.2685070
  10.7880270 123.7116110  47.8042660   4.1533170 124.7030270  48.8562260
   3.3218050 124.4478980  49.2558770   4.7614150 124.7741040  49.5920180
  14.1574770 128.7970650  46.7585630  13.6956300 128.0257890  47.0872800
  14.9700320 128.8236720  47.2638080   4.1334430 128.7370360  49.0520280
   4.4362470 127.8468100  48.8730500   4.8778020 129.2940580  48.8242530
   2.5625120 119.6632160  42.6404650   1.6741820 120.0048130  42.5384530
   2.8466310 119.4632480  41.7485480  10.3838080 131.0828660  46.3789620
   9.7649520 131.5386160  45.8084060  11.2389860 131.2380120  45.9779320
   9.5776330 127.0667650  47.9856660   9.5084610 126.1257590  47.8245790
  10.3396190 127.1569060  48.5579230   1.7683000 117.6722170  50.3113280
   1.5885840 116.7747920  50.5916040   1.3663080 118.2194040  50.9860230
  10.6081500 119.8738030  48.2125590  10.9846320 119.0009910  48.0999260
  10.5101010 120.2096730  47.3216030   4.7386510 118.2463660  43.6743030
   4.8453260 119.1467390  43.9811790   3.8278870 118.1981630  43.3837680
  14.3905620 117.3688470  45.1453930  15.2115240 116.8785040  45.1879410
  14.4239700 117.9586130  45.8985770   2.3869670 120.1682670  48.9195620
   3.0679780 120.4321040  49.5383020   2.0717720 119.3283540  49.2533630
   6.5794240 121.2150030  48.0068210   7.0872460 121.7131000  48.6473230
   7.1107480 120.4385230  47.8307570  18.6805170 119.3855220  51.7097560
  17.9757340 119.7736930  51.1912670  18.9463090 120.0805510  52.3118490
   4.8630340 115.8548590  52.2731630   4.8648780 116.3720980  51.4677530
   4.0334650 115.3778770  52.2501560  11.2501430 125.9667900  43.7721530
  10.6318700 126.4317350  43.2084250  11.7624680 126.6595380  44.1891040
   6.1133190 125.4943770  50.4505130   5.7802570 126.1212690  51.0926200
   6.2899870 126.0205650  49.6706800  14.6267100 119.3088850  47.9181470
  13.9222670 119.5973740  48.4984580  14.9879260 120.1188960  47.5581030
   4.5445670 117.5658550  50.2802080   4.8862480 118.4100600  49.9855950
   3.6061480 117.7142290  50.3967420   5.3252290 127.4624570  52.2654310
   5.9426290 128.1375650  51.9838760   4.4645410 127.8712550  52.1741810
  16.2429880 128.9263980  50.1808950  15.5593400 129.5963090  50.1725620
  16.7824170 129.1244630  49.4153810  17.6954020 118.7543640  48.3090680
  16.7478930 118.7882620  48.4406110  18.0204010 119.5682590  48.6940040
   8.2273560 115.0540820  46.6046670   8.5348540 114.4987710  45.8882170
   7.2974260 115.1885280  46.4219660  13.7788620 130.7708110  48.8954130
  13.7915780 130.3670400  48.0276390  13.2263840 131.5455400  48.7915560
  15.0734040 127.4924330  43.9844300  14.9630370 126.5498660  44.1093720
  15.0702290 127.8539970  44.8707060  13.1774060 125.6737950  50.2236740
  13.5942850 125.4598060  49.3890200  13.9013880 125.9310740  50.7945360
  10.6154320 123.1189650  43.3406790   9.6883600 123.0527030  43.5695260
  10.7679140 124.0569780  43.2262030  10.6023400 119.3906650  40.3373950
   9.6627070 119.5520610  40.4226410  10.9206660 120.1092330  39.7909940
  17.1236160 124.0725170  50.3152980  16.2954790 124.1418260  49.8403110
  17.7186640 124.6579480  49.8468810  14.6451610 124.6809950  43.8442040
  14.0264030 124.3429500  43.1968340  14.6276060 124.0369710  44.5521230
  14.0878170 120.8594490  51.2607850  13.6749350 121.6848200  51.5147840
  13.3554120 120.2739530  51.0684210   6.2210960 123.6454390  46.1226520
   5.8167960 122.9331640  45.6272420   6.3074080 123.3007630  47.0114560
   6.6892660 127.3321950  48.2865730   6.3920950 126.7267420  47.6073510
   7.6392480 127.3699260  48.1755090   4.9339580 120.4197600  49.9025560
   5.4854170 120.5292940  49.1278810   5.4483090 120.7935200  50.6180790
  14.7778270 130.9053820  51.9488830  14.3008830 131.7126010  51.7561440
  14.0940060 130.2532150  52.1015040   5.7811090 127.0703640  54.9373530
   4.8839620 127.2943610  55.1846930   5.8063960 127.1938580  53.9884930
  12.8216310 123.9196760  40.8514790  13.2609590 123.0819190  40.7052610
  13.5344730 124.5526160  40.9378930   4.6082310 123.9416960  53.5130900
   4.4690080 124.8139760  53.8818300   3.7263670 123.5989770  53.3678840
  10.9311690 128.8592830  44.8196030  11.3707600 129.6017160  44.4051420
  10.8698580 129.1019400  45.7434990   6.4062660 129.8838660  55.7216050
   6.3778090 130.2881610  54.8544480   6.2427630 128.9549020  55.5587650
  16.4033450 115.1739570  39.1655830  16.0906110 115.2666400  40.0654900
  17.1645920 115.7520600  39.1153260   2.9215590 122.5399370  43.6233170
   2.8013190 123.2661460  43.0114440   2.6116480 121.7702280  43.1461080
  18.3577480 130.6665760  57.0180220  18.8337200 131.1448650  57.6969300
  18.9784640 130.5983250  56.2925720   1.8048590 127.4114700  45.8407990
   1.3976670 127.5529290  44.9861590   2.6961600 127.1274860  45.6379200
  17.7610730 127.8578610  54.1780230  17.8873790 127.6190490  53.2597410
  17.8032110 127.0263150  54.6502310  11.6227470 131.5606610  52.7475040
  12.1372140 131.4714620  53.5497470  10.7796550 131.9066310  53.0402950
  13.5981870 131.8461950  42.1759040  13.4383010 131.5564890  43.0740870
  13.4328580 131.0702080  41.6404270   6.0770250 131.6260480  43.9530660
   5.9012730 130.7096020  43.7398460   5.2225990 131.9847770  44.1928460
  13.3008000 129.3549510  40.7357040  12.6073160 129.3526800  40.0759320
  14.0430860 128.9308830  40.3051210  12.8657930 130.9812220  44.8105530
  13.3214880 130.2001600  45.1244150  13.2050450 131.6919040  45.3546710
  17.6134740 119.9111070  55.1429970  16.9979010 120.4190740  54.6145430
  17.2931160 119.0109400  55.0855910   5.3879250 115.8834440  47.0056840
   4.9447400 116.6643980  46.6741360   5.9464240 116.2064330  47.7127780
   9.6749060 118.7502960  52.6092160   9.2128430 118.9585980  53.4212100
   9.2727170 117.9362310  52.3062830  14.6753570 119.9711910  53.7388820
  13.8247160 119.6717660  54.0597890  14.5155360 120.2153920  52.8272640
  11.7703280 121.4713660  55.8387610  12.0956690 120.6377410  55.4989840
  12.5583610 121.9942180  55.9865940   8.5038070 115.5045140  41.8862670
   7.8792250 115.5005010  42.6115980   8.4168190 114.6376100  41.4898640
   7.4255150 116.4281770  48.8646440   7.7227480 117.3344600  48.7838460
   7.9740710 115.9400550  48.2506010   5.1793470 121.0068010  44.7338090
   4.9534390 120.7905180  45.6384710   4.3986000 121.4396470  44.3884060
  12.4091230 121.0131380  43.3328740  11.8100120 121.7367180  43.1492360
  12.9570840 120.9508160  42.5505190   7.6192680 121.9053590  55.3998360
   7.5236280 120.9648320  55.2498760   8.4624660 122.1268660  55.0046430
  11.0156100 119.6494920  45.3632020  11.4085670 119.9667120  44.5500710
  11.3772950 118.7706800  45.4776540   2.7503220 118.3167260  53.5532140
   2.3566610 119.1642470  53.7604920   2.0621620 117.6793630  53.7440780
   9.3248270 118.4002230  56.6228880   8.6346590 118.2074430  57.2574970
  10.0680570 118.6836870  57.1553180  11.6011240 122.2400670  49.4582800
  10.8692360 122.7487480  49.8072900  11.2035580 121.4230650  49.1571580
   8.0388630 118.9154870  47.8635290   8.0424690 118.4744820  47.0139830
   8.9339750 119.2372200  47.9707110   3.8891010 118.7981360  46.8229500
   3.5491060 119.2756590  47.5796550   3.1268330 118.3446480  46.4630600
   8.1008780 119.9166950  40.8542050   8.2221600 119.8753430  41.8027870
   7.7157290 120.7791100  40.6988780  12.0637150 117.6934350  48.8705740
  12.0809890 118.1443000  49.7147590  11.8152730 116.7939990  49.0839180
   7.1130280 122.2268090  40.2525350   6.5447180 121.7786340  39.6261260
   7.8219280 122.5860870  39.7190500  15.4907900 115.1066530  54.7092120
  15.8153670 114.3756190  55.2350100  15.5264410 114.7880170  53.8073110
   2.1899460 126.1280110  54.1292080   1.8054250 125.4873780  54.7275040
   2.5011650 126.8316230  54.6986810   8.3396600 122.9756650  49.6100700
   8.7066730 122.5015220  50.3562040   8.1501660 123.8498220  49.9509040
   6.1295970 122.0165290  51.9284910   5.8253040 122.8957270  52.1535270
   7.0842430 122.0765080  51.9642350   4.6577760 126.2226280  42.5251760
   3.8840020 125.6823900  42.3650480   5.3872390 125.7032890  42.1869520
  15.4165740 125.2191640  48.3178150  16.1364860 125.7146930  47.9274260
  15.2147560 124.5409530  47.6732020  10.8775680 116.6129600  42.4607540
  10.0640290 116.1142770  42.3852850  10.6837630 117.4527850  42.0443890
  10.7984540 125.2900700  54.2047150  10.7321850 124.3696370  53.9504740
  10.1689680 125.3876140  54.9191790  13.5924070 120.9849250  40.7569700
  14.4803690 121.2966480  40.5821040  13.5629160 120.1121500  40.3650280
   4.7015160 125.8906660  46.1630570   5.2193830 125.0874920  46.1087460
   4.2499180 125.8285800  47.0047400   9.5884660 127.1572940  41.4357870
   9.9300360 127.9015170  40.9401190   8.7597370 127.4704060  41.7982700
   2.1859700 122.8568030  53.0756270   1.8274640 123.5221880  53.6629610
   1.8914260 122.0251580  53.4468890   5.3872820 123.3152270  55.9595820
   5.0872960 123.4609450  55.0623640   6.1584060 122.7557560  55.8669210
  10.7301270 128.1121270  53.9550950  10.7445810 127.1802230  53.7369860
  10.0226370 128.1981030  54.5940720  15.8638340 122.2961090  40.2249560
  15.7802060 122.7275310  39.3746000  16.5832530 122.7559440  40.6576380
  16.9412480 124.7528610  53.3019530  16.2160670 125.3457390  53.1048920
  17.4687940 124.7452150  52.5032900  16.8925590 129.1503350  42.9531690
  16.2501750 128.4958970  43.2275410  16.5056250 129.5558440  42.1772360
  12.4712070 126.4788780  46.8003380  12.8235890 125.8816910  46.1404750
  11.5874400 126.1533010  46.9711630   8.5575350 127.2386470  44.2073790
   9.2446480 127.7855680  44.5881380   7.7707770 127.7827200  44.2423400
   7.8602560 124.2432500  43.8199150   8.3165340 125.0537750  44.0459340
   7.5090770 123.9255640  44.6517640  10.1635170 129.7538840  51.0491450
  10.8077390 129.9598220  51.7264870  10.5264610 128.9927240  50.5962300
   3.7614340 114.5870150  44.2921670   3.6328970 114.5788050  45.2406590
   2.9376360 114.9253240  43.9412680  11.4367250 127.7571190  49.7668900
  12.0789480 127.0564350  49.8801070  11.9616600 128.5369630  49.5865790
  15.2822970 128.0419810  39.4908040  15.0560550 127.3250250  40.0832680
  14.8919170 127.7932250  38.6529790  13.2104870 128.5566090  52.9704960
  13.5461110 129.1432780  53.6482880  12.2905210 128.4258800  53.2002750
  14.8639220 125.9591750  41.1522200  14.5760920 126.4204440  41.9400080
  15.6591390 125.4989520  41.4206420   9.0393450 128.6057420  56.1393020
   8.7190320 127.8866660  56.6838710   8.3651810 129.2812490  56.2129080
   7.0807620 129.4517870  41.0826170   7.0717720 130.1847560  40.4670680
   6.1605980 129.2049450  41.1753130   2.6814260 124.6732760  41.8272930
   2.0742210 125.4131660  41.8368230   3.1563610 124.7632120  41.0011130
  12.2547050 118.8383580  51.5029820  12.6227870 118.0178790  51.8309390
  11.3945250 118.8985470  51.9185470  15.6209080 117.7940520  42.3117380
  14.9922240 117.8986190  41.5975610  15.1261000 118.0137300  43.1011260
  10.0667220 129.5146110  39.7451360  10.1679200 129.3110100  38.8153340
   9.1668960 129.2604390  39.9499140   7.5893110 120.0726470  43.7275260
   6.8809260 120.5412810  44.1688870   7.8737590 119.4148480  44.3620450
   9.2149040 121.4923170  51.7267790   9.7134290 121.9668990  52.3919640
   9.3571990 120.5686690  51.9337820  11.6208540 116.7977130  45.1671050
  11.4976320 116.8163260  44.2180560  12.5693100 116.8456070  45.2869450
   8.7085330 132.0332430  44.4399030   8.9626830 131.9953820  43.5178400
   7.7597810 131.9065760  44.4327280   5.7928130 118.3811550  41.1025970
   6.6418660 118.8181700  41.0366160   5.4259400 118.6931810  41.9298030
  16.4215900 117.7091130  52.5696180  15.9189500 118.4496530  52.9089990
  17.2372560 118.0975130  52.2532970  14.7137910 122.9524310  46.0157540
  13.7728050 122.9674540  46.1905230  15.0281980 122.1660270  46.4617840
   4.6919550 124.6343910  39.5761500   5.4582820 124.5225270  40.1386930
   4.7694240 123.9381880  38.9238270   3.3866310 122.0668980  40.2594390
   3.4669900 121.1196490  40.3711790   4.2786060 122.3975860  40.3655050
  16.7163490 130.1233160  47.6911800  16.8410910 130.9464330  48.1635610
  17.5829050 129.9123890  47.3435950   4.1881020 132.2164370  47.3628930
   4.9243500 131.6679830  47.6337500   4.5721940 133.0820380  47.2234920
   3.1939300 131.4010440  56.5514510   3.9952030 131.7222490  56.9649910
   2.6791120 131.0406020  57.2734420   7.2983330 131.3894680  39.1854500
   8.0911940 131.6783510  38.7336290   6.7787680 130.9586850  38.5066980
  12.0303930 127.5090310  56.4989920  11.4242090 127.5321910  55.7585670
  11.7258040 126.7773350  57.0357170  13.4604300 131.2370600  55.1099330
  14.4126050 131.1528620  55.0599570  13.3132520 131.9012310  55.7833120
  16.3513500 130.6164810  40.6091240  16.0655010 130.2029950  39.7945420
  16.1533050 131.5452520  40.4891760   7.8160730 126.6098090  39.0496850
   7.7111370 125.9950440  39.7758230   7.6484950 126.0863980  38.2659860
   7.9675050 125.2954890  55.0286080   7.2020720 125.8639890  54.9440750
   8.1491010 125.0031100  54.1354310  11.0563460 125.6718120  39.6538840
  10.5073560 126.1187420  40.2981580  11.6782720 125.1667370  40.1776510
  15.1098400 127.0260220  55.5861100  15.8507870 127.3635980  55.0828560
  14.3471080 127.1952280  55.0330870   2.9460190 122.0313490  56.3900630
   2.9865530 121.7327360  57.2985860   3.8005690 122.4321100  56.2308150
   6.7238580 124.6309040  41.5504140   7.1455000 124.4648910  42.3935530
   6.8489420 123.8209270  41.0559280   4.8866000 120.6105590  54.3575120
   4.3562460 120.1196540  53.7298460   5.5554070 121.0389790  53.8233050
   9.2366220 123.6546650  38.7981240   9.7571880 122.9395670  38.4322390
   9.8834620 124.2932520  39.0981750  13.7844060 125.0775050  54.1216310
  14.1985080 125.2320130  54.9706730  12.8495060 125.2030270  54.2842090
  14.2566230 122.4171210  56.1255460  14.8387000 121.6623530  56.0375940
  14.4328000 122.9478650  55.3486940   5.3738300 117.5767960  54.4372410
   5.2795170 116.9588710  53.7123280   4.7935690 118.3034250  54.2102320
   8.1399740 116.1341200  51.4699800   7.6917040 116.1565460  50.6245350
   7.5064940 115.7360220  52.0670100   8.5459290 125.0295530  52.0912240
   8.9647400 125.8728260  51.9188480   7.6267920 125.1667570  51.8619020
  10.8823190 122.7611710  53.4750080  11.0019400 122.1652850  54.2144920
  11.7417190 122.7981400  53.0551380  13.2211090 123.3148900  52.0512590
  12.6946310 123.8391520  51.4477730  13.5642430 123.9476290  52.6822320
   5.6197480 120.7042270  38.4962300   5.4186540 119.8409630  38.8575640
   5.4489530 120.6175630  37.5583900   6.3966710 131.3348540  53.2069970
   5.8587800 132.0594600  52.8878670   6.6500670 130.8578880  52.4167310
   7.6491960 119.3033060  54.7325900   8.2391650 118.9948910  55.4203720
   6.8312200 118.8312810  54.8885800  12.4685390 118.9198870  54.9658920
  11.7800910 118.2580410  54.9008910  13.1891410 118.4737140  55.4107380
  13.0985790 115.5150500  41.0249180  13.3788080 114.6718400  41.3808600
  12.3251520 115.7473610  41.5387930   4.4180280 117.8042890  38.4840180
   4.7206180 117.8110320  37.5759330   5.1574870 117.4540750  38.9807840
   9.2528920 132.5699750  53.4656620   9.1787620 133.4734890  53.7728990
   8.3507760 132.2511650  53.4378690   7.6365210 116.7477510  39.4696380
   7.2887210 116.0701500  38.8898830   7.8377980 116.2867020  40.2839770
   9.8014250 131.7358260  41.0882980  10.6965040 132.0743230  41.1101740
   9.8331880 131.0137670  40.4607260   3.4410410 127.1085310  39.3169980
   3.8785280 127.6514980  39.9727560   3.9258140 126.2832260  39.3266320
   5.2518130 128.2283350  44.4292210   4.9513670 128.1048320  45.3296120
   5.1455620 127.3691940  44.0207940  16.7808600 130.2661930  53.7949180
  16.1810590 130.3254490  53.0513100  16.9102500 129.3266910  53.9246030
  18.0210050 128.0079750  39.1318890  17.1903010 128.0756400  39.6026120
  18.1981880 128.8983870  38.8285750  17.4766510 124.7527230  41.6353090
  18.2385420 125.3223880  41.7412780  17.4920880 124.1854430  42.4061400
  18.4826480 125.6077330  46.4795020  18.8535310 124.8244650  46.0730990
  19.1228410 126.2966430  46.3012320  15.4660240 126.9913910  51.8925340
  14.6520080 127.4211070  52.1551130  15.8734440 127.6032320  51.2794390
  17.5285680 125.0461600  38.7925610  17.8034520 125.9540480  38.6644830
  17.3396420 124.9824130  39.7287600  13.9261290 118.0706450  40.0879240
  14.3446170 117.8837430  39.2475900  13.6197350 117.2185500  40.3982170
  17.4251020 122.9830590  43.7855040  17.0494620 122.2158520  43.3536330
  16.6954140 123.3653290  44.2729970   2.0146780 123.6617730  50.4064090
   2.3819820 123.5745130  51.2860110   1.4457600 122.8984280  50.3070950
  16.8150640 122.1302110  53.4194560  16.5836730 121.9014860  52.5192510
  17.0755190 123.0501660  53.3739450  15.2538710 117.3558540  56.1974260
  16.1308890 117.3641940  56.5808260  15.2659550 116.6189380  55.5866610
  16.7001980 121.2088080  47.0862280  17.2239460 120.7150730  46.4552450
  17.2861400 121.3438440  47.8309850  16.8791700 121.2927950  50.6081830
  15.9294410 121.2591490  50.7226820  17.0604710 122.2028060  50.3731600
   2.7336140 119.5429630  39.7180460   3.4427840 119.1212850  39.2327740
   2.0176080 119.6104860  39.0863810   2.3810300 115.5968960  38.7583110
   3.1038430 116.1377900  39.0764330   2.6534820 115.3232380  37.8824650
  16.1901950 120.4661430  43.0254690  16.6861070 120.2332300  43.8103570
  15.9918020 119.6273270  42.6092330   2.0702490 114.8475150  48.6605730
   2.7178680 114.2972530  48.2200890   2.4904330 115.1018300  49.4821540
  17.6189110 119.1022380  45.5592370  17.5088390 118.9478420  46.4974640
  18.3796700 118.5743320  45.3167780  15.9654830 115.0416510  52.0175370
  16.6027050 115.6550650  52.3834560  16.1129720 115.0777170  51.0724600
  18.5079380 116.9330300  38.7998510  19.4328690 116.8011480  38.5916800
  18.4855170 117.0123120  39.7534960  18.5817870 117.7040960  41.4255220
  17.7869370 117.6386080  41.9548130  18.7861150 118.6391600  41.4140570
  15.5236290 131.7432510  45.4193610  16.1195360 131.4217080  44.7428030
  15.7814440 131.2704330  46.2106880   1.8234490 115.0030820  51.4031050
   1.4749310 115.4594640  52.1689230   1.4922190 114.1087950  51.4853480
   3.4298860 128.1750420  55.5684240   3.3868490 127.8043330  56.4498700
   3.5609870 129.1127990  55.7086060   7.1304890 129.7310010  51.1693960
   6.8896250 129.9984570  50.2824480   8.0707530 129.9015740  51.2244820
   9.3359310 116.1942700  54.9250470   9.2748200 116.7864530  55.6745880
  10.2759690 116.0868660  54.7800730  11.9733870 115.8512760  54.5642760
  12.5874280 116.1692050  53.9023840  12.5183430 115.3661350  55.1838620
  18.3909050 131.7504390  51.9704600  17.8967330 132.1473260  51.2531730
  17.7822340 131.1253600  52.3641880   2.4955130 114.5307020  54.6781820
   3.0438120 114.3495070  53.9147930   2.5610440 113.7401130  55.2138130
   3.2686890 131.1212670  52.6882020   2.6747210 130.9897370  53.4272060
   3.2610730 130.2850810  52.2224120  12.7141910 114.4144900  50.8912050
  11.8401750 114.7480010  50.6884980  12.6052660 113.9418080  51.7163920
  13.6213890 116.6215770  52.2753770  13.2927250 115.8067530  51.8955500
  14.5696190 116.5785580  52.1519460  16.0748500 132.3927810  49.2491340
  15.6151470 133.1443620  48.8749360  15.4460960 131.6734280  49.1906140
   2.8999120 128.4871050  51.6390060   2.1733180 127.8676340  51.5716010
   2.9608270 128.8811660  50.7688140   6.5044220 130.7016050  48.4239470
   7.0209240 130.0903410  47.8987730   7.1541600 131.2044830  48.9150480
   9.2439720 131.5924540  49.2508450   9.5317530 131.3378840  48.3741460
   9.7562940 131.0401900  49.8414020  10.4616730 115.3314740  49.8304960
   9.6788520 115.8060240  50.1101720  10.1679660 114.4269570  49.7218140
  15.0137800 116.0337840  47.8754050  15.4545890 115.9782940  47.0275650
  14.7445390 116.9495850  47.9464230  16.8776370 115.6653080  45.8862870
  16.8164770 114.7214300  45.7393890  17.6568400 115.7733170  46.4316330
   1.8057140 115.6362220  42.3518680   2.5636500 115.7491100  41.7782710
   1.3434310 116.4731420  42.3062110   8.3470950 117.7501490  45.3420990
   7.5345460 117.3758380  45.0016870   8.8512590 116.9946570  45.6442180
  12.8495930 114.4143940  46.5804060  13.4525300 114.9864150  47.0552580
  12.1088920 114.9783380  46.3577960  15.9930530 114.8165500  41.8544340
  16.1881160 115.7148950  42.1211770  15.2060400 114.5852580  42.3477290
   2.7891820 130.4978670  42.2936960   2.2639440 130.8786700  41.5898920
   2.7136400 131.1229440  43.0146670   4.1782290 116.1626270  40.8920650
   4.7075050 115.3756070  40.7628600   4.8110610 116.8417460  41.1256180
   6.3720130 115.9001410  43.9466040   5.7422870 115.1988720  44.1136170
   5.8325270 116.6605540  43.7299200   9.3112080 132.5140640  56.6176650
  10.2379390 132.2784910  56.6612610   9.2962510 133.3412640  56.1362680
  17.5457140 132.0566210  43.6150900  17.7209330 131.3703950  42.9711820
  16.8478710 132.5813260  43.2227570   6.4975690 115.1785390  56.3818530
   6.2159960 115.6818990  55.6179350   6.8795390 114.3807140  56.0160660
   5.3884790 132.4461050  41.1686210   6.1203610 132.1620330  40.6210100
   5.6478460 132.2074330  42.0585590   4.5499580 128.5625780  41.1732540
   3.9208460 129.0310880  41.7218370   4.6647410 127.7175000  41.6078730
  13.0991150 114.5938970  56.9599000  12.9856600 114.9133580  57.8550520
  13.9160890 114.9951480  56.6636280  15.8789640 131.7410500  56.4417690
  16.6714960 131.2459730  56.2343650  16.1722790 132.4200640  57.0493300
  12.0049300 122.6131440  27.3233740  11.9243350 121.6986050  27.0525450
  11.5913720 123.1098510  26.6173450  10.1367340 124.3910460  29.2043010
   9.3609440 123.9110900  29.4941580  10.7880270 123.7116110  29.0299170
   4.1533170 124.7030270  30.0818770   3.3218050 124.4478980  30.4815280
   4.7614150 124.7741040  30.8176690  14.1574770 128.7970650  27.9842140
  13.6956300 128.0257890  28.3129310  14.9700320 128.8236720  28.4894590
   4.1334430 128.7370360  30.2776790   4.4362470 127.8468100  30.0987010
   4.8778020 129.2940580  30.0499040   2.5625120 119.6632160  23.8661160
   1.6741820 120.0048130  23.7641040   2.8466310 119.4632480  22.9741990
  10.3838080 131.0828660  27.6046130   9.7649520 131.5386160  27.0340570
  11.2389860 131.2380120  27.2035830   9.5776330 127.0667650  29.2113170
   9.5084610 126.1257590  29.0502300  10.3396190 127.1569060  29.7835740
   1.7683000 117.6722170  31.5369790   1.5885840 116.7747920  31.8172550
   1.3663080 118.2194040  32.2116740  10.6081500 119.8738030  29.4382100
  10.9846320 119.0009910  29.3255770  10.5101010 120.2096730  28.5472540
   4.7386510 118.2463660  24.8999540   4.8453260 119.1467390  25.2068300
   3.8278870 118.1981630  24.6094190  14.3905620 117.3688470  26.3710440
  15.2115240 116.8785040  26.4135920  14.4239700 117.9586130  27.1242280
   2.3869670 120.1682670  30.1452130   3.0679780 120.4321040  30.7639530
   2.0717720 119.3283540  30.4790140   6.5794240 121.2150030  29.2324720
   7.0872460 121.7131000  29.8729740   7.1107480 120.4385230  29.0564080
  18.6805170 119.3855220  32.9354070  17.9757340 119.7736930  32.4169180
  18.9463090 120.0805510  33.5375000   4.8630340 115.8548590  33.4988140
   4.8648780 116.3720980  32.6934040   4.0334650 115.3778770  33.4758070
  11.2501430 125.9667900  24.9978040  10.6318700 126.4317350  24.4340760
  11.7624680 126.6595380  25.4147550   6.1133190 125.4943770  31.6761640
   5.7802570 126.1212690  32.3182710   6.2899870 126.0205650  30.8963310
  14.6267100 119.3088850  29.1437980  13.9222670 119.5973740  29.7241090
  14.9879260 120.1188960  28.7837540   4.5445670 117.5658550  31.5058590
   4.8862480 118.4100600  31.2112460   3.6061480 117.7142290  31.6223930
   5.3252290 127.4624570  33.4910820   5.9426290 128.1375650  33.2095270
   4.4645410 127.8712550  33.3998320  16.2429880 128.9263980  31.4065460
  15.5593400 129.5963090  31.3982130  16.7824170 129.1244630  30.6410320
  17.6954020 118.7543640  29.5347190  16.7478930 118.7882620  29.6662620
  18.0204010 119.5682590  29.9196550   8.2273560 115.0540820  27.8303180
   8.5348540 114.4987710  27.1138680   7.2974260 115.1885280  27.6476170
  13.7788620 130.7708110  30.1210640  13.7915780 130.3670400  29.2532900
  13.2263840 131.5455400  30.0172070  15.0734040 127.4924330  25.2100810
  14.9630370 126.5498660  25.3350230  15.0702290 127.8539970  26.0963570
  13.1774060 125.6737950  31.4493250  13.5942850 125.4598060  30.6146710
  13.9013880 125.9310740  32.0201870  10.6154320 123.1189650  24.5663300
   9.6883600 123.0527030  24.7951770  10.7679140 124.0569780  24.4518540
  10.6023400 119.3906650  21.5630460   9.6627070 119.5520610  21.6482920
  10.9206660 120.1092330  21.0166450  17.1236160 124.0725170  31.5409490
  16.2954790 124.1418260  31.0659620  17.7186640 124.6579480  31.0725320
  14.6451610 124.6809950  25.0698550  14.0264030 124.3429500  24.4224850
  14.6276060 124.0369710  25.7777740  14.0878170 120.8594490  32.4864360
  13.6749350 121.6848200  32.7404350  13.3554120 120.2739530  32.2940720
   6.2210960 123.6454390  27.3483030   5.8167960 122.9331640  26.8528930
   6.3074080 123.3007630  28.2371070   6.6892660 127.3321950  29.5122240
   6.3920950 126.7267420  28.8330020   7.6392480 127.3699260  29.4011600
   4.9339580 120.4197600  31.1282070   5.4854170 120.5292940  30.3535320
   5.4483090 120.7935200  31.8437300  14.7778270 130.9053820  33.1745340
  14.3008830 131.7126010  32.9817950  14.0940060 130.2532150  33.3271550
   5.7811090 127.0703640  36.1630040   4.8839620 127.2943610  36.4103440
   5.8063960 127.1938580  35.2141440  12.8216310 123.9196760  22.0771300
  13.2609590 123.0819190  21.9309120  13.5344730 124.5526160  22.1635440
   4.6082310 123.9416960  34.7387410   4.4690080 124.8139760  35.1074810
   3.7263670 123.5989770  34.5935350  10.9311690 128.8592830  26.0452540
  11.3707600 129.6017160  25.6307930  10.8698580 129.1019400  26.9691500
   6.4062660 129.8838660  36.9472560   6.3778090 130.2881610  36.0800990
   6.2427630 128.9549020  36.7844160  16.4033450 115.1739570  20.3912340
  16.0906110 115.2666400  21.2911410  17.1645920 115.7520600  20.3409770
   2.9215590 122.5399370  24.8489680   2.8013190 123.2661460  24.2370950
   2.6116480 121.7702280  24.3717590  18.3577480 130.6665760  38.2436730
  18.8337200 131.1448650  38.9225810  18.9784640 130.5983250  37.5182230
   1.8048590 127.4114700  27.0664500   1.3976670 127.5529290  26.2118100
   2.6961600 127.1274860  26.8635710  17.7610730 127.8578610  35.4036740
  17.8873790 127.6190490  34.4853920  17.8032110 127.0263150  35.8758820
  11.6227470 131.5606610  33.9731550  12.1372140 131.4714620  34.7753980
  10.7796550 131.9066310  34.2659460  13.5981870 131.8461950  23.4015550
  13.4383010 131.5564890  24.2997380  13.4328580 131.0702080  22.8660780
   6.0770250 131.6260480  25.1787170   5.9012730 130.7096020  24.9654970
   5.2225990 131.9847770  25.4184970  13.3008000 129.3549510  21.9613550
  12.6073160 129.3526800  21.3015830  14.0430860 128.9308830  21.5307720
  12.8657930 130.9812220  26.0362040  13.3214880 130.2001600  26.3500660
  13.2050450 131.6919040  26.5803220  17.6134740 119.9111070  36.3686480
  16.9979010 120.4190740  35.8401940  17.2931160 119.0109400  36.3112420
   5.3879250 115.8834440  28.2313350   4.9447400 116.6643980  27.8997870
   5.9464240 116.2064330  28.9384290   9.6749060 118.7502960  33.8348670
   9.2128430 118.9585980  34.6468610   9.2727170 117.9362310  33.5319340
  14.6753570 119.9711910  34.9645330  13.8247160 119.6717660  35.2854400
  14.5155360 120.2153920  34.0529150  11.7703280 121.4713660  37.0644120
  12.0956690 120.6377410  36.7246350  12.5583610 121.9942180  37.2122450
   8.5038070 115.5045140  23.1119180   7.8792250 115.5005010  23.8372490
   8.4168190 114.6376100  22.7155150   7.4255150 116.4281770  30.0902950
   7.7227480 117.3344600  30.0094970   7.9740710 115.9400550  29.4762520
   5.1793470 121.0068010  25.9594600   4.9534390 120.7905180  26.8641220
   4.3986000 121.4396470  25.6140570  12.4091230 121.0131380  24.5585250
  11.8100120 121.7367180  24.3748870  12.9570840 120.9508160  23.7761700
   7.6192680 121.9053590  36.6254870   7.5236280 120.9648320  36.4755270
   8.4624660 122.1268660  36.2302940  11.0156100 119.6494920  26.5888530
  11.4085670 119.9667120  25.7757220  11.3772950 118.7706800  26.7033050
   2.7503220 118.3167260  34.7788650   2.3566610 119.1642470  34.9861430
   2.0621620 117.6793630  34.9697290   9.3248270 118.4002230  37.8485390
   8.6346590 118.2074430  38.4831480  10.0680570 118.6836870  38.3809690
  11.6011240 122.2400670  30.6839310  10.8692360 122.7487480  31.0329410
  11.2035580 121.4230650  30.3828090   8.0388630 118.9154870  29.0891800
   8.0424690 118.4744820  28.2396340   8.9339750 119.2372200  29.1963620
   3.8891010 118.7981360  28.0486010   3.5491060 119.2756590  28.8053060
   3.1268330 118.3446480  27.6887110   8.1008780 119.9166950  22.0798560
   8.2221600 119.8753430  23.0284380   7.7157290 120.7791100  21.9245290
  12.0637150 117.6934350  30.0962250  12.0809890 118.1443000  30.9404100
  11.8152730 116.7939990  30.3095690   7.1130280 122.2268090  21.4781860
   6.5447180 121.7786340  20.8517770   7.8219280 122.5860870  20.9447010
  15.4907900 115.1066530  35.9348630  15.8153670 114.3756190  36.4606610
  15.5264410 114.7880170  35.0329620   2.1899460 126.1280110  35.3548590
   1.8054250 125.4873780  35.9531550   2.5011650 126.8316230  35.9243320
   8.3396600 122.9756650  30.8357210   8.7066730 122.5015220  31.5818550
   8.1501660 123.8498220  31.1765550   6.1295970 122.0165290  33.1541420
   5.8253040 122.8957270  33.3791780   7.0842430 122.0765080  33.1898860
   4.6577760 126.2226280  23.7508270   3.8840020 125.6823900  23.5906990
   5.3872390 125.7032890  23.4126030  15.4165740 125.2191640  29.5434660
  16.1364860 125.7146930  29.1530770  15.2147560 124.5409530  28.8988530
  10.8775680 116.6129600  23.6864050  10.0640290 116.1142770  23.6109360
  10.6837630 117.4527850  23.2700400  10.7984540 125.2900700  35.4303660
  10.7321850 124.3696370  35.1761250  10.1689680 125.3876140  36.1448300
  13.5924070 120.9849250  21.9826210  14.4803690 121.2966480  21.8077550
  13.5629160 120.1121500  21.5906790   4.7015160 125.8906660  27.3887080
   5.2193830 125.0874920  27.3343970   4.2499180 125.8285800  28.2303910
   9.5884660 127.1572940  22.6614380   9.9300360 127.9015170  22.1657700
   8.7597370 127.4704060  23.0239210   2.1859700 122.8568030  34.3012780
   1.8274640 123.5221880  34.8886120   1.8914260 122.0251580  34.6725400
   5.3872820 123.3152270  37.1852330   5.0872960 123.4609450  36.2880150
   6.1584060 122.7557560  37.0925720  10.7301270 128.1121270  35.1807460
  10.7445810 127.1802230  34.9626370  10.0226370 128.1981030  35.8197230
  15.8638340 122.2961090  21.4506070  15.7802060 122.7275310  20.6002510
  16.5832530 122.7559440  21.8832890  16.9412480 124.7528610  34.5276040
  16.2160670 125.3457390  34.3305430  17.4687940 124.7452150  33.7289410
  16.8925590 129.1503350  24.1788200  16.2501750 128.4958970  24.4531920
  16.5056250 129.5558440  23.4028870  12.4712070 126.4788780  28.0259890
  12.8235890 125.8816910  27.3661260  11.5874400 126.1533010  28.1968140
   8.5575350 127.2386470  25.4330300   9.2446480 127.7855680  25.8137890
   7.7707770 127.7827200  25.4679910   7.8602560 124.2432500  25.0455660
   8.3165340 125.0537750  25.2715850   7.5090770 123.9255640  25.8774150
  10.1635170 129.7538840  32.2747960  10.8077390 129.9598220  32.9521380
  10.5264610 128.9927240  31.8218810   3.7614340 114.5870150  25.5178180
   3.6328970 114.5788050  26.4663100   2.9376360 114.9253240  25.1669190
  11.4367250 127.7571190  30.9925410  12.0789480 127.0564350  31.1057580
  11.9616600 128.5369630  30.8122300  15.2822970 128.0419810  20.7164550
  15.0560550 127.3250250  21.3089190  14.8919170 127.7932250  19.8786300
  13.2104870 128.5566090  34.1961470  13.5461110 129.1432780  34.8739390
  12.2905210 128.4258800  34.4259260  14.8639220 125.9591750  22.3778710
  14.5760920 126.4204440  23.1656590  15.6591390 125.4989520  22.6462930
   9.0393450 128.6057420  37.3649530   8.7190320 127.8866660  37.9095220
   8.3651810 129.2812490  37.4385590   7.0807620 129.4517870  22.3082680
   7.0717720 130.1847560  21.6927190   6.1605980 129.2049450  22.4009640
   2.6814260 124.6732760  23.0529440   2.0742210 125.4131660  23.0624740
   3.1563610 124.7632120  22.2267640  12.2547050 118.8383580  32.7286330
  12.6227870 118.0178790  33.0565900  11.3945250 118.8985470  33.1441980
  15.6209080 117.7940520  23.5373890  14.9922240 117.8986190  22.8232120
  15.1261000 118.0137300  24.3267770  10.0667220 129.5146110  20.9707870
  10.1679200 129.3110100  20.0409850   9.1668960 129.2604390  21.1755650
   7.5893110 120.0726470  24.9531770   6.8809260 120.5412810  25.3945380
   7.8737590 119.4148480  25.5876960   9.2149040 121.4923170  32.9524300
   9.7134290 121.9668990  33.6176150   9.3571990 120.5686690  33.1594330
  11.6208540 116.7977130  26.3927560  11.4976320 116.8163260  25.4437070
  12.5693100 116.8456070  26.5125960   8.7085330 132.0332430  25.6655540
   8.9626830 131.9953820  24.7434910   7.7597810 131.9065760  25.6583790
   5.7928130 118.3811550  22.3282480   6.6418660 118.8181700  22.2622670
   5.4259400 118.6931810  23.1554540  16.4215900 117.7091130  33.7952690
  15.9189500 118.4496530  34.1346500  17.2372560 118.0975130  33.4789480
  14.7137910 122.9524310  27.2414050  13.7728050 122.9674540  27.4161740
  15.0281980 122.1660270  27.6874350   4.6919550 124.6343910  20.8018010
   5.4582820 124.5225270  21.3643440   4.7694240 123.9381880  20.1494780
   3.3866310 122.0668980  21.4850900   3.4669900 121.1196490  21.5968300
   4.2786060 122.3975860  21.5911560  16.7163490 130.1233160  28.9168310
  16.8410910 130.9464330  29.3892120  17.5829050 129.9123890  28.5692460
   4.1881020 132.2164370  28.5885440   4.9243500 131.6679830  28.8594010
   4.5721940 133.0820380  28.4491430   3.1939300 131.4010440  37.7771020
   3.9952030 131.7222490  38.1906420   2.6791120 131.0406020  38.4990930
   7.2983330 131.3894680  20.4111010   8.0911940 131.6783510  19.9592800
   6.7787680 130.9586850  19.7323490  12.0303930 127.5090310  37.7246430
  11.4242090 127.5321910  36.9842180  11.7258040 126.7773350  38.2613680
  13.4604300 131.2370600  36.3355840  14.4126050 131.1528620  36.2856080
  13.3132520 131.9012310  37.0089630  16.3513500 130.6164810  21.8347750
  16.0655010 130.2029950  21.0201930  16.1533050 131.5452520  21.7148270
   7.8160730 126.6098090  20.2753360   7.7111370 125.9950440  21.0014740
   7.6484950 126.0863980  19.4916370   7.9675050 125.2954890  36.2542590
   7.2020720 125.8639890  36.1697260   8.1491010 125.0031100  35.3610820
  11.0563460 125.6718120  20.8795350  10.5073560 126.1187420  21.5238090
  11.6782720 125.1667370  21.4033020  15.1098400 127.0260220  36.8117610
  15.8507870 127.3635980  36.3085070  14.3471080 127.1952280  36.2587380
   2.9460190 122.0313490  37.6157140   2.9865530 121.7327360  38.5242370
   3.8005690 122.4321100  37.4564660   6.7238580 124.6309040  22.7760650
   7.1455000 124.4648910  23.6192040   6.8489420 123.8209270  22.2815790
   4.8866000 120.6105590  35.5831630   4.3562460 120.1196540  34.9554970
   5.5554070 121.0389790  35.0489560   9.2366220 123.6546650  20.0237750
   9.7571880 122.9395670  19.6578900   9.8834620 124.2932520  20.3238260
  13.7844060 125.0775050  35.3472820  14.1985080 125.2320130  36.1963240
  12.8495060 125.2030270  35.5098600  14.2566230 122.4171210  37.3511970
  14.8387000 121.6623530  37.2632450  14.4328000 122.9478650  36.5743450
   5.3738300 117.5767960  35.6628920   5.2795170 116.9588710  34.9379790
   4.7935690 118.3034250  35.4358830   8.1399740 116.1341200  32.6956310
   7.6917040 116.1565460  31.8501860   7.5064940 115.7360220  33.2926610
   8.5459290 125.0295530  33.3168750   8.9647400 125.8728260  33.1444990
   7.6267920 125.1667570  33.0875530  10.8823190 122.7611710  34.7006590
  11.0019400 122.1652850  35.4401430  11.7417190 122.7981400  34.2807890
  13.2211090 123.3148900  33.2769100  12.6946310 123.8391520  32.6734240
  13.5642430 123.9476290  33.9078830   5.6197480 120.7042270  19.7218810
   5.4186540 119.8409630  20.0832150   5.4489530 120.6175630  18.7840410
   6.3966710 131.3348540  34.4326480   5.8587800 132.0594600  34.1135180
   6.6500670 130.8578880  33.6423820   7.6491960 119.3033060  35.9582410
   8.2391650 118.9948910  36.6460230   6.8312200 118.8312810  36.1142310
  12.4685390 118.9198870  36.1915430  11.7800910 118.2580410  36.1265420
  13.1891410 118.4737140  36.6363890  13.0985790 115.5150500  22.2505690
  13.3788080 114.6718400  22.6065110  12.3251520 115.7473610  22.7644440
   4.4180280 117.8042890  19.7096690   4.7206180 117.8110320  18.8015840
   5.1574870 117.4540750  20.2064350   9.2528920 132.5699750  34.6913130
   9.1787620 133.4734890  34.9985500   8.3507760 132.2511650  34.6635200
   7.6365210 116.7477510  20.6952890   7.2887210 116.0701500  20.1155340
   7.8377980 116.2867020  21.5096280   9.8014250 131.7358260  22.3139490
  10.6965040 132.0743230  22.3358250   9.8331880 131.0137670  21.6863770
   3.4410410 127.1085310  20.5426490   3.8785280 127.6514980  21.1984070
   3.9258140 126.2832260  20.5522830   5.2518130 128.2283350  25.6548720
   4.9513670 128.1048320  26.5552630   5.1455620 127.3691940  25.2464450
  16.7808600 130.2661930  35.0205690  16.1810590 130.3254490  34.2769610
  16.9102500 129.3266910  35.1502540  18.0210050 128.0079750  20.3575400
  17.1903010 128.0756400  20.8282630  18.1981880 128.8983870  20.0542260
  17.4766510 124.7527230  22.8609600  18.2385420 125.3223880  22.9669290
  17.4920880 124.1854430  23.6317910  18.4826480 125.6077330  27.7051530
  18.8535310 124.8244650  27.2987500  19.1228410 126.2966430  27.5268830
  15.4660240 126.9913910  33.1181850  14.6520080 127.4211070  33.3807640
  15.8734440 127.6032320  32.5050900  17.5285680 125.0461600  20.0182120
  17.8034520 125.9540480  19.8901340  17.3396420 124.9824130  20.9544110
  13.9261290 118.0706450  21.3135750  14.3446170 117.8837430  20.4732410
  13.6197350 117.2185500  21.6238680  17.4251020 122.9830590  25.0111550
  17.0494620 122.2158520  24.5792840  16.6954140 123.3653290  25.4986480
   2.0146780 123.6617730  31.6320600   2.3819820 123.5745130  32.5116620
   1.4457600 122.8984280  31.5327460  16.8150640 122.1302110  34.6451070
  16.5836730 121.9014860  33.7449020  17.0755190 123.0501660  34.5995960
  15.2538710 117.3558540  37.4230770  16.1308890 117.3641940  37.8064770
  15.2659550 116.6189380  36.8123120  16.7001980 121.2088080  28.3118790
  17.2239460 120.7150730  27.6808960  17.2861400 121.3438440  29.0566360
  16.8791700 121.2927950  31.8338340  15.9294410 121.2591490  31.9483330
  17.0604710 122.2028060  31.5988110   2.7336140 119.5429630  20.9436970
   3.4427840 119.1212850  20.4584250   2.0176080 119.6104860  20.3120320
   2.3810300 115.5968960  19.9839620   3.1038430 116.1377900  20.3020840
   2.6534820 115.3232380  19.1081160  16.1901950 120.4661430  24.2511200
  16.6861070 120.2332300  25.0360080  15.9918020 119.6273270  23.8348840
   2.0702490 114.8475150  29.8862240   2.7178680 114.2972530  29.4457400
   2.4904330 115.1018300  30.7078050  17.6189110 119.1022380  26.7848880
  17.5088390 118.9478420  27.7231150  18.3796700 118.5743320  26.5424290
  15.9654830 115.0416510  33.2431880  16.6027050 115.6550650  33.6091070
  16.1129720 115.0777170  32.2981110  18.5079380 116.9330300  20.0255020
  19.4328690 116.8011480  19.8173310  18.4855170 117.0123120  20.9791470
  18.5817870 117.7040960  22.6511730  17.7869370 117.6386080  23.1804640
  18.7861150 118.6391600  22.6397080  15.5236290 131.7432510  26.6450120
  16.1195360 131.4217080  25.9684540  15.7814440 131.2704330  27.4363390
   1.8234490 115.0030820  32.6287560   1.4749310 115.4594640  33.3945740
   1.4922190 114.1087950  32.7109990   3.4298860 128.1750420  36.7940750
   3.3868490 127.8043330  37.6755210   3.5609870 129.1127990  36.9342570
   7.1304890 129.7310010  32.3950470   6.8896250 129.9984570  31.5080990
   8.0707530 129.9015740  32.4501330   9.3359310 116.1942700  36.1506980
   9.2748200 116.7864530  36.9002390  10.2759690 116.0868660  36.0057240
  11.9733870 115.8512760  35.7899270  12.5874280 116.1692050  35.1280350
  12.5183430 115.3661350  36.4095130  18.3909050 131.7504390  33.1961110
  17.8967330 132.1473260  32.4788240  17.7822340 131.1253600  33.5898390
   2.4955130 114.5307020  35.9038330   3.0438120 114.3495070  35.1404440
   2.5610440 113.7401130  36.4394640   3.2686890 131.1212670  33.9138530
   2.6747210 130.9897370  34.6528570   3.2610730 130.2850810  33.4480630
  12.7141910 114.4144900  32.1168560  11.8401750 114.7480010  31.9141490
  12.6052660 113.9418080  32.9420430  13.6213890 116.6215770  33.5010280
  13.2927250 115.8067530  33.1212010  14.5696190 116.5785580  33.3775970
  16.0748500 132.3927810  30.4747850  15.6151470 133.1443620  30.1005870
  15.4460960 131.6734280  30.4162650   2.8999120 128.4871050  32.8646570
   2.1733180 127.8676340  32.7972520   2.9608270 128.8811660  31.9944650
   6.5044220 130.7016050  29.6495980   7.0209240 130.0903410  29.1244240
   7.1541600 131.2044830  30.1406990   9.2439720 131.5924540  30.4764960
   9.5317530 131.3378840  29.5997970   9.7562940 131.0401900  31.0670530
  10.4616730 115.3314740  31.0561470   9.6788520 115.8060240  31.3358230
  10.1679660 114.4269570  30.9474650  15.0137800 116.0337840  29.1010560
  15.4545890 115.9782940  28.2532160  14.7445390 116.9495850  29.1720740
  16.8776370 115.6653080  27.1119380  16.8164770 114.7214300  26.9650400
  17.6568400 115.7733170  27.6572840   1.8057140 115.6362220  23.5775190
   2.5636500 115.7491100  23.0039220   1.3434310 116.4731420  23.5318620
   8.3470950 117.7501490  26.5677500   7.5345460 117.3758380  26.2273380
   8.8512590 116.9946570  26.8698690  12.8495930 114.4143940  27.8060570
  13.4525300 114.9864150  28.2809090  12.1088920 114.9783380  27.5834470
  15.9930530 114.8165500  23.0800850  16.1881160 115.7148950  23.3468280
  15.2060400 114.5852580  23.5733800   2.7891820 130.4978670  23.5193470
   2.2639440 130.8786700  22.8155430   2.7136400 131.1229440  24.2403180
   4.1782290 116.1626270  22.1177160   4.7075050 115.3756070  21.9885110
   4.8110610 116.8417460  22.3512690   6.3720130 115.9001410  25.1722550
   5.7422870 115.1988720  25.3392680   5.8325270 116.6605540  24.9555710
   9.3112080 132.5140640  37.8433160  10.2379390 132.2784910  37.8869120
   9.2962510 133.3412640  37.3619190  17.5457140 132.0566210  24.8407410
  17.7209330 131.3703950  24.1968330  16.8478710 132.5813260  24.4484080
   6.4975690 115.1785390  37.6075040   6.2159960 115.6818990  36.8435860
   6.8795390 114.3807140  37.2417170   5.3884790 132.4461050  22.3942720
   6.1203610 132.1620330  21.8466610   5.6478460 132.2074330  23.2842100
   4.5499580 128.5625780  22.3989050   3.9208460 129.0310880  22.9474880
   4.6647410 127.7175000  22.8335240  13.0991150 114.5938970  38.1855510
  12.9856600 114.9133580  39.0807030  13.9160890 114.9951480  37.8892790
  15.8789640 131.7410500  37.6674200  16.6714960 131.2459730  37.4600160
  16.1722790 132.4200640  38.2749810  12.0049300 122.6131440   8.5490250
  11.9243350 121.6986050   8.2781960  11.5913720 123.1098510   7.8429960
  10.1367340 124.3910460  10.4299520   9.3609440 123.9110900  10.7198090
  10.7880270 123.7116110  10.2555680   4.1533170 124.7030270  11.3075280
   3.3218050 124.4478980  11.7071790   4.7614150 124.7741040  12.0433200
  14.1574770 128.7970650   9.2098650  13.6956300 128.0257890   9.5385820
  14.9700320 128.8236720   9.7151100   4.1334430 128.7370360  11.5033300
   4.4362470 127.8468100  11.3243520   4.8778020 129.2940580  11.2755550
   2.5625120 119.6632160   5.0917670   1.6741820 120.0048130   4.9897550
   2.8466310 119.4632480   4.1998500  10.3838080 131.0828660   8.8302640
   9.7649520 131.5386160   8.2597080  11.2389860 131.2380120   8.4292340
   9.5776330 127.0667650  10.4369680   9.5084610 126.1257590  10.2758810
  10.3396190 127.1569060  11.0092250   1.7683000 117.6722170  12.7626300
   1.5885840 116.7747920  13.0429060   1.3663080 118.2194040  13.4373250
  10.6081500 119.8738030  10.6638610  10.9846320 119.0009910  10.5512280
  10.5101010 120.2096730   9.7729050   4.7386510 118.2463660   6.1256050
   4.8453260 119.1467390   6.4324810   3.8278870 118.1981630   5.8350700
  14.3905620 117.3688470   7.5966950  15.2115240 116.8785040   7.6392430
  14.4239700 117.9586130   8.3498790   2.3869670 120.1682670  11.3708640
   3.0679780 120.4321040  11.9896040   2.0717720 119.3283540  11.7046650
   6.5794240 121.2150030  10.4581230   7.0872460 121.7131000  11.0986250
   7.1107480 120.4385230  10.2820590  18.6805170 119.3855220  14.1610580
  17.9757340 119.7736930  13.6425690  18.9463090 120.0805510  14.7631510
   4.8630340 115.8548590  14.7244650   4.8648780 116.3720980  13.9190550
   4.0334650 115.3778770  14.7014580  11.2501430 125.9667900   6.2234550
  10.6318700 126.4317350   5.6597270  11.7624680 126.6595380   6.6404060
   6.1133190 125.4943770  12.9018150   5.7802570 126.1212690  13.5439220
   6.2899870 126.0205650  12.1219820  14.6267100 119.3088850  10.3694490
  13.9222670 119.5973740  10.9497600  14.9879260 120.1188960  10.0094050
   4.5445670 117.5658550  12.7315100   4.8862480 118.4100600  12.4368970
   3.6061480 117.7142290  12.8480440   5.3252290 127.4624570  14.7167330
   5.9426290 128.1375650  14.4351780   4.4645410 127.8712550  14.6254830
  16.2429880 128.9263980  12.6321970  15.5593400 129.5963090  12.6238640
  16.7824170 129.1244630  11.8666830  17.6954020 118.7543640  10.7603700
  16.7478930 118.7882620  10.8919130  18.0204010 119.5682590  11.1453060
   8.2273560 115.0540820   9.0559690   8.5348540 114.4987710   8.3395190
   7.2974260 115.1885280   8.8732680  13.7788620 130.7708110  11.3467150
  13.7915780 130.3670400  10.4789410  13.2263840 131.5455400  11.2428580
  15.0734040 127.4924330   6.4357320  14.9630370 126.5498660   6.5606740
  15.0702290 127.8539970   7.3220080  13.1774060 125.6737950  12.6749760
  13.5942850 125.4598060  11.8403220  13.9013880 125.9310740  13.2458380
  10.6154320 123.1189650   5.7919810   9.6883600 123.0527030   6.0208280
  10.7679140 124.0569780   5.6775050  10.6023400 119.3906650   2.7886970
   9.6627070 119.5520610   2.8739430  10.9206660 120.1092330   2.2422960
  17.1236160 124.0725170  12.7666000  16.2954790 124.1418260  12.2916130
  17.7186640 124.6579480  12.2981830  14.6451610 124.6809950   6.2955060
  14.0264030 124.3429500   5.6481360  14.6276060 124.0369710   7.0034250
  14.0878170 120.8594490  13.7120870  13.6749350 121.6848200  13.9660860
  13.3554120 120.2739530  13.5197230   6.2210960 123.6454390   8.5739540
   5.8167960 122.9331640   8.0785440   6.3074080 123.3007630   9.4627580
   6.6892660 127.3321950  10.7378750   6.3920950 126.7267420  10.0586530
   7.6392480 127.3699260  10.6268110   4.9339580 120.4197600  12.3538580
   5.4854170 120.5292940  11.5791830   5.4483090 120.7935200  13.0693810
  14.7778270 130.9053820  14.4001850  14.3008830 131.7126010  14.2074460
  14.0940060 130.2532150  14.5528060   5.7811090 127.0703640  17.3886550
   4.8839620 127.2943610  17.6359950   5.8063960 127.1938580  16.4397950
  12.8216310 123.9196760   3.3027810  13.2609590 123.0819190   3.1565630
  13.5344730 124.5526160   3.3891950   4.6082310 123.9416960  15.9643920
   4.4690080 124.8139760  16.3331320   3.7263670 123.5989770  15.8191860
  10.9311690 128.8592830   7.2709050  11.3707600 129.6017160   6.8564440
  10.8698580 129.1019400   8.1948010   6.4062660 129.8838660  18.1729070
   6.3778090 130.2881610  17.3057500   6.2427630 128.9549020  18.0100670
   2.9215590 122.5399370   6.0746190   2.8013190 123.2661460   5.4627460
   2.6116480 121.7702280   5.5974100  18.3577480 130.6665760  19.4693240
  18.8337200 131.1448650  20.1482320  18.9784640 130.5983250  18.7438740
   1.8048590 127.4114700   8.2921010   1.3976670 127.5529290   7.4374610
   2.6961600 127.1274860   8.0892220  17.7610730 127.8578610  16.6293250
  17.8873790 127.6190490  15.7110430  17.8032110 127.0263150  17.1015330
  11.6227470 131.5606610  15.1988060  12.1372140 131.4714620  16.0010490
  10.7796550 131.9066310  15.4915970  13.5981870 131.8461950   4.6272060
  13.4383010 131.5564890   5.5253890  13.4328580 131.0702080   4.0917290
   6.0770250 131.6260480   6.4043680   5.9012730 130.7096020   6.1911480
   5.2225990 131.9847770   6.6441480  13.3008000 129.3549510   3.1870060
  12.6073160 129.3526800   2.5272340  14.0430860 128.9308830   2.7564230
  12.8657930 130.9812220   7.2618550  13.3214880 130.2001600   7.5757170
  13.2050450 131.6919040   7.8059730  17.6134740 119.9111070  17.5942990
  16.9979010 120.4190740  17.0658450  17.2931160 119.0109400  17.5368930
   5.3879250 115.8834440   9.4569860   4.9447400 116.6643980   9.1254380
   5.9464240 116.2064330  10.1640800   9.6749060 118.7502960  15.0605180
   9.2128430 118.9585980  15.8725120   9.2727170 117.9362310  14.7575850
  14.6753570 119.9711910  16.1901840  13.8247160 119.6717660  16.5110910
  14.5155360 120.2153920  15.2785660  11.7703280 121.4713660  18.2900630
  12.0956690 120.6377410  17.9502860  12.5583610 121.9942180  18.4378960
   8.5038070 115.5045140   4.3375690   7.8792250 115.5005010   5.0629000
   8.4168190 114.6376100   3.9411660   7.4255150 116.4281770  11.3159460
   7.7227480 117.3344600  11.2351480   7.9740710 115.9400550  10.7019030
   5.1793470 121.0068010   7.1851110   4.9534390 120.7905180   8.0897730
   4.3986000 121.4396470   6.8397080  12.4091230 121.0131380   5.7841760
  11.8100120 121.7367180   5.6005380  12.9570840 120.9508160   5.0018210
   7.6192680 121.9053590  17.8511380   7.5236280 120.9648320  17.7011780
   8.4624660 122.1268660  17.4559450  11.0156100 119.6494920   7.8145040
  11.4085670 119.9667120   7.0013730  11.3772950 118.7706800   7.9289560
   2.7503220 118.3167260  16.0045160   2.3566610 119.1642470  16.2117940
   2.0621620 117.6793630  16.1953800   9.3248270 118.4002230  19.0741900
   8.6346590 118.2074430  19.7087990  10.0680570 118.6836870  19.6066200
  11.6011240 122.2400670  11.9095820  10.8692360 122.7487480  12.2585920
  11.2035580 121.4230650  11.6084600   8.0388630 118.9154870  10.3148310
   8.0424690 118.4744820   9.4652850   8.9339750 119.2372200  10.4220130
   3.8891010 118.7981360   9.2742520   3.5491060 119.2756590  10.0309570
   3.1268330 118.3446480   8.9143620   8.1008780 119.9166950   3.3055070
   8.2221600 119.8753430   4.2540890   7.7157290 120.7791100   3.1501800
  12.0637150 117.6934350  11.3218760  12.0809890 118.1443000  12.1660610
  11.8152730 116.7939990  11.5352200   7.1130280 122.2268090   2.7038370
   6.5447180 121.7786340   2.0774280   7.8219280 122.5860870   2.1703520
  15.4907900 115.1066530  17.1605140  15.8153670 114.3756190  17.6863120
  15.5264410 114.7880170  16.2586130   2.1899460 126.1280110  16.5805100
   1.8054250 125.4873780  17.1788060   2.5011650 126.8316230  17.1499830
   8.3396600 122.9756650  12.0613720   8.7066730 122.5015220  12.8075060
   8.1501660 123.8498220  12.4022060   6.1295970 122.0165290  14.3797930
   5.8253040 122.8957270  14.6048290   7.0842430 122.0765080  14.4155370
   4.6577760 126.2226280   4.9764780   3.8840020 125.6823900   4.8163500
   5.3872390 125.7032890   4.6382540  15.4165740 125.2191640  10.7691170
  16.1364860 125.7146930  10.3787280  15.2147560 124.5409530  10.1245040
  10.8775680 116.6129600   4.9120560  10.0640290 116.1142770   4.8365870
  10.6837630 117.4527850   4.4956910  10.7984540 125.2900700  16.6560170
  10.7321850 124.3696370  16.4017760  10.1689680 125.3876140  17.3704810
  13.5924070 120.9849250   3.2082720  14.4803690 121.2966480   3.0334060
  13.5629160 120.1121500   2.8163300   4.7015160 125.8906660   8.6143590
   5.2193830 125.0874920   8.5600480   4.2499180 125.8285800   9.4560420
   9.5884660 127.1572940   3.8870890   9.9300360 127.9015170   3.3914210
   8.7597370 127.4704060   4.2495720   2.1859700 122.8568030  15.5269290
   1.8274640 123.5221880  16.1142630   1.8914260 122.0251580  15.8981910
   5.3872820 123.3152270  18.4108840   5.0872960 123.4609450  17.5136660
   6.1584060 122.7557560  18.3182230  10.7301270 128.1121270  16.4063970
  10.7445810 127.1802230  16.1882880  10.0226370 128.1981030  17.0453740
  15.8638340 122.2961090   2.6762580  15.7802060 122.7275310   1.8259020
  16.5832530 122.7559440   3.1089400  16.9412480 124.7528610  15.7532550
  16.2160670 125.3457390  15.5561940  17.4687940 124.7452150  14.9545920
  16.8925590 129.1503350   5.4044710  16.2501750 128.4958970   5.6788430
  16.5056250 129.5558440   4.6285380  12.4712070 126.4788780   9.2516400
  12.8235890 125.8816910   8.5917770  11.5874400 126.1533010   9.4224650
   8.5575350 127.2386470   6.6586810   9.2446480 127.7855680   7.0394400
   7.7707770 127.7827200   6.6936420   7.8602560 124.2432500   6.2712170
   8.3165340 125.0537750   6.4972360   7.5090770 123.9255640   7.1030660
  10.1635170 129.7538840  13.5004470  10.8077390 129.9598220  14.1777890
  10.5264610 128.9927240  13.0475320   3.7614340 114.5870150   6.7434690
   3.6328970 114.5788050   7.6919610   2.9376360 114.9253240   6.3925700
  11.4367250 127.7571190  12.2181920  12.0789480 127.0564350  12.3314090
  11.9616600 128.5369630  12.0378810  13.2104870 128.5566090  15.4217980
  13.5461110 129.1432780  16.0995900  12.2905210 128.4258800  15.6515770
  14.8639220 125.9591750   3.6035220  14.5760920 126.4204440   4.3913100
  15.6591390 125.4989520   3.8719440   9.0393450 128.6057420  18.5906040
   8.7190320 127.8866660  19.1351730   8.3651810 129.2812490  18.6642100
   7.0807620 129.4517870   3.5339190   7.0717720 130.1847560   2.9183700
   6.1605980 129.2049450   3.6266150   2.6814260 124.6732760   4.2785950
   2.0742210 125.4131660   4.2881250   3.1563610 124.7632120   3.4524150
  12.2547050 118.8383580  13.9542840  12.6227870 118.0178790  14.2822410
  11.3945250 118.8985470  14.3698490  15.6209080 117.7940520   4.7630400
  14.9922240 117.8986190   4.0488630  15.1261000 118.0137300   5.5524280
   7.5893110 120.0726470   6.1788280   6.8809260 120.5412810   6.6201890
   7.8737590 119.4148480   6.8133470   9.2149040 121.4923170  14.1780810
   9.7134290 121.9668990  14.8432660   9.3571990 120.5686690  14.3850840
  11.6208540 116.7977130   7.6184070  11.4976320 116.8163260   6.6693580
  12.5693100 116.8456070   7.7382470   8.7085330 132.0332430   6.8912050
   8.9626830 131.9953820   5.9691420   7.7597810 131.9065760   6.8840300
   5.7928130 118.3811550   3.5538990   6.6418660 118.8181700   3.4879180
   5.4259400 118.6931810   4.3811050  16.4215900 117.7091130  15.0209200
  15.9189500 118.4496530  15.3603010  17.2372560 118.0975130  14.7045990
  14.7137910 122.9524310   8.4670560  13.7728050 122.9674540   8.6418250
  15.0281980 122.1660270   8.9130860   3.3866310 122.0668980   2.7107410
   3.4669900 121.1196490   2.8224810   4.2786060 122.3975860   2.8168070
  16.7163490 130.1233160  10.1424820  16.8410910 130.9464330  10.6148630
  17.5829050 129.9123890   9.7948970   4.1881020 132.2164370   9.8141950
   4.9243500 131.6679830  10.0850520   4.5721940 133.0820380   9.6747940
   3.1939300 131.4010440  19.0027530   3.9952030 131.7222490  19.4162930
   2.6791120 131.0406020  19.7247440  12.0303930 127.5090310  18.9502940
  11.4242090 127.5321910  18.2098690  11.7258040 126.7773350  19.4870190
  13.4604300 131.2370600  17.5612350  14.4126050 131.1528620  17.5112590
  13.3132520 131.9012310  18.2346140  16.3513500 130.6164810   3.0604260
  16.0655010 130.2029950   2.2458440  16.1533050 131.5452520   2.9404780
   7.9675050 125.2954890  17.4799100   7.2020720 125.8639890  17.3953770
   8.1491010 125.0031100  16.5867330  11.0563460 125.6718120   2.1051860
  10.5073560 126.1187420   2.7494600  11.6782720 125.1667370   2.6289530
  15.1098400 127.0260220  18.0374120  15.8507870 127.3635980  17.5341580
  14.3471080 127.1952280  17.4843890   2.9460190 122.0313490  18.8413650
   2.9865530 121.7327360  19.7498880   3.8005690 122.4321100  18.6821170
   6.7238580 124.6309040   4.0017160   7.1455000 124.4648910   4.8448550
   6.8489420 123.8209270   3.5072300   4.8866000 120.6105590  16.8088140
   4.3562460 120.1196540  16.1811480   5.5554070 121.0389790  16.2746070
  13.7844060 125.0775050  16.5729330  14.1985080 125.2320130  17.4219750
  12.8495060 125.2030270  16.7355110  14.2566230 122.4171210  18.5768480
  14.8387000 121.6623530  18.4888960  14.4328000 122.9478650  17.7999960
   5.3738300 117.5767960  16.8885430   5.2795170 116.9588710  16.1636300
   4.7935690 118.3034250  16.6615340   8.1399740 116.1341200  13.9212820
   7.6917040 116.1565460  13.0758370   7.5064940 115.7360220  14.5183120
   8.5459290 125.0295530  14.5425260   8.9647400 125.8728260  14.3701500
   7.6267920 125.1667570  14.3132040  10.8823190 122.7611710  15.9263100
  11.0019400 122.1652850  16.6657940  11.7417190 122.7981400  15.5064400
  13.2211090 123.3148900  14.5025610  12.6946310 123.8391520  13.8990750
  13.5642430 123.9476290  15.1335340   6.3966710 131.3348540  15.6582990
   5.8587800 132.0594600  15.3391690   6.6500670 130.8578880  14.8680330
   7.6491960 119.3033060  17.1838920   8.2391650 118.9948910  17.8716740
   6.8312200 118.8312810  17.3398820  12.4685390 118.9198870  17.4171940
  11.7800910 118.2580410  17.3521930  13.1891410 118.4737140  17.8620400
  13.0985790 115.5150500   3.4762200  13.3788080 114.6718400   3.8321620
  12.3251520 115.7473610   3.9900950   9.2528920 132.5699750  15.9169640
   9.1787620 133.4734890  16.2242010   8.3507760 132.2511650  15.8891710
   9.8014250 131.7358260   3.5396000  10.6965040 132.0743230   3.5614760
   9.8331880 131.0137670   2.9120280   3.4410410 127.1085310   1.7683000
   3.8785280 127.6514980   2.4240580   3.9258140 126.2832260   1.7779340
   5.2518130 128.2283350   6.8805230   4.9513670 128.1048320   7.7809140
   5.1455620 127.3691940   6.4720960  16.7808600 130.2661930  16.2462200
  16.1810590 130.3254490  15.5026120  16.9102500 129.3266910  16.3759050
  17.4766510 124.7527230   4.0866110  18.2385420 125.3223880   4.1925800
  17.4920880 124.1854430   4.8574420  18.4826480 125.6077330   8.9308040
  18.8535310 124.8244650   8.5244010  19.1228410 126.2966430   8.7525340
  15.4660240 126.9913910  14.3438360  14.6520080 127.4211070  14.6064150
  15.8734440 127.6032320  13.7307410  13.9261290 118.0706450   2.5392260
  14.3446170 117.8837430   1.6988920  13.6197350 117.2185500   2.8495190
  17.4251020 122.9830590   6.2368060  17.0494620 122.2158520   5.8049350
  16.6954140 123.3653290   6.7242990   2.0146780 123.6617730  12.8577110
   2.3819820 123.5745130  13.7373130   1.4457600 122.8984280  12.7583970
  16.8150640 122.1302110  15.8707580  16.5836730 121.9014860  14.9705530
  17.0755190 123.0501660  15.8252470  15.2538710 117.3558540  18.6487280
  16.1308890 117.3641940  19.0321280  15.2659550 116.6189380  18.0379630
  16.7001980 121.2088080   9.5375300  17.2239460 120.7150730   8.9065470
  17.2861400 121.3438440  10.2822870  16.8791700 121.2927950  13.0594850
  15.9294410 121.2591490  13.1739840  17.0604710 122.2028060  12.8244620
  16.1901950 120.4661430   5.4767710  16.6861070 120.2332300   6.2616590
  15.9918020 119.6273270   5.0605350   2.0702490 114.8475150  11.1118750
   2.7178680 114.2972530  10.6713910   2.4904330 115.1018300  11.9334560
  17.6189110 119.1022380   8.0105390  17.5088390 118.9478420   8.9487660
  18.3796700 118.5743320   7.7680800  15.9654830 115.0416510  14.4688390
  16.6027050 115.6550650  14.8347580  16.1129720 115.0777170  13.5237620
  18.5817870 117.7040960   3.8768240  17.7869370 117.6386080   4.4061150
  18.7861150 118.6391600   3.8653590  15.5236290 131.7432510   7.8706630
  16.1195360 131.4217080   7.1941050  15.7814440 131.2704330   8.6619900
   1.8234490 115.0030820  13.8544070   1.4749310 115.4594640  14.6202250
   1.4922190 114.1087950  13.9366500   3.4298860 128.1750420  18.0197260
   3.3868490 127.8043330  18.9011720   3.5609870 129.1127990  18.1599080
   7.1304890 129.7310010  13.6206980   6.8896250 129.9984570  12.7337500
   8.0707530 129.9015740  13.6757840   9.3359310 116.1942700  17.3763490
   9.2748200 116.7864530  18.1258900  10.2759690 116.0868660  17.2313750
  11.9733870 115.8512760  17.0155780  12.5874280 116.1692050  16.3536860
  12.5183430 115.3661350  17.6351640  18.3909050 131.7504390  14.4217620
  17.8967330 132.1473260  13.7044750  17.7822340 131.1253600  14.8154900
   2.4955130 114.5307020  17.1294840   3.0438120 114.3495070  16.3660950
   2.5610440 113.7401130  17.6651150   3.2686890 131.1212670  15.1395040
   2.6747210 130.9897370  15.8785080   3.2610730 130.2850810  14.6737140
  12.7141910 114.4144900  13.3425070  11.8401750 114.7480010  13.1398000
  12.6052660 113.9418080  14.1676940  13.6213890 116.6215770  14.7266790
  13.2927250 115.8067530  14.3468520  14.5696190 116.5785580  14.6032480
  16.0748500 132.3927810  11.7004360  15.6151470 133.1443620  11.3262380
  15.4460960 131.6734280  11.6419160   2.8999120 128.4871050  14.0903080
   2.1733180 127.8676340  14.0229030   2.9608270 128.8811660  13.2201160
   6.5044220 130.7016050  10.8752490   7.0209240 130.0903410  10.3500750
   7.1541600 131.2044830  11.3663500   9.2439720 131.5924540  11.7021470
   9.5317530 131.3378840  10.8254480   9.7562940 131.0401900  12.2927040
  10.4616730 115.3314740  12.2817980   9.6788520 115.8060240  12.5614740
  10.1679660 114.4269570  12.1731160  15.0137800 116.0337840  10.3267070
  15.4545890 115.9782940   9.4788670  14.7445390 116.9495850  10.3977250
  16.8776370 115.6653080   8.3375890  16.8164770 114.7214300   8.1906910
  17.6568400 115.7733170   8.8829350   1.8057140 115.6362220   4.8031700
   2.5636500 115.7491100   4.2295730   1.3434310 116.4731420   4.7575130
   8.3470950 117.7501490   7.7934010   7.5345460 117.3758380   7.4529890
   8.8512590 116.9946570   8.0955200  12.8495930 114.4143940   9.0317080
  13.4525300 114.9864150   9.5065600  12.1088920 114.9783380   8.8090980
  15.9930530 114.8165500   4.3057360  16.1881160 115.7148950   4.5724790
  15.2060400 114.5852580   4.7990310   2.7891820 130.4978670   4.7449980
   2.2639440 130.8786700   4.0411940   2.7136400 131.1229440   5.4659690
   4.1782290 116.1626270   3.3433670   4.7075050 115.3756070   3.2141620
   4.8110610 116.8417460   3.5769200   6.3720130 115.9001410   6.3979060
   5.7422870 115.1988720   6.5649190   5.8325270 116.6605540   6.1812220
   9.3112080 132.5140640  19.0689670  10.2379390 132.2784910  19.1125630
   9.2962510 133.3412640  18.5875700  17.5457140 132.0566210   6.0663920
  17.7209330 131.3703950   5.4224840  16.8478710 132.5813260   5.6740590
   6.4975690 115.1785390  18.8331550   6.2159960 115.6818990  18.0692370
   6.8795390 114.3807140  18.4673680   5.3884790 132.4461050   3.6199230
   6.1203610 132.1620330   3.0723120   5.6478460 132.2074330   4.5098610
   4.5499580 128.5625780   3.6245560   3.9208460 129.0310880   4.1731390
   4.6647410 127.7175000   4.0591750  13.0991150 114.5938970  19.4112020
  12.9856600 114.9133580  20.3063540  13.9160890 114.9951480  19.1149300
  15.8789640 131.7410500  18.8930710  16.6714960 131.2459730  18.6856670
  16.1722790 132.4200640  19.5006320  12.0049300 103.8387950 139.9694680
  11.9243350 102.9242560 139.6986390  11.5913720 104.3355020 139.2634390
  10.1367340 105.6166970 141.8503950   9.3609440 105.1367410 142.1402520
  10.7880270 104.9372620 141.6760110   4.1533170 105.9286780 142.7279710
   3.3218050 105.6735490 143.1276220   4.7614150 105.9997550 143.4637630
  14.1574770 110.0227160 140.6303080  13.6956300 109.2514400 140.9590250
  14.9700320 110.0493230 141.1355530   4.1334430 109.9626870 142.9237730
   4.4362470 109.0724610 142.7447950   4.8778020 110.5197090 142.6959980
   2.5625120 100.8888670 136.5122100   1.6741820 101.2304640 136.4101980
   2.8466310 100.6888990 135.6202930  10.3838080 112.3085170 140.2507070
   9.7649520 112.7642670 139.6801510  11.2389860 112.4636630 139.8496770
   9.5776330 108.2924160 141.8574110   9.5084610 107.3514100 141.6963240
  10.3396190 108.3825570 142.4296680   1.7683000  98.8978680 144.1830730
   1.5885840  98.0004430 144.4633490   1.3663080  99.4450550 144.8577680
  10.6081500 101.0994540 142.0843040  10.9846320 100.2266420 141.9716710
  10.5101010 101.4353240 141.1933480   4.7386510  99.4720170 137.5460480
   4.8453260 100.3723900 137.8529240   3.8278870  99.4238140 137.2555130
  14.3905620  98.5944980 139.0171380  15.2115240  98.1041550 139.0596860
  14.4239700  99.1842640 139.7703220   2.3869670 101.3939180 142.7913070
   3.0679780 101.6577550 143.4100470   2.0717720 100.5540050 143.1251080
   6.5794240 102.4406540 141.8785660   7.0872460 102.9387510 142.5190680
   7.1107480 101.6641740 141.7025020  18.6805170 100.6111730 145.5815010
  17.9757340 100.9993440 145.0630120  18.9463090 101.3062020 146.1835940
   4.8630340  97.0805100 146.1449080   4.8648780  97.5977490 145.3394980
   4.0334650  96.6035280 146.1219010  11.2501430 107.1924410 137.6438980
  10.6318700 107.6573860 137.0801700  11.7624680 107.8851890 138.0608490
   6.1133190 106.7200280 144.3222580   5.7802570 107.3469200 144.9643650
   6.2899870 107.2462160 143.5424250  14.6267100 100.5345360 141.7898920
  13.9222670 100.8230250 142.3702030  14.9879260 101.3445470 141.4298480
   4.5445670  98.7915060 144.1519530   4.8862480  99.6357110 143.8573400
   3.6061480  98.9398800 144.2684870   5.3252290 108.6881080 146.1371760
   5.9426290 109.3632160 145.8556210   4.4645410 109.0969060 146.0459260
  16.2429880 110.1520490 144.0526400  15.5593400 110.8219600 144.0443070
  16.7824170 110.3501140 143.2871260  17.6954020  99.9800150 142.1808130
  16.7478930 100.0139130 142.3123560  18.0204010 100.7939100 142.5657490
   8.2273560  96.2797330 140.4764120   8.5348540  95.7244220 139.7599620
   7.2974260  96.4141790 140.2937110  13.7788620 111.9964620 142.7671580
  13.7915780 111.5926910 141.8993840  13.2263840 112.7711910 142.6633010
  15.0734040 108.7180840 137.8561750  14.9630370 107.7755170 137.9811170
  15.0702290 109.0796480 138.7424510  13.1774060 106.8994460 144.0954190
  13.5942850 106.6854570 143.2607650  13.9013880 107.1567250 144.6662810
  10.6154320 104.3446160 137.2124240   9.6883600 104.2783540 137.4412710
  10.7679140 105.2826290 137.0979480  10.6023400 100.6163160 134.2091400
   9.6627070 100.7777120 134.2943860  10.9206660 101.3348840 133.6627390
  17.1236160 105.2981680 144.1870430  16.2954790 105.3674770 143.7120560
  17.7186640 105.8835990 143.7186260  14.6451610 105.9066460 137.7159490
  14.0264030 105.5686010 137.0685790  14.6276060 105.2626220 138.4238680
  14.0878170 102.0851000 145.1325300  13.6749350 102.9104710 145.3865290
  13.3554120 101.4996040 144.9401660   6.2210960 104.8710900 139.9943970
   5.8167960 104.1588150 139.4989870   6.3074080 104.5264140 140.8832010
   6.6892660 108.5578460 142.1583180   6.3920950 107.9523930 141.4790960
   7.6392480 108.5955770 142.0472540   4.9339580 101.6454110 143.7743010
   5.4854170 101.7549450 142.9996260   5.4483090 102.0191710 144.4898240
  14.7778270 112.1310330 145.8206280  14.3008830 112.9382520 145.6278890
  14.0940060 111.4788660 145.9732490   5.7811090 108.2960150 148.8090980
   4.8839620 108.5200120 149.0564380   5.8063960 108.4195090 147.8602380
  12.8216310 105.1453270 134.7232240  13.2609590 104.3075700 134.5770060
  13.5344730 105.7782670 134.8096380   4.6082310 105.1673470 147.3848350
   4.4690080 106.0396270 147.7535750   3.7263670 104.8246280 147.2396290
  10.9311690 110.0849340 138.6913480  11.3707600 110.8273670 138.2768870
  10.8698580 110.3275910 139.6152440   6.4062660 111.1095170 149.5933500
   6.3778090 111.5138120 148.7261930   6.2427630 110.1805530 149.4305100
  16.4033450  96.3996080 133.0373280  16.0906110  96.4922910 133.9372350
  17.1645920  96.9777110 132.9870710   2.9215590 103.7655880 137.4950620
   2.8013190 104.4917970 136.8831890   2.6116480 102.9958790 137.0178530
   1.8048590 108.6371210 139.7125440   1.3976670 108.7785800 138.8579040
   2.6961600 108.3531370 139.5096650  17.7610730 109.0835120 148.0497680
  17.8873790 108.8447000 147.1314860  17.8032110 108.2519660 148.5219760
  11.6227470 112.7863120 146.6192490  12.1372140 112.6971130 147.4214920
  10.7796550 113.1322820 146.9120400  13.5981870 113.0718460 136.0476490
  13.4383010 112.7821400 136.9458320  13.4328580 112.2958590 135.5121720
   6.0770250 112.8516990 137.8248110   5.9012730 111.9352530 137.6115910
   5.2225990 113.2104280 138.0645910  13.3008000 110.5806020 134.6074490
  12.6073160 110.5783310 133.9476770  14.0430860 110.1565340 134.1768660
  12.8657930 112.2068730 138.6822980  13.3214880 111.4258110 138.9961600
  13.2050450 112.9175550 139.2264160  17.6134740 101.1367580 149.0147420
  16.9979010 101.6447250 148.4862880  17.2931160 100.2365910 148.9573360
   5.3879250  97.1090950 140.8774290   4.9447400  97.8900490 140.5458810
   5.9464240  97.4320840 141.5845230   9.6749060  99.9759470 146.4809610
   9.2128430 100.1842490 147.2929550   9.2727170  99.1618820 146.1780280
  14.6753570 101.1968420 147.6106270  13.8247160 100.8974170 147.9315340
  14.5155360 101.4410430 146.6990090  11.7703280 102.6970170 149.7105060
  12.0956690 101.8633920 149.3707290  12.5583610 103.2198690 149.8583390
   8.5038070  96.7301650 135.7580120   7.8792250  96.7261520 136.4833430
   8.4168190  95.8632610 135.3616090   7.4255150  97.6538280 142.7363890
   7.7227480  98.5601110 142.6555910   7.9740710  97.1657060 142.1223460
   5.1793470 102.2324520 138.6055540   4.9534390 102.0161690 139.5102160
   4.3986000 102.6652980 138.2601510  12.4091230 102.2387890 137.2046190
  11.8100120 102.9623690 137.0209810  12.9570840 102.1764670 136.4222640
   7.6192680 103.1310100 149.2715810   7.5236280 102.1904830 149.1216210
   8.4624660 103.3525170 148.8763880  11.0156100 100.8751430 139.2349470
  11.4085670 101.1923630 138.4218160  11.3772950  99.9963310 139.3493990
   2.7503220  99.5423770 147.4249590   2.3566610 100.3898980 147.6322370
   2.0621620  98.9050140 147.6158230  11.6011240 103.4657180 143.3300250
  10.8692360 103.9743990 143.6790350  11.2035580 102.6487160 143.0289030
   8.0388630 100.1411380 141.7352740   8.0424690  99.7001330 140.8857280
   8.9339750 100.4628710 141.8424560   3.8891010 100.0237870 140.6946950
   3.5491060 100.5013100 141.4514000   3.1268330  99.5702990 140.3348050
   8.1008780 101.1423460 134.7259500   8.2221600 101.1009940 135.6745320
   7.7157290 102.0047610 134.5706230  12.0637150  98.9190860 142.7423190
  12.0809890  99.3699510 143.5865040  11.8152730  98.0196500 142.9556630
   7.1130280 103.4524600 134.1242800   6.5447180 103.0042850 133.4978710
   7.8219280 103.8117380 133.5907950  15.4907900  96.3323040 148.5809570
  15.8153670  95.6012700 149.1067550  15.5264410  96.0136680 147.6790560
   2.1899460 107.3536620 148.0009530   1.8054250 106.7130290 148.5992490
   2.5011650 108.0572740 148.5704260   8.3396600 104.2013160 143.4818150
   8.7066730 103.7271730 144.2279490   8.1501660 105.0754730 143.8226490
   6.1295970 103.2421800 145.8002360   5.8253040 104.1213780 146.0252720
   7.0842430 103.3021590 145.8359800   4.6577760 107.4482790 136.3969210
   3.8840020 106.9080410 136.2367930   5.3872390 106.9289400 136.0586970
  15.4165740 106.4448150 142.1895600  16.1364860 106.9403440 141.7991710
  15.2147560 105.7666040 141.5449470  10.8775680  97.8386110 136.3324990
  10.0640290  97.3399280 136.2570300  10.6837630  98.6784360 135.9161340
  10.7984540 106.5157210 148.0764600  10.7321850 105.5952880 147.8222190
  10.1689680 106.6132650 148.7909240  13.5924070 102.2105760 134.6287150
  14.4803690 102.5222990 134.4538490  13.5629160 101.3378010 134.2367730
   4.7015160 107.1163170 140.0348020   5.2193830 106.3131430 139.9804910
   4.2499180 107.0542310 140.8764850   9.5884660 108.3829450 135.3075320
   9.9300360 109.1271680 134.8118640   8.7597370 108.6960570 135.6700150
   2.1859700 104.0824540 146.9473720   1.8274640 104.7478390 147.5347060
   1.8914260 103.2508090 147.3186340   5.3872820 104.5408780 149.8313270
   5.0872960 104.6865960 148.9341090   6.1584060 103.9814070 149.7386660
  10.7301270 109.3377780 147.8268400  10.7445810 108.4058740 147.6087310
  10.0226370 109.4237540 148.4658170  15.8638340 103.5217600 134.0967010
  15.7802060 103.9531820 133.2463450  16.5832530 103.9815950 134.5293830
  16.9412480 105.9785120 147.1736980  16.2160670 106.5713900 146.9766370
  17.4687940 105.9708660 146.3750350  16.8925590 110.3759860 136.8249140
  16.2501750 109.7215480 137.0992860  16.5056250 110.7814950 136.0489810
  12.4712070 107.7045290 140.6720830  12.8235890 107.1073420 140.0122200
  11.5874400 107.3789520 140.8429080   8.5575350 108.4642980 138.0791240
   9.2446480 109.0112190 138.4598830   7.7707770 109.0083710 138.1140850
   7.8602560 105.4689010 137.6916600   8.3165340 106.2794260 137.9176790
   7.5090770 105.1512150 138.5235090  10.1635170 110.9795350 144.9208900
  10.8077390 111.1854730 145.5982320  10.5264610 110.2183750 144.4679750
   3.7614340  95.8126660 138.1639120   3.6328970  95.8044560 139.1124040
   2.9376360  96.1509750 137.8130130  11.4367250 108.9827700 143.6386350
  12.0789480 108.2820860 143.7518520  11.9616600 109.7626140 143.4583240
  15.2822970 109.2676320 133.3625490  15.0560550 108.5506760 133.9550130
  14.8919170 109.0188760 132.5247240  13.2104870 109.7822600 146.8422410
  13.5461110 110.3689290 147.5200330  12.2905210 109.6515310 147.0720200
  14.8639220 107.1848260 135.0239650  14.5760920 107.6460950 135.8117530
  15.6591390 106.7246030 135.2923870   7.0807620 110.6774380 134.9543620
   7.0717720 111.4104070 134.3388130   6.1605980 110.4305960 135.0470580
   2.6814260 105.8989270 135.6990380   2.0742210 106.6388170 135.7085680
   3.1563610 105.9888630 134.8728580  12.2547050 100.0640090 145.3747270
  12.6227870  99.2435300 145.7026840  11.3945250 100.1241980 145.7902920
  15.6209080  99.0197030 136.1834830  14.9922240  99.1242700 135.4693060
  15.1261000  99.2393810 136.9728710  10.0667220 110.7402620 133.6168810
  10.1679200 110.5366610 132.6870790   9.1668960 110.4860900 133.8216590
   7.5893110 101.2982980 137.5992710   6.8809260 101.7669320 138.0406320
   7.8737590 100.6404990 138.2337900   9.2149040 102.7179680 145.5985240
   9.7134290 103.1925500 146.2637090   9.3571990 101.7943200 145.8055270
  11.6208540  98.0233640 139.0388500  11.4976320  98.0419770 138.0898010
  12.5693100  98.0712580 139.1586900   8.7085330 113.2588940 138.3116480
   8.9626830 113.2210330 137.3895850   7.7597810 113.1322270 138.3044730
   5.7928130  99.6068060 134.9743420   6.6418660 100.0438210 134.9083610
   5.4259400  99.9188320 135.8015480  16.4215900  98.9347640 146.4413630
  15.9189500  99.6753040 146.7807440  17.2372560  99.3231640 146.1250420
  14.7137910 104.1780820 139.8874990  13.7728050 104.1931050 140.0622680
  15.0281980 103.3916780 140.3335290   4.6919550 105.8600420 133.4478950
   5.4582820 105.7481780 134.0104380   4.7694240 105.1638390 132.7955720
   3.3866310 103.2925490 134.1311840   3.4669900 102.3453000 134.2429240
   4.2786060 103.6232370 134.2372500  16.7163490 111.3489670 141.5629250
  16.8410910 112.1720840 142.0353060  17.5829050 111.1380400 141.2153400
   4.1881020 113.4420880 141.2346380   4.9243500 112.8936340 141.5054950
   4.5721940 114.3076890 141.0952370   7.2983330 112.6151190 133.0571950
   8.0911940 112.9040020 132.6053740   6.7787680 112.1843360 132.3784430
  13.4604300 112.4627110 148.9816780  14.4126050 112.3785130 148.9317020
  13.3132520 113.1268820 149.6550570  16.3513500 111.8421320 134.4808690
  16.0655010 111.4286460 133.6662870  16.1533050 112.7709030 134.3609210
   7.8160730 107.8354600 132.9214300   7.7111370 107.2206950 133.6475680
   7.6484950 107.3120490 132.1377310   7.9675050 106.5211400 148.9003530
   7.2020720 107.0896400 148.8158200   8.1491010 106.2287610 148.0071760
  11.0563460 106.8974630 133.5256290  10.5073560 107.3443930 134.1699030
  11.6782720 106.3923880 134.0493960  15.1098400 108.2516730 149.4578550
  15.8507870 108.5892490 148.9546010  14.3471080 108.4208790 148.9048320
   6.7238580 105.8565550 135.4221590   7.1455000 105.6905420 136.2652980
   6.8489420 105.0465780 134.9276730   4.8866000 101.8362100 148.2292570
   4.3562460 101.3453050 147.6015910   5.5554070 102.2646300 147.6950500
   9.2366220 104.8803160 132.6698690   9.7571880 104.1652180 132.3039840
   9.8834620 105.5189030 132.9699200  13.7844060 106.3031560 147.9933760
  14.1985080 106.4576640 148.8424180  12.8495060 106.4286780 148.1559540
  14.2566230 103.6427720 149.9972910  14.8387000 102.8880040 149.9093390
  14.4328000 104.1735160 149.2204390   5.3738300  98.8024470 148.3089860
   5.2795170  98.1845220 147.5840730   4.7935690  99.5290760 148.0819770
   8.1399740  97.3597710 145.3417250   7.6917040  97.3821970 144.4962800
   7.5064940  96.9616730 145.9387550   8.5459290 106.2552040 145.9629690
   8.9647400 107.0984770 145.7905930   7.6267920 106.3924080 145.7336470
  10.8823190 103.9868220 147.3467530  11.0019400 103.3909360 148.0862370
  11.7417190 104.0237910 146.9268830  13.2211090 104.5405410 145.9230040
  12.6946310 105.0648030 145.3195180  13.5642430 105.1732800 146.5539770
   5.6197480 101.9298780 132.3679750   5.4186540 101.0666140 132.7293090
   5.4489530 101.8432140 131.4301350   6.3966710 112.5605050 147.0787420
   5.8587800 113.2851110 146.7596120   6.6500670 112.0835390 146.2884760
   7.6491960 100.5289570 148.6043350   8.2391650 100.2205420 149.2921170
   6.8312200 100.0569320 148.7603250  12.4685390 100.1455380 148.8376370
  11.7800910  99.4836920 148.7726360  13.1891410  99.6993650 149.2824830
  13.0985790  96.7407010 134.8966630  13.3788080  95.8974910 135.2526050
  12.3251520  96.9730120 135.4105380   4.4180280  99.0299400 132.3557630
   4.7206180  99.0366830 131.4476780   5.1574870  98.6797260 132.8525290
   9.2528920 113.7956260 147.3374070   9.1787620 114.6991400 147.6446440
   8.3507760 113.4768160 147.3096140   7.6365210  97.9734020 133.3413830
   7.2887210  97.2958010 132.7616280   7.8377980  97.5123530 134.1557220
   9.8014250 112.9614770 134.9600430  10.6965040 113.2999740 134.9819190
   9.8331880 112.2394180 134.3324710   3.4410410 108.3341820 133.1887430
   3.8785280 108.8771490 133.8445010   3.9258140 107.5088770 133.1983770
   5.2518130 109.4539860 138.3009660   4.9513670 109.3304830 139.2013570
   5.1455620 108.5948450 137.8925390  16.7808600 111.4918440 147.6666630
  16.1810590 111.5511000 146.9230550  16.9102500 110.5523420 147.7963480
  18.0210050 109.2336260 133.0036340  17.1903010 109.3012910 133.4743570
  18.1981880 110.1240380 132.7003200  17.4766510 105.9783740 135.5070540
  18.2385420 106.5480390 135.6130230  17.4920880 105.4110940 136.2778850
  18.4826480 106.8333840 140.3512470  18.8535310 106.0501160 139.9448440
  19.1228410 107.5222940 140.1729770  15.4660240 108.2170420 145.7642790
  14.6520080 108.6467580 146.0268580  15.8734440 108.8288830 145.1511840
  17.5285680 106.2718110 132.6643060  17.8034520 107.1796990 132.5362280
  17.3396420 106.2080640 133.6005050  13.9261290  99.2962960 133.9596690
  14.3446170  99.1093940 133.1193350  13.6197350  98.4442010 134.2699620
  17.4251020 104.2087100 137.6572490  17.0494620 103.4415030 137.2253780
  16.6954140 104.5909800 138.1447420   2.0146780 104.8874240 144.2781540
   2.3819820 104.8001640 145.1577560   1.4457600 104.1240790 144.1788400
  16.8150640 103.3558620 147.2912010  16.5836730 103.1271370 146.3909960
  17.0755190 104.2758170 147.2456900  16.7001980 102.4344590 140.9579730
  17.2239460 101.9407240 140.3269900  17.2861400 102.5694950 141.7027300
  16.8791700 102.5184460 144.4799280  15.9294410 102.4848000 144.5944270
  17.0604710 103.4284570 144.2449050   2.7336140 100.7686140 133.5897910
   3.4427840 100.3469360 133.1045190   2.0176080 100.8361370 132.9581260
   2.3810300  96.8225470 132.6300560   3.1038430  97.3634410 132.9481780
   2.6534820  96.5488890 131.7542100  16.1901950 101.6917940 136.8972140
  16.6861070 101.4588810 137.6821020  15.9918020 100.8529780 136.4809780
   2.0702490  96.0731660 142.5323180   2.7178680  95.5229040 142.0918340
   2.4904330  96.3274810 143.3538990  17.6189110 100.3278890 139.4309820
  17.5088390 100.1734930 140.3692090  18.3796700  99.7999830 139.1885230
  15.9654830  96.2673020 145.8892820  16.6027050  96.8807160 146.2552010
  16.1129720  96.3033680 144.9442050  18.5079380  98.1586810 132.6715960
  19.4328690  98.0267990 132.4634250  18.4855170  98.2379630 133.6252410
  18.5817870  98.9297470 135.2972670  17.7869370  98.8642590 135.8265580
  18.7861150  99.8648110 135.2858020  15.5236290 112.9689020 139.2911060
  16.1195360 112.6473590 138.6145480  15.7814440 112.4960840 140.0824330
   1.8234490  96.2287330 145.2748500   1.4749310  96.6851150 146.0406680
   1.4922190  95.3344460 145.3570930   7.1304890 110.9566520 145.0411410
   6.8896250 111.2241080 144.1541930   8.0707530 111.1272250 145.0962270
   9.3359310  97.4199210 148.7967920   9.2748200  98.0121040 149.5463330
  10.2759690  97.3125170 148.6518180  11.9733870  97.0769270 148.4360210
  12.5874280  97.3948560 147.7741290  12.5183430  96.5917860 149.0556070
  18.3909050 112.9760900 145.8422050  17.8967330 113.3729770 145.1249180
  17.7822340 112.3510110 146.2359330   2.4955130  95.7563530 148.5499270
   3.0438120  95.5751580 147.7865380   2.5610440  94.9657640 149.0855580
   3.2686890 112.3469180 146.5599470   2.6747210 112.2153880 147.2989510
   3.2610730 111.5107320 146.0941570  12.7141910  95.6401410 144.7629500
  11.8401750  95.9736520 144.5602430  12.6052660  95.1674590 145.5881370
  13.6213890  97.8472280 146.1471220  13.2927250  97.0324040 145.7672950
  14.5696190  97.8042090 146.0236910  16.0748500 113.6184320 143.1208790
  15.6151470 114.3700130 142.7466810  15.4460960 112.8990790 143.0623590
   2.8999120 109.7127560 145.5107510   2.1733180 109.0932850 145.4433460
   2.9608270 110.1068170 144.6405590   6.5044220 111.9272560 142.2956920
   7.0209240 111.3159920 141.7705180   7.1541600 112.4301340 142.7867930
   9.2439720 112.8181050 143.1225900   9.5317530 112.5635350 142.2458910
   9.7562940 112.2658410 143.7131470  10.4616730  96.5571250 143.7022410
   9.6788520  97.0316750 143.9819170  10.1679660  95.6526080 143.5935590
  15.0137800  97.2594350 141.7471500  15.4545890  97.2039450 140.8993100
  14.7445390  98.1752360 141.8181680  16.8776370  96.8909590 139.7580320
  16.8164770  95.9470810 139.6111340  17.6568400  96.9989680 140.3033780
   1.8057140  96.8618730 136.2236130   2.5636500  96.9747610 135.6500160
   1.3434310  97.6987930 136.1779560   8.3470950  98.9758000 139.2138440
   7.5345460  98.6014890 138.8734320   8.8512590  98.2203080 139.5159630
  12.8495930  95.6400450 140.4521510  13.4525300  96.2120660 140.9270030
  12.1088920  96.2039890 140.2295410  15.9930530  96.0422010 135.7261790
  16.1881160  96.9405460 135.9929220  15.2060400  95.8109090 136.2194740
   2.7891820 111.7235180 136.1654410   2.2639440 112.1043210 135.4616370
   2.7136400 112.3485950 136.8864120   4.1782290  97.3882780 134.7638100
   4.7075050  96.6012580 134.6346050   4.8110610  98.0673970 134.9973630
   6.3720130  97.1257920 137.8183490   5.7422870  96.4245230 137.9853620
   5.8325270  97.8862050 137.6016650  17.5457140 113.2822720 137.4868350
  17.7209330 112.5960460 136.8429270  16.8478710 113.8069770 137.0945020
   5.3884790 113.6717560 135.0403660   6.1203610 113.3876840 134.4927550
   5.6478460 113.4330840 135.9303040   4.5499580 109.7882290 135.0449990
   3.9208460 110.2567390 135.5935820   4.6647410 108.9431510 135.4796180
  12.0049300 103.8387950 121.1951190  11.9243350 102.9242560 120.9242900
  11.5913720 104.3355020 120.4890900  10.1367340 105.6166970 123.0760460
   9.3609440 105.1367410 123.3659030  10.7880270 104.9372620 122.9016620
   4.1533170 105.9286780 123.9536220   3.3218050 105.6735490 124.3532730
   4.7614150 105.9997550 124.6894140  14.1574770 110.0227160 121.8559590
  13.6956300 109.2514400 122.1846760  14.9700320 110.0493230 122.3612040
   4.1334430 109.9626870 124.1494240   4.4362470 109.0724610 123.9704460
   4.8778020 110.5197090 123.9216490   2.5625120 100.8888670 117.7378610
   1.6741820 101.2304640 117.6358490   2.8466310 100.6888990 116.8459440
  10.3838080 112.3085170 121.4763580   9.7649520 112.7642670 120.9058020
  11.2389860 112.4636630 121.0753280   9.5776330 108.2924160 123.0830620
   9.5084610 107.3514100 122.9219750  10.3396190 108.3825570 123.6553190
   1.7683000  98.8978680 125.4087240   1.5885840  98.0004430 125.6890000
   1.3663080  99.4450550 126.0834190  10.6081500 101.0994540 123.3099550
  10.9846320 100.2266420 123.1973220  10.5101010 101.4353240 122.4189990
   4.7386510  99.4720170 118.7716990   4.8453260 100.3723900 119.0785750
   3.8278870  99.4238140 118.4811640  14.3905620  98.5944980 120.2427890
  15.2115240  98.1041550 120.2853370  14.4239700  99.1842640 120.9959730
   2.3869670 101.3939180 124.0169580   3.0679780 101.6577550 124.6356980
   2.0717720 100.5540050 124.3507590   6.5794240 102.4406540 123.1042170
   7.0872460 102.9387510 123.7447190   7.1107480 101.6641740 122.9281530
  18.6805170 100.6111730 126.8071520  17.9757340 100.9993440 126.2886630
  18.9463090 101.3062020 127.4092450   4.8630340  97.0805100 127.3705590
   4.8648780  97.5977490 126.5651490   4.0334650  96.6035280 127.3475520
  11.2501430 107.1924410 118.8695490  10.6318700 107.6573860 118.3058210
  11.7624680 107.8851890 119.2865000   6.1133190 106.7200280 125.5479090
   5.7802570 107.3469200 126.1900160   6.2899870 107.2462160 124.7680760
  14.6267100 100.5345360 123.0155430  13.9222670 100.8230250 123.5958540
  14.9879260 101.3445470 122.6554990   4.5445670  98.7915060 125.3776040
   4.8862480  99.6357110 125.0829910   3.6061480  98.9398800 125.4941380
   5.3252290 108.6881080 127.3628270   5.9426290 109.3632160 127.0812720
   4.4645410 109.0969060 127.2715770  16.2429880 110.1520490 125.2782910
  15.5593400 110.8219600 125.2699580  16.7824170 110.3501140 124.5127770
  17.6954020  99.9800150 123.4064640  16.7478930 100.0139130 123.5380070
  18.0204010 100.7939100 123.7914000   8.2273560  96.2797330 121.7020630
   8.5348540  95.7244220 120.9856130   7.2974260  96.4141790 121.5193620
  13.7788620 111.9964620 123.9928090  13.7915780 111.5926910 123.1250350
  13.2263840 112.7711910 123.8889520  15.0734040 108.7180840 119.0818260
  14.9630370 107.7755170 119.2067680  15.0702290 109.0796480 119.9681020
  13.1774060 106.8994460 125.3210700  13.5942850 106.6854570 124.4864160
  13.9013880 107.1567250 125.8919320  10.6154320 104.3446160 118.4380750
   9.6883600 104.2783540 118.6669220  10.7679140 105.2826290 118.3235990
  10.6023400 100.6163160 115.4347910   9.6627070 100.7777120 115.5200370
  10.9206660 101.3348840 114.8883900  17.1236160 105.2981680 125.4126940
  16.2954790 105.3674770 124.9377070  17.7186640 105.8835990 124.9442770
  14.6451610 105.9066460 118.9416000  14.0264030 105.5686010 118.2942300
  14.6276060 105.2626220 119.6495190  14.0878170 102.0851000 126.3581810
  13.6749350 102.9104710 126.6121800  13.3554120 101.4996040 126.1658170
   6.2210960 104.8710900 121.2200480   5.8167960 104.1588150 120.7246380
   6.3074080 104.5264140 122.1088520   6.6892660 108.5578460 123.3839690
   6.3920950 107.9523930 122.7047470   7.6392480 108.5955770 123.2729050
   4.9339580 101.6454110 124.9999520   5.4854170 101.7549450 124.2252770
   5.4483090 102.0191710 125.7154750  14.7778270 112.1310330 127.0462790
  14.3008830 112.9382520 126.8535400  14.0940060 111.4788660 127.1989000
   5.7811090 108.2960150 130.0347490   4.8839620 108.5200120 130.2820890
   5.8063960 108.4195090 129.0858890  12.8216310 105.1453270 115.9488750
  13.2609590 104.3075700 115.8026570  13.5344730 105.7782670 116.0352890
   4.6082310 105.1673470 128.6104860   4.4690080 106.0396270 128.9792260
   3.7263670 104.8246280 128.4652800  10.9311690 110.0849340 119.9169990
  11.3707600 110.8273670 119.5025380  10.8698580 110.3275910 120.8408950
   6.4062660 111.1095170 130.8190010   6.3778090 111.5138120 129.9518440
   6.2427630 110.1805530 130.6561610  16.4033450  96.3996080 114.2629790
  16.0906110  96.4922910 115.1628860  17.1645920  96.9777110 114.2127220
   2.9215590 103.7655880 118.7207130   2.8013190 104.4917970 118.1088400
   2.6116480 102.9958790 118.2435040  18.3577480 111.8922270 132.1154180
  18.8337200 112.3705160 132.7943260  18.9784640 111.8239760 131.3899680
   1.8048590 108.6371210 120.9381950   1.3976670 108.7785800 120.0835550
   2.6961600 108.3531370 120.7353160  17.7610730 109.0835120 129.2754190
  17.8873790 108.8447000 128.3571370  17.8032110 108.2519660 129.7476270
  11.6227470 112.7863120 127.8449000  12.1372140 112.6971130 128.6471430
  10.7796550 113.1322820 128.1376910  13.5981870 113.0718460 117.2733000
  13.4383010 112.7821400 118.1714830  13.4328580 112.2958590 116.7378230
   6.0770250 112.8516990 119.0504620   5.9012730 111.9352530 118.8372420
   5.2225990 113.2104280 119.2902420  13.3008000 110.5806020 115.8331000
  12.6073160 110.5783310 115.1733280  14.0430860 110.1565340 115.4025170
  12.8657930 112.2068730 119.9079490  13.3214880 111.4258110 120.2218110
  13.2050450 112.9175550 120.4520670  17.6134740 101.1367580 130.2403930
  16.9979010 101.6447250 129.7119390  17.2931160 100.2365910 130.1829870
   5.3879250  97.1090950 122.1030800   4.9447400  97.8900490 121.7715320
   5.9464240  97.4320840 122.8101740   9.6749060  99.9759470 127.7066120
   9.2128430 100.1842490 128.5186060   9.2727170  99.1618820 127.4036790
  14.6753570 101.1968420 128.8362780  13.8247160 100.8974170 129.1571850
  14.5155360 101.4410430 127.9246600  11.7703280 102.6970170 130.9361570
  12.0956690 101.8633920 130.5963800  12.5583610 103.2198690 131.0839900
   8.5038070  96.7301650 116.9836630   7.8792250  96.7261520 117.7089940
   8.4168190  95.8632610 116.5872600   7.4255150  97.6538280 123.9620400
   7.7227480  98.5601110 123.8812420   7.9740710  97.1657060 123.3479970
   5.1793470 102.2324520 119.8312050   4.9534390 102.0161690 120.7358670
   4.3986000 102.6652980 119.4858020  12.4091230 102.2387890 118.4302700
  11.8100120 102.9623690 118.2466320  12.9570840 102.1764670 117.6479150
   7.6192680 103.1310100 130.4972320   7.5236280 102.1904830 130.3472720
   8.4624660 103.3525170 130.1020390  11.0156100 100.8751430 120.4605980
  11.4085670 101.1923630 119.6474670  11.3772950  99.9963310 120.5750500
   2.7503220  99.5423770 128.6506100   2.3566610 100.3898980 128.8578880
   2.0621620  98.9050140 128.8414740   9.3248270  99.6258740 131.7202840
   8.6346590  99.4330940 132.3548930  10.0680570  99.9093380 132.2527140
  11.6011240 103.4657180 124.5556760  10.8692360 103.9743990 124.9046860
  11.2035580 102.6487160 124.2545540   8.0388630 100.1411380 122.9609250
   8.0424690  99.7001330 122.1113790   8.9339750 100.4628710 123.0681070
   3.8891010 100.0237870 121.9203460   3.5491060 100.5013100 122.6770510
   3.1268330  99.5702990 121.5604560   8.1008780 101.1423460 115.9516010
   8.2221600 101.1009940 116.9001830   7.7157290 102.0047610 115.7962740
  12.0637150  98.9190860 123.9679700  12.0809890  99.3699510 124.8121550
  11.8152730  98.0196500 124.1813140   7.1130280 103.4524600 115.3499310
   6.5447180 103.0042850 114.7235220   7.8219280 103.8117380 114.8164460
  15.4907900  96.3323040 129.8066080  15.8153670  95.6012700 130.3324060
  15.5264410  96.0136680 128.9047070   2.1899460 107.3536620 129.2266040
   1.8054250 106.7130290 129.8249000   2.5011650 108.0572740 129.7960770
   8.3396600 104.2013160 124.7074660   8.7066730 103.7271730 125.4536000
   8.1501660 105.0754730 125.0483000   6.1295970 103.2421800 127.0258870
   5.8253040 104.1213780 127.2509230   7.0842430 103.3021590 127.0616310
   4.6577760 107.4482790 117.6225720   3.8840020 106.9080410 117.4624440
   5.3872390 106.9289400 117.2843480  15.4165740 106.4448150 123.4152110
  16.1364860 106.9403440 123.0248220  15.2147560 105.7666040 122.7705980
  10.8775680  97.8386110 117.5581500  10.0640290  97.3399280 117.4826810
  10.6837630  98.6784360 117.1417850  10.7984540 106.5157210 129.3021110
  10.7321850 105.5952880 129.0478700  10.1689680 106.6132650 130.0165750
  13.5924070 102.2105760 115.8543660  14.4803690 102.5222990 115.6795000
  13.5629160 101.3378010 115.4624240   4.7015160 107.1163170 121.2604530
   5.2193830 106.3131430 121.2061420   4.2499180 107.0542310 122.1021360
   9.5884660 108.3829450 116.5331830   9.9300360 109.1271680 116.0375150
   8.7597370 108.6960570 116.8956660   2.1859700 104.0824540 128.1730230
   1.8274640 104.7478390 128.7603570   1.8914260 103.2508090 128.5442850
   5.3872820 104.5408780 131.0569780   5.0872960 104.6865960 130.1597600
   6.1584060 103.9814070 130.9643170  10.7301270 109.3377780 129.0524910
  10.7445810 108.4058740 128.8343820  10.0226370 109.4237540 129.6914680
  15.8638340 103.5217600 115.3223520  15.7802060 103.9531820 114.4719960
  16.5832530 103.9815950 115.7550340  16.9412480 105.9785120 128.3993490
  16.2160670 106.5713900 128.2022880  17.4687940 105.9708660 127.6006860
  16.8925590 110.3759860 118.0505650  16.2501750 109.7215480 118.3249370
  16.5056250 110.7814950 117.2746320  12.4712070 107.7045290 121.8977340
  12.8235890 107.1073420 121.2378710  11.5874400 107.3789520 122.0685590
   8.5575350 108.4642980 119.3047750   9.2446480 109.0112190 119.6855340
   7.7707770 109.0083710 119.3397360   7.8602560 105.4689010 118.9173110
   8.3165340 106.2794260 119.1433300   7.5090770 105.1512150 119.7491600
  10.1635170 110.9795350 126.1465410  10.8077390 111.1854730 126.8238830
  10.5264610 110.2183750 125.6936260   3.7614340  95.8126660 119.3895630
   3.6328970  95.8044560 120.3380550   2.9376360  96.1509750 119.0386640
  11.4367250 108.9827700 124.8642860  12.0789480 108.2820860 124.9775030
  11.9616600 109.7626140 124.6839750  15.2822970 109.2676320 114.5882000
  15.0560550 108.5506760 115.1806640  14.8919170 109.0188760 113.7503750
  13.2104870 109.7822600 128.0678920  13.5461110 110.3689290 128.7456840
  12.2905210 109.6515310 128.2976710  14.8639220 107.1848260 116.2496160
  14.5760920 107.6460950 117.0374040  15.6591390 106.7246030 116.5180380
   9.0393450 109.8313930 131.2366980   8.7190320 109.1123170 131.7812670
   8.3651810 110.5069000 131.3103040   7.0807620 110.6774380 116.1800130
   7.0717720 111.4104070 115.5644640   6.1605980 110.4305960 116.2727090
   2.6814260 105.8989270 116.9246890   2.0742210 106.6388170 116.9342190
   3.1563610 105.9888630 116.0985090  12.2547050 100.0640090 126.6003780
  12.6227870  99.2435300 126.9283350  11.3945250 100.1241980 127.0159430
  15.6209080  99.0197030 117.4091340  14.9922240  99.1242700 116.6949570
  15.1261000  99.2393810 118.1985220  10.0667220 110.7402620 114.8425320
  10.1679200 110.5366610 113.9127300   9.1668960 110.4860900 115.0473100
   7.5893110 101.2982980 118.8249220   6.8809260 101.7669320 119.2662830
   7.8737590 100.6404990 119.4594410   9.2149040 102.7179680 126.8241750
   9.7134290 103.1925500 127.4893600   9.3571990 101.7943200 127.0311780
  11.6208540  98.0233640 120.2645010  11.4976320  98.0419770 119.3154520
  12.5693100  98.0712580 120.3843410   8.7085330 113.2588940 119.5372990
   8.9626830 113.2210330 118.6152360   7.7597810 113.1322270 119.5301240
   5.7928130  99.6068060 116.1999930   6.6418660 100.0438210 116.1340120
   5.4259400  99.9188320 117.0271990  16.4215900  98.9347640 127.6670140
  15.9189500  99.6753040 128.0063950  17.2372560  99.3231640 127.3506930
  14.7137910 104.1780820 121.1131500  13.7728050 104.1931050 121.2879190
  15.0281980 103.3916780 121.5591800   4.6919550 105.8600420 114.6735460
   5.4582820 105.7481780 115.2360890   4.7694240 105.1638390 114.0212230
   3.3866310 103.2925490 115.3568350   3.4669900 102.3453000 115.4685750
   4.2786060 103.6232370 115.4629010  16.7163490 111.3489670 122.7885760
  16.8410910 112.1720840 123.2609570  17.5829050 111.1380400 122.4409910
   4.1881020 113.4420880 122.4602890   4.9243500 112.8936340 122.7311460
   4.5721940 114.3076890 122.3208880   3.1939300 112.6266950 131.6488470
   3.9952030 112.9479000 132.0623870   2.6791120 112.2662530 132.3708380
   7.2983330 112.6151190 114.2828460   8.0911940 112.9040020 113.8310250
   6.7787680 112.1843360 113.6040940  12.0303930 108.7346820 131.5963880
  11.4242090 108.7578420 130.8559630  11.7258040 108.0029860 132.1331130
  13.4604300 112.4627110 130.2073290  14.4126050 112.3785130 130.1573530
  13.3132520 113.1268820 130.8807080  16.3513500 111.8421320 115.7065200
  16.0655010 111.4286460 114.8919380  16.1533050 112.7709030 115.5865720
   7.8160730 107.8354600 114.1470810   7.7111370 107.2206950 114.8732190
   7.6484950 107.3120490 113.3633820   7.9675050 106.5211400 130.1260040
   7.2020720 107.0896400 130.0414710   8.1491010 106.2287610 129.2328270
  11.0563460 106.8974630 114.7512800  10.5073560 107.3443930 115.3955540
  11.6782720 106.3923880 115.2750470  15.1098400 108.2516730 130.6835060
  15.8507870 108.5892490 130.1802520  14.3471080 108.4208790 130.1304830
   2.9460190 103.2570000 131.4874590   2.9865530 102.9583870 132.3959820
   3.8005690 103.6577610 131.3282110   6.7238580 105.8565550 116.6478100
   7.1455000 105.6905420 117.4909490   6.8489420 105.0465780 116.1533240
   4.8866000 101.8362100 129.4549080   4.3562460 101.3453050 128.8272420
   5.5554070 102.2646300 128.9207010   9.2366220 104.8803160 113.8955200
   9.7571880 104.1652180 113.5296350   9.8834620 105.5189030 114.1955710
  13.7844060 106.3031560 129.2190270  14.1985080 106.4576640 130.0680690
  12.8495060 106.4286780 129.3816050  14.2566230 103.6427720 131.2229420
  14.8387000 102.8880040 131.1349900  14.4328000 104.1735160 130.4460900
   5.3738300  98.8024470 129.5346370   5.2795170  98.1845220 128.8097240
   4.7935690  99.5290760 129.3076280   8.1399740  97.3597710 126.5673760
   7.6917040  97.3821970 125.7219310   7.5064940  96.9616730 127.1644060
   8.5459290 106.2552040 127.1886200   8.9647400 107.0984770 127.0162440
   7.6267920 106.3924080 126.9592980  10.8823190 103.9868220 128.5724040
  11.0019400 103.3909360 129.3118880  11.7417190 104.0237910 128.1525340
  13.2211090 104.5405410 127.1486550  12.6946310 105.0648030 126.5451690
  13.5642430 105.1732800 127.7796280   5.6197480 101.9298780 113.5936260
   5.4186540 101.0666140 113.9549600   5.4489530 101.8432140 112.6557860
   6.3966710 112.5605050 128.3043930   5.8587800 113.2851110 127.9852630
   6.6500670 112.0835390 127.5141270   7.6491960 100.5289570 129.8299860
   8.2391650 100.2205420 130.5177680   6.8312200 100.0569320 129.9859760
  12.4685390 100.1455380 130.0632880  11.7800910  99.4836920 129.9982870
  13.1891410  99.6993650 130.5081340  13.0985790  96.7407010 116.1223140
  13.3788080  95.8974910 116.4782560  12.3251520  96.9730120 116.6361890
   4.4180280  99.0299400 113.5814140   4.7206180  99.0366830 112.6733290
   5.1574870  98.6797260 114.0781800   9.2528920 113.7956260 128.5630580
   9.1787620 114.6991400 128.8702950   8.3507760 113.4768160 128.5352650
   7.6365210  97.9734020 114.5670340   7.2887210  97.2958010 113.9872790
   7.8377980  97.5123530 115.3813730   9.8014250 112.9614770 116.1856940
  10.6965040 113.2999740 116.2075700   9.8331880 112.2394180 115.5581220
   3.4410410 108.3341820 114.4143940   3.8785280 108.8771490 115.0701520
   3.9258140 107.5088770 114.4240280   5.2518130 109.4539860 119.5266170
   4.9513670 109.3304830 120.4270080   5.1455620 108.5948450 119.1181900
  16.7808600 111.4918440 128.8923140  16.1810590 111.5511000 128.1487060
  16.9102500 110.5523420 129.0219990  18.0210050 109.2336260 114.2292850
  17.1903010 109.3012910 114.7000080  18.1981880 110.1240380 113.9259710
  17.4766510 105.9783740 116.7327050  18.2385420 106.5480390 116.8386740
  17.4920880 105.4110940 117.5035360  18.4826480 106.8333840 121.5768980
  18.8535310 106.0501160 121.1704950  19.1228410 107.5222940 121.3986280
  15.4660240 108.2170420 126.9899300  14.6520080 108.6467580 127.2525090
  15.8734440 108.8288830 126.3768350  17.5285680 106.2718110 113.8899570
  17.8034520 107.1796990 113.7618790  17.3396420 106.2080640 114.8261560
  13.9261290  99.2962960 115.1853200  14.3446170  99.1093940 114.3449860
  13.6197350  98.4442010 115.4956130  17.4251020 104.2087100 118.8829000
  17.0494620 103.4415030 118.4510290  16.6954140 104.5909800 119.3703930
   2.0146780 104.8874240 125.5038050   2.3819820 104.8001640 126.3834070
   1.4457600 104.1240790 125.4044910  16.8150640 103.3558620 128.5168520
  16.5836730 103.1271370 127.6166470  17.0755190 104.2758170 128.4713410
  15.2538710  98.5815050 131.2948220  16.1308890  98.5898450 131.6782220
  15.2659550  97.8445890 130.6840570  16.7001980 102.4344590 122.1836240
  17.2239460 101.9407240 121.5526410  17.2861400 102.5694950 122.9283810
  16.8791700 102.5184460 125.7055790  15.9294410 102.4848000 125.8200780
  17.0604710 103.4284570 125.4705560   2.7336140 100.7686140 114.8154420
   3.4427840 100.3469360 114.3301700   2.0176080 100.8361370 114.1837770
   2.3810300  96.8225470 113.8557070   3.1038430  97.3634410 114.1738290
   2.6534820  96.5488890 112.9798610  16.1901950 101.6917940 118.1228650
  16.6861070 101.4588810 118.9077530  15.9918020 100.8529780 117.7066290
   2.0702490  96.0731660 123.7579690   2.7178680  95.5229040 123.3174850
   2.4904330  96.3274810 124.5795500  17.6189110 100.3278890 120.6566330
  17.5088390 100.1734930 121.5948600  18.3796700  99.7999830 120.4141740
  15.9654830  96.2673020 127.1149330  16.6027050  96.8807160 127.4808520
  16.1129720  96.3033680 126.1698560  18.5079380  98.1586810 113.8972470
  19.4328690  98.0267990 113.6890760  18.4855170  98.2379630 114.8508920
  18.5817870  98.9297470 116.5229180  17.7869370  98.8642590 117.0522090
  18.7861150  99.8648110 116.5114530  15.5236290 112.9689020 120.5167570
  16.1195360 112.6473590 119.8401990  15.7814440 112.4960840 121.3080840
   1.8234490  96.2287330 126.5005010   1.4749310  96.6851150 127.2663190
   1.4922190  95.3344460 126.5827440   3.4298860 109.4006930 130.6658200
   3.3868490 109.0299840 131.5472660   3.5609870 110.3384500 130.8060020
   7.1304890 110.9566520 126.2667920   6.8896250 111.2241080 125.3798440
   8.0707530 111.1272250 126.3218780   9.3359310  97.4199210 130.0224430
   9.2748200  98.0121040 130.7719840  10.2759690  97.3125170 129.8774690
  11.9733870  97.0769270 129.6616720  12.5874280  97.3948560 128.9997800
  12.5183430  96.5917860 130.2812580  18.3909050 112.9760900 127.0678560
  17.8967330 113.3729770 126.3505690  17.7822340 112.3510110 127.4615840
   2.4955130  95.7563530 129.7755780   3.0438120  95.5751580 129.0121890
   2.5610440  94.9657640 130.3112090   3.2686890 112.3469180 127.7855980
   2.6747210 112.2153880 128.5246020   3.2610730 111.5107320 127.3198080
  12.7141910  95.6401410 125.9886010  11.8401750  95.9736520 125.7858940
  12.6052660  95.1674590 126.8137880  13.6213890  97.8472280 127.3727730
  13.2927250  97.0324040 126.9929460  14.5696190  97.8042090 127.2493420
  16.0748500 113.6184320 124.3465300  15.6151470 114.3700130 123.9723320
  15.4460960 112.8990790 124.2880100   2.8999120 109.7127560 126.7364020
   2.1733180 109.0932850 126.6689970   2.9608270 110.1068170 125.8662100
   6.5044220 111.9272560 123.5213430   7.0209240 111.3159920 122.9961690
   7.1541600 112.4301340 124.0124440   9.2439720 112.8181050 124.3482410
   9.5317530 112.5635350 123.4715420   9.7562940 112.2658410 124.9387980
  10.4616730  96.5571250 124.9278920   9.6788520  97.0316750 125.2075680
  10.1679660  95.6526080 124.8192100  15.0137800  97.2594350 122.9728010
  15.4545890  97.2039450 122.1249610  14.7445390  98.1752360 123.0438190
  16.8776370  96.8909590 120.9836830  16.8164770  95.9470810 120.8367850
  17.6568400  96.9989680 121.5290290   1.8057140  96.8618730 117.4492640
   2.5636500  96.9747610 116.8756670   1.3434310  97.6987930 117.4036070
   8.3470950  98.9758000 120.4394950   7.5345460  98.6014890 120.0990830
   8.8512590  98.2203080 120.7416140  12.8495930  95.6400450 121.6778020
  13.4525300  96.2120660 122.1526540  12.1088920  96.2039890 121.4551920
  15.9930530  96.0422010 116.9518300  16.1881160  96.9405460 117.2185730
  15.2060400  95.8109090 117.4451250   2.7891820 111.7235180 117.3910920
   2.2639440 112.1043210 116.6872880   2.7136400 112.3485950 118.1120630
   4.1782290  97.3882780 115.9894610   4.7075050  96.6012580 115.8602560
   4.8110610  98.0673970 116.2230140   6.3720130  97.1257920 119.0440000
   5.7422870  96.4245230 119.2110130   5.8325270  97.8862050 118.8273160
   9.3112080 113.7397150 131.7150610  10.2379390 113.5041420 131.7586570
   9.2962510 114.5669150 131.2336640  17.5457140 113.2822720 118.7124860
  17.7209330 112.5960460 118.0685780  16.8478710 113.8069770 118.3201530
   6.4975690  96.4041900 131.4792490   6.2159960  96.9075500 130.7153310
   6.8795390  95.6063650 131.1134620   5.3884790 113.6717560 116.2660170
   6.1203610 113.3876840 115.7184060   5.6478460 113.4330840 117.1559550
   4.5499580 109.7882290 116.2706500   3.9208460 110.2567390 116.8192330
   4.6647410 108.9431510 116.7052690  13.0991150  95.8195480 132.0572960
  12.9856600  96.1390090 132.9524480  13.9160890  96.2207990 131.7610240
  15.8789640 112.9667010 131.5391650  16.6714960 112.4716240 131.3317610
  16.1722790 113.6457150 132.1467260  12.0049300 103.8387950 102.4207700
  11.9243350 102.9242560 102.1499410  11.5913720 104.3355020 101.7147410
  10.1367340 105.6166970 104.3016970   9.3609440 105.1367410 104.5915540
  10.7880270 104.9372620 104.1273130   4.1533170 105.9286780 105.1792730
   3.3218050 105.6735490 105.5789240   4.7614150 105.9997550 105.9150650
  14.1574770 110.0227160 103.0816100  13.6956300 109.2514400 103.4103270
  14.9700320 110.0493230 103.5868550   4.1334430 109.9626870 105.3750750
   4.4362470 109.0724610 105.1960970   4.8778020 110.5197090 105.1473000
   2.5625120 100.8888670  98.9635120   1.6741820 101.2304640  98.8615000
   2.8466310 100.6888990  98.0715950  10.3838080 112.3085170 102.7020090
   9.7649520 112.7642670 102.1314530  11.2389860 112.4636630 102.3009790
   9.5776330 108.2924160 104.3087130   9.5084610 107.3514100 104.1476260
  10.3396190 108.3825570 104.8809700   1.7683000  98.8978680 106.6343750
   1.5885840  98.0004430 106.9146510   1.3663080  99.4450550 107.3090700
  10.6081500 101.0994540 104.5356060  10.9846320 100.2266420 104.4229730
  10.5101010 101.4353240 103.6446500   4.7386510  99.4720170  99.9973500
   4.8453260 100.3723900 100.3042260   3.8278870  99.4238140  99.7068150
  14.3905620  98.5944980 101.4684400  15.2115240  98.1041550 101.5109880
  14.4239700  99.1842640 102.2216240   2.3869670 101.3939180 105.2426090
   3.0679780 101.6577550 105.8613490   2.0717720 100.5540050 105.5764100
   6.5794240 102.4406540 104.3298680   7.0872460 102.9387510 104.9703700
   7.1107480 101.6641740 104.1538040  18.6805170 100.6111730 108.0328030
  17.9757340 100.9993440 107.5143140  18.9463090 101.3062020 108.6348960
   4.8630340  97.0805100 108.5962100   4.8648780  97.5977490 107.7908000
   4.0334650  96.6035280 108.5732030  11.2501430 107.1924410 100.0952000
  10.6318700 107.6573860  99.5314720  11.7624680 107.8851890 100.5121510
   6.1133190 106.7200280 106.7735600   5.7802570 107.3469200 107.4156670
   6.2899870 107.2462160 105.9937270  14.6267100 100.5345360 104.2411940
  13.9222670 100.8230250 104.8215050  14.9879260 101.3445470 103.8811500
   4.5445670  98.7915060 106.6032550   4.8862480  99.6357110 106.3086420
   3.6061480  98.9398800 106.7197890   5.3252290 108.6881080 108.5884780
   5.9426290 109.3632160 108.3069230   4.4645410 109.0969060 108.4972280
  16.2429880 110.1520490 106.5039420  15.5593400 110.8219600 106.4956090
  16.7824170 110.3501140 105.7384280  17.6954020  99.9800150 104.6321150
  16.7478930 100.0139130 104.7636580  18.0204010 100.7939100 105.0170510
   8.2273560  96.2797330 102.9277140   8.5348540  95.7244220 102.2112640
   7.2974260  96.4141790 102.7450130  13.7788620 111.9964620 105.2184600
  13.7915780 111.5926910 104.3506860  13.2263840 112.7711910 105.1146030
  15.0734040 108.7180840 100.3074770  14.9630370 107.7755170 100.4324190
  15.0702290 109.0796480 101.1937530  13.1774060 106.8994460 106.5467210
  13.5942850 106.6854570 105.7120670  13.9013880 107.1567250 107.1175830
  10.6154320 104.3446160  99.6637260   9.6883600 104.2783540  99.8925730
  10.7679140 105.2826290  99.5492500  10.6023400 100.6163160  96.6604420
   9.6627070 100.7777120  96.7456880  10.9206660 101.3348840  96.1140410
  17.1236160 105.2981680 106.6383450  16.2954790 105.3674770 106.1633580
  17.7186640 105.8835990 106.1699280  14.6451610 105.9066460 100.1672510
  14.0264030 105.5686010  99.5198810  14.6276060 105.2626220 100.8751700
  14.0878170 102.0851000 107.5838320  13.6749350 102.9104710 107.8378310
  13.3554120 101.4996040 107.3914680   6.2210960 104.8710900 102.4456990
   5.8167960 104.1588150 101.9502890   6.3074080 104.5264140 103.3345030
   6.6892660 108.5578460 104.6096200   6.3920950 107.9523930 103.9303980
   7.6392480 108.5955770 104.4985560   4.9339580 101.6454110 106.2256030
   5.4854170 101.7549450 105.4509280   5.4483090 102.0191710 106.9411260
  14.7778270 112.1310330 108.2719300  14.3008830 112.9382520 108.0791910
  14.0940060 111.4788660 108.4245510   5.7811090 108.2960150 111.2604000
   4.8839620 108.5200120 111.5077400   5.8063960 108.4195090 110.3115400
  12.8216310 105.1453270  97.1745260  13.2609590 104.3075700  97.0283080
  13.5344730 105.7782670  97.2609400   4.6082310 105.1673470 109.8361370
   4.4690080 106.0396270 110.2048770   3.7263670 104.8246280 109.6909310
  10.9311690 110.0849340 101.1426500  11.3707600 110.8273670 100.7281890
  10.8698580 110.3275910 102.0665460   6.4062660 111.1095170 112.0446520
   6.3778090 111.5138120 111.1774950   6.2427630 110.1805530 111.8818120
  16.4033450  96.3996080  95.4886300  16.0906110  96.4922910  96.3885370
  17.1645920  96.9777110  95.4383730   2.9215590 103.7655880  99.9463640
   2.8013190 104.4917970  99.3344910   2.6116480 102.9958790  99.4691550
  18.3577480 111.8922270 113.3410690  18.8337200 112.3705160 114.0199770
  18.9784640 111.8239760 112.6156190   1.8048590 108.6371210 102.1638460
   1.3976670 108.7785800 101.3092060   2.6961600 108.3531370 101.9609670
  17.7610730 109.0835120 110.5010700  17.8873790 108.8447000 109.5827880
  17.8032110 108.2519660 110.9732780  11.6227470 112.7863120 109.0705510
  12.1372140 112.6971130 109.8727940  10.7796550 113.1322820 109.3633420
  13.5981870 113.0718460  98.4989510  13.4383010 112.7821400  99.3971340
  13.4328580 112.2958590  97.9634740   6.0770250 112.8516990 100.2761130
   5.9012730 111.9352530 100.0628930   5.2225990 113.2104280 100.5158930
  13.3008000 110.5806020  97.0587510  12.6073160 110.5783310  96.3989790
  14.0430860 110.1565340  96.6281680  12.8657930 112.2068730 101.1336000
  13.3214880 111.4258110 101.4474620  13.2050450 112.9175550 101.6777180
  17.6134740 101.1367580 111.4660440  16.9979010 101.6447250 110.9375900
  17.2931160 100.2365910 111.4086380   5.3879250  97.1090950 103.3287310
   4.9447400  97.8900490 102.9971830   5.9464240  97.4320840 104.0358250
   9.6749060  99.9759470 108.9322630   9.2128430 100.1842490 109.7442570
   9.2727170  99.1618820 108.6293300  14.6753570 101.1968420 110.0619290
  13.8247160 100.8974170 110.3828360  14.5155360 101.4410430 109.1503110
  11.7703280 102.6970170 112.1618080  12.0956690 101.8633920 111.8220310
  12.5583610 103.2198690 112.3096410   8.5038070  96.7301650  98.2093140
   7.8792250  96.7261520  98.9346450   8.4168190  95.8632610  97.8129110
   7.4255150  97.6538280 105.1876910   7.7227480  98.5601110 105.1068930
   7.9740710  97.1657060 104.5736480   5.1793470 102.2324520 101.0568560
   4.9534390 102.0161690 101.9615180   4.3986000 102.6652980 100.7114530
  12.4091230 102.2387890  99.6559210  11.8100120 102.9623690  99.4722830
  12.9570840 102.1764670  98.8735660   7.6192680 103.1310100 111.7228830
   7.5236280 102.1904830 111.5729230   8.4624660 103.3525170 111.3276900
  11.0156100 100.8751430 101.6862490  11.4085670 101.1923630 100.8731180
  11.3772950  99.9963310 101.8007010   2.7503220  99.5423770 109.8762610
   2.3566610 100.3898980 110.0835390   2.0621620  98.9050140 110.0671250
   9.3248270  99.6258740 112.9459350   8.6346590  99.4330940 113.5805440
  10.0680570  99.9093380 113.4783650  11.6011240 103.4657180 105.7813270
  10.8692360 103.9743990 106.1303370  11.2035580 102.6487160 105.4802050
   8.0388630 100.1411380 104.1865760   8.0424690  99.7001330 103.3370300
   8.9339750 100.4628710 104.2937580   3.8891010 100.0237870 103.1459970
   3.5491060 100.5013100 103.9027020   3.1268330  99.5702990 102.7861070
   8.1008780 101.1423460  97.1772520   8.2221600 101.1009940  98.1258340
   7.7157290 102.0047610  97.0219250  12.0637150  98.9190860 105.1936210
  12.0809890  99.3699510 106.0378060  11.8152730  98.0196500 105.4069650
   7.1130280 103.4524600  96.5755820   6.5447180 103.0042850  95.9491730
   7.8219280 103.8117380  96.0420970  15.4907900  96.3323040 111.0322590
  15.8153670  95.6012700 111.5580570  15.5264410  96.0136680 110.1303580
   2.1899460 107.3536620 110.4522550   1.8054250 106.7130290 111.0505510
   2.5011650 108.0572740 111.0217280   8.3396600 104.2013160 105.9331170
   8.7066730 103.7271730 106.6792510   8.1501660 105.0754730 106.2739510
   6.1295970 103.2421800 108.2515380   5.8253040 104.1213780 108.4765740
   7.0842430 103.3021590 108.2872820   4.6577760 107.4482790  98.8482230
   3.8840020 106.9080410  98.6880950   5.3872390 106.9289400  98.5099990
  15.4165740 106.4448150 104.6408620  16.1364860 106.9403440 104.2504730
  15.2147560 105.7666040 103.9962490  10.8775680  97.8386110  98.7838010
  10.0640290  97.3399280  98.7083320  10.6837630  98.6784360  98.3674360
  10.7984540 106.5157210 110.5277620  10.7321850 105.5952880 110.2735210
  10.1689680 106.6132650 111.2422260  13.5924070 102.2105760  97.0800170
  14.4803690 102.5222990  96.9051510  13.5629160 101.3378010  96.6880750
   4.7015160 107.1163170 102.4861040   5.2193830 106.3131430 102.4317930
   4.2499180 107.0542310 103.3277870   9.5884660 108.3829450  97.7588340
   9.9300360 109.1271680  97.2631660   8.7597370 108.6960570  98.1213170
   2.1859700 104.0824540 109.3986740   1.8274640 104.7478390 109.9860080
   1.8914260 103.2508090 109.7699360   5.3872820 104.5408780 112.2826290
   5.0872960 104.6865960 111.3854110   6.1584060 103.9814070 112.1899680
  10.7301270 109.3377780 110.2781420  10.7445810 108.4058740 110.0600330
  10.0226370 109.4237540 110.9171190  15.8638340 103.5217600  96.5480030
  15.7802060 103.9531820  95.6976470  16.5832530 103.9815950  96.9806850
  16.9412480 105.9785120 109.6250000  16.2160670 106.5713900 109.4279390
  17.4687940 105.9708660 108.8263370  16.8925590 110.3759860  99.2762160
  16.2501750 109.7215480  99.5505880  16.5056250 110.7814950  98.5002830
  12.4712070 107.7045290 103.1233850  12.8235890 107.1073420 102.4635220
  11.5874400 107.3789520 103.2942100   8.5575350 108.4642980 100.5304260
   9.2446480 109.0112190 100.9111850   7.7707770 109.0083710 100.5653870
   7.8602560 105.4689010 100.1429620   8.3165340 106.2794260 100.3689810
   7.5090770 105.1512150 100.9748110  10.1635170 110.9795350 107.3721920
  10.8077390 111.1854730 108.0495340  10.5264610 110.2183750 106.9192770
   3.7614340  95.8126660 100.6152140   3.6328970  95.8044560 101.5637060
   2.9376360  96.1509750 100.2643150  11.4367250 108.9827700 106.0899370
  12.0789480 108.2820860 106.2031540  11.9616600 109.7626140 105.9096260
  15.2822970 109.2676320  95.8138510  15.0560550 108.5506760  96.4063150
  14.8919170 109.0188760  94.9760260  13.2104870 109.7822600 109.2935430
  13.5461110 110.3689290 109.9713350  12.2905210 109.6515310 109.5233220
  14.8639220 107.1848260  97.4752670  14.5760920 107.6460950  98.2630550
  15.6591390 106.7246030  97.7436890   9.0393450 109.8313930 112.4623490
   8.7190320 109.1123170 113.0069180   8.3651810 110.5069000 112.5359550
   7.0807620 110.6774380  97.4056640   7.0717720 111.4104070  96.7901150
   6.1605980 110.4305960  97.4983600   2.6814260 105.8989270  98.1503400
   2.0742210 106.6388170  98.1598700   3.1563610 105.9888630  97.3241600
  12.2547050 100.0640090 107.8260290  12.6227870  99.2435300 108.1539860
  11.3945250 100.1241980 108.2415940  15.6209080  99.0197030  98.6347850
  14.9922240  99.1242700  97.9206080  15.1261000  99.2393810  99.4241730
  10.0667220 110.7402620  96.0681830  10.1679200 110.5366610  95.1383810
   9.1668960 110.4860900  96.2729610   7.5893110 101.2982980 100.0505730
   6.8809260 101.7669320 100.4919340   7.8737590 100.6404990 100.6850920
   9.2149040 102.7179680 108.0498260   9.7134290 103.1925500 108.7150110
   9.3571990 101.7943200 108.2568290  11.6208540  98.0233640 101.4901520
  11.4976320  98.0419770 100.5411030  12.5693100  98.0712580 101.6099920
   8.7085330 113.2588940 100.7629500   8.9626830 113.2210330  99.8408870
   7.7597810 113.1322270 100.7557750   5.7928130  99.6068060  97.4256440
   6.6418660 100.0438210  97.3596630   5.4259400  99.9188320  98.2528500
  16.4215900  98.9347640 108.8926650  15.9189500  99.6753040 109.2320460
  17.2372560  99.3231640 108.5763440  14.7137910 104.1780820 102.3388010
  13.7728050 104.1931050 102.5135700  15.0281980 103.3916780 102.7848310
   4.6919550 105.8600420  95.8991970   5.4582820 105.7481780  96.4617400
   4.7694240 105.1638390  95.2468740   3.3866310 103.2925490  96.5824860
   3.4669900 102.3453000  96.6942260   4.2786060 103.6232370  96.6885520
  16.7163490 111.3489670 104.0142270  16.8410910 112.1720840 104.4866080
  17.5829050 111.1380400 103.6666420   4.1881020 113.4420880 103.6859400
   4.9243500 112.8936340 103.9567970   4.5721940 114.3076890 103.5465390
   3.1939300 112.6266950 112.8744980   3.9952030 112.9479000 113.2880380
   2.6791120 112.2662530 113.5964890   7.2983330 112.6151190  95.5084970
   8.0911940 112.9040020  95.0566760   6.7787680 112.1843360  94.8297450
  12.0303930 108.7346820 112.8220390  11.4242090 108.7578420 112.0816140
  11.7258040 108.0029860 113.3587640  13.4604300 112.4627110 111.4329800
  14.4126050 112.3785130 111.3830040  13.3132520 113.1268820 112.1063590
  16.3513500 111.8421320  96.9321710  16.0655010 111.4286460  96.1175890
  16.1533050 112.7709030  96.8122230   7.8160730 107.8354600  95.3727320
   7.7111370 107.2206950  96.0988700   7.6484950 107.3120490  94.5890330
   7.9675050 106.5211400 111.3516550   7.2020720 107.0896400 111.2671220
   8.1491010 106.2287610 110.4584780  11.0563460 106.8974630  95.9769310
  10.5073560 107.3443930  96.6212050  11.6782720 106.3923880  96.5006980
  15.1098400 108.2516730 111.9091570  15.8507870 108.5892490 111.4059030
  14.3471080 108.4208790 111.3561340   2.9460190 103.2570000 112.7131100
   2.9865530 102.9583870 113.6216330   3.8005690 103.6577610 112.5538620
   6.7238580 105.8565550  97.8734610   7.1455000 105.6905420  98.7166000
   6.8489420 105.0465780  97.3789750   4.8866000 101.8362100 110.6805590
   4.3562460 101.3453050 110.0528930   5.5554070 102.2646300 110.1463520
   9.2366220 104.8803160  95.1211710   9.7571880 104.1652180  94.7552860
   9.8834620 105.5189030  95.4212220  13.7844060 106.3031560 110.4446780
  14.1985080 106.4576640 111.2937200  12.8495060 106.4286780 110.6072560
  14.2566230 103.6427720 112.4485930  14.8387000 102.8880040 112.3606410
  14.4328000 104.1735160 111.6717410   5.3738300  98.8024470 110.7602880
   5.2795170  98.1845220 110.0353750   4.7935690  99.5290760 110.5332790
   8.1399740  97.3597710 107.7930270   7.6917040  97.3821970 106.9475820
   7.5064940  96.9616730 108.3900570   8.5459290 106.2552040 108.4142710
   8.9647400 107.0984770 108.2418950   7.6267920 106.3924080 108.1849490
  10.8823190 103.9868220 109.7980550  11.0019400 103.3909360 110.5375390
  11.7417190 104.0237910 109.3781850  13.2211090 104.5405410 108.3743060
  12.6946310 105.0648030 107.7708200  13.5642430 105.1732800 109.0052790
   5.6197480 101.9298780  94.8192770   5.4186540 101.0666140  95.1806110
   5.4489530 101.8432140  93.8814370   6.3966710 112.5605050 109.5300440
   5.8587800 113.2851110 109.2109140   6.6500670 112.0835390 108.7397780
   7.6491960 100.5289570 111.0556370   8.2391650 100.2205420 111.7434190
   6.8312200 100.0569320 111.2116270  12.4685390 100.1455380 111.2889390
  11.7800910  99.4836920 111.2239380  13.1891410  99.6993650 111.7337850
  13.0985790  96.7407010  97.3479650  13.3788080  95.8974910  97.7039070
  12.3251520  96.9730120  97.8618400   4.4180280  99.0299400  94.8070650
   4.7206180  99.0366830  93.8989800   5.1574870  98.6797260  95.3038310
   9.2528920 113.7956260 109.7887090   9.1787620 114.6991400 110.0959460
   8.3507760 113.4768160 109.7609160   7.6365210  97.9734020  95.7926850
   7.2887210  97.2958010  95.2129300   7.8377980  97.5123530  96.6070240
   9.8014250 112.9614770  97.4113450  10.6965040 113.2999740  97.4332210
   9.8331880 112.2394180  96.7837730   3.4410410 108.3341820  95.6400450
   3.8785280 108.8771490  96.2958030   3.9258140 107.5088770  95.6496790
   5.2518130 109.4539860 100.7522680   4.9513670 109.3304830 101.6526590
   5.1455620 108.5948450 100.3438410  16.7808600 111.4918440 110.1179650
  16.1810590 111.5511000 109.3743570  16.9102500 110.5523420 110.2476500
  18.0210050 109.2336260  95.4549360  17.1903010 109.3012910  95.9256590
  18.1981880 110.1240380  95.1516220  17.4766510 105.9783740  97.9583560
  18.2385420 106.5480390  98.0643250  17.4920880 105.4110940  98.7291870
  18.4826480 106.8333840 102.8025490  18.8535310 106.0501160 102.3961460
  19.1228410 107.5222940 102.6242790  15.4660240 108.2170420 108.2155810
  14.6520080 108.6467580 108.4781600  15.8734440 108.8288830 107.6024860
  17.5285680 106.2718110  95.1156080  17.8034520 107.1796990  94.9875300
  17.3396420 106.2080640  96.0518070  13.9261290  99.2962960  96.4109710
  14.3446170  99.1093940  95.5706370  13.6197350  98.4442010  96.7212640
  17.4251020 104.2087100 100.1085510  17.0494620 103.4415030  99.6766800
  16.6954140 104.5909800 100.5960440   2.0146780 104.8874240 106.7294560
   2.3819820 104.8001640 107.6090580   1.4457600 104.1240790 106.6301420
  16.8150640 103.3558620 109.7425030  16.5836730 103.1271370 108.8422980
  17.0755190 104.2758170 109.6969920  15.2538710  98.5815050 112.5204730
  16.1308890  98.5898450 112.9038730  15.2659550  97.8445890 111.9097080
  16.7001980 102.4344590 103.4092750  17.2239460 101.9407240 102.7782920
  17.2861400 102.5694950 104.1540320  16.8791700 102.5184460 106.9312300
  15.9294410 102.4848000 107.0457290  17.0604710 103.4284570 106.6962070
   2.7336140 100.7686140  96.0410930   3.4427840 100.3469360  95.5558210
   2.0176080 100.8361370  95.4094280   2.3810300  96.8225470  95.0813580
   3.1038430  97.3634410  95.3994800   2.6534820  96.5488890  94.2055120
  16.1901950 101.6917940  99.3485160  16.6861070 101.4588810 100.1334040
  15.9918020 100.8529780  98.9322800   2.0702490  96.0731660 104.9836200
   2.7178680  95.5229040 104.5431360   2.4904330  96.3274810 105.8052010
  17.6189110 100.3278890 101.8822840  17.5088390 100.1734930 102.8205110
  18.3796700  99.7999830 101.6398250  15.9654830  96.2673020 108.3405840
  16.6027050  96.8807160 108.7065030  16.1129720  96.3033680 107.3955070
  18.5079380  98.1586810  95.1228980  19.4328690  98.0267990  94.9147270
  18.4855170  98.2379630  96.0765430  18.5817870  98.9297470  97.7485690
  17.7869370  98.8642590  98.2778600  18.7861150  99.8648110  97.7371040
  15.5236290 112.9689020 101.7424080  16.1195360 112.6473590 101.0658500
  15.7814440 112.4960840 102.5337350   1.8234490  96.2287330 107.7261520
   1.4749310  96.6851150 108.4919700   1.4922190  95.3344460 107.8083950
   3.4298860 109.4006930 111.8914710   3.3868490 109.0299840 112.7729170
   3.5609870 110.3384500 112.0316530   7.1304890 110.9566520 107.4924430
   6.8896250 111.2241080 106.6054950   8.0707530 111.1272250 107.5475290
   9.3359310  97.4199210 111.2480940   9.2748200  98.0121040 111.9976350
  10.2759690  97.3125170 111.1031200  11.9733870  97.0769270 110.8873230
  12.5874280  97.3948560 110.2254310  12.5183430  96.5917860 111.5069090
  18.3909050 112.9760900 108.2935070  17.8967330 113.3729770 107.5762200
  17.7822340 112.3510110 108.6872350   2.4955130  95.7563530 111.0012290
   3.0438120  95.5751580 110.2378400   2.5610440  94.9657640 111.5368600
   3.2686890 112.3469180 109.0112490   2.6747210 112.2153880 109.7502530
   3.2610730 111.5107320 108.5454590  12.7141910  95.6401410 107.2142520
  11.8401750  95.9736520 107.0115450  12.6052660  95.1674590 108.0394390
  13.6213890  97.8472280 108.5984240  13.2927250  97.0324040 108.2185970
  14.5696190  97.8042090 108.4749930  16.0748500 113.6184320 105.5721810
  15.6151470 114.3700130 105.1979830  15.4460960 112.8990790 105.5136610
   2.8999120 109.7127560 107.9620530   2.1733180 109.0932850 107.8946480
   2.9608270 110.1068170 107.0918610   6.5044220 111.9272560 104.7469940
   7.0209240 111.3159920 104.2218200   7.1541600 112.4301340 105.2380950
   9.2439720 112.8181050 105.5738920   9.5317530 112.5635350 104.6971930
   9.7562940 112.2658410 106.1644490  10.4616730  96.5571250 106.1535430
   9.6788520  97.0316750 106.4332190  10.1679660  95.6526080 106.0448610
  15.0137800  97.2594350 104.1984520  15.4545890  97.2039450 103.3506120
  14.7445390  98.1752360 104.2694700  16.8776370  96.8909590 102.2093340
  16.8164770  95.9470810 102.0624360  17.6568400  96.9989680 102.7546800
   1.8057140  96.8618730  98.6749150   2.5636500  96.9747610  98.1013180
   1.3434310  97.6987930  98.6292580   8.3470950  98.9758000 101.6651460
   7.5345460  98.6014890 101.3247340   8.8512590  98.2203080 101.9672650
  12.8495930  95.6400450 102.9034530  13.4525300  96.2120660 103.3783050
  12.1088920  96.2039890 102.6808430  15.9930530  96.0422010  98.1774810
  16.1881160  96.9405460  98.4442240  15.2060400  95.8109090  98.6707760
   2.7891820 111.7235180  98.6167430   2.2639440 112.1043210  97.9129390
   2.7136400 112.3485950  99.3377140   4.1782290  97.3882780  97.2151120
   4.7075050  96.6012580  97.0859070   4.8110610  98.0673970  97.4486650
   6.3720130  97.1257920 100.2696510   5.7422870  96.4245230 100.4366640
   5.8325270  97.8862050 100.0529670   9.3112080 113.7397150 112.9407120
  10.2379390 113.5041420 112.9843080   9.2962510 114.5669150 112.4593150
  17.5457140 113.2822720  99.9381370  17.7209330 112.5960460  99.2942290
  16.8478710 113.8069770  99.5458040   6.4975690  96.4041900 112.7049000
   6.2159960  96.9075500 111.9409820   6.8795390  95.6063650 112.3391130
   5.3884790 113.6717560  97.4916680   6.1203610 113.3876840  96.9440570
   5.6478460 113.4330840  98.3816060   4.5499580 109.7882290  97.4963010
   3.9208460 110.2567390  98.0448840   4.6647410 108.9431510  97.9309200
  13.0991150  95.8195480 113.2829470  12.9856600  96.1390090 114.1780990
  13.9160890  96.2207990 112.9866750  15.8789640 112.9667010 112.7648160
  16.6714960 112.4716240 112.5574120  16.1722790 113.6457150 113.3723770
  12.0049300 103.8387950  83.6464210  11.9243350 102.9242560  83.3755920
  11.5913720 104.3355020  82.9403920  10.1367340 105.6166970  85.5273480
   9.3609440 105.1367410  85.8172050  10.7880270 104.9372620  85.3529640
   4.1533170 105.9286780  86.4049240   3.3218050 105.6735490  86.8045750
   4.7614150 105.9997550  87.1407160  14.1574770 110.0227160  84.3072610
  13.6956300 109.2514400  84.6359780  14.9700320 110.0493230  84.8125060
   4.1334430 109.9626870  86.6007260   4.4362470 109.0724610  86.4217480
   4.8778020 110.5197090  86.3729510   2.5625120 100.8888670  80.1891630
   1.6741820 101.2304640  80.0871510   2.8466310 100.6888990  79.2972460
  10.3838080 112.3085170  83.9276600   9.7649520 112.7642670  83.3571040
  11.2389860 112.4636630  83.5266300   9.5776330 108.2924160  85.5343640
   9.5084610 107.3514100  85.3732770  10.3396190 108.3825570  86.1066210
   1.7683000  98.8978680  87.8600260   1.5885840  98.0004430  88.1403020
   1.3663080  99.4450550  88.5347210  10.6081500 101.0994540  85.7612570
  10.9846320 100.2266420  85.6486240  10.5101010 101.4353240  84.8703010
   4.7386510  99.4720170  81.2230010   4.8453260 100.3723900  81.5298770
   3.8278870  99.4238140  80.9324660  14.3905620  98.5944980  82.6940910
  15.2115240  98.1041550  82.7366390  14.4239700  99.1842640  83.4472750
   2.3869670 101.3939180  86.4682600   3.0679780 101.6577550  87.0870000
   2.0717720 100.5540050  86.8020610   6.5794240 102.4406540  85.5555190
   7.0872460 102.9387510  86.1960210   7.1107480 101.6641740  85.3794550
   4.8630340  97.0805100  89.8218610   4.8648780  97.5977490  89.0164510
   4.0334650  96.6035280  89.7988540  11.2501430 107.1924410  81.3208510
  10.6318700 107.6573860  80.7571230  11.7624680 107.8851890  81.7378020
   6.1133190 106.7200280  87.9992110   5.7802570 107.3469200  88.6413180
   6.2899870 107.2462160  87.2193780  14.6267100 100.5345360  85.4668450
  13.9222670 100.8230250  86.0471560  14.9879260 101.3445470  85.1068010
   4.5445670  98.7915060  87.8289060   4.8862480  99.6357110  87.5342930
   3.6061480  98.9398800  87.9454400   5.3252290 108.6881080  89.8141290
   5.9426290 109.3632160  89.5325740   4.4645410 109.0969060  89.7228790
  16.2429880 110.1520490  87.7295930  15.5593400 110.8219600  87.7212600
  16.7824170 110.3501140  86.9640790   8.2273560  96.2797330  84.1533650
   8.5348540  95.7244220  83.4369150   7.2974260  96.4141790  83.9706640
  13.7788620 111.9964620  86.4441110  13.7915780 111.5926910  85.5763370
  13.2263840 112.7711910  86.3402540  15.0734040 108.7180840  81.5331280
  14.9630370 107.7755170  81.6580700  15.0702290 109.0796480  82.4194040
  13.1774060 106.8994460  87.7723720  13.5942850 106.6854570  86.9377180
  13.9013880 107.1567250  88.3432340  10.6154320 104.3446160  80.8893770
   9.6883600 104.2783540  81.1182240  10.7679140 105.2826290  80.7749010
  10.6023400 100.6163160  77.8860930   9.6627070 100.7777120  77.9713390
  10.9206660 101.3348840  77.3396920  17.1236160 105.2981680  87.8639960
  16.2954790 105.3674770  87.3890090  17.7186640 105.8835990  87.3955790
  14.6451610 105.9066460  81.3929020  14.0264030 105.5686010  80.7455320
  14.6276060 105.2626220  82.1008210  14.0878170 102.0851000  88.8094830
  13.6749350 102.9104710  89.0634820  13.3554120 101.4996040  88.6171190
   6.2210960 104.8710900  83.6713500   5.8167960 104.1588150  83.1759400
   6.3074080 104.5264140  84.5601540   6.6892660 108.5578460  85.8352710
   6.3920950 107.9523930  85.1560490   7.6392480 108.5955770  85.7242070
   4.9339580 101.6454110  87.4512540   5.4854170 101.7549450  86.6765790
   5.4483090 102.0191710  88.1667770  14.7778270 112.1310330  89.4975810
  14.3008830 112.9382520  89.3048420  14.0940060 111.4788660  89.6502020
   5.7811090 108.2960150  92.4860510   4.8839620 108.5200120  92.7333910
   5.8063960 108.4195090  91.5371910  12.8216310 105.1453270  78.4001770
  13.2609590 104.3075700  78.2539590  13.5344730 105.7782670  78.4865910
   4.6082310 105.1673470  91.0617880   4.4690080 106.0396270  91.4305280
   3.7263670 104.8246280  90.9165820  10.9311690 110.0849340  82.3683010
  11.3707600 110.8273670  81.9538400  10.8698580 110.3275910  83.2921970
   6.4062660 111.1095170  93.2703030   6.3778090 111.5138120  92.4031460
   6.2427630 110.1805530  93.1074630  16.4033450  96.3996080  76.7142810
  16.0906110  96.4922910  77.6141880  17.1645920  96.9777110  76.6640240
   2.9215590 103.7655880  81.1720150   2.8013190 104.4917970  80.5601420
   2.6116480 102.9958790  80.6948060  18.3577480 111.8922270  94.5667200
  18.8337200 112.3705160  95.2456280  18.9784640 111.8239760  93.8412700
   1.8048590 108.6371210  83.3894970   1.3976670 108.7785800  82.5348570
   2.6961600 108.3531370  83.1866180  17.7610730 109.0835120  91.7267210
  17.8873790 108.8447000  90.8084390  17.8032110 108.2519660  92.1989290
  11.6227470 112.7863120  90.2962020  12.1372140 112.6971130  91.0984450
  10.7796550 113.1322820  90.5889930  13.5981870 113.0718460  79.7246020
  13.4383010 112.7821400  80.6227850  13.4328580 112.2958590  79.1891250
   6.0770250 112.8516990  81.5017640   5.9012730 111.9352530  81.2885440
   5.2225990 113.2104280  81.7415440  13.3008000 110.5806020  78.2844020
  12.6073160 110.5783310  77.6246300  14.0430860 110.1565340  77.8538190
  12.8657930 112.2068730  82.3592510  13.3214880 111.4258110  82.6731130
  13.2050450 112.9175550  82.9033690  17.6134740 101.1367580  92.6916950
  16.9979010 101.6447250  92.1632410  17.2931160 100.2365910  92.6342890
   5.3879250  97.1090950  84.5543820   4.9447400  97.8900490  84.2228340
   5.9464240  97.4320840  85.2614760   9.6749060  99.9759470  90.1579140
   9.2128430 100.1842490  90.9699080   9.2727170  99.1618820  89.8549810
  14.6753570 101.1968420  91.2875800  13.8247160 100.8974170  91.6084870
  14.5155360 101.4410430  90.3759620  11.7703280 102.6970170  93.3874590
  12.0956690 101.8633920  93.0476820  12.5583610 103.2198690  93.5352920
   8.5038070  96.7301650  79.4349650   7.8792250  96.7261520  80.1602960
   8.4168190  95.8632610  79.0385620   7.4255150  97.6538280  86.4133420
   7.7227480  98.5601110  86.3325440   7.9740710  97.1657060  85.7992990
   5.1793470 102.2324520  82.2825070   4.9534390 102.0161690  83.1871690
   4.3986000 102.6652980  81.9371040  12.4091230 102.2387890  80.8815720
  11.8100120 102.9623690  80.6979340  12.9570840 102.1764670  80.0992170
   7.6192680 103.1310100  92.9485340   7.5236280 102.1904830  92.7985740
   8.4624660 103.3525170  92.5533410  11.0156100 100.8751430  82.9119000
  11.4085670 101.1923630  82.0987690  11.3772950  99.9963310  83.0263520
   2.7503220  99.5423770  91.1019120   2.3566610 100.3898980  91.3091900
   2.0621620  98.9050140  91.2927760   9.3248270  99.6258740  94.1715860
   8.6346590  99.4330940  94.8061950  10.0680570  99.9093380  94.7040160
  11.6011240 103.4657180  87.0069780  10.8692360 103.9743990  87.3559880
  11.2035580 102.6487160  86.7058560   8.0388630 100.1411380  85.4122270
   8.0424690  99.7001330  84.5626810   8.9339750 100.4628710  85.5194090
   3.8891010 100.0237870  84.3716480   3.5491060 100.5013100  85.1283530
   3.1268330  99.5702990  84.0117580   8.1008780 101.1423460  78.4029030
   8.2221600 101.1009940  79.3514850   7.7157290 102.0047610  78.2475760
  12.0637150  98.9190860  86.4192720  12.0809890  99.3699510  87.2634570
  11.8152730  98.0196500  86.6326160   7.1130280 103.4524600  77.8012330
   6.5447180 103.0042850  77.1748240   7.8219280 103.8117380  77.2677480
  15.4907900  96.3323040  92.2579100  15.8153670  95.6012700  92.7837080
  15.5264410  96.0136680  91.3560090   2.1899460 107.3536620  91.6779060
   1.8054250 106.7130290  92.2762020   2.5011650 108.0572740  92.2473790
   8.3396600 104.2013160  87.1587680   8.7066730 103.7271730  87.9049020
   8.1501660 105.0754730  87.4996020   6.1295970 103.2421800  89.4771890
   5.8253040 104.1213780  89.7022250   7.0842430 103.3021590  89.5129330
   4.6577760 107.4482790  80.0738740   3.8840020 106.9080410  79.9137460
   5.3872390 106.9289400  79.7356500  15.4165740 106.4448150  85.8665130
  16.1364860 106.9403440  85.4761240  15.2147560 105.7666040  85.2219000
  10.8775680  97.8386110  80.0094520  10.0640290  97.3399280  79.9339830
  10.6837630  98.6784360  79.5930870  10.7984540 106.5157210  91.7534130
  10.7321850 105.5952880  91.4991720  10.1689680 106.6132650  92.4678770
  13.5924070 102.2105760  78.3056680  14.4803690 102.5222990  78.1308020
  13.5629160 101.3378010  77.9137260   4.7015160 107.1163170  83.7117550
   5.2193830 106.3131430  83.6574440   4.2499180 107.0542310  84.5534380
   9.5884660 108.3829450  78.9844850   9.9300360 109.1271680  78.4888170
   8.7597370 108.6960570  79.3469680   2.1859700 104.0824540  90.6243250
   1.8274640 104.7478390  91.2116590   1.8914260 103.2508090  90.9955870
   5.3872820 104.5408780  93.5082800   5.0872960 104.6865960  92.6110620
   6.1584060 103.9814070  93.4156190  10.7301270 109.3377780  91.5037930
  10.7445810 108.4058740  91.2856840  10.0226370 109.4237540  92.1427700
  15.8638340 103.5217600  77.7736540  15.7802060 103.9531820  76.9232980
  16.5832530 103.9815950  78.2063360  16.9412480 105.9785120  90.8506510
  16.2160670 106.5713900  90.6535900  17.4687940 105.9708660  90.0519880
  16.8925590 110.3759860  80.5018670  16.2501750 109.7215480  80.7762390
  16.5056250 110.7814950  79.7259340  12.4712070 107.7045290  84.3490360
  12.8235890 107.1073420  83.6891730  11.5874400 107.3789520  84.5198610
   8.5575350 108.4642980  81.7560770   9.2446480 109.0112190  82.1368360
   7.7707770 109.0083710  81.7910380   7.8602560 105.4689010  81.3686130
   8.3165340 106.2794260  81.5946320   7.5090770 105.1512150  82.2004620
  10.1635170 110.9795350  88.5978430  10.8077390 111.1854730  89.2751850
  10.5264610 110.2183750  88.1449280   3.7614340  95.8126660  81.8408650
   3.6328970  95.8044560  82.7893570   2.9376360  96.1509750  81.4899660
  11.4367250 108.9827700  87.3155880  12.0789480 108.2820860  87.4288050
  11.9616600 109.7626140  87.1352770  15.2822970 109.2676320  77.0395020
  15.0560550 108.5506760  77.6319660  14.8919170 109.0188760  76.2016770
  13.2104870 109.7822600  90.5191940  13.5461110 110.3689290  91.1969860
  12.2905210 109.6515310  90.7489730  14.8639220 107.1848260  78.7009180
  14.5760920 107.6460950  79.4887060  15.6591390 106.7246030  78.9693400
   9.0393450 109.8313930  93.6880000   8.7190320 109.1123170  94.2325690
   8.3651810 110.5069000  93.7616060   7.0807620 110.6774380  78.6313150
   7.0717720 111.4104070  78.0157660   6.1605980 110.4305960  78.7240110
   2.6814260 105.8989270  79.3759910   2.0742210 106.6388170  79.3855210
   3.1563610 105.9888630  78.5498110  12.2547050 100.0640090  89.0516800
  12.6227870  99.2435300  89.3796370  11.3945250 100.1241980  89.4672450
  15.6209080  99.0197030  79.8604360  14.9922240  99.1242700  79.1462590
  15.1261000  99.2393810  80.6498240  10.0667220 110.7402620  77.2938340
  10.1679200 110.5366610  76.3640320   9.1668960 110.4860900  77.4986120
   7.5893110 101.2982980  81.2762240   6.8809260 101.7669320  81.7175850
   7.8737590 100.6404990  81.9107430   9.2149040 102.7179680  89.2754770
   9.7134290 103.1925500  89.9406620   9.3571990 101.7943200  89.4824800
  11.6208540  98.0233640  82.7158030  11.4976320  98.0419770  81.7667540
  12.5693100  98.0712580  82.8356430   8.7085330 113.2588940  81.9886010
   8.9626830 113.2210330  81.0665380   7.7597810 113.1322270  81.9814260
   5.7928130  99.6068060  78.6512950   6.6418660 100.0438210  78.5853140
   5.4259400  99.9188320  79.4785010  16.4215900  98.9347640  90.1183160
  15.9189500  99.6753040  90.4576970  17.2372560  99.3231640  89.8019950
  14.7137910 104.1780820  83.5644520  13.7728050 104.1931050  83.7392210
  15.0281980 103.3916780  84.0104820   4.6919550 105.8600420  77.1248480
   5.4582820 105.7481780  77.6873910   4.7694240 105.1638390  76.4725250
   3.3866310 103.2925490  77.8081370   3.4669900 102.3453000  77.9198770
   4.2786060 103.6232370  77.9142030  16.7163490 111.3489670  85.2398780
  16.8410910 112.1720840  85.7122590  17.5829050 111.1380400  84.8922930
   4.1881020 113.4420880  84.9115910   4.9243500 112.8936340  85.1824480
   4.5721940 114.3076890  84.7721900   3.1939300 112.6266950  94.1001490
   3.9952030 112.9479000  94.5136890   2.6791120 112.2662530  94.8221400
   7.2983330 112.6151190  76.7341480   8.0911940 112.9040020  76.2823270
   6.7787680 112.1843360  76.0553960  12.0303930 108.7346820  94.0476900
  11.4242090 108.7578420  93.3072650  11.7258040 108.0029860  94.5844150
  13.4604300 112.4627110  92.6586310  14.4126050 112.3785130  92.6086550
  13.3132520 113.1268820  93.3320100  16.3513500 111.8421320  78.1578220
  16.0655010 111.4286460  77.3432400  16.1533050 112.7709030  78.0378740
   7.8160730 107.8354600  76.5983830   7.7111370 107.2206950  77.3245210
   7.6484950 107.3120490  75.8146840   7.9675050 106.5211400  92.5773060
   7.2020720 107.0896400  92.4927730   8.1491010 106.2287610  91.6841290
  11.0563460 106.8974630  77.2025820  10.5073560 107.3443930  77.8468560
  11.6782720 106.3923880  77.7263490  15.1098400 108.2516730  93.1348080
  15.8507870 108.5892490  92.6315540  14.3471080 108.4208790  92.5817850
   2.9460190 103.2570000  93.9387610   2.9865530 102.9583870  94.8472840
   3.8005690 103.6577610  93.7795130   6.7238580 105.8565550  79.0991120
   7.1455000 105.6905420  79.9422510   6.8489420 105.0465780  78.6046260
   4.8866000 101.8362100  91.9062100   4.3562460 101.3453050  91.2785440
   5.5554070 102.2646300  91.3720030   9.2366220 104.8803160  76.3468220
   9.7571880 104.1652180  75.9809370   9.8834620 105.5189030  76.6468730
  13.7844060 106.3031560  91.6703290  14.1985080 106.4576640  92.5193710
  12.8495060 106.4286780  91.8329070  14.2566230 103.6427720  93.6742440
  14.8387000 102.8880040  93.5862920  14.4328000 104.1735160  92.8973920
   5.3738300  98.8024470  91.9859390   5.2795170  98.1845220  91.2610260
   4.7935690  99.5290760  91.7589300   8.1399740  97.3597710  89.0186780
   7.6917040  97.3821970  88.1732330   7.5064940  96.9616730  89.6157080
   8.5459290 106.2552040  89.6399220   8.9647400 107.0984770  89.4675460
   7.6267920 106.3924080  89.4106000  10.8823190 103.9868220  91.0237060
  11.0019400 103.3909360  91.7631900  11.7417190 104.0237910  90.6038360
  13.2211090 104.5405410  89.5999570  12.6946310 105.0648030  88.9964710
  13.5642430 105.1732800  90.2309300   5.6197480 101.9298780  76.0449280
   5.4186540 101.0666140  76.4062620   5.4489530 101.8432140  75.1070880
   6.3966710 112.5605050  90.7556950   5.8587800 113.2851110  90.4365650
   6.6500670 112.0835390  89.9654290   7.6491960 100.5289570  92.2812880
   8.2391650 100.2205420  92.9690700   6.8312200 100.0569320  92.4372780
  12.4685390 100.1455380  92.5145900  11.7800910  99.4836920  92.4495890
  13.1891410  99.6993650  92.9594360  13.0985790  96.7407010  78.5736160
  13.3788080  95.8974910  78.9295580  12.3251520  96.9730120  79.0874910
   4.4180280  99.0299400  76.0327160   4.7206180  99.0366830  75.1246310
   5.1574870  98.6797260  76.5294820   9.2528920 113.7956260  91.0143600
   9.1787620 114.6991400  91.3215970   8.3507760 113.4768160  90.9865670
   7.6365210  97.9734020  77.0183360   7.2887210  97.2958010  76.4385810
   7.8377980  97.5123530  77.8326750   9.8014250 112.9614770  78.6369960
  10.6965040 113.2999740  78.6588720   9.8331880 112.2394180  78.0094240
   3.4410410 108.3341820  76.8656960   3.8785280 108.8771490  77.5214540
   3.9258140 107.5088770  76.8753300   5.2518130 109.4539860  81.9779190
   4.9513670 109.3304830  82.8783100   5.1455620 108.5948450  81.5694920
  16.7808600 111.4918440  91.3436160  16.1810590 111.5511000  90.6000080
  16.9102500 110.5523420  91.4733010  18.0210050 109.2336260  76.6805870
  17.1903010 109.3012910  77.1513100  18.1981880 110.1240380  76.3772730
  17.4766510 105.9783740  79.1840070  18.2385420 106.5480390  79.2899760
  17.4920880 105.4110940  79.9548380  18.4826480 106.8333840  84.0282000
  18.8535310 106.0501160  83.6217970  19.1228410 107.5222940  83.8499300
  15.4660240 108.2170420  89.4412320  14.6520080 108.6467580  89.7038110
  15.8734440 108.8288830  88.8281370  17.5285680 106.2718110  76.3412590
  17.8034520 107.1796990  76.2131810  17.3396420 106.2080640  77.2774580
  13.9261290  99.2962960  77.6366220  14.3446170  99.1093940  76.7962880
  13.6197350  98.4442010  77.9469150  17.4251020 104.2087100  81.3342020
  17.0494620 103.4415030  80.9023310  16.6954140 104.5909800  81.8216950
   2.0146780 104.8874240  87.9551070   2.3819820 104.8001640  88.8347090
   1.4457600 104.1240790  87.8557930  16.8150640 103.3558620  90.9681540
  16.5836730 103.1271370  90.0679490  17.0755190 104.2758170  90.9226430
  15.2538710  98.5815050  93.7461240  16.1308890  98.5898450  94.1295240
  15.2659550  97.8445890  93.1353590  16.8791700 102.5184460  88.1568810
  15.9294410 102.4848000  88.2713800  17.0604710 103.4284570  87.9218580
   2.7336140 100.7686140  77.2667440   3.4427840 100.3469360  76.7814720
   2.0176080 100.8361370  76.6350790   2.3810300  96.8225470  76.3070090
   3.1038430  97.3634410  76.6251310   2.6534820  96.5488890  75.4311630
  16.1901950 101.6917940  80.5741670  16.6861070 101.4588810  81.3590550
  15.9918020 100.8529780  80.1579310   2.0702490  96.0731660  86.2092710
   2.7178680  95.5229040  85.7687870   2.4904330  96.3274810  87.0308520
  15.9654830  96.2673020  89.5662350  16.6027050  96.8807160  89.9321540
  16.1129720  96.3033680  88.6211580  18.5079380  98.1586810  76.3485490
  19.4328690  98.0267990  76.1403780  18.4855170  98.2379630  77.3021940
  18.5817870  98.9297470  78.9742200  17.7869370  98.8642590  79.5035110
  18.7861150  99.8648110  78.9627550  15.5236290 112.9689020  82.9680590
  16.1195360 112.6473590  82.2915010  15.7814440 112.4960840  83.7593860
   1.8234490  96.2287330  88.9518030   1.4749310  96.6851150  89.7176210
   1.4922190  95.3344460  89.0340460   3.4298860 109.4006930  93.1171220
   3.3868490 109.0299840  93.9985680   3.5609870 110.3384500  93.2573040
   7.1304890 110.9566520  88.7180940   6.8896250 111.2241080  87.8311460
   8.0707530 111.1272250  88.7731800   9.3359310  97.4199210  92.4737450
   9.2748200  98.0121040  93.2232860  10.2759690  97.3125170  92.3287710
  11.9733870  97.0769270  92.1129740  12.5874280  97.3948560  91.4510820
  12.5183430  96.5917860  92.7325600  18.3909050 112.9760900  89.5191580
  17.8967330 113.3729770  88.8018710  17.7822340 112.3510110  89.9128860
   2.4955130  95.7563530  92.2268800   3.0438120  95.5751580  91.4634910
   2.5610440  94.9657640  92.7625110   3.2686890 112.3469180  90.2369000
   2.6747210 112.2153880  90.9759040   3.2610730 111.5107320  89.7711100
  12.7141910  95.6401410  88.4399030  11.8401750  95.9736520  88.2371960
  12.6052660  95.1674590  89.2650900  13.6213890  97.8472280  89.8240750
  13.2927250  97.0324040  89.4442480  14.5696190  97.8042090  89.7006440
  16.0748500 113.6184320  86.7978320  15.6151470 114.3700130  86.4236340
  15.4460960 112.8990790  86.7393120   2.8999120 109.7127560  89.1877040
   2.1733180 109.0932850  89.1202990   2.9608270 110.1068170  88.3175120
   6.5044220 111.9272560  85.9726450   7.0209240 111.3159920  85.4474710
   7.1541600 112.4301340  86.4637460   9.2439720 112.8181050  86.7995430
   9.5317530 112.5635350  85.9228440   9.7562940 112.2658410  87.3901000
  10.4616730  96.5571250  87.3791940   9.6788520  97.0316750  87.6588700
  10.1679660  95.6526080  87.2705120  15.0137800  97.2594350  85.4241030
  15.4545890  97.2039450  84.5762630  14.7445390  98.1752360  85.4951210
  16.8776370  96.8909590  83.4349850  16.8164770  95.9470810  83.2880870
  17.6568400  96.9989680  83.9803310   1.8057140  96.8618730  79.9005660
   2.5636500  96.9747610  79.3269690   1.3434310  97.6987930  79.8549090
   8.3470950  98.9758000  82.8907970   7.5345460  98.6014890  82.5503850
   8.8512590  98.2203080  83.1929160  12.8495930  95.6400450  84.1291040
  13.4525300  96.2120660  84.6039560  12.1088920  96.2039890  83.9064940
  15.9930530  96.0422010  79.4031320  16.1881160  96.9405460  79.6698750
  15.2060400  95.8109090  79.8964270   2.7891820 111.7235180  79.8423940
   2.2639440 112.1043210  79.1385900   2.7136400 112.3485950  80.5633650
   4.1782290  97.3882780  78.4407630   4.7075050  96.6012580  78.3115580
   4.8110610  98.0673970  78.6743160   6.3720130  97.1257920  81.4953020
   5.7422870  96.4245230  81.6623150   5.8325270  97.8862050  81.2786180
   9.3112080 113.7397150  94.1663630  10.2379390 113.5041420  94.2099590
   9.2962510 114.5669150  93.6849660  17.5457140 113.2822720  81.1637880
  17.7209330 112.5960460  80.5198800  16.8478710 113.8069770  80.7714550
   6.4975690  96.4041900  93.9305510   6.2159960  96.9075500  93.1666330
   6.8795390  95.6063650  93.5647640   5.3884790 113.6717560  78.7173190
   6.1203610 113.3876840  78.1697080   5.6478460 113.4330840  79.6072570
   4.5499580 109.7882290  78.7219520   3.9208460 110.2567390  79.2705350
   4.6647410 108.9431510  79.1565710  13.0991150  95.8195480  94.5085980
  12.9856600  96.1390090  95.4037500  13.9160890  96.2207990  94.2123260
  15.8789640 112.9667010  93.9904670  16.6714960 112.4716240  93.7830630
  16.1722790 113.6457150  94.5980280  12.0049300 103.8387950  64.8720720
  11.9243350 102.9242560  64.6012430  11.5913720 104.3355020  64.1660430
  10.1367340 105.6166970  66.7529990   9.3609440 105.1367410  67.0428560
  10.7880270 104.9372620  66.5786150   4.1533170 105.9286780  67.6305750
   3.3218050 105.6735490  68.0302260   4.7614150 105.9997550  68.3663670
  14.1574770 110.0227160  65.5329120  13.6956300 109.2514400  65.8616290
  14.9700320 110.0493230  66.0381570   4.1334430 109.9626870  67.8263770
   4.4362470 109.0724610  67.6473990   4.8778020 110.5197090  67.5986020
   2.5625120 100.8888670  61.4148140   1.6741820 101.2304640  61.3128020
   2.8466310 100.6888990  60.5228970  10.3838080 112.3085170  65.1533110
   9.7649520 112.7642670  64.5827550  11.2389860 112.4636630  64.7522810
   9.5776330 108.2924160  66.7600150   9.5084610 107.3514100  66.5989280
  10.3396190 108.3825570  67.3322720   1.7683000  98.8978680  69.0856770
   1.5885840  98.0004430  69.3659530   1.3663080  99.4450550  69.7603720
  10.6081500 101.0994540  66.9869080  10.9846320 100.2266420  66.8742750
  10.5101010 101.4353240  66.0959520   4.7386510  99.4720170  62.4486520
   4.8453260 100.3723900  62.7555280   3.8278870  99.4238140  62.1581170
  14.3905620  98.5944980  63.9197420  15.2115240  98.1041550  63.9622900
  14.4239700  99.1842640  64.6729260   2.3869670 101.3939180  67.6939110
   3.0679780 101.6577550  68.3126510   2.0717720 100.5540050  68.0277120
   6.5794240 102.4406540  66.7811700   7.0872460 102.9387510  67.4216720
   7.1107480 101.6641740  66.6051060   4.8630340  97.0805100  71.0475120
   4.8648780  97.5977490  70.2421020   4.0334650  96.6035280  71.0245050
  11.2501430 107.1924410  62.5465020  10.6318700 107.6573860  61.9827740
  11.7624680 107.8851890  62.9634530   6.1133190 106.7200280  69.2248620
   5.7802570 107.3469200  69.8669690   6.2899870 107.2462160  68.4450290
  14.6267100 100.5345360  66.6924960  13.9222670 100.8230250  67.2728070
  14.9879260 101.3445470  66.3324520   4.5445670  98.7915060  69.0545570
   4.8862480  99.6357110  68.7599440   3.6061480  98.9398800  69.1710910
   5.3252290 108.6881080  71.0397800   5.9426290 109.3632160  70.7582250
   4.4645410 109.0969060  70.9485300  16.2429880 110.1520490  68.9552440
  15.5593400 110.8219600  68.9469110  16.7824170 110.3501140  68.1897300
   8.2273560  96.2797330  65.3790160   8.5348540  95.7244220  64.6625660
   7.2974260  96.4141790  65.1963150  13.7788620 111.9964620  67.6697620
  13.7915780 111.5926910  66.8019880  13.2263840 112.7711910  67.5659050
  15.0734040 108.7180840  62.7587790  14.9630370 107.7755170  62.8837210
  15.0702290 109.0796480  63.6450550  13.1774060 106.8994460  68.9980230
  13.5942850 106.6854570  68.1633690  13.9013880 107.1567250  69.5688850
  10.6154320 104.3446160  62.1150280   9.6883600 104.2783540  62.3438750
  10.7679140 105.2826290  62.0005520  10.6023400 100.6163160  59.1117440
   9.6627070 100.7777120  59.1969900  10.9206660 101.3348840  58.5653430
  17.1236160 105.2981680  69.0896470  16.2954790 105.3674770  68.6146600
  17.7186640 105.8835990  68.6212300  14.6451610 105.9066460  62.6185530
  14.0264030 105.5686010  61.9711830  14.6276060 105.2626220  63.3264720
  14.0878170 102.0851000  70.0351340  13.6749350 102.9104710  70.2891330
  13.3554120 101.4996040  69.8427700   6.2210960 104.8710900  64.8970010
   5.8167960 104.1588150  64.4015910   6.3074080 104.5264140  65.7858050
   6.6892660 108.5578460  67.0609220   6.3920950 107.9523930  66.3817000
   7.6392480 108.5955770  66.9498580   4.9339580 101.6454110  68.6769050
   5.4854170 101.7549450  67.9022300   5.4483090 102.0191710  69.3924280
  14.7778270 112.1310330  70.7232320  14.3008830 112.9382520  70.5304930
  14.0940060 111.4788660  70.8758530   5.7811090 108.2960150  73.7117020
   4.8839620 108.5200120  73.9590420   5.8063960 108.4195090  72.7628420
  12.8216310 105.1453270  59.6258280  13.2609590 104.3075700  59.4796100
  13.5344730 105.7782670  59.7122420   4.6082310 105.1673470  72.2874390
   4.4690080 106.0396270  72.6561790   3.7263670 104.8246280  72.1422330
  10.9311690 110.0849340  63.5939520  11.3707600 110.8273670  63.1794910
  10.8698580 110.3275910  64.5178480   6.4062660 111.1095170  74.4959540
   6.3778090 111.5138120  73.6287970   6.2427630 110.1805530  74.3331140
  16.4033450  96.3996080  57.9399320  16.0906110  96.4922910  58.8398390
  17.1645920  96.9777110  57.8896750   2.9215590 103.7655880  62.3976660
   2.8013190 104.4917970  61.7857930   2.6116480 102.9958790  61.9204570
  18.3577480 111.8922270  75.7923710  18.8337200 112.3705160  76.4712790
  18.9784640 111.8239760  75.0669210   1.8048590 108.6371210  64.6151480
   1.3976670 108.7785800  63.7605080   2.6961600 108.3531370  64.4122690
  17.7610730 109.0835120  72.9523720  17.8873790 108.8447000  72.0340900
  17.8032110 108.2519660  73.4245800  11.6227470 112.7863120  71.5218530
  12.1372140 112.6971130  72.3240960  10.7796550 113.1322820  71.8146440
  13.5981870 113.0718460  60.9502530  13.4383010 112.7821400  61.8484360
  13.4328580 112.2958590  60.4147760   6.0770250 112.8516990  62.7274150
   5.9012730 111.9352530  62.5141950   5.2225990 113.2104280  62.9671950
  13.3008000 110.5806020  59.5100530  12.6073160 110.5783310  58.8502810
  14.0430860 110.1565340  59.0794700  12.8657930 112.2068730  63.5849020
  13.3214880 111.4258110  63.8987640  13.2050450 112.9175550  64.1290200
  17.6134740 101.1367580  73.9173460  16.9979010 101.6447250  73.3888920
  17.2931160 100.2365910  73.8599400   5.3879250  97.1090950  65.7800330
   4.9447400  97.8900490  65.4484850   5.9464240  97.4320840  66.4871270
   9.6749060  99.9759470  71.3835650   9.2128430 100.1842490  72.1955590
   9.2727170  99.1618820  71.0806320  14.6753570 101.1968420  72.5132310
  13.8247160 100.8974170  72.8341380  14.5155360 101.4410430  71.6016130
  11.7703280 102.6970170  74.6131100  12.0956690 101.8633920  74.2733330
  12.5583610 103.2198690  74.7609430   8.5038070  96.7301650  60.6606160
   7.8792250  96.7261520  61.3859470   8.4168190  95.8632610  60.2642130
   7.4255150  97.6538280  67.6389930   7.7227480  98.5601110  67.5581950
   7.9740710  97.1657060  67.0249500   5.1793470 102.2324520  63.5081580
   4.9534390 102.0161690  64.4128200   4.3986000 102.6652980  63.1627550
  12.4091230 102.2387890  62.1072230  11.8100120 102.9623690  61.9235850
  12.9570840 102.1764670  61.3248680   7.6192680 103.1310100  74.1741850
   7.5236280 102.1904830  74.0242250   8.4624660 103.3525170  73.7789920
  11.0156100 100.8751430  64.1375510  11.4085670 101.1923630  63.3244200
  11.3772950  99.9963310  64.2520030   2.7503220  99.5423770  72.3275630
   2.3566610 100.3898980  72.5348410   2.0621620  98.9050140  72.5184270
   9.3248270  99.6258740  75.3972370   8.6346590  99.4330940  76.0318460
  10.0680570  99.9093380  75.9296670  11.6011240 103.4657180  68.2326290
  10.8692360 103.9743990  68.5816390  11.2035580 102.6487160  67.9315070
   8.0388630 100.1411380  66.6378780   8.0424690  99.7001330  65.7883320
   8.9339750 100.4628710  66.7450600   3.8891010 100.0237870  65.5972990
   3.5491060 100.5013100  66.3540040   3.1268330  99.5702990  65.2374090
   8.1008780 101.1423460  59.6285540   8.2221600 101.1009940  60.5771360
   7.7157290 102.0047610  59.4732270  12.0637150  98.9190860  67.6449230
  12.0809890  99.3699510  68.4891080  11.8152730  98.0196500  67.8582670
   7.1130280 103.4524600  59.0268840   6.5447180 103.0042850  58.4004750
   7.8219280 103.8117380  58.4933990  15.4907900  96.3323040  73.4835610
  15.8153670  95.6012700  74.0093590  15.5264410  96.0136680  72.5816600
   2.1899460 107.3536620  72.9035570   1.8054250 106.7130290  73.5018530
   2.5011650 108.0572740  73.4730300   8.3396600 104.2013160  68.3844190
   8.7066730 103.7271730  69.1305530   8.1501660 105.0754730  68.7252530
   6.1295970 103.2421800  70.7028400   5.8253040 104.1213780  70.9278760
   7.0842430 103.3021590  70.7385840   4.6577760 107.4482790  61.2995250
   3.8840020 106.9080410  61.1393970   5.3872390 106.9289400  60.9613010
  15.4165740 106.4448150  67.0921640  16.1364860 106.9403440  66.7017750
  15.2147560 105.7666040  66.4475510  10.8775680  97.8386110  61.2351030
  10.0640290  97.3399280  61.1596340  10.6837630  98.6784360  60.8187380
  10.7984540 106.5157210  72.9790640  10.7321850 105.5952880  72.7248230
  10.1689680 106.6132650  73.6935280  13.5924070 102.2105760  59.5313190
  14.4803690 102.5222990  59.3564530  13.5629160 101.3378010  59.1393770
   4.7015160 107.1163170  64.9374060   5.2193830 106.3131430  64.8830950
   4.2499180 107.0542310  65.7790890   9.5884660 108.3829450  60.2101360
   9.9300360 109.1271680  59.7144680   8.7597370 108.6960570  60.5726190
   2.1859700 104.0824540  71.8499760   1.8274640 104.7478390  72.4373100
   1.8914260 103.2508090  72.2212380   5.3872820 104.5408780  74.7339310
   5.0872960 104.6865960  73.8367130   6.1584060 103.9814070  74.6412700
  10.7301270 109.3377780  72.7294440  10.7445810 108.4058740  72.5113350
  10.0226370 109.4237540  73.3684210  15.8638340 103.5217600  58.9993050
  15.7802060 103.9531820  58.1489490  16.5832530 103.9815950  59.4319870
  16.9412480 105.9785120  72.0763020  16.2160670 106.5713900  71.8792410
  17.4687940 105.9708660  71.2776390  16.8925590 110.3759860  61.7275180
  16.2501750 109.7215480  62.0018900  16.5056250 110.7814950  60.9515850
  12.4712070 107.7045290  65.5746870  12.8235890 107.1073420  64.9148240
  11.5874400 107.3789520  65.7455120   8.5575350 108.4642980  62.9817280
   9.2446480 109.0112190  63.3624870   7.7707770 109.0083710  63.0166890
   7.8602560 105.4689010  62.5942640   8.3165340 106.2794260  62.8202830
   7.5090770 105.1512150  63.4261130  10.1635170 110.9795350  69.8234940
  10.8077390 111.1854730  70.5008360  10.5264610 110.2183750  69.3705790
   3.7614340  95.8126660  63.0665160   3.6328970  95.8044560  64.0150080
   2.9376360  96.1509750  62.7156170  11.4367250 108.9827700  68.5412390
  12.0789480 108.2820860  68.6544560  11.9616600 109.7626140  68.3609280
  15.2822970 109.2676320  58.2651530  15.0560550 108.5506760  58.8576170
  14.8919170 109.0188760  57.4273280  13.2104870 109.7822600  71.7448450
  13.5461110 110.3689290  72.4226370  12.2905210 109.6515310  71.9746240
  14.8639220 107.1848260  59.9265690  14.5760920 107.6460950  60.7143570
  15.6591390 106.7246030  60.1949910   9.0393450 109.8313930  74.9136510
   8.7190320 109.1123170  75.4582200   8.3651810 110.5069000  74.9872570
   7.0807620 110.6774380  59.8569660   7.0717720 111.4104070  59.2414170
   6.1605980 110.4305960  59.9496620   2.6814260 105.8989270  60.6016420
   2.0742210 106.6388170  60.6111720   3.1563610 105.9888630  59.7754620
  12.2547050 100.0640090  70.2773310  12.6227870  99.2435300  70.6052880
  11.3945250 100.1241980  70.6928960  15.6209080  99.0197030  61.0860870
  14.9922240  99.1242700  60.3719100  15.1261000  99.2393810  61.8754750
  10.0667220 110.7402620  58.5194850  10.1679200 110.5366610  57.5896830
   9.1668960 110.4860900  58.7242630   7.5893110 101.2982980  62.5018750
   6.8809260 101.7669320  62.9432360   7.8737590 100.6404990  63.1363940
   9.2149040 102.7179680  70.5011280   9.7134290 103.1925500  71.1663130
   9.3571990 101.7943200  70.7081310  11.6208540  98.0233640  63.9414540
  11.4976320  98.0419770  62.9924050  12.5693100  98.0712580  64.0612940
   8.7085330 113.2588940  63.2142520   8.9626830 113.2210330  62.2921890
   7.7597810 113.1322270  63.2070770   5.7928130  99.6068060  59.8769460
   6.6418660 100.0438210  59.8109650   5.4259400  99.9188320  60.7041520
  14.7137910 104.1780820  64.7901030  13.7728050 104.1931050  64.9648720
  15.0281980 103.3916780  65.2361330   4.6919550 105.8600420  58.3504990
   5.4582820 105.7481780  58.9130420   4.7694240 105.1638390  57.6981760
   3.3866310 103.2925490  59.0337880   3.4669900 102.3453000  59.1455280
   4.2786060 103.6232370  59.1398540  16.7163490 111.3489670  66.4655290
  16.8410910 112.1720840  66.9379100  17.5829050 111.1380400  66.1179440
   4.1881020 113.4420880  66.1372420   4.9243500 112.8936340  66.4080990
   4.5721940 114.3076890  65.9978410   3.1939300 112.6266950  75.3258000
   3.9952030 112.9479000  75.7393400   2.6791120 112.2662530  76.0477910
   7.2983330 112.6151190  57.9597990   8.0911940 112.9040020  57.5079780
   6.7787680 112.1843360  57.2810470  12.0303930 108.7346820  75.2733410
  11.4242090 108.7578420  74.5329160  11.7258040 108.0029860  75.8100660
  13.4604300 112.4627110  73.8842820  14.4126050 112.3785130  73.8343060
  13.3132520 113.1268820  74.5576610  16.3513500 111.8421320  59.3834730
  16.0655010 111.4286460  58.5688910  16.1533050 112.7709030  59.2635250
   7.8160730 107.8354600  57.8240340   7.7111370 107.2206950  58.5501720
   7.6484950 107.3120490  57.0403350   7.9675050 106.5211400  73.8029570
   7.2020720 107.0896400  73.7184240   8.1491010 106.2287610  72.9097800
  11.0563460 106.8974630  58.4282330  10.5073560 107.3443930  59.0725070
  11.6782720 106.3923880  58.9520000  15.1098400 108.2516730  74.3604590
  15.8507870 108.5892490  73.8572050  14.3471080 108.4208790  73.8074360
   2.9460190 103.2570000  75.1644120   2.9865530 102.9583870  76.0729350
   3.8005690 103.6577610  75.0051640   6.7238580 105.8565550  60.3247630
   7.1455000 105.6905420  61.1679020   6.8489420 105.0465780  59.8302770
   4.8866000 101.8362100  73.1318610   4.3562460 101.3453050  72.5041950
   5.5554070 102.2646300  72.5976540   9.2366220 104.8803160  57.5724730
   9.7571880 104.1652180  57.2065880   9.8834620 105.5189030  57.8725240
  13.7844060 106.3031560  72.8959800  14.1985080 106.4576640  73.7450220
  12.8495060 106.4286780  73.0585580  14.2566230 103.6427720  74.8998950
  14.8387000 102.8880040  74.8119430  14.4328000 104.1735160  74.1230430
   5.3738300  98.8024470  73.2115900   5.2795170  98.1845220  72.4866770
   4.7935690  99.5290760  72.9845810   8.1399740  97.3597710  70.2443290
   7.6917040  97.3821970  69.3988840   7.5064940  96.9616730  70.8413590
   8.5459290 106.2552040  70.8655730   8.9647400 107.0984770  70.6931970
   7.6267920 106.3924080  70.6362510  10.8823190 103.9868220  72.2493570
  11.0019400 103.3909360  72.9888410  11.7417190 104.0237910  71.8294870
  13.2211090 104.5405410  70.8256080  12.6946310 105.0648030  70.2221220
  13.5642430 105.1732800  71.4565810   5.6197480 101.9298780  57.2705790
   5.4186540 101.0666140  57.6319130   5.4489530 101.8432140  56.3327390
   6.3966710 112.5605050  71.9813460   5.8587800 113.2851110  71.6622160
   6.6500670 112.0835390  71.1910800   7.6491960 100.5289570  73.5069390
   8.2391650 100.2205420  74.1947210   6.8312200 100.0569320  73.6629290
  12.4685390 100.1455380  73.7402410  11.7800910  99.4836920  73.6752400
  13.1891410  99.6993650  74.1850870  13.0985790  96.7407010  59.7992670
  13.3788080  95.8974910  60.1552090  12.3251520  96.9730120  60.3131420
   4.4180280  99.0299400  57.2583670   4.7206180  99.0366830  56.3502820
   5.1574870  98.6797260  57.7551330   9.2528920 113.7956260  72.2400110
   9.1787620 114.6991400  72.5472480   8.3507760 113.4768160  72.2122180
   7.6365210  97.9734020  58.2439870   7.2887210  97.2958010  57.6642320
   7.8377980  97.5123530  59.0583260   9.8014250 112.9614770  59.8626470
  10.6965040 113.2999740  59.8845230   9.8331880 112.2394180  59.2350750
   3.4410410 108.3341820  58.0913470   3.8785280 108.8771490  58.7471050
   3.9258140 107.5088770  58.1009810   5.2518130 109.4539860  63.2035700
   4.9513670 109.3304830  64.1039610   5.1455620 108.5948450  62.7951430
  16.7808600 111.4918440  72.5692670  16.1810590 111.5511000  71.8256590
  16.9102500 110.5523420  72.6989520  18.0210050 109.2336260  57.9062380
  17.1903010 109.3012910  58.3769610  18.1981880 110.1240380  57.6029240
  17.4766510 105.9783740  60.4096580  18.2385420 106.5480390  60.5156270
  17.4920880 105.4110940  61.1804890  18.4826480 106.8333840  65.2538510
  18.8535310 106.0501160  64.8474480  19.1228410 107.5222940  65.0755810
  15.4660240 108.2170420  70.6668830  14.6520080 108.6467580  70.9294620
  15.8734440 108.8288830  70.0537880  17.5285680 106.2718110  57.5669100
  17.8034520 107.1796990  57.4388320  17.3396420 106.2080640  58.5031090
  13.9261290  99.2962960  58.8622730  14.3446170  99.1093940  58.0219390
  13.6197350  98.4442010  59.1725660  17.4251020 104.2087100  62.5598530
  17.0494620 103.4415030  62.1279820  16.6954140 104.5909800  63.0473460
   2.0146780 104.8874240  69.1807580   2.3819820 104.8001640  70.0603600
   1.4457600 104.1240790  69.0814440  16.8150640 103.3558620  72.1938050
  16.5836730 103.1271370  71.2936000  17.0755190 104.2758170  72.1482940
  15.2538710  98.5815050  74.9717750  16.1308890  98.5898450  75.3551750
  15.2659550  97.8445890  74.3610100  16.7001980 102.4344590  65.8605770
  17.2239460 101.9407240  65.2295940  17.2861400 102.5694950  66.6053340
  16.8791700 102.5184460  69.3825320  15.9294410 102.4848000  69.4970310
  17.0604710 103.4284570  69.1475090   2.7336140 100.7686140  58.4923950
   3.4427840 100.3469360  58.0071230   2.0176080 100.8361370  57.8607300
   2.3810300  96.8225470  57.5326600   3.1038430  97.3634410  57.8507820
   2.6534820  96.5488890  56.6568140  16.1901950 101.6917940  61.7998180
  16.6861070 101.4588810  62.5847060  15.9918020 100.8529780  61.3835820
   2.0702490  96.0731660  67.4349220   2.7178680  95.5229040  66.9944380
   2.4904330  96.3274810  68.2565030  17.6189110 100.3278890  64.3335860
  17.5088390 100.1734930  65.2718130  18.3796700  99.7999830  64.0911270
  18.5079380  98.1586810  57.5742000  19.4328690  98.0267990  57.3660290
  18.4855170  98.2379630  58.5278450  18.5817870  98.9297470  60.1998710
  17.7869370  98.8642590  60.7291620  18.7861150  99.8648110  60.1884060
  15.5236290 112.9689020  64.1937100  16.1195360 112.6473590  63.5171520
  15.7814440 112.4960840  64.9850370   1.8234490  96.2287330  70.1774540
   1.4749310  96.6851150  70.9432720   1.4922190  95.3344460  70.2596970
   3.4298860 109.4006930  74.3427730   3.3868490 109.0299840  75.2242190
   3.5609870 110.3384500  74.4829550   7.1304890 110.9566520  69.9437450
   6.8896250 111.2241080  69.0567970   8.0707530 111.1272250  69.9988310
   9.3359310  97.4199210  73.6993960   9.2748200  98.0121040  74.4489370
  10.2759690  97.3125170  73.5544220  11.9733870  97.0769270  73.3386250
  12.5874280  97.3948560  72.6767330  12.5183430  96.5917860  73.9582110
  18.3909050 112.9760900  70.7448090  17.8967330 113.3729770  70.0275220
  17.7822340 112.3510110  71.1385370   2.4955130  95.7563530  73.4525310
   3.0438120  95.5751580  72.6891420   2.5610440  94.9657640  73.9881620
   3.2686890 112.3469180  71.4625510   2.6747210 112.2153880  72.2015550
   3.2610730 111.5107320  70.9967610  12.7141910  95.6401410  69.6655540
  11.8401750  95.9736520  69.4628470  12.6052660  95.1674590  70.4907410
  13.6213890  97.8472280  71.0497260  13.2927250  97.0324040  70.6698990
  14.5696190  97.8042090  70.9262950  16.0748500 113.6184320  68.0234830
  15.6151470 114.3700130  67.6492850  15.4460960 112.8990790  67.9649630
   2.8999120 109.7127560  70.4133550   2.1733180 109.0932850  70.3459500
   2.9608270 110.1068170  69.5431630   6.5044220 111.9272560  67.1982960
   7.0209240 111.3159920  66.6731220   7.1541600 112.4301340  67.6893970
   9.2439720 112.8181050  68.0251940   9.5317530 112.5635350  67.1484950
   9.7562940 112.2658410  68.6157510  10.4616730  96.5571250  68.6048450
   9.6788520  97.0316750  68.8845210  10.1679660  95.6526080  68.4961630
   1.8057140  96.8618730  61.1262170   2.5636500  96.9747610  60.5526200
   1.3434310  97.6987930  61.0805600   8.3470950  98.9758000  64.1164480
   7.5345460  98.6014890  63.7760360   8.8512590  98.2203080  64.4185670
  15.9930530  96.0422010  60.6287830  16.1881160  96.9405460  60.8955260
  15.2060400  95.8109090  61.1220780   2.7891820 111.7235180  61.0680450
   2.2639440 112.1043210  60.3642410   2.7136400 112.3485950  61.7890160
   4.1782290  97.3882780  59.6664140   4.7075050  96.6012580  59.5372090
   4.8110610  98.0673970  59.8999670   6.3720130  97.1257920  62.7209530
   5.7422870  96.4245230  62.8879660   5.8325270  97.8862050  62.5042690
   9.3112080 113.7397150  75.3920140  10.2379390 113.5041420  75.4356100
   9.2962510 114.5669150  74.9106170  17.5457140 113.2822720  62.3894390
  17.7209330 112.5960460  61.7455310  16.8478710 113.8069770  61.9971060
   6.4975690  96.4041900  75.1562020   6.2159960  96.9075500  74.3922840
   6.8795390  95.6063650  74.7904150   5.3884790 113.6717560  59.9429700
   6.1203610 113.3876840  59.3953590   5.6478460 113.4330840  60.8329080
   4.5499580 109.7882290  59.9476030   3.9208460 110.2567390  60.4961860
   4.6647410 108.9431510  60.3822220  13.0991150  95.8195480  75.7342490
  12.9856600  96.1390090  76.6294010  13.9160890  96.2207990  75.4379770
  15.8789640 112.9667010  75.2161180  16.6714960 112.4716240  75.0087140
  16.1722790 113.6457150  75.8236790  12.0049300 103.8387950  46.0977230
  11.9243350 102.9242560  45.8268940  11.5913720 104.3355020  45.3916940
  10.1367340 105.6166970  47.9786500   9.3609440 105.1367410  48.2685070
  10.7880270 104.9372620  47.8042660   4.1533170 105.9286780  48.8562260
   3.3218050 105.6735490  49.2558770   4.7614150 105.9997550  49.5920180
  14.1574770 110.0227160  46.7585630  13.6956300 109.2514400  47.0872800
  14.9700320 110.0493230  47.2638080   4.1334430 109.9626870  49.0520280
   4.4362470 109.0724610  48.8730500   4.8778020 110.5197090  48.8242530
   2.5625120 100.8888670  42.6404650   1.6741820 101.2304640  42.5384530
   2.8466310 100.6888990  41.7485480  10.3838080 112.3085170  46.3789620
   9.7649520 112.7642670  45.8084060  11.2389860 112.4636630  45.9779320
   9.5776330 108.2924160  47.9856660   9.5084610 107.3514100  47.8245790
  10.3396190 108.3825570  48.5579230   1.7683000  98.8978680  50.3113280
   1.5885840  98.0004430  50.5916040   1.3663080  99.4450550  50.9860230
  10.6081500 101.0994540  48.2125590  10.9846320 100.2266420  48.0999260
  10.5101010 101.4353240  47.3216030   4.7386510  99.4720170  43.6743030
   4.8453260 100.3723900  43.9811790   3.8278870  99.4238140  43.3837680
  14.3905620  98.5944980  45.1453930  15.2115240  98.1041550  45.1879410
  14.4239700  99.1842640  45.8985770   2.3869670 101.3939180  48.9195620
   3.0679780 101.6577550  49.5383020   2.0717720 100.5540050  49.2533630
   6.5794240 102.4406540  48.0068210   7.0872460 102.9387510  48.6473230
   7.1107480 101.6641740  47.8307570   4.8630340  97.0805100  52.2731630
   4.8648780  97.5977490  51.4677530   4.0334650  96.6035280  52.2501560
  11.2501430 107.1924410  43.7721530  10.6318700 107.6573860  43.2084250
  11.7624680 107.8851890  44.1891040   6.1133190 106.7200280  50.4505130
   5.7802570 107.3469200  51.0926200   6.2899870 107.2462160  49.6706800
  14.6267100 100.5345360  47.9181470  13.9222670 100.8230250  48.4984580
  14.9879260 101.3445470  47.5581030   4.5445670  98.7915060  50.2802080
   4.8862480  99.6357110  49.9855950   3.6061480  98.9398800  50.3967420
   5.3252290 108.6881080  52.2654310   5.9426290 109.3632160  51.9838760
   4.4645410 109.0969060  52.1741810  16.2429880 110.1520490  50.1808950
  15.5593400 110.8219600  50.1725620  16.7824170 110.3501140  49.4153810
   8.2273560  96.2797330  46.6046670   8.5348540  95.7244220  45.8882170
   7.2974260  96.4141790  46.4219660  13.7788620 111.9964620  48.8954130
  13.7915780 111.5926910  48.0276390  13.2263840 112.7711910  48.7915560
  15.0734040 108.7180840  43.9844300  14.9630370 107.7755170  44.1093720
  15.0702290 109.0796480  44.8707060  13.1774060 106.8994460  50.2236740
  13.5942850 106.6854570  49.3890200  13.9013880 107.1567250  50.7945360
  10.6154320 104.3446160  43.3406790   9.6883600 104.2783540  43.5695260
  10.7679140 105.2826290  43.2262030  10.6023400 100.6163160  40.3373950
   9.6627070 100.7777120  40.4226410  10.9206660 101.3348840  39.7909940
  17.1236160 105.2981680  50.3152980  16.2954790 105.3674770  49.8403110
  17.7186640 105.8835990  49.8468810  14.6451610 105.9066460  43.8442040
  14.0264030 105.5686010  43.1968340  14.6276060 105.2626220  44.5521230
  14.0878170 102.0851000  51.2607850  13.6749350 102.9104710  51.5147840
  13.3554120 101.4996040  51.0684210   6.2210960 104.8710900  46.1226520
   5.8167960 104.1588150  45.6272420   6.3074080 104.5264140  47.0114560
   6.6892660 108.5578460  48.2865730   6.3920950 107.9523930  47.6073510
   7.6392480 108.5955770  48.1755090   4.9339580 101.6454110  49.9025560
   5.4854170 101.7549450  49.1278810   5.4483090 102.0191710  50.6180790
  14.7778270 112.1310330  51.9488830  14.3008830 112.9382520  51.7561440
  14.0940060 111.4788660  52.1015040   5.7811090 108.2960150  54.9373530
   4.8839620 108.5200120  55.1846930   5.8063960 108.4195090  53.9884930
  12.8216310 105.1453270  40.8514790  13.2609590 104.3075700  40.7052610
  13.5344730 105.7782670  40.9378930   4.6082310 105.1673470  53.5130900
   4.4690080 106.0396270  53.8818300   3.7263670 104.8246280  53.3678840
  10.9311690 110.0849340  44.8196030  11.3707600 110.8273670  44.4051420
  10.8698580 110.3275910  45.7434990   6.4062660 111.1095170  55.7216050
   6.3778090 111.5138120  54.8544480   6.2427630 110.1805530  55.5587650
  16.4033450  96.3996080  39.1655830  16.0906110  96.4922910  40.0654900
  17.1645920  96.9777110  39.1153260   2.9215590 103.7655880  43.6233170
   2.8013190 104.4917970  43.0114440   2.6116480 102.9958790  43.1461080
  18.3577480 111.8922270  57.0180220  18.8337200 112.3705160  57.6969300
  18.9784640 111.8239760  56.2925720   1.8048590 108.6371210  45.8407990
   1.3976670 108.7785800  44.9861590   2.6961600 108.3531370  45.6379200
  17.7610730 109.0835120  54.1780230  17.8873790 108.8447000  53.2597410
  17.8032110 108.2519660  54.6502310  11.6227470 112.7863120  52.7475040
  12.1372140 112.6971130  53.5497470  10.7796550 113.1322820  53.0402950
  13.5981870 113.0718460  42.1759040  13.4383010 112.7821400  43.0740870
  13.4328580 112.2958590  41.6404270   6.0770250 112.8516990  43.9530660
   5.9012730 111.9352530  43.7398460   5.2225990 113.2104280  44.1928460
  13.3008000 110.5806020  40.7357040  12.6073160 110.5783310  40.0759320
  14.0430860 110.1565340  40.3051210  12.8657930 112.2068730  44.8105530
  13.3214880 111.4258110  45.1244150  13.2050450 112.9175550  45.3546710
  17.6134740 101.1367580  55.1429970  16.9979010 101.6447250  54.6145430
  17.2931160 100.2365910  55.0855910   5.3879250  97.1090950  47.0056840
   4.9447400  97.8900490  46.6741360   5.9464240  97.4320840  47.7127780
   9.6749060  99.9759470  52.6092160   9.2128430 100.1842490  53.4212100
   9.2727170  99.1618820  52.3062830  14.6753570 101.1968420  53.7388820
  13.8247160 100.8974170  54.0597890  14.5155360 101.4410430  52.8272640
  11.7703280 102.6970170  55.8387610  12.0956690 101.8633920  55.4989840
  12.5583610 103.2198690  55.9865940   8.5038070  96.7301650  41.8862670
   7.8792250  96.7261520  42.6115980   8.4168190  95.8632610  41.4898640
   7.4255150  97.6538280  48.8646440   7.7227480  98.5601110  48.7838460
   7.9740710  97.1657060  48.2506010   5.1793470 102.2324520  44.7338090
   4.9534390 102.0161690  45.6384710   4.3986000 102.6652980  44.3884060
  12.4091230 102.2387890  43.3328740  11.8100120 102.9623690  43.1492360
  12.9570840 102.1764670  42.5505190   7.6192680 103.1310100  55.3998360
   7.5236280 102.1904830  55.2498760   8.4624660 103.3525170  55.0046430
  11.0156100 100.8751430  45.3632020  11.4085670 101.1923630  44.5500710
  11.3772950  99.9963310  45.4776540   2.7503220  99.5423770  53.5532140
   2.3566610 100.3898980  53.7604920   2.0621620  98.9050140  53.7440780
   9.3248270  99.6258740  56.6228880   8.6346590  99.4330940  57.2574970
  10.0680570  99.9093380  57.1553180  11.6011240 103.4657180  49.4582800
  10.8692360 103.9743990  49.8072900  11.2035580 102.6487160  49.1571580
   8.0388630 100.1411380  47.8635290   8.0424690  99.7001330  47.0139830
   8.9339750 100.4628710  47.9707110   3.8891010 100.0237870  46.8229500
   3.5491060 100.5013100  47.5796550   3.1268330  99.5702990  46.4630600
   8.1008780 101.1423460  40.8542050   8.2221600 101.1009940  41.8027870
   7.7157290 102.0047610  40.6988780  12.0637150  98.9190860  48.8705740
  12.0809890  99.3699510  49.7147590  11.8152730  98.0196500  49.0839180
   7.1130280 103.4524600  40.2525350   6.5447180 103.0042850  39.6261260
   7.8219280 103.8117380  39.7190500  15.4907900  96.3323040  54.7092120
  15.8153670  95.6012700  55.2350100  15.5264410  96.0136680  53.8073110
   2.1899460 107.3536620  54.1292080   1.8054250 106.7130290  54.7275040
   2.5011650 108.0572740  54.6986810   8.3396600 104.2013160  49.6100700
   8.7066730 103.7271730  50.3562040   8.1501660 105.0754730  49.9509040
   6.1295970 103.2421800  51.9284910   5.8253040 104.1213780  52.1535270
   7.0842430 103.3021590  51.9642350   4.6577760 107.4482790  42.5251760
   3.8840020 106.9080410  42.3650480   5.3872390 106.9289400  42.1869520
  15.4165740 106.4448150  48.3178150  16.1364860 106.9403440  47.9274260
  15.2147560 105.7666040  47.6732020  10.8775680  97.8386110  42.4607540
  10.0640290  97.3399280  42.3852850  10.6837630  98.6784360  42.0443890
  10.7984540 106.5157210  54.2047150  10.7321850 105.5952880  53.9504740
  10.1689680 106.6132650  54.9191790  13.5924070 102.2105760  40.7569700
  14.4803690 102.5222990  40.5821040  13.5629160 101.3378010  40.3650280
   4.7015160 107.1163170  46.1630570   5.2193830 106.3131430  46.1087460
   4.2499180 107.0542310  47.0047400   9.5884660 108.3829450  41.4357870
   9.9300360 109.1271680  40.9401190   8.7597370 108.6960570  41.7982700
   2.1859700 104.0824540  53.0756270   1.8274640 104.7478390  53.6629610
   1.8914260 103.2508090  53.4468890   5.3872820 104.5408780  55.9595820
   5.0872960 104.6865960  55.0623640   6.1584060 103.9814070  55.8669210
  10.7301270 109.3377780  53.9550950  10.7445810 108.4058740  53.7369860
  10.0226370 109.4237540  54.5940720  15.8638340 103.5217600  40.2249560
  15.7802060 103.9531820  39.3746000  16.5832530 103.9815950  40.6576380
  16.9412480 105.9785120  53.3019530  16.2160670 106.5713900  53.1048920
  17.4687940 105.9708660  52.5032900  16.8925590 110.3759860  42.9531690
  16.2501750 109.7215480  43.2275410  16.5056250 110.7814950  42.1772360
  12.4712070 107.7045290  46.8003380  12.8235890 107.1073420  46.1404750
  11.5874400 107.3789520  46.9711630   8.5575350 108.4642980  44.2073790
   9.2446480 109.0112190  44.5881380   7.7707770 109.0083710  44.2423400
   7.8602560 105.4689010  43.8199150   8.3165340 106.2794260  44.0459340
   7.5090770 105.1512150  44.6517640  10.1635170 110.9795350  51.0491450
  10.8077390 111.1854730  51.7264870  10.5264610 110.2183750  50.5962300
   3.7614340  95.8126660  44.2921670   3.6328970  95.8044560  45.2406590
   2.9376360  96.1509750  43.9412680  11.4367250 108.9827700  49.7668900
  12.0789480 108.2820860  49.8801070  11.9616600 109.7626140  49.5865790
  15.2822970 109.2676320  39.4908040  15.0560550 108.5506760  40.0832680
  14.8919170 109.0188760  38.6529790  13.2104870 109.7822600  52.9704960
  13.5461110 110.3689290  53.6482880  12.2905210 109.6515310  53.2002750
  14.8639220 107.1848260  41.1522200  14.5760920 107.6460950  41.9400080
  15.6591390 106.7246030  41.4206420   9.0393450 109.8313930  56.1393020
   8.7190320 109.1123170  56.6838710   8.3651810 110.5069000  56.2129080
   7.0807620 110.6774380  41.0826170   7.0717720 111.4104070  40.4670680
   6.1605980 110.4305960  41.1753130   2.6814260 105.8989270  41.8272930
   2.0742210 106.6388170  41.8368230   3.1563610 105.9888630  41.0011130
  12.2547050 100.0640090  51.5029820  12.6227870  99.2435300  51.8309390
  11.3945250 100.1241980  51.9185470  15.6209080  99.0197030  42.3117380
  14.9922240  99.1242700  41.5975610  15.1261000  99.2393810  43.1011260
  10.0667220 110.7402620  39.7451360  10.1679200 110.5366610  38.8153340
   9.1668960 110.4860900  39.9499140   7.5893110 101.2982980  43.7275260
   6.8809260 101.7669320  44.1688870   7.8737590 100.6404990  44.3620450
   9.2149040 102.7179680  51.7267790   9.7134290 103.1925500  52.3919640
   9.3571990 101.7943200  51.9337820  11.6208540  98.0233640  45.1671050
  11.4976320  98.0419770  44.2180560  12.5693100  98.0712580  45.2869450
   8.7085330 113.2588940  44.4399030   8.9626830 113.2210330  43.5178400
   7.7597810 113.1322270  44.4327280   5.7928130  99.6068060  41.1025970
   6.6418660 100.0438210  41.0366160   5.4259400  99.9188320  41.9298030
  14.7137910 104.1780820  46.0157540  13.7728050 104.1931050  46.1905230
  15.0281980 103.3916780  46.4617840   4.6919550 105.8600420  39.5761500
   5.4582820 105.7481780  40.1386930   4.7694240 105.1638390  38.9238270
   3.3866310 103.2925490  40.2594390   3.4669900 102.3453000  40.3711790
   4.2786060 103.6232370  40.3655050  16.7163490 111.3489670  47.6911800
  16.8410910 112.1720840  48.1635610  17.5829050 111.1380400  47.3435950
   4.1881020 113.4420880  47.3628930   4.9243500 112.8936340  47.6337500
   4.5721940 114.3076890  47.2234920   3.1939300 112.6266950  56.5514510
   3.9952030 112.9479000  56.9649910   2.6791120 112.2662530  57.2734420
   7.2983330 112.6151190  39.1854500   8.0911940 112.9040020  38.7336290
   6.7787680 112.1843360  38.5066980  12.0303930 108.7346820  56.4989920
  11.4242090 108.7578420  55.7585670  11.7258040 108.0029860  57.0357170
  13.4604300 112.4627110  55.1099330  14.4126050 112.3785130  55.0599570
  13.3132520 113.1268820  55.7833120  16.3513500 111.8421320  40.6091240
  16.0655010 111.4286460  39.7945420  16.1533050 112.7709030  40.4891760
   7.8160730 107.8354600  39.0496850   7.7111370 107.2206950  39.7758230
   7.6484950 107.3120490  38.2659860   7.9675050 106.5211400  55.0286080
   7.2020720 107.0896400  54.9440750   8.1491010 106.2287610  54.1354310
  11.0563460 106.8974630  39.6538840  10.5073560 107.3443930  40.2981580
  11.6782720 106.3923880  40.1776510  15.1098400 108.2516730  55.5861100
  15.8507870 108.5892490  55.0828560  14.3471080 108.4208790  55.0330870
   2.9460190 103.2570000  56.3900630   2.9865530 102.9583870  57.2985860
   3.8005690 103.6577610  56.2308150   6.7238580 105.8565550  41.5504140
   7.1455000 105.6905420  42.3935530   6.8489420 105.0465780  41.0559280
   4.8866000 101.8362100  54.3575120   4.3562460 101.3453050  53.7298460
   5.5554070 102.2646300  53.8233050   9.2366220 104.8803160  38.7981240
   9.7571880 104.1652180  38.4322390   9.8834620 105.5189030  39.0981750
  13.7844060 106.3031560  54.1216310  14.1985080 106.4576640  54.9706730
  12.8495060 106.4286780  54.2842090  14.2566230 103.6427720  56.1255460
  14.8387000 102.8880040  56.0375940  14.4328000 104.1735160  55.3486940
   5.3738300  98.8024470  54.4372410   5.2795170  98.1845220  53.7123280
   4.7935690  99.5290760  54.2102320   8.1399740  97.3597710  51.4699800
   7.6917040  97.3821970  50.6245350   7.5064940  96.9616730  52.0670100
   8.5459290 106.2552040  52.0912240   8.9647400 107.0984770  51.9188480
   7.6267920 106.3924080  51.8619020  10.8823190 103.9868220  53.4750080
  11.0019400 103.3909360  54.2144920  11.7417190 104.0237910  53.0551380
  13.2211090 104.5405410  52.0512590  12.6946310 105.0648030  51.4477730
  13.5642430 105.1732800  52.6822320   5.6197480 101.9298780  38.4962300
   5.4186540 101.0666140  38.8575640   5.4489530 101.8432140  37.5583900
   6.3966710 112.5605050  53.2069970   5.8587800 113.2851110  52.8878670
   6.6500670 112.0835390  52.4167310   7.6491960 100.5289570  54.7325900
   8.2391650 100.2205420  55.4203720   6.8312200 100.0569320  54.8885800
  12.4685390 100.1455380  54.9658920  11.7800910  99.4836920  54.9008910
  13.1891410  99.6993650  55.4107380  13.0985790  96.7407010  41.0249180
  13.3788080  95.8974910  41.3808600  12.3251520  96.9730120  41.5387930
   4.4180280  99.0299400  38.4840180   4.7206180  99.0366830  37.5759330
   5.1574870  98.6797260  38.9807840   9.2528920 113.7956260  53.4656620
   9.1787620 114.6991400  53.7728990   8.3507760 113.4768160  53.4378690
   7.6365210  97.9734020  39.4696380   7.2887210  97.2958010  38.8898830
   7.8377980  97.5123530  40.2839770   9.8014250 112.9614770  41.0882980
  10.6965040 113.2999740  41.1101740   9.8331880 112.2394180  40.4607260
   3.4410410 108.3341820  39.3169980   3.8785280 108.8771490  39.9727560
   3.9258140 107.5088770  39.3266320   5.2518130 109.4539860  44.4292210
   4.9513670 109.3304830  45.3296120   5.1455620 108.5948450  44.0207940
  16.7808600 111.4918440  53.7949180  16.1810590 111.5511000  53.0513100
  16.9102500 110.5523420  53.9246030  18.0210050 109.2336260  39.1318890
  17.1903010 109.3012910  39.6026120  18.1981880 110.1240380  38.8285750
  17.4766510 105.9783740  41.6353090  18.2385420 106.5480390  41.7412780
  17.4920880 105.4110940  42.4061400  18.4826480 106.8333840  46.4795020
  18.8535310 106.0501160  46.0730990  19.1228410 107.5222940  46.3012320
  15.4660240 108.2170420  51.8925340  14.6520080 108.6467580  52.1551130
  15.8734440 108.8288830  51.2794390  17.5285680 106.2718110  38.7925610
  17.8034520 107.1796990  38.6644830  17.3396420 106.2080640  39.7287600
  13.9261290  99.2962960  40.0879240  14.3446170  99.1093940  39.2475900
  13.6197350  98.4442010  40.3982170  17.4251020 104.2087100  43.7855040
  17.0494620 103.4415030  43.3536330  16.6954140 104.5909800  44.2729970
   2.0146780 104.8874240  50.4064090   2.3819820 104.8001640  51.2860110
   1.4457600 104.1240790  50.3070950  16.8150640 103.3558620  53.4194560
  16.5836730 103.1271370  52.5192510  17.0755190 104.2758170  53.3739450
  15.2538710  98.5815050  56.1974260  16.1308890  98.5898450  56.5808260
  15.2659550  97.8445890  55.5866610  16.7001980 102.4344590  47.0862280
  17.2239460 101.9407240  46.4552450  17.2861400 102.5694950  47.8309850
   2.7336140 100.7686140  39.7180460   3.4427840 100.3469360  39.2327740
   2.0176080 100.8361370  39.0863810   2.3810300  96.8225470  38.7583110
   3.1038430  97.3634410  39.0764330   2.6534820  96.5488890  37.8824650
  16.1901950 101.6917940  43.0254690  16.6861070 101.4588810  43.8103570
  15.9918020 100.8529780  42.6092330   2.0702490  96.0731660  48.6605730
   2.7178680  95.5229040  48.2200890   2.4904330  96.3274810  49.4821540
  17.6189110 100.3278890  45.5592370  17.5088390 100.1734930  46.4974640
  18.3796700  99.7999830  45.3167780  15.9654830  96.2673020  52.0175370
  16.6027050  96.8807160  52.3834560  16.1129720  96.3033680  51.0724600
  18.5079380  98.1586810  38.7998510  19.4328690  98.0267990  38.5916800
  18.4855170  98.2379630  39.7534960  18.5817870  98.9297470  41.4255220
  17.7869370  98.8642590  41.9548130  18.7861150  99.8648110  41.4140570
  15.5236290 112.9689020  45.4193610  16.1195360 112.6473590  44.7428030
  15.7814440 112.4960840  46.2106880   1.8234490  96.2287330  51.4031050
   1.4749310  96.6851150  52.1689230   1.4922190  95.3344460  51.4853480
   3.4298860 109.4006930  55.5684240   3.3868490 109.0299840  56.4498700
   3.5609870 110.3384500  55.7086060   7.1304890 110.9566520  51.1693960
   6.8896250 111.2241080  50.2824480   8.0707530 111.1272250  51.2244820
   9.3359310  97.4199210  54.9250470   9.2748200  98.0121040  55.6745880
  10.2759690  97.3125170  54.7800730  11.9733870  97.0769270  54.5642760
  12.5874280  97.3948560  53.9023840  12.5183430  96.5917860  55.1838620
  18.3909050 112.9760900  51.9704600  17.8967330 113.3729770  51.2531730
  17.7822340 112.3510110  52.3641880   2.4955130  95.7563530  54.6781820
   3.0438120  95.5751580  53.9147930   2.5610440  94.9657640  55.2138130
   3.2686890 112.3469180  52.6882020   2.6747210 112.2153880  53.4272060
   3.2610730 111.5107320  52.2224120  12.7141910  95.6401410  50.8912050
  11.8401750  95.9736520  50.6884980  12.6052660  95.1674590  51.7163920
  13.6213890  97.8472280  52.2753770  13.2927250  97.0324040  51.8955500
  14.5696190  97.8042090  52.1519460  16.0748500 113.6184320  49.2491340
  15.6151470 114.3700130  48.8749360  15.4460960 112.8990790  49.1906140
   2.8999120 109.7127560  51.6390060   2.1733180 109.0932850  51.5716010
   2.9608270 110.1068170  50.7688140   6.5044220 111.9272560  48.4239470
   7.0209240 111.3159920  47.8987730   7.1541600 112.4301340  48.9150480
   9.2439720 112.8181050  49.2508450   9.5317530 112.5635350  48.3741460
   9.7562940 112.2658410  49.8414020  10.4616730  96.5571250  49.8304960
   9.6788520  97.0316750  50.1101720  10.1679660  95.6526080  49.7218140
  15.0137800  97.2594350  47.8754050  15.4545890  97.2039450  47.0275650
  14.7445390  98.1752360  47.9464230  16.8776370  96.8909590  45.8862870
  16.8164770  95.9470810  45.7393890  17.6568400  96.9989680  46.4316330
   1.8057140  96.8618730  42.3518680   2.5636500  96.9747610  41.7782710
   1.3434310  97.6987930  42.3062110   8.3470950  98.9758000  45.3420990
   7.5345460  98.6014890  45.0016870   8.8512590  98.2203080  45.6442180
  12.8495930  95.6400450  46.5804060  13.4525300  96.2120660  47.0552580
  12.1088920  96.2039890  46.3577960  15.9930530  96.0422010  41.8544340
  16.1881160  96.9405460  42.1211770  15.2060400  95.8109090  42.3477290
   2.7891820 111.7235180  42.2936960   2.2639440 112.1043210  41.5898920
   2.7136400 112.3485950  43.0146670   4.1782290  97.3882780  40.8920650
   4.7075050  96.6012580  40.7628600   4.8110610  98.0673970  41.1256180
   6.3720130  97.1257920  43.9466040   5.7422870  96.4245230  44.1136170
   5.8325270  97.8862050  43.7299200   9.3112080 113.7397150  56.6176650
  10.2379390 113.5041420  56.6612610   9.2962510 114.5669150  56.1362680
  17.5457140 113.2822720  43.6150900  17.7209330 112.5960460  42.9711820
  16.8478710 113.8069770  43.2227570   6.4975690  96.4041900  56.3818530
   6.2159960  96.9075500  55.6179350   6.8795390  95.6063650  56.0160660
   5.3884790 113.6717560  41.1686210   6.1203610 113.3876840  40.6210100
   5.6478460 113.4330840  42.0585590   4.5499580 109.7882290  41.1732540
   3.9208460 110.2567390  41.7218370   4.6647410 108.9431510  41.6078730
  13.0991150  95.8195480  56.9599000  12.9856600  96.1390090  57.8550520
  13.9160890  96.2207990  56.6636280  15.8789640 112.9667010  56.4417690
  16.6714960 112.4716240  56.2343650  16.1722790 113.6457150  57.0493300
  12.0049300 103.8387950  27.3233740  11.9243350 102.9242560  27.0525450
  11.5913720 104.3355020  26.6173450  10.1367340 105.6166970  29.2043010
   9.3609440 105.1367410  29.4941580  10.7880270 104.9372620  29.0299170
   4.1533170 105.9286780  30.0818770   3.3218050 105.6735490  30.4815280
   4.7614150 105.9997550  30.8176690  14.1574770 110.0227160  27.9842140
  13.6956300 109.2514400  28.3129310  14.9700320 110.0493230  28.4894590
   4.1334430 109.9626870  30.2776790   4.4362470 109.0724610  30.0987010
   4.8778020 110.5197090  30.0499040   2.5625120 100.8888670  23.8661160
   1.6741820 101.2304640  23.7641040   2.8466310 100.6888990  22.9741990
  10.3838080 112.3085170  27.6046130   9.7649520 112.7642670  27.0340570
  11.2389860 112.4636630  27.2035830   9.5776330 108.2924160  29.2113170
   9.5084610 107.3514100  29.0502300  10.3396190 108.3825570  29.7835740
   1.7683000  98.8978680  31.5369790   1.5885840  98.0004430  31.8172550
   1.3663080  99.4450550  32.2116740  10.6081500 101.0994540  29.4382100
  10.9846320 100.2266420  29.3255770  10.5101010 101.4353240  28.5472540
   4.7386510  99.4720170  24.8999540   4.8453260 100.3723900  25.2068300
   3.8278870  99.4238140  24.6094190  14.3905620  98.5944980  26.3710440
  15.2115240  98.1041550  26.4135920  14.4239700  99.1842640  27.1242280
   2.3869670 101.3939180  30.1452130   3.0679780 101.6577550  30.7639530
   2.0717720 100.5540050  30.4790140   6.5794240 102.4406540  29.2324720
   7.0872460 102.9387510  29.8729740   7.1107480 101.6641740  29.0564080
  18.6805170 100.6111730  32.9354070  17.9757340 100.9993440  32.4169180
  18.9463090 101.3062020  33.5375000   4.8630340  97.0805100  33.4988140
   4.8648780  97.5977490  32.6934040   4.0334650  96.6035280  33.4758070
  11.2501430 107.1924410  24.9978040  10.6318700 107.6573860  24.4340760
  11.7624680 107.8851890  25.4147550   6.1133190 106.7200280  31.6761640
   5.7802570 107.3469200  32.3182710   6.2899870 107.2462160  30.8963310
  14.6267100 100.5345360  29.1437980  13.9222670 100.8230250  29.7241090
  14.9879260 101.3445470  28.7837540   4.5445670  98.7915060  31.5058590
   4.8862480  99.6357110  31.2112460   3.6061480  98.9398800  31.6223930
   5.3252290 108.6881080  33.4910820   5.9426290 109.3632160  33.2095270
   4.4645410 109.0969060  33.3998320  16.2429880 110.1520490  31.4065460
  15.5593400 110.8219600  31.3982130  16.7824170 110.3501140  30.6410320
  17.6954020  99.9800150  29.5347190  16.7478930 100.0139130  29.6662620
  18.0204010 100.7939100  29.9196550   8.2273560  96.2797330  27.8303180
   8.5348540  95.7244220  27.1138680   7.2974260  96.4141790  27.6476170
  13.7788620 111.9964620  30.1210640  13.7915780 111.5926910  29.2532900
  13.2263840 112.7711910  30.0172070  15.0734040 108.7180840  25.2100810
  14.9630370 107.7755170  25.3350230  15.0702290 109.0796480  26.0963570
  13.1774060 106.8994460  31.4493250  13.5942850 106.6854570  30.6146710
  13.9013880 107.1567250  32.0201870  10.6154320 104.3446160  24.5663300
   9.6883600 104.2783540  24.7951770  10.7679140 105.2826290  24.4518540
  10.6023400 100.6163160  21.5630460   9.6627070 100.7777120  21.6482920
  10.9206660 101.3348840  21.0166450  17.1236160 105.2981680  31.5409490
  16.2954790 105.3674770  31.0659620  17.7186640 105.8835990  31.0725320
  14.6451610 105.9066460  25.0698550  14.0264030 105.5686010  24.4224850
  14.6276060 105.2626220  25.7777740  14.0878170 102.0851000  32.4864360
  13.6749350 102.9104710  32.7404350  13.3554120 101.4996040  32.2940720
   6.2210960 104.8710900  27.3483030   5.8167960 104.1588150  26.8528930
   6.3074080 104.5264140  28.2371070   6.6892660 108.5578460  29.5122240
   6.3920950 107.9523930  28.8330020   7.6392480 108.5955770  29.4011600
   4.9339580 101.6454110  31.1282070   5.4854170 101.7549450  30.3535320
   5.4483090 102.0191710  31.8437300  14.7778270 112.1310330  33.1745340
  14.3008830 112.9382520  32.9817950  14.0940060 111.4788660  33.3271550
   5.7811090 108.2960150  36.1630040   4.8839620 108.5200120  36.4103440
   5.8063960 108.4195090  35.2141440  12.8216310 105.1453270  22.0771300
  13.2609590 104.3075700  21.9309120  13.5344730 105.7782670  22.1635440
   4.6082310 105.1673470  34.7387410   4.4690080 106.0396270  35.1074810
   3.7263670 104.8246280  34.5935350  10.9311690 110.0849340  26.0452540
  11.3707600 110.8273670  25.6307930  10.8698580 110.3275910  26.9691500
   6.4062660 111.1095170  36.9472560   6.3778090 111.5138120  36.0800990
   6.2427630 110.1805530  36.7844160  16.4033450  96.3996080  20.3912340
  16.0906110  96.4922910  21.2911410  17.1645920  96.9777110  20.3409770
   2.9215590 103.7655880  24.8489680   2.8013190 104.4917970  24.2370950
   2.6116480 102.9958790  24.3717590  18.3577480 111.8922270  38.2436730
  18.8337200 112.3705160  38.9225810  18.9784640 111.8239760  37.5182230
   1.8048590 108.6371210  27.0664500   1.3976670 108.7785800  26.2118100
   2.6961600 108.3531370  26.8635710  17.7610730 109.0835120  35.4036740
  17.8873790 108.8447000  34.4853920  17.8032110 108.2519660  35.8758820
  11.6227470 112.7863120  33.9731550  12.1372140 112.6971130  34.7753980
  10.7796550 113.1322820  34.2659460  13.5981870 113.0718460  23.4015550
  13.4383010 112.7821400  24.2997380  13.4328580 112.2958590  22.8660780
   6.0770250 112.8516990  25.1787170   5.9012730 111.9352530  24.9654970
   5.2225990 113.2104280  25.4184970  13.3008000 110.5806020  21.9613550
  12.6073160 110.5783310  21.3015830  14.0430860 110.1565340  21.5307720
  12.8657930 112.2068730  26.0362040  13.3214880 111.4258110  26.3500660
  13.2050450 112.9175550  26.5803220  17.6134740 101.1367580  36.3686480
  16.9979010 101.6447250  35.8401940  17.2931160 100.2365910  36.3112420
   5.3879250  97.1090950  28.2313350   4.9447400  97.8900490  27.8997870
   5.9464240  97.4320840  28.9384290   9.6749060  99.9759470  33.8348670
   9.2128430 100.1842490  34.6468610   9.2727170  99.1618820  33.5319340
  14.6753570 101.1968420  34.9645330  13.8247160 100.8974170  35.2854400
  14.5155360 101.4410430  34.0529150  11.7703280 102.6970170  37.0644120
  12.0956690 101.8633920  36.7246350  12.5583610 103.2198690  37.2122450
   8.5038070  96.7301650  23.1119180   7.8792250  96.7261520  23.8372490
   8.4168190  95.8632610  22.7155150   7.4255150  97.6538280  30.0902950
   7.7227480  98.5601110  30.0094970   7.9740710  97.1657060  29.4762520
   5.1793470 102.2324520  25.9594600   4.9534390 102.0161690  26.8641220
   4.3986000 102.6652980  25.6140570  12.4091230 102.2387890  24.5585250
  11.8100120 102.9623690  24.3748870  12.9570840 102.1764670  23.7761700
   7.6192680 103.1310100  36.6254870   7.5236280 102.1904830  36.4755270
   8.4624660 103.3525170  36.2302940  11.0156100 100.8751430  26.5888530
  11.4085670 101.1923630  25.7757220  11.3772950  99.9963310  26.7033050
   2.7503220  99.5423770  34.7788650   2.3566610 100.3898980  34.9861430
   2.0621620  98.9050140  34.9697290   9.3248270  99.6258740  37.8485390
   8.6346590  99.4330940  38.4831480  10.0680570  99.9093380  38.3809690
  11.6011240 103.4657180  30.6839310  10.8692360 103.9743990  31.0329410
  11.2035580 102.6487160  30.3828090   8.0388630 100.1411380  29.0891800
   8.0424690  99.7001330  28.2396340   8.9339750 100.4628710  29.1963620
   3.8891010 100.0237870  28.0486010   3.5491060 100.5013100  28.8053060
   3.1268330  99.5702990  27.6887110   8.1008780 101.1423460  22.0798560
   8.2221600 101.1009940  23.0284380   7.7157290 102.0047610  21.9245290
  12.0637150  98.9190860  30.0962250  12.0809890  99.3699510  30.9404100
  11.8152730  98.0196500  30.3095690   7.1130280 103.4524600  21.4781860
   6.5447180 103.0042850  20.8517770   7.8219280 103.8117380  20.9447010
  15.4907900  96.3323040  35.9348630  15.8153670  95.6012700  36.4606610
  15.5264410  96.0136680  35.0329620   2.1899460 107.3536620  35.3548590
   1.8054250 106.7130290  35.9531550   2.5011650 108.0572740  35.9243320
   8.3396600 104.2013160  30.8357210   8.7066730 103.7271730  31.5818550
   8.1501660 105.0754730  31.1765550   6.1295970 103.2421800  33.1541420
   5.8253040 104.1213780  33.3791780   7.0842430 103.3021590  33.1898860
   4.6577760 107.4482790  23.7508270   3.8840020 106.9080410  23.5906990
   5.3872390 106.9289400  23.4126030  15.4165740 106.4448150  29.5434660
  16.1364860 106.9403440  29.1530770  15.2147560 105.7666040  28.8988530
  10.8775680  97.8386110  23.6864050  10.0640290  97.3399280  23.6109360
  10.6837630  98.6784360  23.2700400  10.7984540 106.5157210  35.4303660
  10.7321850 105.5952880  35.1761250  10.1689680 106.6132650  36.1448300
  13.5924070 102.2105760  21.9826210  14.4803690 102.5222990  21.8077550
  13.5629160 101.3378010  21.5906790   4.7015160 107.1163170  27.3887080
   5.2193830 106.3131430  27.3343970   4.2499180 107.0542310  28.2303910
   9.5884660 108.3829450  22.6614380   9.9300360 109.1271680  22.1657700
   8.7597370 108.6960570  23.0239210   2.1859700 104.0824540  34.3012780
   1.8274640 104.7478390  34.8886120   1.8914260 103.2508090  34.6725400
   5.3872820 104.5408780  37.1852330   5.0872960 104.6865960  36.2880150
   6.1584060 103.9814070  37.0925720  10.7301270 109.3377780  35.1807460
  10.7445810 108.4058740  34.9626370  10.0226370 109.4237540  35.8197230
  15.8638340 103.5217600  21.4506070  15.7802060 103.9531820  20.6002510
  16.5832530 103.9815950  21.8832890  16.9412480 105.9785120  34.5276040
  16.2160670 106.5713900  34.3305430  17.4687940 105.9708660  33.7289410
  16.8925590 110.3759860  24.1788200  16.2501750 109.7215480  24.4531920
  16.5056250 110.7814950  23.4028870  12.4712070 107.7045290  28.0259890
  12.8235890 107.1073420  27.3661260  11.5874400 107.3789520  28.1968140
   8.5575350 108.4642980  25.4330300   9.2446480 109.0112190  25.8137890
   7.7707770 109.0083710  25.4679910   7.8602560 105.4689010  25.0455660
   8.3165340 106.2794260  25.2715850   7.5090770 105.1512150  25.8774150
  10.1635170 110.9795350  32.2747960  10.8077390 111.1854730  32.9521380
  10.5264610 110.2183750  31.8218810   3.7614340  95.8126660  25.5178180
   3.6328970  95.8044560  26.4663100   2.9376360  96.1509750  25.1669190
  11.4367250 108.9827700  30.9925410  12.0789480 108.2820860  31.1057580
  11.9616600 109.7626140  30.8122300  15.2822970 109.2676320  20.7164550
  15.0560550 108.5506760  21.3089190  14.8919170 109.0188760  19.8786300
  13.2104870 109.7822600  34.1961470  13.5461110 110.3689290  34.8739390
  12.2905210 109.6515310  34.4259260  14.8639220 107.1848260  22.3778710
  14.5760920 107.6460950  23.1656590  15.6591390 106.7246030  22.6462930
   9.0393450 109.8313930  37.3649530   8.7190320 109.1123170  37.9095220
   8.3651810 110.5069000  37.4385590   7.0807620 110.6774380  22.3082680
   7.0717720 111.4104070  21.6927190   6.1605980 110.4305960  22.4009640
   2.6814260 105.8989270  23.0529440   2.0742210 106.6388170  23.0624740
   3.1563610 105.9888630  22.2267640  12.2547050 100.0640090  32.7286330
  12.6227870  99.2435300  33.0565900  11.3945250 100.1241980  33.1441980
  15.6209080  99.0197030  23.5373890  14.9922240  99.1242700  22.8232120
  15.1261000  99.2393810  24.3267770  10.0667220 110.7402620  20.9707870
  10.1679200 110.5366610  20.0409850   9.1668960 110.4860900  21.1755650
   7.5893110 101.2982980  24.9531770   6.8809260 101.7669320  25.3945380
   7.8737590 100.6404990  25.5876960   9.2149040 102.7179680  32.9524300
   9.7134290 103.1925500  33.6176150   9.3571990 101.7943200  33.1594330
  11.6208540  98.0233640  26.3927560  11.4976320  98.0419770  25.4437070
  12.5693100  98.0712580  26.5125960   8.7085330 113.2588940  25.6655540
   8.9626830 113.2210330  24.7434910   7.7597810 113.1322270  25.6583790
   5.7928130  99.6068060  22.3282480   6.6418660 100.0438210  22.2622670
   5.4259400  99.9188320  23.1554540  16.4215900  98.9347640  33.7952690
  15.9189500  99.6753040  34.1346500  17.2372560  99.3231640  33.4789480
  14.7137910 104.1780820  27.2414050  13.7728050 104.1931050  27.4161740
  15.0281980 103.3916780  27.6874350   4.6919550 105.8600420  20.8018010
   5.4582820 105.7481780  21.3643440   4.7694240 105.1638390  20.1494780
   3.3866310 103.2925490  21.4850900   3.4669900 102.3453000  21.5968300
   4.2786060 103.6232370  21.5911560  16.7163490 111.3489670  28.9168310
  16.8410910 112.1720840  29.3892120  17.5829050 111.1380400  28.5692460
   4.1881020 113.4420880  28.5885440   4.9243500 112.8936340  28.8594010
   4.5721940 114.3076890  28.4491430   3.1939300 112.6266950  37.7771020
   3.9952030 112.9479000  38.1906420   2.6791120 112.2662530  38.4990930
   7.2983330 112.6151190  20.4111010   8.0911940 112.9040020  19.9592800
   6.7787680 112.1843360  19.7323490  12.0303930 108.7346820  37.7246430
  11.4242090 108.7578420  36.9842180  11.7258040 108.0029860  38.2613680
  13.4604300 112.4627110  36.3355840  14.4126050 112.3785130  36.2856080
  13.3132520 113.1268820  37.0089630  16.3513500 111.8421320  21.8347750
  16.0655010 111.4286460  21.0201930  16.1533050 112.7709030  21.7148270
   7.8160730 107.8354600  20.2753360   7.7111370 107.2206950  21.0014740
   7.6484950 107.3120490  19.4916370   7.9675050 106.5211400  36.2542590
   7.2020720 107.0896400  36.1697260   8.1491010 106.2287610  35.3610820
  11.0563460 106.8974630  20.8795350  10.5073560 107.3443930  21.5238090
  11.6782720 106.3923880  21.4033020  15.1098400 108.2516730  36.8117610
  15.8507870 108.5892490  36.3085070  14.3471080 108.4208790  36.2587380
   2.9460190 103.2570000  37.6157140   2.9865530 102.9583870  38.5242370
   3.8005690 103.6577610  37.4564660   6.7238580 105.8565550  22.7760650
   7.1455000 105.6905420  23.6192040   6.8489420 105.0465780  22.2815790
   4.8866000 101.8362100  35.5831630   4.3562460 101.3453050  34.9554970
   5.5554070 102.2646300  35.0489560   9.2366220 104.8803160  20.0237750
   9.7571880 104.1652180  19.6578900   9.8834620 105.5189030  20.3238260
  13.7844060 106.3031560  35.3472820  14.1985080 106.4576640  36.1963240
  12.8495060 106.4286780  35.5098600  14.2566230 103.6427720  37.3511970
  14.8387000 102.8880040  37.2632450  14.4328000 104.1735160  36.5743450
   5.3738300  98.8024470  35.6628920   5.2795170  98.1845220  34.9379790
   4.7935690  99.5290760  35.4358830   8.1399740  97.3597710  32.6956310
   7.6917040  97.3821970  31.8501860   7.5064940  96.9616730  33.2926610
   8.5459290 106.2552040  33.3168750   8.9647400 107.0984770  33.1444990
   7.6267920 106.3924080  33.0875530  10.8823190 103.9868220  34.7006590
  11.0019400 103.3909360  35.4401430  11.7417190 104.0237910  34.2807890
  13.2211090 104.5405410  33.2769100  12.6946310 105.0648030  32.6734240
  13.5642430 105.1732800  33.9078830   5.6197480 101.9298780  19.7218810
   5.4186540 101.0666140  20.0832150   5.4489530 101.8432140  18.7840410
   6.3966710 112.5605050  34.4326480   5.8587800 113.2851110  34.1135180
   6.6500670 112.0835390  33.6423820   7.6491960 100.5289570  35.9582410
   8.2391650 100.2205420  36.6460230   6.8312200 100.0569320  36.1142310
  12.4685390 100.1455380  36.1915430  11.7800910  99.4836920  36.1265420
  13.1891410  99.6993650  36.6363890  13.0985790  96.7407010  22.2505690
  13.3788080  95.8974910  22.6065110  12.3251520  96.9730120  22.7644440
   4.4180280  99.0299400  19.7096690   4.7206180  99.0366830  18.8015840
   5.1574870  98.6797260  20.2064350   9.2528920 113.7956260  34.6913130
   9.1787620 114.6991400  34.9985500   8.3507760 113.4768160  34.6635200
   7.6365210  97.9734020  20.6952890   7.2887210  97.2958010  20.1155340
   7.8377980  97.5123530  21.5096280   9.8014250 112.9614770  22.3139490
  10.6965040 113.2999740  22.3358250   9.8331880 112.2394180  21.6863770
   3.4410410 108.3341820  20.5426490   3.8785280 108.8771490  21.1984070
   3.9258140 107.5088770  20.5522830   5.2518130 109.4539860  25.6548720
   4.9513670 109.3304830  26.5552630   5.1455620 108.5948450  25.2464450
  16.7808600 111.4918440  35.0205690  16.1810590 111.5511000  34.2769610
  16.9102500 110.5523420  35.1502540  18.0210050 109.2336260  20.3575400
  17.1903010 109.3012910  20.8282630  18.1981880 110.1240380  20.0542260
  17.4766510 105.9783740  22.8609600  18.2385420 106.5480390  22.9669290
  17.4920880 105.4110940  23.6317910  18.4826480 106.8333840  27.7051530
  18.8535310 106.0501160  27.2987500  19.1228410 107.5222940  27.5268830
  15.4660240 108.2170420  33.1181850  14.6520080 108.6467580  33.3807640
  15.8734440 108.8288830  32.5050900  17.5285680 106.2718110  20.0182120
  17.8034520 107.1796990  19.8901340  17.3396420 106.2080640  20.9544110
  13.9261290  99.2962960  21.3135750  14.3446170  99.1093940  20.4732410
  13.6197350  98.4442010  21.6238680  17.4251020 104.2087100  25.0111550
  17.0494620 103.4415030  24.5792840  16.6954140 104.5909800  25.4986480
   2.0146780 104.8874240  31.6320600   2.3819820 104.8001640  32.5116620
   1.4457600 104.1240790  31.5327460  16.8150640 103.3558620  34.6451070
  16.5836730 103.1271370  33.7449020  17.0755190 104.2758170  34.5995960
  15.2538710  98.5815050  37.4230770  16.1308890  98.5898450  37.8064770
  15.2659550  97.8445890  36.8123120  16.7001980 102.4344590  28.3118790
  17.2239460 101.9407240  27.6808960  17.2861400 102.5694950  29.0566360
  16.8791700 102.5184460  31.8338340  15.9294410 102.4848000  31.9483330
  17.0604710 103.4284570  31.5988110   2.7336140 100.7686140  20.9436970
   3.4427840 100.3469360  20.4584250   2.0176080 100.8361370  20.3120320
   2.3810300  96.8225470  19.9839620   3.1038430  97.3634410  20.3020840
   2.6534820  96.5488890  19.1081160  16.1901950 101.6917940  24.2511200
  16.6861070 101.4588810  25.0360080  15.9918020 100.8529780  23.8348840
   2.0702490  96.0731660  29.8862240   2.7178680  95.5229040  29.4457400
   2.4904330  96.3274810  30.7078050  17.6189110 100.3278890  26.7848880
  17.5088390 100.1734930  27.7231150  18.3796700  99.7999830  26.5424290
  15.9654830  96.2673020  33.2431880  16.6027050  96.8807160  33.6091070
  16.1129720  96.3033680  32.2981110  18.5079380  98.1586810  20.0255020
  19.4328690  98.0267990  19.8173310  18.4855170  98.2379630  20.9791470
  18.5817870  98.9297470  22.6511730  17.7869370  98.8642590  23.1804640
  18.7861150  99.8648110  22.6397080  15.5236290 112.9689020  26.6450120
  16.1195360 112.6473590  25.9684540  15.7814440 112.4960840  27.4363390
   1.8234490  96.2287330  32.6287560   1.4749310  96.6851150  33.3945740
   1.4922190  95.3344460  32.7109990   3.4298860 109.4006930  36.7940750
   3.3868490 109.0299840  37.6755210   3.5609870 110.3384500  36.9342570
   7.1304890 110.9566520  32.3950470   6.8896250 111.2241080  31.5080990
   8.0707530 111.1272250  32.4501330   9.3359310  97.4199210  36.1506980
   9.2748200  98.0121040  36.9002390  10.2759690  97.3125170  36.0057240
  11.9733870  97.0769270  35.7899270  12.5874280  97.3948560  35.1280350
  12.5183430  96.5917860  36.4095130  18.3909050 112.9760900  33.1961110
  17.8967330 113.3729770  32.4788240  17.7822340 112.3510110  33.5898390
   2.4955130  95.7563530  35.9038330   3.0438120  95.5751580  35.1404440
   2.5610440  94.9657640  36.4394640   3.2686890 112.3469180  33.9138530
   2.6747210 112.2153880  34.6528570   3.2610730 111.5107320  33.4480630
  12.7141910  95.6401410  32.1168560  11.8401750  95.9736520  31.9141490
  12.6052660  95.1674590  32.9420430  13.6213890  97.8472280  33.5010280
  13.2927250  97.0324040  33.1212010  14.5696190  97.8042090  33.3775970
  16.0748500 113.6184320  30.4747850  15.6151470 114.3700130  30.1005870
  15.4460960 112.8990790  30.4162650   2.8999120 109.7127560  32.8646570
   2.1733180 109.0932850  32.7972520   2.9608270 110.1068170  31.9944650
   6.5044220 111.9272560  29.6495980   7.0209240 111.3159920  29.1244240
   7.1541600 112.4301340  30.1406990   9.2439720 112.8181050  30.4764960
   9.5317530 112.5635350  29.5997970   9.7562940 112.2658410  31.0670530
  10.4616730  96.5571250  31.0561470   9.6788520  97.0316750  31.3358230
  10.1679660  95.6526080  30.9474650  15.0137800  97.2594350  29.1010560
  15.4545890  97.2039450  28.2532160  14.7445390  98.1752360  29.1720740
  16.8776370  96.8909590  27.1119380  16.8164770  95.9470810  26.9650400
  17.6568400  96.9989680  27.6572840   1.8057140  96.8618730  23.5775190
   2.5636500  96.9747610  23.0039220   1.3434310  97.6987930  23.5318620
   8.3470950  98.9758000  26.5677500   7.5345460  98.6014890  26.2273380
   8.8512590  98.2203080  26.8698690  12.8495930  95.6400450  27.8060570
  13.4525300  96.2120660  28.2809090  12.1088920  96.2039890  27.5834470
  15.9930530  96.0422010  23.0800850  16.1881160  96.9405460  23.3468280
  15.2060400  95.8109090  23.5733800   2.7891820 111.7235180  23.5193470
   2.2639440 112.1043210  22.8155430   2.7136400 112.3485950  24.2403180
   4.1782290  97.3882780  22.1177160   4.7075050  96.6012580  21.9885110
   4.8110610  98.0673970  22.3512690   6.3720130  97.1257920  25.1722550
   5.7422870  96.4245230  25.3392680   5.8325270  97.8862050  24.9555710
   9.3112080 113.7397150  37.8433160  10.2379390 113.5041420  37.8869120
   9.2962510 114.5669150  37.3619190  17.5457140 113.2822720  24.8407410
  17.7209330 112.5960460  24.1968330  16.8478710 113.8069770  24.4484080
   6.4975690  96.4041900  37.6075040   6.2159960  96.9075500  36.8435860
   6.8795390  95.6063650  37.2417170   5.3884790 113.6717560  22.3942720
   6.1203610 113.3876840  21.8466610   5.6478460 113.4330840  23.2842100
   4.5499580 109.7882290  22.3989050   3.9208460 110.2567390  22.9474880
   4.6647410 108.9431510  22.8335240  13.0991150  95.8195480  38.1855510
  12.9856600  96.1390090  39.0807030  13.9160890  96.2207990  37.8892790
  15.8789640 112.9667010  37.6674200  16.6714960 112.4716240  37.4600160
  16.1722790 113.6457150  38.2749810  12.0049300 103.8387950   8.5490250
  11.9243350 102.9242560   8.2781960  11.5913720 104.3355020   7.8429960
  10.1367340 105.6166970  10.4299520   9.3609440 105.1367410  10.7198090
  10.7880270 104.9372620  10.2555680   4.1533170 105.9286780  11.3075280
   3.3218050 105.6735490  11.7071790   4.7614150 105.9997550  12.0433200
  14.1574770 110.0227160   9.2098650  13.6956300 109.2514400   9.5385820
  14.9700320 110.0493230   9.7151100   4.1334430 109.9626870  11.5033300
   4.4362470 109.0724610  11.3243520   4.8778020 110.5197090  11.2755550
   2.5625120 100.8888670   5.0917670   1.6741820 101.2304640   4.9897550
   2.8466310 100.6888990   4.1998500  10.3838080 112.3085170   8.8302640
   9.7649520 112.7642670   8.2597080  11.2389860 112.4636630   8.4292340
   9.5776330 108.2924160  10.4369680   9.5084610 107.3514100  10.2758810
  10.3396190 108.3825570  11.0092250   1.7683000  98.8978680  12.7626300
   1.5885840  98.0004430  13.0429060   1.3663080  99.4450550  13.4373250
  10.6081500 101.0994540  10.6638610  10.9846320 100.2266420  10.5512280
  10.5101010 101.4353240   9.7729050   4.7386510  99.4720170   6.1256050
   4.8453260 100.3723900   6.4324810   3.8278870  99.4238140   5.8350700
  14.3905620  98.5944980   7.5966950  15.2115240  98.1041550   7.6392430
  14.4239700  99.1842640   8.3498790   2.3869670 101.3939180  11.3708640
   3.0679780 101.6577550  11.9896040   2.0717720 100.5540050  11.7046650
   6.5794240 102.4406540  10.4581230   7.0872460 102.9387510  11.0986250
   7.1107480 101.6641740  10.2820590  18.6805170 100.6111730  14.1610580
  17.9757340 100.9993440  13.6425690  18.9463090 101.3062020  14.7631510
   4.8630340  97.0805100  14.7244650   4.8648780  97.5977490  13.9190550
   4.0334650  96.6035280  14.7014580  11.2501430 107.1924410   6.2234550
  10.6318700 107.6573860   5.6597270  11.7624680 107.8851890   6.6404060
   6.1133190 106.7200280  12.9018150   5.7802570 107.3469200  13.5439220
   6.2899870 107.2462160  12.1219820  14.6267100 100.5345360  10.3694490
  13.9222670 100.8230250  10.9497600  14.9879260 101.3445470  10.0094050
   4.5445670  98.7915060  12.7315100   4.8862480  99.6357110  12.4368970
   3.6061480  98.9398800  12.8480440   5.3252290 108.6881080  14.7167330
   5.9426290 109.3632160  14.4351780   4.4645410 109.0969060  14.6254830
  16.2429880 110.1520490  12.6321970  15.5593400 110.8219600  12.6238640
  16.7824170 110.3501140  11.8666830  17.6954020  99.9800150  10.7603700
  16.7478930 100.0139130  10.8919130  18.0204010 100.7939100  11.1453060
   8.2273560  96.2797330   9.0559690   8.5348540  95.7244220   8.3395190
   7.2974260  96.4141790   8.8732680  13.7788620 111.9964620  11.3467150
  13.7915780 111.5926910  10.4789410  13.2263840 112.7711910  11.2428580
  15.0734040 108.7180840   6.4357320  14.9630370 107.7755170   6.5606740
  15.0702290 109.0796480   7.3220080  13.1774060 106.8994460  12.6749760
  13.5942850 106.6854570  11.8403220  13.9013880 107.1567250  13.2458380
  10.6154320 104.3446160   5.7919810   9.6883600 104.2783540   6.0208280
  10.7679140 105.2826290   5.6775050  10.6023400 100.6163160   2.7886970
   9.6627070 100.7777120   2.8739430  10.9206660 101.3348840   2.2422960
  17.1236160 105.2981680  12.7666000  16.2954790 105.3674770  12.2916130
  17.7186640 105.8835990  12.2981830  14.6451610 105.9066460   6.2955060
  14.0264030 105.5686010   5.6481360  14.6276060 105.2626220   7.0034250
  14.0878170 102.0851000  13.7120870  13.6749350 102.9104710  13.9660860
  13.3554120 101.4996040  13.5197230   6.2210960 104.8710900   8.5739540
   5.8167960 104.1588150   8.0785440   6.3074080 104.5264140   9.4627580
   6.6892660 108.5578460  10.7378750   6.3920950 107.9523930  10.0586530
   7.6392480 108.5955770  10.6268110   4.9339580 101.6454110  12.3538580
   5.4854170 101.7549450  11.5791830   5.4483090 102.0191710  13.0693810
  14.7778270 112.1310330  14.4001850  14.3008830 112.9382520  14.2074460
  14.0940060 111.4788660  14.5528060   5.7811090 108.2960150  17.3886550
   4.8839620 108.5200120  17.6359950   5.8063960 108.4195090  16.4397950
  12.8216310 105.1453270   3.3027810  13.2609590 104.3075700   3.1565630
  13.5344730 105.7782670   3.3891950   4.6082310 105.1673470  15.9643920
   4.4690080 106.0396270  16.3331320   3.7263670 104.8246280  15.8191860
  10.9311690 110.0849340   7.2709050  11.3707600 110.8273670   6.8564440
  10.8698580 110.3275910   8.1948010   6.4062660 111.1095170  18.1729070
   6.3778090 111.5138120  17.3057500   6.2427630 110.1805530  18.0100670
   2.9215590 103.7655880   6.0746190   2.8013190 104.4917970   5.4627460
   2.6116480 102.9958790   5.5974100  18.3577480 111.8922270  19.4693240
  18.8337200 112.3705160  20.1482320  18.9784640 111.8239760  18.7438740
   1.8048590 108.6371210   8.2921010   1.3976670 108.7785800   7.4374610
   2.6961600 108.3531370   8.0892220  17.7610730 109.0835120  16.6293250
  17.8873790 108.8447000  15.7110430  17.8032110 108.2519660  17.1015330
  11.6227470 112.7863120  15.1988060  12.1372140 112.6971130  16.0010490
  10.7796550 113.1322820  15.4915970  13.5981870 113.0718460   4.6272060
  13.4383010 112.7821400   5.5253890  13.4328580 112.2958590   4.0917290
   6.0770250 112.8516990   6.4043680   5.9012730 111.9352530   6.1911480
   5.2225990 113.2104280   6.6441480  13.3008000 110.5806020   3.1870060
  12.6073160 110.5783310   2.5272340  14.0430860 110.1565340   2.7564230
  12.8657930 112.2068730   7.2618550  13.3214880 111.4258110   7.5757170
  13.2050450 112.9175550   7.8059730  17.6134740 101.1367580  17.5942990
  16.9979010 101.6447250  17.0658450  17.2931160 100.2365910  17.5368930
   5.3879250  97.1090950   9.4569860   4.9447400  97.8900490   9.1254380
   5.9464240  97.4320840  10.1640800   9.6749060  99.9759470  15.0605180
   9.2128430 100.1842490  15.8725120   9.2727170  99.1618820  14.7575850
  14.6753570 101.1968420  16.1901840  13.8247160 100.8974170  16.5110910
  14.5155360 101.4410430  15.2785660  11.7703280 102.6970170  18.2900630
  12.0956690 101.8633920  17.9502860  12.5583610 103.2198690  18.4378960
   8.5038070  96.7301650   4.3375690   7.8792250  96.7261520   5.0629000
   8.4168190  95.8632610   3.9411660   7.4255150  97.6538280  11.3159460
   7.7227480  98.5601110  11.2351480   7.9740710  97.1657060  10.7019030
   5.1793470 102.2324520   7.1851110   4.9534390 102.0161690   8.0897730
   4.3986000 102.6652980   6.8397080  12.4091230 102.2387890   5.7841760
  11.8100120 102.9623690   5.6005380  12.9570840 102.1764670   5.0018210
   7.6192680 103.1310100  17.8511380   7.5236280 102.1904830  17.7011780
   8.4624660 103.3525170  17.4559450  11.0156100 100.8751430   7.8145040
  11.4085670 101.1923630   7.0013730  11.3772950  99.9963310   7.9289560
   2.7503220  99.5423770  16.0045160   2.3566610 100.3898980  16.2117940
   2.0621620  98.9050140  16.1953800   9.3248270  99.6258740  19.0741900
   8.6346590  99.4330940  19.7087990  10.0680570  99.9093380  19.6066200
  11.6011240 103.4657180  11.9095820  10.8692360 103.9743990  12.2585920
  11.2035580 102.6487160  11.6084600   8.0388630 100.1411380  10.3148310
   8.0424690  99.7001330   9.4652850   8.9339750 100.4628710  10.4220130
   3.8891010 100.0237870   9.2742520   3.5491060 100.5013100  10.0309570
   3.1268330  99.5702990   8.9143620   8.1008780 101.1423460   3.3055070
   8.2221600 101.1009940   4.2540890   7.7157290 102.0047610   3.1501800
  12.0637150  98.9190860  11.3218760  12.0809890  99.3699510  12.1660610
  11.8152730  98.0196500  11.5352200   7.1130280 103.4524600   2.7038370
   6.5447180 103.0042850   2.0774280   7.8219280 103.8117380   2.1703520
  15.4907900  96.3323040  17.1605140  15.8153670  95.6012700  17.6863120
  15.5264410  96.0136680  16.2586130   2.1899460 107.3536620  16.5805100
   1.8054250 106.7130290  17.1788060   2.5011650 108.0572740  17.1499830
   8.3396600 104.2013160  12.0613720   8.7066730 103.7271730  12.8075060
   8.1501660 105.0754730  12.4022060   6.1295970 103.2421800  14.3797930
   5.8253040 104.1213780  14.6048290   7.0842430 103.3021590  14.4155370
   4.6577760 107.4482790   4.9764780   3.8840020 106.9080410   4.8163500
   5.3872390 106.9289400   4.6382540  15.4165740 106.4448150  10.7691170
  16.1364860 106.9403440  10.3787280  15.2147560 105.7666040  10.1245040
  10.8775680  97.8386110   4.9120560  10.0640290  97.3399280   4.8365870
  10.6837630  98.6784360   4.4956910  10.7984540 106.5157210  16.6560170
  10.7321850 105.5952880  16.4017760  10.1689680 106.6132650  17.3704810
  13.5924070 102.2105760   3.2082720  14.4803690 102.5222990   3.0334060
  13.5629160 101.3378010   2.8163300   4.7015160 107.1163170   8.6143590
   5.2193830 106.3131430   8.5600480   4.2499180 107.0542310   9.4560420
   9.5884660 108.3829450   3.8870890   9.9300360 109.1271680   3.3914210
   8.7597370 108.6960570   4.2495720   2.1859700 104.0824540  15.5269290
   1.8274640 104.7478390  16.1142630   1.8914260 103.2508090  15.8981910
   5.3872820 104.5408780  18.4108840   5.0872960 104.6865960  17.5136660
   6.1584060 103.9814070  18.3182230  10.7301270 109.3377780  16.4063970
  10.7445810 108.4058740  16.1882880  10.0226370 109.4237540  17.0453740
  15.8638340 103.5217600   2.6762580  15.7802060 103.9531820   1.8259020
  16.5832530 103.9815950   3.1089400  16.9412480 105.9785120  15.7532550
  16.2160670 106.5713900  15.5561940  17.4687940 105.9708660  14.9545920
  16.8925590 110.3759860   5.4044710  16.2501750 109.7215480   5.6788430
  16.5056250 110.7814950   4.6285380  12.4712070 107.7045290   9.2516400
  12.8235890 107.1073420   8.5917770  11.5874400 107.3789520   9.4224650
   8.5575350 108.4642980   6.6586810   9.2446480 109.0112190   7.0394400
   7.7707770 109.0083710   6.6936420   7.8602560 105.4689010   6.2712170
   8.3165340 106.2794260   6.4972360   7.5090770 105.1512150   7.1030660
  10.1635170 110.9795350  13.5004470  10.8077390 111.1854730  14.1777890
  10.5264610 110.2183750  13.0475320   3.7614340  95.8126660   6.7434690
   3.6328970  95.8044560   7.6919610   2.9376360  96.1509750   6.3925700
  11.4367250 108.9827700  12.2181920  12.0789480 108.2820860  12.3314090
  11.9616600 109.7626140  12.0378810  13.2104870 109.7822600  15.4217980
  13.5461110 110.3689290  16.0995900  12.2905210 109.6515310  15.6515770
  14.8639220 107.1848260   3.6035220  14.5760920 107.6460950   4.3913100
  15.6591390 106.7246030   3.8719440   9.0393450 109.8313930  18.5906040
   8.7190320 109.1123170  19.1351730   8.3651810 110.5069000  18.6642100
   7.0807620 110.6774380   3.5339190   7.0717720 111.4104070   2.9183700
   6.1605980 110.4305960   3.6266150   2.6814260 105.8989270   4.2785950
   2.0742210 106.6388170   4.2881250   3.1563610 105.9888630   3.4524150
  12.2547050 100.0640090  13.9542840  12.6227870  99.2435300  14.2822410
  11.3945250 100.1241980  14.3698490  15.6209080  99.0197030   4.7630400
  14.9922240  99.1242700   4.0488630  15.1261000  99.2393810   5.5524280
   7.5893110 101.2982980   6.1788280   6.8809260 101.7669320   6.6201890
   7.8737590 100.6404990   6.8133470   9.2149040 102.7179680  14.1780810
   9.7134290 103.1925500  14.8432660   9.3571990 101.7943200  14.3850840
  11.6208540  98.0233640   7.6184070  11.4976320  98.0419770   6.6693580
  12.5693100  98.0712580   7.7382470   8.7085330 113.2588940   6.8912050
   8.9626830 113.2210330   5.9691420   7.7597810 113.1322270   6.8840300
   5.7928130  99.6068060   3.5538990   6.6418660 100.0438210   3.4879180
   5.4259400  99.9188320   4.3811050  16.4215900  98.9347640  15.0209200
  15.9189500  99.6753040  15.3603010  17.2372560  99.3231640  14.7045990
  14.7137910 104.1780820   8.4670560  13.7728050 104.1931050   8.6418250
  15.0281980 103.3916780   8.9130860   3.3866310 103.2925490   2.7107410
   3.4669900 102.3453000   2.8224810   4.2786060 103.6232370   2.8168070
  16.7163490 111.3489670  10.1424820  16.8410910 112.1720840  10.6148630
  17.5829050 111.1380400   9.7948970   4.1881020 113.4420880   9.8141950
   4.9243500 112.8936340  10.0850520   4.5721940 114.3076890   9.6747940
   3.1939300 112.6266950  19.0027530   3.9952030 112.9479000  19.4162930
   2.6791120 112.2662530  19.7247440  12.0303930 108.7346820  18.9502940
  11.4242090 108.7578420  18.2098690  11.7258040 108.0029860  19.4870190
  13.4604300 112.4627110  17.5612350  14.4126050 112.3785130  17.5112590
  13.3132520 113.1268820  18.2346140  16.3513500 111.8421320   3.0604260
  16.0655010 111.4286460   2.2458440  16.1533050 112.7709030   2.9404780
   7.9675050 106.5211400  17.4799100   7.2020720 107.0896400  17.3953770
   8.1491010 106.2287610  16.5867330  11.0563460 106.8974630   2.1051860
  10.5073560 107.3443930   2.7494600  11.6782720 106.3923880   2.6289530
  15.1098400 108.2516730  18.0374120  15.8507870 108.5892490  17.5341580
  14.3471080 108.4208790  17.4843890   2.9460190 103.2570000  18.8413650
   2.9865530 102.9583870  19.7498880   3.8005690 103.6577610  18.6821170
   6.7238580 105.8565550   4.0017160   7.1455000 105.6905420   4.8448550
   6.8489420 105.0465780   3.5072300   4.8866000 101.8362100  16.8088140
   4.3562460 101.3453050  16.1811480   5.5554070 102.2646300  16.2746070
  13.7844060 106.3031560  16.5729330  14.1985080 106.4576640  17.4219750
  12.8495060 106.4286780  16.7355110  14.2566230 103.6427720  18.5768480
  14.8387000 102.8880040  18.4888960  14.4328000 104.1735160  17.7999960
   5.3738300  98.8024470  16.8885430   5.2795170  98.1845220  16.1636300
   4.7935690  99.5290760  16.6615340   8.1399740  97.3597710  13.9212820
   7.6917040  97.3821970  13.0758370   7.5064940  96.9616730  14.5183120
   8.5459290 106.2552040  14.5425260   8.9647400 107.0984770  14.3701500
   7.6267920 106.3924080  14.3132040  10.8823190 103.9868220  15.9263100
  11.0019400 103.3909360  16.6657940  11.7417190 104.0237910  15.5064400
  13.2211090 104.5405410  14.5025610  12.6946310 105.0648030  13.8990750
  13.5642430 105.1732800  15.1335340   6.3966710 112.5605050  15.6582990
   5.8587800 113.2851110  15.3391690   6.6500670 112.0835390  14.8680330
   7.6491960 100.5289570  17.1838920   8.2391650 100.2205420  17.8716740
   6.8312200 100.0569320  17.3398820  12.4685390 100.1455380  17.4171940
  11.7800910  99.4836920  17.3521930  13.1891410  99.6993650  17.8620400
  13.0985790  96.7407010   3.4762200  13.3788080  95.8974910   3.8321620
  12.3251520  96.9730120   3.9900950   9.2528920 113.7956260  15.9169640
   9.1787620 114.6991400  16.2242010   8.3507760 113.4768160  15.8891710
   9.8014250 112.9614770   3.5396000  10.6965040 113.2999740   3.5614760
   9.8331880 112.2394180   2.9120280   3.4410410 108.3341820   1.7683000
   3.8785280 108.8771490   2.4240580   3.9258140 107.5088770   1.7779340
   5.2518130 109.4539860   6.8805230   4.9513670 109.3304830   7.7809140
   5.1455620 108.5948450   6.4720960  16.7808600 111.4918440  16.2462200
  16.1810590 111.5511000  15.5026120  16.9102500 110.5523420  16.3759050
  17.4766510 105.9783740   4.0866110  18.2385420 106.5480390   4.1925800
  17.4920880 105.4110940   4.8574420  18.4826480 106.8333840   8.9308040
  18.8535310 106.0501160   8.5244010  19.1228410 107.5222940   8.7525340
  15.4660240 108.2170420  14.3438360  14.6520080 108.6467580  14.6064150
  15.8734440 108.8288830  13.7307410  13.9261290  99.2962960   2.5392260
  14.3446170  99.1093940   1.6988920  13.6197350  98.4442010   2.8495190
  17.4251020 104.2087100   6.2368060  17.0494620 103.4415030   5.8049350
  16.6954140 104.5909800   6.7242990   2.0146780 104.8874240  12.8577110
   2.3819820 104.8001640  13.7373130   1.4457600 104.1240790  12.7583970
  16.8150640 103.3558620  15.8707580  16.5836730 103.1271370  14.9705530
  17.0755190 104.2758170  15.8252470  15.2538710  98.5815050  18.6487280
  16.1308890  98.5898450  19.0321280  15.2659550  97.8445890  18.0379630
  16.7001980 102.4344590   9.5375300  17.2239460 101.9407240   8.9065470
  17.2861400 102.5694950  10.2822870  16.8791700 102.5184460  13.0594850
  15.9294410 102.4848000  13.1739840  17.0604710 103.4284570  12.8244620
  16.1901950 101.6917940   5.4767710  16.6861070 101.4588810   6.2616590
  15.9918020 100.8529780   5.0605350   2.0702490  96.0731660  11.1118750
   2.7178680  95.5229040  10.6713910   2.4904330  96.3274810  11.9334560
  17.6189110 100.3278890   8.0105390  17.5088390 100.1734930   8.9487660
  18.3796700  99.7999830   7.7680800  15.9654830  96.2673020  14.4688390
  16.6027050  96.8807160  14.8347580  16.1129720  96.3033680  13.5237620
  18.5817870  98.9297470   3.8768240  17.7869370  98.8642590   4.4061150
  18.7861150  99.8648110   3.8653590  15.5236290 112.9689020   7.8706630
  16.1195360 112.6473590   7.1941050  15.7814440 112.4960840   8.6619900
   1.8234490  96.2287330  13.8544070   1.4749310  96.6851150  14.6202250
   1.4922190  95.3344460  13.9366500   3.4298860 109.4006930  18.0197260
   3.3868490 109.0299840  18.9011720   3.5609870 110.3384500  18.1599080
   7.1304890 110.9566520  13.6206980   6.8896250 111.2241080  12.7337500
   8.0707530 111.1272250  13.6757840   9.3359310  97.4199210  17.3763490
   9.2748200  98.0121040  18.1258900  10.2759690  97.3125170  17.2313750
  11.9733870  97.0769270  17.0155780  12.5874280  97.3948560  16.3536860
  12.5183430  96.5917860  17.6351640  18.3909050 112.9760900  14.4217620
  17.8967330 113.3729770  13.7044750  17.7822340 112.3510110  14.8154900
   2.4955130  95.7563530  17.1294840   3.0438120  95.5751580  16.3660950
   2.5610440  94.9657640  17.6651150   3.2686890 112.3469180  15.1395040
   2.6747210 112.2153880  15.8785080   3.2610730 111.5107320  14.6737140
  12.7141910  95.6401410  13.3425070  11.8401750  95.9736520  13.1398000
  12.6052660  95.1674590  14.1676940  13.6213890  97.8472280  14.7266790
  13.2927250  97.0324040  14.3468520  14.5696190  97.8042090  14.6032480
  16.0748500 113.6184320  11.7004360  15.6151470 114.3700130  11.3262380
  15.4460960 112.8990790  11.6419160   2.8999120 109.7127560  14.0903080
   2.1733180 109.0932850  14.0229030   2.9608270 110.1068170  13.2201160
   6.5044220 111.9272560  10.8752490   7.0209240 111.3159920  10.3500750
   7.1541600 112.4301340  11.3663500   9.2439720 112.8181050  11.7021470
   9.5317530 112.5635350  10.8254480   9.7562940 112.2658410  12.2927040
  10.4616730  96.5571250  12.2817980   9.6788520  97.0316750  12.5614740
  10.1679660  95.6526080  12.1731160  15.0137800  97.2594350  10.3267070
  15.4545890  97.2039450   9.4788670  14.7445390  98.1752360  10.3977250
  16.8776370  96.8909590   8.3375890  16.8164770  95.9470810   8.1906910
  17.6568400  96.9989680   8.8829350   1.8057140  96.8618730   4.8031700
   2.5636500  96.9747610   4.2295730   1.3434310  97.6987930   4.7575130
   8.3470950  98.9758000   7.7934010   7.5345460  98.6014890   7.4529890
   8.8512590  98.2203080   8.0955200  12.8495930  95.6400450   9.0317080
  13.4525300  96.2120660   9.5065600  12.1088920  96.2039890   8.8090980
  15.9930530  96.0422010   4.3057360  16.1881160  96.9405460   4.5724790
  15.2060400  95.8109090   4.7990310   2.7891820 111.7235180   4.7449980
   2.2639440 112.1043210   4.0411940   2.7136400 112.3485950   5.4659690
   4.1782290  97.3882780   3.3433670   4.7075050  96.6012580   3.2141620
   4.8110610  98.0673970   3.5769200   6.3720130  97.1257920   6.3979060
   5.7422870  96.4245230   6.5649190   5.8325270  97.8862050   6.1812220
   9.3112080 113.7397150  19.0689670  10.2379390 113.5041420  19.1125630
   9.2962510 114.5669150  18.5875700  17.5457140 113.2822720   6.0663920
  17.7209330 112.5960460   5.4224840  16.8478710 113.8069770   5.6740590
   6.4975690  96.4041900  18.8331550   6.2159960  96.9075500  18.0692370
   6.8795390  95.6063650  18.4673680   5.3884790 113.6717560   3.6199230
   6.1203610 113.3876840   3.0723120   5.6478460 113.4330840   4.5098610
   4.5499580 109.7882290   3.6245560   3.9208460 110.2567390   4.1731390
   4.6647410 108.9431510   4.0591750  13.0991150  95.8195480  19.4112020
  12.9856600  96.1390090  20.3063540  13.9160890  96.2207990  19.1149300
  15.8789640 112.9667010  18.8930710  16.6714960 112.4716240  18.6856670
  16.1722790 113.6457150  19.5006320  12.0049300  85.0644460 139.9694680
  11.9243350  84.1499070 139.6986390  11.5913720  85.5611530 139.2634390
  10.1367340  86.8423480 141.8503950   9.3609440  86.3623920 142.1402520
  10.7880270  86.1629130 141.6760110   4.1533170  87.1543290 142.7279710
   3.3218050  86.8992000 143.1276220   4.7614150  87.2254060 143.4637630
  14.1574770  91.2483670 140.6303080  13.6956300  90.4770910 140.9590250
  14.9700320  91.2749740 141.1355530   4.1334430  91.1883380 142.9237730
   4.4362470  90.2981120 142.7447950   4.8778020  91.7453600 142.6959980
   2.5625120  82.1145180 136.5122100   1.6741820  82.4561150 136.4101980
   2.8466310  81.9145500 135.6202930  10.3838080  93.5341680 140.2507070
   9.7649520  93.9899180 139.6801510  11.2389860  93.6893140 139.8496770
   9.5776330  89.5180670 141.8574110   9.5084610  88.5770610 141.6963240
  10.3396190  89.6082080 142.4296680   1.7683000  80.1235190 144.1830730
   1.5885840  79.2260940 144.4633490   1.3663080  80.6707060 144.8577680
  10.6081500  82.3251050 142.0843040  10.9846320  81.4522930 141.9716710
  10.5101010  82.6609750 141.1933480   4.7386510  80.6976680 137.5460480
   4.8453260  81.5980410 137.8529240   3.8278870  80.6494650 137.2555130
  14.3905620  79.8201490 139.0171380  15.2115240  79.3298060 139.0596860
  14.4239700  80.4099150 139.7703220   2.3869670  82.6195690 142.7913070
   3.0679780  82.8834060 143.4100470   2.0717720  81.7796560 143.1251080
   6.5794240  83.6663050 141.8785660   7.0872460  84.1644020 142.5190680
   7.1107480  82.8898250 141.7025020  18.6805170  81.8368240 145.5815010
  17.9757340  82.2249950 145.0630120  18.9463090  82.5318530 146.1835940
   4.8630340  78.3061610 146.1449080   4.8648780  78.8234000 145.3394980
   4.0334650  77.8291790 146.1219010  11.2501430  88.4180920 137.6438980
  10.6318700  88.8830370 137.0801700  11.7624680  89.1108400 138.0608490
   6.1133190  87.9456790 144.3222580   5.7802570  88.5725710 144.9643650
   6.2899870  88.4718670 143.5424250  14.6267100  81.7601870 141.7898920
  13.9222670  82.0486760 142.3702030  14.9879260  82.5701980 141.4298480
   4.5445670  80.0171570 144.1519530   4.8862480  80.8613620 143.8573400
   3.6061480  80.1655310 144.2684870   5.3252290  89.9137590 146.1371760
   5.9426290  90.5888670 145.8556210   4.4645410  90.3225570 146.0459260
  16.2429880  91.3777000 144.0526400  15.5593400  92.0476110 144.0443070
  16.7824170  91.5757650 143.2871260  17.6954020  81.2056660 142.1808130
  16.7478930  81.2395640 142.3123560  18.0204010  82.0195610 142.5657490
   8.2273560  77.5053840 140.4764120   8.5348540  76.9500730 139.7599620
   7.2974260  77.6398300 140.2937110  13.7788620  93.2221130 142.7671580
  13.7915780  92.8183420 141.8993840  13.2263840  93.9968420 142.6633010
  15.0734040  89.9437350 137.8561750  14.9630370  89.0011680 137.9811170
  15.0702290  90.3052990 138.7424510  13.1774060  88.1250970 144.0954190
  13.5942850  87.9111080 143.2607650  13.9013880  88.3823760 144.6662810
  10.6154320  85.5702670 137.2124240   9.6883600  85.5040050 137.4412710
  10.7679140  86.5082800 137.0979480  10.6023400  81.8419670 134.2091400
   9.6627070  82.0033630 134.2943860  10.9206660  82.5605350 133.6627390
  17.1236160  86.5238190 144.1870430  16.2954790  86.5931280 143.7120560
  17.7186640  87.1092500 143.7186260  14.6451610  87.1322970 137.7159490
  14.0264030  86.7942520 137.0685790  14.6276060  86.4882730 138.4238680
  14.0878170  83.3107510 145.1325300  13.6749350  84.1361220 145.3865290
  13.3554120  82.7252550 144.9401660   6.2210960  86.0967410 139.9943970
   5.8167960  85.3844660 139.4989870   6.3074080  85.7520650 140.8832010
   6.6892660  89.7834970 142.1583180   6.3920950  89.1780440 141.4790960
   7.6392480  89.8212280 142.0472540   4.9339580  82.8710620 143.7743010
   5.4854170  82.9805960 142.9996260   5.4483090  83.2448220 144.4898240
  14.7778270  93.3566840 145.8206280  14.3008830  94.1639030 145.6278890
  14.0940060  92.7045170 145.9732490   5.7811090  89.5216660 148.8090980
   4.8839620  89.7456630 149.0564380   5.8063960  89.6451600 147.8602380
  12.8216310  86.3709780 134.7232240  13.2609590  85.5332210 134.5770060
  13.5344730  87.0039180 134.8096380   4.6082310  86.3929980 147.3848350
   4.4690080  87.2652780 147.7535750   3.7263670  86.0502790 147.2396290
  10.9311690  91.3105850 138.6913480  11.3707600  92.0530180 138.2768870
  10.8698580  91.5532420 139.6152440   6.4062660  92.3351680 149.5933500
   6.3778090  92.7394630 148.7261930   6.2427630  91.4062040 149.4305100
  16.4033450  77.6252590 133.0373280  16.0906110  77.7179420 133.9372350
  17.1645920  78.2033620 132.9870710   2.9215590  84.9912390 137.4950620
   2.8013190  85.7174480 136.8831890   2.6116480  84.2215300 137.0178530
   1.8048590  89.8627720 139.7125440   1.3976670  90.0042310 138.8579040
   2.6961600  89.5787880 139.5096650  17.7610730  90.3091630 148.0497680
  17.8873790  90.0703510 147.1314860  17.8032110  89.4776170 148.5219760
  11.6227470  94.0119630 146.6192490  12.1372140  93.9227640 147.4214920
  10.7796550  94.3579330 146.9120400  13.5981870  94.2974970 136.0476490
  13.4383010  94.0077910 136.9458320  13.4328580  93.5215100 135.5121720
   6.0770250  94.0773500 137.8248110   5.9012730  93.1609040 137.6115910
   5.2225990  94.4360790 138.0645910  13.3008000  91.8062530 134.6074490
  12.6073160  91.8039820 133.9476770  14.0430860  91.3821850 134.1768660
  12.8657930  93.4325240 138.6822980  13.3214880  92.6514620 138.9961600
  13.2050450  94.1432060 139.2264160  17.6134740  82.3624090 149.0147420
  16.9979010  82.8703760 148.4862880  17.2931160  81.4622420 148.9573360
   5.3879250  78.3347460 140.8774290   4.9447400  79.1157000 140.5458810
   5.9464240  78.6577350 141.5845230   9.6749060  81.2015980 146.4809610
   9.2128430  81.4099000 147.2929550   9.2727170  80.3875330 146.1780280
  14.6753570  82.4224930 147.6106270  13.8247160  82.1230680 147.9315340
  14.5155360  82.6666940 146.6990090  11.7703280  83.9226680 149.7105060
  12.0956690  83.0890430 149.3707290  12.5583610  84.4455200 149.8583390
   8.5038070  77.9558160 135.7580120   7.8792250  77.9518030 136.4833430
   8.4168190  77.0889120 135.3616090   7.4255150  78.8794790 142.7363890
   7.7227480  79.7857620 142.6555910   7.9740710  78.3913570 142.1223460
   5.1793470  83.4581030 138.6055540   4.9534390  83.2418200 139.5102160
   4.3986000  83.8909490 138.2601510  12.4091230  83.4644400 137.2046190
  11.8100120  84.1880200 137.0209810  12.9570840  83.4021180 136.4222640
   7.6192680  84.3566610 149.2715810   7.5236280  83.4161340 149.1216210
   8.4624660  84.5781680 148.8763880  11.0156100  82.1007940 139.2349470
  11.4085670  82.4180140 138.4218160  11.3772950  81.2219820 139.3493990
   2.7503220  80.7680280 147.4249590   2.3566610  81.6155490 147.6322370
   2.0621620  80.1306650 147.6158230  11.6011240  84.6913690 143.3300250
  10.8692360  85.2000500 143.6790350  11.2035580  83.8743670 143.0289030
   8.0388630  81.3667890 141.7352740   8.0424690  80.9257840 140.8857280
   8.9339750  81.6885220 141.8424560   3.8891010  81.2494380 140.6946950
   3.5491060  81.7269610 141.4514000   3.1268330  80.7959500 140.3348050
   8.1008780  82.3679970 134.7259500   8.2221600  82.3266450 135.6745320
   7.7157290  83.2304120 134.5706230  12.0637150  80.1447370 142.7423190
  12.0809890  80.5956020 143.5865040  11.8152730  79.2453010 142.9556630
   7.1130280  84.6781110 134.1242800   6.5447180  84.2299360 133.4978710
   7.8219280  85.0373890 133.5907950  15.4907900  77.5579550 148.5809570
  15.8153670  76.8269210 149.1067550  15.5264410  77.2393190 147.6790560
   2.1899460  88.5793130 148.0009530   1.8054250  87.9386800 148.5992490
   2.5011650  89.2829250 148.5704260   8.3396600  85.4269670 143.4818150
   8.7066730  84.9528240 144.2279490   8.1501660  86.3011240 143.8226490
   6.1295970  84.4678310 145.8002360   5.8253040  85.3470290 146.0252720
   7.0842430  84.5278100 145.8359800   4.6577760  88.6739300 136.3969210
   3.8840020  88.1336920 136.2367930   5.3872390  88.1545910 136.0586970
  15.4165740  87.6704660 142.1895600  16.1364860  88.1659950 141.7991710
  15.2147560  86.9922550 141.5449470  10.8775680  79.0642620 136.3324990
  10.0640290  78.5655790 136.2570300  10.6837630  79.9040870 135.9161340
  10.7984540  87.7413720 148.0764600  10.7321850  86.8209390 147.8222190
  10.1689680  87.8389160 148.7909240  13.5924070  83.4362270 134.6287150
  14.4803690  83.7479500 134.4538490  13.5629160  82.5634520 134.2367730
   4.7015160  88.3419680 140.0348020   5.2193830  87.5387940 139.9804910
   4.2499180  88.2798820 140.8764850   9.5884660  89.6085960 135.3075320
   9.9300360  90.3528190 134.8118640   8.7597370  89.9217080 135.6700150
   2.1859700  85.3081050 146.9473720   1.8274640  85.9734900 147.5347060
   1.8914260  84.4764600 147.3186340   5.3872820  85.7665290 149.8313270
   5.0872960  85.9122470 148.9341090   6.1584060  85.2070580 149.7386660
  10.7301270  90.5634290 147.8268400  10.7445810  89.6315250 147.6087310
  10.0226370  90.6494050 148.4658170  15.8638340  84.7474110 134.0967010
  15.7802060  85.1788330 133.2463450  16.5832530  85.2072460 134.5293830
  16.9412480  87.2041630 147.1736980  16.2160670  87.7970410 146.9766370
  17.4687940  87.1965170 146.3750350  16.8925590  91.6016370 136.8249140
  16.2501750  90.9471990 137.0992860  16.5056250  92.0071460 136.0489810
  12.4712070  88.9301800 140.6720830  12.8235890  88.3329930 140.0122200
  11.5874400  88.6046030 140.8429080   8.5575350  89.6899490 138.0791240
   9.2446480  90.2368700 138.4598830   7.7707770  90.2340220 138.1140850
   7.8602560  86.6945520 137.6916600   8.3165340  87.5050770 137.9176790
   7.5090770  86.3768660 138.5235090  10.1635170  92.2051860 144.9208900
  10.8077390  92.4111240 145.5982320  10.5264610  91.4440260 144.4679750
   3.7614340  77.0383170 138.1639120   3.6328970  77.0301070 139.1124040
   2.9376360  77.3766260 137.8130130  11.4367250  90.2084210 143.6386350
  12.0789480  89.5077370 143.7518520  11.9616600  90.9882650 143.4583240
  15.2822970  90.4932830 133.3625490  15.0560550  89.7763270 133.9550130
  14.8919170  90.2445270 132.5247240  13.2104870  91.0079110 146.8422410
  13.5461110  91.5945800 147.5200330  12.2905210  90.8771820 147.0720200
  14.8639220  88.4104770 135.0239650  14.5760920  88.8717460 135.8117530
  15.6591390  87.9502540 135.2923870   7.0807620  91.9030890 134.9543620
   7.0717720  92.6360580 134.3388130   6.1605980  91.6562470 135.0470580
   2.6814260  87.1245780 135.6990380   2.0742210  87.8644680 135.7085680
   3.1563610  87.2145140 134.8728580  12.2547050  81.2896600 145.3747270
  12.6227870  80.4691810 145.7026840  11.3945250  81.3498490 145.7902920
  15.6209080  80.2453540 136.1834830  14.9922240  80.3499210 135.4693060
  15.1261000  80.4650320 136.9728710  10.0667220  91.9659130 133.6168810
  10.1679200  91.7623120 132.6870790   9.1668960  91.7117410 133.8216590
   7.5893110  82.5239490 137.5992710   6.8809260  82.9925830 138.0406320
   7.8737590  81.8661500 138.2337900   9.2149040  83.9436190 145.5985240
   9.7134290  84.4182010 146.2637090   9.3571990  83.0199710 145.8055270
  11.6208540  79.2490150 139.0388500  11.4976320  79.2676280 138.0898010
  12.5693100  79.2969090 139.1586900   8.7085330  94.4845450 138.3116480
   8.9626830  94.4466840 137.3895850   7.7597810  94.3578780 138.3044730
   5.7928130  80.8324570 134.9743420   6.6418660  81.2694720 134.9083610
   5.4259400  81.1444830 135.8015480  16.4215900  80.1604150 146.4413630
  15.9189500  80.9009550 146.7807440  17.2372560  80.5488150 146.1250420
  14.7137910  85.4037330 139.8874990  13.7728050  85.4187560 140.0622680
  15.0281980  84.6173290 140.3335290   4.6919550  87.0856930 133.4478950
   5.4582820  86.9738290 134.0104380   4.7694240  86.3894900 132.7955720
   3.3866310  84.5182000 134.1311840   3.4669900  83.5709510 134.2429240
   4.2786060  84.8488880 134.2372500  16.7163490  92.5746180 141.5629250
  16.8410910  93.3977350 142.0353060  17.5829050  92.3636910 141.2153400
   4.1881020  94.6677390 141.2346380   4.9243500  94.1192850 141.5054950
   4.5721940  95.5333400 141.0952370   7.2983330  93.8407700 133.0571950
   8.0911940  94.1296530 132.6053740   6.7787680  93.4099870 132.3784430
  13.4604300  93.6883620 148.9816780  14.4126050  93.6041640 148.9317020
  13.3132520  94.3525330 149.6550570  16.3513500  93.0677830 134.4808690
  16.0655010  92.6542970 133.6662870  16.1533050  93.9965540 134.3609210
   7.8160730  89.0611110 132.9214300   7.7111370  88.4463460 133.6475680
   7.6484950  88.5377000 132.1377310   7.9675050  87.7467910 148.9003530
   7.2020720  88.3152910 148.8158200   8.1491010  87.4544120 148.0071760
  11.0563460  88.1231140 133.5256290  10.5073560  88.5700440 134.1699030
  11.6782720  87.6180390 134.0493960  15.1098400  89.4773240 149.4578550
  15.8507870  89.8149000 148.9546010  14.3471080  89.6465300 148.9048320
   6.7238580  87.0822060 135.4221590   7.1455000  86.9161930 136.2652980
   6.8489420  86.2722290 134.9276730   4.8866000  83.0618610 148.2292570
   4.3562460  82.5709560 147.6015910   5.5554070  83.4902810 147.6950500
   9.2366220  86.1059670 132.6698690   9.7571880  85.3908690 132.3039840
   9.8834620  86.7445540 132.9699200  13.7844060  87.5288070 147.9933760
  14.1985080  87.6833150 148.8424180  12.8495060  87.6543290 148.1559540
  14.2566230  84.8684230 149.9972910  14.8387000  84.1136550 149.9093390
  14.4328000  85.3991670 149.2204390   5.3738300  80.0280980 148.3089860
   5.2795170  79.4101730 147.5840730   4.7935690  80.7547270 148.0819770
   8.1399740  78.5854220 145.3417250   7.6917040  78.6078480 144.4962800
   7.5064940  78.1873240 145.9387550   8.5459290  87.4808550 145.9629690
   8.9647400  88.3241280 145.7905930   7.6267920  87.6180590 145.7336470
  10.8823190  85.2124730 147.3467530  11.0019400  84.6165870 148.0862370
  11.7417190  85.2494420 146.9268830  13.2211090  85.7661920 145.9230040
  12.6946310  86.2904540 145.3195180  13.5642430  86.3989310 146.5539770
   5.6197480  83.1555290 132.3679750   5.4186540  82.2922650 132.7293090
   5.4489530  83.0688650 131.4301350   6.3966710  93.7861560 147.0787420
   5.8587800  94.5107620 146.7596120   6.6500670  93.3091900 146.2884760
   7.6491960  81.7546080 148.6043350   8.2391650  81.4461930 149.2921170
   6.8312200  81.2825830 148.7603250  12.4685390  81.3711890 148.8376370
  11.7800910  80.7093430 148.7726360  13.1891410  80.9250160 149.2824830
  13.0985790  77.9663520 134.8966630  13.3788080  77.1231420 135.2526050
  12.3251520  78.1986630 135.4105380   4.4180280  80.2555910 132.3557630
   4.7206180  80.2623340 131.4476780   5.1574870  79.9053770 132.8525290
   9.2528920  95.0212770 147.3374070   9.1787620  95.9247910 147.6446440
   8.3507760  94.7024670 147.3096140   7.6365210  79.1990530 133.3413830
   7.2887210  78.5214520 132.7616280   7.8377980  78.7380040 134.1557220
   9.8014250  94.1871280 134.9600430  10.6965040  94.5256250 134.9819190
   9.8331880  93.4650690 134.3324710   3.4410410  89.5598330 133.1887430
   3.8785280  90.1028000 133.8445010   3.9258140  88.7345280 133.1983770
   5.2518130  90.6796370 138.3009660   4.9513670  90.5561340 139.2013570
   5.1455620  89.8204960 137.8925390  16.7808600  92.7174950 147.6666630
  16.1810590  92.7767510 146.9230550  16.9102500  91.7779930 147.7963480
  18.0210050  90.4592770 133.0036340  17.1903010  90.5269420 133.4743570
  18.1981880  91.3496890 132.7003200  17.4766510  87.2040250 135.5070540
  18.2385420  87.7736900 135.6130230  17.4920880  86.6367450 136.2778850
  18.4826480  88.0590350 140.3512470  18.8535310  87.2757670 139.9448440
  19.1228410  88.7479450 140.1729770  15.4660240  89.4426930 145.7642790
  14.6520080  89.8724090 146.0268580  15.8734440  90.0545340 145.1511840
  17.5285680  87.4974620 132.6643060  17.8034520  88.4053500 132.5362280
  17.3396420  87.4337150 133.6005050  13.9261290  80.5219470 133.9596690
  14.3446170  80.3350450 133.1193350  13.6197350  79.6698520 134.2699620
  17.4251020  85.4343610 137.6572490  17.0494620  84.6671540 137.2253780
  16.6954140  85.8166310 138.1447420   2.0146780  86.1130750 144.2781540
   2.3819820  86.0258150 145.1577560   1.4457600  85.3497300 144.1788400
  16.8150640  84.5815130 147.2912010  16.5836730  84.3527880 146.3909960
  17.0755190  85.5014680 147.2456900  16.7001980  83.6601100 140.9579730
  17.2239460  83.1663750 140.3269900  17.2861400  83.7951460 141.7027300
  16.8791700  83.7440970 144.4799280  15.9294410  83.7104510 144.5944270
  17.0604710  84.6541080 144.2449050   2.7336140  81.9942650 133.5897910
   3.4427840  81.5725870 133.1045190   2.0176080  82.0617880 132.9581260
   2.3810300  78.0481980 132.6300560   3.1038430  78.5890920 132.9481780
   2.6534820  77.7745400 131.7542100  16.1901950  82.9174450 136.8972140
  16.6861070  82.6845320 137.6821020  15.9918020  82.0786290 136.4809780
   2.0702490  77.2988170 142.5323180   2.7178680  76.7485550 142.0918340
   2.4904330  77.5531320 143.3538990  17.6189110  81.5535400 139.4309820
  17.5088390  81.3991440 140.3692090  18.3796700  81.0256340 139.1885230
  15.9654830  77.4929530 145.8892820  16.6027050  78.1063670 146.2552010
  16.1129720  77.5290190 144.9442050  18.5079380  79.3843320 132.6715960
  19.4328690  79.2524500 132.4634250  18.4855170  79.4636140 133.6252410
  18.5817870  80.1553980 135.2972670  17.7869370  80.0899100 135.8265580
  18.7861150  81.0904620 135.2858020  15.5236290  94.1945530 139.2911060
  16.1195360  93.8730100 138.6145480  15.7814440  93.7217350 140.0824330
   1.8234490  77.4543840 145.2748500   1.4749310  77.9107660 146.0406680
   1.4922190  76.5600970 145.3570930   7.1304890  92.1823030 145.0411410
   6.8896250  92.4497590 144.1541930   8.0707530  92.3528760 145.0962270
   9.3359310  78.6455720 148.7967920   9.2748200  79.2377550 149.5463330
  10.2759690  78.5381680 148.6518180  11.9733870  78.3025780 148.4360210
  12.5874280  78.6205070 147.7741290  12.5183430  77.8174370 149.0556070
  18.3909050  94.2017410 145.8422050  17.8967330  94.5986280 145.1249180
  17.7822340  93.5766620 146.2359330   2.4955130  76.9820040 148.5499270
   3.0438120  76.8008090 147.7865380   2.5610440  76.1914150 149.0855580
   3.2686890  93.5725690 146.5599470   2.6747210  93.4410390 147.2989510
   3.2610730  92.7363830 146.0941570  12.7141910  76.8657920 144.7629500
  11.8401750  77.1993030 144.5602430  12.6052660  76.3931100 145.5881370
  13.6213890  79.0728790 146.1471220  13.2927250  78.2580550 145.7672950
  14.5696190  79.0298600 146.0236910  16.0748500  94.8440830 143.1208790
  15.6151470  95.5956640 142.7466810  15.4460960  94.1247300 143.0623590
   2.8999120  90.9384070 145.5107510   2.1733180  90.3189360 145.4433460
   2.9608270  91.3324680 144.6405590   6.5044220  93.1529070 142.2956920
   7.0209240  92.5416430 141.7705180   7.1541600  93.6557850 142.7867930
   9.2439720  94.0437560 143.1225900   9.5317530  93.7891860 142.2458910
   9.7562940  93.4914920 143.7131470  10.4616730  77.7827760 143.7022410
   9.6788520  78.2573260 143.9819170  10.1679660  76.8782590 143.5935590
  15.0137800  78.4850860 141.7471500  15.4545890  78.4295960 140.8993100
  14.7445390  79.4008870 141.8181680  16.8776370  78.1166100 139.7580320
  16.8164770  77.1727320 139.6111340  17.6568400  78.2246190 140.3033780
   1.8057140  78.0875240 136.2236130   2.5636500  78.2004120 135.6500160
   1.3434310  78.9244440 136.1779560   8.3470950  80.2014510 139.2138440
   7.5345460  79.8271400 138.8734320   8.8512590  79.4459590 139.5159630
  12.8495930  76.8656960 140.4521510  13.4525300  77.4377170 140.9270030
  12.1088920  77.4296400 140.2295410  15.9930530  77.2678520 135.7261790
  16.1881160  78.1661970 135.9929220  15.2060400  77.0365600 136.2194740
   2.7891820  92.9491690 136.1654410   2.2639440  93.3299720 135.4616370
   2.7136400  93.5742460 136.8864120   4.1782290  78.6139290 134.7638100
   4.7075050  77.8269090 134.6346050   4.8110610  79.2930480 134.9973630
   6.3720130  78.3514430 137.8183490   5.7422870  77.6501740 137.9853620
   5.8325270  79.1118560 137.6016650  17.5457140  94.5079230 137.4868350
  17.7209330  93.8216970 136.8429270  16.8478710  95.0326280 137.0945020
   5.3884790  94.8974070 135.0403660   6.1203610  94.6133350 134.4927550
   5.6478460  94.6587350 135.9303040   4.5499580  91.0138800 135.0449990
   3.9208460  91.4823900 135.5935820   4.6647410  90.1688020 135.4796180
  12.0049300  85.0644460 121.1951190  11.9243350  84.1499070 120.9242900
  11.5913720  85.5611530 120.4890900  10.1367340  86.8423480 123.0760460
   9.3609440  86.3623920 123.3659030  10.7880270  86.1629130 122.9016620
   4.1533170  87.1543290 123.9536220   3.3218050  86.8992000 124.3532730
   4.7614150  87.2254060 124.6894140  14.1574770  91.2483670 121.8559590
  13.6956300  90.4770910 122.1846760  14.9700320  91.2749740 122.3612040
   4.1334430  91.1883380 124.1494240   4.4362470  90.2981120 123.9704460
   4.8778020  91.7453600 123.9216490   2.5625120  82.1145180 117.7378610
   1.6741820  82.4561150 117.6358490   2.8466310  81.9145500 116.8459440
  10.3838080  93.5341680 121.4763580   9.7649520  93.9899180 120.9058020
  11.2389860  93.6893140 121.0753280   9.5776330  89.5180670 123.0830620
   9.5084610  88.5770610 122.9219750  10.3396190  89.6082080 123.6553190
   1.7683000  80.1235190 125.4087240   1.5885840  79.2260940 125.6890000
   1.3663080  80.6707060 126.0834190  10.6081500  82.3251050 123.3099550
  10.9846320  81.4522930 123.1973220  10.5101010  82.6609750 122.4189990
   4.7386510  80.6976680 118.7716990   4.8453260  81.5980410 119.0785750
   3.8278870  80.6494650 118.4811640  14.3905620  79.8201490 120.2427890
  15.2115240  79.3298060 120.2853370  14.4239700  80.4099150 120.9959730
   2.3869670  82.6195690 124.0169580   3.0679780  82.8834060 124.6356980
   2.0717720  81.7796560 124.3507590   6.5794240  83.6663050 123.1042170
   7.0872460  84.1644020 123.7447190   7.1107480  82.8898250 122.9281530
  18.6805170  81.8368240 126.8071520  17.9757340  82.2249950 126.2886630
  18.9463090  82.5318530 127.4092450   4.8630340  78.3061610 127.3705590
   4.8648780  78.8234000 126.5651490   4.0334650  77.8291790 127.3475520
  11.2501430  88.4180920 118.8695490  10.6318700  88.8830370 118.3058210
  11.7624680  89.1108400 119.2865000   6.1133190  87.9456790 125.5479090
   5.7802570  88.5725710 126.1900160   6.2899870  88.4718670 124.7680760
  14.6267100  81.7601870 123.0155430  13.9222670  82.0486760 123.5958540
  14.9879260  82.5701980 122.6554990   4.5445670  80.0171570 125.3776040
   4.8862480  80.8613620 125.0829910   3.6061480  80.1655310 125.4941380
   5.3252290  89.9137590 127.3628270   5.9426290  90.5888670 127.0812720
   4.4645410  90.3225570 127.2715770  16.2429880  91.3777000 125.2782910
  15.5593400  92.0476110 125.2699580  16.7824170  91.5757650 124.5127770
  17.6954020  81.2056660 123.4064640  16.7478930  81.2395640 123.5380070
  18.0204010  82.0195610 123.7914000   8.2273560  77.5053840 121.7020630
   8.5348540  76.9500730 120.9856130   7.2974260  77.6398300 121.5193620
  13.7788620  93.2221130 123.9928090  13.7915780  92.8183420 123.1250350
  13.2263840  93.9968420 123.8889520  15.0734040  89.9437350 119.0818260
  14.9630370  89.0011680 119.2067680  15.0702290  90.3052990 119.9681020
  13.1774060  88.1250970 125.3210700  13.5942850  87.9111080 124.4864160
  13.9013880  88.3823760 125.8919320  10.6154320  85.5702670 118.4380750
   9.6883600  85.5040050 118.6669220  10.7679140  86.5082800 118.3235990
  10.6023400  81.8419670 115.4347910   9.6627070  82.0033630 115.5200370
  10.9206660  82.5605350 114.8883900  17.1236160  86.5238190 125.4126940
  16.2954790  86.5931280 124.9377070  17.7186640  87.1092500 124.9442770
  14.6451610  87.1322970 118.9416000  14.0264030  86.7942520 118.2942300
  14.6276060  86.4882730 119.6495190  14.0878170  83.3107510 126.3581810
  13.6749350  84.1361220 126.6121800  13.3554120  82.7252550 126.1658170
   6.2210960  86.0967410 121.2200480   5.8167960  85.3844660 120.7246380
   6.3074080  85.7520650 122.1088520   6.6892660  89.7834970 123.3839690
   6.3920950  89.1780440 122.7047470   7.6392480  89.8212280 123.2729050
   4.9339580  82.8710620 124.9999520   5.4854170  82.9805960 124.2252770
   5.4483090  83.2448220 125.7154750  14.7778270  93.3566840 127.0462790
  14.3008830  94.1639030 126.8535400  14.0940060  92.7045170 127.1989000
   5.7811090  89.5216660 130.0347490   4.8839620  89.7456630 130.2820890
   5.8063960  89.6451600 129.0858890  12.8216310  86.3709780 115.9488750
  13.2609590  85.5332210 115.8026570  13.5344730  87.0039180 116.0352890
   4.6082310  86.3929980 128.6104860   4.4690080  87.2652780 128.9792260
   3.7263670  86.0502790 128.4652800  10.9311690  91.3105850 119.9169990
  11.3707600  92.0530180 119.5025380  10.8698580  91.5532420 120.8408950
   6.4062660  92.3351680 130.8190010   6.3778090  92.7394630 129.9518440
   6.2427630  91.4062040 130.6561610  16.4033450  77.6252590 114.2629790
  16.0906110  77.7179420 115.1628860  17.1645920  78.2033620 114.2127220
   2.9215590  84.9912390 118.7207130   2.8013190  85.7174480 118.1088400
   2.6116480  84.2215300 118.2435040  18.3577480  93.1178780 132.1154180
  18.8337200  93.5961670 132.7943260  18.9784640  93.0496270 131.3899680
   1.8048590  89.8627720 120.9381950   1.3976670  90.0042310 120.0835550
   2.6961600  89.5787880 120.7353160  17.7610730  90.3091630 129.2754190
  17.8873790  90.0703510 128.3571370  17.8032110  89.4776170 129.7476270
  11.6227470  94.0119630 127.8449000  12.1372140  93.9227640 128.6471430
  10.7796550  94.3579330 128.1376910  13.5981870  94.2974970 117.2733000
  13.4383010  94.0077910 118.1714830  13.4328580  93.5215100 116.7378230
   6.0770250  94.0773500 119.0504620   5.9012730  93.1609040 118.8372420
   5.2225990  94.4360790 119.2902420  13.3008000  91.8062530 115.8331000
  12.6073160  91.8039820 115.1733280  14.0430860  91.3821850 115.4025170
  12.8657930  93.4325240 119.9079490  13.3214880  92.6514620 120.2218110
  13.2050450  94.1432060 120.4520670  17.6134740  82.3624090 130.2403930
  16.9979010  82.8703760 129.7119390  17.2931160  81.4622420 130.1829870
   5.3879250  78.3347460 122.1030800   4.9447400  79.1157000 121.7715320
   5.9464240  78.6577350 122.8101740   9.6749060  81.2015980 127.7066120
   9.2128430  81.4099000 128.5186060   9.2727170  80.3875330 127.4036790
  14.6753570  82.4224930 128.8362780  13.8247160  82.1230680 129.1571850
  14.5155360  82.6666940 127.9246600  11.7703280  83.9226680 130.9361570
  12.0956690  83.0890430 130.5963800  12.5583610  84.4455200 131.0839900
   8.5038070  77.9558160 116.9836630   7.8792250  77.9518030 117.7089940
   8.4168190  77.0889120 116.5872600   7.4255150  78.8794790 123.9620400
   7.7227480  79.7857620 123.8812420   7.9740710  78.3913570 123.3479970
   5.1793470  83.4581030 119.8312050   4.9534390  83.2418200 120.7358670
   4.3986000  83.8909490 119.4858020  12.4091230  83.4644400 118.4302700
  11.8100120  84.1880200 118.2466320  12.9570840  83.4021180 117.6479150
   7.6192680  84.3566610 130.4972320   7.5236280  83.4161340 130.3472720
   8.4624660  84.5781680 130.1020390  11.0156100  82.1007940 120.4605980
  11.4085670  82.4180140 119.6474670  11.3772950  81.2219820 120.5750500
   2.7503220  80.7680280 128.6506100   2.3566610  81.6155490 128.8578880
   2.0621620  80.1306650 128.8414740   9.3248270  80.8515250 131.7202840
   8.6346590  80.6587450 132.3548930  10.0680570  81.1349890 132.2527140
  11.6011240  84.6913690 124.5556760  10.8692360  85.2000500 124.9046860
  11.2035580  83.8743670 124.2545540   8.0388630  81.3667890 122.9609250
   8.0424690  80.9257840 122.1113790   8.9339750  81.6885220 123.0681070
   3.8891010  81.2494380 121.9203460   3.5491060  81.7269610 122.6770510
   3.1268330  80.7959500 121.5604560   8.1008780  82.3679970 115.9516010
   8.2221600  82.3266450 116.9001830   7.7157290  83.2304120 115.7962740
  12.0637150  80.1447370 123.9679700  12.0809890  80.5956020 124.8121550
  11.8152730  79.2453010 124.1813140   7.1130280  84.6781110 115.3499310
   6.5447180  84.2299360 114.7235220   7.8219280  85.0373890 114.8164460
  15.4907900  77.5579550 129.8066080  15.8153670  76.8269210 130.3324060
  15.5264410  77.2393190 128.9047070   2.1899460  88.5793130 129.2266040
   1.8054250  87.9386800 129.8249000   2.5011650  89.2829250 129.7960770
   8.3396600  85.4269670 124.7074660   8.7066730  84.9528240 125.4536000
   8.1501660  86.3011240 125.0483000   6.1295970  84.4678310 127.0258870
   5.8253040  85.3470290 127.2509230   7.0842430  84.5278100 127.0616310
   4.6577760  88.6739300 117.6225720   3.8840020  88.1336920 117.4624440
   5.3872390  88.1545910 117.2843480  15.4165740  87.6704660 123.4152110
  16.1364860  88.1659950 123.0248220  15.2147560  86.9922550 122.7705980
  10.8775680  79.0642620 117.5581500  10.0640290  78.5655790 117.4826810
  10.6837630  79.9040870 117.1417850  10.7984540  87.7413720 129.3021110
  10.7321850  86.8209390 129.0478700  10.1689680  87.8389160 130.0165750
  13.5924070  83.4362270 115.8543660  14.4803690  83.7479500 115.6795000
  13.5629160  82.5634520 115.4624240   4.7015160  88.3419680 121.2604530
   5.2193830  87.5387940 121.2061420   4.2499180  88.2798820 122.1021360
   9.5884660  89.6085960 116.5331830   9.9300360  90.3528190 116.0375150
   8.7597370  89.9217080 116.8956660   2.1859700  85.3081050 128.1730230
   1.8274640  85.9734900 128.7603570   1.8914260  84.4764600 128.5442850
   5.3872820  85.7665290 131.0569780   5.0872960  85.9122470 130.1597600
   6.1584060  85.2070580 130.9643170  10.7301270  90.5634290 129.0524910
  10.7445810  89.6315250 128.8343820  10.0226370  90.6494050 129.6914680
  15.8638340  84.7474110 115.3223520  15.7802060  85.1788330 114.4719960
  16.5832530  85.2072460 115.7550340  16.9412480  87.2041630 128.3993490
  16.2160670  87.7970410 128.2022880  17.4687940  87.1965170 127.6006860
  16.8925590  91.6016370 118.0505650  16.2501750  90.9471990 118.3249370
  16.5056250  92.0071460 117.2746320  12.4712070  88.9301800 121.8977340
  12.8235890  88.3329930 121.2378710  11.5874400  88.6046030 122.0685590
   8.5575350  89.6899490 119.3047750   9.2446480  90.2368700 119.6855340
   7.7707770  90.2340220 119.3397360   7.8602560  86.6945520 118.9173110
   8.3165340  87.5050770 119.1433300   7.5090770  86.3768660 119.7491600
  10.1635170  92.2051860 126.1465410  10.8077390  92.4111240 126.8238830
  10.5264610  91.4440260 125.6936260   3.7614340  77.0383170 119.3895630
   3.6328970  77.0301070 120.3380550   2.9376360  77.3766260 119.0386640
  11.4367250  90.2084210 124.8642860  12.0789480  89.5077370 124.9775030
  11.9616600  90.9882650 124.6839750  15.2822970  90.4932830 114.5882000
  15.0560550  89.7763270 115.1806640  14.8919170  90.2445270 113.7503750
  13.2104870  91.0079110 128.0678920  13.5461110  91.5945800 128.7456840
  12.2905210  90.8771820 128.2976710  14.8639220  88.4104770 116.2496160
  14.5760920  88.8717460 117.0374040  15.6591390  87.9502540 116.5180380
   9.0393450  91.0570440 131.2366980   8.7190320  90.3379680 131.7812670
   8.3651810  91.7325510 131.3103040   7.0807620  91.9030890 116.1800130
   7.0717720  92.6360580 115.5644640   6.1605980  91.6562470 116.2727090
   2.6814260  87.1245780 116.9246890   2.0742210  87.8644680 116.9342190
   3.1563610  87.2145140 116.0985090  12.2547050  81.2896600 126.6003780
  12.6227870  80.4691810 126.9283350  11.3945250  81.3498490 127.0159430
  15.6209080  80.2453540 117.4091340  14.9922240  80.3499210 116.6949570
  15.1261000  80.4650320 118.1985220  10.0667220  91.9659130 114.8425320
  10.1679200  91.7623120 113.9127300   9.1668960  91.7117410 115.0473100
   7.5893110  82.5239490 118.8249220   6.8809260  82.9925830 119.2662830
   7.8737590  81.8661500 119.4594410   9.2149040  83.9436190 126.8241750
   9.7134290  84.4182010 127.4893600   9.3571990  83.0199710 127.0311780
  11.6208540  79.2490150 120.2645010  11.4976320  79.2676280 119.3154520
  12.5693100  79.2969090 120.3843410   8.7085330  94.4845450 119.5372990
   8.9626830  94.4466840 118.6152360   7.7597810  94.3578780 119.5301240
   5.7928130  80.8324570 116.1999930   6.6418660  81.2694720 116.1340120
   5.4259400  81.1444830 117.0271990  16.4215900  80.1604150 127.6670140
  15.9189500  80.9009550 128.0063950  17.2372560  80.5488150 127.3506930
  14.7137910  85.4037330 121.1131500  13.7728050  85.4187560 121.2879190
  15.0281980  84.6173290 121.5591800   4.6919550  87.0856930 114.6735460
   5.4582820  86.9738290 115.2360890   4.7694240  86.3894900 114.0212230
   3.3866310  84.5182000 115.3568350   3.4669900  83.5709510 115.4685750
   4.2786060  84.8488880 115.4629010  16.7163490  92.5746180 122.7885760
  16.8410910  93.3977350 123.2609570  17.5829050  92.3636910 122.4409910
   4.1881020  94.6677390 122.4602890   4.9243500  94.1192850 122.7311460
   4.5721940  95.5333400 122.3208880   3.1939300  93.8523460 131.6488470
   3.9952030  94.1735510 132.0623870   2.6791120  93.4919040 132.3708380
   7.2983330  93.8407700 114.2828460   8.0911940  94.1296530 113.8310250
   6.7787680  93.4099870 113.6040940  12.0303930  89.9603330 131.5963880
  11.4242090  89.9834930 130.8559630  11.7258040  89.2286370 132.1331130
  13.4604300  93.6883620 130.2073290  14.4126050  93.6041640 130.1573530
  13.3132520  94.3525330 130.8807080  16.3513500  93.0677830 115.7065200
  16.0655010  92.6542970 114.8919380  16.1533050  93.9965540 115.5865720
   7.8160730  89.0611110 114.1470810   7.7111370  88.4463460 114.8732190
   7.6484950  88.5377000 113.3633820   7.9675050  87.7467910 130.1260040
   7.2020720  88.3152910 130.0414710   8.1491010  87.4544120 129.2328270
  11.0563460  88.1231140 114.7512800  10.5073560  88.5700440 115.3955540
  11.6782720  87.6180390 115.2750470  15.1098400  89.4773240 130.6835060
  15.8507870  89.8149000 130.1802520  14.3471080  89.6465300 130.1304830
   2.9460190  84.4826510 131.4874590   2.9865530  84.1840380 132.3959820
   3.8005690  84.8834120 131.3282110   6.7238580  87.0822060 116.6478100
   7.1455000  86.9161930 117.4909490   6.8489420  86.2722290 116.1533240
   4.8866000  83.0618610 129.4549080   4.3562460  82.5709560 128.8272420
   5.5554070  83.4902810 128.9207010   9.2366220  86.1059670 113.8955200
   9.7571880  85.3908690 113.5296350   9.8834620  86.7445540 114.1955710
  13.7844060  87.5288070 129.2190270  14.1985080  87.6833150 130.0680690
  12.8495060  87.6543290 129.3816050  14.2566230  84.8684230 131.2229420
  14.8387000  84.1136550 131.1349900  14.4328000  85.3991670 130.4460900
   5.3738300  80.0280980 129.5346370   5.2795170  79.4101730 128.8097240
   4.7935690  80.7547270 129.3076280   8.1399740  78.5854220 126.5673760
   7.6917040  78.6078480 125.7219310   7.5064940  78.1873240 127.1644060
   8.5459290  87.4808550 127.1886200   8.9647400  88.3241280 127.0162440
   7.6267920  87.6180590 126.9592980  10.8823190  85.2124730 128.5724040
  11.0019400  84.6165870 129.3118880  11.7417190  85.2494420 128.1525340
  13.2211090  85.7661920 127.1486550  12.6946310  86.2904540 126.5451690
  13.5642430  86.3989310 127.7796280   5.6197480  83.1555290 113.5936260
   5.4186540  82.2922650 113.9549600   5.4489530  83.0688650 112.6557860
   6.3966710  93.7861560 128.3043930   5.8587800  94.5107620 127.9852630
   6.6500670  93.3091900 127.5141270   7.6491960  81.7546080 129.8299860
   8.2391650  81.4461930 130.5177680   6.8312200  81.2825830 129.9859760
  12.4685390  81.3711890 130.0632880  11.7800910  80.7093430 129.9982870
  13.1891410  80.9250160 130.5081340  13.0985790  77.9663520 116.1223140
  13.3788080  77.1231420 116.4782560  12.3251520  78.1986630 116.6361890
   4.4180280  80.2555910 113.5814140   4.7206180  80.2623340 112.6733290
   5.1574870  79.9053770 114.0781800   9.2528920  95.0212770 128.5630580
   9.1787620  95.9247910 128.8702950   8.3507760  94.7024670 128.5352650
   7.6365210  79.1990530 114.5670340   7.2887210  78.5214520 113.9872790
   7.8377980  78.7380040 115.3813730   9.8014250  94.1871280 116.1856940
  10.6965040  94.5256250 116.2075700   9.8331880  93.4650690 115.5581220
   3.4410410  89.5598330 114.4143940   3.8785280  90.1028000 115.0701520
   3.9258140  88.7345280 114.4240280   5.2518130  90.6796370 119.5266170
   4.9513670  90.5561340 120.4270080   5.1455620  89.8204960 119.1181900
  16.7808600  92.7174950 128.8923140  16.1810590  92.7767510 128.1487060
  16.9102500  91.7779930 129.0219990  18.0210050  90.4592770 114.2292850
  17.1903010  90.5269420 114.7000080  18.1981880  91.3496890 113.9259710
  17.4766510  87.2040250 116.7327050  18.2385420  87.7736900 116.8386740
  17.4920880  86.6367450 117.5035360  18.4826480  88.0590350 121.5768980
  18.8535310  87.2757670 121.1704950  19.1228410  88.7479450 121.3986280
  15.4660240  89.4426930 126.9899300  14.6520080  89.8724090 127.2525090
  15.8734440  90.0545340 126.3768350  17.5285680  87.4974620 113.8899570
  17.8034520  88.4053500 113.7618790  17.3396420  87.4337150 114.8261560
  13.9261290  80.5219470 115.1853200  14.3446170  80.3350450 114.3449860
  13.6197350  79.6698520 115.4956130  17.4251020  85.4343610 118.8829000
  17.0494620  84.6671540 118.4510290  16.6954140  85.8166310 119.3703930
   2.0146780  86.1130750 125.5038050   2.3819820  86.0258150 126.3834070
   1.4457600  85.3497300 125.4044910  16.8150640  84.5815130 128.5168520
  16.5836730  84.3527880 127.6166470  17.0755190  85.5014680 128.4713410
  15.2538710  79.8071560 131.2948220  16.1308890  79.8154960 131.6782220
  15.2659550  79.0702400 130.6840570  16.7001980  83.6601100 122.1836240
  17.2239460  83.1663750 121.5526410  17.2861400  83.7951460 122.9283810
  16.8791700  83.7440970 125.7055790  15.9294410  83.7104510 125.8200780
  17.0604710  84.6541080 125.4705560   2.7336140  81.9942650 114.8154420
   3.4427840  81.5725870 114.3301700   2.0176080  82.0617880 114.1837770
   2.3810300  78.0481980 113.8557070   3.1038430  78.5890920 114.1738290
   2.6534820  77.7745400 112.9798610  16.1901950  82.9174450 118.1228650
  16.6861070  82.6845320 118.9077530  15.9918020  82.0786290 117.7066290
   2.0702490  77.2988170 123.7579690   2.7178680  76.7485550 123.3174850
   2.4904330  77.5531320 124.5795500  17.6189110  81.5535400 120.6566330
  17.5088390  81.3991440 121.5948600  18.3796700  81.0256340 120.4141740
  15.9654830  77.4929530 127.1149330  16.6027050  78.1063670 127.4808520
  16.1129720  77.5290190 126.1698560  18.5079380  79.3843320 113.8972470
  19.4328690  79.2524500 113.6890760  18.4855170  79.4636140 114.8508920
  18.5817870  80.1553980 116.5229180  17.7869370  80.0899100 117.0522090
  18.7861150  81.0904620 116.5114530  15.5236290  94.1945530 120.5167570
  16.1195360  93.8730100 119.8401990  15.7814440  93.7217350 121.3080840
   1.8234490  77.4543840 126.5005010   1.4749310  77.9107660 127.2663190
   1.4922190  76.5600970 126.5827440   3.4298860  90.6263440 130.6658200
   3.3868490  90.2556350 131.5472660   3.5609870  91.5641010 130.8060020
   7.1304890  92.1823030 126.2667920   6.8896250  92.4497590 125.3798440
   8.0707530  92.3528760 126.3218780   9.3359310  78.6455720 130.0224430
   9.2748200  79.2377550 130.7719840  10.2759690  78.5381680 129.8774690
  11.9733870  78.3025780 129.6616720  12.5874280  78.6205070 128.9997800
  12.5183430  77.8174370 130.2812580  18.3909050  94.2017410 127.0678560
  17.8967330  94.5986280 126.3505690  17.7822340  93.5766620 127.4615840
   2.4955130  76.9820040 129.7755780   3.0438120  76.8008090 129.0121890
   2.5610440  76.1914150 130.3112090   3.2686890  93.5725690 127.7855980
   2.6747210  93.4410390 128.5246020   3.2610730  92.7363830 127.3198080
  12.7141910  76.8657920 125.9886010  11.8401750  77.1993030 125.7858940
  12.6052660  76.3931100 126.8137880  13.6213890  79.0728790 127.3727730
  13.2927250  78.2580550 126.9929460  14.5696190  79.0298600 127.2493420
  16.0748500  94.8440830 124.3465300  15.6151470  95.5956640 123.9723320
  15.4460960  94.1247300 124.2880100   2.8999120  90.9384070 126.7364020
   2.1733180  90.3189360 126.6689970   2.9608270  91.3324680 125.8662100
   6.5044220  93.1529070 123.5213430   7.0209240  92.5416430 122.9961690
   7.1541600  93.6557850 124.0124440   9.2439720  94.0437560 124.3482410
   9.5317530  93.7891860 123.4715420   9.7562940  93.4914920 124.9387980
  10.4616730  77.7827760 124.9278920   9.6788520  78.2573260 125.2075680
  10.1679660  76.8782590 124.8192100  15.0137800  78.4850860 122.9728010
  15.4545890  78.4295960 122.1249610  14.7445390  79.4008870 123.0438190
  16.8776370  78.1166100 120.9836830  16.8164770  77.1727320 120.8367850
  17.6568400  78.2246190 121.5290290   1.8057140  78.0875240 117.4492640
   2.5636500  78.2004120 116.8756670   1.3434310  78.9244440 117.4036070
   8.3470950  80.2014510 120.4394950   7.5345460  79.8271400 120.0990830
   8.8512590  79.4459590 120.7416140  12.8495930  76.8656960 121.6778020
  13.4525300  77.4377170 122.1526540  12.1088920  77.4296400 121.4551920
  15.9930530  77.2678520 116.9518300  16.1881160  78.1661970 117.2185730
  15.2060400  77.0365600 117.4451250   2.7891820  92.9491690 117.3910920
   2.2639440  93.3299720 116.6872880   2.7136400  93.5742460 118.1120630
   4.1782290  78.6139290 115.9894610   4.7075050  77.8269090 115.8602560
   4.8110610  79.2930480 116.2230140   6.3720130  78.3514430 119.0440000
   5.7422870  77.6501740 119.2110130   5.8325270  79.1118560 118.8273160
   9.3112080  94.9653660 131.7150610  10.2379390  94.7297930 131.7586570
   9.2962510  95.7925660 131.2336640  17.5457140  94.5079230 118.7124860
  17.7209330  93.8216970 118.0685780  16.8478710  95.0326280 118.3201530
   6.4975690  77.6298410 131.4792490   6.2159960  78.1332010 130.7153310
   6.8795390  76.8320160 131.1134620   5.3884790  94.8974070 116.2660170
   6.1203610  94.6133350 115.7184060   5.6478460  94.6587350 117.1559550
   4.5499580  91.0138800 116.2706500   3.9208460  91.4823900 116.8192330
   4.6647410  90.1688020 116.7052690  13.0991150  77.0451990 132.0572960
  12.9856600  77.3646600 132.9524480  13.9160890  77.4464500 131.7610240
  15.8789640  94.1923520 131.5391650  16.6714960  93.6972750 131.3317610
  16.1722790  94.8713660 132.1467260  12.0049300  85.0644460 102.4207700
  11.9243350  84.1499070 102.1499410  11.5913720  85.5611530 101.7147410
  10.1367340  86.8423480 104.3016970   9.3609440  86.3623920 104.5915540
  10.7880270  86.1629130 104.1273130   4.1533170  87.1543290 105.1792730
   3.3218050  86.8992000 105.5789240   4.7614150  87.2254060 105.9150650
  14.1574770  91.2483670 103.0816100  13.6956300  90.4770910 103.4103270
  14.9700320  91.2749740 103.5868550   4.1334430  91.1883380 105.3750750
   4.4362470  90.2981120 105.1960970   4.8778020  91.7453600 105.1473000
   2.5625120  82.1145180  98.9635120   1.6741820  82.4561150  98.8615000
   2.8466310  81.9145500  98.0715950  10.3838080  93.5341680 102.7020090
   9.7649520  93.9899180 102.1314530  11.2389860  93.6893140 102.3009790
   9.5776330  89.5180670 104.3087130   9.5084610  88.5770610 104.1476260
  10.3396190  89.6082080 104.8809700   1.7683000  80.1235190 106.6343750
   1.5885840  79.2260940 106.9146510   1.3663080  80.6707060 107.3090700
  10.6081500  82.3251050 104.5356060  10.9846320  81.4522930 104.4229730
  10.5101010  82.6609750 103.6446500   4.7386510  80.6976680  99.9973500
   4.8453260  81.5980410 100.3042260   3.8278870  80.6494650  99.7068150
  14.3905620  79.8201490 101.4684400  15.2115240  79.3298060 101.5109880
  14.4239700  80.4099150 102.2216240   2.3869670  82.6195690 105.2426090
   3.0679780  82.8834060 105.8613490   2.0717720  81.7796560 105.5764100
   6.5794240  83.6663050 104.3298680   7.0872460  84.1644020 104.9703700
   7.1107480  82.8898250 104.1538040  18.6805170  81.8368240 108.0328030
  17.9757340  82.2249950 107.5143140  18.9463090  82.5318530 108.6348960
   4.8630340  78.3061610 108.5962100   4.8648780  78.8234000 107.7908000
   4.0334650  77.8291790 108.5732030  11.2501430  88.4180920 100.0952000
  10.6318700  88.8830370  99.5314720  11.7624680  89.1108400 100.5121510
   6.1133190  87.9456790 106.7735600   5.7802570  88.5725710 107.4156670
   6.2899870  88.4718670 105.9937270  14.6267100  81.7601870 104.2411940
  13.9222670  82.0486760 104.8215050  14.9879260  82.5701980 103.8811500
   4.5445670  80.0171570 106.6032550   4.8862480  80.8613620 106.3086420
   3.6061480  80.1655310 106.7197890   5.3252290  89.9137590 108.5884780
   5.9426290  90.5888670 108.3069230   4.4645410  90.3225570 108.4972280
  16.2429880  91.3777000 106.5039420  15.5593400  92.0476110 106.4956090
  16.7824170  91.5757650 105.7384280  17.6954020  81.2056660 104.6321150
  16.7478930  81.2395640 104.7636580  18.0204010  82.0195610 105.0170510
   8.2273560  77.5053840 102.9277140   8.5348540  76.9500730 102.2112640
   7.2974260  77.6398300 102.7450130  13.7788620  93.2221130 105.2184600
  13.7915780  92.8183420 104.3506860  13.2263840  93.9968420 105.1146030
  15.0734040  89.9437350 100.3074770  14.9630370  89.0011680 100.4324190
  15.0702290  90.3052990 101.1937530  13.1774060  88.1250970 106.5467210
  13.5942850  87.9111080 105.7120670  13.9013880  88.3823760 107.1175830
  10.6154320  85.5702670  99.6637260   9.6883600  85.5040050  99.8925730
  10.7679140  86.5082800  99.5492500  17.1236160  86.5238190 106.6383450
  16.2954790  86.5931280 106.1633580  17.7186640  87.1092500 106.1699280
  14.6451610  87.1322970 100.1672510  14.0264030  86.7942520  99.5198810
  14.6276060  86.4882730 100.8751700  14.0878170  83.3107510 107.5838320
  13.6749350  84.1361220 107.8378310  13.3554120  82.7252550 107.3914680
   6.2210960  86.0967410 102.4456990   5.8167960  85.3844660 101.9502890
   6.3074080  85.7520650 103.3345030   6.6892660  89.7834970 104.6096200
   6.3920950  89.1780440 103.9303980   7.6392480  89.8212280 104.4985560
   4.9339580  82.8710620 106.2256030   5.4854170  82.9805960 105.4509280
   5.4483090  83.2448220 106.9411260  14.7778270  93.3566840 108.2719300
  14.3008830  94.1639030 108.0791910  14.0940060  92.7045170 108.4245510
   5.7811090  89.5216660 111.2604000   4.8839620  89.7456630 111.5077400
   5.8063960  89.6451600 110.3115400  12.8216310  86.3709780  97.1745260
  13.2609590  85.5332210  97.0283080  13.5344730  87.0039180  97.2609400
   4.6082310  86.3929980 109.8361370   4.4690080  87.2652780 110.2048770
   3.7263670  86.0502790 109.6909310  10.9311690  91.3105850 101.1426500
  11.3707600  92.0530180 100.7281890  10.8698580  91.5532420 102.0665460
   6.4062660  92.3351680 112.0446520   6.3778090  92.7394630 111.1774950
   6.2427630  91.4062040 111.8818120   2.9215590  84.9912390  99.9463640
   2.8013190  85.7174480  99.3344910   2.6116480  84.2215300  99.4691550
  18.3577480  93.1178780 113.3410690  18.8337200  93.5961670 114.0199770
  18.9784640  93.0496270 112.6156190   1.8048590  89.8627720 102.1638460
   1.3976670  90.0042310 101.3092060   2.6961600  89.5787880 101.9609670
  17.7610730  90.3091630 110.5010700  17.8873790  90.0703510 109.5827880
  17.8032110  89.4776170 110.9732780  11.6227470  94.0119630 109.0705510
  12.1372140  93.9227640 109.8727940  10.7796550  94.3579330 109.3633420
  13.5981870  94.2974970  98.4989510  13.4383010  94.0077910  99.3971340
  13.4328580  93.5215100  97.9634740   6.0770250  94.0773500 100.2761130
   5.9012730  93.1609040 100.0628930   5.2225990  94.4360790 100.5158930
  13.3008000  91.8062530  97.0587510  12.6073160  91.8039820  96.3989790
  14.0430860  91.3821850  96.6281680  12.8657930  93.4325240 101.1336000
  13.3214880  92.6514620 101.4474620  13.2050450  94.1432060 101.6777180
  17.6134740  82.3624090 111.4660440  16.9979010  82.8703760 110.9375900
  17.2931160  81.4622420 111.4086380   5.3879250  78.3347460 103.3287310
   4.9447400  79.1157000 102.9971830   5.9464240  78.6577350 104.0358250
   9.6749060  81.2015980 108.9322630   9.2128430  81.4099000 109.7442570
   9.2727170  80.3875330 108.6293300  14.6753570  82.4224930 110.0619290
  13.8247160  82.1230680 110.3828360  14.5155360  82.6666940 109.1503110
  11.7703280  83.9226680 112.1618080  12.0956690  83.0890430 111.8220310
  12.5583610  84.4455200 112.3096410   8.5038070  77.9558160  98.2093140
   7.8792250  77.9518030  98.9346450   8.4168190  77.0889120  97.8129110
   7.4255150  78.8794790 105.1876910   7.7227480  79.7857620 105.1068930
   7.9740710  78.3913570 104.5736480   5.1793470  83.4581030 101.0568560
   4.9534390  83.2418200 101.9615180   4.3986000  83.8909490 100.7114530
  12.4091230  83.4644400  99.6559210  11.8100120  84.1880200  99.4722830
  12.9570840  83.4021180  98.8735660   7.6192680  84.3566610 111.7228830
   7.5236280  83.4161340 111.5729230   8.4624660  84.5781680 111.3276900
  11.0156100  82.1007940 101.6862490  11.4085670  82.4180140 100.8731180
  11.3772950  81.2219820 101.8007010   2.7503220  80.7680280 109.8762610
   2.3566610  81.6155490 110.0835390   2.0621620  80.1306650 110.0671250
   9.3248270  80.8515250 112.9459350   8.6346590  80.6587450 113.5805440
  10.0680570  81.1349890 113.4783650  11.6011240  84.6913690 105.7813270
  10.8692360  85.2000500 106.1303370  11.2035580  83.8743670 105.4802050
   8.0388630  81.3667890 104.1865760   8.0424690  80.9257840 103.3370300
   8.9339750  81.6885220 104.2937580   3.8891010  81.2494380 103.1459970
   3.5491060  81.7269610 103.9027020   3.1268330  80.7959500 102.7861070
   8.1008780  82.3679970  97.1772520   8.2221600  82.3266450  98.1258340
   7.7157290  83.2304120  97.0219250  12.0637150  80.1447370 105.1936210
  12.0809890  80.5956020 106.0378060  11.8152730  79.2453010 105.4069650
   7.1130280  84.6781110  96.5755820   6.5447180  84.2299360  95.9491730
   7.8219280  85.0373890  96.0420970  15.4907900  77.5579550 111.0322590
  15.8153670  76.8269210 111.5580570  15.5264410  77.2393190 110.1303580
   2.1899460  88.5793130 110.4522550   1.8054250  87.9386800 111.0505510
   2.5011650  89.2829250 111.0217280   8.3396600  85.4269670 105.9331170
   8.7066730  84.9528240 106.6792510   8.1501660  86.3011240 106.2739510
   6.1295970  84.4678310 108.2515380   5.8253040  85.3470290 108.4765740
   7.0842430  84.5278100 108.2872820   4.6577760  88.6739300  98.8482230
   3.8840020  88.1336920  98.6880950   5.3872390  88.1545910  98.5099990
  15.4165740  87.6704660 104.6408620  16.1364860  88.1659950 104.2504730
  15.2147560  86.9922550 103.9962490  10.8775680  79.0642620  98.7838010
  10.0640290  78.5655790  98.7083320  10.6837630  79.9040870  98.3674360
  10.7984540  87.7413720 110.5277620  10.7321850  86.8209390 110.2735210
  10.1689680  87.8389160 111.2422260   4.7015160  88.3419680 102.4861040
   5.2193830  87.5387940 102.4317930   4.2499180  88.2798820 103.3277870
   9.5884660  89.6085960  97.7588340   9.9300360  90.3528190  97.2631660
   8.7597370  89.9217080  98.1213170   2.1859700  85.3081050 109.3986740
   1.8274640  85.9734900 109.9860080   1.8914260  84.4764600 109.7699360
   5.3872820  85.7665290 112.2826290   5.0872960  85.9122470 111.3854110
   6.1584060  85.2070580 112.1899680  10.7301270  90.5634290 110.2781420
  10.7445810  89.6315250 110.0600330  10.0226370  90.6494050 110.9171190
  16.9412480  87.2041630 109.6250000  16.2160670  87.7970410 109.4279390
  17.4687940  87.1965170 108.8263370  16.8925590  91.6016370  99.2762160
  16.2501750  90.9471990  99.5505880  16.5056250  92.0071460  98.5002830
  12.4712070  88.9301800 103.1233850  12.8235890  88.3329930 102.4635220
  11.5874400  88.6046030 103.2942100   8.5575350  89.6899490 100.5304260
   9.2446480  90.2368700 100.9111850   7.7707770  90.2340220 100.5653870
   7.8602560  86.6945520 100.1429620   8.3165340  87.5050770 100.3689810
   7.5090770  86.3768660 100.9748110  10.1635170  92.2051860 107.3721920
  10.8077390  92.4111240 108.0495340  10.5264610  91.4440260 106.9192770
   3.7614340  77.0383170 100.6152140   3.6328970  77.0301070 101.5637060
   2.9376360  77.3766260 100.2643150  11.4367250  90.2084210 106.0899370
  12.0789480  89.5077370 106.2031540  11.9616600  90.9882650 105.9096260
  15.2822970  90.4932830  95.8138510  15.0560550  89.7763270  96.4063150
  14.8919170  90.2445270  94.9760260  13.2104870  91.0079110 109.2935430
  13.5461110  91.5945800 109.9713350  12.2905210  90.8771820 109.5233220
  14.8639220  88.4104770  97.4752670  14.5760920  88.8717460  98.2630550
  15.6591390  87.9502540  97.7436890   9.0393450  91.0570440 112.4623490
   8.7190320  90.3379680 113.0069180   8.3651810  91.7325510 112.5359550
   7.0807620  91.9030890  97.4056640   7.0717720  92.6360580  96.7901150
   6.1605980  91.6562470  97.4983600   2.6814260  87.1245780  98.1503400
   2.0742210  87.8644680  98.1598700   3.1563610  87.2145140  97.3241600
  12.2547050  81.2896600 107.8260290  12.6227870  80.4691810 108.1539860
  11.3945250  81.3498490 108.2415940  10.0667220  91.9659130  96.0681830
  10.1679200  91.7623120  95.1383810   9.1668960  91.7117410  96.2729610
   7.5893110  82.5239490 100.0505730   6.8809260  82.9925830 100.4919340
   7.8737590  81.8661500 100.6850920   9.2149040  83.9436190 108.0498260
   9.7134290  84.4182010 108.7150110   9.3571990  83.0199710 108.2568290
  11.6208540  79.2490150 101.4901520  11.4976320  79.2676280 100.5411030
  12.5693100  79.2969090 101.6099920   8.7085330  94.4845450 100.7629500
   8.9626830  94.4466840  99.8408870   7.7597810  94.3578780 100.7557750
   5.7928130  80.8324570  97.4256440   6.6418660  81.2694720  97.3596630
   5.4259400  81.1444830  98.2528500  16.4215900  80.1604150 108.8926650
  15.9189500  80.9009550 109.2320460  17.2372560  80.5488150 108.5763440
  14.7137910  85.4037330 102.3388010  13.7728050  85.4187560 102.5135700
  15.0281980  84.6173290 102.7848310   4.6919550  87.0856930  95.8991970
   5.4582820  86.9738290  96.4617400   4.7694240  86.3894900  95.2468740
   3.3866310  84.5182000  96.5824860   3.4669900  83.5709510  96.6942260
   4.2786060  84.8488880  96.6885520  16.7163490  92.5746180 104.0142270
  16.8410910  93.3977350 104.4866080  17.5829050  92.3636910 103.6666420
   4.1881020  94.6677390 103.6859400   4.9243500  94.1192850 103.9567970
   4.5721940  95.5333400 103.5465390   3.1939300  93.8523460 112.8744980
   3.9952030  94.1735510 113.2880380   2.6791120  93.4919040 113.5964890
   7.2983330  93.8407700  95.5084970   8.0911940  94.1296530  95.0566760
   6.7787680  93.4099870  94.8297450  12.0303930  89.9603330 112.8220390
  11.4242090  89.9834930 112.0816140  11.7258040  89.2286370 113.3587640
  13.4604300  93.6883620 111.4329800  14.4126050  93.6041640 111.3830040
  13.3132520  94.3525330 112.1063590  16.3513500  93.0677830  96.9321710
  16.0655010  92.6542970  96.1175890  16.1533050  93.9965540  96.8122230
   7.8160730  89.0611110  95.3727320   7.7111370  88.4463460  96.0988700
   7.6484950  88.5377000  94.5890330   7.9675050  87.7467910 111.3516550
   7.2020720  88.3152910 111.2671220   8.1491010  87.4544120 110.4584780
  11.0563460  88.1231140  95.9769310  10.5073560  88.5700440  96.6212050
  11.6782720  87.6180390  96.5006980  15.1098400  89.4773240 111.9091570
  15.8507870  89.8149000 111.4059030  14.3471080  89.6465300 111.3561340
   2.9460190  84.4826510 112.7131100   2.9865530  84.1840380 113.6216330
   3.8005690  84.8834120 112.5538620   6.7238580  87.0822060  97.8734610
   7.1455000  86.9161930  98.7166000   6.8489420  86.2722290  97.3789750
   4.8866000  83.0618610 110.6805590   4.3562460  82.5709560 110.0528930
   5.5554070  83.4902810 110.1463520   9.2366220  86.1059670  95.1211710
   9.7571880  85.3908690  94.7552860   9.8834620  86.7445540  95.4212220
  13.7844060  87.5288070 110.4446780  14.1985080  87.6833150 111.2937200
  12.8495060  87.6543290 110.6072560  14.2566230  84.8684230 112.4485930
  14.8387000  84.1136550 112.3606410  14.4328000  85.3991670 111.6717410
   5.3738300  80.0280980 110.7602880   5.2795170  79.4101730 110.0353750
   4.7935690  80.7547270 110.5332790   8.1399740  78.5854220 107.7930270
   7.6917040  78.6078480 106.9475820   7.5064940  78.1873240 108.3900570
   8.5459290  87.4808550 108.4142710   8.9647400  88.3241280 108.2418950
   7.6267920  87.6180590 108.1849490  10.8823190  85.2124730 109.7980550
  11.0019400  84.6165870 110.5375390  11.7417190  85.2494420 109.3781850
  13.2211090  85.7661920 108.3743060  12.6946310  86.2904540 107.7708200
  13.5642430  86.3989310 109.0052790   5.6197480  83.1555290  94.8192770
   5.4186540  82.2922650  95.1806110   5.4489530  83.0688650  93.8814370
   6.3966710  93.7861560 109.5300440   5.8587800  94.5107620 109.2109140
   6.6500670  93.3091900 108.7397780   7.6491960  81.7546080 111.0556370
   8.2391650  81.4461930 111.7434190   6.8312200  81.2825830 111.2116270
  12.4685390  81.3711890 111.2889390  11.7800910  80.7093430 111.2239380
  13.1891410  80.9250160 111.7337850   4.4180280  80.2555910  94.8070650
   4.7206180  80.2623340  93.8989800   5.1574870  79.9053770  95.3038310
   9.2528920  95.0212770 109.7887090   9.1787620  95.9247910 110.0959460
   8.3507760  94.7024670 109.7609160   7.6365210  79.1990530  95.7926850
   7.2887210  78.5214520  95.2129300   7.8377980  78.7380040  96.6070240
   9.8014250  94.1871280  97.4113450  10.6965040  94.5256250  97.4332210
   9.8331880  93.4650690  96.7837730   3.4410410  89.5598330  95.6400450
   3.8785280  90.1028000  96.2958030   3.9258140  88.7345280  95.6496790
   5.2518130  90.6796370 100.7522680   4.9513670  90.5561340 101.6526590
   5.1455620  89.8204960 100.3438410  16.7808600  92.7174950 110.1179650
  16.1810590  92.7767510 109.3743570  16.9102500  91.7779930 110.2476500
  18.0210050  90.4592770  95.4549360  17.1903010  90.5269420  95.9256590
  18.1981880  91.3496890  95.1516220  17.4766510  87.2040250  97.9583560
  18.2385420  87.7736900  98.0643250  17.4920880  86.6367450  98.7291870
  18.4826480  88.0590350 102.8025490  18.8535310  87.2757670 102.3961460
  19.1228410  88.7479450 102.6242790  15.4660240  89.4426930 108.2155810
  14.6520080  89.8724090 108.4781600  15.8734440  90.0545340 107.6024860
  17.5285680  87.4974620  95.1156080  17.8034520  88.4053500  94.9875300
  17.3396420  87.4337150  96.0518070  17.4251020  85.4343610 100.1085510
  17.0494620  84.6671540  99.6766800  16.6954140  85.8166310 100.5960440
   2.0146780  86.1130750 106.7294560   2.3819820  86.0258150 107.6090580
   1.4457600  85.3497300 106.6301420  16.8150640  84.5815130 109.7425030
  16.5836730  84.3527880 108.8422980  17.0755190  85.5014680 109.6969920
  15.2538710  79.8071560 112.5204730  16.1308890  79.8154960 112.9038730
  15.2659550  79.0702400 111.9097080  16.7001980  83.6601100 103.4092750
  17.2239460  83.1663750 102.7782920  17.2861400  83.7951460 104.1540320
  16.8791700  83.7440970 106.9312300  15.9294410  83.7104510 107.0457290
  17.0604710  84.6541080 106.6962070   2.7336140  81.9942650  96.0410930
   3.4427840  81.5725870  95.5558210   2.0176080  82.0617880  95.4094280
   2.3810300  78.0481980  95.0813580   3.1038430  78.5890920  95.3994800
   2.6534820  77.7745400  94.2055120   2.0702490  77.2988170 104.9836200
   2.7178680  76.7485550 104.5431360   2.4904330  77.5531320 105.8052010
  17.6189110  81.5535400 101.8822840  17.5088390  81.3991440 102.8205110
  18.3796700  81.0256340 101.6398250  15.9654830  77.4929530 108.3405840
  16.6027050  78.1063670 108.7065030  16.1129720  77.5290190 107.3955070
  15.5236290  94.1945530 101.7424080  16.1195360  93.8730100 101.0658500
  15.7814440  93.7217350 102.5337350   1.8234490  77.4543840 107.7261520
   1.4749310  77.9107660 108.4919700   1.4922190  76.5600970 107.8083950
   3.4298860  90.6263440 111.8914710   3.3868490  90.2556350 112.7729170
   3.5609870  91.5641010 112.0316530   7.1304890  92.1823030 107.4924430
   6.8896250  92.4497590 106.6054950   8.0707530  92.3528760 107.5475290
   9.3359310  78.6455720 111.2480940   9.2748200  79.2377550 111.9976350
  10.2759690  78.5381680 111.1031200  11.9733870  78.3025780 110.8873230
  12.5874280  78.6205070 110.2254310  12.5183430  77.8174370 111.5069090
  18.3909050  94.2017410 108.2935070  17.8967330  94.5986280 107.5762200
  17.7822340  93.5766620 108.6872350   2.4955130  76.9820040 111.0012290
   3.0438120  76.8008090 110.2378400   2.5610440  76.1914150 111.5368600
   3.2686890  93.5725690 109.0112490   2.6747210  93.4410390 109.7502530
   3.2610730  92.7363830 108.5454590  12.7141910  76.8657920 107.2142520
  11.8401750  77.1993030 107.0115450  12.6052660  76.3931100 108.0394390
  13.6213890  79.0728790 108.5984240  13.2927250  78.2580550 108.2185970
  14.5696190  79.0298600 108.4749930  16.0748500  94.8440830 105.5721810
  15.6151470  95.5956640 105.1979830  15.4460960  94.1247300 105.5136610
   2.8999120  90.9384070 107.9620530   2.1733180  90.3189360 107.8946480
   2.9608270  91.3324680 107.0918610   6.5044220  93.1529070 104.7469940
   7.0209240  92.5416430 104.2218200   7.1541600  93.6557850 105.2380950
   9.2439720  94.0437560 105.5738920   9.5317530  93.7891860 104.6971930
   9.7562940  93.4914920 106.1644490  10.4616730  77.7827760 106.1535430
   9.6788520  78.2573260 106.4332190  10.1679660  76.8782590 106.0448610
  15.0137800  78.4850860 104.1984520  15.4545890  78.4295960 103.3506120
  14.7445390  79.4008870 104.2694700  16.8776370  78.1166100 102.2093340
  16.8164770  77.1727320 102.0624360  17.6568400  78.2246190 102.7546800
   1.8057140  78.0875240  98.6749150   2.5636500  78.2004120  98.1013180
   1.3434310  78.9244440  98.6292580   8.3470950  80.2014510 101.6651460
   7.5345460  79.8271400 101.3247340   8.8512590  79.4459590 101.9672650
  12.8495930  76.8656960 102.9034530  13.4525300  77.4377170 103.3783050
  12.1088920  77.4296400 102.6808430   2.7891820  92.9491690  98.6167430
   2.2639440  93.3299720  97.9129390   2.7136400  93.5742460  99.3377140
   4.1782290  78.6139290  97.2151120   4.7075050  77.8269090  97.0859070
   4.8110610  79.2930480  97.4486650   6.3720130  78.3514430 100.2696510
   5.7422870  77.6501740 100.4366640   5.8325270  79.1118560 100.0529670
   9.3112080  94.9653660 112.9407120  10.2379390  94.7297930 112.9843080
   9.2962510  95.7925660 112.4593150  17.5457140  94.5079230  99.9381370
  17.7209330  93.8216970  99.2942290  16.8478710  95.0326280  99.5458040
   6.4975690  77.6298410 112.7049000   6.2159960  78.1332010 111.9409820
   6.8795390  76.8320160 112.3391130   5.3884790  94.8974070  97.4916680
   6.1203610  94.6133350  96.9440570   5.6478460  94.6587350  98.3816060
   4.5499580  91.0138800  97.4963010   3.9208460  91.4823900  98.0448840
   4.6647410  90.1688020  97.9309200  13.0991150  77.0451990 113.2829470
  12.9856600  77.3646600 114.1780990  13.9160890  77.4464500 112.9866750
  15.8789640  94.1923520 112.7648160  16.6714960  93.6972750 112.5574120
  16.1722790  94.8713660 113.3723770  12.0049300  85.0644460  83.6464210
  11.9243350  84.1499070  83.3755920  11.5913720  85.5611530  82.9403920
  10.1367340  86.8423480  85.5273480   9.3609440  86.3623920  85.8172050
  10.7880270  86.1629130  85.3529640   4.1533170  87.1543290  86.4049240
   3.3218050  86.8992000  86.8045750   4.7614150  87.2254060  87.1407160
  14.1574770  91.2483670  84.3072610  13.6956300  90.4770910  84.6359780
  14.9700320  91.2749740  84.8125060   4.1334430  91.1883380  86.6007260
   4.4362470  90.2981120  86.4217480   4.8778020  91.7453600  86.3729510
   2.5625120  82.1145180  80.1891630   1.6741820  82.4561150  80.0871510
   2.8466310  81.9145500  79.2972460  10.3838080  93.5341680  83.9276600
   9.7649520  93.9899180  83.3571040  11.2389860  93.6893140  83.5266300
   9.5776330  89.5180670  85.5343640   9.5084610  88.5770610  85.3732770
  10.3396190  89.6082080  86.1066210   1.7683000  80.1235190  87.8600260
   1.5885840  79.2260940  88.1403020   1.3663080  80.6707060  88.5347210
   4.7386510  80.6976680  81.2230010   4.8453260  81.5980410  81.5298770
   3.8278870  80.6494650  80.9324660   2.3869670  82.6195690  86.4682600
   3.0679780  82.8834060  87.0870000   2.0717720  81.7796560  86.8020610
   6.5794240  83.6663050  85.5555190   7.0872460  84.1644020  86.1960210
   7.1107480  82.8898250  85.3794550   4.8630340  78.3061610  89.8218610
   4.8648780  78.8234000  89.0164510   4.0334650  77.8291790  89.7988540
  11.2501430  88.4180920  81.3208510  10.6318700  88.8830370  80.7571230
  11.7624680  89.1108400  81.7378020   6.1133190  87.9456790  87.9992110
   5.7802570  88.5725710  88.6413180   6.2899870  88.4718670  87.2193780
   4.5445670  80.0171570  87.8289060   4.8862480  80.8613620  87.5342930
   3.6061480  80.1655310  87.9454400   5.3252290  89.9137590  89.8141290
   5.9426290  90.5888670  89.5325740   4.4645410  90.3225570  89.7228790
  16.2429880  91.3777000  87.7295930  15.5593400  92.0476110  87.7212600
  16.7824170  91.5757650  86.9640790   8.2273560  77.5053840  84.1533650
   8.5348540  76.9500730  83.4369150   7.2974260  77.6398300  83.9706640
  13.7788620  93.2221130  86.4441110  13.7915780  92.8183420  85.5763370
  13.2263840  93.9968420  86.3402540  15.0734040  89.9437350  81.5331280
  14.9630370  89.0011680  81.6580700  15.0702290  90.3052990  82.4194040
  13.1774060  88.1250970  87.7723720  13.5942850  87.9111080  86.9377180
  13.9013880  88.3823760  88.3432340  10.6154320  85.5702670  80.8893770
   9.6883600  85.5040050  81.1182240  10.7679140  86.5082800  80.7749010
  10.6023400  81.8419670  77.8860930   9.6627070  82.0033630  77.9713390
  10.9206660  82.5605350  77.3396920  17.1236160  86.5238190  87.8639960
  16.2954790  86.5931280  87.3890090  17.7186640  87.1092500  87.3955790
  14.6451610  87.1322970  81.3929020  14.0264030  86.7942520  80.7455320
  14.6276060  86.4882730  82.1008210   6.2210960  86.0967410  83.6713500
   5.8167960  85.3844660  83.1759400   6.3074080  85.7520650  84.5601540
   6.6892660  89.7834970  85.8352710   6.3920950  89.1780440  85.1560490
   7.6392480  89.8212280  85.7242070   4.9339580  82.8710620  87.4512540
   5.4854170  82.9805960  86.6765790   5.4483090  83.2448220  88.1667770
  14.7778270  93.3566840  89.4975810  14.3008830  94.1639030  89.3048420
  14.0940060  92.7045170  89.6502020   5.7811090  89.5216660  92.4860510
   4.8839620  89.7456630  92.7333910   5.8063960  89.6451600  91.5371910
  12.8216310  86.3709780  78.4001770  13.2609590  85.5332210  78.2539590
  13.5344730  87.0039180  78.4865910   4.6082310  86.3929980  91.0617880
   4.4690080  87.2652780  91.4305280   3.7263670  86.0502790  90.9165820
  10.9311690  91.3105850  82.3683010  11.3707600  92.0530180  81.9538400
  10.8698580  91.5532420  83.2921970   6.4062660  92.3351680  93.2703030
   6.3778090  92.7394630  92.4031460   6.2427630  91.4062040  93.1074630
   2.9215590  84.9912390  81.1720150   2.8013190  85.7174480  80.5601420
   2.6116480  84.2215300  80.6948060  18.3577480  93.1178780  94.5667200
  18.8337200  93.5961670  95.2456280  18.9784640  93.0496270  93.8412700
   1.8048590  89.8627720  83.3894970   1.3976670  90.0042310  82.5348570
   2.6961600  89.5787880  83.1866180  17.7610730  90.3091630  91.7267210
  17.8873790  90.0703510  90.8084390  17.8032110  89.4776170  92.1989290
  11.6227470  94.0119630  90.2962020  12.1372140  93.9227640  91.0984450
  10.7796550  94.3579330  90.5889930  13.5981870  94.2974970  79.7246020
  13.4383010  94.0077910  80.6227850  13.4328580  93.5215100  79.1891250
   6.0770250  94.0773500  81.5017640   5.9012730  93.1609040  81.2885440
   5.2225990  94.4360790  81.7415440  13.3008000  91.8062530  78.2844020
  12.6073160  91.8039820  77.6246300  14.0430860  91.3821850  77.8538190
  12.8657930  93.4325240  82.3592510  13.3214880  92.6514620  82.6731130
  13.2050450  94.1432060  82.9033690   5.3879250  78.3347460  84.5543820
   4.9447400  79.1157000  84.2228340   5.9464240  78.6577350  85.2614760
   9.6749060  81.2015980  90.1579140   9.2128430  81.4099000  90.9699080
   9.2727170  80.3875330  89.8549810  11.7703280  83.9226680  93.3874590
  12.0956690  83.0890430  93.0476820  12.5583610  84.4455200  93.5352920
   8.5038070  77.9558160  79.4349650   7.8792250  77.9518030  80.1602960
   8.4168190  77.0889120  79.0385620   7.4255150  78.8794790  86.4133420
   7.7227480  79.7857620  86.3325440   7.9740710  78.3913570  85.7992990
   5.1793470  83.4581030  82.2825070   4.9534390  83.2418200  83.1871690
   4.3986000  83.8909490  81.9371040  12.4091230  83.4644400  80.8815720
  11.8100120  84.1880200  80.6979340  12.9570840  83.4021180  80.0992170
   7.6192680  84.3566610  92.9485340   7.5236280  83.4161340  92.7985740
   8.4624660  84.5781680  92.5533410  11.0156100  82.1007940  82.9119000
  11.4085670  82.4180140  82.0987690  11.3772950  81.2219820  83.0263520
   2.7503220  80.7680280  91.1019120   2.3566610  81.6155490  91.3091900
   2.0621620  80.1306650  91.2927760   9.3248270  80.8515250  94.1715860
   8.6346590  80.6587450  94.8061950  10.0680570  81.1349890  94.7040160
  11.6011240  84.6913690  87.0069780  10.8692360  85.2000500  87.3559880
  11.2035580  83.8743670  86.7058560   8.0388630  81.3667890  85.4122270
   8.0424690  80.9257840  84.5626810   8.9339750  81.6885220  85.5194090
   3.8891010  81.2494380  84.3716480   3.5491060  81.7269610  85.1283530
   3.1268330  80.7959500  84.0117580   8.1008780  82.3679970  78.4029030
   8.2221600  82.3266450  79.3514850   7.7157290  83.2304120  78.2475760
   7.1130280  84.6781110  77.8012330   6.5447180  84.2299360  77.1748240
   7.8219280  85.0373890  77.2677480   2.1899460  88.5793130  91.6779060
   1.8054250  87.9386800  92.2762020   2.5011650  89.2829250  92.2473790
   8.3396600  85.4269670  87.1587680   8.7066730  84.9528240  87.9049020
   8.1501660  86.3011240  87.4996020   6.1295970  84.4678310  89.4771890
   5.8253040  85.3470290  89.7022250   7.0842430  84.5278100  89.5129330
   4.6577760  88.6739300  80.0738740   3.8840020  88.1336920  79.9137460
   5.3872390  88.1545910  79.7356500  15.4165740  87.6704660  85.8665130
  16.1364860  88.1659950  85.4761240  15.2147560  86.9922550  85.2219000
  10.8775680  79.0642620  80.0094520  10.0640290  78.5655790  79.9339830
  10.6837630  79.9040870  79.5930870  10.7984540  87.7413720  91.7534130
  10.7321850  86.8209390  91.4991720  10.1689680  87.8389160  92.4678770
  13.5924070  83.4362270  78.3056680  14.4803690  83.7479500  78.1308020
  13.5629160  82.5634520  77.9137260   4.7015160  88.3419680  83.7117550
   5.2193830  87.5387940  83.6574440   4.2499180  88.2798820  84.5534380
   9.5884660  89.6085960  78.9844850   9.9300360  90.3528190  78.4888170
   8.7597370  89.9217080  79.3469680   2.1859700  85.3081050  90.6243250
   1.8274640  85.9734900  91.2116590   1.8914260  84.4764600  90.9955870
   5.3872820  85.7665290  93.5082800   5.0872960  85.9122470  92.6110620
   6.1584060  85.2070580  93.4156190  10.7301270  90.5634290  91.5037930
  10.7445810  89.6315250  91.2856840  10.0226370  90.6494050  92.1427700
  15.8638340  84.7474110  77.7736540  15.7802060  85.1788330  76.9232980
  16.5832530  85.2072460  78.2063360  16.9412480  87.2041630  90.8506510
  16.2160670  87.7970410  90.6535900  17.4687940  87.1965170  90.0519880
  16.8925590  91.6016370  80.5018670  16.2501750  90.9471990  80.7762390
  16.5056250  92.0071460  79.7259340  12.4712070  88.9301800  84.3490360
  12.8235890  88.3329930  83.6891730  11.5874400  88.6046030  84.5198610
   8.5575350  89.6899490  81.7560770   9.2446480  90.2368700  82.1368360
   7.7707770  90.2340220  81.7910380   7.8602560  86.6945520  81.3686130
   8.3165340  87.5050770  81.5946320   7.5090770  86.3768660  82.2004620
  10.1635170  92.2051860  88.5978430  10.8077390  92.4111240  89.2751850
  10.5264610  91.4440260  88.1449280   3.7614340  77.0383170  81.8408650
   3.6328970  77.0301070  82.7893570   2.9376360  77.3766260  81.4899660
  11.4367250  90.2084210  87.3155880  12.0789480  89.5077370  87.4288050
  11.9616600  90.9882650  87.1352770  13.2104870  91.0079110  90.5191940
  13.5461110  91.5945800  91.1969860  12.2905210  90.8771820  90.7489730
   9.0393450  91.0570440  93.6880000   8.7190320  90.3379680  94.2325690
   8.3651810  91.7325510  93.7616060   7.0807620  91.9030890  78.6313150
   7.0717720  92.6360580  78.0157660   6.1605980  91.6562470  78.7240110
   2.6814260  87.1245780  79.3759910   2.0742210  87.8644680  79.3855210
   3.1563610  87.2145140  78.5498110  10.0667220  91.9659130  77.2938340
  10.1679200  91.7623120  76.3640320   9.1668960  91.7117410  77.4986120
   7.5893110  82.5239490  81.2762240   6.8809260  82.9925830  81.7175850
   7.8737590  81.8661500  81.9107430   9.2149040  83.9436190  89.2754770
   9.7134290  84.4182010  89.9406620   9.3571990  83.0199710  89.4824800
  11.6208540  79.2490150  82.7158030  11.4976320  79.2676280  81.7667540
  12.5693100  79.2969090  82.8356430   8.7085330  94.4845450  81.9886010
   8.9626830  94.4466840  81.0665380   7.7597810  94.3578780  81.9814260
   5.7928130  80.8324570  78.6512950   6.6418660  81.2694720  78.5853140
   5.4259400  81.1444830  79.4785010  14.7137910  85.4037330  83.5644520
  13.7728050  85.4187560  83.7392210  15.0281980  84.6173290  84.0104820
   4.6919550  87.0856930  77.1248480   5.4582820  86.9738290  77.6873910
   4.7694240  86.3894900  76.4725250   3.3866310  84.5182000  77.8081370
   3.4669900  83.5709510  77.9198770   4.2786060  84.8488880  77.9142030
  16.7163490  92.5746180  85.2398780  16.8410910  93.3977350  85.7122590
  17.5829050  92.3636910  84.8922930   4.1881020  94.6677390  84.9115910
   4.9243500  94.1192850  85.1824480   4.5721940  95.5333400  84.7721900
   3.1939300  93.8523460  94.1001490   3.9952030  94.1735510  94.5136890
   2.6791120  93.4919040  94.8221400   7.2983330  93.8407700  76.7341480
   8.0911940  94.1296530  76.2823270   6.7787680  93.4099870  76.0553960
  12.0303930  89.9603330  94.0476900  11.4242090  89.9834930  93.3072650
  11.7258040  89.2286370  94.5844150  13.4604300  93.6883620  92.6586310
  14.4126050  93.6041640  92.6086550  13.3132520  94.3525330  93.3320100
  16.3513500  93.0677830  78.1578220  16.0655010  92.6542970  77.3432400
  16.1533050  93.9965540  78.0378740   7.8160730  89.0611110  76.5983830
   7.7111370  88.4463460  77.3245210   7.6484950  88.5377000  75.8146840
   7.9675050  87.7467910  92.5773060   7.2020720  88.3152910  92.4927730
   8.1491010  87.4544120  91.6841290  11.0563460  88.1231140  77.2025820
  10.5073560  88.5700440  77.8468560  11.6782720  87.6180390  77.7263490
  15.1098400  89.4773240  93.1348080  15.8507870  89.8149000  92.6315540
  14.3471080  89.6465300  92.5817850   2.9460190  84.4826510  93.9387610
   2.9865530  84.1840380  94.8472840   3.8005690  84.8834120  93.7795130
   6.7238580  87.0822060  79.0991120   7.1455000  86.9161930  79.9422510
   6.8489420  86.2722290  78.6046260   4.8866000  83.0618610  91.9062100
   4.3562460  82.5709560  91.2785440   5.5554070  83.4902810  91.3720030
   9.2366220  86.1059670  76.3468220   9.7571880  85.3908690  75.9809370
   9.8834620  86.7445540  76.6468730  13.7844060  87.5288070  91.6703290
  14.1985080  87.6833150  92.5193710  12.8495060  87.6543290  91.8329070
  14.2566230  84.8684230  93.6742440  14.8387000  84.1136550  93.5862920
  14.4328000  85.3991670  92.8973920   5.3738300  80.0280980  91.9859390
   5.2795170  79.4101730  91.2610260   4.7935690  80.7547270  91.7589300
   8.1399740  78.5854220  89.0186780   7.6917040  78.6078480  88.1732330
   7.5064940  78.1873240  89.6157080   8.5459290  87.4808550  89.6399220
   8.9647400  88.3241280  89.4675460   7.6267920  87.6180590  89.4106000
  10.8823190  85.2124730  91.0237060  11.0019400  84.6165870  91.7631900
  11.7417190  85.2494420  90.6038360  13.2211090  85.7661920  89.5999570
  12.6946310  86.2904540  88.9964710  13.5642430  86.3989310  90.2309300
   5.6197480  83.1555290  76.0449280   5.4186540  82.2922650  76.4062620
   5.4489530  83.0688650  75.1070880   6.3966710  93.7861560  90.7556950
   5.8587800  94.5107620  90.4365650   6.6500670  93.3091900  89.9654290
   7.6491960  81.7546080  92.2812880   8.2391650  81.4461930  92.9690700
   6.8312200  81.2825830  92.4372780  12.4685390  81.3711890  92.5145900
  11.7800910  80.7093430  92.4495890  13.1891410  80.9250160  92.9594360
   4.4180280  80.2555910  76.0327160   4.7206180  80.2623340  75.1246310
   5.1574870  79.9053770  76.5294820   9.2528920  95.0212770  91.0143600
   9.1787620  95.9247910  91.3215970   8.3507760  94.7024670  90.9865670
   7.6365210  79.1990530  77.0183360   7.2887210  78.5214520  76.4385810
   7.8377980  78.7380040  77.8326750   9.8014250  94.1871280  78.6369960
  10.6965040  94.5256250  78.6588720   9.8331880  93.4650690  78.0094240
   3.4410410  89.5598330  76.8656960   3.8785280  90.1028000  77.5214540
   3.9258140  88.7345280  76.8753300   5.2518130  90.6796370  81.9779190
   4.9513670  90.5561340  82.8783100   5.1455620  89.8204960  81.5694920
  16.7808600  92.7174950  91.3436160  16.1810590  92.7767510  90.6000080
  16.9102500  91.7779930  91.4733010  18.4826480  88.0590350  84.0282000
  18.8535310  87.2757670  83.6217970  19.1228410  88.7479450  83.8499300
  15.4660240  89.4426930  89.4412320  14.6520080  89.8724090  89.7038110
  15.8734440  90.0545340  88.8281370  17.4251020  85.4343610  81.3342020
  17.0494620  84.6671540  80.9023310  16.6954140  85.8166310  81.8216950
   2.0146780  86.1130750  87.9551070   2.3819820  86.0258150  88.8347090
   1.4457600  85.3497300  87.8557930  16.8150640  84.5815130  90.9681540
  16.5836730  84.3527880  90.0679490  17.0755190  85.5014680  90.9226430
  16.7001980  83.6601100  84.6349260  17.2239460  83.1663750  84.0039430
  17.2861400  83.7951460  85.3796830   2.7336140  81.9942650  77.2667440
   3.4427840  81.5725870  76.7814720   2.0176080  82.0617880  76.6350790
   2.3810300  78.0481980  76.3070090   3.1038430  78.5890920  76.6251310
   2.6534820  77.7745400  75.4311630   2.0702490  77.2988170  86.2092710
   2.7178680  76.7485550  85.7687870   2.4904330  77.5531320  87.0308520
  15.5236290  94.1945530  82.9680590  16.1195360  93.8730100  82.2915010
  15.7814440  93.7217350  83.7593860   1.8234490  77.4543840  88.9518030
   1.4749310  77.9107660  89.7176210   1.4922190  76.5600970  89.0340460
   3.4298860  90.6263440  93.1171220   3.3868490  90.2556350  93.9985680
   3.5609870  91.5641010  93.2573040   7.1304890  92.1823030  88.7180940
   6.8896250  92.4497590  87.8311460   8.0707530  92.3528760  88.7731800
   9.3359310  78.6455720  92.4737450   9.2748200  79.2377550  93.2232860
  10.2759690  78.5381680  92.3287710  11.9733870  78.3025780  92.1129740
  12.5874280  78.6205070  91.4510820  12.5183430  77.8174370  92.7325600
   2.4955130  76.9820040  92.2268800   3.0438120  76.8008090  91.4634910
   2.5610440  76.1914150  92.7625110   3.2686890  93.5725690  90.2369000
   2.6747210  93.4410390  90.9759040   3.2610730  92.7363830  89.7711100
  16.0748500  94.8440830  86.7978320  15.6151470  95.5956640  86.4236340
  15.4460960  94.1247300  86.7393120   2.8999120  90.9384070  89.1877040
   2.1733180  90.3189360  89.1202990   2.9608270  91.3324680  88.3175120
   6.5044220  93.1529070  85.9726450   7.0209240  92.5416430  85.4474710
   7.1541600  93.6557850  86.4637460   9.2439720  94.0437560  86.7995430
   9.5317530  93.7891860  85.9228440   9.7562940  93.4914920  87.3901000
  10.4616730  77.7827760  87.3791940   9.6788520  78.2573260  87.6588700
  10.1679660  76.8782590  87.2705120   1.8057140  78.0875240  79.9005660
   2.5636500  78.2004120  79.3269690   1.3434310  78.9244440  79.8549090
   8.3470950  80.2014510  82.8907970   7.5345460  79.8271400  82.5503850
   8.8512590  79.4459590  83.1929160  12.8495930  76.8656960  84.1291040
  13.4525300  77.4377170  84.6039560  12.1088920  77.4296400  83.9064940
   2.7891820  92.9491690  79.8423940   2.2639440  93.3299720  79.1385900
   2.7136400  93.5742460  80.5633650   4.1782290  78.6139290  78.4407630
   4.7075050  77.8269090  78.3115580   4.8110610  79.2930480  78.6743160
   6.3720130  78.3514430  81.4953020   5.7422870  77.6501740  81.6623150
   5.8325270  79.1118560  81.2786180   9.3112080  94.9653660  94.1663630
  10.2379390  94.7297930  94.2099590   9.2962510  95.7925660  93.6849660
  17.5457140  94.5079230  81.1637880  17.7209330  93.8216970  80.5198800
  16.8478710  95.0326280  80.7714550   6.4975690  77.6298410  93.9305510
   6.2159960  78.1332010  93.1666330   6.8795390  76.8320160  93.5647640
   5.3884790  94.8974070  78.7173190   6.1203610  94.6133350  78.1697080
   5.6478460  94.6587350  79.6072570   4.5499580  91.0138800  78.7219520
   3.9208460  91.4823900  79.2705350   4.6647410  90.1688020  79.1565710
  15.8789640  94.1923520  93.9904670  16.6714960  93.6972750  93.7830630
  16.1722790  94.8713660  94.5980280  12.0049300  85.0644460  64.8720720
  11.9243350  84.1499070  64.6012430  11.5913720  85.5611530  64.1660430
  10.1367340  86.8423480  66.7529990   9.3609440  86.3623920  67.0428560
  10.7880270  86.1629130  66.5786150   4.1533170  87.1543290  67.6305750
   3.3218050  86.8992000  68.0302260   4.7614150  87.2254060  68.3663670
   4.1334430  91.1883380  67.8263770   4.4362470  90.2981120  67.6473990
   4.8778020  91.7453600  67.5986020   2.5625120  82.1145180  61.4148140
   1.6741820  82.4561150  61.3128020   2.8466310  81.9145500  60.5228970
  10.3838080  93.5341680  65.1533110   9.7649520  93.9899180  64.5827550
  11.2389860  93.6893140  64.7522810   9.5776330  89.5180670  66.7600150
   9.5084610  88.5770610  66.5989280  10.3396190  89.6082080  67.3322720
   1.7683000  80.1235190  69.0856770   1.5885840  79.2260940  69.3659530
   1.3663080  80.6707060  69.7603720  10.6081500  82.3251050  66.9869080
  10.9846320  81.4522930  66.8742750  10.5101010  82.6609750  66.0959520
   4.7386510  80.6976680  62.4486520   4.8453260  81.5980410  62.7555280
   3.8278870  80.6494650  62.1581170  14.3905620  79.8201490  63.9197420
  15.2115240  79.3298060  63.9622900  14.4239700  80.4099150  64.6729260
   2.3869670  82.6195690  67.6939110   3.0679780  82.8834060  68.3126510
   2.0717720  81.7796560  68.0277120   6.5794240  83.6663050  66.7811700
   7.0872460  84.1644020  67.4216720   7.1107480  82.8898250  66.6051060
  18.6805170  81.8368240  70.4841050  17.9757340  82.2249950  69.9656160
  18.9463090  82.5318530  71.0861980   4.8630340  78.3061610  71.0475120
   4.8648780  78.8234000  70.2421020   4.0334650  77.8291790  71.0245050
  11.2501430  88.4180920  62.5465020  10.6318700  88.8830370  61.9827740
  11.7624680  89.1108400  62.9634530   6.1133190  87.9456790  69.2248620
   5.7802570  88.5725710  69.8669690   6.2899870  88.4718670  68.4450290
  14.6267100  81.7601870  66.6924960  13.9222670  82.0486760  67.2728070
  14.9879260  82.5701980  66.3324520   4.5445670  80.0171570  69.0545570
   4.8862480  80.8613620  68.7599440   3.6061480  80.1655310  69.1710910
   5.3252290  89.9137590  71.0397800   5.9426290  90.5888670  70.7582250
   4.4645410  90.3225570  70.9485300  17.6954020  81.2056660  67.0834170
  16.7478930  81.2395640  67.2149600  18.0204010  82.0195610  67.4683530
   8.2273560  77.5053840  65.3790160   8.5348540  76.9500730  64.6625660
   7.2974260  77.6398300  65.1963150  15.0734040  89.9437350  62.7587790
  14.9630370  89.0011680  62.8837210  15.0702290  90.3052990  63.6450550
  13.1774060  88.1250970  68.9980230  13.5942850  87.9111080  68.1633690
  13.9013880  88.3823760  69.5688850  10.6154320  85.5702670  62.1150280
   9.6883600  85.5040050  62.3438750  10.7679140  86.5082800  62.0005520
  10.6023400  81.8419670  59.1117440   9.6627070  82.0033630  59.1969900
  10.9206660  82.5605350  58.5653430  17.1236160  86.5238190  69.0896470
  16.2954790  86.5931280  68.6146600  17.7186640  87.1092500  68.6212300
  14.6451610  87.1322970  62.6185530  14.0264030  86.7942520  61.9711830
  14.6276060  86.4882730  63.3264720  14.0878170  83.3107510  70.0351340
  13.6749350  84.1361220  70.2891330  13.3554120  82.7252550  69.8427700
   6.2210960  86.0967410  64.8970010   5.8167960  85.3844660  64.4015910
   6.3074080  85.7520650  65.7858050   6.6892660  89.7834970  67.0609220
   6.3920950  89.1780440  66.3817000   7.6392480  89.8212280  66.9498580
   4.9339580  82.8710620  68.6769050   5.4854170  82.9805960  67.9022300
   5.4483090  83.2448220  69.3924280  14.7778270  93.3566840  70.7232320
  14.3008830  94.1639030  70.5304930  14.0940060  92.7045170  70.8758530
   5.7811090  89.5216660  73.7117020   4.8839620  89.7456630  73.9590420
   5.8063960  89.6451600  72.7628420  12.8216310  86.3709780  59.6258280
  13.2609590  85.5332210  59.4796100  13.5344730  87.0039180  59.7122420
   4.6082310  86.3929980  72.2874390   4.4690080  87.2652780  72.6561790
   3.7263670  86.0502790  72.1422330  10.9311690  91.3105850  63.5939520
  11.3707600  92.0530180  63.1794910  10.8698580  91.5532420  64.5178480
   6.4062660  92.3351680  74.4959540   6.3778090  92.7394630  73.6287970
   6.2427630  91.4062040  74.3331140   2.9215590  84.9912390  62.3976660
   2.8013190  85.7174480  61.7857930   2.6116480  84.2215300  61.9204570
   1.8048590  89.8627720  64.6151480   1.3976670  90.0042310  63.7605080
   2.6961600  89.5787880  64.4122690  11.6227470  94.0119630  71.5218530
  12.1372140  93.9227640  72.3240960  10.7796550  94.3579330  71.8146440
  13.5981870  94.2974970  60.9502530  13.4383010  94.0077910  61.8484360
  13.4328580  93.5215100  60.4147760   6.0770250  94.0773500  62.7274150
   5.9012730  93.1609040  62.5141950   5.2225990  94.4360790  62.9671950
  13.3008000  91.8062530  59.5100530  12.6073160  91.8039820  58.8502810
  14.0430860  91.3821850  59.0794700  17.6134740  82.3624090  73.9173460
  16.9979010  82.8703760  73.3888920  17.2931160  81.4622420  73.8599400
   5.3879250  78.3347460  65.7800330   4.9447400  79.1157000  65.4484850
   5.9464240  78.6577350  66.4871270   9.6749060  81.2015980  71.3835650
   9.2128430  81.4099000  72.1955590   9.2727170  80.3875330  71.0806320
  14.6753570  82.4224930  72.5132310  13.8247160  82.1230680  72.8341380
  14.5155360  82.6666940  71.6016130  11.7703280  83.9226680  74.6131100
  12.0956690  83.0890430  74.2733330  12.5583610  84.4455200  74.7609430
   8.5038070  77.9558160  60.6606160   7.8792250  77.9518030  61.3859470
   8.4168190  77.0889120  60.2642130   7.4255150  78.8794790  67.6389930
   7.7227480  79.7857620  67.5581950   7.9740710  78.3913570  67.0249500
   5.1793470  83.4581030  63.5081580   4.9534390  83.2418200  64.4128200
   4.3986000  83.8909490  63.1627550  12.4091230  83.4644400  62.1072230
  11.8100120  84.1880200  61.9235850  12.9570840  83.4021180  61.3248680
   7.6192680  84.3566610  74.1741850   7.5236280  83.4161340  74.0242250
   8.4624660  84.5781680  73.7789920  11.0156100  82.1007940  64.1375510
  11.4085670  82.4180140  63.3244200  11.3772950  81.2219820  64.2520030
   2.7503220  80.7680280  72.3275630   2.3566610  81.6155490  72.5348410
   2.0621620  80.1306650  72.5184270   9.3248270  80.8515250  75.3972370
   8.6346590  80.6587450  76.0318460  10.0680570  81.1349890  75.9296670
  11.6011240  84.6913690  68.2326290  10.8692360  85.2000500  68.5816390
  11.2035580  83.8743670  67.9315070   8.0388630  81.3667890  66.6378780
   8.0424690  80.9257840  65.7883320   8.9339750  81.6885220  66.7450600
   3.8891010  81.2494380  65.5972990   3.5491060  81.7269610  66.3540040
   3.1268330  80.7959500  65.2374090   8.1008780  82.3679970  59.6285540
   8.2221600  82.3266450  60.5771360   7.7157290  83.2304120  59.4732270
  12.0637150  80.1447370  67.6449230  12.0809890  80.5956020  68.4891080
  11.8152730  79.2453010  67.8582670   7.1130280  84.6781110  59.0268840
   6.5447180  84.2299360  58.4004750   7.8219280  85.0373890  58.4933990
  15.4907900  77.5579550  73.4835610  15.8153670  76.8269210  74.0093590
  15.5264410  77.2393190  72.5816600   2.1899460  88.5793130  72.9035570
   1.8054250  87.9386800  73.5018530   2.5011650  89.2829250  73.4730300
   8.3396600  85.4269670  68.3844190   8.7066730  84.9528240  69.1305530
   8.1501660  86.3011240  68.7252530   6.1295970  84.4678310  70.7028400
   5.8253040  85.3470290  70.9278760   7.0842430  84.5278100  70.7385840
   4.6577760  88.6739300  61.2995250   3.8840020  88.1336920  61.1393970
   5.3872390  88.1545910  60.9613010  15.4165740  87.6704660  67.0921640
  16.1364860  88.1659950  66.7017750  15.2147560  86.9922550  66.4475510
  10.8775680  79.0642620  61.2351030  10.0640290  78.5655790  61.1596340
  10.6837630  79.9040870  60.8187380  10.7984540  87.7413720  72.9790640
  10.7321850  86.8209390  72.7248230  10.1689680  87.8389160  73.6935280
  13.5924070  83.4362270  59.5313190  14.4803690  83.7479500  59.3564530
  13.5629160  82.5634520  59.1393770   4.7015160  88.3419680  64.9374060
   5.2193830  87.5387940  64.8830950   4.2499180  88.2798820  65.7790890
   9.5884660  89.6085960  60.2101360   9.9300360  90.3528190  59.7144680
   8.7597370  89.9217080  60.5726190   2.1859700  85.3081050  71.8499760
   1.8274640  85.9734900  72.4373100   1.8914260  84.4764600  72.2212380
   5.3872820  85.7665290  74.7339310   5.0872960  85.9122470  73.8367130
   6.1584060  85.2070580  74.6412700  10.7301270  90.5634290  72.7294440
  10.7445810  89.6315250  72.5113350  10.0226370  90.6494050  73.3684210
  15.8638340  84.7474110  58.9993050  15.7802060  85.1788330  58.1489490
  16.5832530  85.2072460  59.4319870  16.8925590  91.6016370  61.7275180
  16.2501750  90.9471990  62.0018900  16.5056250  92.0071460  60.9515850
  12.4712070  88.9301800  65.5746870  12.8235890  88.3329930  64.9148240
  11.5874400  88.6046030  65.7455120   8.5575350  89.6899490  62.9817280
   9.2446480  90.2368700  63.3624870   7.7707770  90.2340220  63.0166890
   7.8602560  86.6945520  62.5942640   8.3165340  87.5050770  62.8202830
   7.5090770  86.3768660  63.4261130  10.1635170  92.2051860  69.8234940
  10.8077390  92.4111240  70.5008360  10.5264610  91.4440260  69.3705790
   3.7614340  77.0383170  63.0665160   3.6328970  77.0301070  64.0150080
   2.9376360  77.3766260  62.7156170  11.4367250  90.2084210  68.5412390
  12.0789480  89.5077370  68.6544560  11.9616600  90.9882650  68.3609280
  15.2822970  90.4932830  58.2651530  15.0560550  89.7763270  58.8576170
  14.8919170  90.2445270  57.4273280  13.2104870  91.0079110  71.7448450
  13.5461110  91.5945800  72.4226370  12.2905210  90.8771820  71.9746240
  14.8639220  88.4104770  59.9265690  14.5760920  88.8717460  60.7143570
  15.6591390  87.9502540  60.1949910   9.0393450  91.0570440  74.9136510
   8.7190320  90.3379680  75.4582200   8.3651810  91.7325510  74.9872570
   7.0807620  91.9030890  59.8569660   7.0717720  92.6360580  59.2414170
   6.1605980  91.6562470  59.9496620   2.6814260  87.1245780  60.6016420
   2.0742210  87.8644680  60.6111720   3.1563610  87.2145140  59.7754620
  12.2547050  81.2896600  70.2773310  12.6227870  80.4691810  70.6052880
  11.3945250  81.3498490  70.6928960  15.6209080  80.2453540  61.0860870
  14.9922240  80.3499210  60.3719100  15.1261000  80.4650320  61.8754750
  10.0667220  91.9659130  58.5194850  10.1679200  91.7623120  57.5896830
   9.1668960  91.7117410  58.7242630   7.5893110  82.5239490  62.5018750
   6.8809260  82.9925830  62.9432360   7.8737590  81.8661500  63.1363940
   9.2149040  83.9436190  70.5011280   9.7134290  84.4182010  71.1663130
   9.3571990  83.0199710  70.7081310  11.6208540  79.2490150  63.9414540
  11.4976320  79.2676280  62.9924050  12.5693100  79.2969090  64.0612940
   8.7085330  94.4845450  63.2142520   8.9626830  94.4466840  62.2921890
   7.7597810  94.3578780  63.2070770   5.7928130  80.8324570  59.8769460
   6.6418660  81.2694720  59.8109650   5.4259400  81.1444830  60.7041520
  16.4215900  80.1604150  71.3439670  15.9189500  80.9009550  71.6833480
  17.2372560  80.5488150  71.0276460  14.7137910  85.4037330  64.7901030
  13.7728050  85.4187560  64.9648720  15.0281980  84.6173290  65.2361330
   4.6919550  87.0856930  58.3504990   5.4582820  86.9738290  58.9130420
   4.7694240  86.3894900  57.6981760   3.3866310  84.5182000  59.0337880
   3.4669900  83.5709510  59.1455280   4.2786060  84.8488880  59.1398540
   4.1881020  94.6677390  66.1372420   4.9243500  94.1192850  66.4080990
   4.5721940  95.5333400  65.9978410   3.1939300  93.8523460  75.3258000
   3.9952030  94.1735510  75.7393400   2.6791120  93.4919040  76.0477910
   7.2983330  93.8407700  57.9597990   8.0911940  94.1296530  57.5079780
   6.7787680  93.4099870  57.2810470  12.0303930  89.9603330  75.2733410
  11.4242090  89.9834930  74.5329160  11.7258040  89.2286370  75.8100660
  13.4604300  93.6883620  73.8842820  14.4126050  93.6041640  73.8343060
  13.3132520  94.3525330  74.5576610  16.3513500  93.0677830  59.3834730
  16.0655010  92.6542970  58.5688910  16.1533050  93.9965540  59.2635250
   7.8160730  89.0611110  57.8240340   7.7111370  88.4463460  58.5501720
   7.6484950  88.5377000  57.0403350   7.9675050  87.7467910  73.8029570
   7.2020720  88.3152910  73.7184240   8.1491010  87.4544120  72.9097800
  11.0563460  88.1231140  58.4282330  10.5073560  88.5700440  59.0725070
  11.6782720  87.6180390  58.9520000   2.9460190  84.4826510  75.1644120
   2.9865530  84.1840380  76.0729350   3.8005690  84.8834120  75.0051640
   6.7238580  87.0822060  60.3247630   7.1455000  86.9161930  61.1679020
   6.8489420  86.2722290  59.8302770   4.8866000  83.0618610  73.1318610
   4.3562460  82.5709560  72.5041950   5.5554070  83.4902810  72.5976540
   9.2366220  86.1059670  57.5724730   9.7571880  85.3908690  57.2065880
   9.8834620  86.7445540  57.8725240  13.7844060  87.5288070  72.8959800
  14.1985080  87.6833150  73.7450220  12.8495060  87.6543290  73.0585580
  14.2566230  84.8684230  74.8998950  14.8387000  84.1136550  74.8119430
  14.4328000  85.3991670  74.1230430   5.3738300  80.0280980  73.2115900
   5.2795170  79.4101730  72.4866770   4.7935690  80.7547270  72.9845810
   8.1399740  78.5854220  70.2443290   7.6917040  78.6078480  69.3988840
   7.5064940  78.1873240  70.8413590   8.5459290  87.4808550  70.8655730
   8.9647400  88.3241280  70.6931970   7.6267920  87.6180590  70.6362510
  10.8823190  85.2124730  72.2493570  11.0019400  84.6165870  72.9888410
  11.7417190  85.2494420  71.8294870  13.2211090  85.7661920  70.8256080
  12.6946310  86.2904540  70.2221220  13.5642430  86.3989310  71.4565810
   5.6197480  83.1555290  57.2705790   5.4186540  82.2922650  57.6319130
   5.4489530  83.0688650  56.3327390   6.3966710  93.7861560  71.9813460
   5.8587800  94.5107620  71.6622160   6.6500670  93.3091900  71.1910800
   7.6491960  81.7546080  73.5069390   8.2391650  81.4461930  74.1947210
   6.8312200  81.2825830  73.6629290  12.4685390  81.3711890  73.7402410
  11.7800910  80.7093430  73.6752400  13.1891410  80.9250160  74.1850870
  13.0985790  77.9663520  59.7992670  13.3788080  77.1231420  60.1552090
  12.3251520  78.1986630  60.3131420   4.4180280  80.2555910  57.2583670
   4.7206180  80.2623340  56.3502820   5.1574870  79.9053770  57.7551330
   9.2528920  95.0212770  72.2400110   9.1787620  95.9247910  72.5472480
   8.3507760  94.7024670  72.2122180   7.6365210  79.1990530  58.2439870
   7.2887210  78.5214520  57.6642320   7.8377980  78.7380040  59.0583260
   9.8014250  94.1871280  59.8626470  10.6965040  94.5256250  59.8845230
   9.8331880  93.4650690  59.2350750   3.4410410  89.5598330  58.0913470
   3.8785280  90.1028000  58.7471050   3.9258140  88.7345280  58.1009810
   5.2518130  90.6796370  63.2035700   4.9513670  90.5561340  64.1039610
   5.1455620  89.8204960  62.7951430  18.0210050  90.4592770  57.9062380
  17.1903010  90.5269420  58.3769610  18.1981880  91.3496890  57.6029240
  17.4766510  87.2040250  60.4096580  18.2385420  87.7736900  60.5156270
  17.4920880  86.6367450  61.1804890  18.4826480  88.0590350  65.2538510
  18.8535310  87.2757670  64.8474480  19.1228410  88.7479450  65.0755810
  17.5285680  87.4974620  57.5669100  17.8034520  88.4053500  57.4388320
  17.3396420  87.4337150  58.5031090  13.9261290  80.5219470  58.8622730
  14.3446170  80.3350450  58.0219390  13.6197350  79.6698520  59.1725660
  17.4251020  85.4343610  62.5598530  17.0494620  84.6671540  62.1279820
  16.6954140  85.8166310  63.0473460   2.0146780  86.1130750  69.1807580
   2.3819820  86.0258150  70.0603600   1.4457600  85.3497300  69.0814440
  16.8150640  84.5815130  72.1938050  16.5836730  84.3527880  71.2936000
  17.0755190  85.5014680  72.1482940  15.2538710  79.8071560  74.9717750
  16.1308890  79.8154960  75.3551750  15.2659550  79.0702400  74.3610100
  16.7001980  83.6601100  65.8605770  17.2239460  83.1663750  65.2295940
  17.2861400  83.7951460  66.6053340  16.8791700  83.7440970  69.3825320
  15.9294410  83.7104510  69.4970310  17.0604710  84.6541080  69.1475090
   2.7336140  81.9942650  58.4923950   3.4427840  81.5725870  58.0071230
   2.0176080  82.0617880  57.8607300   2.3810300  78.0481980  57.5326600
   3.1038430  78.5890920  57.8507820   2.6534820  77.7745400  56.6568140
  16.1901950  82.9174450  61.7998180  16.6861070  82.6845320  62.5847060
  15.9918020  82.0786290  61.3835820   2.0702490  77.2988170  67.4349220
   2.7178680  76.7485550  66.9944380   2.4904330  77.5531320  68.2565030
  17.6189110  81.5535400  64.3335860  17.5088390  81.3991440  65.2718130
  18.3796700  81.0256340  64.0911270  15.9654830  77.4929530  70.7918860
  16.6027050  78.1063670  71.1578050  16.1129720  77.5290190  69.8468090
   1.8234490  77.4543840  70.1774540   1.4749310  77.9107660  70.9432720
   1.4922190  76.5600970  70.2596970   3.4298860  90.6263440  74.3427730
   3.3868490  90.2556350  75.2242190   3.5609870  91.5641010  74.4829550
   7.1304890  92.1823030  69.9437450   6.8896250  92.4497590  69.0567970
   8.0707530  92.3528760  69.9988310   9.3359310  78.6455720  73.6993960
   9.2748200  79.2377550  74.4489370  10.2759690  78.5381680  73.5544220
  11.9733870  78.3025780  73.3386250  12.5874280  78.6205070  72.6767330
  12.5183430  77.8174370  73.9582110   2.4955130  76.9820040  73.4525310
   3.0438120  76.8008090  72.6891420   2.5610440  76.1914150  73.9881620
   3.2686890  93.5725690  71.4625510   2.6747210  93.4410390  72.2015550
   3.2610730  92.7363830  70.9967610  12.7141910  76.8657920  69.6655540
  11.8401750  77.1993030  69.4628470  12.6052660  76.3931100  70.4907410
  13.6213890  79.0728790  71.0497260  13.2927250  78.2580550  70.6698990
  14.5696190  79.0298600  70.9262950   2.8999120  90.9384070  70.4133550
   2.1733180  90.3189360  70.3459500   2.9608270  91.3324680  69.5431630
   6.5044220  93.1529070  67.1982960   7.0209240  92.5416430  66.6731220
   7.1541600  93.6557850  67.6893970   9.2439720  94.0437560  68.0251940
   9.5317530  93.7891860  67.1484950   9.7562940  93.4914920  68.6157510
  10.4616730  77.7827760  68.6048450   9.6788520  78.2573260  68.8845210
  10.1679660  76.8782590  68.4961630  15.0137800  78.4850860  66.6497540
  15.4545890  78.4295960  65.8019140  14.7445390  79.4008870  66.7207720
  16.8776370  78.1166100  64.6606360  16.8164770  77.1727320  64.5137380
  17.6568400  78.2246190  65.2059820   1.8057140  78.0875240  61.1262170
   2.5636500  78.2004120  60.5526200   1.3434310  78.9244440  61.0805600
   8.3470950  80.2014510  64.1164480   7.5345460  79.8271400  63.7760360
   8.8512590  79.4459590  64.4185670  12.8495930  76.8656960  65.3547550
  13.4525300  77.4377170  65.8296070  12.1088920  77.4296400  65.1321450
   2.7891820  92.9491690  61.0680450   2.2639440  93.3299720  60.3642410
   2.7136400  93.5742460  61.7890160   4.1782290  78.6139290  59.6664140
   4.7075050  77.8269090  59.5372090   4.8110610  79.2930480  59.8999670
   6.3720130  78.3514430  62.7209530   5.7422870  77.6501740  62.8879660
   5.8325270  79.1118560  62.5042690   9.3112080  94.9653660  75.3920140
  10.2379390  94.7297930  75.4356100   9.2962510  95.7925660  74.9106170
   6.4975690  77.6298410  75.1562020   6.2159960  78.1332010  74.3922840
   6.8795390  76.8320160  74.7904150   5.3884790  94.8974070  59.9429700
   6.1203610  94.6133350  59.3953590   5.6478460  94.6587350  60.8329080
   4.5499580  91.0138800  59.9476030   3.9208460  91.4823900  60.4961860
   4.6647410  90.1688020  60.3822220  13.0991150  77.0451990  75.7342490
  12.9856600  77.3646600  76.6294010  13.9160890  77.4464500  75.4379770
  15.8789640  94.1923520  75.2161180  16.6714960  93.6972750  75.0087140
  16.1722790  94.8713660  75.8236790  12.0049300  85.0644460  46.0977230
  11.9243350  84.1499070  45.8268940  11.5913720  85.5611530  45.3916940
  10.1367340  86.8423480  47.9786500   9.3609440  86.3623920  48.2685070
  10.7880270  86.1629130  47.8042660   4.1533170  87.1543290  48.8562260
   3.3218050  86.8992000  49.2558770   4.7614150  87.2254060  49.5920180
  14.1574770  91.2483670  46.7585630  13.6956300  90.4770910  47.0872800
  14.9700320  91.2749740  47.2638080   4.1334430  91.1883380  49.0520280
   4.4362470  90.2981120  48.8730500   4.8778020  91.7453600  48.8242530
   2.5625120  82.1145180  42.6404650   1.6741820  82.4561150  42.5384530
   2.8466310  81.9145500  41.7485480  10.3838080  93.5341680  46.3789620
   9.7649520  93.9899180  45.8084060  11.2389860  93.6893140  45.9779320
   9.5776330  89.5180670  47.9856660   9.5084610  88.5770610  47.8245790
  10.3396190  89.6082080  48.5579230   1.7683000  80.1235190  50.3113280
   1.5885840  79.2260940  50.5916040   1.3663080  80.6707060  50.9860230
  10.6081500  82.3251050  48.2125590  10.9846320  81.4522930  48.0999260
  10.5101010  82.6609750  47.3216030   4.7386510  80.6976680  43.6743030
   4.8453260  81.5980410  43.9811790   3.8278870  80.6494650  43.3837680
  14.3905620  79.8201490  45.1453930  15.2115240  79.3298060  45.1879410
  14.4239700  80.4099150  45.8985770   2.3869670  82.6195690  48.9195620
   3.0679780  82.8834060  49.5383020   2.0717720  81.7796560  49.2533630
   6.5794240  83.6663050  48.0068210   7.0872460  84.1644020  48.6473230
   7.1107480  82.8898250  47.8307570   4.8630340  78.3061610  52.2731630
   4.8648780  78.8234000  51.4677530   4.0334650  77.8291790  52.2501560
  11.2501430  88.4180920  43.7721530  10.6318700  88.8830370  43.2084250
  11.7624680  89.1108400  44.1891040   6.1133190  87.9456790  50.4505130
   5.7802570  88.5725710  51.0926200   6.2899870  88.4718670  49.6706800
  14.6267100  81.7601870  47.9181470  13.9222670  82.0486760  48.4984580
  14.9879260  82.5701980  47.5581030   4.5445670  80.0171570  50.2802080
   4.8862480  80.8613620  49.9855950   3.6061480  80.1655310  50.3967420
   5.3252290  89.9137590  52.2654310   5.9426290  90.5888670  51.9838760
   4.4645410  90.3225570  52.1741810   8.2273560  77.5053840  46.6046670
   8.5348540  76.9500730  45.8882170   7.2974260  77.6398300  46.4219660
  13.7788620  93.2221130  48.8954130  13.7915780  92.8183420  48.0276390
  13.2263840  93.9968420  48.7915560  15.0734040  89.9437350  43.9844300
  14.9630370  89.0011680  44.1093720  15.0702290  90.3052990  44.8707060
  13.1774060  88.1250970  50.2236740  13.5942850  87.9111080  49.3890200
  13.9013880  88.3823760  50.7945360  10.6154320  85.5702670  43.3406790
   9.6883600  85.5040050  43.5695260  10.7679140  86.5082800  43.2262030
  10.6023400  81.8419670  40.3373950   9.6627070  82.0033630  40.4226410
  10.9206660  82.5605350  39.7909940  14.6451610  87.1322970  43.8442040
  14.0264030  86.7942520  43.1968340  14.6276060  86.4882730  44.5521230
  14.0878170  83.3107510  51.2607850  13.6749350  84.1361220  51.5147840
  13.3554120  82.7252550  51.0684210   6.2210960  86.0967410  46.1226520
   5.8167960  85.3844660  45.6272420   6.3074080  85.7520650  47.0114560
   6.6892660  89.7834970  48.2865730   6.3920950  89.1780440  47.6073510
   7.6392480  89.8212280  48.1755090   4.9339580  82.8710620  49.9025560
   5.4854170  82.9805960  49.1278810   5.4483090  83.2448220  50.6180790
  14.7778270  93.3566840  51.9488830  14.3008830  94.1639030  51.7561440
  14.0940060  92.7045170  52.1015040   5.7811090  89.5216660  54.9373530
   4.8839620  89.7456630  55.1846930   5.8063960  89.6451600  53.9884930
  12.8216310  86.3709780  40.8514790  13.2609590  85.5332210  40.7052610
  13.5344730  87.0039180  40.9378930   4.6082310  86.3929980  53.5130900
   4.4690080  87.2652780  53.8818300   3.7263670  86.0502790  53.3678840
  10.9311690  91.3105850  44.8196030  11.3707600  92.0530180  44.4051420
  10.8698580  91.5532420  45.7434990   6.4062660  92.3351680  55.7216050
   6.3778090  92.7394630  54.8544480   6.2427630  91.4062040  55.5587650
  16.4033450  77.6252590  39.1655830  16.0906110  77.7179420  40.0654900
  17.1645920  78.2033620  39.1153260   2.9215590  84.9912390  43.6233170
   2.8013190  85.7174480  43.0114440   2.6116480  84.2215300  43.1461080
  18.3577480  93.1178780  57.0180220  18.8337200  93.5961670  57.6969300
  18.9784640  93.0496270  56.2925720   1.8048590  89.8627720  45.8407990
   1.3976670  90.0042310  44.9861590   2.6961600  89.5787880  45.6379200
  17.7610730  90.3091630  54.1780230  17.8873790  90.0703510  53.2597410
  17.8032110  89.4776170  54.6502310  11.6227470  94.0119630  52.7475040
  12.1372140  93.9227640  53.5497470  10.7796550  94.3579330  53.0402950
  13.5981870  94.2974970  42.1759040  13.4383010  94.0077910  43.0740870
  13.4328580  93.5215100  41.6404270   6.0770250  94.0773500  43.9530660
   5.9012730  93.1609040  43.7398460   5.2225990  94.4360790  44.1928460
  13.3008000  91.8062530  40.7357040  12.6073160  91.8039820  40.0759320
  14.0430860  91.3821850  40.3051210  12.8657930  93.4325240  44.8105530
  13.3214880  92.6514620  45.1244150  13.2050450  94.1432060  45.3546710
  17.6134740  82.3624090  55.1429970  16.9979010  82.8703760  54.6145430
  17.2931160  81.4622420  55.0855910   5.3879250  78.3347460  47.0056840
   4.9447400  79.1157000  46.6741360   5.9464240  78.6577350  47.7127780
   9.6749060  81.2015980  52.6092160   9.2128430  81.4099000  53.4212100
   9.2727170  80.3875330  52.3062830  14.6753570  82.4224930  53.7388820
  13.8247160  82.1230680  54.0597890  14.5155360  82.6666940  52.8272640
  11.7703280  83.9226680  55.8387610  12.0956690  83.0890430  55.4989840
  12.5583610  84.4455200  55.9865940   8.5038070  77.9558160  41.8862670
   7.8792250  77.9518030  42.6115980   8.4168190  77.0889120  41.4898640
   7.4255150  78.8794790  48.8646440   7.7227480  79.7857620  48.7838460
   7.9740710  78.3913570  48.2506010   5.1793470  83.4581030  44.7338090
   4.9534390  83.2418200  45.6384710   4.3986000  83.8909490  44.3884060
  12.4091230  83.4644400  43.3328740  11.8100120  84.1880200  43.1492360
  12.9570840  83.4021180  42.5505190   7.6192680  84.3566610  55.3998360
   7.5236280  83.4161340  55.2498760   8.4624660  84.5781680  55.0046430
  11.0156100  82.1007940  45.3632020  11.4085670  82.4180140  44.5500710
  11.3772950  81.2219820  45.4776540   2.7503220  80.7680280  53.5532140
   2.3566610  81.6155490  53.7604920   2.0621620  80.1306650  53.7440780
   9.3248270  80.8515250  56.6228880   8.6346590  80.6587450  57.2574970
  10.0680570  81.1349890  57.1553180  11.6011240  84.6913690  49.4582800
  10.8692360  85.2000500  49.8072900  11.2035580  83.8743670  49.1571580
   8.0388630  81.3667890  47.8635290   8.0424690  80.9257840  47.0139830
   8.9339750  81.6885220  47.9707110   3.8891010  81.2494380  46.8229500
   3.5491060  81.7269610  47.5796550   3.1268330  80.7959500  46.4630600
   8.1008780  82.3679970  40.8542050   8.2221600  82.3266450  41.8027870
   7.7157290  83.2304120  40.6988780  12.0637150  80.1447370  48.8705740
  12.0809890  80.5956020  49.7147590  11.8152730  79.2453010  49.0839180
   7.1130280  84.6781110  40.2525350   6.5447180  84.2299360  39.6261260
   7.8219280  85.0373890  39.7190500   2.1899460  88.5793130  54.1292080
   1.8054250  87.9386800  54.7275040   2.5011650  89.2829250  54.6986810
   8.3396600  85.4269670  49.6100700   8.7066730  84.9528240  50.3562040
   8.1501660  86.3011240  49.9509040   6.1295970  84.4678310  51.9284910
   5.8253040  85.3470290  52.1535270   7.0842430  84.5278100  51.9642350
   4.6577760  88.6739300  42.5251760   3.8840020  88.1336920  42.3650480
   5.3872390  88.1545910  42.1869520  15.4165740  87.6704660  48.3178150
  16.1364860  88.1659950  47.9274260  15.2147560  86.9922550  47.6732020
  10.8775680  79.0642620  42.4607540  10.0640290  78.5655790  42.3852850
  10.6837630  79.9040870  42.0443890  10.7984540  87.7413720  54.2047150
  10.7321850  86.8209390  53.9504740  10.1689680  87.8389160  54.9191790
  13.5924070  83.4362270  40.7569700  14.4803690  83.7479500  40.5821040
  13.5629160  82.5634520  40.3650280   4.7015160  88.3419680  46.1630570
   5.2193830  87.5387940  46.1087460   4.2499180  88.2798820  47.0047400
   9.5884660  89.6085960  41.4357870   9.9300360  90.3528190  40.9401190
   8.7597370  89.9217080  41.7982700   2.1859700  85.3081050  53.0756270
   1.8274640  85.9734900  53.6629610   1.8914260  84.4764600  53.4468890
   5.3872820  85.7665290  55.9595820   5.0872960  85.9122470  55.0623640
   6.1584060  85.2070580  55.8669210  10.7301270  90.5634290  53.9550950
  10.7445810  89.6315250  53.7369860  10.0226370  90.6494050  54.5940720
  15.8638340  84.7474110  40.2249560  15.7802060  85.1788330  39.3746000
  16.5832530  85.2072460  40.6576380  16.9412480  87.2041630  53.3019530
  16.2160670  87.7970410  53.1048920  17.4687940  87.1965170  52.5032900
  16.8925590  91.6016370  42.9531690  16.2501750  90.9471990  43.2275410
  16.5056250  92.0071460  42.1772360  12.4712070  88.9301800  46.8003380
  12.8235890  88.3329930  46.1404750  11.5874400  88.6046030  46.9711630
   8.5575350  89.6899490  44.2073790   9.2446480  90.2368700  44.5881380
   7.7707770  90.2340220  44.2423400   7.8602560  86.6945520  43.8199150
   8.3165340  87.5050770  44.0459340   7.5090770  86.3768660  44.6517640
  10.1635170  92.2051860  51.0491450  10.8077390  92.4111240  51.7264870
  10.5264610  91.4440260  50.5962300   3.7614340  77.0383170  44.2921670
   3.6328970  77.0301070  45.2406590   2.9376360  77.3766260  43.9412680
  11.4367250  90.2084210  49.7668900  12.0789480  89.5077370  49.8801070
  11.9616600  90.9882650  49.5865790  15.2822970  90.4932830  39.4908040
  15.0560550  89.7763270  40.0832680  14.8919170  90.2445270  38.6529790
  13.2104870  91.0079110  52.9704960  13.5461110  91.5945800  53.6482880
  12.2905210  90.8771820  53.2002750  14.8639220  88.4104770  41.1522200
  14.5760920  88.8717460  41.9400080  15.6591390  87.9502540  41.4206420
   9.0393450  91.0570440  56.1393020   8.7190320  90.3379680  56.6838710
   8.3651810  91.7325510  56.2129080   7.0807620  91.9030890  41.0826170
   7.0717720  92.6360580  40.4670680   6.1605980  91.6562470  41.1753130
   2.6814260  87.1245780  41.8272930   2.0742210  87.8644680  41.8368230
   3.1563610  87.2145140  41.0011130  12.2547050  81.2896600  51.5029820
  12.6227870  80.4691810  51.8309390  11.3945250  81.3498490  51.9185470
  15.6209080  80.2453540  42.3117380  14.9922240  80.3499210  41.5975610
  15.1261000  80.4650320  43.1011260  10.0667220  91.9659130  39.7451360
  10.1679200  91.7623120  38.8153340   9.1668960  91.7117410  39.9499140
   7.5893110  82.5239490  43.7275260   6.8809260  82.9925830  44.1688870
   7.8737590  81.8661500  44.3620450   9.2149040  83.9436190  51.7267790
   9.7134290  84.4182010  52.3919640   9.3571990  83.0199710  51.9337820
  11.6208540  79.2490150  45.1671050  11.4976320  79.2676280  44.2180560
  12.5693100  79.2969090  45.2869450   8.7085330  94.4845450  44.4399030
   8.9626830  94.4466840  43.5178400   7.7597810  94.3578780  44.4327280
   5.7928130  80.8324570  41.1025970   6.6418660  81.2694720  41.0366160
   5.4259400  81.1444830  41.9298030  16.4215900  80.1604150  52.5696180
  15.9189500  80.9009550  52.9089990  17.2372560  80.5488150  52.2532970
  14.7137910  85.4037330  46.0157540  13.7728050  85.4187560  46.1905230
  15.0281980  84.6173290  46.4617840   4.6919550  87.0856930  39.5761500
   5.4582820  86.9738290  40.1386930   4.7694240  86.3894900  38.9238270
   3.3866310  84.5182000  40.2594390   3.4669900  83.5709510  40.3711790
   4.2786060  84.8488880  40.3655050   4.1881020  94.6677390  47.3628930
   4.9243500  94.1192850  47.6337500   4.5721940  95.5333400  47.2234920
   3.1939300  93.8523460  56.5514510   3.9952030  94.1735510  56.9649910
   2.6791120  93.4919040  57.2734420   7.2983330  93.8407700  39.1854500
   8.0911940  94.1296530  38.7336290   6.7787680  93.4099870  38.5066980
  12.0303930  89.9603330  56.4989920  11.4242090  89.9834930  55.7585670
  11.7258040  89.2286370  57.0357170  13.4604300  93.6883620  55.1099330
  14.4126050  93.6041640  55.0599570  13.3132520  94.3525330  55.7833120
  16.3513500  93.0677830  40.6091240  16.0655010  92.6542970  39.7945420
  16.1533050  93.9965540  40.4891760   7.8160730  89.0611110  39.0496850
   7.7111370  88.4463460  39.7758230   7.6484950  88.5377000  38.2659860
   7.9675050  87.7467910  55.0286080   7.2020720  88.3152910  54.9440750
   8.1491010  87.4544120  54.1354310  11.0563460  88.1231140  39.6538840
  10.5073560  88.5700440  40.2981580  11.6782720  87.6180390  40.1776510
  15.1098400  89.4773240  55.5861100  15.8507870  89.8149000  55.0828560
  14.3471080  89.6465300  55.0330870   2.9460190  84.4826510  56.3900630
   2.9865530  84.1840380  57.2985860   3.8005690  84.8834120  56.2308150
   6.7238580  87.0822060  41.5504140   7.1455000  86.9161930  42.3935530
   6.8489420  86.2722290  41.0559280   4.8866000  83.0618610  54.3575120
   4.3562460  82.5709560  53.7298460   5.5554070  83.4902810  53.8233050
   9.2366220  86.1059670  38.7981240   9.7571880  85.3908690  38.4322390
   9.8834620  86.7445540  39.0981750  13.7844060  87.5288070  54.1216310
  14.1985080  87.6833150  54.9706730  12.8495060  87.6543290  54.2842090
  14.2566230  84.8684230  56.1255460  14.8387000  84.1136550  56.0375940
  14.4328000  85.3991670  55.3486940   5.3738300  80.0280980  54.4372410
   5.2795170  79.4101730  53.7123280   4.7935690  80.7547270  54.2102320
   8.1399740  78.5854220  51.4699800   7.6917040  78.6078480  50.6245350
   7.5064940  78.1873240  52.0670100   8.5459290  87.4808550  52.0912240
   8.9647400  88.3241280  51.9188480   7.6267920  87.6180590  51.8619020
  10.8823190  85.2124730  53.4750080  11.0019400  84.6165870  54.2144920
  11.7417190  85.2494420  53.0551380  13.2211090  85.7661920  52.0512590
  12.6946310  86.2904540  51.4477730  13.5642430  86.3989310  52.6822320
   5.6197480  83.1555290  38.4962300   5.4186540  82.2922650  38.8575640
   5.4489530  83.0688650  37.5583900   6.3966710  93.7861560  53.2069970
   5.8587800  94.5107620  52.8878670   6.6500670  93.3091900  52.4167310
   7.6491960  81.7546080  54.7325900   8.2391650  81.4461930  55.4203720
   6.8312200  81.2825830  54.8885800  12.4685390  81.3711890  54.9658920
  11.7800910  80.7093430  54.9008910  13.1891410  80.9250160  55.4107380
  13.0985790  77.9663520  41.0249180  13.3788080  77.1231420  41.3808600
  12.3251520  78.1986630  41.5387930   4.4180280  80.2555910  38.4840180
   4.7206180  80.2623340  37.5759330   5.1574870  79.9053770  38.9807840
   9.2528920  95.0212770  53.4656620   9.1787620  95.9247910  53.7728990
   8.3507760  94.7024670  53.4378690   7.6365210  79.1990530  39.4696380
   7.2887210  78.5214520  38.8898830   7.8377980  78.7380040  40.2839770
   9.8014250  94.1871280  41.0882980  10.6965040  94.5256250  41.1101740
   9.8331880  93.4650690  40.4607260   3.4410410  89.5598330  39.3169980
   3.8785280  90.1028000  39.9727560   3.9258140  88.7345280  39.3266320
   5.2518130  90.6796370  44.4292210   4.9513670  90.5561340  45.3296120
   5.1455620  89.8204960  44.0207940  16.7808600  92.7174950  53.7949180
  16.1810590  92.7767510  53.0513100  16.9102500  91.7779930  53.9246030
  18.0210050  90.4592770  39.1318890  17.1903010  90.5269420  39.6026120
  18.1981880  91.3496890  38.8285750  17.4766510  87.2040250  41.6353090
  18.2385420  87.7736900  41.7412780  17.4920880  86.6367450  42.4061400
  15.4660240  89.4426930  51.8925340  14.6520080  89.8724090  52.1551130
  15.8734440  90.0545340  51.2794390  17.5285680  87.4974620  38.7925610
  17.8034520  88.4053500  38.6644830  17.3396420  87.4337150  39.7287600
  13.9261290  80.5219470  40.0879240  14.3446170  80.3350450  39.2475900
  13.6197350  79.6698520  40.3982170  17.4251020  85.4343610  43.7855040
  17.0494620  84.6671540  43.3536330  16.6954140  85.8166310  44.2729970
   2.0146780  86.1130750  50.4064090   2.3819820  86.0258150  51.2860110
   1.4457600  85.3497300  50.3070950  16.8150640  84.5815130  53.4194560
  16.5836730  84.3527880  52.5192510  17.0755190  85.5014680  53.3739450
   2.7336140  81.9942650  39.7180460   3.4427840  81.5725870  39.2327740
   2.0176080  82.0617880  39.0863810   2.3810300  78.0481980  38.7583110
   3.1038430  78.5890920  39.0764330   2.6534820  77.7745400  37.8824650
  16.1901950  82.9174450  43.0254690  16.6861070  82.6845320  43.8103570
  15.9918020  82.0786290  42.6092330   2.0702490  77.2988170  48.6605730
   2.7178680  76.7485550  48.2200890   2.4904330  77.5531320  49.4821540
  15.9654830  77.4929530  52.0175370  16.6027050  78.1063670  52.3834560
  16.1129720  77.5290190  51.0724600  18.5079380  79.3843320  38.7998510
  19.4328690  79.2524500  38.5916800  18.4855170  79.4636140  39.7534960
  18.5817870  80.1553980  41.4255220  17.7869370  80.0899100  41.9548130
  18.7861150  81.0904620  41.4140570  15.5236290  94.1945530  45.4193610
  16.1195360  93.8730100  44.7428030  15.7814440  93.7217350  46.2106880
   1.8234490  77.4543840  51.4031050   1.4749310  77.9107660  52.1689230
   1.4922190  76.5600970  51.4853480   3.4298860  90.6263440  55.5684240
   3.3868490  90.2556350  56.4498700   3.5609870  91.5641010  55.7086060
   7.1304890  92.1823030  51.1693960   6.8896250  92.4497590  50.2824480
   8.0707530  92.3528760  51.2244820   9.3359310  78.6455720  54.9250470
   9.2748200  79.2377550  55.6745880  10.2759690  78.5381680  54.7800730
  11.9733870  78.3025780  54.5642760  12.5874280  78.6205070  53.9023840
  12.5183430  77.8174370  55.1838620  18.3909050  94.2017410  51.9704600
  17.8967330  94.5986280  51.2531730  17.7822340  93.5766620  52.3641880
   2.4955130  76.9820040  54.6781820   3.0438120  76.8008090  53.9147930
   2.5610440  76.1914150  55.2138130   3.2686890  93.5725690  52.6882020
   2.6747210  93.4410390  53.4272060   3.2610730  92.7363830  52.2224120
  12.7141910  76.8657920  50.8912050  11.8401750  77.1993030  50.6884980
  12.6052660  76.3931100  51.7163920  13.6213890  79.0728790  52.2753770
  13.2927250  78.2580550  51.8955500  14.5696190  79.0298600  52.1519460
  16.0748500  94.8440830  49.2491340  15.6151470  95.5956640  48.8749360
  15.4460960  94.1247300  49.1906140   2.8999120  90.9384070  51.6390060
   2.1733180  90.3189360  51.5716010   2.9608270  91.3324680  50.7688140
   6.5044220  93.1529070  48.4239470   7.0209240  92.5416430  47.8987730
   7.1541600  93.6557850  48.9150480   9.2439720  94.0437560  49.2508450
   9.5317530  93.7891860  48.3741460   9.7562940  93.4914920  49.8414020
  10.4616730  77.7827760  49.8304960   9.6788520  78.2573260  50.1101720
  10.1679660  76.8782590  49.7218140  15.0137800  78.4850860  47.8754050
  15.4545890  78.4295960  47.0275650  14.7445390  79.4008870  47.9464230
  16.8776370  78.1166100  45.8862870  16.8164770  77.1727320  45.7393890
  17.6568400  78.2246190  46.4316330   1.8057140  78.0875240  42.3518680
   2.5636500  78.2004120  41.7782710   1.3434310  78.9244440  42.3062110
   8.3470950  80.2014510  45.3420990   7.5345460  79.8271400  45.0016870
   8.8512590  79.4459590  45.6442180  12.8495930  76.8656960  46.5804060
  13.4525300  77.4377170  47.0552580  12.1088920  77.4296400  46.3577960
  15.9930530  77.2678520  41.8544340  16.1881160  78.1661970  42.1211770
  15.2060400  77.0365600  42.3477290   2.7891820  92.9491690  42.2936960
   2.2639440  93.3299720  41.5898920   2.7136400  93.5742460  43.0146670
   4.1782290  78.6139290  40.8920650   4.7075050  77.8269090  40.7628600
   4.8110610  79.2930480  41.1256180   6.3720130  78.3514430  43.9466040
   5.7422870  77.6501740  44.1136170   5.8325270  79.1118560  43.7299200
   9.3112080  94.9653660  56.6176650  10.2379390  94.7297930  56.6612610
   9.2962510  95.7925660  56.1362680  17.5457140  94.5079230  43.6150900
  17.7209330  93.8216970  42.9711820  16.8478710  95.0326280  43.2227570
   6.4975690  77.6298410  56.3818530   6.2159960  78.1332010  55.6179350
   6.8795390  76.8320160  56.0160660   5.3884790  94.8974070  41.1686210
   6.1203610  94.6133350  40.6210100   5.6478460  94.6587350  42.0585590
   4.5499580  91.0138800  41.1732540   3.9208460  91.4823900  41.7218370
   4.6647410  90.1688020  41.6078730  15.8789640  94.1923520  56.4417690
  16.6714960  93.6972750  56.2343650  16.1722790  94.8713660  57.0493300
  12.0049300  85.0644460  27.3233740  11.9243350  84.1499070  27.0525450
  11.5913720  85.5611530  26.6173450  10.1367340  86.8423480  29.2043010
   9.3609440  86.3623920  29.4941580  10.7880270  86.1629130  29.0299170
   4.1533170  87.1543290  30.0818770   3.3218050  86.8992000  30.4815280
   4.7614150  87.2254060  30.8176690  14.1574770  91.2483670  27.9842140
  13.6956300  90.4770910  28.3129310  14.9700320  91.2749740  28.4894590
   4.1334430  91.1883380  30.2776790   4.4362470  90.2981120  30.0987010
   4.8778020  91.7453600  30.0499040   2.5625120  82.1145180  23.8661160
   1.6741820  82.4561150  23.7641040   2.8466310  81.9145500  22.9741990
  10.3838080  93.5341680  27.6046130   9.7649520  93.9899180  27.0340570
  11.2389860  93.6893140  27.2035830   9.5776330  89.5180670  29.2113170
   9.5084610  88.5770610  29.0502300  10.3396190  89.6082080  29.7835740
   1.7683000  80.1235190  31.5369790   1.5885840  79.2260940  31.8172550
   1.3663080  80.6707060  32.2116740  10.6081500  82.3251050  29.4382100
  10.9846320  81.4522930  29.3255770  10.5101010  82.6609750  28.5472540
   4.7386510  80.6976680  24.8999540   4.8453260  81.5980410  25.2068300
   3.8278870  80.6494650  24.6094190  14.3905620  79.8201490  26.3710440
  15.2115240  79.3298060  26.4135920  14.4239700  80.4099150  27.1242280
   2.3869670  82.6195690  30.1452130   3.0679780  82.8834060  30.7639530
   2.0717720  81.7796560  30.4790140   6.5794240  83.6663050  29.2324720
   7.0872460  84.1644020  29.8729740   7.1107480  82.8898250  29.0564080
  18.6805170  81.8368240  32.9354070  17.9757340  82.2249950  32.4169180
  18.9463090  82.5318530  33.5375000   4.8630340  78.3061610  33.4988140
   4.8648780  78.8234000  32.6934040   4.0334650  77.8291790  33.4758070
  11.2501430  88.4180920  24.9978040  10.6318700  88.8830370  24.4340760
  11.7624680  89.1108400  25.4147550   6.1133190  87.9456790  31.6761640
   5.7802570  88.5725710  32.3182710   6.2899870  88.4718670  30.8963310
  14.6267100  81.7601870  29.1437980  13.9222670  82.0486760  29.7241090
  14.9879260  82.5701980  28.7837540   4.5445670  80.0171570  31.5058590
   4.8862480  80.8613620  31.2112460   3.6061480  80.1655310  31.6223930
   5.3252290  89.9137590  33.4910820   5.9426290  90.5888670  33.2095270
   4.4645410  90.3225570  33.3998320  16.2429880  91.3777000  31.4065460
  15.5593400  92.0476110  31.3982130  16.7824170  91.5757650  30.6410320
  17.6954020  81.2056660  29.5347190  16.7478930  81.2395640  29.6662620
  18.0204010  82.0195610  29.9196550   8.2273560  77.5053840  27.8303180
   8.5348540  76.9500730  27.1138680   7.2974260  77.6398300  27.6476170
  13.7788620  93.2221130  30.1210640  13.7915780  92.8183420  29.2532900
  13.2263840  93.9968420  30.0172070  15.0734040  89.9437350  25.2100810
  14.9630370  89.0011680  25.3350230  15.0702290  90.3052990  26.0963570
  13.1774060  88.1250970  31.4493250  13.5942850  87.9111080  30.6146710
  13.9013880  88.3823760  32.0201870  10.6154320  85.5702670  24.5663300
   9.6883600  85.5040050  24.7951770  10.7679140  86.5082800  24.4518540
  10.6023400  81.8419670  21.5630460   9.6627070  82.0033630  21.6482920
  10.9206660  82.5605350  21.0166450  17.1236160  86.5238190  31.5409490
  16.2954790  86.5931280  31.0659620  17.7186640  87.1092500  31.0725320
  14.6451610  87.1322970  25.0698550  14.0264030  86.7942520  24.4224850
  14.6276060  86.4882730  25.7777740  14.0878170  83.3107510  32.4864360
  13.6749350  84.1361220  32.7404350  13.3554120  82.7252550  32.2940720
   6.2210960  86.0967410  27.3483030   5.8167960  85.3844660  26.8528930
   6.3074080  85.7520650  28.2371070   6.6892660  89.7834970  29.5122240
   6.3920950  89.1780440  28.8330020   7.6392480  89.8212280  29.4011600
   4.9339580  82.8710620  31.1282070   5.4854170  82.9805960  30.3535320
   5.4483090  83.2448220  31.8437300  14.7778270  93.3566840  33.1745340
  14.3008830  94.1639030  32.9817950  14.0940060  92.7045170  33.3271550
   5.7811090  89.5216660  36.1630040   4.8839620  89.7456630  36.4103440
   5.8063960  89.6451600  35.2141440  12.8216310  86.3709780  22.0771300
  13.2609590  85.5332210  21.9309120  13.5344730  87.0039180  22.1635440
   4.6082310  86.3929980  34.7387410   4.4690080  87.2652780  35.1074810
   3.7263670  86.0502790  34.5935350  10.9311690  91.3105850  26.0452540
  11.3707600  92.0530180  25.6307930  10.8698580  91.5532420  26.9691500
   6.4062660  92.3351680  36.9472560   6.3778090  92.7394630  36.0800990
   6.2427630  91.4062040  36.7844160  16.4033450  77.6252590  20.3912340
  16.0906110  77.7179420  21.2911410  17.1645920  78.2033620  20.3409770
   2.9215590  84.9912390  24.8489680   2.8013190  85.7174480  24.2370950
   2.6116480  84.2215300  24.3717590  18.3577480  93.1178780  38.2436730
  18.8337200  93.5961670  38.9225810  18.9784640  93.0496270  37.5182230
   1.8048590  89.8627720  27.0664500   1.3976670  90.0042310  26.2118100
   2.6961600  89.5787880  26.8635710  17.7610730  90.3091630  35.4036740
  17.8873790  90.0703510  34.4853920  17.8032110  89.4776170  35.8758820
  11.6227470  94.0119630  33.9731550  12.1372140  93.9227640  34.7753980
  10.7796550  94.3579330  34.2659460  13.5981870  94.2974970  23.4015550
  13.4383010  94.0077910  24.2997380  13.4328580  93.5215100  22.8660780
   6.0770250  94.0773500  25.1787170   5.9012730  93.1609040  24.9654970
   5.2225990  94.4360790  25.4184970  13.3008000  91.8062530  21.9613550
  12.6073160  91.8039820  21.3015830  14.0430860  91.3821850  21.5307720
  12.8657930  93.4325240  26.0362040  13.3214880  92.6514620  26.3500660
  13.2050450  94.1432060  26.5803220  17.6134740  82.3624090  36.3686480
  16.9979010  82.8703760  35.8401940  17.2931160  81.4622420  36.3112420
   5.3879250  78.3347460  28.2313350   4.9447400  79.1157000  27.8997870
   5.9464240  78.6577350  28.9384290   9.6749060  81.2015980  33.8348670
   9.2128430  81.4099000  34.6468610   9.2727170  80.3875330  33.5319340
  14.6753570  82.4224930  34.9645330  13.8247160  82.1230680  35.2854400
  14.5155360  82.6666940  34.0529150  11.7703280  83.9226680  37.0644120
  12.0956690  83.0890430  36.7246350  12.5583610  84.4455200  37.2122450
   8.5038070  77.9558160  23.1119180   7.8792250  77.9518030  23.8372490
   8.4168190  77.0889120  22.7155150   7.4255150  78.8794790  30.0902950
   7.7227480  79.7857620  30.0094970   7.9740710  78.3913570  29.4762520
   5.1793470  83.4581030  25.9594600   4.9534390  83.2418200  26.8641220
   4.3986000  83.8909490  25.6140570  12.4091230  83.4644400  24.5585250
  11.8100120  84.1880200  24.3748870  12.9570840  83.4021180  23.7761700
   7.6192680  84.3566610  36.6254870   7.5236280  83.4161340  36.4755270
   8.4624660  84.5781680  36.2302940  11.0156100  82.1007940  26.5888530
  11.4085670  82.4180140  25.7757220  11.3772950  81.2219820  26.7033050
   2.7503220  80.7680280  34.7788650   2.3566610  81.6155490  34.9861430
   2.0621620  80.1306650  34.9697290   9.3248270  80.8515250  37.8485390
   8.6346590  80.6587450  38.4831480  10.0680570  81.1349890  38.3809690
  11.6011240  84.6913690  30.6839310  10.8692360  85.2000500  31.0329410
  11.2035580  83.8743670  30.3828090   8.0388630  81.3667890  29.0891800
   8.0424690  80.9257840  28.2396340   8.9339750  81.6885220  29.1963620
   3.8891010  81.2494380  28.0486010   3.5491060  81.7269610  28.8053060
   3.1268330  80.7959500  27.6887110   8.1008780  82.3679970  22.0798560
   8.2221600  82.3266450  23.0284380   7.7157290  83.2304120  21.9245290
  12.0637150  80.1447370  30.0962250  12.0809890  80.5956020  30.9404100
  11.8152730  79.2453010  30.3095690   7.1130280  84.6781110  21.4781860
   6.5447180  84.2299360  20.8517770   7.8219280  85.0373890  20.9447010
  15.4907900  77.5579550  35.9348630  15.8153670  76.8269210  36.4606610
  15.5264410  77.2393190  35.0329620   2.1899460  88.5793130  35.3548590
   1.8054250  87.9386800  35.9531550   2.5011650  89.2829250  35.9243320
   8.3396600  85.4269670  30.8357210   8.7066730  84.9528240  31.5818550
   8.1501660  86.3011240  31.1765550   6.1295970  84.4678310  33.1541420
   5.8253040  85.3470290  33.3791780   7.0842430  84.5278100  33.1898860
   4.6577760  88.6739300  23.7508270   3.8840020  88.1336920  23.5906990
   5.3872390  88.1545910  23.4126030  15.4165740  87.6704660  29.5434660
  16.1364860  88.1659950  29.1530770  15.2147560  86.9922550  28.8988530
  10.8775680  79.0642620  23.6864050  10.0640290  78.5655790  23.6109360
  10.6837630  79.9040870  23.2700400  10.7984540  87.7413720  35.4303660
  10.7321850  86.8209390  35.1761250  10.1689680  87.8389160  36.1448300
  13.5924070  83.4362270  21.9826210  14.4803690  83.7479500  21.8077550
  13.5629160  82.5634520  21.5906790   4.7015160  88.3419680  27.3887080
   5.2193830  87.5387940  27.3343970   4.2499180  88.2798820  28.2303910
   9.5884660  89.6085960  22.6614380   9.9300360  90.3528190  22.1657700
   8.7597370  89.9217080  23.0239210   2.1859700  85.3081050  34.3012780
   1.8274640  85.9734900  34.8886120   1.8914260  84.4764600  34.6725400
   5.3872820  85.7665290  37.1852330   5.0872960  85.9122470  36.2880150
   6.1584060  85.2070580  37.0925720  10.7301270  90.5634290  35.1807460
  10.7445810  89.6315250  34.9626370  10.0226370  90.6494050  35.8197230
  15.8638340  84.7474110  21.4506070  15.7802060  85.1788330  20.6002510
  16.5832530  85.2072460  21.8832890  16.9412480  87.2041630  34.5276040
  16.2160670  87.7970410  34.3305430  17.4687940  87.1965170  33.7289410
  16.8925590  91.6016370  24.1788200  16.2501750  90.9471990  24.4531920
  16.5056250  92.0071460  23.4028870  12.4712070  88.9301800  28.0259890
  12.8235890  88.3329930  27.3661260  11.5874400  88.6046030  28.1968140
   8.5575350  89.6899490  25.4330300   9.2446480  90.2368700  25.8137890
   7.7707770  90.2340220  25.4679910   7.8602560  86.6945520  25.0455660
   8.3165340  87.5050770  25.2715850   7.5090770  86.3768660  25.8774150
  10.1635170  92.2051860  32.2747960  10.8077390  92.4111240  32.9521380
  10.5264610  91.4440260  31.8218810   3.7614340  77.0383170  25.5178180
   3.6328970  77.0301070  26.4663100   2.9376360  77.3766260  25.1669190
  11.4367250  90.2084210  30.9925410  12.0789480  89.5077370  31.1057580
  11.9616600  90.9882650  30.8122300  15.2822970  90.4932830  20.7164550
  15.0560550  89.7763270  21.3089190  14.8919170  90.2445270  19.8786300
  13.2104870  91.0079110  34.1961470  13.5461110  91.5945800  34.8739390
  12.2905210  90.8771820  34.4259260  14.8639220  88.4104770  22.3778710
  14.5760920  88.8717460  23.1656590  15.6591390  87.9502540  22.6462930
   9.0393450  91.0570440  37.3649530   8.7190320  90.3379680  37.9095220
   8.3651810  91.7325510  37.4385590   7.0807620  91.9030890  22.3082680
   7.0717720  92.6360580  21.6927190   6.1605980  91.6562470  22.4009640
   2.6814260  87.1245780  23.0529440   2.0742210  87.8644680  23.0624740
   3.1563610  87.2145140  22.2267640  12.2547050  81.2896600  32.7286330
  12.6227870  80.4691810  33.0565900  11.3945250  81.3498490  33.1441980
  15.6209080  80.2453540  23.5373890  14.9922240  80.3499210  22.8232120
  15.1261000  80.4650320  24.3267770  10.0667220  91.9659130  20.9707870
  10.1679200  91.7623120  20.0409850   9.1668960  91.7117410  21.1755650
   7.5893110  82.5239490  24.9531770   6.8809260  82.9925830  25.3945380
   7.8737590  81.8661500  25.5876960   9.2149040  83.9436190  32.9524300
   9.7134290  84.4182010  33.6176150   9.3571990  83.0199710  33.1594330
  11.6208540  79.2490150  26.3927560  11.4976320  79.2676280  25.4437070
  12.5693100  79.2969090  26.5125960   8.7085330  94.4845450  25.6655540
   8.9626830  94.4466840  24.7434910   7.7597810  94.3578780  25.6583790
   5.7928130  80.8324570  22.3282480   6.6418660  81.2694720  22.2622670
   5.4259400  81.1444830  23.1554540  16.4215900  80.1604150  33.7952690
  15.9189500  80.9009550  34.1346500  17.2372560  80.5488150  33.4789480
  14.7137910  85.4037330  27.2414050  13.7728050  85.4187560  27.4161740
  15.0281980  84.6173290  27.6874350   4.6919550  87.0856930  20.8018010
   5.4582820  86.9738290  21.3643440   4.7694240  86.3894900  20.1494780
   3.3866310  84.5182000  21.4850900   3.4669900  83.5709510  21.5968300
   4.2786060  84.8488880  21.5911560  16.7163490  92.5746180  28.9168310
  16.8410910  93.3977350  29.3892120  17.5829050  92.3636910  28.5692460
   4.1881020  94.6677390  28.5885440   4.9243500  94.1192850  28.8594010
   4.5721940  95.5333400  28.4491430   3.1939300  93.8523460  37.7771020
   3.9952030  94.1735510  38.1906420   2.6791120  93.4919040  38.4990930
   7.2983330  93.8407700  20.4111010   8.0911940  94.1296530  19.9592800
   6.7787680  93.4099870  19.7323490  12.0303930  89.9603330  37.7246430
  11.4242090  89.9834930  36.9842180  11.7258040  89.2286370  38.2613680
  13.4604300  93.6883620  36.3355840  14.4126050  93.6041640  36.2856080
  13.3132520  94.3525330  37.0089630  16.3513500  93.0677830  21.8347750
  16.0655010  92.6542970  21.0201930  16.1533050  93.9965540  21.7148270
   7.8160730  89.0611110  20.2753360   7.7111370  88.4463460  21.0014740
   7.6484950  88.5377000  19.4916370   7.9675050  87.7467910  36.2542590
   7.2020720  88.3152910  36.1697260   8.1491010  87.4544120  35.3610820
  11.0563460  88.1231140  20.8795350  10.5073560  88.5700440  21.5238090
  11.6782720  87.6180390  21.4033020  15.1098400  89.4773240  36.8117610
  15.8507870  89.8149000  36.3085070  14.3471080  89.6465300  36.2587380
   2.9460190  84.4826510  37.6157140   2.9865530  84.1840380  38.5242370
   3.8005690  84.8834120  37.4564660   6.7238580  87.0822060  22.7760650
   7.1455000  86.9161930  23.6192040   6.8489420  86.2722290  22.2815790
   4.8866000  83.0618610  35.5831630   4.3562460  82.5709560  34.9554970
   5.5554070  83.4902810  35.0489560   9.2366220  86.1059670  20.0237750
   9.7571880  85.3908690  19.6578900   9.8834620  86.7445540  20.3238260
  13.7844060  87.5288070  35.3472820  14.1985080  87.6833150  36.1963240
  12.8495060  87.6543290  35.5098600  14.2566230  84.8684230  37.3511970
  14.8387000  84.1136550  37.2632450  14.4328000  85.3991670  36.5743450
   5.3738300  80.0280980  35.6628920   5.2795170  79.4101730  34.9379790
   4.7935690  80.7547270  35.4358830   8.1399740  78.5854220  32.6956310
   7.6917040  78.6078480  31.8501860   7.5064940  78.1873240  33.2926610
   8.5459290  87.4808550  33.3168750   8.9647400  88.3241280  33.1444990
   7.6267920  87.6180590  33.0875530  10.8823190  85.2124730  34.7006590
  11.0019400  84.6165870  35.4401430  11.7417190  85.2494420  34.2807890
  13.2211090  85.7661920  33.2769100  12.6946310  86.2904540  32.6734240
  13.5642430  86.3989310  33.9078830   5.6197480  83.1555290  19.7218810
   5.4186540  82.2922650  20.0832150   5.4489530  83.0688650  18.7840410
   6.3966710  93.7861560  34.4326480   5.8587800  94.5107620  34.1135180
   6.6500670  93.3091900  33.6423820   7.6491960  81.7546080  35.9582410
   8.2391650  81.4461930  36.6460230   6.8312200  81.2825830  36.1142310
  12.4685390  81.3711890  36.1915430  11.7800910  80.7093430  36.1265420
  13.1891410  80.9250160  36.6363890  13.0985790  77.9663520  22.2505690
  13.3788080  77.1231420  22.6065110  12.3251520  78.1986630  22.7644440
   4.4180280  80.2555910  19.7096690   4.7206180  80.2623340  18.8015840
   5.1574870  79.9053770  20.2064350   9.2528920  95.0212770  34.6913130
   9.1787620  95.9247910  34.9985500   8.3507760  94.7024670  34.6635200
   7.6365210  79.1990530  20.6952890   7.2887210  78.5214520  20.1155340
   7.8377980  78.7380040  21.5096280   9.8014250  94.1871280  22.3139490
  10.6965040  94.5256250  22.3358250   9.8331880  93.4650690  21.6863770
   3.4410410  89.5598330  20.5426490   3.8785280  90.1028000  21.1984070
   3.9258140  88.7345280  20.5522830   5.2518130  90.6796370  25.6548720
   4.9513670  90.5561340  26.5552630   5.1455620  89.8204960  25.2464450
  16.7808600  92.7174950  35.0205690  16.1810590  92.7767510  34.2769610
  16.9102500  91.7779930  35.1502540  18.0210050  90.4592770  20.3575400
  17.1903010  90.5269420  20.8282630  18.1981880  91.3496890  20.0542260
  17.4766510  87.2040250  22.8609600  18.2385420  87.7736900  22.9669290
  17.4920880  86.6367450  23.6317910  18.4826480  88.0590350  27.7051530
  18.8535310  87.2757670  27.2987500  19.1228410  88.7479450  27.5268830
  15.4660240  89.4426930  33.1181850  14.6520080  89.8724090  33.3807640
  15.8734440  90.0545340  32.5050900  17.5285680  87.4974620  20.0182120
  17.8034520  88.4053500  19.8901340  17.3396420  87.4337150  20.9544110
  13.9261290  80.5219470  21.3135750  14.3446170  80.3350450  20.4732410
  13.6197350  79.6698520  21.6238680  17.4251020  85.4343610  25.0111550
  17.0494620  84.6671540  24.5792840  16.6954140  85.8166310  25.4986480
   2.0146780  86.1130750  31.6320600   2.3819820  86.0258150  32.5116620
   1.4457600  85.3497300  31.5327460  16.8150640  84.5815130  34.6451070
  16.5836730  84.3527880  33.7449020  17.0755190  85.5014680  34.5995960
  15.2538710  79.8071560  37.4230770  16.1308890  79.8154960  37.8064770
  15.2659550  79.0702400  36.8123120  16.7001980  83.6601100  28.3118790
  17.2239460  83.1663750  27.6808960  17.2861400  83.7951460  29.0566360
  16.8791700  83.7440970  31.8338340  15.9294410  83.7104510  31.9483330
  17.0604710  84.6541080  31.5988110   2.7336140  81.9942650  20.9436970
   3.4427840  81.5725870  20.4584250   2.0176080  82.0617880  20.3120320
   2.3810300  78.0481980  19.9839620   3.1038430  78.5890920  20.3020840
   2.6534820  77.7745400  19.1081160  16.1901950  82.9174450  24.2511200
  16.6861070  82.6845320  25.0360080  15.9918020  82.0786290  23.8348840
   2.0702490  77.2988170  29.8862240   2.7178680  76.7485550  29.4457400
   2.4904330  77.5531320  30.7078050  17.6189110  81.5535400  26.7848880
  17.5088390  81.3991440  27.7231150  18.3796700  81.0256340  26.5424290
  15.9654830  77.4929530  33.2431880  16.6027050  78.1063670  33.6091070
  16.1129720  77.5290190  32.2981110  18.5079380  79.3843320  20.0255020
  19.4328690  79.2524500  19.8173310  18.4855170  79.4636140  20.9791470
  18.5817870  80.1553980  22.6511730  17.7869370  80.0899100  23.1804640
  18.7861150  81.0904620  22.6397080  15.5236290  94.1945530  26.6450120
  16.1195360  93.8730100  25.9684540  15.7814440  93.7217350  27.4363390
   1.8234490  77.4543840  32.6287560   1.4749310  77.9107660  33.3945740
   1.4922190  76.5600970  32.7109990   3.4298860  90.6263440  36.7940750
   3.3868490  90.2556350  37.6755210   3.5609870  91.5641010  36.9342570
   7.1304890  92.1823030  32.3950470   6.8896250  92.4497590  31.5080990
   8.0707530  92.3528760  32.4501330   9.3359310  78.6455720  36.1506980
   9.2748200  79.2377550  36.9002390  10.2759690  78.5381680  36.0057240
  11.9733870  78.3025780  35.7899270  12.5874280  78.6205070  35.1280350
  12.5183430  77.8174370  36.4095130  18.3909050  94.2017410  33.1961110
  17.8967330  94.5986280  32.4788240  17.7822340  93.5766620  33.5898390
   2.4955130  76.9820040  35.9038330   3.0438120  76.8008090  35.1404440
   2.5610440  76.1914150  36.4394640   3.2686890  93.5725690  33.9138530
   2.6747210  93.4410390  34.6528570   3.2610730  92.7363830  33.4480630
  12.7141910  76.8657920  32.1168560  11.8401750  77.1993030  31.9141490
  12.6052660  76.3931100  32.9420430  13.6213890  79.0728790  33.5010280
  13.2927250  78.2580550  33.1212010  14.5696190  79.0298600  33.3775970
  16.0748500  94.8440830  30.4747850  15.6151470  95.5956640  30.1005870
  15.4460960  94.1247300  30.4162650   2.8999120  90.9384070  32.8646570
   2.1733180  90.3189360  32.7972520   2.9608270  91.3324680  31.9944650
   6.5044220  93.1529070  29.6495980   7.0209240  92.5416430  29.1244240
   7.1541600  93.6557850  30.1406990   9.2439720  94.0437560  30.4764960
   9.5317530  93.7891860  29.5997970   9.7562940  93.4914920  31.0670530
  10.4616730  77.7827760  31.0561470   9.6788520  78.2573260  31.3358230
  10.1679660  76.8782590  30.9474650  15.0137800  78.4850860  29.1010560
  15.4545890  78.4295960  28.2532160  14.7445390  79.4008870  29.1720740
  16.8776370  78.1166100  27.1119380  16.8164770  77.1727320  26.9650400
  17.6568400  78.2246190  27.6572840   1.8057140  78.0875240  23.5775190
   2.5636500  78.2004120  23.0039220   1.3434310  78.9244440  23.5318620
   8.3470950  80.2014510  26.5677500   7.5345460  79.8271400  26.2273380
   8.8512590  79.4459590  26.8698690  12.8495930  76.8656960  27.8060570
  13.4525300  77.4377170  28.2809090  12.1088920  77.4296400  27.5834470
  15.9930530  77.2678520  23.0800850  16.1881160  78.1661970  23.3468280
  15.2060400  77.0365600  23.5733800   2.7891820  92.9491690  23.5193470
   2.2639440  93.3299720  22.8155430   2.7136400  93.5742460  24.2403180
   4.1782290  78.6139290  22.1177160   4.7075050  77.8269090  21.9885110
   4.8110610  79.2930480  22.3512690   6.3720130  78.3514430  25.1722550
   5.7422870  77.6501740  25.3392680   5.8325270  79.1118560  24.9555710
   9.3112080  94.9653660  37.8433160  10.2379390  94.7297930  37.8869120
   9.2962510  95.7925660  37.3619190  17.5457140  94.5079230  24.8407410
  17.7209330  93.8216970  24.1968330  16.8478710  95.0326280  24.4484080
   6.4975690  77.6298410  37.6075040   6.2159960  78.1332010  36.8435860
   6.8795390  76.8320160  37.2417170   5.3884790  94.8974070  22.3942720
   6.1203610  94.6133350  21.8466610   5.6478460  94.6587350  23.2842100
   4.5499580  91.0138800  22.3989050   3.9208460  91.4823900  22.9474880
   4.6647410  90.1688020  22.8335240  13.0991150  77.0451990  38.1855510
  12.9856600  77.3646600  39.0807030  13.9160890  77.4464500  37.8892790
  15.8789640  94.1923520  37.6674200  16.6714960  93.6972750  37.4600160
  16.1722790  94.8713660  38.2749810  12.0049300  85.0644460   8.5490250
  11.9243350  84.1499070   8.2781960  11.5913720  85.5611530   7.8429960
  10.1367340  86.8423480  10.4299520   9.3609440  86.3623920  10.7198090
  10.7880270  86.1629130  10.2555680   4.1533170  87.1543290  11.3075280
   3.3218050  86.8992000  11.7071790   4.7614150  87.2254060  12.0433200
  14.1574770  91.2483670   9.2098650  13.6956300  90.4770910   9.5385820
  14.9700320  91.2749740   9.7151100   4.1334430  91.1883380  11.5033300
   4.4362470  90.2981120  11.3243520   4.8778020  91.7453600  11.2755550
   2.5625120  82.1145180   5.0917670   1.6741820  82.4561150   4.9897550
   2.8466310  81.9145500   4.1998500  10.3838080  93.5341680   8.8302640
   9.7649520  93.9899180   8.2597080  11.2389860  93.6893140   8.4292340
   9.5776330  89.5180670  10.4369680   9.5084610  88.5770610  10.2758810
  10.3396190  89.6082080  11.0092250   1.7683000  80.1235190  12.7626300
   1.5885840  79.2260940  13.0429060   1.3663080  80.6707060  13.4373250
  10.6081500  82.3251050  10.6638610  10.9846320  81.4522930  10.5512280
  10.5101010  82.6609750   9.7729050   4.7386510  80.6976680   6.1256050
   4.8453260  81.5980410   6.4324810   3.8278870  80.6494650   5.8350700
  14.3905620  79.8201490   7.5966950  15.2115240  79.3298060   7.6392430
  14.4239700  80.4099150   8.3498790   2.3869670  82.6195690  11.3708640
   3.0679780  82.8834060  11.9896040   2.0717720  81.7796560  11.7046650
   6.5794240  83.6663050  10.4581230   7.0872460  84.1644020  11.0986250
   7.1107480  82.8898250  10.2820590  18.6805170  81.8368240  14.1610580
  17.9757340  82.2249950  13.6425690  18.9463090  82.5318530  14.7631510
   4.8630340  78.3061610  14.7244650   4.8648780  78.8234000  13.9190550
   4.0334650  77.8291790  14.7014580  11.2501430  88.4180920   6.2234550
  10.6318700  88.8830370   5.6597270  11.7624680  89.1108400   6.6404060
   6.1133190  87.9456790  12.9018150   5.7802570  88.5725710  13.5439220
   6.2899870  88.4718670  12.1219820  14.6267100  81.7601870  10.3694490
  13.9222670  82.0486760  10.9497600  14.9879260  82.5701980  10.0094050
   4.5445670  80.0171570  12.7315100   4.8862480  80.8613620  12.4368970
   3.6061480  80.1655310  12.8480440   5.3252290  89.9137590  14.7167330
   5.9426290  90.5888670  14.4351780   4.4645410  90.3225570  14.6254830
  16.2429880  91.3777000  12.6321970  15.5593400  92.0476110  12.6238640
  16.7824170  91.5757650  11.8666830  17.6954020  81.2056660  10.7603700
  16.7478930  81.2395640  10.8919130  18.0204010  82.0195610  11.1453060
   8.2273560  77.5053840   9.0559690   8.5348540  76.9500730   8.3395190
   7.2974260  77.6398300   8.8732680  13.7788620  93.2221130  11.3467150
  13.7915780  92.8183420  10.4789410  13.2263840  93.9968420  11.2428580
  15.0734040  89.9437350   6.4357320  14.9630370  89.0011680   6.5606740
  15.0702290  90.3052990   7.3220080  13.1774060  88.1250970  12.6749760
  13.5942850  87.9111080  11.8403220  13.9013880  88.3823760  13.2458380
  10.6154320  85.5702670   5.7919810   9.6883600  85.5040050   6.0208280
  10.7679140  86.5082800   5.6775050  10.6023400  81.8419670   2.7886970
   9.6627070  82.0033630   2.8739430  10.9206660  82.5605350   2.2422960
  17.1236160  86.5238190  12.7666000  16.2954790  86.5931280  12.2916130
  17.7186640  87.1092500  12.2981830  14.6451610  87.1322970   6.2955060
  14.0264030  86.7942520   5.6481360  14.6276060  86.4882730   7.0034250
  14.0878170  83.3107510  13.7120870  13.6749350  84.1361220  13.9660860
  13.3554120  82.7252550  13.5197230   6.2210960  86.0967410   8.5739540
   5.8167960  85.3844660   8.0785440   6.3074080  85.7520650   9.4627580
   6.6892660  89.7834970  10.7378750   6.3920950  89.1780440  10.0586530
   7.6392480  89.8212280  10.6268110   4.9339580  82.8710620  12.3538580
   5.4854170  82.9805960  11.5791830   5.4483090  83.2448220  13.0693810
  14.7778270  93.3566840  14.4001850  14.3008830  94.1639030  14.2074460
  14.0940060  92.7045170  14.5528060   5.7811090  89.5216660  17.3886550
   4.8839620  89.7456630  17.6359950   5.8063960  89.6451600  16.4397950
  12.8216310  86.3709780   3.3027810  13.2609590  85.5332210   3.1565630
  13.5344730  87.0039180   3.3891950   4.6082310  86.3929980  15.9643920
   4.4690080  87.2652780  16.3331320   3.7263670  86.0502790  15.8191860
  10.9311690  91.3105850   7.2709050  11.3707600  92.0530180   6.8564440
  10.8698580  91.5532420   8.1948010   6.4062660  92.3351680  18.1729070
   6.3778090  92.7394630  17.3057500   6.2427630  91.4062040  18.0100670
   2.9215590  84.9912390   6.0746190   2.8013190  85.7174480   5.4627460
   2.6116480  84.2215300   5.5974100  18.3577480  93.1178780  19.4693240
  18.8337200  93.5961670  20.1482320  18.9784640  93.0496270  18.7438740
   1.8048590  89.8627720   8.2921010   1.3976670  90.0042310   7.4374610
   2.6961600  89.5787880   8.0892220  17.7610730  90.3091630  16.6293250
  17.8873790  90.0703510  15.7110430  17.8032110  89.4776170  17.1015330
  11.6227470  94.0119630  15.1988060  12.1372140  93.9227640  16.0010490
  10.7796550  94.3579330  15.4915970  13.5981870  94.2974970   4.6272060
  13.4383010  94.0077910   5.5253890  13.4328580  93.5215100   4.0917290
   6.0770250  94.0773500   6.4043680   5.9012730  93.1609040   6.1911480
   5.2225990  94.4360790   6.6441480  13.3008000  91.8062530   3.1870060
  12.6073160  91.8039820   2.5272340  14.0430860  91.3821850   2.7564230
  12.8657930  93.4325240   7.2618550  13.3214880  92.6514620   7.5757170
  13.2050450  94.1432060   7.8059730  17.6134740  82.3624090  17.5942990
  16.9979010  82.8703760  17.0658450  17.2931160  81.4622420  17.5368930
   5.3879250  78.3347460   9.4569860   4.9447400  79.1157000   9.1254380
   5.9464240  78.6577350  10.1640800   9.6749060  81.2015980  15.0605180
   9.2128430  81.4099000  15.8725120   9.2727170  80.3875330  14.7575850
  14.6753570  82.4224930  16.1901840  13.8247160  82.1230680  16.5110910
  14.5155360  82.6666940  15.2785660  11.7703280  83.9226680  18.2900630
  12.0956690  83.0890430  17.9502860  12.5583610  84.4455200  18.4378960
   8.5038070  77.9558160   4.3375690   7.8792250  77.9518030   5.0629000
   8.4168190  77.0889120   3.9411660   7.4255150  78.8794790  11.3159460
   7.7227480  79.7857620  11.2351480   7.9740710  78.3913570  10.7019030
   5.1793470  83.4581030   7.1851110   4.9534390  83.2418200   8.0897730
   4.3986000  83.8909490   6.8397080  12.4091230  83.4644400   5.7841760
  11.8100120  84.1880200   5.6005380  12.9570840  83.4021180   5.0018210
   7.6192680  84.3566610  17.8511380   7.5236280  83.4161340  17.7011780
   8.4624660  84.5781680  17.4559450  11.0156100  82.1007940   7.8145040
  11.4085670  82.4180140   7.0013730  11.3772950  81.2219820   7.9289560
   2.7503220  80.7680280  16.0045160   2.3566610  81.6155490  16.2117940
   2.0621620  80.1306650  16.1953800   9.3248270  80.8515250  19.0741900
   8.6346590  80.6587450  19.7087990  10.0680570  81.1349890  19.6066200
  11.6011240  84.6913690  11.9095820  10.8692360  85.2000500  12.2585920
  11.2035580  83.8743670  11.6084600   8.0388630  81.3667890  10.3148310
   8.0424690  80.9257840   9.4652850   8.9339750  81.6885220  10.4220130
   3.8891010  81.2494380   9.2742520   3.5491060  81.7269610  10.0309570
   3.1268330  80.7959500   8.9143620   8.1008780  82.3679970   3.3055070
   8.2221600  82.3266450   4.2540890   7.7157290  83.2304120   3.1501800
  12.0637150  80.1447370  11.3218760  12.0809890  80.5956020  12.1660610
  11.8152730  79.2453010  11.5352200   7.1130280  84.6781110   2.7038370
   6.5447180  84.2299360   2.0774280   7.8219280  85.0373890   2.1703520
  15.4907900  77.5579550  17.1605140  15.8153670  76.8269210  17.6863120
  15.5264410  77.2393190  16.2586130   2.1899460  88.5793130  16.5805100
   1.8054250  87.9386800  17.1788060   2.5011650  89.2829250  17.1499830
   8.3396600  85.4269670  12.0613720   8.7066730  84.9528240  12.8075060
   8.1501660  86.3011240  12.4022060   6.1295970  84.4678310  14.3797930
   5.8253040  85.3470290  14.6048290   7.0842430  84.5278100  14.4155370
   4.6577760  88.6739300   4.9764780   3.8840020  88.1336920   4.8163500
   5.3872390  88.1545910   4.6382540  15.4165740  87.6704660  10.7691170
  16.1364860  88.1659950  10.3787280  15.2147560  86.9922550  10.1245040
  10.8775680  79.0642620   4.9120560  10.0640290  78.5655790   4.8365870
  10.6837630  79.9040870   4.4956910  10.7984540  87.7413720  16.6560170
  10.7321850  86.8209390  16.4017760  10.1689680  87.8389160  17.3704810
  13.5924070  83.4362270   3.2082720  14.4803690  83.7479500   3.0334060
  13.5629160  82.5634520   2.8163300   4.7015160  88.3419680   8.6143590
   5.2193830  87.5387940   8.5600480   4.2499180  88.2798820   9.4560420
   9.5884660  89.6085960   3.8870890   9.9300360  90.3528190   3.3914210
   8.7597370  89.9217080   4.2495720   2.1859700  85.3081050  15.5269290
   1.8274640  85.9734900  16.1142630   1.8914260  84.4764600  15.8981910
   5.3872820  85.7665290  18.4108840   5.0872960  85.9122470  17.5136660
   6.1584060  85.2070580  18.3182230  10.7301270  90.5634290  16.4063970
  10.7445810  89.6315250  16.1882880  10.0226370  90.6494050  17.0453740
  15.8638340  84.7474110   2.6762580  15.7802060  85.1788330   1.8259020
  16.5832530  85.2072460   3.1089400  16.9412480  87.2041630  15.7532550
  16.2160670  87.7970410  15.5561940  17.4687940  87.1965170  14.9545920
  16.8925590  91.6016370   5.4044710  16.2501750  90.9471990   5.6788430
  16.5056250  92.0071460   4.6285380  12.4712070  88.9301800   9.2516400
  12.8235890  88.3329930   8.5917770  11.5874400  88.6046030   9.4224650
   8.5575350  89.6899490   6.6586810   9.2446480  90.2368700   7.0394400
   7.7707770  90.2340220   6.6936420   7.8602560  86.6945520   6.2712170
   8.3165340  87.5050770   6.4972360   7.5090770  86.3768660   7.1030660
  10.1635170  92.2051860  13.5004470  10.8077390  92.4111240  14.1777890
  10.5264610  91.4440260  13.0475320   3.7614340  77.0383170   6.7434690
   3.6328970  77.0301070   7.6919610   2.9376360  77.3766260   6.3925700
  11.4367250  90.2084210  12.2181920  12.0789480  89.5077370  12.3314090
  11.9616600  90.9882650  12.0378810  13.2104870  91.0079110  15.4217980
  13.5461110  91.5945800  16.0995900  12.2905210  90.8771820  15.6515770
  14.8639220  88.4104770   3.6035220  14.5760920  88.8717460   4.3913100
  15.6591390  87.9502540   3.8719440   9.0393450  91.0570440  18.5906040
   8.7190320  90.3379680  19.1351730   8.3651810  91.7325510  18.6642100
   7.0807620  91.9030890   3.5339190   7.0717720  92.6360580   2.9183700
   6.1605980  91.6562470   3.6266150   2.6814260  87.1245780   4.2785950
   2.0742210  87.8644680   4.2881250   3.1563610  87.2145140   3.4524150
  12.2547050  81.2896600  13.9542840  12.6227870  80.4691810  14.2822410
  11.3945250  81.3498490  14.3698490  15.6209080  80.2453540   4.7630400
  14.9922240  80.3499210   4.0488630  15.1261000  80.4650320   5.5524280
   7.5893110  82.5239490   6.1788280   6.8809260  82.9925830   6.6201890
   7.8737590  81.8661500   6.8133470   9.2149040  83.9436190  14.1780810
   9.7134290  84.4182010  14.8432660   9.3571990  83.0199710  14.3850840
  11.6208540  79.2490150   7.6184070  11.4976320  79.2676280   6.6693580
  12.5693100  79.2969090   7.7382470   8.7085330  94.4845450   6.8912050
   8.9626830  94.4466840   5.9691420   7.7597810  94.3578780   6.8840300
   5.7928130  80.8324570   3.5538990   6.6418660  81.2694720   3.4879180
   5.4259400  81.1444830   4.3811050  16.4215900  80.1604150  15.0209200
  15.9189500  80.9009550  15.3603010  17.2372560  80.5488150  14.7045990
  14.7137910  85.4037330   8.4670560  13.7728050  85.4187560   8.6418250
  15.0281980  84.6173290   8.9130860   3.3866310  84.5182000   2.7107410
   3.4669900  83.5709510   2.8224810   4.2786060  84.8488880   2.8168070
  16.7163490  92.5746180  10.1424820  16.8410910  93.3977350  10.6148630
  17.5829050  92.3636910   9.7948970   4.1881020  94.6677390   9.8141950
   4.9243500  94.1192850  10.0850520   4.5721940  95.5333400   9.6747940
   3.1939300  93.8523460  19.0027530   3.9952030  94.1735510  19.4162930
   2.6791120  93.4919040  19.7247440  12.0303930  89.9603330  18.9502940
  11.4242090  89.9834930  18.2098690  11.7258040  89.2286370  19.4870190
  13.4604300  93.6883620  17.5612350  14.4126050  93.6041640  17.5112590
  13.3132520  94.3525330  18.2346140  16.3513500  93.0677830   3.0604260
  16.0655010  92.6542970   2.2458440  16.1533050  93.9965540   2.9404780
   7.9675050  87.7467910  17.4799100   7.2020720  88.3152910  17.3953770
   8.1491010  87.4544120  16.5867330  11.0563460  88.1231140   2.1051860
  10.5073560  88.5700440   2.7494600  11.6782720  87.6180390   2.6289530
  15.1098400  89.4773240  18.0374120  15.8507870  89.8149000  17.5341580
  14.3471080  89.6465300  17.4843890   2.9460190  84.4826510  18.8413650
   2.9865530  84.1840380  19.7498880   3.8005690  84.8834120  18.6821170
   6.7238580  87.0822060   4.0017160   7.1455000  86.9161930   4.8448550
   6.8489420  86.2722290   3.5072300   4.8866000  83.0618610  16.8088140
   4.3562460  82.5709560  16.1811480   5.5554070  83.4902810  16.2746070
  13.7844060  87.5288070  16.5729330  14.1985080  87.6833150  17.4219750
  12.8495060  87.6543290  16.7355110  14.2566230  84.8684230  18.5768480
  14.8387000  84.1136550  18.4888960  14.4328000  85.3991670  17.7999960
   5.3738300  80.0280980  16.8885430   5.2795170  79.4101730  16.1636300
   4.7935690  80.7547270  16.6615340   8.1399740  78.5854220  13.9212820
   7.6917040  78.6078480  13.0758370   7.5064940  78.1873240  14.5183120
   8.5459290  87.4808550  14.5425260   8.9647400  88.3241280  14.3701500
   7.6267920  87.6180590  14.3132040  10.8823190  85.2124730  15.9263100
  11.0019400  84.6165870  16.6657940  11.7417190  85.2494420  15.5064400
  13.2211090  85.7661920  14.5025610  12.6946310  86.2904540  13.8990750
  13.5642430  86.3989310  15.1335340   6.3966710  93.7861560  15.6582990
   5.8587800  94.5107620  15.3391690   6.6500670  93.3091900  14.8680330
   7.6491960  81.7546080  17.1838920   8.2391650  81.4461930  17.8716740
   6.8312200  81.2825830  17.3398820  12.4685390  81.3711890  17.4171940
  11.7800910  80.7093430  17.3521930  13.1891410  80.9250160  17.8620400
  13.0985790  77.9663520   3.4762200  13.3788080  77.1231420   3.8321620
  12.3251520  78.1986630   3.9900950   9.2528920  95.0212770  15.9169640
   9.1787620  95.9247910  16.2242010   8.3507760  94.7024670  15.8891710
   9.8014250  94.1871280   3.5396000  10.6965040  94.5256250   3.5614760
   9.8331880  93.4650690   2.9120280   3.4410410  89.5598330   1.7683000
   3.8785280  90.1028000   2.4240580   3.9258140  88.7345280   1.7779340
   5.2518130  90.6796370   6.8805230   4.9513670  90.5561340   7.7809140
   5.1455620  89.8204960   6.4720960  16.7808600  92.7174950  16.2462200
  16.1810590  92.7767510  15.5026120  16.9102500  91.7779930  16.3759050
  17.4766510  87.2040250   4.0866110  18.2385420  87.7736900   4.1925800
  17.4920880  86.6367450   4.8574420  18.4826480  88.0590350   8.9308040
  18.8535310  87.2757670   8.5244010  19.1228410  88.7479450   8.7525340
  15.4660240  89.4426930  14.3438360  14.6520080  89.8724090  14.6064150
  15.8734440  90.0545340  13.7307410  13.9261290  80.5219470   2.5392260
  14.3446170  80.3350450   1.6988920  13.6197350  79.6698520   2.8495190
  17.4251020  85.4343610   6.2368060  17.0494620  84.6671540   5.8049350
  16.6954140  85.8166310   6.7242990   2.0146780  86.1130750  12.8577110
   2.3819820  86.0258150  13.7373130   1.4457600  85.3497300  12.7583970
  16.8150640  84.5815130  15.8707580  16.5836730  84.3527880  14.9705530
  17.0755190  85.5014680  15.8252470  15.2538710  79.8071560  18.6487280
  16.1308890  79.8154960  19.0321280  15.2659550  79.0702400  18.0379630
  16.7001980  83.6601100   9.5375300  17.2239460  83.1663750   8.9065470
  17.2861400  83.7951460  10.2822870  16.8791700  83.7440970  13.0594850
  15.9294410  83.7104510  13.1739840  17.0604710  84.6541080  12.8244620
  16.1901950  82.9174450   5.4767710  16.6861070  82.6845320   6.2616590
  15.9918020  82.0786290   5.0605350   2.0702490  77.2988170  11.1118750
   2.7178680  76.7485550  10.6713910   2.4904330  77.5531320  11.9334560
  17.6189110  81.5535400   8.0105390  17.5088390  81.3991440   8.9487660
  18.3796700  81.0256340   7.7680800  15.9654830  77.4929530  14.4688390
  16.6027050  78.1063670  14.8347580  16.1129720  77.5290190  13.5237620
  18.5817870  80.1553980   3.8768240  17.7869370  80.0899100   4.4061150
  18.7861150  81.0904620   3.8653590  15.5236290  94.1945530   7.8706630
  16.1195360  93.8730100   7.1941050  15.7814440  93.7217350   8.6619900
   1.8234490  77.4543840  13.8544070   1.4749310  77.9107660  14.6202250
   1.4922190  76.5600970  13.9366500   3.4298860  90.6263440  18.0197260
   3.3868490  90.2556350  18.9011720   3.5609870  91.5641010  18.1599080
   7.1304890  92.1823030  13.6206980   6.8896250  92.4497590  12.7337500
   8.0707530  92.3528760  13.6757840   9.3359310  78.6455720  17.3763490
   9.2748200  79.2377550  18.1258900  10.2759690  78.5381680  17.2313750
  11.9733870  78.3025780  17.0155780  12.5874280  78.6205070  16.3536860
  12.5183430  77.8174370  17.6351640  18.3909050  94.2017410  14.4217620
  17.8967330  94.5986280  13.7044750  17.7822340  93.5766620  14.8154900
   2.4955130  76.9820040  17.1294840   3.0438120  76.8008090  16.3660950
   2.5610440  76.1914150  17.6651150   3.2686890  93.5725690  15.1395040
   2.6747210  93.4410390  15.8785080   3.2610730  92.7363830  14.6737140
  12.7141910  76.8657920  13.3425070  11.8401750  77.1993030  13.1398000
  12.6052660  76.3931100  14.1676940  13.6213890  79.0728790  14.7266790
  13.2927250  78.2580550  14.3468520  14.5696190  79.0298600  14.6032480
  16.0748500  94.8440830  11.7004360  15.6151470  95.5956640  11.3262380
  15.4460960  94.1247300  11.6419160   2.8999120  90.9384070  14.0903080
   2.1733180  90.3189360  14.0229030   2.9608270  91.3324680  13.2201160
   6.5044220  93.1529070  10.8752490   7.0209240  92.5416430  10.3500750
   7.1541600  93.6557850  11.3663500   9.2439720  94.0437560  11.7021470
   9.5317530  93.7891860  10.8254480   9.7562940  93.4914920  12.2927040
  10.4616730  77.7827760  12.2817980   9.6788520  78.2573260  12.5614740
  10.1679660  76.8782590  12.1731160  15.0137800  78.4850860  10.3267070
  15.4545890  78.4295960   9.4788670  14.7445390  79.4008870  10.3977250
  16.8776370  78.1166100   8.3375890  16.8164770  77.1727320   8.1906910
  17.6568400  78.2246190   8.8829350   1.8057140  78.0875240   4.8031700
   2.5636500  78.2004120   4.2295730   1.3434310  78.9244440   4.7575130
   8.3470950  80.2014510   7.7934010   7.5345460  79.8271400   7.4529890
   8.8512590  79.4459590   8.0955200  12.8495930  76.8656960   9.0317080
  13.4525300  77.4377170   9.5065600  12.1088920  77.4296400   8.8090980
  15.9930530  77.2678520   4.3057360  16.1881160  78.1661970   4.5724790
  15.2060400  77.0365600   4.7990310   2.7891820  92.9491690   4.7449980
   2.2639440  93.3299720   4.0411940   2.7136400  93.5742460   5.4659690
   4.1782290  78.6139290   3.3433670   4.7075050  77.8269090   3.2141620
   4.8110610  79.2930480   3.5769200   6.3720130  78.3514430   6.3979060
   5.7422870  77.6501740   6.5649190   5.8325270  79.1118560   6.1812220
   9.3112080  94.9653660  19.0689670  10.2379390  94.7297930  19.1125630
   9.2962510  95.7925660  18.5875700  17.5457140  94.5079230   6.0663920
  17.7209330  93.8216970   5.4224840  16.8478710  95.0326280   5.6740590
   6.4975690  77.6298410  18.8331550   6.2159960  78.1332010  18.0692370
   6.8795390  76.8320160  18.4673680   5.3884790  94.8974070   3.6199230
   6.1203610  94.6133350   3.0723120   5.6478460  94.6587350   4.5098610
   4.5499580  91.0138800   3.6245560   3.9208460  91.4823900   4.1731390
   4.6647410  90.1688020   4.0591750  13.0991150  77.0451990  19.4112020
  12.9856600  77.3646600  20.3063540  13.9160890  77.4464500  19.1149300
  15.8789640  94.1923520  18.8930710  16.6714960  93.6972750  18.6856670
  16.1722790  94.8713660  19.5006320  12.0049300  66.2900970 139.9694680
  11.9243350  65.3755580 139.6986390  11.5913720  66.7868040 139.2634390
  10.1367340  68.0679990 141.8503950   9.3609440  67.5880430 142.1402520
  10.7880270  67.3885640 141.6760110   4.1533170  68.3799800 142.7279710
   3.3218050  68.1248510 143.1276220   4.7614150  68.4510570 143.4637630
  14.1574770  72.4740180 140.6303080  13.6956300  71.7027420 140.9590250
  14.9700320  72.5006250 141.1355530   4.1334430  72.4139890 142.9237730
   4.4362470  71.5237630 142.7447950   4.8778020  72.9710110 142.6959980
   2.5625120  63.3401690 136.5122100   1.6741820  63.6817660 136.4101980
   2.8466310  63.1402010 135.6202930  10.3838080  74.7598190 140.2507070
   9.7649520  75.2155690 139.6801510  11.2389860  74.9149650 139.8496770
   9.5776330  70.7437180 141.8574110   9.5084610  69.8027120 141.6963240
  10.3396190  70.8338590 142.4296680   1.7683000  61.3491700 144.1830730
   1.5885840  60.4517450 144.4633490   1.3663080  61.8963570 144.8577680
  10.6081500  63.5507560 142.0843040  10.9846320  62.6779440 141.9716710
  10.5101010  63.8866260 141.1933480   4.7386510  61.9233190 137.5460480
   4.8453260  62.8236920 137.8529240   3.8278870  61.8751160 137.2555130
  14.3905620  61.0458000 139.0171380  15.2115240  60.5554570 139.0596860
  14.4239700  61.6355660 139.7703220   2.3869670  63.8452200 142.7913070
   3.0679780  64.1090570 143.4100470   2.0717720  63.0053070 143.1251080
   6.5794240  64.8919560 141.8785660   7.0872460  65.3900530 142.5190680
   7.1107480  64.1154760 141.7025020  18.6805170  63.0624750 145.5815010
  17.9757340  63.4506460 145.0630120  18.9463090  63.7575040 146.1835940
   4.8630340  59.5318120 146.1449080   4.8648780  60.0490510 145.3394980
   4.0334650  59.0548300 146.1219010  11.2501430  69.6437430 137.6438980
  10.6318700  70.1086880 137.0801700  11.7624680  70.3364910 138.0608490
   6.1133190  69.1713300 144.3222580   5.7802570  69.7982220 144.9643650
   6.2899870  69.6975180 143.5424250  14.6267100  62.9858380 141.7898920
  13.9222670  63.2743270 142.3702030  14.9879260  63.7958490 141.4298480
   4.5445670  61.2428080 144.1519530   4.8862480  62.0870130 143.8573400
   3.6061480  61.3911820 144.2684870   5.3252290  71.1394100 146.1371760
   5.9426290  71.8145180 145.8556210   4.4645410  71.5482080 146.0459260
  16.2429880  72.6033510 144.0526400  15.5593400  73.2732620 144.0443070
  16.7824170  72.8014160 143.2871260  17.6954020  62.4313170 142.1808130
  16.7478930  62.4652150 142.3123560  18.0204010  63.2452120 142.5657490
   8.2273560  58.7310350 140.4764120   8.5348540  58.1757240 139.7599620
   7.2974260  58.8654810 140.2937110  13.7788620  74.4477640 142.7671580
  13.7915780  74.0439930 141.8993840  13.2263840  75.2224930 142.6633010
  15.0734040  71.1693860 137.8561750  14.9630370  70.2268190 137.9811170
  15.0702290  71.5309500 138.7424510  13.1774060  69.3507480 144.0954190
  13.5942850  69.1367590 143.2607650  13.9013880  69.6080270 144.6662810
  10.6154320  66.7959180 137.2124240   9.6883600  66.7296560 137.4412710
  10.7679140  67.7339310 137.0979480  10.6023400  63.0676180 134.2091400
   9.6627070  63.2290140 134.2943860  10.9206660  63.7861860 133.6627390
  17.1236160  67.7494700 144.1870430  16.2954790  67.8187790 143.7120560
  17.7186640  68.3349010 143.7186260  14.6451610  68.3579480 137.7159490
  14.0264030  68.0199030 137.0685790  14.6276060  67.7139240 138.4238680
  14.0878170  64.5364020 145.1325300  13.6749350  65.3617730 145.3865290
  13.3554120  63.9509060 144.9401660   6.2210960  67.3223920 139.9943970
   5.8167960  66.6101170 139.4989870   6.3074080  66.9777160 140.8832010
   6.6892660  71.0091480 142.1583180   6.3920950  70.4036950 141.4790960
   7.6392480  71.0468790 142.0472540   4.9339580  64.0967130 143.7743010
   5.4854170  64.2062470 142.9996260   5.4483090  64.4704730 144.4898240
  14.7778270  74.5823350 145.8206280  14.3008830  75.3895540 145.6278890
  14.0940060  73.9301680 145.9732490   5.7811090  70.7473170 148.8090980
   4.8839620  70.9713140 149.0564380   5.8063960  70.8708110 147.8602380
  12.8216310  67.5966290 134.7232240  13.2609590  66.7588720 134.5770060
  13.5344730  68.2295690 134.8096380   4.6082310  67.6186490 147.3848350
   4.4690080  68.4909290 147.7535750   3.7263670  67.2759300 147.2396290
  10.9311690  72.5362360 138.6913480  11.3707600  73.2786690 138.2768870
  10.8698580  72.7788930 139.6152440   6.4062660  73.5608190 149.5933500
   6.3778090  73.9651140 148.7261930   6.2427630  72.6318550 149.4305100
  16.4033450  58.8509100 133.0373280  16.0906110  58.9435930 133.9372350
  17.1645920  59.4290130 132.9870710   2.9215590  66.2168900 137.4950620
   2.8013190  66.9430990 136.8831890   2.6116480  65.4471810 137.0178530
   1.8048590  71.0884230 139.7125440   1.3976670  71.2298820 138.8579040
   2.6961600  70.8044390 139.5096650  17.7610730  71.5348140 148.0497680
  17.8873790  71.2960020 147.1314860  17.8032110  70.7032680 148.5219760
  11.6227470  75.2376140 146.6192490  12.1372140  75.1484150 147.4214920
  10.7796550  75.5835840 146.9120400  13.5981870  75.5231480 136.0476490
  13.4383010  75.2334420 136.9458320  13.4328580  74.7471610 135.5121720
   6.0770250  75.3030010 137.8248110   5.9012730  74.3865550 137.6115910
   5.2225990  75.6617300 138.0645910  13.3008000  73.0319040 134.6074490
  12.6073160  73.0296330 133.9476770  14.0430860  72.6078360 134.1768660
  12.8657930  74.6581750 138.6822980  13.3214880  73.8771130 138.9961600
  13.2050450  75.3688570 139.2264160  17.6134740  63.5880600 149.0147420
  16.9979010  64.0960270 148.4862880  17.2931160  62.6878930 148.9573360
   5.3879250  59.5603970 140.8774290   4.9447400  60.3413510 140.5458810
   5.9464240  59.8833860 141.5845230   9.6749060  62.4272490 146.4809610
   9.2128430  62.6355510 147.2929550   9.2727170  61.6131840 146.1780280
  14.6753570  63.6481440 147.6106270  13.8247160  63.3487190 147.9315340
  14.5155360  63.8923450 146.6990090  11.7703280  65.1483190 149.7105060
  12.0956690  64.3146940 149.3707290  12.5583610  65.6711710 149.8583390
   8.5038070  59.1814670 135.7580120   7.8792250  59.1774540 136.4833430
   8.4168190  58.3145630 135.3616090   7.4255150  60.1051300 142.7363890
   7.7227480  61.0114130 142.6555910   7.9740710  59.6170080 142.1223460
   5.1793470  64.6837540 138.6055540   4.9534390  64.4674710 139.5102160
   4.3986000  65.1166000 138.2601510  12.4091230  64.6900910 137.2046190
  11.8100120  65.4136710 137.0209810  12.9570840  64.6277690 136.4222640
   7.6192680  65.5823120 149.2715810   7.5236280  64.6417850 149.1216210
   8.4624660  65.8038190 148.8763880  11.0156100  63.3264450 139.2349470
  11.4085670  63.6436650 138.4218160  11.3772950  62.4476330 139.3493990
   2.7503220  61.9936790 147.4249590   2.3566610  62.8412000 147.6322370
   2.0621620  61.3563160 147.6158230  11.6011240  65.9170200 143.3300250
  10.8692360  66.4257010 143.6790350  11.2035580  65.1000180 143.0289030
   8.0388630  62.5924400 141.7352740   8.0424690  62.1514350 140.8857280
   8.9339750  62.9141730 141.8424560   3.8891010  62.4750890 140.6946950
   3.5491060  62.9526120 141.4514000   3.1268330  62.0216010 140.3348050
   8.1008780  63.5936480 134.7259500   8.2221600  63.5522960 135.6745320
   7.7157290  64.4560630 134.5706230  12.0637150  61.3703880 142.7423190
  12.0809890  61.8212530 143.5865040  11.8152730  60.4709520 142.9556630
   7.1130280  65.9037620 134.1242800   6.5447180  65.4555870 133.4978710
   7.8219280  66.2630400 133.5907950  15.4907900  58.7836060 148.5809570
  15.8153670  58.0525720 149.1067550  15.5264410  58.4649700 147.6790560
   2.1899460  69.8049640 148.0009530   1.8054250  69.1643310 148.5992490
   2.5011650  70.5085760 148.5704260   8.3396600  66.6526180 143.4818150
   8.7066730  66.1784750 144.2279490   8.1501660  67.5267750 143.8226490
   6.1295970  65.6934820 145.8002360   5.8253040  66.5726800 146.0252720
   7.0842430  65.7534610 145.8359800   4.6577760  69.8995810 136.3969210
   3.8840020  69.3593430 136.2367930   5.3872390  69.3802420 136.0586970
  15.4165740  68.8961170 142.1895600  16.1364860  69.3916460 141.7991710
  15.2147560  68.2179060 141.5449470  10.8775680  60.2899130 136.3324990
  10.0640290  59.7912300 136.2570300  10.6837630  61.1297380 135.9161340
  10.7984540  68.9670230 148.0764600  10.7321850  68.0465900 147.8222190
  10.1689680  69.0645670 148.7909240  13.5924070  64.6618780 134.6287150
  14.4803690  64.9736010 134.4538490  13.5629160  63.7891030 134.2367730
   4.7015160  69.5676190 140.0348020   5.2193830  68.7644450 139.9804910
   4.2499180  69.5055330 140.8764850   9.5884660  70.8342470 135.3075320
   9.9300360  71.5784700 134.8118640   8.7597370  71.1473590 135.6700150
   2.1859700  66.5337560 146.9473720   1.8274640  67.1991410 147.5347060
   1.8914260  65.7021110 147.3186340   5.3872820  66.9921800 149.8313270
   5.0872960  67.1378980 148.9341090   6.1584060  66.4327090 149.7386660
  10.7301270  71.7890800 147.8268400  10.7445810  70.8571760 147.6087310
  10.0226370  71.8750560 148.4658170  15.8638340  65.9730620 134.0967010
  15.7802060  66.4044840 133.2463450  16.5832530  66.4328970 134.5293830
  16.9412480  68.4298140 147.1736980  16.2160670  69.0226920 146.9766370
  17.4687940  68.4221680 146.3750350  16.8925590  72.8272880 136.8249140
  16.2501750  72.1728500 137.0992860  16.5056250  73.2327970 136.0489810
  12.4712070  70.1558310 140.6720830  12.8235890  69.5586440 140.0122200
  11.5874400  69.8302540 140.8429080   8.5575350  70.9156000 138.0791240
   9.2446480  71.4625210 138.4598830   7.7707770  71.4596730 138.1140850
   7.8602560  67.9202030 137.6916600   8.3165340  68.7307280 137.9176790
   7.5090770  67.6025170 138.5235090  10.1635170  73.4308370 144.9208900
  10.8077390  73.6367750 145.5982320  10.5264610  72.6696770 144.4679750
   3.7614340  58.2639680 138.1639120   3.6328970  58.2557580 139.1124040
   2.9376360  58.6022770 137.8130130  11.4367250  71.4340720 143.6386350
  12.0789480  70.7333880 143.7518520  11.9616600  72.2139160 143.4583240
  15.2822970  71.7189340 133.3625490  15.0560550  71.0019780 133.9550130
  14.8919170  71.4701780 132.5247240  13.2104870  72.2335620 146.8422410
  13.5461110  72.8202310 147.5200330  12.2905210  72.1028330 147.0720200
  14.8639220  69.6361280 135.0239650  14.5760920  70.0973970 135.8117530
  15.6591390  69.1759050 135.2923870   7.0807620  73.1287400 134.9543620
   7.0717720  73.8617090 134.3388130   6.1605980  72.8818980 135.0470580
   2.6814260  68.3502290 135.6990380   2.0742210  69.0901190 135.7085680
   3.1563610  68.4401650 134.8728580  12.2547050  62.5153110 145.3747270
  12.6227870  61.6948320 145.7026840  11.3945250  62.5755000 145.7902920
  15.6209080  61.4710050 136.1834830  14.9922240  61.5755720 135.4693060
  15.1261000  61.6906830 136.9728710  10.0667220  73.1915640 133.6168810
  10.1679200  72.9879630 132.6870790   9.1668960  72.9373920 133.8216590
   7.5893110  63.7496000 137.5992710   6.8809260  64.2182340 138.0406320
   7.8737590  63.0918010 138.2337900   9.2149040  65.1692700 145.5985240
   9.7134290  65.6438520 146.2637090   9.3571990  64.2456220 145.8055270
  11.6208540  60.4746660 139.0388500  11.4976320  60.4932790 138.0898010
  12.5693100  60.5225600 139.1586900   8.7085330  75.7101960 138.3116480
   8.9626830  75.6723350 137.3895850   7.7597810  75.5835290 138.3044730
   5.7928130  62.0581080 134.9743420   6.6418660  62.4951230 134.9083610
   5.4259400  62.3701340 135.8015480  16.4215900  61.3860660 146.4413630
  15.9189500  62.1266060 146.7807440  17.2372560  61.7744660 146.1250420
  14.7137910  66.6293840 139.8874990  13.7728050  66.6444070 140.0622680
  15.0281980  65.8429800 140.3335290   4.6919550  68.3113440 133.4478950
   5.4582820  68.1994800 134.0104380   4.7694240  67.6151410 132.7955720
   3.3866310  65.7438510 134.1311840   3.4669900  64.7966020 134.2429240
   4.2786060  66.0745390 134.2372500  16.7163490  73.8002690 141.5629250
  16.8410910  74.6233860 142.0353060  17.5829050  73.5893420 141.2153400
   4.1881020  75.8933900 141.2346380   4.9243500  75.3449360 141.5054950
   4.5721940  76.7589910 141.0952370   7.2983330  75.0664210 133.0571950
   8.0911940  75.3553040 132.6053740   6.7787680  74.6356380 132.3784430
  13.4604300  74.9140130 148.9816780  14.4126050  74.8298150 148.9317020
  13.3132520  75.5781840 149.6550570  16.3513500  74.2934340 134.4808690
  16.0655010  73.8799480 133.6662870  16.1533050  75.2222050 134.3609210
   7.8160730  70.2867620 132.9214300   7.7111370  69.6719970 133.6475680
   7.6484950  69.7633510 132.1377310   7.9675050  68.9724420 148.9003530
   7.2020720  69.5409420 148.8158200   8.1491010  68.6800630 148.0071760
  11.0563460  69.3487650 133.5256290  10.5073560  69.7956950 134.1699030
  11.6782720  68.8436900 134.0493960  15.1098400  70.7029750 149.4578550
  15.8507870  71.0405510 148.9546010  14.3471080  70.8721810 148.9048320
   6.7238580  68.3078570 135.4221590   7.1455000  68.1418440 136.2652980
   6.8489420  67.4978800 134.9276730   4.8866000  64.2875120 148.2292570
   4.3562460  63.7966070 147.6015910   5.5554070  64.7159320 147.6950500
   9.2366220  67.3316180 132.6698690   9.7571880  66.6165200 132.3039840
   9.8834620  67.9702050 132.9699200  13.7844060  68.7544580 147.9933760
  14.1985080  68.9089660 148.8424180  12.8495060  68.8799800 148.1559540
  14.2566230  66.0940740 149.9972910  14.8387000  65.3393060 149.9093390
  14.4328000  66.6248180 149.2204390   5.3738300  61.2537490 148.3089860
   5.2795170  60.6358240 147.5840730   4.7935690  61.9803780 148.0819770
   8.1399740  59.8110730 145.3417250   7.6917040  59.8334990 144.4962800
   7.5064940  59.4129750 145.9387550   8.5459290  68.7065060 145.9629690
   8.9647400  69.5497790 145.7905930   7.6267920  68.8437100 145.7336470
  10.8823190  66.4381240 147.3467530  11.0019400  65.8422380 148.0862370
  11.7417190  66.4750930 146.9268830  13.2211090  66.9918430 145.9230040
  12.6946310  67.5161050 145.3195180  13.5642430  67.6245820 146.5539770
   5.6197480  64.3811800 132.3679750   5.4186540  63.5179160 132.7293090
   5.4489530  64.2945160 131.4301350   6.3966710  75.0118070 147.0787420
   5.8587800  75.7364130 146.7596120   6.6500670  74.5348410 146.2884760
   7.6491960  62.9802590 148.6043350   8.2391650  62.6718440 149.2921170
   6.8312200  62.5082340 148.7603250  12.4685390  62.5968400 148.8376370
  11.7800910  61.9349940 148.7726360  13.1891410  62.1506670 149.2824830
  13.0985790  59.1920030 134.8966630  13.3788080  58.3487930 135.2526050
  12.3251520  59.4243140 135.4105380   4.4180280  61.4812420 132.3557630
   4.7206180  61.4879850 131.4476780   5.1574870  61.1310280 132.8525290
   9.2528920  76.2469280 147.3374070   9.1787620  77.1504420 147.6446440
   8.3507760  75.9281180 147.3096140   7.6365210  60.4247040 133.3413830
   7.2887210  59.7471030 132.7616280   7.8377980  59.9636550 134.1557220
   9.8014250  75.4127790 134.9600430  10.6965040  75.7512760 134.9819190
   9.8331880  74.6907200 134.3324710   3.4410410  70.7854840 133.1887430
   3.8785280  71.3284510 133.8445010   3.9258140  69.9601790 133.1983770
   5.2518130  71.9052880 138.3009660   4.9513670  71.7817850 139.2013570
   5.1455620  71.0461470 137.8925390  16.7808600  73.9431460 147.6666630
  16.1810590  74.0024020 146.9230550  16.9102500  73.0036440 147.7963480
  18.0210050  71.6849280 133.0036340  17.1903010  71.7525930 133.4743570
  18.1981880  72.5753400 132.7003200  17.4766510  68.4296760 135.5070540
  18.2385420  68.9993410 135.6130230  17.4920880  67.8623960 136.2778850
  18.4826480  69.2846860 140.3512470  18.8535310  68.5014180 139.9448440
  19.1228410  69.9735960 140.1729770  15.4660240  70.6683440 145.7642790
  14.6520080  71.0980600 146.0268580  15.8734440  71.2801850 145.1511840
  17.5285680  68.7231130 132.6643060  17.8034520  69.6310010 132.5362280
  17.3396420  68.6593660 133.6005050  13.9261290  61.7475980 133.9596690
  14.3446170  61.5606960 133.1193350  13.6197350  60.8955030 134.2699620
  17.4251020  66.6600120 137.6572490  17.0494620  65.8928050 137.2253780
  16.6954140  67.0422820 138.1447420   2.0146780  67.3387260 144.2781540
   2.3819820  67.2514660 145.1577560   1.4457600  66.5753810 144.1788400
  16.8150640  65.8071640 147.2912010  16.5836730  65.5784390 146.3909960
  17.0755190  66.7271190 147.2456900  16.7001980  64.8857610 140.9579730
  17.2239460  64.3920260 140.3269900  17.2861400  65.0207970 141.7027300
  16.8791700  64.9697480 144.4799280  15.9294410  64.9361020 144.5944270
  17.0604710  65.8797590 144.2449050   2.7336140  63.2199160 133.5897910
   3.4427840  62.7982380 133.1045190   2.0176080  63.2874390 132.9581260
   2.3810300  59.2738490 132.6300560   3.1038430  59.8147430 132.9481780
   2.6534820  59.0001910 131.7542100  16.1901950  64.1430960 136.8972140
  16.6861070  63.9101830 137.6821020  15.9918020  63.3042800 136.4809780
   2.0702490  58.5244680 142.5323180   2.7178680  57.9742060 142.0918340
   2.4904330  58.7787830 143.3538990  17.6189110  62.7791910 139.4309820
  17.5088390  62.6247950 140.3692090  18.3796700  62.2512850 139.1885230
  15.9654830  58.7186040 145.8892820  16.6027050  59.3320180 146.2552010
  16.1129720  58.7546700 144.9442050  18.5079380  60.6099830 132.6715960
  19.4328690  60.4781010 132.4634250  18.4855170  60.6892650 133.6252410
  18.5817870  61.3810490 135.2972670  17.7869370  61.3155610 135.8265580
  18.7861150  62.3161130 135.2858020  15.5236290  75.4202040 139.2911060
  16.1195360  75.0986610 138.6145480  15.7814440  74.9473860 140.0824330
   1.8234490  58.6800350 145.2748500   1.4749310  59.1364170 146.0406680
   1.4922190  57.7857480 145.3570930   7.1304890  73.4079540 145.0411410
   6.8896250  73.6754100 144.1541930   8.0707530  73.5785270 145.0962270
   9.3359310  59.8712230 148.7967920   9.2748200  60.4634060 149.5463330
  10.2759690  59.7638190 148.6518180  11.9733870  59.5282290 148.4360210
  12.5874280  59.8461580 147.7741290  12.5183430  59.0430880 149.0556070
  18.3909050  75.4273920 145.8422050  17.8967330  75.8242790 145.1249180
  17.7822340  74.8023130 146.2359330   2.4955130  58.2076550 148.5499270
   3.0438120  58.0264600 147.7865380   2.5610440  57.4170660 149.0855580
   3.2686890  74.7982200 146.5599470   2.6747210  74.6666900 147.2989510
   3.2610730  73.9620340 146.0941570  12.7141910  58.0914430 144.7629500
  11.8401750  58.4249540 144.5602430  12.6052660  57.6187610 145.5881370
  13.6213890  60.2985300 146.1471220  13.2927250  59.4837060 145.7672950
  14.5696190  60.2555110 146.0236910  16.0748500  76.0697340 143.1208790
  15.6151470  76.8213150 142.7466810  15.4460960  75.3503810 143.0623590
   2.8999120  72.1640580 145.5107510   2.1733180  71.5445870 145.4433460
   2.9608270  72.5581190 144.6405590   6.5044220  74.3785580 142.2956920
   7.0209240  73.7672940 141.7705180   7.1541600  74.8814360 142.7867930
   9.2439720  75.2694070 143.1225900   9.5317530  75.0148370 142.2458910
   9.7562940  74.7171430 143.7131470  10.4616730  59.0084270 143.7022410
   9.6788520  59.4829770 143.9819170  10.1679660  58.1039100 143.5935590
  15.0137800  59.7107370 141.7471500  15.4545890  59.6552470 140.8993100
  14.7445390  60.6265380 141.8181680  16.8776370  59.3422610 139.7580320
  16.8164770  58.3983830 139.6111340  17.6568400  59.4502700 140.3033780
   1.8057140  59.3131750 136.2236130   2.5636500  59.4260630 135.6500160
   1.3434310  60.1500950 136.1779560   8.3470950  61.4271020 139.2138440
   7.5345460  61.0527910 138.8734320   8.8512590  60.6716100 139.5159630
  12.8495930  58.0913470 140.4521510  13.4525300  58.6633680 140.9270030
  12.1088920  58.6552910 140.2295410  15.9930530  58.4935030 135.7261790
  16.1881160  59.3918480 135.9929220  15.2060400  58.2622110 136.2194740
   2.7891820  74.1748200 136.1654410   2.2639440  74.5556230 135.4616370
   2.7136400  74.7998970 136.8864120   4.1782290  59.8395800 134.7638100
   4.7075050  59.0525600 134.6346050   4.8110610  60.5186990 134.9973630
   6.3720130  59.5770940 137.8183490   5.7422870  58.8758250 137.9853620
   5.8325270  60.3375070 137.6016650  17.5457140  75.7335740 137.4868350
  17.7209330  75.0473480 136.8429270  16.8478710  76.2582790 137.0945020
   5.3884790  76.1230580 135.0403660   6.1203610  75.8389860 134.4927550
   5.6478460  75.8843860 135.9303040   4.5499580  72.2395310 135.0449990
   3.9208460  72.7080410 135.5935820   4.6647410  71.3944530 135.4796180
  12.0049300  66.2900970 121.1951190  11.9243350  65.3755580 120.9242900
  11.5913720  66.7868040 120.4890900  10.1367340  68.0679990 123.0760460
   9.3609440  67.5880430 123.3659030  10.7880270  67.3885640 122.9016620
   4.1533170  68.3799800 123.9536220   3.3218050  68.1248510 124.3532730
   4.7614150  68.4510570 124.6894140  14.1574770  72.4740180 121.8559590
  13.6956300  71.7027420 122.1846760  14.9700320  72.5006250 122.3612040
   4.1334430  72.4139890 124.1494240   4.4362470  71.5237630 123.9704460
   4.8778020  72.9710110 123.9216490   2.5625120  63.3401690 117.7378610
   1.6741820  63.6817660 117.6358490   2.8466310  63.1402010 116.8459440
  10.3838080  74.7598190 121.4763580   9.7649520  75.2155690 120.9058020
  11.2389860  74.9149650 121.0753280   9.5776330  70.7437180 123.0830620
   9.5084610  69.8027120 122.9219750  10.3396190  70.8338590 123.6553190
   1.7683000  61.3491700 125.4087240   1.5885840  60.4517450 125.6890000
   1.3663080  61.8963570 126.0834190  10.6081500  63.5507560 123.3099550
  10.9846320  62.6779440 123.1973220  10.5101010  63.8866260 122.4189990
   4.7386510  61.9233190 118.7716990   4.8453260  62.8236920 119.0785750
   3.8278870  61.8751160 118.4811640  14.3905620  61.0458000 120.2427890
  15.2115240  60.5554570 120.2853370  14.4239700  61.6355660 120.9959730
   2.3869670  63.8452200 124.0169580   3.0679780  64.1090570 124.6356980
   2.0717720  63.0053070 124.3507590   6.5794240  64.8919560 123.1042170
   7.0872460  65.3900530 123.7447190   7.1107480  64.1154760 122.9281530
  18.6805170  63.0624750 126.8071520  17.9757340  63.4506460 126.2886630
  18.9463090  63.7575040 127.4092450   4.8630340  59.5318120 127.3705590
   4.8648780  60.0490510 126.5651490   4.0334650  59.0548300 127.3475520
  11.2501430  69.6437430 118.8695490  10.6318700  70.1086880 118.3058210
  11.7624680  70.3364910 119.2865000   6.1133190  69.1713300 125.5479090
   5.7802570  69.7982220 126.1900160   6.2899870  69.6975180 124.7680760
  14.6267100  62.9858380 123.0155430  13.9222670  63.2743270 123.5958540
  14.9879260  63.7958490 122.6554990   4.5445670  61.2428080 125.3776040
   4.8862480  62.0870130 125.0829910   3.6061480  61.3911820 125.4941380
   5.3252290  71.1394100 127.3628270   5.9426290  71.8145180 127.0812720
   4.4645410  71.5482080 127.2715770  16.2429880  72.6033510 125.2782910
  15.5593400  73.2732620 125.2699580  16.7824170  72.8014160 124.5127770
  17.6954020  62.4313170 123.4064640  16.7478930  62.4652150 123.5380070
  18.0204010  63.2452120 123.7914000   8.2273560  58.7310350 121.7020630
   8.5348540  58.1757240 120.9856130   7.2974260  58.8654810 121.5193620
  13.7788620  74.4477640 123.9928090  13.7915780  74.0439930 123.1250350
  13.2263840  75.2224930 123.8889520  15.0734040  71.1693860 119.0818260
  14.9630370  70.2268190 119.2067680  15.0702290  71.5309500 119.9681020
  13.1774060  69.3507480 125.3210700  13.5942850  69.1367590 124.4864160
  13.9013880  69.6080270 125.8919320  10.6154320  66.7959180 118.4380750
   9.6883600  66.7296560 118.6669220  10.7679140  67.7339310 118.3235990
  10.6023400  63.0676180 115.4347910   9.6627070  63.2290140 115.5200370
  10.9206660  63.7861860 114.8883900  17.1236160  67.7494700 125.4126940
  16.2954790  67.8187790 124.9377070  17.7186640  68.3349010 124.9442770
  14.6451610  68.3579480 118.9416000  14.0264030  68.0199030 118.2942300
  14.6276060  67.7139240 119.6495190  14.0878170  64.5364020 126.3581810
  13.6749350  65.3617730 126.6121800  13.3554120  63.9509060 126.1658170
   6.2210960  67.3223920 121.2200480   5.8167960  66.6101170 120.7246380
   6.3074080  66.9777160 122.1088520   6.6892660  71.0091480 123.3839690
   6.3920950  70.4036950 122.7047470   7.6392480  71.0468790 123.2729050
   4.9339580  64.0967130 124.9999520   5.4854170  64.2062470 124.2252770
   5.4483090  64.4704730 125.7154750  14.7778270  74.5823350 127.0462790
  14.3008830  75.3895540 126.8535400  14.0940060  73.9301680 127.1989000
   5.7811090  70.7473170 130.0347490   4.8839620  70.9713140 130.2820890
   5.8063960  70.8708110 129.0858890  12.8216310  67.5966290 115.9488750
  13.2609590  66.7588720 115.8026570  13.5344730  68.2295690 116.0352890
   4.6082310  67.6186490 128.6104860   4.4690080  68.4909290 128.9792260
   3.7263670  67.2759300 128.4652800  10.9311690  72.5362360 119.9169990
  11.3707600  73.2786690 119.5025380  10.8698580  72.7788930 120.8408950
   6.4062660  73.5608190 130.8190010   6.3778090  73.9651140 129.9518440
   6.2427630  72.6318550 130.6561610  16.4033450  58.8509100 114.2629790
  16.0906110  58.9435930 115.1628860  17.1645920  59.4290130 114.2127220
   2.9215590  66.2168900 118.7207130   2.8013190  66.9430990 118.1088400
   2.6116480  65.4471810 118.2435040  18.3577480  74.3435290 132.1154180
  18.8337200  74.8218180 132.7943260  18.9784640  74.2752780 131.3899680
   1.8048590  71.0884230 120.9381950   1.3976670  71.2298820 120.0835550
   2.6961600  70.8044390 120.7353160  17.7610730  71.5348140 129.2754190
  17.8873790  71.2960020 128.3571370  17.8032110  70.7032680 129.7476270
  11.6227470  75.2376140 127.8449000  12.1372140  75.1484150 128.6471430
  10.7796550  75.5835840 128.1376910  13.5981870  75.5231480 117.2733000
  13.4383010  75.2334420 118.1714830  13.4328580  74.7471610 116.7378230
   6.0770250  75.3030010 119.0504620   5.9012730  74.3865550 118.8372420
   5.2225990  75.6617300 119.2902420  13.3008000  73.0319040 115.8331000
  12.6073160  73.0296330 115.1733280  14.0430860  72.6078360 115.4025170
  12.8657930  74.6581750 119.9079490  13.3214880  73.8771130 120.2218110
  13.2050450  75.3688570 120.4520670  17.6134740  63.5880600 130.2403930
  16.9979010  64.0960270 129.7119390  17.2931160  62.6878930 130.1829870
   5.3879250  59.5603970 122.1030800   4.9447400  60.3413510 121.7715320
   5.9464240  59.8833860 122.8101740   9.6749060  62.4272490 127.7066120
   9.2128430  62.6355510 128.5186060   9.2727170  61.6131840 127.4036790
  14.6753570  63.6481440 128.8362780  13.8247160  63.3487190 129.1571850
  14.5155360  63.8923450 127.9246600  11.7703280  65.1483190 130.9361570
  12.0956690  64.3146940 130.5963800  12.5583610  65.6711710 131.0839900
   8.5038070  59.1814670 116.9836630   7.8792250  59.1774540 117.7089940
   8.4168190  58.3145630 116.5872600   7.4255150  60.1051300 123.9620400
   7.7227480  61.0114130 123.8812420   7.9740710  59.6170080 123.3479970
   5.1793470  64.6837540 119.8312050   4.9534390  64.4674710 120.7358670
   4.3986000  65.1166000 119.4858020  12.4091230  64.6900910 118.4302700
  11.8100120  65.4136710 118.2466320  12.9570840  64.6277690 117.6479150
   7.6192680  65.5823120 130.4972320   7.5236280  64.6417850 130.3472720
   8.4624660  65.8038190 130.1020390  11.0156100  63.3264450 120.4605980
  11.4085670  63.6436650 119.6474670  11.3772950  62.4476330 120.5750500
   2.7503220  61.9936790 128.6506100   2.3566610  62.8412000 128.8578880
   2.0621620  61.3563160 128.8414740   9.3248270  62.0771760 131.7202840
   8.6346590  61.8843960 132.3548930  10.0680570  62.3606400 132.2527140
  11.6011240  65.9170200 124.5556760  10.8692360  66.4257010 124.9046860
  11.2035580  65.1000180 124.2545540   8.0388630  62.5924400 122.9609250
   8.0424690  62.1514350 122.1113790   8.9339750  62.9141730 123.0681070
   3.8891010  62.4750890 121.9203460   3.5491060  62.9526120 122.6770510
   3.1268330  62.0216010 121.5604560   8.1008780  63.5936480 115.9516010
   8.2221600  63.5522960 116.9001830   7.7157290  64.4560630 115.7962740
  12.0637150  61.3703880 123.9679700  12.0809890  61.8212530 124.8121550
  11.8152730  60.4709520 124.1813140   7.1130280  65.9037620 115.3499310
   6.5447180  65.4555870 114.7235220   7.8219280  66.2630400 114.8164460
  15.4907900  58.7836060 129.8066080  15.8153670  58.0525720 130.3324060
  15.5264410  58.4649700 128.9047070   2.1899460  69.8049640 129.2266040
   1.8054250  69.1643310 129.8249000   2.5011650  70.5085760 129.7960770
   8.3396600  66.6526180 124.7074660   8.7066730  66.1784750 125.4536000
   8.1501660  67.5267750 125.0483000   6.1295970  65.6934820 127.0258870
   5.8253040  66.5726800 127.2509230   7.0842430  65.7534610 127.0616310
   4.6577760  69.8995810 117.6225720   3.8840020  69.3593430 117.4624440
   5.3872390  69.3802420 117.2843480  15.4165740  68.8961170 123.4152110
  16.1364860  69.3916460 123.0248220  15.2147560  68.2179060 122.7705980
  10.8775680  60.2899130 117.5581500  10.0640290  59.7912300 117.4826810
  10.6837630  61.1297380 117.1417850  10.7984540  68.9670230 129.3021110
  10.7321850  68.0465900 129.0478700  10.1689680  69.0645670 130.0165750
  13.5924070  64.6618780 115.8543660  14.4803690  64.9736010 115.6795000
  13.5629160  63.7891030 115.4624240   4.7015160  69.5676190 121.2604530
   5.2193830  68.7644450 121.2061420   4.2499180  69.5055330 122.1021360
   9.5884660  70.8342470 116.5331830   9.9300360  71.5784700 116.0375150
   8.7597370  71.1473590 116.8956660   2.1859700  66.5337560 128.1730230
   1.8274640  67.1991410 128.7603570   1.8914260  65.7021110 128.5442850
   5.3872820  66.9921800 131.0569780   5.0872960  67.1378980 130.1597600
   6.1584060  66.4327090 130.9643170  10.7301270  71.7890800 129.0524910
  10.7445810  70.8571760 128.8343820  10.0226370  71.8750560 129.6914680
  15.8638340  65.9730620 115.3223520  15.7802060  66.4044840 114.4719960
  16.5832530  66.4328970 115.7550340  16.9412480  68.4298140 128.3993490
  16.2160670  69.0226920 128.2022880  17.4687940  68.4221680 127.6006860
  16.8925590  72.8272880 118.0505650  16.2501750  72.1728500 118.3249370
  16.5056250  73.2327970 117.2746320  12.4712070  70.1558310 121.8977340
  12.8235890  69.5586440 121.2378710  11.5874400  69.8302540 122.0685590
   8.5575350  70.9156000 119.3047750   9.2446480  71.4625210 119.6855340
   7.7707770  71.4596730 119.3397360   7.8602560  67.9202030 118.9173110
   8.3165340  68.7307280 119.1433300   7.5090770  67.6025170 119.7491600
  10.1635170  73.4308370 126.1465410  10.8077390  73.6367750 126.8238830
  10.5264610  72.6696770 125.6936260   3.7614340  58.2639680 119.3895630
   3.6328970  58.2557580 120.3380550   2.9376360  58.6022770 119.0386640
  11.4367250  71.4340720 124.8642860  12.0789480  70.7333880 124.9775030
  11.9616600  72.2139160 124.6839750  15.2822970  71.7189340 114.5882000
  15.0560550  71.0019780 115.1806640  14.8919170  71.4701780 113.7503750
  13.2104870  72.2335620 128.0678920  13.5461110  72.8202310 128.7456840
  12.2905210  72.1028330 128.2976710  14.8639220  69.6361280 116.2496160
  14.5760920  70.0973970 117.0374040  15.6591390  69.1759050 116.5180380
   9.0393450  72.2826950 131.2366980   8.7190320  71.5636190 131.7812670
   8.3651810  72.9582020 131.3103040   7.0807620  73.1287400 116.1800130
   7.0717720  73.8617090 115.5644640   6.1605980  72.8818980 116.2727090
   2.6814260  68.3502290 116.9246890   2.0742210  69.0901190 116.9342190
   3.1563610  68.4401650 116.0985090  12.2547050  62.5153110 126.6003780
  12.6227870  61.6948320 126.9283350  11.3945250  62.5755000 127.0159430
  15.6209080  61.4710050 117.4091340  14.9922240  61.5755720 116.6949570
  15.1261000  61.6906830 118.1985220  10.0667220  73.1915640 114.8425320
  10.1679200  72.9879630 113.9127300   9.1668960  72.9373920 115.0473100
   7.5893110  63.7496000 118.8249220   6.8809260  64.2182340 119.2662830
   7.8737590  63.0918010 119.4594410   9.2149040  65.1692700 126.8241750
   9.7134290  65.6438520 127.4893600   9.3571990  64.2456220 127.0311780
  11.6208540  60.4746660 120.2645010  11.4976320  60.4932790 119.3154520
  12.5693100  60.5225600 120.3843410   8.7085330  75.7101960 119.5372990
   8.9626830  75.6723350 118.6152360   7.7597810  75.5835290 119.5301240
   5.7928130  62.0581080 116.1999930   6.6418660  62.4951230 116.1340120
   5.4259400  62.3701340 117.0271990  16.4215900  61.3860660 127.6670140
  15.9189500  62.1266060 128.0063950  17.2372560  61.7744660 127.3506930
  14.7137910  66.6293840 121.1131500  13.7728050  66.6444070 121.2879190
  15.0281980  65.8429800 121.5591800   4.6919550  68.3113440 114.6735460
   5.4582820  68.1994800 115.2360890   4.7694240  67.6151410 114.0212230
   3.3866310  65.7438510 115.3568350   3.4669900  64.7966020 115.4685750
   4.2786060  66.0745390 115.4629010  16.7163490  73.8002690 122.7885760
  16.8410910  74.6233860 123.2609570  17.5829050  73.5893420 122.4409910
   4.1881020  75.8933900 122.4602890   4.9243500  75.3449360 122.7311460
   4.5721940  76.7589910 122.3208880   3.1939300  75.0779970 131.6488470
   3.9952030  75.3992020 132.0623870   2.6791120  74.7175550 132.3708380
   7.2983330  75.0664210 114.2828460   8.0911940  75.3553040 113.8310250
   6.7787680  74.6356380 113.6040940  12.0303930  71.1859840 131.5963880
  11.4242090  71.2091440 130.8559630  11.7258040  70.4542880 132.1331130
  13.4604300  74.9140130 130.2073290  14.4126050  74.8298150 130.1573530
  13.3132520  75.5781840 130.8807080  16.3513500  74.2934340 115.7065200
  16.0655010  73.8799480 114.8919380  16.1533050  75.2222050 115.5865720
   7.8160730  70.2867620 114.1470810   7.7111370  69.6719970 114.8732190
   7.6484950  69.7633510 113.3633820   7.9675050  68.9724420 130.1260040
   7.2020720  69.5409420 130.0414710   8.1491010  68.6800630 129.2328270
  11.0563460  69.3487650 114.7512800  10.5073560  69.7956950 115.3955540
  11.6782720  68.8436900 115.2750470  15.1098400  70.7029750 130.6835060
  15.8507870  71.0405510 130.1802520  14.3471080  70.8721810 130.1304830
   2.9460190  65.7083020 131.4874590   2.9865530  65.4096890 132.3959820
   3.8005690  66.1090630 131.3282110   6.7238580  68.3078570 116.6478100
   7.1455000  68.1418440 117.4909490   6.8489420  67.4978800 116.1533240
   4.8866000  64.2875120 129.4549080   4.3562460  63.7966070 128.8272420
   5.5554070  64.7159320 128.9207010   9.2366220  67.3316180 113.8955200
   9.7571880  66.6165200 113.5296350   9.8834620  67.9702050 114.1955710
  13.7844060  68.7544580 129.2190270  14.1985080  68.9089660 130.0680690
  12.8495060  68.8799800 129.3816050  14.2566230  66.0940740 131.2229420
  14.8387000  65.3393060 131.1349900  14.4328000  66.6248180 130.4460900
   5.3738300  61.2537490 129.5346370   5.2795170  60.6358240 128.8097240
   4.7935690  61.9803780 129.3076280   8.1399740  59.8110730 126.5673760
   7.6917040  59.8334990 125.7219310   7.5064940  59.4129750 127.1644060
   8.5459290  68.7065060 127.1886200   8.9647400  69.5497790 127.0162440
   7.6267920  68.8437100 126.9592980  10.8823190  66.4381240 128.5724040
  11.0019400  65.8422380 129.3118880  11.7417190  66.4750930 128.1525340
  13.2211090  66.9918430 127.1486550  12.6946310  67.5161050 126.5451690
  13.5642430  67.6245820 127.7796280   5.6197480  64.3811800 113.5936260
   5.4186540  63.5179160 113.9549600   5.4489530  64.2945160 112.6557860
   6.3966710  75.0118070 128.3043930   5.8587800  75.7364130 127.9852630
   6.6500670  74.5348410 127.5141270   7.6491960  62.9802590 129.8299860
   8.2391650  62.6718440 130.5177680   6.8312200  62.5082340 129.9859760
  12.4685390  62.5968400 130.0632880  11.7800910  61.9349940 129.9982870
  13.1891410  62.1506670 130.5081340  13.0985790  59.1920030 116.1223140
  13.3788080  58.3487930 116.4782560  12.3251520  59.4243140 116.6361890
   4.4180280  61.4812420 113.5814140   4.7206180  61.4879850 112.6733290
   5.1574870  61.1310280 114.0781800   9.2528920  76.2469280 128.5630580
   9.1787620  77.1504420 128.8702950   8.3507760  75.9281180 128.5352650
   7.6365210  60.4247040 114.5670340   7.2887210  59.7471030 113.9872790
   7.8377980  59.9636550 115.3813730   9.8014250  75.4127790 116.1856940
  10.6965040  75.7512760 116.2075700   9.8331880  74.6907200 115.5581220
   3.4410410  70.7854840 114.4143940   3.8785280  71.3284510 115.0701520
   3.9258140  69.9601790 114.4240280   5.2518130  71.9052880 119.5266170
   4.9513670  71.7817850 120.4270080   5.1455620  71.0461470 119.1181900
  16.7808600  73.9431460 128.8923140  16.1810590  74.0024020 128.1487060
  16.9102500  73.0036440 129.0219990  18.0210050  71.6849280 114.2292850
  17.1903010  71.7525930 114.7000080  18.1981880  72.5753400 113.9259710
  17.4766510  68.4296760 116.7327050  18.2385420  68.9993410 116.8386740
  17.4920880  67.8623960 117.5035360  18.4826480  69.2846860 121.5768980
  18.8535310  68.5014180 121.1704950  19.1228410  69.9735960 121.3986280
  15.4660240  70.6683440 126.9899300  14.6520080  71.0980600 127.2525090
  15.8734440  71.2801850 126.3768350  17.5285680  68.7231130 113.8899570
  17.8034520  69.6310010 113.7618790  17.3396420  68.6593660 114.8261560
  13.9261290  61.7475980 115.1853200  14.3446170  61.5606960 114.3449860
  13.6197350  60.8955030 115.4956130  17.4251020  66.6600120 118.8829000
  17.0494620  65.8928050 118.4510290  16.6954140  67.0422820 119.3703930
   2.0146780  67.3387260 125.5038050   2.3819820  67.2514660 126.3834070
   1.4457600  66.5753810 125.4044910  16.8150640  65.8071640 128.5168520
  16.5836730  65.5784390 127.6166470  17.0755190  66.7271190 128.4713410
  15.2538710  61.0328070 131.2948220  16.1308890  61.0411470 131.6782220
  15.2659550  60.2958910 130.6840570  16.7001980  64.8857610 122.1836240
  17.2239460  64.3920260 121.5526410  17.2861400  65.0207970 122.9283810
  16.8791700  64.9697480 125.7055790  15.9294410  64.9361020 125.8200780
  17.0604710  65.8797590 125.4705560   2.7336140  63.2199160 114.8154420
   3.4427840  62.7982380 114.3301700   2.0176080  63.2874390 114.1837770
   2.3810300  59.2738490 113.8557070   3.1038430  59.8147430 114.1738290
   2.6534820  59.0001910 112.9798610  16.1901950  64.1430960 118.1228650
  16.6861070  63.9101830 118.9077530  15.9918020  63.3042800 117.7066290
   2.0702490  58.5244680 123.7579690   2.7178680  57.9742060 123.3174850
   2.4904330  58.7787830 124.5795500  17.6189110  62.7791910 120.6566330
  17.5088390  62.6247950 121.5948600  18.3796700  62.2512850 120.4141740
  15.9654830  58.7186040 127.1149330  16.6027050  59.3320180 127.4808520
  16.1129720  58.7546700 126.1698560  18.5079380  60.6099830 113.8972470
  19.4328690  60.4781010 113.6890760  18.4855170  60.6892650 114.8508920
  18.5817870  61.3810490 116.5229180  17.7869370  61.3155610 117.0522090
  18.7861150  62.3161130 116.5114530  15.5236290  75.4202040 120.5167570
  16.1195360  75.0986610 119.8401990  15.7814440  74.9473860 121.3080840
   1.8234490  58.6800350 126.5005010   1.4749310  59.1364170 127.2663190
   1.4922190  57.7857480 126.5827440   3.4298860  71.8519950 130.6658200
   3.3868490  71.4812860 131.5472660   3.5609870  72.7897520 130.8060020
   7.1304890  73.4079540 126.2667920   6.8896250  73.6754100 125.3798440
   8.0707530  73.5785270 126.3218780   9.3359310  59.8712230 130.0224430
   9.2748200  60.4634060 130.7719840  10.2759690  59.7638190 129.8774690
  11.9733870  59.5282290 129.6616720  12.5874280  59.8461580 128.9997800
  12.5183430  59.0430880 130.2812580  18.3909050  75.4273920 127.0678560
  17.8967330  75.8242790 126.3505690  17.7822340  74.8023130 127.4615840
   2.4955130  58.2076550 129.7755780   3.0438120  58.0264600 129.0121890
   2.5610440  57.4170660 130.3112090   3.2686890  74.7982200 127.7855980
   2.6747210  74.6666900 128.5246020   3.2610730  73.9620340 127.3198080
  12.7141910  58.0914430 125.9886010  11.8401750  58.4249540 125.7858940
  12.6052660  57.6187610 126.8137880  13.6213890  60.2985300 127.3727730
  13.2927250  59.4837060 126.9929460  14.5696190  60.2555110 127.2493420
  16.0748500  76.0697340 124.3465300  15.6151470  76.8213150 123.9723320
  15.4460960  75.3503810 124.2880100   2.8999120  72.1640580 126.7364020
   2.1733180  71.5445870 126.6689970   2.9608270  72.5581190 125.8662100
   6.5044220  74.3785580 123.5213430   7.0209240  73.7672940 122.9961690
   7.1541600  74.8814360 124.0124440   9.2439720  75.2694070 124.3482410
   9.5317530  75.0148370 123.4715420   9.7562940  74.7171430 124.9387980
  10.4616730  59.0084270 124.9278920   9.6788520  59.4829770 125.2075680
  10.1679660  58.1039100 124.8192100  15.0137800  59.7107370 122.9728010
  15.4545890  59.6552470 122.1249610  14.7445390  60.6265380 123.0438190
  16.8776370  59.3422610 120.9836830  16.8164770  58.3983830 120.8367850
  17.6568400  59.4502700 121.5290290   1.8057140  59.3131750 117.4492640
   2.5636500  59.4260630 116.8756670   1.3434310  60.1500950 117.4036070
   8.3470950  61.4271020 120.4394950   7.5345460  61.0527910 120.0990830
   8.8512590  60.6716100 120.7416140  12.8495930  58.0913470 121.6778020
  13.4525300  58.6633680 122.1526540  12.1088920  58.6552910 121.4551920
  15.9930530  58.4935030 116.9518300  16.1881160  59.3918480 117.2185730
  15.2060400  58.2622110 117.4451250   2.7891820  74.1748200 117.3910920
   2.2639440  74.5556230 116.6872880   2.7136400  74.7998970 118.1120630
   4.1782290  59.8395800 115.9894610   4.7075050  59.0525600 115.8602560
   4.8110610  60.5186990 116.2230140   6.3720130  59.5770940 119.0440000
   5.7422870  58.8758250 119.2110130   5.8325270  60.3375070 118.8273160
   9.3112080  76.1910170 131.7150610  10.2379390  75.9554440 131.7586570
   9.2962510  77.0182170 131.2336640  17.5457140  75.7335740 118.7124860
  17.7209330  75.0473480 118.0685780  16.8478710  76.2582790 118.3201530
   6.4975690  58.8554920 131.4792490   6.2159960  59.3588520 130.7153310
   6.8795390  58.0576670 131.1134620   5.3884790  76.1230580 116.2660170
   6.1203610  75.8389860 115.7184060   5.6478460  75.8843860 117.1559550
   4.5499580  72.2395310 116.2706500   3.9208460  72.7080410 116.8192330
   4.6647410  71.3944530 116.7052690  13.0991150  58.2708500 132.0572960
  12.9856600  58.5903110 132.9524480  13.9160890  58.6721010 131.7610240
  15.8789640  75.4180030 131.5391650  16.6714960  74.9229260 131.3317610
  16.1722790  76.0970170 132.1467260  12.0049300  66.2900970 102.4207700
  11.9243350  65.3755580 102.1499410  11.5913720  66.7868040 101.7147410
  10.1367340  68.0679990 104.3016970   9.3609440  67.5880430 104.5915540
  10.7880270  67.3885640 104.1273130   4.1533170  68.3799800 105.1792730
   3.3218050  68.1248510 105.5789240   4.7614150  68.4510570 105.9150650
  14.1574770  72.4740180 103.0816100  13.6956300  71.7027420 103.4103270
  14.9700320  72.5006250 103.5868550   4.1334430  72.4139890 105.3750750
   4.4362470  71.5237630 105.1960970   4.8778020  72.9710110 105.1473000
   2.5625120  63.3401690  98.9635120   1.6741820  63.6817660  98.8615000
   2.8466310  63.1402010  98.0715950  10.3838080  74.7598190 102.7020090
   9.7649520  75.2155690 102.1314530  11.2389860  74.9149650 102.3009790
   9.5776330  70.7437180 104.3087130   9.5084610  69.8027120 104.1476260
  10.3396190  70.8338590 104.8809700   1.7683000  61.3491700 106.6343750
   1.5885840  60.4517450 106.9146510   1.3663080  61.8963570 107.3090700
  10.6081500  63.5507560 104.5356060  10.9846320  62.6779440 104.4229730
  10.5101010  63.8866260 103.6446500   4.7386510  61.9233190  99.9973500
   4.8453260  62.8236920 100.3042260   3.8278870  61.8751160  99.7068150
  14.3905620  61.0458000 101.4684400  15.2115240  60.5554570 101.5109880
  14.4239700  61.6355660 102.2216240   2.3869670  63.8452200 105.2426090
   3.0679780  64.1090570 105.8613490   2.0717720  63.0053070 105.5764100
   6.5794240  64.8919560 104.3298680   7.0872460  65.3900530 104.9703700
   7.1107480  64.1154760 104.1538040  18.6805170  63.0624750 108.0328030
  17.9757340  63.4506460 107.5143140  18.9463090  63.7575040 108.6348960
   4.8630340  59.5318120 108.5962100   4.8648780  60.0490510 107.7908000
   4.0334650  59.0548300 108.5732030  11.2501430  69.6437430 100.0952000
  10.6318700  70.1086880  99.5314720  11.7624680  70.3364910 100.5121510
   6.1133190  69.1713300 106.7735600   5.7802570  69.7982220 107.4156670
   6.2899870  69.6975180 105.9937270  14.6267100  62.9858380 104.2411940
  13.9222670  63.2743270 104.8215050  14.9879260  63.7958490 103.8811500
   4.5445670  61.2428080 106.6032550   4.8862480  62.0870130 106.3086420
   3.6061480  61.3911820 106.7197890   5.3252290  71.1394100 108.5884780
   5.9426290  71.8145180 108.3069230   4.4645410  71.5482080 108.4972280
  16.2429880  72.6033510 106.5039420  15.5593400  73.2732620 106.4956090
  16.7824170  72.8014160 105.7384280  17.6954020  62.4313170 104.6321150
  16.7478930  62.4652150 104.7636580  18.0204010  63.2452120 105.0170510
   8.2273560  58.7310350 102.9277140   8.5348540  58.1757240 102.2112640
   7.2974260  58.8654810 102.7450130  13.7788620  74.4477640 105.2184600
  13.7915780  74.0439930 104.3506860  13.2263840  75.2224930 105.1146030
  15.0734040  71.1693860 100.3074770  14.9630370  70.2268190 100.4324190
  15.0702290  71.5309500 101.1937530  13.1774060  69.3507480 106.5467210
  13.5942850  69.1367590 105.7120670  13.9013880  69.6080270 107.1175830
  10.6154320  66.7959180  99.6637260   9.6883600  66.7296560  99.8925730
  10.7679140  67.7339310  99.5492500  10.6023400  63.0676180  96.6604420
   9.6627070  63.2290140  96.7456880  10.9206660  63.7861860  96.1140410
  17.1236160  67.7494700 106.6383450  16.2954790  67.8187790 106.1633580
  17.7186640  68.3349010 106.1699280  14.6451610  68.3579480 100.1672510
  14.0264030  68.0199030  99.5198810  14.6276060  67.7139240 100.8751700
  14.0878170  64.5364020 107.5838320  13.6749350  65.3617730 107.8378310
  13.3554120  63.9509060 107.3914680   6.2210960  67.3223920 102.4456990
   5.8167960  66.6101170 101.9502890   6.3074080  66.9777160 103.3345030
   6.6892660  71.0091480 104.6096200   6.3920950  70.4036950 103.9303980
   7.6392480  71.0468790 104.4985560   4.9339580  64.0967130 106.2256030
   5.4854170  64.2062470 105.4509280   5.4483090  64.4704730 106.9411260
  14.7778270  74.5823350 108.2719300  14.3008830  75.3895540 108.0791910
  14.0940060  73.9301680 108.4245510   5.7811090  70.7473170 111.2604000
   4.8839620  70.9713140 111.5077400   5.8063960  70.8708110 110.3115400
  12.8216310  67.5966290  97.1745260  13.2609590  66.7588720  97.0283080
  13.5344730  68.2295690  97.2609400   4.6082310  67.6186490 109.8361370
   4.4690080  68.4909290 110.2048770   3.7263670  67.2759300 109.6909310
  10.9311690  72.5362360 101.1426500  11.3707600  73.2786690 100.7281890
  10.8698580  72.7788930 102.0665460   6.4062660  73.5608190 112.0446520
   6.3778090  73.9651140 111.1774950   6.2427630  72.6318550 111.8818120
  16.4033450  58.8509100  95.4886300  16.0906110  58.9435930  96.3885370
  17.1645920  59.4290130  95.4383730   2.9215590  66.2168900  99.9463640
   2.8013190  66.9430990  99.3344910   2.6116480  65.4471810  99.4691550
  18.3577480  74.3435290 113.3410690  18.8337200  74.8218180 114.0199770
  18.9784640  74.2752780 112.6156190   1.8048590  71.0884230 102.1638460
   1.3976670  71.2298820 101.3092060   2.6961600  70.8044390 101.9609670
  17.7610730  71.5348140 110.5010700  17.8873790  71.2960020 109.5827880
  17.8032110  70.7032680 110.9732780  11.6227470  75.2376140 109.0705510
  12.1372140  75.1484150 109.8727940  10.7796550  75.5835840 109.3633420
  13.5981870  75.5231480  98.4989510  13.4383010  75.2334420  99.3971340
  13.4328580  74.7471610  97.9634740   6.0770250  75.3030010 100.2761130
   5.9012730  74.3865550 100.0628930   5.2225990  75.6617300 100.5158930
  13.3008000  73.0319040  97.0587510  12.6073160  73.0296330  96.3989790
  14.0430860  72.6078360  96.6281680  12.8657930  74.6581750 101.1336000
  13.3214880  73.8771130 101.4474620  13.2050450  75.3688570 101.6777180
  17.6134740  63.5880600 111.4660440  16.9979010  64.0960270 110.9375900
  17.2931160  62.6878930 111.4086380   5.3879250  59.5603970 103.3287310
   4.9447400  60.3413510 102.9971830   5.9464240  59.8833860 104.0358250
   9.6749060  62.4272490 108.9322630   9.2128430  62.6355510 109.7442570
   9.2727170  61.6131840 108.6293300  14.6753570  63.6481440 110.0619290
  13.8247160  63.3487190 110.3828360  14.5155360  63.8923450 109.1503110
  11.7703280  65.1483190 112.1618080  12.0956690  64.3146940 111.8220310
  12.5583610  65.6711710 112.3096410   8.5038070  59.1814670  98.2093140
   7.8792250  59.1774540  98.9346450   8.4168190  58.3145630  97.8129110
   7.4255150  60.1051300 105.1876910   7.7227480  61.0114130 105.1068930
   7.9740710  59.6170080 104.5736480   5.1793470  64.6837540 101.0568560
   4.9534390  64.4674710 101.9615180   4.3986000  65.1166000 100.7114530
  12.4091230  64.6900910  99.6559210  11.8100120  65.4136710  99.4722830
  12.9570840  64.6277690  98.8735660   7.6192680  65.5823120 111.7228830
   7.5236280  64.6417850 111.5729230   8.4624660  65.8038190 111.3276900
  11.0156100  63.3264450 101.6862490  11.4085670  63.6436650 100.8731180
  11.3772950  62.4476330 101.8007010   2.7503220  61.9936790 109.8762610
   2.3566610  62.8412000 110.0835390   2.0621620  61.3563160 110.0671250
   9.3248270  62.0771760 112.9459350   8.6346590  61.8843960 113.5805440
  10.0680570  62.3606400 113.4783650  11.6011240  65.9170200 105.7813270
  10.8692360  66.4257010 106.1303370  11.2035580  65.1000180 105.4802050
   8.0388630  62.5924400 104.1865760   8.0424690  62.1514350 103.3370300
   8.9339750  62.9141730 104.2937580   3.8891010  62.4750890 103.1459970
   3.5491060  62.9526120 103.9027020   3.1268330  62.0216010 102.7861070
   8.1008780  63.5936480  97.1772520   8.2221600  63.5522960  98.1258340
   7.7157290  64.4560630  97.0219250  12.0637150  61.3703880 105.1936210
  12.0809890  61.8212530 106.0378060  11.8152730  60.4709520 105.4069650
   7.1130280  65.9037620  96.5755820   6.5447180  65.4555870  95.9491730
   7.8219280  66.2630400  96.0420970  15.4907900  58.7836060 111.0322590
  15.8153670  58.0525720 111.5580570  15.5264410  58.4649700 110.1303580
   2.1899460  69.8049640 110.4522550   1.8054250  69.1643310 111.0505510
   2.5011650  70.5085760 111.0217280   8.3396600  66.6526180 105.9331170
   8.7066730  66.1784750 106.6792510   8.1501660  67.5267750 106.2739510
   6.1295970  65.6934820 108.2515380   5.8253040  66.5726800 108.4765740
   7.0842430  65.7534610 108.2872820   4.6577760  69.8995810  98.8482230
   3.8840020  69.3593430  98.6880950   5.3872390  69.3802420  98.5099990
  15.4165740  68.8961170 104.6408620  16.1364860  69.3916460 104.2504730
  15.2147560  68.2179060 103.9962490  10.8775680  60.2899130  98.7838010
  10.0640290  59.7912300  98.7083320  10.6837630  61.1297380  98.3674360
  10.7984540  68.9670230 110.5277620  10.7321850  68.0465900 110.2735210
  10.1689680  69.0645670 111.2422260  13.5924070  64.6618780  97.0800170
  14.4803690  64.9736010  96.9051510  13.5629160  63.7891030  96.6880750
   4.7015160  69.5676190 102.4861040   5.2193830  68.7644450 102.4317930
   4.2499180  69.5055330 103.3277870   9.5884660  70.8342470  97.7588340
   9.9300360  71.5784700  97.2631660   8.7597370  71.1473590  98.1213170
   2.1859700  66.5337560 109.3986740   1.8274640  67.1991410 109.9860080
   1.8914260  65.7021110 109.7699360   5.3872820  66.9921800 112.2826290
   5.0872960  67.1378980 111.3854110   6.1584060  66.4327090 112.1899680
  10.7301270  71.7890800 110.2781420  10.7445810  70.8571760 110.0600330
  10.0226370  71.8750560 110.9171190  15.8638340  65.9730620  96.5480030
  15.7802060  66.4044840  95.6976470  16.5832530  66.4328970  96.9806850
  16.9412480  68.4298140 109.6250000  16.2160670  69.0226920 109.4279390
  17.4687940  68.4221680 108.8263370  16.8925590  72.8272880  99.2762160
  16.2501750  72.1728500  99.5505880  16.5056250  73.2327970  98.5002830
  12.4712070  70.1558310 103.1233850  12.8235890  69.5586440 102.4635220
  11.5874400  69.8302540 103.2942100   8.5575350  70.9156000 100.5304260
   9.2446480  71.4625210 100.9111850   7.7707770  71.4596730 100.5653870
   7.8602560  67.9202030 100.1429620   8.3165340  68.7307280 100.3689810
   7.5090770  67.6025170 100.9748110  10.1635170  73.4308370 107.3721920
  10.8077390  73.6367750 108.0495340  10.5264610  72.6696770 106.9192770
   3.7614340  58.2639680 100.6152140   3.6328970  58.2557580 101.5637060
   2.9376360  58.6022770 100.2643150  11.4367250  71.4340720 106.0899370
  12.0789480  70.7333880 106.2031540  11.9616600  72.2139160 105.9096260
  15.2822970  71.7189340  95.8138510  15.0560550  71.0019780  96.4063150
  14.8919170  71.4701780  94.9760260  13.2104870  72.2335620 109.2935430
  13.5461110  72.8202310 109.9713350  12.2905210  72.1028330 109.5233220
  14.8639220  69.6361280  97.4752670  14.5760920  70.0973970  98.2630550
  15.6591390  69.1759050  97.7436890   9.0393450  72.2826950 112.4623490
   8.7190320  71.5636190 113.0069180   8.3651810  72.9582020 112.5359550
   7.0807620  73.1287400  97.4056640   7.0717720  73.8617090  96.7901150
   6.1605980  72.8818980  97.4983600   2.6814260  68.3502290  98.1503400
   2.0742210  69.0901190  98.1598700   3.1563610  68.4401650  97.3241600
  12.2547050  62.5153110 107.8260290  12.6227870  61.6948320 108.1539860
  11.3945250  62.5755000 108.2415940  15.6209080  61.4710050  98.6347850
  14.9922240  61.5755720  97.9206080  15.1261000  61.6906830  99.4241730
  10.0667220  73.1915640  96.0681830  10.1679200  72.9879630  95.1383810
   9.1668960  72.9373920  96.2729610   7.5893110  63.7496000 100.0505730
   6.8809260  64.2182340 100.4919340   7.8737590  63.0918010 100.6850920
   9.2149040  65.1692700 108.0498260   9.7134290  65.6438520 108.7150110
   9.3571990  64.2456220 108.2568290  11.6208540  60.4746660 101.4901520
  11.4976320  60.4932790 100.5411030  12.5693100  60.5225600 101.6099920
   8.7085330  75.7101960 100.7629500   8.9626830  75.6723350  99.8408870
   7.7597810  75.5835290 100.7557750   5.7928130  62.0581080  97.4256440
   6.6418660  62.4951230  97.3596630   5.4259400  62.3701340  98.2528500
  16.4215900  61.3860660 108.8926650  15.9189500  62.1266060 109.2320460
  17.2372560  61.7744660 108.5763440  14.7137910  66.6293840 102.3388010
  13.7728050  66.6444070 102.5135700  15.0281980  65.8429800 102.7848310
   4.6919550  68.3113440  95.8991970   5.4582820  68.1994800  96.4617400
   4.7694240  67.6151410  95.2468740   3.3866310  65.7438510  96.5824860
   3.4669900  64.7966020  96.6942260   4.2786060  66.0745390  96.6885520
  16.7163490  73.8002690 104.0142270  16.8410910  74.6233860 104.4866080
  17.5829050  73.5893420 103.6666420   4.1881020  75.8933900 103.6859400
   4.9243500  75.3449360 103.9567970   4.5721940  76.7589910 103.5465390
   3.1939300  75.0779970 112.8744980   3.9952030  75.3992020 113.2880380
   2.6791120  74.7175550 113.5964890   7.2983330  75.0664210  95.5084970
   8.0911940  75.3553040  95.0566760   6.7787680  74.6356380  94.8297450
  12.0303930  71.1859840 112.8220390  11.4242090  71.2091440 112.0816140
  11.7258040  70.4542880 113.3587640  13.4604300  74.9140130 111.4329800
  14.4126050  74.8298150 111.3830040  13.3132520  75.5781840 112.1063590
   7.8160730  70.2867620  95.3727320   7.7111370  69.6719970  96.0988700
   7.6484950  69.7633510  94.5890330   7.9675050  68.9724420 111.3516550
   7.2020720  69.5409420 111.2671220   8.1491010  68.6800630 110.4584780
  11.0563460  69.3487650  95.9769310  10.5073560  69.7956950  96.6212050
  11.6782720  68.8436900  96.5006980  15.1098400  70.7029750 111.9091570
  15.8507870  71.0405510 111.4059030  14.3471080  70.8721810 111.3561340
   2.9460190  65.7083020 112.7131100   2.9865530  65.4096890 113.6216330
   3.8005690  66.1090630 112.5538620   6.7238580  68.3078570  97.8734610
   7.1455000  68.1418440  98.7166000   6.8489420  67.4978800  97.3789750
   4.8866000  64.2875120 110.6805590   4.3562460  63.7966070 110.0528930
   5.5554070  64.7159320 110.1463520   9.2366220  67.3316180  95.1211710
   9.7571880  66.6165200  94.7552860   9.8834620  67.9702050  95.4212220
  13.7844060  68.7544580 110.4446780  14.1985080  68.9089660 111.2937200
  12.8495060  68.8799800 110.6072560  14.2566230  66.0940740 112.4485930
  14.8387000  65.3393060 112.3606410  14.4328000  66.6248180 111.6717410
   5.3738300  61.2537490 110.7602880   5.2795170  60.6358240 110.0353750
   4.7935690  61.9803780 110.5332790   8.1399740  59.8110730 107.7930270
   7.6917040  59.8334990 106.9475820   7.5064940  59.4129750 108.3900570
   8.5459290  68.7065060 108.4142710   8.9647400  69.5497790 108.2418950
   7.6267920  68.8437100 108.1849490  10.8823190  66.4381240 109.7980550
  11.0019400  65.8422380 110.5375390  11.7417190  66.4750930 109.3781850
  13.2211090  66.9918430 108.3743060  12.6946310  67.5161050 107.7708200
  13.5642430  67.6245820 109.0052790   5.6197480  64.3811800  94.8192770
   5.4186540  63.5179160  95.1806110   5.4489530  64.2945160  93.8814370
   6.3966710  75.0118070 109.5300440   5.8587800  75.7364130 109.2109140
   6.6500670  74.5348410 108.7397780   7.6491960  62.9802590 111.0556370
   8.2391650  62.6718440 111.7434190   6.8312200  62.5082340 111.2116270
  12.4685390  62.5968400 111.2889390  11.7800910  61.9349940 111.2239380
  13.1891410  62.1506670 111.7337850  13.0985790  59.1920030  97.3479650
  13.3788080  58.3487930  97.7039070  12.3251520  59.4243140  97.8618400
   4.4180280  61.4812420  94.8070650   4.7206180  61.4879850  93.8989800
   5.1574870  61.1310280  95.3038310   9.2528920  76.2469280 109.7887090
   9.1787620  77.1504420 110.0959460   8.3507760  75.9281180 109.7609160
   7.6365210  60.4247040  95.7926850   7.2887210  59.7471030  95.2129300
   7.8377980  59.9636550  96.6070240   9.8014250  75.4127790  97.4113450
  10.6965040  75.7512760  97.4332210   9.8331880  74.6907200  96.7837730
   3.4410410  70.7854840  95.6400450   3.8785280  71.3284510  96.2958030
   3.9258140  69.9601790  95.6496790   5.2518130  71.9052880 100.7522680
   4.9513670  71.7817850 101.6526590   5.1455620  71.0461470 100.3438410
  16.7808600  73.9431460 110.1179650  16.1810590  74.0024020 109.3743570
  16.9102500  73.0036440 110.2476500  18.0210050  71.6849280  95.4549360
  17.1903010  71.7525930  95.9256590  18.1981880  72.5753400  95.1516220
  17.4766510  68.4296760  97.9583560  18.2385420  68.9993410  98.0643250
  17.4920880  67.8623960  98.7291870  18.4826480  69.2846860 102.8025490
  18.8535310  68.5014180 102.3961460  19.1228410  69.9735960 102.6242790
  15.4660240  70.6683440 108.2155810  14.6520080  71.0980600 108.4781600
  15.8734440  71.2801850 107.6024860  17.5285680  68.7231130  95.1156080
  17.8034520  69.6310010  94.9875300  17.3396420  68.6593660  96.0518070
  13.9261290  61.7475980  96.4109710  14.3446170  61.5606960  95.5706370
  13.6197350  60.8955030  96.7212640  17.4251020  66.6600120 100.1085510
  17.0494620  65.8928050  99.6766800  16.6954140  67.0422820 100.5960440
   2.0146780  67.3387260 106.7294560   2.3819820  67.2514660 107.6090580
   1.4457600  66.5753810 106.6301420  16.8150640  65.8071640 109.7425030
  16.5836730  65.5784390 108.8422980  17.0755190  66.7271190 109.6969920
  15.2538710  61.0328070 112.5204730  16.1308890  61.0411470 112.9038730
  15.2659550  60.2958910 111.9097080  16.7001980  64.8857610 103.4092750
  17.2239460  64.3920260 102.7782920  17.2861400  65.0207970 104.1540320
  16.8791700  64.9697480 106.9312300  15.9294410  64.9361020 107.0457290
  17.0604710  65.8797590 106.6962070   2.7336140  63.2199160  96.0410930
   3.4427840  62.7982380  95.5558210   2.0176080  63.2874390  95.4094280
   2.3810300  59.2738490  95.0813580   3.1038430  59.8147430  95.3994800
   2.6534820  59.0001910  94.2055120  16.1901950  64.1430960  99.3485160
  16.6861070  63.9101830 100.1334040  15.9918020  63.3042800  98.9322800
   2.0702490  58.5244680 104.9836200   2.7178680  57.9742060 104.5431360
   2.4904330  58.7787830 105.8052010  17.6189110  62.7791910 101.8822840
  17.5088390  62.6247950 102.8205110  18.3796700  62.2512850 101.6398250
  15.9654830  58.7186040 108.3405840  16.6027050  59.3320180 108.7065030
  16.1129720  58.7546700 107.3955070  18.5079380  60.6099830  95.1228980
  19.4328690  60.4781010  94.9147270  18.4855170  60.6892650  96.0765430
  18.5817870  61.3810490  97.7485690  17.7869370  61.3155610  98.2778600
  18.7861150  62.3161130  97.7371040  15.5236290  75.4202040 101.7424080
  16.1195360  75.0986610 101.0658500  15.7814440  74.9473860 102.5337350
   1.8234490  58.6800350 107.7261520   1.4749310  59.1364170 108.4919700
   1.4922190  57.7857480 107.8083950   3.4298860  71.8519950 111.8914710
   3.3868490  71.4812860 112.7729170   3.5609870  72.7897520 112.0316530
   7.1304890  73.4079540 107.4924430   6.8896250  73.6754100 106.6054950
   8.0707530  73.5785270 107.5475290   9.3359310  59.8712230 111.2480940
   9.2748200  60.4634060 111.9976350  10.2759690  59.7638190 111.1031200
  11.9733870  59.5282290 110.8873230  12.5874280  59.8461580 110.2254310
  12.5183430  59.0430880 111.5069090  18.3909050  75.4273920 108.2935070
  17.8967330  75.8242790 107.5762200  17.7822340  74.8023130 108.6872350
   2.4955130  58.2076550 111.0012290   3.0438120  58.0264600 110.2378400
   2.5610440  57.4170660 111.5368600   3.2686890  74.7982200 109.0112490
   2.6747210  74.6666900 109.7502530   3.2610730  73.9620340 108.5454590
  12.7141910  58.0914430 107.2142520  11.8401750  58.4249540 107.0115450
  12.6052660  57.6187610 108.0394390  13.6213890  60.2985300 108.5984240
  13.2927250  59.4837060 108.2185970  14.5696190  60.2555110 108.4749930
  16.0748500  76.0697340 105.5721810  15.6151470  76.8213150 105.1979830
  15.4460960  75.3503810 105.5136610   2.8999120  72.1640580 107.9620530
   2.1733180  71.5445870 107.8946480   2.9608270  72.5581190 107.0918610
   6.5044220  74.3785580 104.7469940   7.0209240  73.7672940 104.2218200
   7.1541600  74.8814360 105.2380950   9.2439720  75.2694070 105.5738920
   9.5317530  75.0148370 104.6971930   9.7562940  74.7171430 106.1644490
  10.4616730  59.0084270 106.1535430   9.6788520  59.4829770 106.4332190
  10.1679660  58.1039100 106.0448610  15.0137800  59.7107370 104.1984520
  15.4545890  59.6552470 103.3506120  14.7445390  60.6265380 104.2694700
  16.8776370  59.3422610 102.2093340  16.8164770  58.3983830 102.0624360
  17.6568400  59.4502700 102.7546800   1.8057140  59.3131750  98.6749150
   2.5636500  59.4260630  98.1013180   1.3434310  60.1500950  98.6292580
   8.3470950  61.4271020 101.6651460   7.5345460  61.0527910 101.3247340
   8.8512590  60.6716100 101.9672650  12.8495930  58.0913470 102.9034530
  13.4525300  58.6633680 103.3783050  12.1088920  58.6552910 102.6808430
  15.9930530  58.4935030  98.1774810  16.1881160  59.3918480  98.4442240
  15.2060400  58.2622110  98.6707760   2.7891820  74.1748200  98.6167430
   2.2639440  74.5556230  97.9129390   2.7136400  74.7998970  99.3377140
   4.1782290  59.8395800  97.2151120   4.7075050  59.0525600  97.0859070
   4.8110610  60.5186990  97.4486650   6.3720130  59.5770940 100.2696510
   5.7422870  58.8758250 100.4366640   5.8325270  60.3375070 100.0529670
   9.3112080  76.1910170 112.9407120  10.2379390  75.9554440 112.9843080
   9.2962510  77.0182170 112.4593150  17.5457140  75.7335740  99.9381370
  17.7209330  75.0473480  99.2942290  16.8478710  76.2582790  99.5458040
   6.4975690  58.8554920 112.7049000   6.2159960  59.3588520 111.9409820
   6.8795390  58.0576670 112.3391130   5.3884790  76.1230580  97.4916680
   6.1203610  75.8389860  96.9440570   5.6478460  75.8843860  98.3816060
   4.5499580  72.2395310  97.4963010   3.9208460  72.7080410  98.0448840
   4.6647410  71.3944530  97.9309200  13.0991150  58.2708500 113.2829470
  12.9856600  58.5903110 114.1780990  13.9160890  58.6721010 112.9866750
  15.8789640  75.4180030 112.7648160  16.6714960  74.9229260 112.5574120
  16.1722790  76.0970170 113.3723770  12.0049300  66.2900970  83.6464210
  11.9243350  65.3755580  83.3755920  11.5913720  66.7868040  82.9403920
  10.1367340  68.0679990  85.5273480   9.3609440  67.5880430  85.8172050
  10.7880270  67.3885640  85.3529640   4.1533170  68.3799800  86.4049240
   3.3218050  68.1248510  86.8045750   4.7614150  68.4510570  87.1407160
  14.1574770  72.4740180  84.3072610  13.6956300  71.7027420  84.6359780
  14.9700320  72.5006250  84.8125060   4.1334430  72.4139890  86.6007260
   4.4362470  71.5237630  86.4217480   4.8778020  72.9710110  86.3729510
   2.5625120  63.3401690  80.1891630   1.6741820  63.6817660  80.0871510
   2.8466310  63.1402010  79.2972460  10.3838080  74.7598190  83.9276600
   9.7649520  75.2155690  83.3571040  11.2389860  74.9149650  83.5266300
   9.5776330  70.7437180  85.5343640   9.5084610  69.8027120  85.3732770
  10.3396190  70.8338590  86.1066210   1.7683000  61.3491700  87.8600260
   1.5885840  60.4517450  88.1403020   1.3663080  61.8963570  88.5347210
  10.6081500  63.5507560  85.7612570  10.9846320  62.6779440  85.6486240
  10.5101010  63.8866260  84.8703010   4.7386510  61.9233190  81.2230010
   4.8453260  62.8236920  81.5298770   3.8278870  61.8751160  80.9324660
   2.3869670  63.8452200  86.4682600   3.0679780  64.1090570  87.0870000
   2.0717720  63.0053070  86.8020610   6.5794240  64.8919560  85.5555190
   7.0872460  65.3900530  86.1960210   7.1107480  64.1154760  85.3794550
  18.6805170  63.0624750  89.2584540  17.9757340  63.4506460  88.7399650
  18.9463090  63.7575040  89.8605470   4.8630340  59.5318120  89.8218610
   4.8648780  60.0490510  89.0164510   4.0334650  59.0548300  89.7988540
  11.2501430  69.6437430  81.3208510  10.6318700  70.1086880  80.7571230
  11.7624680  70.3364910  81.7378020   6.1133190  69.1713300  87.9992110
   5.7802570  69.7982220  88.6413180   6.2899870  69.6975180  87.2193780
   4.5445670  61.2428080  87.8289060   4.8862480  62.0870130  87.5342930
   3.6061480  61.3911820  87.9454400   5.3252290  71.1394100  89.8141290
   5.9426290  71.8145180  89.5325740   4.4645410  71.5482080  89.7228790
   8.2273560  58.7310350  84.1533650   8.5348540  58.1757240  83.4369150
   7.2974260  58.8654810  83.9706640  13.7788620  74.4477640  86.4441110
  13.7915780  74.0439930  85.5763370  13.2263840  75.2224930  86.3402540
  15.0734040  71.1693860  81.5331280  14.9630370  70.2268190  81.6580700
  15.0702290  71.5309500  82.4194040  13.1774060  69.3507480  87.7723720
  13.5942850  69.1367590  86.9377180  13.9013880  69.6080270  88.3432340
  10.6154320  66.7959180  80.8893770   9.6883600  66.7296560  81.1182240
  10.7679140  67.7339310  80.7749010  10.6023400  63.0676180  77.8860930
   9.6627070  63.2290140  77.9713390  10.9206660  63.7861860  77.3396920
  17.1236160  67.7494700  87.8639960  16.2954790  67.8187790  87.3890090
  17.7186640  68.3349010  87.3955790  14.6451610  68.3579480  81.3929020
  14.0264030  68.0199030  80.7455320  14.6276060  67.7139240  82.1008210
  14.0878170  64.5364020  88.8094830  13.6749350  65.3617730  89.0634820
  13.3554120  63.9509060  88.6171190   6.2210960  67.3223920  83.6713500
   5.8167960  66.6101170  83.1759400   6.3074080  66.9777160  84.5601540
   6.6892660  71.0091480  85.8352710   6.3920950  70.4036950  85.1560490
   7.6392480  71.0468790  85.7242070   4.9339580  64.0967130  87.4512540
   5.4854170  64.2062470  86.6765790   5.4483090  64.4704730  88.1667770
   5.7811090  70.7473170  92.4860510   4.8839620  70.9713140  92.7333910
   5.8063960  70.8708110  91.5371910  12.8216310  67.5966290  78.4001770
  13.2609590  66.7588720  78.2539590  13.5344730  68.2295690  78.4865910
   4.6082310  67.6186490  91.0617880   4.4690080  68.4909290  91.4305280
   3.7263670  67.2759300  90.9165820  10.9311690  72.5362360  82.3683010
  11.3707600  73.2786690  81.9538400  10.8698580  72.7788930  83.2921970
   6.4062660  73.5608190  93.2703030   6.3778090  73.9651140  92.4031460
   6.2427630  72.6318550  93.1074630  16.4033450  58.8509100  76.7142810
  16.0906110  58.9435930  77.6141880  17.1645920  59.4290130  76.6640240
   2.9215590  66.2168900  81.1720150   2.8013190  66.9430990  80.5601420
   2.6116480  65.4471810  80.6948060   1.8048590  71.0884230  83.3894970
   1.3976670  71.2298820  82.5348570   2.6961600  70.8044390  83.1866180
  11.6227470  75.2376140  90.2962020  12.1372140  75.1484150  91.0984450
  10.7796550  75.5835840  90.5889930  13.5981870  75.5231480  79.7246020
  13.4383010  75.2334420  80.6227850  13.4328580  74.7471610  79.1891250
   6.0770250  75.3030010  81.5017640   5.9012730  74.3865550  81.2885440
   5.2225990  75.6617300  81.7415440  13.3008000  73.0319040  78.2844020
  12.6073160  73.0296330  77.6246300  14.0430860  72.6078360  77.8538190
  12.8657930  74.6581750  82.3592510  13.3214880  73.8771130  82.6731130
  13.2050450  75.3688570  82.9033690  17.6134740  63.5880600  92.6916950
  16.9979010  64.0960270  92.1632410  17.2931160  62.6878930  92.6342890
   5.3879250  59.5603970  84.5543820   4.9447400  60.3413510  84.2228340
   5.9464240  59.8833860  85.2614760   9.6749060  62.4272490  90.1579140
   9.2128430  62.6355510  90.9699080   9.2727170  61.6131840  89.8549810
  14.6753570  63.6481440  91.2875800  13.8247160  63.3487190  91.6084870
  14.5155360  63.8923450  90.3759620  11.7703280  65.1483190  93.3874590
  12.0956690  64.3146940  93.0476820  12.5583610  65.6711710  93.5352920
   8.5038070  59.1814670  79.4349650   7.8792250  59.1774540  80.1602960
   8.4168190  58.3145630  79.0385620   7.4255150  60.1051300  86.4133420
   7.7227480  61.0114130  86.3325440   7.9740710  59.6170080  85.7992990
   5.1793470  64.6837540  82.2825070   4.9534390  64.4674710  83.1871690
   4.3986000  65.1166000  81.9371040  12.4091230  64.6900910  80.8815720
  11.8100120  65.4136710  80.6979340  12.9570840  64.6277690  80.0992170
   7.6192680  65.5823120  92.9485340   7.5236280  64.6417850  92.7985740
   8.4624660  65.8038190  92.5533410  11.0156100  63.3264450  82.9119000
  11.4085670  63.6436650  82.0987690  11.3772950  62.4476330  83.0263520
   2.7503220  61.9936790  91.1019120   2.3566610  62.8412000  91.3091900
   2.0621620  61.3563160  91.2927760   9.3248270  62.0771760  94.1715860
   8.6346590  61.8843960  94.8061950  10.0680570  62.3606400  94.7040160
  11.6011240  65.9170200  87.0069780  10.8692360  66.4257010  87.3559880
  11.2035580  65.1000180  86.7058560   8.0388630  62.5924400  85.4122270
   8.0424690  62.1514350  84.5626810   8.9339750  62.9141730  85.5194090
   3.8891010  62.4750890  84.3716480   3.5491060  62.9526120  85.1283530
   3.1268330  62.0216010  84.0117580   8.1008780  63.5936480  78.4029030
   8.2221600  63.5522960  79.3514850   7.7157290  64.4560630  78.2475760
   7.1130280  65.9037620  77.8012330   6.5447180  65.4555870  77.1748240
   7.8219280  66.2630400  77.2677480  15.4907900  58.7836060  92.2579100
  15.8153670  58.0525720  92.7837080  15.5264410  58.4649700  91.3560090
   2.1899460  69.8049640  91.6779060   1.8054250  69.1643310  92.2762020
   2.5011650  70.5085760  92.2473790   8.3396600  66.6526180  87.1587680
   8.7066730  66.1784750  87.9049020   8.1501660  67.5267750  87.4996020
   6.1295970  65.6934820  89.4771890   5.8253040  66.5726800  89.7022250
   7.0842430  65.7534610  89.5129330   4.6577760  69.8995810  80.0738740
   3.8840020  69.3593430  79.9137460   5.3872390  69.3802420  79.7356500
  15.4165740  68.8961170  85.8665130  16.1364860  69.3916460  85.4761240
  15.2147560  68.2179060  85.2219000  10.8775680  60.2899130  80.0094520
  10.0640290  59.7912300  79.9339830  10.6837630  61.1297380  79.5930870
  10.7984540  68.9670230  91.7534130  10.7321850  68.0465900  91.4991720
  10.1689680  69.0645670  92.4678770  13.5924070  64.6618780  78.3056680
  14.4803690  64.9736010  78.1308020  13.5629160  63.7891030  77.9137260
   4.7015160  69.5676190  83.7117550   5.2193830  68.7644450  83.6574440
   4.2499180  69.5055330  84.5534380   9.5884660  70.8342470  78.9844850
   9.9300360  71.5784700  78.4888170   8.7597370  71.1473590  79.3469680
   2.1859700  66.5337560  90.6243250   1.8274640  67.1991410  91.2116590
   1.8914260  65.7021110  90.9955870   5.3872820  66.9921800  93.5082800
   5.0872960  67.1378980  92.6110620   6.1584060  66.4327090  93.4156190
  10.7301270  71.7890800  91.5037930  10.7445810  70.8571760  91.2856840
  10.0226370  71.8750560  92.1427700  15.8638340  65.9730620  77.7736540
  15.7802060  66.4044840  76.9232980  16.5832530  66.4328970  78.2063360
  16.9412480  68.4298140  90.8506510  16.2160670  69.0226920  90.6535900
  17.4687940  68.4221680  90.0519880  16.8925590  72.8272880  80.5018670
  16.2501750  72.1728500  80.7762390  16.5056250  73.2327970  79.7259340
  12.4712070  70.1558310  84.3490360  12.8235890  69.5586440  83.6891730
  11.5874400  69.8302540  84.5198610   8.5575350  70.9156000  81.7560770
   9.2446480  71.4625210  82.1368360   7.7707770  71.4596730  81.7910380
   7.8602560  67.9202030  81.3686130   8.3165340  68.7307280  81.5946320
   7.5090770  67.6025170  82.2004620  10.1635170  73.4308370  88.5978430
  10.8077390  73.6367750  89.2751850  10.5264610  72.6696770  88.1449280
   3.7614340  58.2639680  81.8408650   3.6328970  58.2557580  82.7893570
   2.9376360  58.6022770  81.4899660  11.4367250  71.4340720  87.3155880
  12.0789480  70.7333880  87.4288050  11.9616600  72.2139160  87.1352770
  15.2822970  71.7189340  77.0395020  15.0560550  71.0019780  77.6319660
  14.8919170  71.4701780  76.2016770  14.8639220  69.6361280  78.7009180
  14.5760920  70.0973970  79.4887060  15.6591390  69.1759050  78.9693400
   9.0393450  72.2826950  93.6880000   8.7190320  71.5636190  94.2325690
   8.3651810  72.9582020  93.7616060   7.0807620  73.1287400  78.6313150
   7.0717720  73.8617090  78.0157660   6.1605980  72.8818980  78.7240110
   2.6814260  68.3502290  79.3759910   2.0742210  69.0901190  79.3855210
   3.1563610  68.4401650  78.5498110  12.2547050  62.5153110  89.0516800
  12.6227870  61.6948320  89.3796370  11.3945250  62.5755000  89.4672450
  15.6209080  61.4710050  79.8604360  14.9922240  61.5755720  79.1462590
  15.1261000  61.6906830  80.6498240  10.0667220  73.1915640  77.2938340
  10.1679200  72.9879630  76.3640320   9.1668960  72.9373920  77.4986120
   7.5893110  63.7496000  81.2762240   6.8809260  64.2182340  81.7175850
   7.8737590  63.0918010  81.9107430   9.2149040  65.1692700  89.2754770
   9.7134290  65.6438520  89.9406620   9.3571990  64.2456220  89.4824800
  11.6208540  60.4746660  82.7158030  11.4976320  60.4932790  81.7667540
  12.5693100  60.5225600  82.8356430   8.7085330  75.7101960  81.9886010
   8.9626830  75.6723350  81.0665380   7.7597810  75.5835290  81.9814260
   5.7928130  62.0581080  78.6512950   6.6418660  62.4951230  78.5853140
   5.4259400  62.3701340  79.4785010  16.4215900  61.3860660  90.1183160
  15.9189500  62.1266060  90.4576970  17.2372560  61.7744660  89.8019950
  14.7137910  66.6293840  83.5644520  13.7728050  66.6444070  83.7392210
  15.0281980  65.8429800  84.0104820   4.6919550  68.3113440  77.1248480
   5.4582820  68.1994800  77.6873910   4.7694240  67.6151410  76.4725250
   3.3866310  65.7438510  77.8081370   3.4669900  64.7966020  77.9198770
   4.2786060  66.0745390  77.9142030  16.7163490  73.8002690  85.2398780
  16.8410910  74.6233860  85.7122590  17.5829050  73.5893420  84.8922930
   4.1881020  75.8933900  84.9115910   4.9243500  75.3449360  85.1824480
   4.5721940  76.7589910  84.7721900   3.1939300  75.0779970  94.1001490
   3.9952030  75.3992020  94.5136890   2.6791120  74.7175550  94.8221400
   7.2983330  75.0664210  76.7341480   8.0911940  75.3553040  76.2823270
   6.7787680  74.6356380  76.0553960  12.0303930  71.1859840  94.0476900
  11.4242090  71.2091440  93.3072650  11.7258040  70.4542880  94.5844150
  16.3513500  74.2934340  78.1578220  16.0655010  73.8799480  77.3432400
  16.1533050  75.2222050  78.0378740   7.8160730  70.2867620  76.5983830
   7.7111370  69.6719970  77.3245210   7.6484950  69.7633510  75.8146840
   7.9675050  68.9724420  92.5773060   7.2020720  69.5409420  92.4927730
   8.1491010  68.6800630  91.6841290  11.0563460  69.3487650  77.2025820
  10.5073560  69.7956950  77.8468560  11.6782720  68.8436900  77.7263490
   2.9460190  65.7083020  93.9387610   2.9865530  65.4096890  94.8472840
   3.8005690  66.1090630  93.7795130   6.7238580  68.3078570  79.0991120
   7.1455000  68.1418440  79.9422510   6.8489420  67.4978800  78.6046260
   4.8866000  64.2875120  91.9062100   4.3562460  63.7966070  91.2785440
   5.5554070  64.7159320  91.3720030   9.2366220  67.3316180  76.3468220
   9.7571880  66.6165200  75.9809370   9.8834620  67.9702050  76.6468730
  13.7844060  68.7544580  91.6703290  14.1985080  68.9089660  92.5193710
  12.8495060  68.8799800  91.8329070  14.2566230  66.0940740  93.6742440
  14.8387000  65.3393060  93.5862920  14.4328000  66.6248180  92.8973920
   5.3738300  61.2537490  91.9859390   5.2795170  60.6358240  91.2610260
   4.7935690  61.9803780  91.7589300   8.1399740  59.8110730  89.0186780
   7.6917040  59.8334990  88.1732330   7.5064940  59.4129750  89.6157080
   8.5459290  68.7065060  89.6399220   8.9647400  69.5497790  89.4675460
   7.6267920  68.8437100  89.4106000  10.8823190  66.4381240  91.0237060
  11.0019400  65.8422380  91.7631900  11.7417190  66.4750930  90.6038360
  13.2211090  66.9918430  89.5999570  12.6946310  67.5161050  88.9964710
  13.5642430  67.6245820  90.2309300   5.6197480  64.3811800  76.0449280
   5.4186540  63.5179160  76.4062620   5.4489530  64.2945160  75.1070880
   6.3966710  75.0118070  90.7556950   5.8587800  75.7364130  90.4365650
   6.6500670  74.5348410  89.9654290   7.6491960  62.9802590  92.2812880
   8.2391650  62.6718440  92.9690700   6.8312200  62.5082340  92.4372780
  12.4685390  62.5968400  92.5145900  11.7800910  61.9349940  92.4495890
  13.1891410  62.1506670  92.9594360  13.0985790  59.1920030  78.5736160
  13.3788080  58.3487930  78.9295580  12.3251520  59.4243140  79.0874910
   4.4180280  61.4812420  76.0327160   4.7206180  61.4879850  75.1246310
   5.1574870  61.1310280  76.5294820   9.2528920  76.2469280  91.0143600
   9.1787620  77.1504420  91.3215970   8.3507760  75.9281180  90.9865670
   7.6365210  60.4247040  77.0183360   7.2887210  59.7471030  76.4385810
   7.8377980  59.9636550  77.8326750   9.8014250  75.4127790  78.6369960
  10.6965040  75.7512760  78.6588720   9.8331880  74.6907200  78.0094240
   3.4410410  70.7854840  76.8656960   3.8785280  71.3284510  77.5214540
   3.9258140  69.9601790  76.8753300   5.2518130  71.9052880  81.9779190
   4.9513670  71.7817850  82.8783100   5.1455620  71.0461470  81.5694920
  18.0210050  71.6849280  76.6805870  17.1903010  71.7525930  77.1513100
  18.1981880  72.5753400  76.3772730  17.4766510  68.4296760  79.1840070
  18.2385420  68.9993410  79.2899760  17.4920880  67.8623960  79.9548380
  18.4826480  69.2846860  84.0282000  18.8535310  68.5014180  83.6217970
  19.1228410  69.9735960  83.8499300  15.4660240  70.6683440  89.4412320
  14.6520080  71.0980600  89.7038110  15.8734440  71.2801850  88.8281370
  17.5285680  68.7231130  76.3412590  17.8034520  69.6310010  76.2131810
  17.3396420  68.6593660  77.2774580  13.9261290  61.7475980  77.6366220
  14.3446170  61.5606960  76.7962880  13.6197350  60.8955030  77.9469150
  17.4251020  66.6600120  81.3342020  17.0494620  65.8928050  80.9023310
  16.6954140  67.0422820  81.8216950   2.0146780  67.3387260  87.9551070
   2.3819820  67.2514660  88.8347090   1.4457600  66.5753810  87.8557930
  16.8150640  65.8071640  90.9681540  16.5836730  65.5784390  90.0679490
  17.0755190  66.7271190  90.9226430  15.2538710  61.0328070  93.7461240
  16.1308890  61.0411470  94.1295240  15.2659550  60.2958910  93.1353590
   2.7336140  63.2199160  77.2667440   3.4427840  62.7982380  76.7814720
   2.0176080  63.2874390  76.6350790   2.3810300  59.2738490  76.3070090
   3.1038430  59.8147430  76.6251310   2.6534820  59.0001910  75.4311630
  16.1901950  64.1430960  80.5741670  16.6861070  63.9101830  81.3590550
  15.9918020  63.3042800  80.1579310   2.0702490  58.5244680  86.2092710
   2.7178680  57.9742060  85.7687870   2.4904330  58.7787830  87.0308520
  15.9654830  58.7186040  89.5662350  16.6027050  59.3320180  89.9321540
  16.1129720  58.7546700  88.6211580  18.5079380  60.6099830  76.3485490
  19.4328690  60.4781010  76.1403780  18.4855170  60.6892650  77.3021940
  18.5817870  61.3810490  78.9742200  17.7869370  61.3155610  79.5035110
  18.7861150  62.3161130  78.9627550  15.5236290  75.4202040  82.9680590
  16.1195360  75.0986610  82.2915010  15.7814440  74.9473860  83.7593860
   1.8234490  58.6800350  88.9518030   1.4749310  59.1364170  89.7176210
   1.4922190  57.7857480  89.0340460   3.4298860  71.8519950  93.1171220
   3.3868490  71.4812860  93.9985680   3.5609870  72.7897520  93.2573040
   7.1304890  73.4079540  88.7180940   6.8896250  73.6754100  87.8311460
   8.0707530  73.5785270  88.7731800   9.3359310  59.8712230  92.4737450
   9.2748200  60.4634060  93.2232860  10.2759690  59.7638190  92.3287710
  11.9733870  59.5282290  92.1129740  12.5874280  59.8461580  91.4510820
  12.5183430  59.0430880  92.7325600   2.4955130  58.2076550  92.2268800
   3.0438120  58.0264600  91.4634910   2.5610440  57.4170660  92.7625110
   3.2686890  74.7982200  90.2369000   2.6747210  74.6666900  90.9759040
   3.2610730  73.9620340  89.7711100  12.7141910  58.0914430  88.4399030
  11.8401750  58.4249540  88.2371960  12.6052660  57.6187610  89.2650900
  13.6213890  60.2985300  89.8240750  13.2927250  59.4837060  89.4442480
  14.5696190  60.2555110  89.7006440  16.0748500  76.0697340  86.7978320
  15.6151470  76.8213150  86.4236340  15.4460960  75.3503810  86.7393120
   2.8999120  72.1640580  89.1877040   2.1733180  71.5445870  89.1202990
   2.9608270  72.5581190  88.3175120   6.5044220  74.3785580  85.9726450
   7.0209240  73.7672940  85.4474710   7.1541600  74.8814360  86.4637460
   9.2439720  75.2694070  86.7995430   9.5317530  75.0148370  85.9228440
   9.7562940  74.7171430  87.3901000  10.4616730  59.0084270  87.3791940
   9.6788520  59.4829770  87.6588700  10.1679660  58.1039100  87.2705120
   1.8057140  59.3131750  79.9005660   2.5636500  59.4260630  79.3269690
   1.3434310  60.1500950  79.8549090   8.3470950  61.4271020  82.8907970
   7.5345460  61.0527910  82.5503850   8.8512590  60.6716100  83.1929160
   2.7891820  74.1748200  79.8423940   2.2639440  74.5556230  79.1385900
   2.7136400  74.7998970  80.5633650   4.1782290  59.8395800  78.4407630
   4.7075050  59.0525600  78.3115580   4.8110610  60.5186990  78.6743160
   6.3720130  59.5770940  81.4953020   5.7422870  58.8758250  81.6623150
   5.8325270  60.3375070  81.2786180   9.3112080  76.1910170  94.1663630
  10.2379390  75.9554440  94.2099590   9.2962510  77.0182170  93.6849660
   6.4975690  58.8554920  93.9305510   6.2159960  59.3588520  93.1666330
   6.8795390  58.0576670  93.5647640   5.3884790  76.1230580  78.7173190
   6.1203610  75.8389860  78.1697080   5.6478460  75.8843860  79.6072570
   4.5499580  72.2395310  78.7219520   3.9208460  72.7080410  79.2705350
   4.6647410  71.3944530  79.1565710  13.0991150  58.2708500  94.5085980
  12.9856600  58.5903110  95.4037500  13.9160890  58.6721010  94.2123260
  12.0049300  66.2900970  64.8720720  11.9243350  65.3755580  64.6012430
  11.5913720  66.7868040  64.1660430  10.1367340  68.0679990  66.7529990
   9.3609440  67.5880430  67.0428560  10.7880270  67.3885640  66.5786150
   4.1533170  68.3799800  67.6305750   3.3218050  68.1248510  68.0302260
   4.7614150  68.4510570  68.3663670  14.1574770  72.4740180  65.5329120
  13.6956300  71.7027420  65.8616290  14.9700320  72.5006250  66.0381570
   4.1334430  72.4139890  67.8263770   4.4362470  71.5237630  67.6473990
   4.8778020  72.9710110  67.5986020   2.5625120  63.3401690  61.4148140
   1.6741820  63.6817660  61.3128020   2.8466310  63.1402010  60.5228970
  10.3838080  74.7598190  65.1533110   9.7649520  75.2155690  64.5827550
  11.2389860  74.9149650  64.7522810   9.5776330  70.7437180  66.7600150
   9.5084610  69.8027120  66.5989280  10.3396190  70.8338590  67.3322720
   1.7683000  61.3491700  69.0856770   1.5885840  60.4517450  69.3659530
   1.3663080  61.8963570  69.7603720  10.6081500  63.5507560  66.9869080
  10.9846320  62.6779440  66.8742750  10.5101010  63.8866260  66.0959520
   4.7386510  61.9233190  62.4486520   4.8453260  62.8236920  62.7555280
   3.8278870  61.8751160  62.1581170  14.3905620  61.0458000  63.9197420
  15.2115240  60.5554570  63.9622900  14.4239700  61.6355660  64.6729260
   2.3869670  63.8452200  67.6939110   3.0679780  64.1090570  68.3126510
   2.0717720  63.0053070  68.0277120   6.5794240  64.8919560  66.7811700
   7.0872460  65.3900530  67.4216720   7.1107480  64.1154760  66.6051060
  18.6805170  63.0624750  70.4841050  17.9757340  63.4506460  69.9656160
  18.9463090  63.7575040  71.0861980   4.8630340  59.5318120  71.0475120
   4.8648780  60.0490510  70.2421020   4.0334650  59.0548300  71.0245050
  11.2501430  69.6437430  62.5465020  10.6318700  70.1086880  61.9827740
  11.7624680  70.3364910  62.9634530   6.1133190  69.1713300  69.2248620
   5.7802570  69.7982220  69.8669690   6.2899870  69.6975180  68.4450290
   4.5445670  61.2428080  69.0545570   4.8862480  62.0870130  68.7599440
   3.6061480  61.3911820  69.1710910   5.3252290  71.1394100  71.0397800
   5.9426290  71.8145180  70.7582250   4.4645410  71.5482080  70.9485300
  16.2429880  72.6033510  68.9552440  15.5593400  73.2732620  68.9469110
  16.7824170  72.8014160  68.1897300   8.2273560  58.7310350  65.3790160
   8.5348540  58.1757240  64.6625660   7.2974260  58.8654810  65.1963150
  13.7788620  74.4477640  67.6697620  13.7915780  74.0439930  66.8019880
  13.2263840  75.2224930  67.5659050  15.0734040  71.1693860  62.7587790
  14.9630370  70.2268190  62.8837210  15.0702290  71.5309500  63.6450550
  13.1774060  69.3507480  68.9980230  13.5942850  69.1367590  68.1633690
  13.9013880  69.6080270  69.5688850  10.6154320  66.7959180  62.1150280
   9.6883600  66.7296560  62.3438750  10.7679140  67.7339310  62.0005520
  10.6023400  63.0676180  59.1117440   9.6627070  63.2290140  59.1969900
  10.9206660  63.7861860  58.5653430  17.1236160  67.7494700  69.0896470
  16.2954790  67.8187790  68.6146600  17.7186640  68.3349010  68.6212300
  14.6451610  68.3579480  62.6185530  14.0264030  68.0199030  61.9711830
  14.6276060  67.7139240  63.3264720  14.0878170  64.5364020  70.0351340
  13.6749350  65.3617730  70.2891330  13.3554120  63.9509060  69.8427700
   6.2210960  67.3223920  64.8970010   5.8167960  66.6101170  64.4015910
   6.3074080  66.9777160  65.7858050   6.6892660  71.0091480  67.0609220
   6.3920950  70.4036950  66.3817000   7.6392480  71.0468790  66.9498580
   4.9339580  64.0967130  68.6769050   5.4854170  64.2062470  67.9022300
   5.4483090  64.4704730  69.3924280  14.7778270  74.5823350  70.7232320
  14.3008830  75.3895540  70.5304930  14.0940060  73.9301680  70.8758530
   5.7811090  70.7473170  73.7117020   4.8839620  70.9713140  73.9590420
   5.8063960  70.8708110  72.7628420  12.8216310  67.5966290  59.6258280
  13.2609590  66.7588720  59.4796100  13.5344730  68.2295690  59.7122420
   4.6082310  67.6186490  72.2874390   4.4690080  68.4909290  72.6561790
   3.7263670  67.2759300  72.1422330  10.9311690  72.5362360  63.5939520
  11.3707600  73.2786690  63.1794910  10.8698580  72.7788930  64.5178480
   6.4062660  73.5608190  74.4959540   6.3778090  73.9651140  73.6287970
   6.2427630  72.6318550  74.3331140   2.9215590  66.2168900  62.3976660
   2.8013190  66.9430990  61.7857930   2.6116480  65.4471810  61.9204570
  18.3577480  74.3435290  75.7923710  18.8337200  74.8218180  76.4712790
  18.9784640  74.2752780  75.0669210   1.8048590  71.0884230  64.6151480
   1.3976670  71.2298820  63.7605080   2.6961600  70.8044390  64.4122690
  17.7610730  71.5348140  72.9523720  17.8873790  71.2960020  72.0340900
  17.8032110  70.7032680  73.4245800  11.6227470  75.2376140  71.5218530
  12.1372140  75.1484150  72.3240960  10.7796550  75.5835840  71.8146440
  13.5981870  75.5231480  60.9502530  13.4383010  75.2334420  61.8484360
  13.4328580  74.7471610  60.4147760   6.0770250  75.3030010  62.7274150
   5.9012730  74.3865550  62.5141950   5.2225990  75.6617300  62.9671950
  13.3008000  73.0319040  59.5100530  12.6073160  73.0296330  58.8502810
  14.0430860  72.6078360  59.0794700  12.8657930  74.6581750  63.5849020
  13.3214880  73.8771130  63.8987640  13.2050450  75.3688570  64.1290200
  17.6134740  63.5880600  73.9173460  16.9979010  64.0960270  73.3888920
  17.2931160  62.6878930  73.8599400   5.3879250  59.5603970  65.7800330
   4.9447400  60.3413510  65.4484850   5.9464240  59.8833860  66.4871270
   9.6749060  62.4272490  71.3835650   9.2128430  62.6355510  72.1955590
   9.2727170  61.6131840  71.0806320  14.6753570  63.6481440  72.5132310
  13.8247160  63.3487190  72.8341380  14.5155360  63.8923450  71.6016130
  11.7703280  65.1483190  74.6131100  12.0956690  64.3146940  74.2733330
  12.5583610  65.6711710  74.7609430   8.5038070  59.1814670  60.6606160
   7.8792250  59.1774540  61.3859470   8.4168190  58.3145630  60.2642130
   7.4255150  60.1051300  67.6389930   7.7227480  61.0114130  67.5581950
   7.9740710  59.6170080  67.0249500   5.1793470  64.6837540  63.5081580
   4.9534390  64.4674710  64.4128200   4.3986000  65.1166000  63.1627550
  12.4091230  64.6900910  62.1072230  11.8100120  65.4136710  61.9235850
  12.9570840  64.6277690  61.3248680   7.6192680  65.5823120  74.1741850
   7.5236280  64.6417850  74.0242250   8.4624660  65.8038190  73.7789920
  11.0156100  63.3264450  64.1375510  11.4085670  63.6436650  63.3244200
  11.3772950  62.4476330  64.2520030   2.7503220  61.9936790  72.3275630
   2.3566610  62.8412000  72.5348410   2.0621620  61.3563160  72.5184270
   9.3248270  62.0771760  75.3972370   8.6346590  61.8843960  76.0318460
  10.0680570  62.3606400  75.9296670  11.6011240  65.9170200  68.2326290
  10.8692360  66.4257010  68.5816390  11.2035580  65.1000180  67.9315070
   8.0388630  62.5924400  66.6378780   8.0424690  62.1514350  65.7883320
   8.9339750  62.9141730  66.7450600   3.8891010  62.4750890  65.5972990
   3.5491060  62.9526120  66.3540040   3.1268330  62.0216010  65.2374090
   8.1008780  63.5936480  59.6285540   8.2221600  63.5522960  60.5771360
   7.7157290  64.4560630  59.4732270   7.1130280  65.9037620  59.0268840
   6.5447180  65.4555870  58.4004750   7.8219280  66.2630400  58.4933990
  15.4907900  58.7836060  73.4835610  15.8153670  58.0525720  74.0093590
  15.5264410  58.4649700  72.5816600   2.1899460  69.8049640  72.9035570
   1.8054250  69.1643310  73.5018530   2.5011650  70.5085760  73.4730300
   8.3396600  66.6526180  68.3844190   8.7066730  66.1784750  69.1305530
   8.1501660  67.5267750  68.7252530   6.1295970  65.6934820  70.7028400
   5.8253040  66.5726800  70.9278760   7.0842430  65.7534610  70.7385840
   4.6577760  69.8995810  61.2995250   3.8840020  69.3593430  61.1393970
   5.3872390  69.3802420  60.9613010  15.4165740  68.8961170  67.0921640
  16.1364860  69.3916460  66.7017750  15.2147560  68.2179060  66.4475510
  10.8775680  60.2899130  61.2351030  10.0640290  59.7912300  61.1596340
  10.6837630  61.1297380  60.8187380  10.7984540  68.9670230  72.9790640
  10.7321850  68.0465900  72.7248230  10.1689680  69.0645670  73.6935280
  13.5924070  64.6618780  59.5313190  14.4803690  64.9736010  59.3564530
  13.5629160  63.7891030  59.1393770   4.7015160  69.5676190  64.9374060
   5.2193830  68.7644450  64.8830950   4.2499180  69.5055330  65.7790890
   9.5884660  70.8342470  60.2101360   9.9300360  71.5784700  59.7144680
   8.7597370  71.1473590  60.5726190   2.1859700  66.5337560  71.8499760
   1.8274640  67.1991410  72.4373100   1.8914260  65.7021110  72.2212380
   5.3872820  66.9921800  74.7339310   5.0872960  67.1378980  73.8367130
   6.1584060  66.4327090  74.6412700  10.7301270  71.7890800  72.7294440
  10.7445810  70.8571760  72.5113350  10.0226370  71.8750560  73.3684210
  15.8638340  65.9730620  58.9993050  15.7802060  66.4044840  58.1489490
  16.5832530  66.4328970  59.4319870  16.9412480  68.4298140  72.0763020
  16.2160670  69.0226920  71.8792410  17.4687940  68.4221680  71.2776390
  16.8925590  72.8272880  61.7275180  16.2501750  72.1728500  62.0018900
  16.5056250  73.2327970  60.9515850  12.4712070  70.1558310  65.5746870
  12.8235890  69.5586440  64.9148240  11.5874400  69.8302540  65.7455120
   8.5575350  70.9156000  62.9817280   9.2446480  71.4625210  63.3624870
   7.7707770  71.4596730  63.0166890   7.8602560  67.9202030  62.5942640
   8.3165340  68.7307280  62.8202830   7.5090770  67.6025170  63.4261130
  10.1635170  73.4308370  69.8234940  10.8077390  73.6367750  70.5008360
  10.5264610  72.6696770  69.3705790   3.7614340  58.2639680  63.0665160
   3.6328970  58.2557580  64.0150080   2.9376360  58.6022770  62.7156170
  11.4367250  71.4340720  68.5412390  12.0789480  70.7333880  68.6544560
  11.9616600  72.2139160  68.3609280  15.2822970  71.7189340  58.2651530
  15.0560550  71.0019780  58.8576170  14.8919170  71.4701780  57.4273280
  13.2104870  72.2335620  71.7448450  13.5461110  72.8202310  72.4226370
  12.2905210  72.1028330  71.9746240  14.8639220  69.6361280  59.9265690
  14.5760920  70.0973970  60.7143570  15.6591390  69.1759050  60.1949910
   9.0393450  72.2826950  74.9136510   8.7190320  71.5636190  75.4582200
   8.3651810  72.9582020  74.9872570   7.0807620  73.1287400  59.8569660
   7.0717720  73.8617090  59.2414170   6.1605980  72.8818980  59.9496620
   2.6814260  68.3502290  60.6016420   2.0742210  69.0901190  60.6111720
   3.1563610  68.4401650  59.7754620  12.2547050  62.5153110  70.2773310
  12.6227870  61.6948320  70.6052880  11.3945250  62.5755000  70.6928960
  15.6209080  61.4710050  61.0860870  14.9922240  61.5755720  60.3719100
  15.1261000  61.6906830  61.8754750  10.0667220  73.1915640  58.5194850
  10.1679200  72.9879630  57.5896830   9.1668960  72.9373920  58.7242630
   7.5893110  63.7496000  62.5018750   6.8809260  64.2182340  62.9432360
   7.8737590  63.0918010  63.1363940   9.2149040  65.1692700  70.5011280
   9.7134290  65.6438520  71.1663130   9.3571990  64.2456220  70.7081310
  11.6208540  60.4746660  63.9414540  11.4976320  60.4932790  62.9924050
  12.5693100  60.5225600  64.0612940   8.7085330  75.7101960  63.2142520
   8.9626830  75.6723350  62.2921890   7.7597810  75.5835290  63.2070770
   5.7928130  62.0581080  59.8769460   6.6418660  62.4951230  59.8109650
   5.4259400  62.3701340  60.7041520  14.7137910  66.6293840  64.7901030
  13.7728050  66.6444070  64.9648720  15.0281980  65.8429800  65.2361330
   4.6919550  68.3113440  58.3504990   5.4582820  68.1994800  58.9130420
   4.7694240  67.6151410  57.6981760   3.3866310  65.7438510  59.0337880
   3.4669900  64.7966020  59.1455280   4.2786060  66.0745390  59.1398540
  16.7163490  73.8002690  66.4655290  16.8410910  74.6233860  66.9379100
  17.5829050  73.5893420  66.1179440   4.1881020  75.8933900  66.1372420
   4.9243500  75.3449360  66.4080990   4.5721940  76.7589910  65.9978410
   3.1939300  75.0779970  75.3258000   3.9952030  75.3992020  75.7393400
   2.6791120  74.7175550  76.0477910   7.2983330  75.0664210  57.9597990
   8.0911940  75.3553040  57.5079780   6.7787680  74.6356380  57.2810470
  12.0303930  71.1859840  75.2733410  11.4242090  71.2091440  74.5329160
  11.7258040  70.4542880  75.8100660  13.4604300  74.9140130  73.8842820
  14.4126050  74.8298150  73.8343060  13.3132520  75.5781840  74.5576610
   7.8160730  70.2867620  57.8240340   7.7111370  69.6719970  58.5501720
   7.6484950  69.7633510  57.0403350   7.9675050  68.9724420  73.8029570
   7.2020720  69.5409420  73.7184240   8.1491010  68.6800630  72.9097800
  11.0563460  69.3487650  58.4282330  10.5073560  69.7956950  59.0725070
  11.6782720  68.8436900  58.9520000  15.1098400  70.7029750  74.3604590
  15.8507870  71.0405510  73.8572050  14.3471080  70.8721810  73.8074360
   2.9460190  65.7083020  75.1644120   2.9865530  65.4096890  76.0729350
   3.8005690  66.1090630  75.0051640   6.7238580  68.3078570  60.3247630
   7.1455000  68.1418440  61.1679020   6.8489420  67.4978800  59.8302770
   4.8866000  64.2875120  73.1318610   4.3562460  63.7966070  72.5041950
   5.5554070  64.7159320  72.5976540   9.2366220  67.3316180  57.5724730
   9.7571880  66.6165200  57.2065880   9.8834620  67.9702050  57.8725240
  13.7844060  68.7544580  72.8959800  14.1985080  68.9089660  73.7450220
  12.8495060  68.8799800  73.0585580  14.2566230  66.0940740  74.8998950
  14.8387000  65.3393060  74.8119430  14.4328000  66.6248180  74.1230430
   5.3738300  61.2537490  73.2115900   5.2795170  60.6358240  72.4866770
   4.7935690  61.9803780  72.9845810   8.1399740  59.8110730  70.2443290
   7.6917040  59.8334990  69.3988840   7.5064940  59.4129750  70.8413590
   8.5459290  68.7065060  70.8655730   8.9647400  69.5497790  70.6931970
   7.6267920  68.8437100  70.6362510  10.8823190  66.4381240  72.2493570
  11.0019400  65.8422380  72.9888410  11.7417190  66.4750930  71.8294870
  13.2211090  66.9918430  70.8256080  12.6946310  67.5161050  70.2221220
  13.5642430  67.6245820  71.4565810   5.6197480  64.3811800  57.2705790
   5.4186540  63.5179160  57.6319130   5.4489530  64.2945160  56.3327390
   6.3966710  75.0118070  71.9813460   5.8587800  75.7364130  71.6622160
   6.6500670  74.5348410  71.1910800   7.6491960  62.9802590  73.5069390
   8.2391650  62.6718440  74.1947210   6.8312200  62.5082340  73.6629290
  12.4685390  62.5968400  73.7402410  11.7800910  61.9349940  73.6752400
  13.1891410  62.1506670  74.1850870  13.0985790  59.1920030  59.7992670
  13.3788080  58.3487930  60.1552090  12.3251520  59.4243140  60.3131420
   4.4180280  61.4812420  57.2583670   4.7206180  61.4879850  56.3502820
   5.1574870  61.1310280  57.7551330   9.2528920  76.2469280  72.2400110
   9.1787620  77.1504420  72.5472480   8.3507760  75.9281180  72.2122180
   7.6365210  60.4247040  58.2439870   7.2887210  59.7471030  57.6642320
   7.8377980  59.9636550  59.0583260   9.8014250  75.4127790  59.8626470
  10.6965040  75.7512760  59.8845230   9.8331880  74.6907200  59.2350750
   3.4410410  70.7854840  58.0913470   3.8785280  71.3284510  58.7471050
   3.9258140  69.9601790  58.1009810   5.2518130  71.9052880  63.2035700
   4.9513670  71.7817850  64.1039610   5.1455620  71.0461470  62.7951430
  16.7808600  73.9431460  72.5692670  16.1810590  74.0024020  71.8256590
  16.9102500  73.0036440  72.6989520  18.0210050  71.6849280  57.9062380
  17.1903010  71.7525930  58.3769610  18.1981880  72.5753400  57.6029240
  17.4766510  68.4296760  60.4096580  18.2385420  68.9993410  60.5156270
  17.4920880  67.8623960  61.1804890  15.4660240  70.6683440  70.6668830
  14.6520080  71.0980600  70.9294620  15.8734440  71.2801850  70.0537880
  17.5285680  68.7231130  57.5669100  17.8034520  69.6310010  57.4388320
  17.3396420  68.6593660  58.5031090  13.9261290  61.7475980  58.8622730
  14.3446170  61.5606960  58.0219390  13.6197350  60.8955030  59.1725660
  17.4251020  66.6600120  62.5598530  17.0494620  65.8928050  62.1279820
  16.6954140  67.0422820  63.0473460   2.0146780  67.3387260  69.1807580
   2.3819820  67.2514660  70.0603600   1.4457600  66.5753810  69.0814440
  16.8150640  65.8071640  72.1938050  16.5836730  65.5784390  71.2936000
  17.0755190  66.7271190  72.1482940  15.2538710  61.0328070  74.9717750
  16.1308890  61.0411470  75.3551750  15.2659550  60.2958910  74.3610100
  16.7001980  64.8857610  65.8605770  17.2239460  64.3920260  65.2295940
  17.2861400  65.0207970  66.6053340  16.8791700  64.9697480  69.3825320
  15.9294410  64.9361020  69.4970310  17.0604710  65.8797590  69.1475090
   2.7336140  63.2199160  58.4923950   3.4427840  62.7982380  58.0071230
   2.0176080  63.2874390  57.8607300   2.3810300  59.2738490  57.5326600
   3.1038430  59.8147430  57.8507820   2.6534820  59.0001910  56.6568140
  16.1901950  64.1430960  61.7998180  16.6861070  63.9101830  62.5847060
  15.9918020  63.3042800  61.3835820   2.0702490  58.5244680  67.4349220
   2.7178680  57.9742060  66.9944380   2.4904330  58.7787830  68.2565030
  17.6189110  62.7791910  64.3335860  17.5088390  62.6247950  65.2718130
  18.3796700  62.2512850  64.0911270  18.5817870  61.3810490  60.1998710
  17.7869370  61.3155610  60.7291620  18.7861150  62.3161130  60.1884060
  15.5236290  75.4202040  64.1937100  16.1195360  75.0986610  63.5171520
  15.7814440  74.9473860  64.9850370   1.8234490  58.6800350  70.1774540
   1.4749310  59.1364170  70.9432720   1.4922190  57.7857480  70.2596970
   3.4298860  71.8519950  74.3427730   3.3868490  71.4812860  75.2242190
   3.5609870  72.7897520  74.4829550   7.1304890  73.4079540  69.9437450
   6.8896250  73.6754100  69.0567970   8.0707530  73.5785270  69.9988310
   9.3359310  59.8712230  73.6993960   9.2748200  60.4634060  74.4489370
  10.2759690  59.7638190  73.5544220  11.9733870  59.5282290  73.3386250
  12.5874280  59.8461580  72.6767330  12.5183430  59.0430880  73.9582110
  18.3909050  75.4273920  70.7448090  17.8967330  75.8242790  70.0275220
  17.7822340  74.8023130  71.1385370   2.4955130  58.2076550  73.4525310
   3.0438120  58.0264600  72.6891420   2.5610440  57.4170660  73.9881620
   3.2686890  74.7982200  71.4625510   2.6747210  74.6666900  72.2015550
   3.2610730  73.9620340  70.9967610  16.0748500  76.0697340  68.0234830
  15.6151470  76.8213150  67.6492850  15.4460960  75.3503810  67.9649630
   2.8999120  72.1640580  70.4133550   2.1733180  71.5445870  70.3459500
   2.9608270  72.5581190  69.5431630   6.5044220  74.3785580  67.1982960
   7.0209240  73.7672940  66.6731220   7.1541600  74.8814360  67.6893970
   9.2439720  75.2694070  68.0251940   9.5317530  75.0148370  67.1484950
   9.7562940  74.7171430  68.6157510  10.4616730  59.0084270  68.6048450
   9.6788520  59.4829770  68.8845210  10.1679660  58.1039100  68.4961630
   1.8057140  59.3131750  61.1262170   2.5636500  59.4260630  60.5526200
   1.3434310  60.1500950  61.0805600   8.3470950  61.4271020  64.1164480
   7.5345460  61.0527910  63.7760360   8.8512590  60.6716100  64.4185670
   2.7891820  74.1748200  61.0680450   2.2639440  74.5556230  60.3642410
   2.7136400  74.7998970  61.7890160   4.1782290  59.8395800  59.6664140
   4.7075050  59.0525600  59.5372090   4.8110610  60.5186990  59.8999670
   6.3720130  59.5770940  62.7209530   5.7422870  58.8758250  62.8879660
   5.8325270  60.3375070  62.5042690   9.3112080  76.1910170  75.3920140
  10.2379390  75.9554440  75.4356100   9.2962510  77.0182170  74.9106170
  17.5457140  75.7335740  62.3894390  17.7209330  75.0473480  61.7455310
  16.8478710  76.2582790  61.9971060   6.4975690  58.8554920  75.1562020
   6.2159960  59.3588520  74.3922840   6.8795390  58.0576670  74.7904150
   5.3884790  76.1230580  59.9429700   6.1203610  75.8389860  59.3953590
   5.6478460  75.8843860  60.8329080   4.5499580  72.2395310  59.9476030
   3.9208460  72.7080410  60.4961860   4.6647410  71.3944530  60.3822220
  13.0991150  58.2708500  75.7342490  12.9856600  58.5903110  76.6294010
  13.9160890  58.6721010  75.4379770  15.8789640  75.4180030  75.2161180
  16.6714960  74.9229260  75.0087140  16.1722790  76.0970170  75.8236790
  12.0049300  66.2900970  46.0977230  11.9243350  65.3755580  45.8268940
  11.5913720  66.7868040  45.3916940  10.1367340  68.0679990  47.9786500
   9.3609440  67.5880430  48.2685070  10.7880270  67.3885640  47.8042660
   4.1533170  68.3799800  48.8562260   3.3218050  68.1248510  49.2558770
   4.7614150  68.4510570  49.5920180  14.1574770  72.4740180  46.7585630
  13.6956300  71.7027420  47.0872800  14.9700320  72.5006250  47.2638080
   4.1334430  72.4139890  49.0520280   4.4362470  71.5237630  48.8730500
   4.8778020  72.9710110  48.8242530   2.5625120  63.3401690  42.6404650
   1.6741820  63.6817660  42.5384530   2.8466310  63.1402010  41.7485480
  10.3838080  74.7598190  46.3789620   9.7649520  75.2155690  45.8084060
  11.2389860  74.9149650  45.9779320   9.5776330  70.7437180  47.9856660
   9.5084610  69.8027120  47.8245790  10.3396190  70.8338590  48.5579230
   1.7683000  61.3491700  50.3113280   1.5885840  60.4517450  50.5916040
   1.3663080  61.8963570  50.9860230  10.6081500  63.5507560  48.2125590
  10.9846320  62.6779440  48.0999260  10.5101010  63.8866260  47.3216030
   4.7386510  61.9233190  43.6743030   4.8453260  62.8236920  43.9811790
   3.8278870  61.8751160  43.3837680  14.3905620  61.0458000  45.1453930
  15.2115240  60.5554570  45.1879410  14.4239700  61.6355660  45.8985770
   2.3869670  63.8452200  48.9195620   3.0679780  64.1090570  49.5383020
   2.0717720  63.0053070  49.2533630   6.5794240  64.8919560  48.0068210
   7.0872460  65.3900530  48.6473230   7.1107480  64.1154760  47.8307570
  18.6805170  63.0624750  51.7097560  17.9757340  63.4506460  51.1912670
  18.9463090  63.7575040  52.3118490   4.8630340  59.5318120  52.2731630
   4.8648780  60.0490510  51.4677530   4.0334650  59.0548300  52.2501560
  11.2501430  69.6437430  43.7721530  10.6318700  70.1086880  43.2084250
  11.7624680  70.3364910  44.1891040   6.1133190  69.1713300  50.4505130
   5.7802570  69.7982220  51.0926200   6.2899870  69.6975180  49.6706800
  14.6267100  62.9858380  47.9181470  13.9222670  63.2743270  48.4984580
  14.9879260  63.7958490  47.5581030   4.5445670  61.2428080  50.2802080
   4.8862480  62.0870130  49.9855950   3.6061480  61.3911820  50.3967420
   5.3252290  71.1394100  52.2654310   5.9426290  71.8145180  51.9838760
   4.4645410  71.5482080  52.1741810  16.2429880  72.6033510  50.1808950
  15.5593400  73.2732620  50.1725620  16.7824170  72.8014160  49.4153810
  17.6954020  62.4313170  48.3090680  16.7478930  62.4652150  48.4406110
  18.0204010  63.2452120  48.6940040   8.2273560  58.7310350  46.6046670
   8.5348540  58.1757240  45.8882170   7.2974260  58.8654810  46.4219660
  13.7788620  74.4477640  48.8954130  13.7915780  74.0439930  48.0276390
  13.2263840  75.2224930  48.7915560  15.0734040  71.1693860  43.9844300
  14.9630370  70.2268190  44.1093720  15.0702290  71.5309500  44.8707060
  13.1774060  69.3507480  50.2236740  13.5942850  69.1367590  49.3890200
  13.9013880  69.6080270  50.7945360  10.6154320  66.7959180  43.3406790
   9.6883600  66.7296560  43.5695260  10.7679140  67.7339310  43.2262030
  10.6023400  63.0676180  40.3373950   9.6627070  63.2290140  40.4226410
  10.9206660  63.7861860  39.7909940  17.1236160  67.7494700  50.3152980
  16.2954790  67.8187790  49.8403110  17.7186640  68.3349010  49.8468810
  14.6451610  68.3579480  43.8442040  14.0264030  68.0199030  43.1968340
  14.6276060  67.7139240  44.5521230  14.0878170  64.5364020  51.2607850
  13.6749350  65.3617730  51.5147840  13.3554120  63.9509060  51.0684210
   6.2210960  67.3223920  46.1226520   5.8167960  66.6101170  45.6272420
   6.3074080  66.9777160  47.0114560   6.6892660  71.0091480  48.2865730
   6.3920950  70.4036950  47.6073510   7.6392480  71.0468790  48.1755090
   4.9339580  64.0967130  49.9025560   5.4854170  64.2062470  49.1278810
   5.4483090  64.4704730  50.6180790  14.7778270  74.5823350  51.9488830
  14.3008830  75.3895540  51.7561440  14.0940060  73.9301680  52.1015040
   5.7811090  70.7473170  54.9373530   4.8839620  70.9713140  55.1846930
   5.8063960  70.8708110  53.9884930  12.8216310  67.5966290  40.8514790
  13.2609590  66.7588720  40.7052610  13.5344730  68.2295690  40.9378930
   4.6082310  67.6186490  53.5130900   4.4690080  68.4909290  53.8818300
   3.7263670  67.2759300  53.3678840  10.9311690  72.5362360  44.8196030
  11.3707600  73.2786690  44.4051420  10.8698580  72.7788930  45.7434990
   6.4062660  73.5608190  55.7216050   6.3778090  73.9651140  54.8544480
   6.2427630  72.6318550  55.5587650  16.4033450  58.8509100  39.1655830
  16.0906110  58.9435930  40.0654900  17.1645920  59.4290130  39.1153260
   2.9215590  66.2168900  43.6233170   2.8013190  66.9430990  43.0114440
   2.6116480  65.4471810  43.1461080   1.8048590  71.0884230  45.8407990
   1.3976670  71.2298820  44.9861590   2.6961600  70.8044390  45.6379200
  17.7610730  71.5348140  54.1780230  17.8873790  71.2960020  53.2597410
  17.8032110  70.7032680  54.6502310  11.6227470  75.2376140  52.7475040
  12.1372140  75.1484150  53.5497470  10.7796550  75.5835840  53.0402950
  13.5981870  75.5231480  42.1759040  13.4383010  75.2334420  43.0740870
  13.4328580  74.7471610  41.6404270   6.0770250  75.3030010  43.9530660
   5.9012730  74.3865550  43.7398460   5.2225990  75.6617300  44.1928460
  13.3008000  73.0319040  40.7357040  12.6073160  73.0296330  40.0759320
  14.0430860  72.6078360  40.3051210  12.8657930  74.6581750  44.8105530
  13.3214880  73.8771130  45.1244150  13.2050450  75.3688570  45.3546710
  17.6134740  63.5880600  55.1429970  16.9979010  64.0960270  54.6145430
  17.2931160  62.6878930  55.0855910   5.3879250  59.5603970  47.0056840
   4.9447400  60.3413510  46.6741360   5.9464240  59.8833860  47.7127780
   9.6749060  62.4272490  52.6092160   9.2128430  62.6355510  53.4212100
   9.2727170  61.6131840  52.3062830  14.6753570  63.6481440  53.7388820
  13.8247160  63.3487190  54.0597890  14.5155360  63.8923450  52.8272640
  11.7703280  65.1483190  55.8387610  12.0956690  64.3146940  55.4989840
  12.5583610  65.6711710  55.9865940   8.5038070  59.1814670  41.8862670
   7.8792250  59.1774540  42.6115980   8.4168190  58.3145630  41.4898640
   7.4255150  60.1051300  48.8646440   7.7227480  61.0114130  48.7838460
   7.9740710  59.6170080  48.2506010   5.1793470  64.6837540  44.7338090
   4.9534390  64.4674710  45.6384710   4.3986000  65.1166000  44.3884060
  12.4091230  64.6900910  43.3328740  11.8100120  65.4136710  43.1492360
  12.9570840  64.6277690  42.5505190   7.6192680  65.5823120  55.3998360
   7.5236280  64.6417850  55.2498760   8.4624660  65.8038190  55.0046430
  11.0156100  63.3264450  45.3632020  11.4085670  63.6436650  44.5500710
  11.3772950  62.4476330  45.4776540   2.7503220  61.9936790  53.5532140
   2.3566610  62.8412000  53.7604920   2.0621620  61.3563160  53.7440780
   9.3248270  62.0771760  56.6228880   8.6346590  61.8843960  57.2574970
  10.0680570  62.3606400  57.1553180  11.6011240  65.9170200  49.4582800
  10.8692360  66.4257010  49.8072900  11.2035580  65.1000180  49.1571580
   8.0388630  62.5924400  47.8635290   8.0424690  62.1514350  47.0139830
   8.9339750  62.9141730  47.9707110   3.8891010  62.4750890  46.8229500
   3.5491060  62.9526120  47.5796550   3.1268330  62.0216010  46.4630600
   8.1008780  63.5936480  40.8542050   8.2221600  63.5522960  41.8027870
   7.7157290  64.4560630  40.6988780  12.0637150  61.3703880  48.8705740
  12.0809890  61.8212530  49.7147590  11.8152730  60.4709520  49.0839180
   7.1130280  65.9037620  40.2525350   6.5447180  65.4555870  39.6261260
   7.8219280  66.2630400  39.7190500   2.1899460  69.8049640  54.1292080
   1.8054250  69.1643310  54.7275040   2.5011650  70.5085760  54.6986810
   8.3396600  66.6526180  49.6100700   8.7066730  66.1784750  50.3562040
   8.1501660  67.5267750  49.9509040   6.1295970  65.6934820  51.9284910
   5.8253040  66.5726800  52.1535270   7.0842430  65.7534610  51.9642350
   4.6577760  69.8995810  42.5251760   3.8840020  69.3593430  42.3650480
   5.3872390  69.3802420  42.1869520  15.4165740  68.8961170  48.3178150
  16.1364860  69.3916460  47.9274260  15.2147560  68.2179060  47.6732020
  10.8775680  60.2899130  42.4607540  10.0640290  59.7912300  42.3852850
  10.6837630  61.1297380  42.0443890  10.7984540  68.9670230  54.2047150
  10.7321850  68.0465900  53.9504740  10.1689680  69.0645670  54.9191790
  13.5924070  64.6618780  40.7569700  14.4803690  64.9736010  40.5821040
  13.5629160  63.7891030  40.3650280   4.7015160  69.5676190  46.1630570
   5.2193830  68.7644450  46.1087460   4.2499180  69.5055330  47.0047400
   9.5884660  70.8342470  41.4357870   9.9300360  71.5784700  40.9401190
   8.7597370  71.1473590  41.7982700   2.1859700  66.5337560  53.0756270
   1.8274640  67.1991410  53.6629610   1.8914260  65.7021110  53.4468890
   5.3872820  66.9921800  55.9595820   5.0872960  67.1378980  55.0623640
   6.1584060  66.4327090  55.8669210  10.7301270  71.7890800  53.9550950
  10.7445810  70.8571760  53.7369860  10.0226370  71.8750560  54.5940720
  15.8638340  65.9730620  40.2249560  15.7802060  66.4044840  39.3746000
  16.5832530  66.4328970  40.6576380  16.9412480  68.4298140  53.3019530
  16.2160670  69.0226920  53.1048920  17.4687940  68.4221680  52.5032900
  16.8925590  72.8272880  42.9531690  16.2501750  72.1728500  43.2275410
  16.5056250  73.2327970  42.1772360  12.4712070  70.1558310  46.8003380
  12.8235890  69.5586440  46.1404750  11.5874400  69.8302540  46.9711630
   8.5575350  70.9156000  44.2073790   9.2446480  71.4625210  44.5881380
   7.7707770  71.4596730  44.2423400   7.8602560  67.9202030  43.8199150
   8.3165340  68.7307280  44.0459340   7.5090770  67.6025170  44.6517640
  10.1635170  73.4308370  51.0491450  10.8077390  73.6367750  51.7264870
  10.5264610  72.6696770  50.5962300   3.7614340  58.2639680  44.2921670
   3.6328970  58.2557580  45.2406590   2.9376360  58.6022770  43.9412680
  11.4367250  71.4340720  49.7668900  12.0789480  70.7333880  49.8801070
  11.9616600  72.2139160  49.5865790  15.2822970  71.7189340  39.4908040
  15.0560550  71.0019780  40.0832680  14.8919170  71.4701780  38.6529790
  13.2104870  72.2335620  52.9704960  13.5461110  72.8202310  53.6482880
  12.2905210  72.1028330  53.2002750  14.8639220  69.6361280  41.1522200
  14.5760920  70.0973970  41.9400080  15.6591390  69.1759050  41.4206420
   9.0393450  72.2826950  56.1393020   8.7190320  71.5636190  56.6838710
   8.3651810  72.9582020  56.2129080   7.0807620  73.1287400  41.0826170
   7.0717720  73.8617090  40.4670680   6.1605980  72.8818980  41.1753130
   2.6814260  68.3502290  41.8272930   2.0742210  69.0901190  41.8368230
   3.1563610  68.4401650  41.0011130  12.2547050  62.5153110  51.5029820
  12.6227870  61.6948320  51.8309390  11.3945250  62.5755000  51.9185470
  15.6209080  61.4710050  42.3117380  14.9922240  61.5755720  41.5975610
  15.1261000  61.6906830  43.1011260  10.0667220  73.1915640  39.7451360
  10.1679200  72.9879630  38.8153340   9.1668960  72.9373920  39.9499140
   7.5893110  63.7496000  43.7275260   6.8809260  64.2182340  44.1688870
   7.8737590  63.0918010  44.3620450   9.2149040  65.1692700  51.7267790
   9.7134290  65.6438520  52.3919640   9.3571990  64.2456220  51.9337820
  11.6208540  60.4746660  45.1671050  11.4976320  60.4932790  44.2180560
  12.5693100  60.5225600  45.2869450   8.7085330  75.7101960  44.4399030
   8.9626830  75.6723350  43.5178400   7.7597810  75.5835290  44.4327280
   5.7928130  62.0581080  41.1025970   6.6418660  62.4951230  41.0366160
   5.4259400  62.3701340  41.9298030  16.4215900  61.3860660  52.5696180
  15.9189500  62.1266060  52.9089990  17.2372560  61.7744660  52.2532970
  14.7137910  66.6293840  46.0157540  13.7728050  66.6444070  46.1905230
  15.0281980  65.8429800  46.4617840   4.6919550  68.3113440  39.5761500
   5.4582820  68.1994800  40.1386930   4.7694240  67.6151410  38.9238270
   3.3866310  65.7438510  40.2594390   3.4669900  64.7966020  40.3711790
   4.2786060  66.0745390  40.3655050  16.7163490  73.8002690  47.6911800
  16.8410910  74.6233860  48.1635610  17.5829050  73.5893420  47.3435950
   4.1881020  75.8933900  47.3628930   4.9243500  75.3449360  47.6337500
   4.5721940  76.7589910  47.2234920   3.1939300  75.0779970  56.5514510
   3.9952030  75.3992020  56.9649910   2.6791120  74.7175550  57.2734420
   7.2983330  75.0664210  39.1854500   8.0911940  75.3553040  38.7336290
   6.7787680  74.6356380  38.5066980  12.0303930  71.1859840  56.4989920
  11.4242090  71.2091440  55.7585670  11.7258040  70.4542880  57.0357170
  13.4604300  74.9140130  55.1099330  14.4126050  74.8298150  55.0599570
  13.3132520  75.5781840  55.7833120  16.3513500  74.2934340  40.6091240
  16.0655010  73.8799480  39.7945420  16.1533050  75.2222050  40.4891760
   7.8160730  70.2867620  39.0496850   7.7111370  69.6719970  39.7758230
   7.6484950  69.7633510  38.2659860   7.9675050  68.9724420  55.0286080
   7.2020720  69.5409420  54.9440750   8.1491010  68.6800630  54.1354310
  11.0563460  69.3487650  39.6538840  10.5073560  69.7956950  40.2981580
  11.6782720  68.8436900  40.1776510  15.1098400  70.7029750  55.5861100
  15.8507870  71.0405510  55.0828560  14.3471080  70.8721810  55.0330870
   2.9460190  65.7083020  56.3900630   2.9865530  65.4096890  57.2985860
   3.8005690  66.1090630  56.2308150   6.7238580  68.3078570  41.5504140
   7.1455000  68.1418440  42.3935530   6.8489420  67.4978800  41.0559280
   4.8866000  64.2875120  54.3575120   4.3562460  63.7966070  53.7298460
   5.5554070  64.7159320  53.8233050   9.2366220  67.3316180  38.7981240
   9.7571880  66.6165200  38.4322390   9.8834620  67.9702050  39.0981750
  13.7844060  68.7544580  54.1216310  14.1985080  68.9089660  54.9706730
  12.8495060  68.8799800  54.2842090  14.2566230  66.0940740  56.1255460
  14.8387000  65.3393060  56.0375940  14.4328000  66.6248180  55.3486940
   5.3738300  61.2537490  54.4372410   5.2795170  60.6358240  53.7123280
   4.7935690  61.9803780  54.2102320   8.1399740  59.8110730  51.4699800
   7.6917040  59.8334990  50.6245350   7.5064940  59.4129750  52.0670100
   8.5459290  68.7065060  52.0912240   8.9647400  69.5497790  51.9188480
   7.6267920  68.8437100  51.8619020  10.8823190  66.4381240  53.4750080
  11.0019400  65.8422380  54.2144920  11.7417190  66.4750930  53.0551380
  13.2211090  66.9918430  52.0512590  12.6946310  67.5161050  51.4477730
  13.5642430  67.6245820  52.6822320   5.6197480  64.3811800  38.4962300
   5.4186540  63.5179160  38.8575640   5.4489530  64.2945160  37.5583900
   6.3966710  75.0118070  53.2069970   5.8587800  75.7364130  52.8878670
   6.6500670  74.5348410  52.4167310   7.6491960  62.9802590  54.7325900
   8.2391650  62.6718440  55.4203720   6.8312200  62.5082340  54.8885800
  12.4685390  62.5968400  54.9658920  11.7800910  61.9349940  54.9008910
  13.1891410  62.1506670  55.4107380  13.0985790  59.1920030  41.0249180
  13.3788080  58.3487930  41.3808600  12.3251520  59.4243140  41.5387930
   4.4180280  61.4812420  38.4840180   4.7206180  61.4879850  37.5759330
   5.1574870  61.1310280  38.9807840   9.2528920  76.2469280  53.4656620
   9.1787620  77.1504420  53.7728990   8.3507760  75.9281180  53.4378690
   7.6365210  60.4247040  39.4696380   7.2887210  59.7471030  38.8898830
   7.8377980  59.9636550  40.2839770   9.8014250  75.4127790  41.0882980
  10.6965040  75.7512760  41.1101740   9.8331880  74.6907200  40.4607260
   3.4410410  70.7854840  39.3169980   3.8785280  71.3284510  39.9727560
   3.9258140  69.9601790  39.3266320   5.2518130  71.9052880  44.4292210
   4.9513670  71.7817850  45.3296120   5.1455620  71.0461470  44.0207940
  16.7808600  73.9431460  53.7949180  16.1810590  74.0024020  53.0513100
  16.9102500  73.0036440  53.9246030  18.0210050  71.6849280  39.1318890
  17.1903010  71.7525930  39.6026120  18.1981880  72.5753400  38.8285750
  17.4766510  68.4296760  41.6353090  18.2385420  68.9993410  41.7412780
  17.4920880  67.8623960  42.4061400  18.4826480  69.2846860  46.4795020
  18.8535310  68.5014180  46.0730990  19.1228410  69.9735960  46.3012320
  15.4660240  70.6683440  51.8925340  14.6520080  71.0980600  52.1551130
  15.8734440  71.2801850  51.2794390  17.5285680  68.7231130  38.7925610
  17.8034520  69.6310010  38.6644830  17.3396420  68.6593660  39.7287600
  13.9261290  61.7475980  40.0879240  14.3446170  61.5606960  39.2475900
  13.6197350  60.8955030  40.3982170  17.4251020  66.6600120  43.7855040
  17.0494620  65.8928050  43.3536330  16.6954140  67.0422820  44.2729970
   2.0146780  67.3387260  50.4064090   2.3819820  67.2514660  51.2860110
   1.4457600  66.5753810  50.3070950  16.8150640  65.8071640  53.4194560
  16.5836730  65.5784390  52.5192510  17.0755190  66.7271190  53.3739450
  15.2538710  61.0328070  56.1974260  16.1308890  61.0411470  56.5808260
  15.2659550  60.2958910  55.5866610  16.7001980  64.8857610  47.0862280
  17.2239460  64.3920260  46.4552450  17.2861400  65.0207970  47.8309850
  16.8791700  64.9697480  50.6081830  15.9294410  64.9361020  50.7226820
  17.0604710  65.8797590  50.3731600   2.7336140  63.2199160  39.7180460
   3.4427840  62.7982380  39.2327740   2.0176080  63.2874390  39.0863810
   2.3810300  59.2738490  38.7583110   3.1038430  59.8147430  39.0764330
   2.6534820  59.0001910  37.8824650  16.1901950  64.1430960  43.0254690
  16.6861070  63.9101830  43.8103570  15.9918020  63.3042800  42.6092330
   2.0702490  58.5244680  48.6605730   2.7178680  57.9742060  48.2200890
   2.4904330  58.7787830  49.4821540  17.6189110  62.7791910  45.5592370
  17.5088390  62.6247950  46.4974640  18.3796700  62.2512850  45.3167780
  15.9654830  58.7186040  52.0175370  16.6027050  59.3320180  52.3834560
  16.1129720  58.7546700  51.0724600  18.5079380  60.6099830  38.7998510
  19.4328690  60.4781010  38.5916800  18.4855170  60.6892650  39.7534960
  18.5817870  61.3810490  41.4255220  17.7869370  61.3155610  41.9548130
  18.7861150  62.3161130  41.4140570  15.5236290  75.4202040  45.4193610
  16.1195360  75.0986610  44.7428030  15.7814440  74.9473860  46.2106880
   1.8234490  58.6800350  51.4031050   1.4749310  59.1364170  52.1689230
   1.4922190  57.7857480  51.4853480   3.4298860  71.8519950  55.5684240
   3.3868490  71.4812860  56.4498700   3.5609870  72.7897520  55.7086060
   7.1304890  73.4079540  51.1693960   6.8896250  73.6754100  50.2824480
   8.0707530  73.5785270  51.2244820   9.3359310  59.8712230  54.9250470
   9.2748200  60.4634060  55.6745880  10.2759690  59.7638190  54.7800730
  11.9733870  59.5282290  54.5642760  12.5874280  59.8461580  53.9023840
  12.5183430  59.0430880  55.1838620  18.3909050  75.4273920  51.9704600
  17.8967330  75.8242790  51.2531730  17.7822340  74.8023130  52.3641880
   2.4955130  58.2076550  54.6781820   3.0438120  58.0264600  53.9147930
   2.5610440  57.4170660  55.2138130   3.2686890  74.7982200  52.6882020
   2.6747210  74.6666900  53.4272060   3.2610730  73.9620340  52.2224120
  12.7141910  58.0914430  50.8912050  11.8401750  58.4249540  50.6884980
  12.6052660  57.6187610  51.7163920  13.6213890  60.2985300  52.2753770
  13.2927250  59.4837060  51.8955500  14.5696190  60.2555110  52.1519460
  16.0748500  76.0697340  49.2491340  15.6151470  76.8213150  48.8749360
  15.4460960  75.3503810  49.1906140   2.8999120  72.1640580  51.6390060
   2.1733180  71.5445870  51.5716010   2.9608270  72.5581190  50.7688140
   6.5044220  74.3785580  48.4239470   7.0209240  73.7672940  47.8987730
   7.1541600  74.8814360  48.9150480   9.2439720  75.2694070  49.2508450
   9.5317530  75.0148370  48.3741460   9.7562940  74.7171430  49.8414020
  10.4616730  59.0084270  49.8304960   9.6788520  59.4829770  50.1101720
  10.1679660  58.1039100  49.7218140  15.0137800  59.7107370  47.8754050
  15.4545890  59.6552470  47.0275650  14.7445390  60.6265380  47.9464230
  16.8776370  59.3422610  45.8862870  16.8164770  58.3983830  45.7393890
  17.6568400  59.4502700  46.4316330   1.8057140  59.3131750  42.3518680
   2.5636500  59.4260630  41.7782710   1.3434310  60.1500950  42.3062110
   8.3470950  61.4271020  45.3420990   7.5345460  61.0527910  45.0016870
   8.8512590  60.6716100  45.6442180  12.8495930  58.0913470  46.5804060
  13.4525300  58.6633680  47.0552580  12.1088920  58.6552910  46.3577960
  15.9930530  58.4935030  41.8544340  16.1881160  59.3918480  42.1211770
  15.2060400  58.2622110  42.3477290   2.7891820  74.1748200  42.2936960
   2.2639440  74.5556230  41.5898920   2.7136400  74.7998970  43.0146670
   4.1782290  59.8395800  40.8920650   4.7075050  59.0525600  40.7628600
   4.8110610  60.5186990  41.1256180   6.3720130  59.5770940  43.9466040
   5.7422870  58.8758250  44.1136170   5.8325270  60.3375070  43.7299200
   9.3112080  76.1910170  56.6176650  10.2379390  75.9554440  56.6612610
   9.2962510  77.0182170  56.1362680  17.5457140  75.7335740  43.6150900
  17.7209330  75.0473480  42.9711820  16.8478710  76.2582790  43.2227570
   6.4975690  58.8554920  56.3818530   6.2159960  59.3588520  55.6179350
   6.8795390  58.0576670  56.0160660   5.3884790  76.1230580  41.1686210
   6.1203610  75.8389860  40.6210100   5.6478460  75.8843860  42.0585590
   4.5499580  72.2395310  41.1732540   3.9208460  72.7080410  41.7218370
   4.6647410  71.3944530  41.6078730  12.0049300  66.2900970  27.3233740
  11.9243350  65.3755580  27.0525450  11.5913720  66.7868040  26.6173450
  10.1367340  68.0679990  29.2043010   9.3609440  67.5880430  29.4941580
  10.7880270  67.3885640  29.0299170   4.1533170  68.3799800  30.0818770
   3.3218050  68.1248510  30.4815280   4.7614150  68.4510570  30.8176690
  14.1574770  72.4740180  27.9842140  13.6956300  71.7027420  28.3129310
  14.9700320  72.5006250  28.4894590   4.1334430  72.4139890  30.2776790
   4.4362470  71.5237630  30.0987010   4.8778020  72.9710110  30.0499040
   2.5625120  63.3401690  23.8661160   1.6741820  63.6817660  23.7641040
   2.8466310  63.1402010  22.9741990  10.3838080  74.7598190  27.6046130
   9.7649520  75.2155690  27.0340570  11.2389860  74.9149650  27.2035830
   9.5776330  70.7437180  29.2113170   9.5084610  69.8027120  29.0502300
  10.3396190  70.8338590  29.7835740   1.7683000  61.3491700  31.5369790
   1.5885840  60.4517450  31.8172550   1.3663080  61.8963570  32.2116740
  10.6081500  63.5507560  29.4382100  10.9846320  62.6779440  29.3255770
  10.5101010  63.8866260  28.5472540   4.7386510  61.9233190  24.8999540
   4.8453260  62.8236920  25.2068300   3.8278870  61.8751160  24.6094190
  14.3905620  61.0458000  26.3710440  15.2115240  60.5554570  26.4135920
  14.4239700  61.6355660  27.1242280   2.3869670  63.8452200  30.1452130
   3.0679780  64.1090570  30.7639530   2.0717720  63.0053070  30.4790140
   6.5794240  64.8919560  29.2324720   7.0872460  65.3900530  29.8729740
   7.1107480  64.1154760  29.0564080  18.6805170  63.0624750  32.9354070
  17.9757340  63.4506460  32.4169180  18.9463090  63.7575040  33.5375000
   4.8630340  59.5318120  33.4988140   4.8648780  60.0490510  32.6934040
   4.0334650  59.0548300  33.4758070  11.2501430  69.6437430  24.9978040
  10.6318700  70.1086880  24.4340760  11.7624680  70.3364910  25.4147550
   6.1133190  69.1713300  31.6761640   5.7802570  69.7982220  32.3182710
   6.2899870  69.6975180  30.8963310  14.6267100  62.9858380  29.1437980
  13.9222670  63.2743270  29.7241090  14.9879260  63.7958490  28.7837540
   4.5445670  61.2428080  31.5058590   4.8862480  62.0870130  31.2112460
   3.6061480  61.3911820  31.6223930   5.3252290  71.1394100  33.4910820
   5.9426290  71.8145180  33.2095270   4.4645410  71.5482080  33.3998320
  16.2429880  72.6033510  31.4065460  15.5593400  73.2732620  31.3982130
  16.7824170  72.8014160  30.6410320  17.6954020  62.4313170  29.5347190
  16.7478930  62.4652150  29.6662620  18.0204010  63.2452120  29.9196550
   8.2273560  58.7310350  27.8303180   8.5348540  58.1757240  27.1138680
   7.2974260  58.8654810  27.6476170  13.7788620  74.4477640  30.1210640
  13.7915780  74.0439930  29.2532900  13.2263840  75.2224930  30.0172070
  15.0734040  71.1693860  25.2100810  14.9630370  70.2268190  25.3350230
  15.0702290  71.5309500  26.0963570  13.1774060  69.3507480  31.4493250
  13.5942850  69.1367590  30.6146710  13.9013880  69.6080270  32.0201870
  10.6154320  66.7959180  24.5663300   9.6883600  66.7296560  24.7951770
  10.7679140  67.7339310  24.4518540  10.6023400  63.0676180  21.5630460
   9.6627070  63.2290140  21.6482920  10.9206660  63.7861860  21.0166450
  17.1236160  67.7494700  31.5409490  16.2954790  67.8187790  31.0659620
  17.7186640  68.3349010  31.0725320  14.6451610  68.3579480  25.0698550
  14.0264030  68.0199030  24.4224850  14.6276060  67.7139240  25.7777740
  14.0878170  64.5364020  32.4864360  13.6749350  65.3617730  32.7404350
  13.3554120  63.9509060  32.2940720   6.2210960  67.3223920  27.3483030
   5.8167960  66.6101170  26.8528930   6.3074080  66.9777160  28.2371070
   6.6892660  71.0091480  29.5122240   6.3920950  70.4036950  28.8330020
   7.6392480  71.0468790  29.4011600   4.9339580  64.0967130  31.1282070
   5.4854170  64.2062470  30.3535320   5.4483090  64.4704730  31.8437300
  14.7778270  74.5823350  33.1745340  14.3008830  75.3895540  32.9817950
  14.0940060  73.9301680  33.3271550   5.7811090  70.7473170  36.1630040
   4.8839620  70.9713140  36.4103440   5.8063960  70.8708110  35.2141440
  12.8216310  67.5966290  22.0771300  13.2609590  66.7588720  21.9309120
  13.5344730  68.2295690  22.1635440   4.6082310  67.6186490  34.7387410
   4.4690080  68.4909290  35.1074810   3.7263670  67.2759300  34.5935350
  10.9311690  72.5362360  26.0452540  11.3707600  73.2786690  25.6307930
  10.8698580  72.7788930  26.9691500   6.4062660  73.5608190  36.9472560
   6.3778090  73.9651140  36.0800990   6.2427630  72.6318550  36.7844160
  16.4033450  58.8509100  20.3912340  16.0906110  58.9435930  21.2911410
  17.1645920  59.4290130  20.3409770   2.9215590  66.2168900  24.8489680
   2.8013190  66.9430990  24.2370950   2.6116480  65.4471810  24.3717590
  18.3577480  74.3435290  38.2436730  18.8337200  74.8218180  38.9225810
  18.9784640  74.2752780  37.5182230   1.8048590  71.0884230  27.0664500
   1.3976670  71.2298820  26.2118100   2.6961600  70.8044390  26.8635710
  17.7610730  71.5348140  35.4036740  17.8873790  71.2960020  34.4853920
  17.8032110  70.7032680  35.8758820  11.6227470  75.2376140  33.9731550
  12.1372140  75.1484150  34.7753980  10.7796550  75.5835840  34.2659460
  13.5981870  75.5231480  23.4015550  13.4383010  75.2334420  24.2997380
  13.4328580  74.7471610  22.8660780   6.0770250  75.3030010  25.1787170
   5.9012730  74.3865550  24.9654970   5.2225990  75.6617300  25.4184970
  13.3008000  73.0319040  21.9613550  12.6073160  73.0296330  21.3015830
  14.0430860  72.6078360  21.5307720  12.8657930  74.6581750  26.0362040
  13.3214880  73.8771130  26.3500660  13.2050450  75.3688570  26.5803220
  17.6134740  63.5880600  36.3686480  16.9979010  64.0960270  35.8401940
  17.2931160  62.6878930  36.3112420   5.3879250  59.5603970  28.2313350
   4.9447400  60.3413510  27.8997870   5.9464240  59.8833860  28.9384290
   9.6749060  62.4272490  33.8348670   9.2128430  62.6355510  34.6468610
   9.2727170  61.6131840  33.5319340  14.6753570  63.6481440  34.9645330
  13.8247160  63.3487190  35.2854400  14.5155360  63.8923450  34.0529150
  11.7703280  65.1483190  37.0644120  12.0956690  64.3146940  36.7246350
  12.5583610  65.6711710  37.2122450   8.5038070  59.1814670  23.1119180
   7.8792250  59.1774540  23.8372490   8.4168190  58.3145630  22.7155150
   7.4255150  60.1051300  30.0902950   7.7227480  61.0114130  30.0094970
   7.9740710  59.6170080  29.4762520   5.1793470  64.6837540  25.9594600
   4.9534390  64.4674710  26.8641220   4.3986000  65.1166000  25.6140570
  12.4091230  64.6900910  24.5585250  11.8100120  65.4136710  24.3748870
  12.9570840  64.6277690  23.7761700   7.6192680  65.5823120  36.6254870
   7.5236280  64.6417850  36.4755270   8.4624660  65.8038190  36.2302940
  11.0156100  63.3264450  26.5888530  11.4085670  63.6436650  25.7757220
  11.3772950  62.4476330  26.7033050   2.7503220  61.9936790  34.7788650
   2.3566610  62.8412000  34.9861430   2.0621620  61.3563160  34.9697290
   9.3248270  62.0771760  37.8485390   8.6346590  61.8843960  38.4831480
  10.0680570  62.3606400  38.3809690  11.6011240  65.9170200  30.6839310
  10.8692360  66.4257010  31.0329410  11.2035580  65.1000180  30.3828090
   8.0388630  62.5924400  29.0891800   8.0424690  62.1514350  28.2396340
   8.9339750  62.9141730  29.1963620   3.8891010  62.4750890  28.0486010
   3.5491060  62.9526120  28.8053060   3.1268330  62.0216010  27.6887110
   8.1008780  63.5936480  22.0798560   8.2221600  63.5522960  23.0284380
   7.7157290  64.4560630  21.9245290  12.0637150  61.3703880  30.0962250
  12.0809890  61.8212530  30.9404100  11.8152730  60.4709520  30.3095690
   7.1130280  65.9037620  21.4781860   6.5447180  65.4555870  20.8517770
   7.8219280  66.2630400  20.9447010  15.4907900  58.7836060  35.9348630
  15.8153670  58.0525720  36.4606610  15.5264410  58.4649700  35.0329620
   2.1899460  69.8049640  35.3548590   1.8054250  69.1643310  35.9531550
   2.5011650  70.5085760  35.9243320   8.3396600  66.6526180  30.8357210
   8.7066730  66.1784750  31.5818550   8.1501660  67.5267750  31.1765550
   6.1295970  65.6934820  33.1541420   5.8253040  66.5726800  33.3791780
   7.0842430  65.7534610  33.1898860   4.6577760  69.8995810  23.7508270
   3.8840020  69.3593430  23.5906990   5.3872390  69.3802420  23.4126030
  15.4165740  68.8961170  29.5434660  16.1364860  69.3916460  29.1530770
  15.2147560  68.2179060  28.8988530  10.8775680  60.2899130  23.6864050
  10.0640290  59.7912300  23.6109360  10.6837630  61.1297380  23.2700400
  10.7984540  68.9670230  35.4303660  10.7321850  68.0465900  35.1761250
  10.1689680  69.0645670  36.1448300  13.5924070  64.6618780  21.9826210
  14.4803690  64.9736010  21.8077550  13.5629160  63.7891030  21.5906790
   4.7015160  69.5676190  27.3887080   5.2193830  68.7644450  27.3343970
   4.2499180  69.5055330  28.2303910   9.5884660  70.8342470  22.6614380
   9.9300360  71.5784700  22.1657700   8.7597370  71.1473590  23.0239210
   2.1859700  66.5337560  34.3012780   1.8274640  67.1991410  34.8886120
   1.8914260  65.7021110  34.6725400   5.3872820  66.9921800  37.1852330
   5.0872960  67.1378980  36.2880150   6.1584060  66.4327090  37.0925720
  10.7301270  71.7890800  35.1807460  10.7445810  70.8571760  34.9626370
  10.0226370  71.8750560  35.8197230  15.8638340  65.9730620  21.4506070
  15.7802060  66.4044840  20.6002510  16.5832530  66.4328970  21.8832890
  16.9412480  68.4298140  34.5276040  16.2160670  69.0226920  34.3305430
  17.4687940  68.4221680  33.7289410  16.8925590  72.8272880  24.1788200
  16.2501750  72.1728500  24.4531920  16.5056250  73.2327970  23.4028870
  12.4712070  70.1558310  28.0259890  12.8235890  69.5586440  27.3661260
  11.5874400  69.8302540  28.1968140   8.5575350  70.9156000  25.4330300
   9.2446480  71.4625210  25.8137890   7.7707770  71.4596730  25.4679910
   7.8602560  67.9202030  25.0455660   8.3165340  68.7307280  25.2715850
   7.5090770  67.6025170  25.8774150  10.1635170  73.4308370  32.2747960
  10.8077390  73.6367750  32.9521380  10.5264610  72.6696770  31.8218810
   3.7614340  58.2639680  25.5178180   3.6328970  58.2557580  26.4663100
   2.9376360  58.6022770  25.1669190  11.4367250  71.4340720  30.9925410
  12.0789480  70.7333880  31.1057580  11.9616600  72.2139160  30.8122300
  15.2822970  71.7189340  20.7164550  15.0560550  71.0019780  21.3089190
  14.8919170  71.4701780  19.8786300  13.2104870  72.2335620  34.1961470
  13.5461110  72.8202310  34.8739390  12.2905210  72.1028330  34.4259260
  14.8639220  69.6361280  22.3778710  14.5760920  70.0973970  23.1656590
  15.6591390  69.1759050  22.6462930   9.0393450  72.2826950  37.3649530
   8.7190320  71.5636190  37.9095220   8.3651810  72.9582020  37.4385590
   7.0807620  73.1287400  22.3082680   7.0717720  73.8617090  21.6927190
   6.1605980  72.8818980  22.4009640   2.6814260  68.3502290  23.0529440
   2.0742210  69.0901190  23.0624740   3.1563610  68.4401650  22.2267640
  12.2547050  62.5153110  32.7286330  12.6227870  61.6948320  33.0565900
  11.3945250  62.5755000  33.1441980  15.6209080  61.4710050  23.5373890
  14.9922240  61.5755720  22.8232120  15.1261000  61.6906830  24.3267770
  10.0667220  73.1915640  20.9707870  10.1679200  72.9879630  20.0409850
   9.1668960  72.9373920  21.1755650   7.5893110  63.7496000  24.9531770
   6.8809260  64.2182340  25.3945380   7.8737590  63.0918010  25.5876960
   9.2149040  65.1692700  32.9524300   9.7134290  65.6438520  33.6176150
   9.3571990  64.2456220  33.1594330  11.6208540  60.4746660  26.3927560
  11.4976320  60.4932790  25.4437070  12.5693100  60.5225600  26.5125960
   8.7085330  75.7101960  25.6655540   8.9626830  75.6723350  24.7434910
   7.7597810  75.5835290  25.6583790   5.7928130  62.0581080  22.3282480
   6.6418660  62.4951230  22.2622670   5.4259400  62.3701340  23.1554540
  16.4215900  61.3860660  33.7952690  15.9189500  62.1266060  34.1346500
  17.2372560  61.7744660  33.4789480  14.7137910  66.6293840  27.2414050
  13.7728050  66.6444070  27.4161740  15.0281980  65.8429800  27.6874350
   4.6919550  68.3113440  20.8018010   5.4582820  68.1994800  21.3643440
   4.7694240  67.6151410  20.1494780   3.3866310  65.7438510  21.4850900
   3.4669900  64.7966020  21.5968300   4.2786060  66.0745390  21.5911560
  16.7163490  73.8002690  28.9168310  16.8410910  74.6233860  29.3892120
  17.5829050  73.5893420  28.5692460   4.1881020  75.8933900  28.5885440
   4.9243500  75.3449360  28.8594010   4.5721940  76.7589910  28.4491430
   3.1939300  75.0779970  37.7771020   3.9952030  75.3992020  38.1906420
   2.6791120  74.7175550  38.4990930   7.2983330  75.0664210  20.4111010
   8.0911940  75.3553040  19.9592800   6.7787680  74.6356380  19.7323490
  12.0303930  71.1859840  37.7246430  11.4242090  71.2091440  36.9842180
  11.7258040  70.4542880  38.2613680  13.4604300  74.9140130  36.3355840
  14.4126050  74.8298150  36.2856080  13.3132520  75.5781840  37.0089630
  16.3513500  74.2934340  21.8347750  16.0655010  73.8799480  21.0201930
  16.1533050  75.2222050  21.7148270   7.8160730  70.2867620  20.2753360
   7.7111370  69.6719970  21.0014740   7.6484950  69.7633510  19.4916370
   7.9675050  68.9724420  36.2542590   7.2020720  69.5409420  36.1697260
   8.1491010  68.6800630  35.3610820  11.0563460  69.3487650  20.8795350
  10.5073560  69.7956950  21.5238090  11.6782720  68.8436900  21.4033020
  15.1098400  70.7029750  36.8117610  15.8507870  71.0405510  36.3085070
  14.3471080  70.8721810  36.2587380   2.9460190  65.7083020  37.6157140
   2.9865530  65.4096890  38.5242370   3.8005690  66.1090630  37.4564660
   6.7238580  68.3078570  22.7760650   7.1455000  68.1418440  23.6192040
   6.8489420  67.4978800  22.2815790   4.8866000  64.2875120  35.5831630
   4.3562460  63.7966070  34.9554970   5.5554070  64.7159320  35.0489560
   9.2366220  67.3316180  20.0237750   9.7571880  66.6165200  19.6578900
   9.8834620  67.9702050  20.3238260  13.7844060  68.7544580  35.3472820
  14.1985080  68.9089660  36.1963240  12.8495060  68.8799800  35.5098600
  14.2566230  66.0940740  37.3511970  14.8387000  65.3393060  37.2632450
  14.4328000  66.6248180  36.5743450   5.3738300  61.2537490  35.6628920
   5.2795170  60.6358240  34.9379790   4.7935690  61.9803780  35.4358830
   8.1399740  59.8110730  32.6956310   7.6917040  59.8334990  31.8501860
   7.5064940  59.4129750  33.2926610   8.5459290  68.7065060  33.3168750
   8.9647400  69.5497790  33.1444990   7.6267920  68.8437100  33.0875530
  10.8823190  66.4381240  34.7006590  11.0019400  65.8422380  35.4401430
  11.7417190  66.4750930  34.2807890  13.2211090  66.9918430  33.2769100
  12.6946310  67.5161050  32.6734240  13.5642430  67.6245820  33.9078830
   5.6197480  64.3811800  19.7218810   5.4186540  63.5179160  20.0832150
   5.4489530  64.2945160  18.7840410   6.3966710  75.0118070  34.4326480
   5.8587800  75.7364130  34.1135180   6.6500670  74.5348410  33.6423820
   7.6491960  62.9802590  35.9582410   8.2391650  62.6718440  36.6460230
   6.8312200  62.5082340  36.1142310  12.4685390  62.5968400  36.1915430
  11.7800910  61.9349940  36.1265420  13.1891410  62.1506670  36.6363890
  13.0985790  59.1920030  22.2505690  13.3788080  58.3487930  22.6065110
  12.3251520  59.4243140  22.7644440   4.4180280  61.4812420  19.7096690
   4.7206180  61.4879850  18.8015840   5.1574870  61.1310280  20.2064350
   9.2528920  76.2469280  34.6913130   9.1787620  77.1504420  34.9985500
   8.3507760  75.9281180  34.6635200   7.6365210  60.4247040  20.6952890
   7.2887210  59.7471030  20.1155340   7.8377980  59.9636550  21.5096280
   9.8014250  75.4127790  22.3139490  10.6965040  75.7512760  22.3358250
   9.8331880  74.6907200  21.6863770   3.4410410  70.7854840  20.5426490
   3.8785280  71.3284510  21.1984070   3.9258140  69.9601790  20.5522830
   5.2518130  71.9052880  25.6548720   4.9513670  71.7817850  26.5552630
   5.1455620  71.0461470  25.2464450  16.7808600  73.9431460  35.0205690
  16.1810590  74.0024020  34.2769610  16.9102500  73.0036440  35.1502540
  18.0210050  71.6849280  20.3575400  17.1903010  71.7525930  20.8282630
  18.1981880  72.5753400  20.0542260  17.4766510  68.4296760  22.8609600
  18.2385420  68.9993410  22.9669290  17.4920880  67.8623960  23.6317910
  18.4826480  69.2846860  27.7051530  18.8535310  68.5014180  27.2987500
  19.1228410  69.9735960  27.5268830  15.4660240  70.6683440  33.1181850
  14.6520080  71.0980600  33.3807640  15.8734440  71.2801850  32.5050900
  17.5285680  68.7231130  20.0182120  17.8034520  69.6310010  19.8901340
  17.3396420  68.6593660  20.9544110  13.9261290  61.7475980  21.3135750
  14.3446170  61.5606960  20.4732410  13.6197350  60.8955030  21.6238680
  17.4251020  66.6600120  25.0111550  17.0494620  65.8928050  24.5792840
  16.6954140  67.0422820  25.4986480   2.0146780  67.3387260  31.6320600
   2.3819820  67.2514660  32.5116620   1.4457600  66.5753810  31.5327460
  16.8150640  65.8071640  34.6451070  16.5836730  65.5784390  33.7449020
  17.0755190  66.7271190  34.5995960  15.2538710  61.0328070  37.4230770
  16.1308890  61.0411470  37.8064770  15.2659550  60.2958910  36.8123120
  16.7001980  64.8857610  28.3118790  17.2239460  64.3920260  27.6808960
  17.2861400  65.0207970  29.0566360  16.8791700  64.9697480  31.8338340
  15.9294410  64.9361020  31.9483330  17.0604710  65.8797590  31.5988110
   2.7336140  63.2199160  20.9436970   3.4427840  62.7982380  20.4584250
   2.0176080  63.2874390  20.3120320   2.3810300  59.2738490  19.9839620
   3.1038430  59.8147430  20.3020840   2.6534820  59.0001910  19.1081160
  16.1901950  64.1430960  24.2511200  16.6861070  63.9101830  25.0360080
  15.9918020  63.3042800  23.8348840   2.0702490  58.5244680  29.8862240
   2.7178680  57.9742060  29.4457400   2.4904330  58.7787830  30.7078050
  17.6189110  62.7791910  26.7848880  17.5088390  62.6247950  27.7231150
  18.3796700  62.2512850  26.5424290  15.9654830  58.7186040  33.2431880
  16.6027050  59.3320180  33.6091070  16.1129720  58.7546700  32.2981110
  18.5079380  60.6099830  20.0255020  19.4328690  60.4781010  19.8173310
  18.4855170  60.6892650  20.9791470  18.5817870  61.3810490  22.6511730
  17.7869370  61.3155610  23.1804640  18.7861150  62.3161130  22.6397080
  15.5236290  75.4202040  26.6450120  16.1195360  75.0986610  25.9684540
  15.7814440  74.9473860  27.4363390   1.8234490  58.6800350  32.6287560
   1.4749310  59.1364170  33.3945740   1.4922190  57.7857480  32.7109990
   3.4298860  71.8519950  36.7940750   3.3868490  71.4812860  37.6755210
   3.5609870  72.7897520  36.9342570   7.1304890  73.4079540  32.3950470
   6.8896250  73.6754100  31.5080990   8.0707530  73.5785270  32.4501330
   9.3359310  59.8712230  36.1506980   9.2748200  60.4634060  36.9002390
  10.2759690  59.7638190  36.0057240  11.9733870  59.5282290  35.7899270
  12.5874280  59.8461580  35.1280350  12.5183430  59.0430880  36.4095130
  18.3909050  75.4273920  33.1961110  17.8967330  75.8242790  32.4788240
  17.7822340  74.8023130  33.5898390   2.4955130  58.2076550  35.9038330
   3.0438120  58.0264600  35.1404440   2.5610440  57.4170660  36.4394640
   3.2686890  74.7982200  33.9138530   2.6747210  74.6666900  34.6528570
   3.2610730  73.9620340  33.4480630  12.7141910  58.0914430  32.1168560
  11.8401750  58.4249540  31.9141490  12.6052660  57.6187610  32.9420430
  13.6213890  60.2985300  33.5010280  13.2927250  59.4837060  33.1212010
  14.5696190  60.2555110  33.3775970  16.0748500  76.0697340  30.4747850
  15.6151470  76.8213150  30.1005870  15.4460960  75.3503810  30.4162650
   2.8999120  72.1640580  32.8646570   2.1733180  71.5445870  32.7972520
   2.9608270  72.5581190  31.9944650   6.5044220  74.3785580  29.6495980
   7.0209240  73.7672940  29.1244240   7.1541600  74.8814360  30.1406990
   9.2439720  75.2694070  30.4764960   9.5317530  75.0148370  29.5997970
   9.7562940  74.7171430  31.0670530  10.4616730  59.0084270  31.0561470
   9.6788520  59.4829770  31.3358230  10.1679660  58.1039100  30.9474650
  15.0137800  59.7107370  29.1010560  15.4545890  59.6552470  28.2532160
  14.7445390  60.6265380  29.1720740  16.8776370  59.3422610  27.1119380
  16.8164770  58.3983830  26.9650400  17.6568400  59.4502700  27.6572840
   1.8057140  59.3131750  23.5775190   2.5636500  59.4260630  23.0039220
   1.3434310  60.1500950  23.5318620   8.3470950  61.4271020  26.5677500
   7.5345460  61.0527910  26.2273380   8.8512590  60.6716100  26.8698690
  12.8495930  58.0913470  27.8060570  13.4525300  58.6633680  28.2809090
  12.1088920  58.6552910  27.5834470  15.9930530  58.4935030  23.0800850
  16.1881160  59.3918480  23.3468280  15.2060400  58.2622110  23.5733800
   2.7891820  74.1748200  23.5193470   2.2639440  74.5556230  22.8155430
   2.7136400  74.7998970  24.2403180   4.1782290  59.8395800  22.1177160
   4.7075050  59.0525600  21.9885110   4.8110610  60.5186990  22.3512690
   6.3720130  59.5770940  25.1722550   5.7422870  58.8758250  25.3392680
   5.8325270  60.3375070  24.9555710   9.3112080  76.1910170  37.8433160
  10.2379390  75.9554440  37.8869120   9.2962510  77.0182170  37.3619190
  17.5457140  75.7335740  24.8407410  17.7209330  75.0473480  24.1968330
  16.8478710  76.2582790  24.4484080   6.4975690  58.8554920  37.6075040
   6.2159960  59.3588520  36.8435860   6.8795390  58.0576670  37.2417170
   5.3884790  76.1230580  22.3942720   6.1203610  75.8389860  21.8466610
   5.6478460  75.8843860  23.2842100   4.5499580  72.2395310  22.3989050
   3.9208460  72.7080410  22.9474880   4.6647410  71.3944530  22.8335240
  13.0991150  58.2708500  38.1855510  12.9856600  58.5903110  39.0807030
  13.9160890  58.6721010  37.8892790  15.8789640  75.4180030  37.6674200
  16.6714960  74.9229260  37.4600160  16.1722790  76.0970170  38.2749810
  12.0049300  66.2900970   8.5490250  11.9243350  65.3755580   8.2781960
  11.5913720  66.7868040   7.8429960  10.1367340  68.0679990  10.4299520
   9.3609440  67.5880430  10.7198090  10.7880270  67.3885640  10.2555680
   4.1533170  68.3799800  11.3075280   3.3218050  68.1248510  11.7071790
   4.7614150  68.4510570  12.0433200  14.1574770  72.4740180   9.2098650
  13.6956300  71.7027420   9.5385820  14.9700320  72.5006250   9.7151100
   4.1334430  72.4139890  11.5033300   4.4362470  71.5237630  11.3243520
   4.8778020  72.9710110  11.2755550   2.5625120  63.3401690   5.0917670
   1.6741820  63.6817660   4.9897550   2.8466310  63.1402010   4.1998500
  10.3838080  74.7598190   8.8302640   9.7649520  75.2155690   8.2597080
  11.2389860  74.9149650   8.4292340   9.5776330  70.7437180  10.4369680
   9.5084610  69.8027120  10.2758810  10.3396190  70.8338590  11.0092250
   1.7683000  61.3491700  12.7626300   1.5885840  60.4517450  13.0429060
   1.3663080  61.8963570  13.4373250  10.6081500  63.5507560  10.6638610
  10.9846320  62.6779440  10.5512280  10.5101010  63.8866260   9.7729050
   4.7386510  61.9233190   6.1256050   4.8453260  62.8236920   6.4324810
   3.8278870  61.8751160   5.8350700  14.3905620  61.0458000   7.5966950
  15.2115240  60.5554570   7.6392430  14.4239700  61.6355660   8.3498790
   2.3869670  63.8452200  11.3708640   3.0679780  64.1090570  11.9896040
   2.0717720  63.0053070  11.7046650   6.5794240  64.8919560  10.4581230
   7.0872460  65.3900530  11.0986250   7.1107480  64.1154760  10.2820590
  18.6805170  63.0624750  14.1610580  17.9757340  63.4506460  13.6425690
  18.9463090  63.7575040  14.7631510   4.8630340  59.5318120  14.7244650
   4.8648780  60.0490510  13.9190550   4.0334650  59.0548300  14.7014580
  11.2501430  69.6437430   6.2234550  10.6318700  70.1086880   5.6597270
  11.7624680  70.3364910   6.6404060   6.1133190  69.1713300  12.9018150
   5.7802570  69.7982220  13.5439220   6.2899870  69.6975180  12.1219820
  14.6267100  62.9858380  10.3694490  13.9222670  63.2743270  10.9497600
  14.9879260  63.7958490  10.0094050   4.5445670  61.2428080  12.7315100
   4.8862480  62.0870130  12.4368970   3.6061480  61.3911820  12.8480440
   5.3252290  71.1394100  14.7167330   5.9426290  71.8145180  14.4351780
   4.4645410  71.5482080  14.6254830  16.2429880  72.6033510  12.6321970
  15.5593400  73.2732620  12.6238640  16.7824170  72.8014160  11.8666830
  17.6954020  62.4313170  10.7603700  16.7478930  62.4652150  10.8919130
  18.0204010  63.2452120  11.1453060   8.2273560  58.7310350   9.0559690
   8.5348540  58.1757240   8.3395190   7.2974260  58.8654810   8.8732680
  13.7788620  74.4477640  11.3467150  13.7915780  74.0439930  10.4789410
  13.2263840  75.2224930  11.2428580  15.0734040  71.1693860   6.4357320
  14.9630370  70.2268190   6.5606740  15.0702290  71.5309500   7.3220080
  13.1774060  69.3507480  12.6749760  13.5942850  69.1367590  11.8403220
  13.9013880  69.6080270  13.2458380  10.6154320  66.7959180   5.7919810
   9.6883600  66.7296560   6.0208280  10.7679140  67.7339310   5.6775050
  10.6023400  63.0676180   2.7886970   9.6627070  63.2290140   2.8739430
  10.9206660  63.7861860   2.2422960  17.1236160  67.7494700  12.7666000
  16.2954790  67.8187790  12.2916130  17.7186640  68.3349010  12.2981830
  14.6451610  68.3579480   6.2955060  14.0264030  68.0199030   5.6481360
  14.6276060  67.7139240   7.0034250  14.0878170  64.5364020  13.7120870
  13.6749350  65.3617730  13.9660860  13.3554120  63.9509060  13.5197230
   6.2210960  67.3223920   8.5739540   5.8167960  66.6101170   8.0785440
   6.3074080  66.9777160   9.4627580   6.6892660  71.0091480  10.7378750
   6.3920950  70.4036950  10.0586530   7.6392480  71.0468790  10.6268110
   4.9339580  64.0967130  12.3538580   5.4854170  64.2062470  11.5791830
   5.4483090  64.4704730  13.0693810  14.7778270  74.5823350  14.4001850
  14.3008830  75.3895540  14.2074460  14.0940060  73.9301680  14.5528060
   5.7811090  70.7473170  17.3886550   4.8839620  70.9713140  17.6359950
   5.8063960  70.8708110  16.4397950  12.8216310  67.5966290   3.3027810
  13.2609590  66.7588720   3.1565630  13.5344730  68.2295690   3.3891950
   4.6082310  67.6186490  15.9643920   4.4690080  68.4909290  16.3331320
   3.7263670  67.2759300  15.8191860  10.9311690  72.5362360   7.2709050
  11.3707600  73.2786690   6.8564440  10.8698580  72.7788930   8.1948010
   6.4062660  73.5608190  18.1729070   6.3778090  73.9651140  17.3057500
   6.2427630  72.6318550  18.0100670   2.9215590  66.2168900   6.0746190
   2.8013190  66.9430990   5.4627460   2.6116480  65.4471810   5.5974100
  18.3577480  74.3435290  19.4693240  18.8337200  74.8218180  20.1482320
  18.9784640  74.2752780  18.7438740   1.8048590  71.0884230   8.2921010
   1.3976670  71.2298820   7.4374610   2.6961600  70.8044390   8.0892220
  17.7610730  71.5348140  16.6293250  17.8873790  71.2960020  15.7110430
  17.8032110  70.7032680  17.1015330  11.6227470  75.2376140  15.1988060
  12.1372140  75.1484150  16.0010490  10.7796550  75.5835840  15.4915970
  13.5981870  75.5231480   4.6272060  13.4383010  75.2334420   5.5253890
  13.4328580  74.7471610   4.0917290   6.0770250  75.3030010   6.4043680
   5.9012730  74.3865550   6.1911480   5.2225990  75.6617300   6.6441480
  13.3008000  73.0319040   3.1870060  12.6073160  73.0296330   2.5272340
  14.0430860  72.6078360   2.7564230  12.8657930  74.6581750   7.2618550
  13.3214880  73.8771130   7.5757170  13.2050450  75.3688570   7.8059730
  17.6134740  63.5880600  17.5942990  16.9979010  64.0960270  17.0658450
  17.2931160  62.6878930  17.5368930   5.3879250  59.5603970   9.4569860
   4.9447400  60.3413510   9.1254380   5.9464240  59.8833860  10.1640800
   9.6749060  62.4272490  15.0605180   9.2128430  62.6355510  15.8725120
   9.2727170  61.6131840  14.7575850  14.6753570  63.6481440  16.1901840
  13.8247160  63.3487190  16.5110910  14.5155360  63.8923450  15.2785660
  11.7703280  65.1483190  18.2900630  12.0956690  64.3146940  17.9502860
  12.5583610  65.6711710  18.4378960   8.5038070  59.1814670   4.3375690
   7.8792250  59.1774540   5.0629000   8.4168190  58.3145630   3.9411660
   7.4255150  60.1051300  11.3159460   7.7227480  61.0114130  11.2351480
   7.9740710  59.6170080  10.7019030   5.1793470  64.6837540   7.1851110
   4.9534390  64.4674710   8.0897730   4.3986000  65.1166000   6.8397080
  12.4091230  64.6900910   5.7841760  11.8100120  65.4136710   5.6005380
  12.9570840  64.6277690   5.0018210   7.6192680  65.5823120  17.8511380
   7.5236280  64.6417850  17.7011780   8.4624660  65.8038190  17.4559450
  11.0156100  63.3264450   7.8145040  11.4085670  63.6436650   7.0013730
  11.3772950  62.4476330   7.9289560   2.7503220  61.9936790  16.0045160
   2.3566610  62.8412000  16.2117940   2.0621620  61.3563160  16.1953800
   9.3248270  62.0771760  19.0741900   8.6346590  61.8843960  19.7087990
  10.0680570  62.3606400  19.6066200  11.6011240  65.9170200  11.9095820
  10.8692360  66.4257010  12.2585920  11.2035580  65.1000180  11.6084600
   8.0388630  62.5924400  10.3148310   8.0424690  62.1514350   9.4652850
   8.9339750  62.9141730  10.4220130   3.8891010  62.4750890   9.2742520
   3.5491060  62.9526120  10.0309570   3.1268330  62.0216010   8.9143620
   8.1008780  63.5936480   3.3055070   8.2221600  63.5522960   4.2540890
   7.7157290  64.4560630   3.1501800  12.0637150  61.3703880  11.3218760
  12.0809890  61.8212530  12.1660610  11.8152730  60.4709520  11.5352200
   7.1130280  65.9037620   2.7038370   6.5447180  65.4555870   2.0774280
   7.8219280  66.2630400   2.1703520  15.4907900  58.7836060  17.1605140
  15.8153670  58.0525720  17.6863120  15.5264410  58.4649700  16.2586130
   2.1899460  69.8049640  16.5805100   1.8054250  69.1643310  17.1788060
   2.5011650  70.5085760  17.1499830   8.3396600  66.6526180  12.0613720
   8.7066730  66.1784750  12.8075060   8.1501660  67.5267750  12.4022060
   6.1295970  65.6934820  14.3797930   5.8253040  66.5726800  14.6048290
   7.0842430  65.7534610  14.4155370   4.6577760  69.8995810   4.9764780
   3.8840020  69.3593430   4.8163500   5.3872390  69.3802420   4.6382540
  15.4165740  68.8961170  10.7691170  16.1364860  69.3916460  10.3787280
  15.2147560  68.2179060  10.1245040  10.8775680  60.2899130   4.9120560
  10.0640290  59.7912300   4.8365870  10.6837630  61.1297380   4.4956910
  10.7984540  68.9670230  16.6560170  10.7321850  68.0465900  16.4017760
  10.1689680  69.0645670  17.3704810  13.5924070  64.6618780   3.2082720
  14.4803690  64.9736010   3.0334060  13.5629160  63.7891030   2.8163300
   4.7015160  69.5676190   8.6143590   5.2193830  68.7644450   8.5600480
   4.2499180  69.5055330   9.4560420   9.5884660  70.8342470   3.8870890
   9.9300360  71.5784700   3.3914210   8.7597370  71.1473590   4.2495720
   2.1859700  66.5337560  15.5269290   1.8274640  67.1991410  16.1142630
   1.8914260  65.7021110  15.8981910   5.3872820  66.9921800  18.4108840
   5.0872960  67.1378980  17.5136660   6.1584060  66.4327090  18.3182230
  10.7301270  71.7890800  16.4063970  10.7445810  70.8571760  16.1882880
  10.0226370  71.8750560  17.0453740  15.8638340  65.9730620   2.6762580
  15.7802060  66.4044840   1.8259020  16.5832530  66.4328970   3.1089400
  16.9412480  68.4298140  15.7532550  16.2160670  69.0226920  15.5561940
  17.4687940  68.4221680  14.9545920  16.8925590  72.8272880   5.4044710
  16.2501750  72.1728500   5.6788430  16.5056250  73.2327970   4.6285380
  12.4712070  70.1558310   9.2516400  12.8235890  69.5586440   8.5917770
  11.5874400  69.8302540   9.4224650   8.5575350  70.9156000   6.6586810
   9.2446480  71.4625210   7.0394400   7.7707770  71.4596730   6.6936420
   7.8602560  67.9202030   6.2712170   8.3165340  68.7307280   6.4972360
   7.5090770  67.6025170   7.1030660  10.1635170  73.4308370  13.5004470
  10.8077390  73.6367750  14.1777890  10.5264610  72.6696770  13.0475320
   3.7614340  58.2639680   6.7434690   3.6328970  58.2557580   7.6919610
   2.9376360  58.6022770   6.3925700  11.4367250  71.4340720  12.2181920
  12.0789480  70.7333880  12.3314090  11.9616600  72.2139160  12.0378810
  13.2104870  72.2335620  15.4217980  13.5461110  72.8202310  16.0995900
  12.2905210  72.1028330  15.6515770  14.8639220  69.6361280   3.6035220
  14.5760920  70.0973970   4.3913100  15.6591390  69.1759050   3.8719440
   9.0393450  72.2826950  18.5906040   8.7190320  71.5636190  19.1351730
   8.3651810  72.9582020  18.6642100   7.0807620  73.1287400   3.5339190
   7.0717720  73.8617090   2.9183700   6.1605980  72.8818980   3.6266150
   2.6814260  68.3502290   4.2785950   2.0742210  69.0901190   4.2881250
   3.1563610  68.4401650   3.4524150  12.2547050  62.5153110  13.9542840
  12.6227870  61.6948320  14.2822410  11.3945250  62.5755000  14.3698490
  15.6209080  61.4710050   4.7630400  14.9922240  61.5755720   4.0488630
  15.1261000  61.6906830   5.5524280   7.5893110  63.7496000   6.1788280
   6.8809260  64.2182340   6.6201890   7.8737590  63.0918010   6.8133470
   9.2149040  65.1692700  14.1780810   9.7134290  65.6438520  14.8432660
   9.3571990  64.2456220  14.3850840  11.6208540  60.4746660   7.6184070
  11.4976320  60.4932790   6.6693580  12.5693100  60.5225600   7.7382470
   8.7085330  75.7101960   6.8912050   8.9626830  75.6723350   5.9691420
   7.7597810  75.5835290   6.8840300   5.7928130  62.0581080   3.5538990
   6.6418660  62.4951230   3.4879180   5.4259400  62.3701340   4.3811050
  16.4215900  61.3860660  15.0209200  15.9189500  62.1266060  15.3603010
  17.2372560  61.7744660  14.7045990  14.7137910  66.6293840   8.4670560
  13.7728050  66.6444070   8.6418250  15.0281980  65.8429800   8.9130860
   3.3866310  65.7438510   2.7107410   3.4669900  64.7966020   2.8224810
   4.2786060  66.0745390   2.8168070  16.7163490  73.8002690  10.1424820
  16.8410910  74.6233860  10.6148630  17.5829050  73.5893420   9.7948970
   4.1881020  75.8933900   9.8141950   4.9243500  75.3449360  10.0850520
   4.5721940  76.7589910   9.6747940   3.1939300  75.0779970  19.0027530
   3.9952030  75.3992020  19.4162930   2.6791120  74.7175550  19.7247440
  12.0303930  71.1859840  18.9502940  11.4242090  71.2091440  18.2098690
  11.7258040  70.4542880  19.4870190  13.4604300  74.9140130  17.5612350
  14.4126050  74.8298150  17.5112590  13.3132520  75.5781840  18.2346140
  16.3513500  74.2934340   3.0604260  16.0655010  73.8799480   2.2458440
  16.1533050  75.2222050   2.9404780   7.9675050  68.9724420  17.4799100
   7.2020720  69.5409420  17.3953770   8.1491010  68.6800630  16.5867330
  11.0563460  69.3487650   2.1051860  10.5073560  69.7956950   2.7494600
  11.6782720  68.8436900   2.6289530  15.1098400  70.7029750  18.0374120
  15.8507870  71.0405510  17.5341580  14.3471080  70.8721810  17.4843890
   2.9460190  65.7083020  18.8413650   2.9865530  65.4096890  19.7498880
   3.8005690  66.1090630  18.6821170   6.7238580  68.3078570   4.0017160
   7.1455000  68.1418440   4.8448550   6.8489420  67.4978800   3.5072300
   4.8866000  64.2875120  16.8088140   4.3562460  63.7966070  16.1811480
   5.5554070  64.7159320  16.2746070  13.7844060  68.7544580  16.5729330
  14.1985080  68.9089660  17.4219750  12.8495060  68.8799800  16.7355110
  14.2566230  66.0940740  18.5768480  14.8387000  65.3393060  18.4888960
  14.4328000  66.6248180  17.7999960   5.3738300  61.2537490  16.8885430
   5.2795170  60.6358240  16.1636300   4.7935690  61.9803780  16.6615340
   8.1399740  59.8110730  13.9212820   7.6917040  59.8334990  13.0758370
   7.5064940  59.4129750  14.5183120   8.5459290  68.7065060  14.5425260
   8.9647400  69.5497790  14.3701500   7.6267920  68.8437100  14.3132040
  10.8823190  66.4381240  15.9263100  11.0019400  65.8422380  16.6657940
  11.7417190  66.4750930  15.5064400  13.2211090  66.9918430  14.5025610
  12.6946310  67.5161050  13.8990750  13.5642430  67.6245820  15.1335340
   6.3966710  75.0118070  15.6582990   5.8587800  75.7364130  15.3391690
   6.6500670  74.5348410  14.8680330   7.6491960  62.9802590  17.1838920
   8.2391650  62.6718440  17.8716740   6.8312200  62.5082340  17.3398820
  12.4685390  62.5968400  17.4171940  11.7800910  61.9349940  17.3521930
  13.1891410  62.1506670  17.8620400  13.0985790  59.1920030   3.4762200
  13.3788080  58.3487930   3.8321620  12.3251520  59.4243140   3.9900950
   9.2528920  76.2469280  15.9169640   9.1787620  77.1504420  16.2242010
   8.3507760  75.9281180  15.8891710   9.8014250  75.4127790   3.5396000
  10.6965040  75.7512760   3.5614760   9.8331880  74.6907200   2.9120280
   3.4410410  70.7854840   1.7683000   3.8785280  71.3284510   2.4240580
   3.9258140  69.9601790   1.7779340   5.2518130  71.9052880   6.8805230
   4.9513670  71.7817850   7.7809140   5.1455620  71.0461470   6.4720960
  16.7808600  73.9431460  16.2462200  16.1810590  74.0024020  15.5026120
  16.9102500  73.0036440  16.3759050  17.4766510  68.4296760   4.0866110
  18.2385420  68.9993410   4.1925800  17.4920880  67.8623960   4.8574420
  18.4826480  69.2846860   8.9308040  18.8535310  68.5014180   8.5244010
  19.1228410  69.9735960   8.7525340  15.4660240  70.6683440  14.3438360
  14.6520080  71.0980600  14.6064150  15.8734440  71.2801850  13.7307410
  13.9261290  61.7475980   2.5392260  14.3446170  61.5606960   1.6988920
  13.6197350  60.8955030   2.8495190  17.4251020  66.6600120   6.2368060
  17.0494620  65.8928050   5.8049350  16.6954140  67.0422820   6.7242990
   2.0146780  67.3387260  12.8577110   2.3819820  67.2514660  13.7373130
   1.4457600  66.5753810  12.7583970  16.8150640  65.8071640  15.8707580
  16.5836730  65.5784390  14.9705530  17.0755190  66.7271190  15.8252470
  15.2538710  61.0328070  18.6487280  16.1308890  61.0411470  19.0321280
  15.2659550  60.2958910  18.0379630  16.7001980  64.8857610   9.5375300
  17.2239460  64.3920260   8.9065470  17.2861400  65.0207970  10.2822870
  16.8791700  64.9697480  13.0594850  15.9294410  64.9361020  13.1739840
  17.0604710  65.8797590  12.8244620  16.1901950  64.1430960   5.4767710
  16.6861070  63.9101830   6.2616590  15.9918020  63.3042800   5.0605350
   2.0702490  58.5244680  11.1118750   2.7178680  57.9742060  10.6713910
   2.4904330  58.7787830  11.9334560  17.6189110  62.7791910   8.0105390
  17.5088390  62.6247950   8.9487660  18.3796700  62.2512850   7.7680800
  15.9654830  58.7186040  14.4688390  16.6027050  59.3320180  14.8347580
  16.1129720  58.7546700  13.5237620  18.5817870  61.3810490   3.8768240
  17.7869370  61.3155610   4.4061150  18.7861150  62.3161130   3.8653590
  15.5236290  75.4202040   7.8706630  16.1195360  75.0986610   7.1941050
  15.7814440  74.9473860   8.6619900   1.8234490  58.6800350  13.8544070
   1.4749310  59.1364170  14.6202250   1.4922190  57.7857480  13.9366500
   3.4298860  71.8519950  18.0197260   3.3868490  71.4812860  18.9011720
   3.5609870  72.7897520  18.1599080   7.1304890  73.4079540  13.6206980
   6.8896250  73.6754100  12.7337500   8.0707530  73.5785270  13.6757840
   9.3359310  59.8712230  17.3763490   9.2748200  60.4634060  18.1258900
  10.2759690  59.7638190  17.2313750  11.9733870  59.5282290  17.0155780
  12.5874280  59.8461580  16.3536860  12.5183430  59.0430880  17.6351640
  18.3909050  75.4273920  14.4217620  17.8967330  75.8242790  13.7044750
  17.7822340  74.8023130  14.8154900   2.4955130  58.2076550  17.1294840
   3.0438120  58.0264600  16.3660950   2.5610440  57.4170660  17.6651150
   3.2686890  74.7982200  15.1395040   2.6747210  74.6666900  15.8785080
   3.2610730  73.9620340  14.6737140  12.7141910  58.0914430  13.3425070
  11.8401750  58.4249540  13.1398000  12.6052660  57.6187610  14.1676940
  13.6213890  60.2985300  14.7266790  13.2927250  59.4837060  14.3468520
  14.5696190  60.2555110  14.6032480  16.0748500  76.0697340  11.7004360
  15.6151470  76.8213150  11.3262380  15.4460960  75.3503810  11.6419160
   2.8999120  72.1640580  14.0903080   2.1733180  71.5445870  14.0229030
   2.9608270  72.5581190  13.2201160   6.5044220  74.3785580  10.8752490
   7.0209240  73.7672940  10.3500750   7.1541600  74.8814360  11.3663500
   9.2439720  75.2694070  11.7021470   9.5317530  75.0148370  10.8254480
   9.7562940  74.7171430  12.2927040  10.4616730  59.0084270  12.2817980
   9.6788520  59.4829770  12.5614740  10.1679660  58.1039100  12.1731160
  15.0137800  59.7107370  10.3267070  15.4545890  59.6552470   9.4788670
  14.7445390  60.6265380  10.3977250  16.8776370  59.3422610   8.3375890
  16.8164770  58.3983830   8.1906910  17.6568400  59.4502700   8.8829350
   1.8057140  59.3131750   4.8031700   2.5636500  59.4260630   4.2295730
   1.3434310  60.1500950   4.7575130   8.3470950  61.4271020   7.7934010
   7.5345460  61.0527910   7.4529890   8.8512590  60.6716100   8.0955200
  12.8495930  58.0913470   9.0317080  13.4525300  58.6633680   9.5065600
  12.1088920  58.6552910   8.8090980  15.9930530  58.4935030   4.3057360
  16.1881160  59.3918480   4.5724790  15.2060400  58.2622110   4.7990310
   2.7891820  74.1748200   4.7449980   2.2639440  74.5556230   4.0411940
   2.7136400  74.7998970   5.4659690   4.1782290  59.8395800   3.3433670
   4.7075050  59.0525600   3.2141620   4.8110610  60.5186990   3.5769200
   6.3720130  59.5770940   6.3979060   5.7422870  58.8758250   6.5649190
   5.8325270  60.3375070   6.1812220   9.3112080  76.1910170  19.0689670
  10.2379390  75.9554440  19.1125630   9.2962510  77.0182170  18.5875700
  17.5457140  75.7335740   6.0663920  17.7209330  75.0473480   5.4224840
  16.8478710  76.2582790   5.6740590   6.4975690  58.8554920  18.8331550
   6.2159960  59.3588520  18.0692370   6.8795390  58.0576670  18.4673680
   5.3884790  76.1230580   3.6199230   6.1203610  75.8389860   3.0723120
   5.6478460  75.8843860   4.5098610   4.5499580  72.2395310   3.6245560
   3.9208460  72.7080410   4.1731390   4.6647410  71.3944530   4.0591750
  13.0991150  58.2708500  19.4112020  12.9856600  58.5903110  20.3063540
  13.9160890  58.6721010  19.1149300  15.8789640  75.4180030  18.8930710
  16.6714960  74.9229260  18.6856670  16.1722790  76.0970170  19.5006320
  12.0049300  47.5157480 139.9694680  11.9243350  46.6012090 139.6986390
  11.5913720  48.0124550 139.2634390  10.1367340  49.2936500 141.8503950
   9.3609440  48.8136940 142.1402520  10.7880270  48.6142150 141.6760110
   4.1533170  49.6056310 142.7279710   3.3218050  49.3505020 143.1276220
   4.7614150  49.6767080 143.4637630  14.1574770  53.6996690 140.6303080
  13.6956300  52.9283930 140.9590250  14.9700320  53.7262760 141.1355530
   4.1334430  53.6396400 142.9237730   4.4362470  52.7494140 142.7447950
   4.8778020  54.1966620 142.6959980   2.5625120  44.5658200 136.5122100
   1.6741820  44.9074170 136.4101980   2.8466310  44.3658520 135.6202930
  10.3838080  55.9854700 140.2507070   9.7649520  56.4412200 139.6801510
  11.2389860  56.1406160 139.8496770   9.5776330  51.9693690 141.8574110
   9.5084610  51.0283630 141.6963240  10.3396190  52.0595100 142.4296680
   1.7683000  42.5748210 144.1830730   1.5885840  41.6773960 144.4633490
   1.3663080  43.1220080 144.8577680  10.6081500  44.7764070 142.0843040
  10.9846320  43.9035950 141.9716710  10.5101010  45.1122770 141.1933480
   4.7386510  43.1489700 137.5460480   4.8453260  44.0493430 137.8529240
   3.8278870  43.1007670 137.2555130  14.3905620  42.2714510 139.0171380
  15.2115240  41.7811080 139.0596860  14.4239700  42.8612170 139.7703220
   2.3869670  45.0708710 142.7913070   3.0679780  45.3347080 143.4100470
   2.0717720  44.2309580 143.1251080   6.5794240  46.1176070 141.8785660
   7.0872460  46.6157040 142.5190680   7.1107480  45.3411270 141.7025020
  18.6805170  44.2881260 145.5815010  17.9757340  44.6762970 145.0630120
  18.9463090  44.9831550 146.1835940   4.8630340  40.7574630 146.1449080
   4.8648780  41.2747020 145.3394980   4.0334650  40.2804810 146.1219010
  11.2501430  50.8693940 137.6438980  10.6318700  51.3343390 137.0801700
  11.7624680  51.5621420 138.0608490   6.1133190  50.3969810 144.3222580
   5.7802570  51.0238730 144.9643650   6.2899870  50.9231690 143.5424250
  14.6267100  44.2114890 141.7898920  13.9222670  44.4999780 142.3702030
  14.9879260  45.0215000 141.4298480   4.5445670  42.4684590 144.1519530
   4.8862480  43.3126640 143.8573400   3.6061480  42.6168330 144.2684870
   5.3252290  52.3650610 146.1371760   5.9426290  53.0401690 145.8556210
   4.4645410  52.7738590 146.0459260  16.2429880  53.8290020 144.0526400
  15.5593400  54.4989130 144.0443070  16.7824170  54.0270670 143.2871260
  17.6954020  43.6569680 142.1808130  16.7478930  43.6908660 142.3123560
  18.0204010  44.4708630 142.5657490   8.2273560  39.9566860 140.4764120
   8.5348540  39.4013750 139.7599620   7.2974260  40.0911320 140.2937110
  13.7788620  55.6734150 142.7671580  13.7915780  55.2696440 141.8993840
  13.2263840  56.4481440 142.6633010  15.0734040  52.3950370 137.8561750
  14.9630370  51.4524700 137.9811170  15.0702290  52.7566010 138.7424510
  13.1774060  50.5763990 144.0954190  13.5942850  50.3624100 143.2607650
  13.9013880  50.8336780 144.6662810  10.6154320  48.0215690 137.2124240
   9.6883600  47.9553070 137.4412710  10.7679140  48.9595820 137.0979480
  10.6023400  44.2932690 134.2091400   9.6627070  44.4546650 134.2943860
  10.9206660  45.0118370 133.6627390  17.1236160  48.9751210 144.1870430
  16.2954790  49.0444300 143.7120560  17.7186640  49.5605520 143.7186260
  14.6451610  49.5835990 137.7159490  14.0264030  49.2455540 137.0685790
  14.6276060  48.9395750 138.4238680  14.0878170  45.7620530 145.1325300
  13.6749350  46.5874240 145.3865290  13.3554120  45.1765570 144.9401660
   6.2210960  48.5480430 139.9943970   5.8167960  47.8357680 139.4989870
   6.3074080  48.2033670 140.8832010   6.6892660  52.2347990 142.1583180
   6.3920950  51.6293460 141.4790960   7.6392480  52.2725300 142.0472540
   4.9339580  45.3223640 143.7743010   5.4854170  45.4318980 142.9996260
   5.4483090  45.6961240 144.4898240  14.7778270  55.8079860 145.8206280
  14.3008830  56.6152050 145.6278890  14.0940060  55.1558190 145.9732490
   5.7811090  51.9729680 148.8090980   4.8839620  52.1969650 149.0564380
   5.8063960  52.0964620 147.8602380  12.8216310  48.8222800 134.7232240
  13.2609590  47.9845230 134.5770060  13.5344730  49.4552200 134.8096380
   4.6082310  48.8443000 147.3848350   4.4690080  49.7165800 147.7535750
   3.7263670  48.5015810 147.2396290  10.9311690  53.7618870 138.6913480
  11.3707600  54.5043200 138.2768870  10.8698580  54.0045440 139.6152440
   6.4062660  54.7864700 149.5933500   6.3778090  55.1907650 148.7261930
   6.2427630  53.8575060 149.4305100  16.4033450  40.0765610 133.0373280
  16.0906110  40.1692440 133.9372350  17.1645920  40.6546640 132.9870710
   2.9215590  47.4425410 137.4950620   2.8013190  48.1687500 136.8831890
   2.6116480  46.6728320 137.0178530   1.8048590  52.3140740 139.7125440
   1.3976670  52.4555330 138.8579040   2.6961600  52.0300900 139.5096650
  17.7610730  52.7604650 148.0497680  17.8873790  52.5216530 147.1314860
  17.8032110  51.9289190 148.5219760  11.6227470  56.4632650 146.6192490
  12.1372140  56.3740660 147.4214920  10.7796550  56.8092350 146.9120400
  13.5981870  56.7487990 136.0476490  13.4383010  56.4590930 136.9458320
  13.4328580  55.9728120 135.5121720   6.0770250  56.5286520 137.8248110
   5.9012730  55.6122060 137.6115910   5.2225990  56.8873810 138.0645910
  13.3008000  54.2575550 134.6074490  12.6073160  54.2552840 133.9476770
  14.0430860  53.8334870 134.1768660  12.8657930  55.8838260 138.6822980
  13.3214880  55.1027640 138.9961600  13.2050450  56.5945080 139.2264160
  17.6134740  44.8137110 149.0147420  16.9979010  45.3216780 148.4862880
  17.2931160  43.9135440 148.9573360   5.3879250  40.7860480 140.8774290
   4.9447400  41.5670020 140.5458810   5.9464240  41.1090370 141.5845230
   9.6749060  43.6529000 146.4809610   9.2128430  43.8612020 147.2929550
   9.2727170  42.8388350 146.1780280  14.6753570  44.8737950 147.6106270
  13.8247160  44.5743700 147.9315340  14.5155360  45.1179960 146.6990090
  11.7703280  46.3739700 149.7105060  12.0956690  45.5403450 149.3707290
  12.5583610  46.8968220 149.8583390   8.5038070  40.4071180 135.7580120
   7.8792250  40.4031050 136.4833430   8.4168190  39.5402140 135.3616090
   7.4255150  41.3307810 142.7363890   7.7227480  42.2370640 142.6555910
   7.9740710  40.8426590 142.1223460   5.1793470  45.9094050 138.6055540
   4.9534390  45.6931220 139.5102160   4.3986000  46.3422510 138.2601510
  12.4091230  45.9157420 137.2046190  11.8100120  46.6393220 137.0209810
  12.9570840  45.8534200 136.4222640   7.6192680  46.8079630 149.2715810
   7.5236280  45.8674360 149.1216210   8.4624660  47.0294700 148.8763880
  11.0156100  44.5520960 139.2349470  11.4085670  44.8693160 138.4218160
  11.3772950  43.6732840 139.3493990   2.7503220  43.2193300 147.4249590
   2.3566610  44.0668510 147.6322370   2.0621620  42.5819670 147.6158230
  11.6011240  47.1426710 143.3300250  10.8692360  47.6513520 143.6790350
  11.2035580  46.3256690 143.0289030   8.0388630  43.8180910 141.7352740
   8.0424690  43.3770860 140.8857280   8.9339750  44.1398240 141.8424560
   3.8891010  43.7007400 140.6946950   3.5491060  44.1782630 141.4514000
   3.1268330  43.2472520 140.3348050   8.1008780  44.8192990 134.7259500
   8.2221600  44.7779470 135.6745320   7.7157290  45.6817140 134.5706230
  12.0637150  42.5960390 142.7423190  12.0809890  43.0469040 143.5865040
  11.8152730  41.6966030 142.9556630   7.1130280  47.1294130 134.1242800
   6.5447180  46.6812380 133.4978710   7.8219280  47.4886910 133.5907950
  15.4907900  40.0092570 148.5809570  15.8153670  39.2782230 149.1067550
  15.5264410  39.6906210 147.6790560   2.1899460  51.0306150 148.0009530
   1.8054250  50.3899820 148.5992490   2.5011650  51.7342270 148.5704260
   8.3396600  47.8782690 143.4818150   8.7066730  47.4041260 144.2279490
   8.1501660  48.7524260 143.8226490   6.1295970  46.9191330 145.8002360
   5.8253040  47.7983310 146.0252720   7.0842430  46.9791120 145.8359800
   4.6577760  51.1252320 136.3969210   3.8840020  50.5849940 136.2367930
   5.3872390  50.6058930 136.0586970  15.4165740  50.1217680 142.1895600
  16.1364860  50.6172970 141.7991710  15.2147560  49.4435570 141.5449470
  10.8775680  41.5155640 136.3324990  10.0640290  41.0168810 136.2570300
  10.6837630  42.3553890 135.9161340  10.7984540  50.1926740 148.0764600
  10.7321850  49.2722410 147.8222190  10.1689680  50.2902180 148.7909240
  13.5924070  45.8875290 134.6287150  14.4803690  46.1992520 134.4538490
  13.5629160  45.0147540 134.2367730   4.7015160  50.7932700 140.0348020
   5.2193830  49.9900960 139.9804910   4.2499180  50.7311840 140.8764850
   9.5884660  52.0598980 135.3075320   9.9300360  52.8041210 134.8118640
   8.7597370  52.3730100 135.6700150   2.1859700  47.7594070 146.9473720
   1.8274640  48.4247920 147.5347060   1.8914260  46.9277620 147.3186340
   5.3872820  48.2178310 149.8313270   5.0872960  48.3635490 148.9341090
   6.1584060  47.6583600 149.7386660  10.7301270  53.0147310 147.8268400
  10.7445810  52.0828270 147.6087310  10.0226370  53.1007070 148.4658170
  15.8638340  47.1987130 134.0967010  15.7802060  47.6301350 133.2463450
  16.5832530  47.6585480 134.5293830  16.9412480  49.6554650 147.1736980
  16.2160670  50.2483430 146.9766370  17.4687940  49.6478190 146.3750350
  16.8925590  54.0529390 136.8249140  16.2501750  53.3985010 137.0992860
  16.5056250  54.4584480 136.0489810  12.4712070  51.3814820 140.6720830
  12.8235890  50.7842950 140.0122200  11.5874400  51.0559050 140.8429080
   8.5575350  52.1412510 138.0791240   9.2446480  52.6881720 138.4598830
   7.7707770  52.6853240 138.1140850   7.8602560  49.1458540 137.6916600
   8.3165340  49.9563790 137.9176790   7.5090770  48.8281680 138.5235090
  10.1635170  54.6564880 144.9208900  10.8077390  54.8624260 145.5982320
  10.5264610  53.8953280 144.4679750   3.7614340  39.4896190 138.1639120
   3.6328970  39.4814090 139.1124040   2.9376360  39.8279280 137.8130130
  11.4367250  52.6597230 143.6386350  12.0789480  51.9590390 143.7518520
  11.9616600  53.4395670 143.4583240  15.2822970  52.9445850 133.3625490
  15.0560550  52.2276290 133.9550130  14.8919170  52.6958290 132.5247240
  13.2104870  53.4592130 146.8422410  13.5461110  54.0458820 147.5200330
  12.2905210  53.3284840 147.0720200  14.8639220  50.8617790 135.0239650
  14.5760920  51.3230480 135.8117530  15.6591390  50.4015560 135.2923870
   7.0807620  54.3543910 134.9543620   7.0717720  55.0873600 134.3388130
   6.1605980  54.1075490 135.0470580   2.6814260  49.5758800 135.6990380
   2.0742210  50.3157700 135.7085680   3.1563610  49.6658160 134.8728580
  12.2547050  43.7409620 145.3747270  12.6227870  42.9204830 145.7026840
  11.3945250  43.8011510 145.7902920  15.6209080  42.6966560 136.1834830
  14.9922240  42.8012230 135.4693060  15.1261000  42.9163340 136.9728710
  10.0667220  54.4172150 133.6168810  10.1679200  54.2136140 132.6870790
   9.1668960  54.1630430 133.8216590   7.5893110  44.9752510 137.5992710
   6.8809260  45.4438850 138.0406320   7.8737590  44.3174520 138.2337900
   9.2149040  46.3949210 145.5985240   9.7134290  46.8695030 146.2637090
   9.3571990  45.4712730 145.8055270  11.6208540  41.7003170 139.0388500
  11.4976320  41.7189300 138.0898010  12.5693100  41.7482110 139.1586900
   8.7085330  56.9358470 138.3116480   8.9626830  56.8979860 137.3895850
   7.7597810  56.8091800 138.3044730   5.7928130  43.2837590 134.9743420
   6.6418660  43.7207740 134.9083610   5.4259400  43.5957850 135.8015480
  16.4215900  42.6117170 146.4413630  15.9189500  43.3522570 146.7807440
  17.2372560  43.0001170 146.1250420  14.7137910  47.8550350 139.8874990
  13.7728050  47.8700580 140.0622680  15.0281980  47.0686310 140.3335290
   4.6919550  49.5369950 133.4478950   5.4582820  49.4251310 134.0104380
   4.7694240  48.8407920 132.7955720   3.3866310  46.9695020 134.1311840
   3.4669900  46.0222530 134.2429240   4.2786060  47.3001900 134.2372500
  16.7163490  55.0259200 141.5629250  16.8410910  55.8490370 142.0353060
  17.5829050  54.8149930 141.2153400   4.1881020  57.1190410 141.2346380
   4.9243500  56.5705870 141.5054950   4.5721940  57.9846420 141.0952370
   7.2983330  56.2920720 133.0571950   8.0911940  56.5809550 132.6053740
   6.7787680  55.8612890 132.3784430  13.4604300  56.1396640 148.9816780
  14.4126050  56.0554660 148.9317020  13.3132520  56.8038350 149.6550570
  16.3513500  55.5190850 134.4808690  16.0655010  55.1055990 133.6662870
  16.1533050  56.4478560 134.3609210   7.8160730  51.5124130 132.9214300
   7.7111370  50.8976480 133.6475680   7.6484950  50.9890020 132.1377310
   7.9675050  50.1980930 148.9003530   7.2020720  50.7665930 148.8158200
   8.1491010  49.9057140 148.0071760  11.0563460  50.5744160 133.5256290
  10.5073560  51.0213460 134.1699030  11.6782720  50.0693410 134.0493960
  15.1098400  51.9286260 149.4578550  15.8507870  52.2662020 148.9546010
  14.3471080  52.0978320 148.9048320   6.7238580  49.5335080 135.4221590
   7.1455000  49.3674950 136.2652980   6.8489420  48.7235310 134.9276730
   4.8866000  45.5131630 148.2292570   4.3562460  45.0222580 147.6015910
   5.5554070  45.9415830 147.6950500   9.2366220  48.5572690 132.6698690
   9.7571880  47.8421710 132.3039840   9.8834620  49.1958560 132.9699200
  13.7844060  49.9801090 147.9933760  14.1985080  50.1346170 148.8424180
  12.8495060  50.1056310 148.1559540  14.2566230  47.3197250 149.9972910
  14.8387000  46.5649570 149.9093390  14.4328000  47.8504690 149.2204390
   5.3738300  42.4794000 148.3089860   5.2795170  41.8614750 147.5840730
   4.7935690  43.2060290 148.0819770   8.1399740  41.0367240 145.3417250
   7.6917040  41.0591500 144.4962800   7.5064940  40.6386260 145.9387550
   8.5459290  49.9321570 145.9629690   8.9647400  50.7754300 145.7905930
   7.6267920  50.0693610 145.7336470  10.8823190  47.6637750 147.3467530
  11.0019400  47.0678890 148.0862370  11.7417190  47.7007440 146.9268830
  13.2211090  48.2174940 145.9230040  12.6946310  48.7417560 145.3195180
  13.5642430  48.8502330 146.5539770   5.6197480  45.6068310 132.3679750
   5.4186540  44.7435670 132.7293090   5.4489530  45.5201670 131.4301350
   6.3966710  56.2374580 147.0787420   5.8587800  56.9620640 146.7596120
   6.6500670  55.7604920 146.2884760   7.6491960  44.2059100 148.6043350
   8.2391650  43.8974950 149.2921170   6.8312200  43.7338850 148.7603250
  12.4685390  43.8224910 148.8376370  11.7800910  43.1606450 148.7726360
  13.1891410  43.3763180 149.2824830  13.0985790  40.4176540 134.8966630
  13.3788080  39.5744440 135.2526050  12.3251520  40.6499650 135.4105380
   4.4180280  42.7068930 132.3557630   4.7206180  42.7136360 131.4476780
   5.1574870  42.3566790 132.8525290   9.2528920  57.4725790 147.3374070
   9.1787620  58.3760930 147.6446440   8.3507760  57.1537690 147.3096140
   7.6365210  41.6503550 133.3413830   7.2887210  40.9727540 132.7616280
   7.8377980  41.1893060 134.1557220   9.8014250  56.6384300 134.9600430
  10.6965040  56.9769270 134.9819190   9.8331880  55.9163710 134.3324710
   3.4410410  52.0111350 133.1887430   3.8785280  52.5541020 133.8445010
   3.9258140  51.1858300 133.1983770   5.2518130  53.1309390 138.3009660
   4.9513670  53.0074360 139.2013570   5.1455620  52.2717980 137.8925390
  16.7808600  55.1687970 147.6666630  16.1810590  55.2280530 146.9230550
  16.9102500  54.2292950 147.7963480  18.0210050  52.9105790 133.0036340
  17.1903010  52.9782440 133.4743570  18.1981880  53.8009910 132.7003200
  17.4766510  49.6553270 135.5070540  18.2385420  50.2249920 135.6130230
  17.4920880  49.0880470 136.2778850  18.4826480  50.5103370 140.3512470
  18.8535310  49.7270690 139.9448440  19.1228410  51.1992470 140.1729770
  15.4660240  51.8939950 145.7642790  14.6520080  52.3237110 146.0268580
  15.8734440  52.5058360 145.1511840  17.5285680  49.9487640 132.6643060
  17.8034520  50.8566520 132.5362280  17.3396420  49.8850170 133.6005050
  13.9261290  42.9732490 133.9596690  14.3446170  42.7863470 133.1193350
  13.6197350  42.1211540 134.2699620  17.4251020  47.8856630 137.6572490
  17.0494620  47.1184560 137.2253780  16.6954140  48.2679330 138.1447420
   2.0146780  48.5643770 144.2781540   2.3819820  48.4771170 145.1577560
   1.4457600  47.8010320 144.1788400  16.8150640  47.0328150 147.2912010
  16.5836730  46.8040900 146.3909960  17.0755190  47.9527700 147.2456900
  16.7001980  46.1114120 140.9579730  17.2239460  45.6176770 140.3269900
  17.2861400  46.2464480 141.7027300  16.8791700  46.1953990 144.4799280
  15.9294410  46.1617530 144.5944270  17.0604710  47.1054100 144.2449050
   2.7336140  44.4455670 133.5897910   3.4427840  44.0238890 133.1045190
   2.0176080  44.5130900 132.9581260   2.3810300  40.4995000 132.6300560
   3.1038430  41.0403940 132.9481780   2.6534820  40.2258420 131.7542100
  16.1901950  45.3687470 136.8972140  16.6861070  45.1358340 137.6821020
  15.9918020  44.5299310 136.4809780   2.0702490  39.7501190 142.5323180
   2.7178680  39.1998570 142.0918340   2.4904330  40.0044340 143.3538990
  17.6189110  44.0048420 139.4309820  17.5088390  43.8504460 140.3692090
  18.3796700  43.4769360 139.1885230  15.9654830  39.9442550 145.8892820
  16.6027050  40.5576690 146.2552010  16.1129720  39.9803210 144.9442050
  18.5079380  41.8356340 132.6715960  19.4328690  41.7037520 132.4634250
  18.4855170  41.9149160 133.6252410  18.5817870  42.6067000 135.2972670
  17.7869370  42.5412120 135.8265580  18.7861150  43.5417640 135.2858020
  15.5236290  56.6458550 139.2911060  16.1195360  56.3243120 138.6145480
  15.7814440  56.1730370 140.0824330   1.8234490  39.9056860 145.2748500
   1.4749310  40.3620680 146.0406680   1.4922190  39.0113990 145.3570930
   7.1304890  54.6336050 145.0411410   6.8896250  54.9010610 144.1541930
   8.0707530  54.8041780 145.0962270   9.3359310  41.0968740 148.7967920
   9.2748200  41.6890570 149.5463330  10.2759690  40.9894700 148.6518180
  11.9733870  40.7538800 148.4360210  12.5874280  41.0718090 147.7741290
  12.5183430  40.2687390 149.0556070  18.3909050  56.6530430 145.8422050
  17.8967330  57.0499300 145.1249180  17.7822340  56.0279640 146.2359330
   2.4955130  39.4333060 148.5499270   3.0438120  39.2521110 147.7865380
   2.5610440  38.6427170 149.0855580   3.2686890  56.0238710 146.5599470
   2.6747210  55.8923410 147.2989510   3.2610730  55.1876850 146.0941570
  12.7141910  39.3170940 144.7629500  11.8401750  39.6506050 144.5602430
  12.6052660  38.8444120 145.5881370  13.6213890  41.5241810 146.1471220
  13.2927250  40.7093570 145.7672950  14.5696190  41.4811620 146.0236910
  16.0748500  57.2953850 143.1208790  15.6151470  58.0469660 142.7466810
  15.4460960  56.5760320 143.0623590   2.8999120  53.3897090 145.5107510
   2.1733180  52.7702380 145.4433460   2.9608270  53.7837700 144.6405590
   6.5044220  55.6042090 142.2956920   7.0209240  54.9929450 141.7705180
   7.1541600  56.1070870 142.7867930   9.2439720  56.4950580 143.1225900
   9.5317530  56.2404880 142.2458910   9.7562940  55.9427940 143.7131470
  10.4616730  40.2340780 143.7022410   9.6788520  40.7086280 143.9819170
  10.1679660  39.3295610 143.5935590  15.0137800  40.9363880 141.7471500
  15.4545890  40.8808980 140.8993100  14.7445390  41.8521890 141.8181680
  16.8776370  40.5679120 139.7580320  16.8164770  39.6240340 139.6111340
  17.6568400  40.6759210 140.3033780   1.8057140  40.5388260 136.2236130
   2.5636500  40.6517140 135.6500160   1.3434310  41.3757460 136.1779560
   8.3470950  42.6527530 139.2138440   7.5345460  42.2784420 138.8734320
   8.8512590  41.8972610 139.5159630  12.8495930  39.3169980 140.4521510
  13.4525300  39.8890190 140.9270030  12.1088920  39.8809420 140.2295410
  15.9930530  39.7191540 135.7261790  16.1881160  40.6174990 135.9929220
  15.2060400  39.4878620 136.2194740   2.7891820  55.4004710 136.1654410
   2.2639440  55.7812740 135.4616370   2.7136400  56.0255480 136.8864120
   4.1782290  41.0652310 134.7638100   4.7075050  40.2782110 134.6346050
   4.8110610  41.7443500 134.9973630   6.3720130  40.8027450 137.8183490
   5.7422870  40.1014760 137.9853620   5.8325270  41.5631580 137.6016650
  17.5457140  56.9592250 137.4868350  17.7209330  56.2729990 136.8429270
  16.8478710  57.4839300 137.0945020   5.3884790  57.3487090 135.0403660
   6.1203610  57.0646370 134.4927550   5.6478460  57.1100370 135.9303040
   4.5499580  53.4651820 135.0449990   3.9208460  53.9336920 135.5935820
   4.6647410  52.6201040 135.4796180  12.0049300  47.5157480 121.1951190
  11.9243350  46.6012090 120.9242900  11.5913720  48.0124550 120.4890900
  10.1367340  49.2936500 123.0760460   9.3609440  48.8136940 123.3659030
  10.7880270  48.6142150 122.9016620   4.1533170  49.6056310 123.9536220
   3.3218050  49.3505020 124.3532730   4.7614150  49.6767080 124.6894140
  14.1574770  53.6996690 121.8559590  13.6956300  52.9283930 122.1846760
  14.9700320  53.7262760 122.3612040   4.1334430  53.6396400 124.1494240
   4.4362470  52.7494140 123.9704460   4.8778020  54.1966620 123.9216490
   2.5625120  44.5658200 117.7378610   1.6741820  44.9074170 117.6358490
   2.8466310  44.3658520 116.8459440  10.3838080  55.9854700 121.4763580
   9.7649520  56.4412200 120.9058020  11.2389860  56.1406160 121.0753280
   9.5776330  51.9693690 123.0830620   9.5084610  51.0283630 122.9219750
  10.3396190  52.0595100 123.6553190   1.7683000  42.5748210 125.4087240
   1.5885840  41.6773960 125.6890000   1.3663080  43.1220080 126.0834190
  10.6081500  44.7764070 123.3099550  10.9846320  43.9035950 123.1973220
  10.5101010  45.1122770 122.4189990   4.7386510  43.1489700 118.7716990
   4.8453260  44.0493430 119.0785750   3.8278870  43.1007670 118.4811640
  14.3905620  42.2714510 120.2427890  15.2115240  41.7811080 120.2853370
  14.4239700  42.8612170 120.9959730   2.3869670  45.0708710 124.0169580
   3.0679780  45.3347080 124.6356980   2.0717720  44.2309580 124.3507590
   6.5794240  46.1176070 123.1042170   7.0872460  46.6157040 123.7447190
   7.1107480  45.3411270 122.9281530  18.6805170  44.2881260 126.8071520
  17.9757340  44.6762970 126.2886630  18.9463090  44.9831550 127.4092450
   4.8630340  40.7574630 127.3705590   4.8648780  41.2747020 126.5651490
   4.0334650  40.2804810 127.3475520  11.2501430  50.8693940 118.8695490
  10.6318700  51.3343390 118.3058210  11.7624680  51.5621420 119.2865000
   6.1133190  50.3969810 125.5479090   5.7802570  51.0238730 126.1900160
   6.2899870  50.9231690 124.7680760  14.6267100  44.2114890 123.0155430
  13.9222670  44.4999780 123.5958540  14.9879260  45.0215000 122.6554990
   4.5445670  42.4684590 125.3776040   4.8862480  43.3126640 125.0829910
   3.6061480  42.6168330 125.4941380   5.3252290  52.3650610 127.3628270
   5.9426290  53.0401690 127.0812720   4.4645410  52.7738590 127.2715770
  16.2429880  53.8290020 125.2782910  15.5593400  54.4989130 125.2699580
  16.7824170  54.0270670 124.5127770  17.6954020  43.6569680 123.4064640
  16.7478930  43.6908660 123.5380070  18.0204010  44.4708630 123.7914000
   8.2273560  39.9566860 121.7020630   8.5348540  39.4013750 120.9856130
   7.2974260  40.0911320 121.5193620  13.7788620  55.6734150 123.9928090
  13.7915780  55.2696440 123.1250350  13.2263840  56.4481440 123.8889520
  15.0734040  52.3950370 119.0818260  14.9630370  51.4524700 119.2067680
  15.0702290  52.7566010 119.9681020  13.1774060  50.5763990 125.3210700
  13.5942850  50.3624100 124.4864160  13.9013880  50.8336780 125.8919320
  10.6154320  48.0215690 118.4380750   9.6883600  47.9553070 118.6669220
  10.7679140  48.9595820 118.3235990  10.6023400  44.2932690 115.4347910
   9.6627070  44.4546650 115.5200370  10.9206660  45.0118370 114.8883900
  17.1236160  48.9751210 125.4126940  16.2954790  49.0444300 124.9377070
  17.7186640  49.5605520 124.9442770  14.6451610  49.5835990 118.9416000
  14.0264030  49.2455540 118.2942300  14.6276060  48.9395750 119.6495190
  14.0878170  45.7620530 126.3581810  13.6749350  46.5874240 126.6121800
  13.3554120  45.1765570 126.1658170   6.2210960  48.5480430 121.2200480
   5.8167960  47.8357680 120.7246380   6.3074080  48.2033670 122.1088520
   6.6892660  52.2347990 123.3839690   6.3920950  51.6293460 122.7047470
   7.6392480  52.2725300 123.2729050   4.9339580  45.3223640 124.9999520
   5.4854170  45.4318980 124.2252770   5.4483090  45.6961240 125.7154750
  14.7778270  55.8079860 127.0462790  14.3008830  56.6152050 126.8535400
  14.0940060  55.1558190 127.1989000   5.7811090  51.9729680 130.0347490
   4.8839620  52.1969650 130.2820890   5.8063960  52.0964620 129.0858890
  12.8216310  48.8222800 115.9488750  13.2609590  47.9845230 115.8026570
  13.5344730  49.4552200 116.0352890   4.6082310  48.8443000 128.6104860
   4.4690080  49.7165800 128.9792260   3.7263670  48.5015810 128.4652800
  10.9311690  53.7618870 119.9169990  11.3707600  54.5043200 119.5025380
  10.8698580  54.0045440 120.8408950   6.4062660  54.7864700 130.8190010
   6.3778090  55.1907650 129.9518440   6.2427630  53.8575060 130.6561610
  16.4033450  40.0765610 114.2629790  16.0906110  40.1692440 115.1628860
  17.1645920  40.6546640 114.2127220   2.9215590  47.4425410 118.7207130
   2.8013190  48.1687500 118.1088400   2.6116480  46.6728320 118.2435040
  18.3577480  55.5691800 132.1154180  18.8337200  56.0474690 132.7943260
  18.9784640  55.5009290 131.3899680   1.8048590  52.3140740 120.9381950
   1.3976670  52.4555330 120.0835550   2.6961600  52.0300900 120.7353160
  17.7610730  52.7604650 129.2754190  17.8873790  52.5216530 128.3571370
  17.8032110  51.9289190 129.7476270  11.6227470  56.4632650 127.8449000
  12.1372140  56.3740660 128.6471430  10.7796550  56.8092350 128.1376910
  13.5981870  56.7487990 117.2733000  13.4383010  56.4590930 118.1714830
  13.4328580  55.9728120 116.7378230   6.0770250  56.5286520 119.0504620
   5.9012730  55.6122060 118.8372420   5.2225990  56.8873810 119.2902420
  13.3008000  54.2575550 115.8331000  12.6073160  54.2552840 115.1733280
  14.0430860  53.8334870 115.4025170  12.8657930  55.8838260 119.9079490
  13.3214880  55.1027640 120.2218110  13.2050450  56.5945080 120.4520670
  17.6134740  44.8137110 130.2403930  16.9979010  45.3216780 129.7119390
  17.2931160  43.9135440 130.1829870   5.3879250  40.7860480 122.1030800
   4.9447400  41.5670020 121.7715320   5.9464240  41.1090370 122.8101740
   9.6749060  43.6529000 127.7066120   9.2128430  43.8612020 128.5186060
   9.2727170  42.8388350 127.4036790  14.6753570  44.8737950 128.8362780
  13.8247160  44.5743700 129.1571850  14.5155360  45.1179960 127.9246600
  11.7703280  46.3739700 130.9361570  12.0956690  45.5403450 130.5963800
  12.5583610  46.8968220 131.0839900   8.5038070  40.4071180 116.9836630
   7.8792250  40.4031050 117.7089940   8.4168190  39.5402140 116.5872600
   7.4255150  41.3307810 123.9620400   7.7227480  42.2370640 123.8812420
   7.9740710  40.8426590 123.3479970   5.1793470  45.9094050 119.8312050
   4.9534390  45.6931220 120.7358670   4.3986000  46.3422510 119.4858020
  12.4091230  45.9157420 118.4302700  11.8100120  46.6393220 118.2466320
  12.9570840  45.8534200 117.6479150   7.6192680  46.8079630 130.4972320
   7.5236280  45.8674360 130.3472720   8.4624660  47.0294700 130.1020390
  11.0156100  44.5520960 120.4605980  11.4085670  44.8693160 119.6474670
  11.3772950  43.6732840 120.5750500   2.7503220  43.2193300 128.6506100
   2.3566610  44.0668510 128.8578880   2.0621620  42.5819670 128.8414740
   9.3248270  43.3028270 131.7202840   8.6346590  43.1100470 132.3548930
  10.0680570  43.5862910 132.2527140  11.6011240  47.1426710 124.5556760
  10.8692360  47.6513520 124.9046860  11.2035580  46.3256690 124.2545540
   8.0388630  43.8180910 122.9609250   8.0424690  43.3770860 122.1113790
   8.9339750  44.1398240 123.0681070   3.8891010  43.7007400 121.9203460
   3.5491060  44.1782630 122.6770510   3.1268330  43.2472520 121.5604560
   8.1008780  44.8192990 115.9516010   8.2221600  44.7779470 116.9001830
   7.7157290  45.6817140 115.7962740  12.0637150  42.5960390 123.9679700
  12.0809890  43.0469040 124.8121550  11.8152730  41.6966030 124.1813140
   7.1130280  47.1294130 115.3499310   6.5447180  46.6812380 114.7235220
   7.8219280  47.4886910 114.8164460  15.4907900  40.0092570 129.8066080
  15.8153670  39.2782230 130.3324060  15.5264410  39.6906210 128.9047070
   2.1899460  51.0306150 129.2266040   1.8054250  50.3899820 129.8249000
   2.5011650  51.7342270 129.7960770   8.3396600  47.8782690 124.7074660
   8.7066730  47.4041260 125.4536000   8.1501660  48.7524260 125.0483000
   6.1295970  46.9191330 127.0258870   5.8253040  47.7983310 127.2509230
   7.0842430  46.9791120 127.0616310   4.6577760  51.1252320 117.6225720
   3.8840020  50.5849940 117.4624440   5.3872390  50.6058930 117.2843480
  15.4165740  50.1217680 123.4152110  16.1364860  50.6172970 123.0248220
  15.2147560  49.4435570 122.7705980  10.8775680  41.5155640 117.5581500
  10.0640290  41.0168810 117.4826810  10.6837630  42.3553890 117.1417850
  10.7984540  50.1926740 129.3021110  10.7321850  49.2722410 129.0478700
  10.1689680  50.2902180 130.0165750  13.5924070  45.8875290 115.8543660
  14.4803690  46.1992520 115.6795000  13.5629160  45.0147540 115.4624240
   4.7015160  50.7932700 121.2604530   5.2193830  49.9900960 121.2061420
   4.2499180  50.7311840 122.1021360   9.5884660  52.0598980 116.5331830
   9.9300360  52.8041210 116.0375150   8.7597370  52.3730100 116.8956660
   2.1859700  47.7594070 128.1730230   1.8274640  48.4247920 128.7603570
   1.8914260  46.9277620 128.5442850   5.3872820  48.2178310 131.0569780
   5.0872960  48.3635490 130.1597600   6.1584060  47.6583600 130.9643170
  10.7301270  53.0147310 129.0524910  10.7445810  52.0828270 128.8343820
  10.0226370  53.1007070 129.6914680  15.8638340  47.1987130 115.3223520
  15.7802060  47.6301350 114.4719960  16.5832530  47.6585480 115.7550340
  16.9412480  49.6554650 128.3993490  16.2160670  50.2483430 128.2022880
  17.4687940  49.6478190 127.6006860  16.8925590  54.0529390 118.0505650
  16.2501750  53.3985010 118.3249370  16.5056250  54.4584480 117.2746320
  12.4712070  51.3814820 121.8977340  12.8235890  50.7842950 121.2378710
  11.5874400  51.0559050 122.0685590   8.5575350  52.1412510 119.3047750
   9.2446480  52.6881720 119.6855340   7.7707770  52.6853240 119.3397360
   7.8602560  49.1458540 118.9173110   8.3165340  49.9563790 119.1433300
   7.5090770  48.8281680 119.7491600  10.1635170  54.6564880 126.1465410
  10.8077390  54.8624260 126.8238830  10.5264610  53.8953280 125.6936260
   3.7614340  39.4896190 119.3895630   3.6328970  39.4814090 120.3380550
   2.9376360  39.8279280 119.0386640  11.4367250  52.6597230 124.8642860
  12.0789480  51.9590390 124.9775030  11.9616600  53.4395670 124.6839750
  15.2822970  52.9445850 114.5882000  15.0560550  52.2276290 115.1806640
  14.8919170  52.6958290 113.7503750  13.2104870  53.4592130 128.0678920
  13.5461110  54.0458820 128.7456840  12.2905210  53.3284840 128.2976710
  14.8639220  50.8617790 116.2496160  14.5760920  51.3230480 117.0374040
  15.6591390  50.4015560 116.5180380   9.0393450  53.5083460 131.2366980
   8.7190320  52.7892700 131.7812670   8.3651810  54.1838530 131.3103040
   7.0807620  54.3543910 116.1800130   7.0717720  55.0873600 115.5644640
   6.1605980  54.1075490 116.2727090   2.6814260  49.5758800 116.9246890
   2.0742210  50.3157700 116.9342190   3.1563610  49.6658160 116.0985090
  12.2547050  43.7409620 126.6003780  12.6227870  42.9204830 126.9283350
  11.3945250  43.8011510 127.0159430  15.6209080  42.6966560 117.4091340
  14.9922240  42.8012230 116.6949570  15.1261000  42.9163340 118.1985220
  10.0667220  54.4172150 114.8425320  10.1679200  54.2136140 113.9127300
   9.1668960  54.1630430 115.0473100   7.5893110  44.9752510 118.8249220
   6.8809260  45.4438850 119.2662830   7.8737590  44.3174520 119.4594410
   9.2149040  46.3949210 126.8241750   9.7134290  46.8695030 127.4893600
   9.3571990  45.4712730 127.0311780  11.6208540  41.7003170 120.2645010
  11.4976320  41.7189300 119.3154520  12.5693100  41.7482110 120.3843410
   8.7085330  56.9358470 119.5372990   8.9626830  56.8979860 118.6152360
   7.7597810  56.8091800 119.5301240   5.7928130  43.2837590 116.1999930
   6.6418660  43.7207740 116.1340120   5.4259400  43.5957850 117.0271990
  16.4215900  42.6117170 127.6670140  15.9189500  43.3522570 128.0063950
  17.2372560  43.0001170 127.3506930  14.7137910  47.8550350 121.1131500
  13.7728050  47.8700580 121.2879190  15.0281980  47.0686310 121.5591800
   4.6919550  49.5369950 114.6735460   5.4582820  49.4251310 115.2360890
   4.7694240  48.8407920 114.0212230   3.3866310  46.9695020 115.3568350
   3.4669900  46.0222530 115.4685750   4.2786060  47.3001900 115.4629010
  16.7163490  55.0259200 122.7885760  16.8410910  55.8490370 123.2609570
  17.5829050  54.8149930 122.4409910   4.1881020  57.1190410 122.4602890
   4.9243500  56.5705870 122.7311460   4.5721940  57.9846420 122.3208880
   3.1939300  56.3036480 131.6488470   3.9952030  56.6248530 132.0623870
   2.6791120  55.9432060 132.3708380   7.2983330  56.2920720 114.2828460
   8.0911940  56.5809550 113.8310250   6.7787680  55.8612890 113.6040940
  12.0303930  52.4116350 131.5963880  11.4242090  52.4347950 130.8559630
  11.7258040  51.6799390 132.1331130  13.4604300  56.1396640 130.2073290
  14.4126050  56.0554660 130.1573530  13.3132520  56.8038350 130.8807080
  16.3513500  55.5190850 115.7065200  16.0655010  55.1055990 114.8919380
  16.1533050  56.4478560 115.5865720   7.8160730  51.5124130 114.1470810
   7.7111370  50.8976480 114.8732190   7.6484950  50.9890020 113.3633820
   7.9675050  50.1980930 130.1260040   7.2020720  50.7665930 130.0414710
   8.1491010  49.9057140 129.2328270  11.0563460  50.5744160 114.7512800
  10.5073560  51.0213460 115.3955540  11.6782720  50.0693410 115.2750470
  15.1098400  51.9286260 130.6835060  15.8507870  52.2662020 130.1802520
  14.3471080  52.0978320 130.1304830   2.9460190  46.9339530 131.4874590
   2.9865530  46.6353400 132.3959820   3.8005690  47.3347140 131.3282110
   6.7238580  49.5335080 116.6478100   7.1455000  49.3674950 117.4909490
   6.8489420  48.7235310 116.1533240   4.8866000  45.5131630 129.4549080
   4.3562460  45.0222580 128.8272420   5.5554070  45.9415830 128.9207010
   9.2366220  48.5572690 113.8955200   9.7571880  47.8421710 113.5296350
   9.8834620  49.1958560 114.1955710  13.7844060  49.9801090 129.2190270
  14.1985080  50.1346170 130.0680690  12.8495060  50.1056310 129.3816050
  14.2566230  47.3197250 131.2229420  14.8387000  46.5649570 131.1349900
  14.4328000  47.8504690 130.4460900   5.3738300  42.4794000 129.5346370
   5.2795170  41.8614750 128.8097240   4.7935690  43.2060290 129.3076280
   8.1399740  41.0367240 126.5673760   7.6917040  41.0591500 125.7219310
   7.5064940  40.6386260 127.1644060   8.5459290  49.9321570 127.1886200
   8.9647400  50.7754300 127.0162440   7.6267920  50.0693610 126.9592980
  10.8823190  47.6637750 128.5724040  11.0019400  47.0678890 129.3118880
  11.7417190  47.7007440 128.1525340  13.2211090  48.2174940 127.1486550
  12.6946310  48.7417560 126.5451690  13.5642430  48.8502330 127.7796280
   5.6197480  45.6068310 113.5936260   5.4186540  44.7435670 113.9549600
   5.4489530  45.5201670 112.6557860   6.3966710  56.2374580 128.3043930
   5.8587800  56.9620640 127.9852630   6.6500670  55.7604920 127.5141270
   7.6491960  44.2059100 129.8299860   8.2391650  43.8974950 130.5177680
   6.8312200  43.7338850 129.9859760  12.4685390  43.8224910 130.0632880
  11.7800910  43.1606450 129.9982870  13.1891410  43.3763180 130.5081340
  13.0985790  40.4176540 116.1223140  13.3788080  39.5744440 116.4782560
  12.3251520  40.6499650 116.6361890   4.4180280  42.7068930 113.5814140
   4.7206180  42.7136360 112.6733290   5.1574870  42.3566790 114.0781800
   9.2528920  57.4725790 128.5630580   9.1787620  58.3760930 128.8702950
   8.3507760  57.1537690 128.5352650   7.6365210  41.6503550 114.5670340
   7.2887210  40.9727540 113.9872790   7.8377980  41.1893060 115.3813730
   9.8014250  56.6384300 116.1856940  10.6965040  56.9769270 116.2075700
   9.8331880  55.9163710 115.5581220   3.4410410  52.0111350 114.4143940
   3.8785280  52.5541020 115.0701520   3.9258140  51.1858300 114.4240280
   5.2518130  53.1309390 119.5266170   4.9513670  53.0074360 120.4270080
   5.1455620  52.2717980 119.1181900  16.7808600  55.1687970 128.8923140
  16.1810590  55.2280530 128.1487060  16.9102500  54.2292950 129.0219990
  18.0210050  52.9105790 114.2292850  17.1903010  52.9782440 114.7000080
  18.1981880  53.8009910 113.9259710  17.4766510  49.6553270 116.7327050
  18.2385420  50.2249920 116.8386740  17.4920880  49.0880470 117.5035360
  18.4826480  50.5103370 121.5768980  18.8535310  49.7270690 121.1704950
  19.1228410  51.1992470 121.3986280  15.4660240  51.8939950 126.9899300
  14.6520080  52.3237110 127.2525090  15.8734440  52.5058360 126.3768350
  17.5285680  49.9487640 113.8899570  17.8034520  50.8566520 113.7618790
  17.3396420  49.8850170 114.8261560  13.9261290  42.9732490 115.1853200
  14.3446170  42.7863470 114.3449860  13.6197350  42.1211540 115.4956130
  17.4251020  47.8856630 118.8829000  17.0494620  47.1184560 118.4510290
  16.6954140  48.2679330 119.3703930   2.0146780  48.5643770 125.5038050
   2.3819820  48.4771170 126.3834070   1.4457600  47.8010320 125.4044910
  16.8150640  47.0328150 128.5168520  16.5836730  46.8040900 127.6166470
  17.0755190  47.9527700 128.4713410  15.2538710  42.2584580 131.2948220
  16.1308890  42.2667980 131.6782220  15.2659550  41.5215420 130.6840570
  16.7001980  46.1114120 122.1836240  17.2239460  45.6176770 121.5526410
  17.2861400  46.2464480 122.9283810  16.8791700  46.1953990 125.7055790
  15.9294410  46.1617530 125.8200780  17.0604710  47.1054100 125.4705560
   2.7336140  44.4455670 114.8154420   3.4427840  44.0238890 114.3301700
   2.0176080  44.5130900 114.1837770   2.3810300  40.4995000 113.8557070
   3.1038430  41.0403940 114.1738290   2.6534820  40.2258420 112.9798610
  16.1901950  45.3687470 118.1228650  16.6861070  45.1358340 118.9077530
  15.9918020  44.5299310 117.7066290   2.0702490  39.7501190 123.7579690
   2.7178680  39.1998570 123.3174850   2.4904330  40.0044340 124.5795500
  17.6189110  44.0048420 120.6566330  17.5088390  43.8504460 121.5948600
  18.3796700  43.4769360 120.4141740  15.9654830  39.9442550 127.1149330
  16.6027050  40.5576690 127.4808520  16.1129720  39.9803210 126.1698560
  18.5079380  41.8356340 113.8972470  19.4328690  41.7037520 113.6890760
  18.4855170  41.9149160 114.8508920  18.5817870  42.6067000 116.5229180
  17.7869370  42.5412120 117.0522090  18.7861150  43.5417640 116.5114530
  15.5236290  56.6458550 120.5167570  16.1195360  56.3243120 119.8401990
  15.7814440  56.1730370 121.3080840   1.8234490  39.9056860 126.5005010
   1.4749310  40.3620680 127.2663190   1.4922190  39.0113990 126.5827440
   3.4298860  53.0776460 130.6658200   3.3868490  52.7069370 131.5472660
   3.5609870  54.0154030 130.8060020   7.1304890  54.6336050 126.2667920
   6.8896250  54.9010610 125.3798440   8.0707530  54.8041780 126.3218780
   9.3359310  41.0968740 130.0224430   9.2748200  41.6890570 130.7719840
  10.2759690  40.9894700 129.8774690  11.9733870  40.7538800 129.6616720
  12.5874280  41.0718090 128.9997800  12.5183430  40.2687390 130.2812580
  18.3909050  56.6530430 127.0678560  17.8967330  57.0499300 126.3505690
  17.7822340  56.0279640 127.4615840   2.4955130  39.4333060 129.7755780
   3.0438120  39.2521110 129.0121890   2.5610440  38.6427170 130.3112090
   3.2686890  56.0238710 127.7855980   2.6747210  55.8923410 128.5246020
   3.2610730  55.1876850 127.3198080  12.7141910  39.3170940 125.9886010
  11.8401750  39.6506050 125.7858940  12.6052660  38.8444120 126.8137880
  13.6213890  41.5241810 127.3727730  13.2927250  40.7093570 126.9929460
  14.5696190  41.4811620 127.2493420  16.0748500  57.2953850 124.3465300
  15.6151470  58.0469660 123.9723320  15.4460960  56.5760320 124.2880100
   2.8999120  53.3897090 126.7364020   2.1733180  52.7702380 126.6689970
   2.9608270  53.7837700 125.8662100   6.5044220  55.6042090 123.5213430
   7.0209240  54.9929450 122.9961690   7.1541600  56.1070870 124.0124440
   9.2439720  56.4950580 124.3482410   9.5317530  56.2404880 123.4715420
   9.7562940  55.9427940 124.9387980  10.4616730  40.2340780 124.9278920
   9.6788520  40.7086280 125.2075680  10.1679660  39.3295610 124.8192100
  15.0137800  40.9363880 122.9728010  15.4545890  40.8808980 122.1249610
  14.7445390  41.8521890 123.0438190  16.8776370  40.5679120 120.9836830
  16.8164770  39.6240340 120.8367850  17.6568400  40.6759210 121.5290290
   1.8057140  40.5388260 117.4492640   2.5636500  40.6517140 116.8756670
   1.3434310  41.3757460 117.4036070   8.3470950  42.6527530 120.4394950
   7.5345460  42.2784420 120.0990830   8.8512590  41.8972610 120.7416140
  12.8495930  39.3169980 121.6778020  13.4525300  39.8890190 122.1526540
  12.1088920  39.8809420 121.4551920  15.9930530  39.7191540 116.9518300
  16.1881160  40.6174990 117.2185730  15.2060400  39.4878620 117.4451250
   2.7891820  55.4004710 117.3910920   2.2639440  55.7812740 116.6872880
   2.7136400  56.0255480 118.1120630   4.1782290  41.0652310 115.9894610
   4.7075050  40.2782110 115.8602560   4.8110610  41.7443500 116.2230140
   6.3720130  40.8027450 119.0440000   5.7422870  40.1014760 119.2110130
   5.8325270  41.5631580 118.8273160   9.3112080  57.4166680 131.7150610
  10.2379390  57.1810950 131.7586570   9.2962510  58.2438680 131.2336640
  17.5457140  56.9592250 118.7124860  17.7209330  56.2729990 118.0685780
  16.8478710  57.4839300 118.3201530   6.4975690  40.0811430 131.4792490
   6.2159960  40.5845030 130.7153310   6.8795390  39.2833180 131.1134620
   5.3884790  57.3487090 116.2660170   6.1203610  57.0646370 115.7184060
   5.6478460  57.1100370 117.1559550   4.5499580  53.4651820 116.2706500
   3.9208460  53.9336920 116.8192330   4.6647410  52.6201040 116.7052690
  13.0991150  39.4965010 132.0572960  12.9856600  39.8159620 132.9524480
  13.9160890  39.8977520 131.7610240  15.8789640  56.6436540 131.5391650
  16.6714960  56.1485770 131.3317610  16.1722790  57.3226680 132.1467260
  12.0049300  47.5157480 102.4207700  11.9243350  46.6012090 102.1499410
  11.5913720  48.0124550 101.7147410  10.1367340  49.2936500 104.3016970
   9.3609440  48.8136940 104.5915540  10.7880270  48.6142150 104.1273130
   4.1533170  49.6056310 105.1792730   3.3218050  49.3505020 105.5789240
   4.7614150  49.6767080 105.9150650  14.1574770  53.6996690 103.0816100
  13.6956300  52.9283930 103.4103270  14.9700320  53.7262760 103.5868550
   4.1334430  53.6396400 105.3750750   4.4362470  52.7494140 105.1960970
   4.8778020  54.1966620 105.1473000   2.5625120  44.5658200  98.9635120
   1.6741820  44.9074170  98.8615000   2.8466310  44.3658520  98.0715950
  10.3838080  55.9854700 102.7020090   9.7649520  56.4412200 102.1314530
  11.2389860  56.1406160 102.3009790   9.5776330  51.9693690 104.3087130
   9.5084610  51.0283630 104.1476260  10.3396190  52.0595100 104.8809700
   1.7683000  42.5748210 106.6343750   1.5885840  41.6773960 106.9146510
   1.3663080  43.1220080 107.3090700  10.6081500  44.7764070 104.5356060
  10.9846320  43.9035950 104.4229730  10.5101010  45.1122770 103.6446500
   4.7386510  43.1489700  99.9973500   4.8453260  44.0493430 100.3042260
   3.8278870  43.1007670  99.7068150  14.3905620  42.2714510 101.4684400
  15.2115240  41.7811080 101.5109880  14.4239700  42.8612170 102.2216240
   2.3869670  45.0708710 105.2426090   3.0679780  45.3347080 105.8613490
   2.0717720  44.2309580 105.5764100   6.5794240  46.1176070 104.3298680
   7.0872460  46.6157040 104.9703700   7.1107480  45.3411270 104.1538040
  18.6805170  44.2881260 108.0328030  17.9757340  44.6762970 107.5143140
  18.9463090  44.9831550 108.6348960   4.8630340  40.7574630 108.5962100
   4.8648780  41.2747020 107.7908000   4.0334650  40.2804810 108.5732030
  11.2501430  50.8693940 100.0952000  10.6318700  51.3343390  99.5314720
  11.7624680  51.5621420 100.5121510   6.1133190  50.3969810 106.7735600
   5.7802570  51.0238730 107.4156670   6.2899870  50.9231690 105.9937270
  14.6267100  44.2114890 104.2411940  13.9222670  44.4999780 104.8215050
  14.9879260  45.0215000 103.8811500   4.5445670  42.4684590 106.6032550
   4.8862480  43.3126640 106.3086420   3.6061480  42.6168330 106.7197890
   5.3252290  52.3650610 108.5884780   5.9426290  53.0401690 108.3069230
   4.4645410  52.7738590 108.4972280  16.2429880  53.8290020 106.5039420
  15.5593400  54.4989130 106.4956090  16.7824170  54.0270670 105.7384280
  17.6954020  43.6569680 104.6321150  16.7478930  43.6908660 104.7636580
  18.0204010  44.4708630 105.0170510   8.2273560  39.9566860 102.9277140
   8.5348540  39.4013750 102.2112640   7.2974260  40.0911320 102.7450130
  13.7788620  55.6734150 105.2184600  13.7915780  55.2696440 104.3506860
  13.2263840  56.4481440 105.1146030  15.0734040  52.3950370 100.3074770
  14.9630370  51.4524700 100.4324190  15.0702290  52.7566010 101.1937530
  13.1774060  50.5763990 106.5467210  13.5942850  50.3624100 105.7120670
  13.9013880  50.8336780 107.1175830  10.6154320  48.0215690  99.6637260
   9.6883600  47.9553070  99.8925730  10.7679140  48.9595820  99.5492500
  10.6023400  44.2932690  96.6604420   9.6627070  44.4546650  96.7456880
  10.9206660  45.0118370  96.1140410  17.1236160  48.9751210 106.6383450
  16.2954790  49.0444300 106.1633580  17.7186640  49.5605520 106.1699280
  14.6451610  49.5835990 100.1672510  14.0264030  49.2455540  99.5198810
  14.6276060  48.9395750 100.8751700  14.0878170  45.7620530 107.5838320
  13.6749350  46.5874240 107.8378310  13.3554120  45.1765570 107.3914680
   6.2210960  48.5480430 102.4456990   5.8167960  47.8357680 101.9502890
   6.3074080  48.2033670 103.3345030   6.6892660  52.2347990 104.6096200
   6.3920950  51.6293460 103.9303980   7.6392480  52.2725300 104.4985560
   4.9339580  45.3223640 106.2256030   5.4854170  45.4318980 105.4509280
   5.4483090  45.6961240 106.9411260  14.7778270  55.8079860 108.2719300
  14.3008830  56.6152050 108.0791910  14.0940060  55.1558190 108.4245510
   5.7811090  51.9729680 111.2604000   4.8839620  52.1969650 111.5077400
   5.8063960  52.0964620 110.3115400  12.8216310  48.8222800  97.1745260
  13.2609590  47.9845230  97.0283080  13.5344730  49.4552200  97.2609400
   4.6082310  48.8443000 109.8361370   4.4690080  49.7165800 110.2048770
   3.7263670  48.5015810 109.6909310  10.9311690  53.7618870 101.1426500
  11.3707600  54.5043200 100.7281890  10.8698580  54.0045440 102.0665460
   6.4062660  54.7864700 112.0446520   6.3778090  55.1907650 111.1774950
   6.2427630  53.8575060 111.8818120  16.4033450  40.0765610  95.4886300
  16.0906110  40.1692440  96.3885370  17.1645920  40.6546640  95.4383730
   2.9215590  47.4425410  99.9463640   2.8013190  48.1687500  99.3344910
   2.6116480  46.6728320  99.4691550  18.3577480  55.5691800 113.3410690
  18.8337200  56.0474690 114.0199770  18.9784640  55.5009290 112.6156190
   1.8048590  52.3140740 102.1638460   1.3976670  52.4555330 101.3092060
   2.6961600  52.0300900 101.9609670  17.7610730  52.7604650 110.5010700
  17.8873790  52.5216530 109.5827880  17.8032110  51.9289190 110.9732780
  11.6227470  56.4632650 109.0705510  12.1372140  56.3740660 109.8727940
  10.7796550  56.8092350 109.3633420  13.5981870  56.7487990  98.4989510
  13.4383010  56.4590930  99.3971340  13.4328580  55.9728120  97.9634740
   6.0770250  56.5286520 100.2761130   5.9012730  55.6122060 100.0628930
   5.2225990  56.8873810 100.5158930  13.3008000  54.2575550  97.0587510
  12.6073160  54.2552840  96.3989790  14.0430860  53.8334870  96.6281680
  12.8657930  55.8838260 101.1336000  13.3214880  55.1027640 101.4474620
  13.2050450  56.5945080 101.6777180  17.6134740  44.8137110 111.4660440
  16.9979010  45.3216780 110.9375900  17.2931160  43.9135440 111.4086380
   5.3879250  40.7860480 103.3287310   4.9447400  41.5670020 102.9971830
   5.9464240  41.1090370 104.0358250   9.6749060  43.6529000 108.9322630
   9.2128430  43.8612020 109.7442570   9.2727170  42.8388350 108.6293300
  14.6753570  44.8737950 110.0619290  13.8247160  44.5743700 110.3828360
  14.5155360  45.1179960 109.1503110  11.7703280  46.3739700 112.1618080
  12.0956690  45.5403450 111.8220310  12.5583610  46.8968220 112.3096410
   8.5038070  40.4071180  98.2093140   7.8792250  40.4031050  98.9346450
   8.4168190  39.5402140  97.8129110   7.4255150  41.3307810 105.1876910
   7.7227480  42.2370640 105.1068930   7.9740710  40.8426590 104.5736480
   5.1793470  45.9094050 101.0568560   4.9534390  45.6931220 101.9615180
   4.3986000  46.3422510 100.7114530  12.4091230  45.9157420  99.6559210
  11.8100120  46.6393220  99.4722830  12.9570840  45.8534200  98.8735660
   7.6192680  46.8079630 111.7228830   7.5236280  45.8674360 111.5729230
   8.4624660  47.0294700 111.3276900  11.0156100  44.5520960 101.6862490
  11.4085670  44.8693160 100.8731180  11.3772950  43.6732840 101.8007010
   2.7503220  43.2193300 109.8762610   2.3566610  44.0668510 110.0835390
   2.0621620  42.5819670 110.0671250   9.3248270  43.3028270 112.9459350
   8.6346590  43.1100470 113.5805440  10.0680570  43.5862910 113.4783650
  11.6011240  47.1426710 105.7813270  10.8692360  47.6513520 106.1303370
  11.2035580  46.3256690 105.4802050   8.0388630  43.8180910 104.1865760
   8.0424690  43.3770860 103.3370300   8.9339750  44.1398240 104.2937580
   3.8891010  43.7007400 103.1459970   3.5491060  44.1782630 103.9027020
   3.1268330  43.2472520 102.7861070   8.1008780  44.8192990  97.1772520
   8.2221600  44.7779470  98.1258340   7.7157290  45.6817140  97.0219250
  12.0637150  42.5960390 105.1936210  12.0809890  43.0469040 106.0378060
  11.8152730  41.6966030 105.4069650   7.1130280  47.1294130  96.5755820
   6.5447180  46.6812380  95.9491730   7.8219280  47.4886910  96.0420970
  15.4907900  40.0092570 111.0322590  15.8153670  39.2782230 111.5580570
  15.5264410  39.6906210 110.1303580   2.1899460  51.0306150 110.4522550
   1.8054250  50.3899820 111.0505510   2.5011650  51.7342270 111.0217280
   8.3396600  47.8782690 105.9331170   8.7066730  47.4041260 106.6792510
   8.1501660  48.7524260 106.2739510   6.1295970  46.9191330 108.2515380
   5.8253040  47.7983310 108.4765740   7.0842430  46.9791120 108.2872820
   4.6577760  51.1252320  98.8482230   3.8840020  50.5849940  98.6880950
   5.3872390  50.6058930  98.5099990  15.4165740  50.1217680 104.6408620
  16.1364860  50.6172970 104.2504730  15.2147560  49.4435570 103.9962490
  10.8775680  41.5155640  98.7838010  10.0640290  41.0168810  98.7083320
  10.6837630  42.3553890  98.3674360  10.7984540  50.1926740 110.5277620
  10.7321850  49.2722410 110.2735210  10.1689680  50.2902180 111.2422260
  13.5924070  45.8875290  97.0800170  14.4803690  46.1992520  96.9051510
  13.5629160  45.0147540  96.6880750   4.7015160  50.7932700 102.4861040
   5.2193830  49.9900960 102.4317930   4.2499180  50.7311840 103.3277870
   9.5884660  52.0598980  97.7588340   9.9300360  52.8041210  97.2631660
   8.7597370  52.3730100  98.1213170   2.1859700  47.7594070 109.3986740
   1.8274640  48.4247920 109.9860080   1.8914260  46.9277620 109.7699360
   5.3872820  48.2178310 112.2826290   5.0872960  48.3635490 111.3854110
   6.1584060  47.6583600 112.1899680  10.7301270  53.0147310 110.2781420
  10.7445810  52.0828270 110.0600330  10.0226370  53.1007070 110.9171190
  15.8638340  47.1987130  96.5480030  15.7802060  47.6301350  95.6976470
  16.5832530  47.6585480  96.9806850  16.9412480  49.6554650 109.6250000
  16.2160670  50.2483430 109.4279390  17.4687940  49.6478190 108.8263370
  16.8925590  54.0529390  99.2762160  16.2501750  53.3985010  99.5505880
  16.5056250  54.4584480  98.5002830  12.4712070  51.3814820 103.1233850
  12.8235890  50.7842950 102.4635220  11.5874400  51.0559050 103.2942100
   8.5575350  52.1412510 100.5304260   9.2446480  52.6881720 100.9111850
   7.7707770  52.6853240 100.5653870   7.8602560  49.1458540 100.1429620
   8.3165340  49.9563790 100.3689810   7.5090770  48.8281680 100.9748110
  10.1635170  54.6564880 107.3721920  10.8077390  54.8624260 108.0495340
  10.5264610  53.8953280 106.9192770   3.7614340  39.4896190 100.6152140
   3.6328970  39.4814090 101.5637060   2.9376360  39.8279280 100.2643150
  11.4367250  52.6597230 106.0899370  12.0789480  51.9590390 106.2031540
  11.9616600  53.4395670 105.9096260  15.2822970  52.9445850  95.8138510
  15.0560550  52.2276290  96.4063150  14.8919170  52.6958290  94.9760260
  13.2104870  53.4592130 109.2935430  13.5461110  54.0458820 109.9713350
  12.2905210  53.3284840 109.5233220  14.8639220  50.8617790  97.4752670
  14.5760920  51.3230480  98.2630550  15.6591390  50.4015560  97.7436890
   9.0393450  53.5083460 112.4623490   8.7190320  52.7892700 113.0069180
   8.3651810  54.1838530 112.5359550   7.0807620  54.3543910  97.4056640
   7.0717720  55.0873600  96.7901150   6.1605980  54.1075490  97.4983600
   2.6814260  49.5758800  98.1503400   2.0742210  50.3157700  98.1598700
   3.1563610  49.6658160  97.3241600  12.2547050  43.7409620 107.8260290
  12.6227870  42.9204830 108.1539860  11.3945250  43.8011510 108.2415940
  15.6209080  42.6966560  98.6347850  14.9922240  42.8012230  97.9206080
  15.1261000  42.9163340  99.4241730  10.0667220  54.4172150  96.0681830
  10.1679200  54.2136140  95.1383810   9.1668960  54.1630430  96.2729610
   7.5893110  44.9752510 100.0505730   6.8809260  45.4438850 100.4919340
   7.8737590  44.3174520 100.6850920   9.2149040  46.3949210 108.0498260
   9.7134290  46.8695030 108.7150110   9.3571990  45.4712730 108.2568290
  11.6208540  41.7003170 101.4901520  11.4976320  41.7189300 100.5411030
  12.5693100  41.7482110 101.6099920   8.7085330  56.9358470 100.7629500
   8.9626830  56.8979860  99.8408870   7.7597810  56.8091800 100.7557750
   5.7928130  43.2837590  97.4256440   6.6418660  43.7207740  97.3596630
   5.4259400  43.5957850  98.2528500  16.4215900  42.6117170 108.8926650
  15.9189500  43.3522570 109.2320460  17.2372560  43.0001170 108.5763440
  14.7137910  47.8550350 102.3388010  13.7728050  47.8700580 102.5135700
  15.0281980  47.0686310 102.7848310   4.6919550  49.5369950  95.8991970
   5.4582820  49.4251310  96.4617400   4.7694240  48.8407920  95.2468740
   3.3866310  46.9695020  96.5824860   3.4669900  46.0222530  96.6942260
   4.2786060  47.3001900  96.6885520  16.7163490  55.0259200 104.0142270
  16.8410910  55.8490370 104.4866080  17.5829050  54.8149930 103.6666420
   4.1881020  57.1190410 103.6859400   4.9243500  56.5705870 103.9567970
   4.5721940  57.9846420 103.5465390   3.1939300  56.3036480 112.8744980
   3.9952030  56.6248530 113.2880380   2.6791120  55.9432060 113.5964890
   7.2983330  56.2920720  95.5084970   8.0911940  56.5809550  95.0566760
   6.7787680  55.8612890  94.8297450  12.0303930  52.4116350 112.8220390
  11.4242090  52.4347950 112.0816140  11.7258040  51.6799390 113.3587640
  13.4604300  56.1396640 111.4329800  14.4126050  56.0554660 111.3830040
  13.3132520  56.8038350 112.1063590  16.3513500  55.5190850  96.9321710
  16.0655010  55.1055990  96.1175890  16.1533050  56.4478560  96.8122230
   7.8160730  51.5124130  95.3727320   7.7111370  50.8976480  96.0988700
   7.6484950  50.9890020  94.5890330   7.9675050  50.1980930 111.3516550
   7.2020720  50.7665930 111.2671220   8.1491010  49.9057140 110.4584780
  11.0563460  50.5744160  95.9769310  10.5073560  51.0213460  96.6212050
  11.6782720  50.0693410  96.5006980  15.1098400  51.9286260 111.9091570
  15.8507870  52.2662020 111.4059030  14.3471080  52.0978320 111.3561340
   2.9460190  46.9339530 112.7131100   2.9865530  46.6353400 113.6216330
   3.8005690  47.3347140 112.5538620   6.7238580  49.5335080  97.8734610
   7.1455000  49.3674950  98.7166000   6.8489420  48.7235310  97.3789750
   4.8866000  45.5131630 110.6805590   4.3562460  45.0222580 110.0528930
   5.5554070  45.9415830 110.1463520   9.2366220  48.5572690  95.1211710
   9.7571880  47.8421710  94.7552860   9.8834620  49.1958560  95.4212220
  13.7844060  49.9801090 110.4446780  14.1985080  50.1346170 111.2937200
  12.8495060  50.1056310 110.6072560  14.2566230  47.3197250 112.4485930
  14.8387000  46.5649570 112.3606410  14.4328000  47.8504690 111.6717410
   5.3738300  42.4794000 110.7602880   5.2795170  41.8614750 110.0353750
   4.7935690  43.2060290 110.5332790   8.1399740  41.0367240 107.7930270
   7.6917040  41.0591500 106.9475820   7.5064940  40.6386260 108.3900570
   8.5459290  49.9321570 108.4142710   8.9647400  50.7754300 108.2418950
   7.6267920  50.0693610 108.1849490  10.8823190  47.6637750 109.7980550
  11.0019400  47.0678890 110.5375390  11.7417190  47.7007440 109.3781850
  13.2211090  48.2174940 108.3743060  12.6946310  48.7417560 107.7708200
  13.5642430  48.8502330 109.0052790   5.6197480  45.6068310  94.8192770
   5.4186540  44.7435670  95.1806110   5.4489530  45.5201670  93.8814370
   6.3966710  56.2374580 109.5300440   5.8587800  56.9620640 109.2109140
   6.6500670  55.7604920 108.7397780   7.6491960  44.2059100 111.0556370
   8.2391650  43.8974950 111.7434190   6.8312200  43.7338850 111.2116270
  12.4685390  43.8224910 111.2889390  11.7800910  43.1606450 111.2239380
  13.1891410  43.3763180 111.7337850  13.0985790  40.4176540  97.3479650
  13.3788080  39.5744440  97.7039070  12.3251520  40.6499650  97.8618400
   4.4180280  42.7068930  94.8070650   4.7206180  42.7136360  93.8989800
   5.1574870  42.3566790  95.3038310   9.2528920  57.4725790 109.7887090
   9.1787620  58.3760930 110.0959460   8.3507760  57.1537690 109.7609160
   7.6365210  41.6503550  95.7926850   7.2887210  40.9727540  95.2129300
   7.8377980  41.1893060  96.6070240   9.8014250  56.6384300  97.4113450
  10.6965040  56.9769270  97.4332210   9.8331880  55.9163710  96.7837730
   3.4410410  52.0111350  95.6400450   3.8785280  52.5541020  96.2958030
   3.9258140  51.1858300  95.6496790   5.2518130  53.1309390 100.7522680
   4.9513670  53.0074360 101.6526590   5.1455620  52.2717980 100.3438410
  16.7808600  55.1687970 110.1179650  16.1810590  55.2280530 109.3743570
  16.9102500  54.2292950 110.2476500  18.0210050  52.9105790  95.4549360
  17.1903010  52.9782440  95.9256590  18.1981880  53.8009910  95.1516220
  17.4766510  49.6553270  97.9583560  18.2385420  50.2249920  98.0643250
  17.4920880  49.0880470  98.7291870  18.4826480  50.5103370 102.8025490
  18.8535310  49.7270690 102.3961460  19.1228410  51.1992470 102.6242790
  15.4660240  51.8939950 108.2155810  14.6520080  52.3237110 108.4781600
  15.8734440  52.5058360 107.6024860  17.5285680  49.9487640  95.1156080
  17.8034520  50.8566520  94.9875300  17.3396420  49.8850170  96.0518070
  13.9261290  42.9732490  96.4109710  14.3446170  42.7863470  95.5706370
  13.6197350  42.1211540  96.7212640  17.4251020  47.8856630 100.1085510
  17.0494620  47.1184560  99.6766800  16.6954140  48.2679330 100.5960440
   2.0146780  48.5643770 106.7294560   2.3819820  48.4771170 107.6090580
   1.4457600  47.8010320 106.6301420  16.8150640  47.0328150 109.7425030
  16.5836730  46.8040900 108.8422980  17.0755190  47.9527700 109.6969920
  15.2538710  42.2584580 112.5204730  16.1308890  42.2667980 112.9038730
  15.2659550  41.5215420 111.9097080  16.7001980  46.1114120 103.4092750
  17.2239460  45.6176770 102.7782920  17.2861400  46.2464480 104.1540320
  16.8791700  46.1953990 106.9312300  15.9294410  46.1617530 107.0457290
  17.0604710  47.1054100 106.6962070   2.7336140  44.4455670  96.0410930
   3.4427840  44.0238890  95.5558210   2.0176080  44.5130900  95.4094280
   2.3810300  40.4995000  95.0813580   3.1038430  41.0403940  95.3994800
   2.6534820  40.2258420  94.2055120  16.1901950  45.3687470  99.3485160
  16.6861070  45.1358340 100.1334040  15.9918020  44.5299310  98.9322800
   2.0702490  39.7501190 104.9836200   2.7178680  39.1998570 104.5431360
   2.4904330  40.0044340 105.8052010  17.6189110  44.0048420 101.8822840
  17.5088390  43.8504460 102.8205110  18.3796700  43.4769360 101.6398250
  15.9654830  39.9442550 108.3405840  16.6027050  40.5576690 108.7065030
  16.1129720  39.9803210 107.3955070  18.5079380  41.8356340  95.1228980
  19.4328690  41.7037520  94.9147270  18.4855170  41.9149160  96.0765430
  18.5817870  42.6067000  97.7485690  17.7869370  42.5412120  98.2778600
  18.7861150  43.5417640  97.7371040  15.5236290  56.6458550 101.7424080
  16.1195360  56.3243120 101.0658500  15.7814440  56.1730370 102.5337350
   1.8234490  39.9056860 107.7261520   1.4749310  40.3620680 108.4919700
   1.4922190  39.0113990 107.8083950   3.4298860  53.0776460 111.8914710
   3.3868490  52.7069370 112.7729170   3.5609870  54.0154030 112.0316530
   7.1304890  54.6336050 107.4924430   6.8896250  54.9010610 106.6054950
   8.0707530  54.8041780 107.5475290   9.3359310  41.0968740 111.2480940
   9.2748200  41.6890570 111.9976350  10.2759690  40.9894700 111.1031200
  11.9733870  40.7538800 110.8873230  12.5874280  41.0718090 110.2254310
  12.5183430  40.2687390 111.5069090  18.3909050  56.6530430 108.2935070
  17.8967330  57.0499300 107.5762200  17.7822340  56.0279640 108.6872350
   2.4955130  39.4333060 111.0012290   3.0438120  39.2521110 110.2378400
   2.5610440  38.6427170 111.5368600   3.2686890  56.0238710 109.0112490
   2.6747210  55.8923410 109.7502530   3.2610730  55.1876850 108.5454590
  12.7141910  39.3170940 107.2142520  11.8401750  39.6506050 107.0115450
  12.6052660  38.8444120 108.0394390  13.6213890  41.5241810 108.5984240
  13.2927250  40.7093570 108.2185970  14.5696190  41.4811620 108.4749930
  16.0748500  57.2953850 105.5721810  15.6151470  58.0469660 105.1979830
  15.4460960  56.5760320 105.5136610   2.8999120  53.3897090 107.9620530
   2.1733180  52.7702380 107.8946480   2.9608270  53.7837700 107.0918610
   6.5044220  55.6042090 104.7469940   7.0209240  54.9929450 104.2218200
   7.1541600  56.1070870 105.2380950   9.2439720  56.4950580 105.5738920
   9.5317530  56.2404880 104.6971930   9.7562940  55.9427940 106.1644490
  10.4616730  40.2340780 106.1535430   9.6788520  40.7086280 106.4332190
  10.1679660  39.3295610 106.0448610  15.0137800  40.9363880 104.1984520
  15.4545890  40.8808980 103.3506120  14.7445390  41.8521890 104.2694700
  16.8776370  40.5679120 102.2093340  16.8164770  39.6240340 102.0624360
  17.6568400  40.6759210 102.7546800   1.8057140  40.5388260  98.6749150
   2.5636500  40.6517140  98.1013180   1.3434310  41.3757460  98.6292580
   8.3470950  42.6527530 101.6651460   7.5345460  42.2784420 101.3247340
   8.8512590  41.8972610 101.9672650  12.8495930  39.3169980 102.9034530
  13.4525300  39.8890190 103.3783050  12.1088920  39.8809420 102.6808430
  15.9930530  39.7191540  98.1774810  16.1881160  40.6174990  98.4442240
  15.2060400  39.4878620  98.6707760   2.7891820  55.4004710  98.6167430
   2.2639440  55.7812740  97.9129390   2.7136400  56.0255480  99.3377140
   4.1782290  41.0652310  97.2151120   4.7075050  40.2782110  97.0859070
   4.8110610  41.7443500  97.4486650   6.3720130  40.8027450 100.2696510
   5.7422870  40.1014760 100.4366640   5.8325270  41.5631580 100.0529670
   9.3112080  57.4166680 112.9407120  10.2379390  57.1810950 112.9843080
   9.2962510  58.2438680 112.4593150  17.5457140  56.9592250  99.9381370
  17.7209330  56.2729990  99.2942290  16.8478710  57.4839300  99.5458040
   6.4975690  40.0811430 112.7049000   6.2159960  40.5845030 111.9409820
   6.8795390  39.2833180 112.3391130   5.3884790  57.3487090  97.4916680
   6.1203610  57.0646370  96.9440570   5.6478460  57.1100370  98.3816060
   4.5499580  53.4651820  97.4963010   3.9208460  53.9336920  98.0448840
   4.6647410  52.6201040  97.9309200  13.0991150  39.4965010 113.2829470
  12.9856600  39.8159620 114.1780990  13.9160890  39.8977520 112.9866750
  15.8789640  56.6436540 112.7648160  16.6714960  56.1485770 112.5574120
  16.1722790  57.3226680 113.3723770  12.0049300  47.5157480  83.6464210
  11.9243350  46.6012090  83.3755920  11.5913720  48.0124550  82.9403920
  10.1367340  49.2936500  85.5273480   9.3609440  48.8136940  85.8172050
  10.7880270  48.6142150  85.3529640   4.1533170  49.6056310  86.4049240
   3.3218050  49.3505020  86.8045750   4.7614150  49.6767080  87.1407160
  14.1574770  53.6996690  84.3072610  13.6956300  52.9283930  84.6359780
  14.9700320  53.7262760  84.8125060   4.1334430  53.6396400  86.6007260
   4.4362470  52.7494140  86.4217480   4.8778020  54.1966620  86.3729510
   2.5625120  44.5658200  80.1891630   1.6741820  44.9074170  80.0871510
   2.8466310  44.3658520  79.2972460  10.3838080  55.9854700  83.9276600
   9.7649520  56.4412200  83.3571040  11.2389860  56.1406160  83.5266300
   9.5776330  51.9693690  85.5343640   9.5084610  51.0283630  85.3732770
  10.3396190  52.0595100  86.1066210   1.7683000  42.5748210  87.8600260
   1.5885840  41.6773960  88.1403020   1.3663080  43.1220080  88.5347210
  10.6081500  44.7764070  85.7612570  10.9846320  43.9035950  85.6486240
  10.5101010  45.1122770  84.8703010   4.7386510  43.1489700  81.2230010
   4.8453260  44.0493430  81.5298770   3.8278870  43.1007670  80.9324660
  14.3905620  42.2714510  82.6940910  15.2115240  41.7811080  82.7366390
  14.4239700  42.8612170  83.4472750   2.3869670  45.0708710  86.4682600
   3.0679780  45.3347080  87.0870000   2.0717720  44.2309580  86.8020610
   6.5794240  46.1176070  85.5555190   7.0872460  46.6157040  86.1960210
   7.1107480  45.3411270  85.3794550   4.8630340  40.7574630  89.8218610
   4.8648780  41.2747020  89.0164510   4.0334650  40.2804810  89.7988540
  11.2501430  50.8693940  81.3208510  10.6318700  51.3343390  80.7571230
  11.7624680  51.5621420  81.7378020   6.1133190  50.3969810  87.9992110
   5.7802570  51.0238730  88.6413180   6.2899870  50.9231690  87.2193780
  14.6267100  44.2114890  85.4668450  13.9222670  44.4999780  86.0471560
  14.9879260  45.0215000  85.1068010   4.5445670  42.4684590  87.8289060
   4.8862480  43.3126640  87.5342930   3.6061480  42.6168330  87.9454400
   5.3252290  52.3650610  89.8141290   5.9426290  53.0401690  89.5325740
   4.4645410  52.7738590  89.7228790  17.6954020  43.6569680  85.8577660
  16.7478930  43.6908660  85.9893090  18.0204010  44.4708630  86.2427020
   8.2273560  39.9566860  84.1533650   8.5348540  39.4013750  83.4369150
   7.2974260  40.0911320  83.9706640  13.7788620  55.6734150  86.4441110
  13.7915780  55.2696440  85.5763370  13.2263840  56.4481440  86.3402540
  13.1774060  50.5763990  87.7723720  13.5942850  50.3624100  86.9377180
  13.9013880  50.8336780  88.3432340  10.6154320  48.0215690  80.8893770
   9.6883600  47.9553070  81.1182240  10.7679140  48.9595820  80.7749010
  10.6023400  44.2932690  77.8860930   9.6627070  44.4546650  77.9713390
  10.9206660  45.0118370  77.3396920  14.6451610  49.5835990  81.3929020
  14.0264030  49.2455540  80.7455320  14.6276060  48.9395750  82.1008210
  14.0878170  45.7620530  88.8094830  13.6749350  46.5874240  89.0634820
  13.3554120  45.1765570  88.6171190   6.2210960  48.5480430  83.6713500
   5.8167960  47.8357680  83.1759400   6.3074080  48.2033670  84.5601540
   6.6892660  52.2347990  85.8352710   6.3920950  51.6293460  85.1560490
   7.6392480  52.2725300  85.7242070   4.9339580  45.3223640  87.4512540
   5.4854170  45.4318980  86.6765790   5.4483090  45.6961240  88.1667770
  14.7778270  55.8079860  89.4975810  14.3008830  56.6152050  89.3048420
  14.0940060  55.1558190  89.6502020   5.7811090  51.9729680  92.4860510
   4.8839620  52.1969650  92.7333910   5.8063960  52.0964620  91.5371910
  12.8216310  48.8222800  78.4001770  13.2609590  47.9845230  78.2539590
  13.5344730  49.4552200  78.4865910   4.6082310  48.8443000  91.0617880
   4.4690080  49.7165800  91.4305280   3.7263670  48.5015810  90.9165820
  10.9311690  53.7618870  82.3683010  11.3707600  54.5043200  81.9538400
  10.8698580  54.0045440  83.2921970   6.4062660  54.7864700  93.2703030
   6.3778090  55.1907650  92.4031460   6.2427630  53.8575060  93.1074630
  16.4033450  40.0765610  76.7142810  16.0906110  40.1692440  77.6141880
  17.1645920  40.6546640  76.6640240   2.9215590  47.4425410  81.1720150
   2.8013190  48.1687500  80.5601420   2.6116480  46.6728320  80.6948060
  18.3577480  55.5691800  94.5667200  18.8337200  56.0474690  95.2456280
  18.9784640  55.5009290  93.8412700   1.8048590  52.3140740  83.3894970
   1.3976670  52.4555330  82.5348570   2.6961600  52.0300900  83.1866180
  11.6227470  56.4632650  90.2962020  12.1372140  56.3740660  91.0984450
  10.7796550  56.8092350  90.5889930  13.5981870  56.7487990  79.7246020
  13.4383010  56.4590930  80.6227850  13.4328580  55.9728120  79.1891250
   6.0770250  56.5286520  81.5017640   5.9012730  55.6122060  81.2885440
   5.2225990  56.8873810  81.7415440  13.3008000  54.2575550  78.2844020
  12.6073160  54.2552840  77.6246300  14.0430860  53.8334870  77.8538190
  12.8657930  55.8838260  82.3592510  13.3214880  55.1027640  82.6731130
  13.2050450  56.5945080  82.9033690  17.6134740  44.8137110  92.6916950
  16.9979010  45.3216780  92.1632410  17.2931160  43.9135440  92.6342890
   5.3879250  40.7860480  84.5543820   4.9447400  41.5670020  84.2228340
   5.9464240  41.1090370  85.2614760   9.6749060  43.6529000  90.1579140
   9.2128430  43.8612020  90.9699080   9.2727170  42.8388350  89.8549810
  14.6753570  44.8737950  91.2875800  13.8247160  44.5743700  91.6084870
  14.5155360  45.1179960  90.3759620  11.7703280  46.3739700  93.3874590
  12.0956690  45.5403450  93.0476820  12.5583610  46.8968220  93.5352920
   8.5038070  40.4071180  79.4349650   7.8792250  40.4031050  80.1602960
   8.4168190  39.5402140  79.0385620   7.4255150  41.3307810  86.4133420
   7.7227480  42.2370640  86.3325440   7.9740710  40.8426590  85.7992990
   5.1793470  45.9094050  82.2825070   4.9534390  45.6931220  83.1871690
   4.3986000  46.3422510  81.9371040  12.4091230  45.9157420  80.8815720
  11.8100120  46.6393220  80.6979340  12.9570840  45.8534200  80.0992170
   7.6192680  46.8079630  92.9485340   7.5236280  45.8674360  92.7985740
   8.4624660  47.0294700  92.5533410  11.0156100  44.5520960  82.9119000
  11.4085670  44.8693160  82.0987690  11.3772950  43.6732840  83.0263520
   2.7503220  43.2193300  91.1019120   2.3566610  44.0668510  91.3091900
   2.0621620  42.5819670  91.2927760   9.3248270  43.3028270  94.1715860
   8.6346590  43.1100470  94.8061950  10.0680570  43.5862910  94.7040160
  11.6011240  47.1426710  87.0069780  10.8692360  47.6513520  87.3559880
  11.2035580  46.3256690  86.7058560   8.0388630  43.8180910  85.4122270
   8.0424690  43.3770860  84.5626810   8.9339750  44.1398240  85.5194090
   3.8891010  43.7007400  84.3716480   3.5491060  44.1782630  85.1283530
   3.1268330  43.2472520  84.0117580   8.1008780  44.8192990  78.4029030
   8.2221600  44.7779470  79.3514850   7.7157290  45.6817140  78.2475760
  12.0637150  42.5960390  86.4192720  12.0809890  43.0469040  87.2634570
  11.8152730  41.6966030  86.6326160   7.1130280  47.1294130  77.8012330
   6.5447180  46.6812380  77.1748240   7.8219280  47.4886910  77.2677480
  15.4907900  40.0092570  92.2579100  15.8153670  39.2782230  92.7837080
  15.5264410  39.6906210  91.3560090   2.1899460  51.0306150  91.6779060
   1.8054250  50.3899820  92.2762020   2.5011650  51.7342270  92.2473790
   8.3396600  47.8782690  87.1587680   8.7066730  47.4041260  87.9049020
   8.1501660  48.7524260  87.4996020   6.1295970  46.9191330  89.4771890
   5.8253040  47.7983310  89.7022250   7.0842430  46.9791120  89.5129330
   4.6577760  51.1252320  80.0738740   3.8840020  50.5849940  79.9137460
   5.3872390  50.6058930  79.7356500  15.4165740  50.1217680  85.8665130
  16.1364860  50.6172970  85.4761240  15.2147560  49.4435570  85.2219000
  10.8775680  41.5155640  80.0094520  10.0640290  41.0168810  79.9339830
  10.6837630  42.3553890  79.5930870  10.7984540  50.1926740  91.7534130
  10.7321850  49.2722410  91.4991720  10.1689680  50.2902180  92.4678770
  13.5924070  45.8875290  78.3056680  14.4803690  46.1992520  78.1308020
  13.5629160  45.0147540  77.9137260   4.7015160  50.7932700  83.7117550
   5.2193830  49.9900960  83.6574440   4.2499180  50.7311840  84.5534380
   9.5884660  52.0598980  78.9844850   9.9300360  52.8041210  78.4888170
   8.7597370  52.3730100  79.3469680   2.1859700  47.7594070  90.6243250
   1.8274640  48.4247920  91.2116590   1.8914260  46.9277620  90.9955870
   5.3872820  48.2178310  93.5082800   5.0872960  48.3635490  92.6110620
   6.1584060  47.6583600  93.4156190  10.7301270  53.0147310  91.5037930
  10.7445810  52.0828270  91.2856840  10.0226370  53.1007070  92.1427700
  15.8638340  47.1987130  77.7736540  15.7802060  47.6301350  76.9232980
  16.5832530  47.6585480  78.2063360  12.4712070  51.3814820  84.3490360
  12.8235890  50.7842950  83.6891730  11.5874400  51.0559050  84.5198610
   8.5575350  52.1412510  81.7560770   9.2446480  52.6881720  82.1368360
   7.7707770  52.6853240  81.7910380   7.8602560  49.1458540  81.3686130
   8.3165340  49.9563790  81.5946320   7.5090770  48.8281680  82.2004620
  10.1635170  54.6564880  88.5978430  10.8077390  54.8624260  89.2751850
  10.5264610  53.8953280  88.1449280   3.7614340  39.4896190  81.8408650
   3.6328970  39.4814090  82.7893570   2.9376360  39.8279280  81.4899660
  11.4367250  52.6597230  87.3155880  12.0789480  51.9590390  87.4288050
  11.9616600  53.4395670  87.1352770  15.2822970  52.9445850  77.0395020
  15.0560550  52.2276290  77.6319660  14.8919170  52.6958290  76.2016770
  13.2104870  53.4592130  90.5191940  13.5461110  54.0458820  91.1969860
  12.2905210  53.3284840  90.7489730  14.8639220  50.8617790  78.7009180
  14.5760920  51.3230480  79.4887060  15.6591390  50.4015560  78.9693400
   9.0393450  53.5083460  93.6880000   8.7190320  52.7892700  94.2325690
   8.3651810  54.1838530  93.7616060   7.0807620  54.3543910  78.6313150
   7.0717720  55.0873600  78.0157660   6.1605980  54.1075490  78.7240110
   2.6814260  49.5758800  79.3759910   2.0742210  50.3157700  79.3855210
   3.1563610  49.6658160  78.5498110  12.2547050  43.7409620  89.0516800
  12.6227870  42.9204830  89.3796370  11.3945250  43.8011510  89.4672450
  15.6209080  42.6966560  79.8604360  14.9922240  42.8012230  79.1462590
  15.1261000  42.9163340  80.6498240  10.0667220  54.4172150  77.2938340
  10.1679200  54.2136140  76.3640320   9.1668960  54.1630430  77.4986120
   7.5893110  44.9752510  81.2762240   6.8809260  45.4438850  81.7175850
   7.8737590  44.3174520  81.9107430   9.2149040  46.3949210  89.2754770
   9.7134290  46.8695030  89.9406620   9.3571990  45.4712730  89.4824800
  11.6208540  41.7003170  82.7158030  11.4976320  41.7189300  81.7667540
  12.5693100  41.7482110  82.8356430   8.7085330  56.9358470  81.9886010
   8.9626830  56.8979860  81.0665380   7.7597810  56.8091800  81.9814260
   5.7928130  43.2837590  78.6512950   6.6418660  43.7207740  78.5853140
   5.4259400  43.5957850  79.4785010  16.4215900  42.6117170  90.1183160
  15.9189500  43.3522570  90.4576970  17.2372560  43.0001170  89.8019950
  14.7137910  47.8550350  83.5644520  13.7728050  47.8700580  83.7392210
  15.0281980  47.0686310  84.0104820   4.6919550  49.5369950  77.1248480
   5.4582820  49.4251310  77.6873910   4.7694240  48.8407920  76.4725250
   3.3866310  46.9695020  77.8081370   3.4669900  46.0222530  77.9198770
   4.2786060  47.3001900  77.9142030   4.1881020  57.1190410  84.9115910
   4.9243500  56.5705870  85.1824480   4.5721940  57.9846420  84.7721900
   3.1939300  56.3036480  94.1001490   3.9952030  56.6248530  94.5136890
   2.6791120  55.9432060  94.8221400   7.2983330  56.2920720  76.7341480
   8.0911940  56.5809550  76.2823270   6.7787680  55.8612890  76.0553960
  12.0303930  52.4116350  94.0476900  11.4242090  52.4347950  93.3072650
  11.7258040  51.6799390  94.5844150  13.4604300  56.1396640  92.6586310
  14.4126050  56.0554660  92.6086550  13.3132520  56.8038350  93.3320100
   7.8160730  51.5124130  76.5983830   7.7111370  50.8976480  77.3245210
   7.6484950  50.9890020  75.8146840   7.9675050  50.1980930  92.5773060
   7.2020720  50.7665930  92.4927730   8.1491010  49.9057140  91.6841290
  11.0563460  50.5744160  77.2025820  10.5073560  51.0213460  77.8468560
  11.6782720  50.0693410  77.7263490  15.1098400  51.9286260  93.1348080
  15.8507870  52.2662020  92.6315540  14.3471080  52.0978320  92.5817850
   2.9460190  46.9339530  93.9387610   2.9865530  46.6353400  94.8472840
   3.8005690  47.3347140  93.7795130   6.7238580  49.5335080  79.0991120
   7.1455000  49.3674950  79.9422510   6.8489420  48.7235310  78.6046260
   4.8866000  45.5131630  91.9062100   4.3562460  45.0222580  91.2785440
   5.5554070  45.9415830  91.3720030   9.2366220  48.5572690  76.3468220
   9.7571880  47.8421710  75.9809370   9.8834620  49.1958560  76.6468730
  13.7844060  49.9801090  91.6703290  14.1985080  50.1346170  92.5193710
  12.8495060  50.1056310  91.8329070  14.2566230  47.3197250  93.6742440
  14.8387000  46.5649570  93.5862920  14.4328000  47.8504690  92.8973920
   5.3738300  42.4794000  91.9859390   5.2795170  41.8614750  91.2610260
   4.7935690  43.2060290  91.7589300   8.1399740  41.0367240  89.0186780
   7.6917040  41.0591500  88.1732330   7.5064940  40.6386260  89.6157080
   8.5459290  49.9321570  89.6399220   8.9647400  50.7754300  89.4675460
   7.6267920  50.0693610  89.4106000  10.8823190  47.6637750  91.0237060
  11.0019400  47.0678890  91.7631900  11.7417190  47.7007440  90.6038360
  13.2211090  48.2174940  89.5999570  12.6946310  48.7417560  88.9964710
  13.5642430  48.8502330  90.2309300   5.6197480  45.6068310  76.0449280
   5.4186540  44.7435670  76.4062620   5.4489530  45.5201670  75.1070880
   6.3966710  56.2374580  90.7556950   5.8587800  56.9620640  90.4365650
   6.6500670  55.7604920  89.9654290   7.6491960  44.2059100  92.2812880
   8.2391650  43.8974950  92.9690700   6.8312200  43.7338850  92.4372780
  12.4685390  43.8224910  92.5145900  11.7800910  43.1606450  92.4495890
  13.1891410  43.3763180  92.9594360  13.0985790  40.4176540  78.5736160
  13.3788080  39.5744440  78.9295580  12.3251520  40.6499650  79.0874910
   4.4180280  42.7068930  76.0327160   4.7206180  42.7136360  75.1246310
   5.1574870  42.3566790  76.5294820   9.2528920  57.4725790  91.0143600
   9.1787620  58.3760930  91.3215970   8.3507760  57.1537690  90.9865670
   7.6365210  41.6503550  77.0183360   7.2887210  40.9727540  76.4385810
   7.8377980  41.1893060  77.8326750   9.8014250  56.6384300  78.6369960
  10.6965040  56.9769270  78.6588720   9.8331880  55.9163710  78.0094240
   3.4410410  52.0111350  76.8656960   3.8785280  52.5541020  77.5214540
   3.9258140  51.1858300  76.8753300   5.2518130  53.1309390  81.9779190
   4.9513670  53.0074360  82.8783100   5.1455620  52.2717980  81.5694920
  16.7808600  55.1687970  91.3436160  16.1810590  55.2280530  90.6000080
  16.9102500  54.2292950  91.4733010  18.0210050  52.9105790  76.6805870
  17.1903010  52.9782440  77.1513100  18.1981880  53.8009910  76.3772730
  17.4766510  49.6553270  79.1840070  18.2385420  50.2249920  79.2899760
  17.4920880  49.0880470  79.9548380  17.5285680  49.9487640  76.3412590
  17.8034520  50.8566520  76.2131810  17.3396420  49.8850170  77.2774580
  13.9261290  42.9732490  77.6366220  14.3446170  42.7863470  76.7962880
  13.6197350  42.1211540  77.9469150  17.4251020  47.8856630  81.3342020
  17.0494620  47.1184560  80.9023310  16.6954140  48.2679330  81.8216950
   2.0146780  48.5643770  87.9551070   2.3819820  48.4771170  88.8347090
   1.4457600  47.8010320  87.8557930  15.2538710  42.2584580  93.7461240
  16.1308890  42.2667980  94.1295240  15.2659550  41.5215420  93.1353590
  16.7001980  46.1114120  84.6349260  17.2239460  45.6176770  84.0039430
  17.2861400  46.2464480  85.3796830   2.7336140  44.4455670  77.2667440
   3.4427840  44.0238890  76.7814720   2.0176080  44.5130900  76.6350790
   2.3810300  40.4995000  76.3070090   3.1038430  41.0403940  76.6251310
   2.6534820  40.2258420  75.4311630  16.1901950  45.3687470  80.5741670
  16.6861070  45.1358340  81.3590550  15.9918020  44.5299310  80.1579310
   2.0702490  39.7501190  86.2092710   2.7178680  39.1998570  85.7687870
   2.4904330  40.0044340  87.0308520  17.6189110  44.0048420  83.1079350
  17.5088390  43.8504460  84.0461620  18.3796700  43.4769360  82.8654760
  15.9654830  39.9442550  89.5662350  16.6027050  40.5576690  89.9321540
  16.1129720  39.9803210  88.6211580  18.5079380  41.8356340  76.3485490
  19.4328690  41.7037520  76.1403780  18.4855170  41.9149160  77.3021940
  18.5817870  42.6067000  78.9742200  17.7869370  42.5412120  79.5035110
  18.7861150  43.5417640  78.9627550   1.8234490  39.9056860  88.9518030
   1.4749310  40.3620680  89.7176210   1.4922190  39.0113990  89.0340460
   3.4298860  53.0776460  93.1171220   3.3868490  52.7069370  93.9985680
   3.5609870  54.0154030  93.2573040   7.1304890  54.6336050  88.7180940
   6.8896250  54.9010610  87.8311460   8.0707530  54.8041780  88.7731800
   9.3359310  41.0968740  92.4737450   9.2748200  41.6890570  93.2232860
  10.2759690  40.9894700  92.3287710  11.9733870  40.7538800  92.1129740
  12.5874280  41.0718090  91.4510820  12.5183430  40.2687390  92.7325600
   2.4955130  39.4333060  92.2268800   3.0438120  39.2521110  91.4634910
   2.5610440  38.6427170  92.7625110   3.2686890  56.0238710  90.2369000
   2.6747210  55.8923410  90.9759040   3.2610730  55.1876850  89.7711100
  12.7141910  39.3170940  88.4399030  11.8401750  39.6506050  88.2371960
  12.6052660  38.8444120  89.2650900  13.6213890  41.5241810  89.8240750
  13.2927250  40.7093570  89.4442480  14.5696190  41.4811620  89.7006440
   2.8999120  53.3897090  89.1877040   2.1733180  52.7702380  89.1202990
   2.9608270  53.7837700  88.3175120   6.5044220  55.6042090  85.9726450
   7.0209240  54.9929450  85.4474710   7.1541600  56.1070870  86.4637460
   9.2439720  56.4950580  86.7995430   9.5317530  56.2404880  85.9228440
   9.7562940  55.9427940  87.3901000  10.4616730  40.2340780  87.3791940
   9.6788520  40.7086280  87.6588700  10.1679660  39.3295610  87.2705120
  15.0137800  40.9363880  85.4241030  15.4545890  40.8808980  84.5762630
  14.7445390  41.8521890  85.4951210  16.8776370  40.5679120  83.4349850
  16.8164770  39.6240340  83.2880870  17.6568400  40.6759210  83.9803310
   1.8057140  40.5388260  79.9005660   2.5636500  40.6517140  79.3269690
   1.3434310  41.3757460  79.8549090   8.3470950  42.6527530  82.8907970
   7.5345460  42.2784420  82.5503850   8.8512590  41.8972610  83.1929160
  12.8495930  39.3169980  84.1291040  13.4525300  39.8890190  84.6039560
  12.1088920  39.8809420  83.9064940  15.9930530  39.7191540  79.4031320
  16.1881160  40.6174990  79.6698750  15.2060400  39.4878620  79.8964270
   2.7891820  55.4004710  79.8423940   2.2639440  55.7812740  79.1385900
   2.7136400  56.0255480  80.5633650   4.1782290  41.0652310  78.4407630
   4.7075050  40.2782110  78.3115580   4.8110610  41.7443500  78.6743160
   6.3720130  40.8027450  81.4953020   5.7422870  40.1014760  81.6623150
   5.8325270  41.5631580  81.2786180   9.3112080  57.4166680  94.1663630
  10.2379390  57.1810950  94.2099590   9.2962510  58.2438680  93.6849660
   6.4975690  40.0811430  93.9305510   6.2159960  40.5845030  93.1666330
   6.8795390  39.2833180  93.5647640   5.3884790  57.3487090  78.7173190
   6.1203610  57.0646370  78.1697080   5.6478460  57.1100370  79.6072570
   4.5499580  53.4651820  78.7219520   3.9208460  53.9336920  79.2705350
   4.6647410  52.6201040  79.1565710  13.0991150  39.4965010  94.5085980
  12.9856600  39.8159620  95.4037500  13.9160890  39.8977520  94.2123260
  15.8789640  56.6436540  93.9904670  16.6714960  56.1485770  93.7830630
  16.1722790  57.3226680  94.5980280  12.0049300  47.5157480  64.8720720
  11.9243350  46.6012090  64.6012430  11.5913720  48.0124550  64.1660430
  10.1367340  49.2936500  66.7529990   9.3609440  48.8136940  67.0428560
  10.7880270  48.6142150  66.5786150   4.1533170  49.6056310  67.6305750
   3.3218050  49.3505020  68.0302260   4.7614150  49.6767080  68.3663670
   4.1334430  53.6396400  67.8263770   4.4362470  52.7494140  67.6473990
   4.8778020  54.1966620  67.5986020   2.5625120  44.5658200  61.4148140
   1.6741820  44.9074170  61.3128020   2.8466310  44.3658520  60.5228970
  10.3838080  55.9854700  65.1533110   9.7649520  56.4412200  64.5827550
  11.2389860  56.1406160  64.7522810   9.5776330  51.9693690  66.7600150
   9.5084610  51.0283630  66.5989280  10.3396190  52.0595100  67.3322720
   1.7683000  42.5748210  69.0856770   1.5885840  41.6773960  69.3659530
   1.3663080  43.1220080  69.7603720  10.6081500  44.7764070  66.9869080
  10.9846320  43.9035950  66.8742750  10.5101010  45.1122770  66.0959520
   4.7386510  43.1489700  62.4486520   4.8453260  44.0493430  62.7555280
   3.8278870  43.1007670  62.1581170  14.3905620  42.2714510  63.9197420
  15.2115240  41.7811080  63.9622900  14.4239700  42.8612170  64.6729260
   2.3869670  45.0708710  67.6939110   3.0679780  45.3347080  68.3126510
   2.0717720  44.2309580  68.0277120   6.5794240  46.1176070  66.7811700
   7.0872460  46.6157040  67.4216720   7.1107480  45.3411270  66.6051060
  18.6805170  44.2881260  70.4841050  17.9757340  44.6762970  69.9656160
  18.9463090  44.9831550  71.0861980   4.8630340  40.7574630  71.0475120
   4.8648780  41.2747020  70.2421020   4.0334650  40.2804810  71.0245050
  11.2501430  50.8693940  62.5465020  10.6318700  51.3343390  61.9827740
  11.7624680  51.5621420  62.9634530   6.1133190  50.3969810  69.2248620
   5.7802570  51.0238730  69.8669690   6.2899870  50.9231690  68.4450290
  14.6267100  44.2114890  66.6924960  13.9222670  44.4999780  67.2728070
  14.9879260  45.0215000  66.3324520   4.5445670  42.4684590  69.0545570
   4.8862480  43.3126640  68.7599440   3.6061480  42.6168330  69.1710910
   5.3252290  52.3650610  71.0397800   5.9426290  53.0401690  70.7582250
   4.4645410  52.7738590  70.9485300  17.6954020  43.6569680  67.0834170
  16.7478930  43.6908660  67.2149600  18.0204010  44.4708630  67.4683530
   8.2273560  39.9566860  65.3790160   8.5348540  39.4013750  64.6625660
   7.2974260  40.0911320  65.1963150  13.1774060  50.5763990  68.9980230
  13.5942850  50.3624100  68.1633690  13.9013880  50.8336780  69.5688850
  10.6154320  48.0215690  62.1150280   9.6883600  47.9553070  62.3438750
  10.7679140  48.9595820  62.0005520  10.6023400  44.2932690  59.1117440
   9.6627070  44.4546650  59.1969900  10.9206660  45.0118370  58.5653430
  17.1236160  48.9751210  69.0896470  16.2954790  49.0444300  68.6146600
  17.7186640  49.5605520  68.6212300  14.6451610  49.5835990  62.6185530
  14.0264030  49.2455540  61.9711830  14.6276060  48.9395750  63.3264720
  14.0878170  45.7620530  70.0351340  13.6749350  46.5874240  70.2891330
  13.3554120  45.1765570  69.8427700   6.2210960  48.5480430  64.8970010
   5.8167960  47.8357680  64.4015910   6.3074080  48.2033670  65.7858050
   6.6892660  52.2347990  67.0609220   6.3920950  51.6293460  66.3817000
   7.6392480  52.2725300  66.9498580   4.9339580  45.3223640  68.6769050
   5.4854170  45.4318980  67.9022300   5.4483090  45.6961240  69.3924280
  14.7778270  55.8079860  70.7232320  14.3008830  56.6152050  70.5304930
  14.0940060  55.1558190  70.8758530   5.7811090  51.9729680  73.7117020
   4.8839620  52.1969650  73.9590420   5.8063960  52.0964620  72.7628420
  12.8216310  48.8222800  59.6258280  13.2609590  47.9845230  59.4796100
  13.5344730  49.4552200  59.7122420   4.6082310  48.8443000  72.2874390
   4.4690080  49.7165800  72.6561790   3.7263670  48.5015810  72.1422330
  10.9311690  53.7618870  63.5939520  11.3707600  54.5043200  63.1794910
  10.8698580  54.0045440  64.5178480   6.4062660  54.7864700  74.4959540
   6.3778090  55.1907650  73.6287970   6.2427630  53.8575060  74.3331140
  16.4033450  40.0765610  57.9399320  16.0906110  40.1692440  58.8398390
  17.1645920  40.6546640  57.8896750   2.9215590  47.4425410  62.3976660
   2.8013190  48.1687500  61.7857930   2.6116480  46.6728320  61.9204570
  18.3577480  55.5691800  75.7923710  18.8337200  56.0474690  76.4712790
  18.9784640  55.5009290  75.0669210   1.8048590  52.3140740  64.6151480
   1.3976670  52.4555330  63.7605080   2.6961600  52.0300900  64.4122690
  17.7610730  52.7604650  72.9523720  17.8873790  52.5216530  72.0340900
  17.8032110  51.9289190  73.4245800  11.6227470  56.4632650  71.5218530
  12.1372140  56.3740660  72.3240960  10.7796550  56.8092350  71.8146440
   6.0770250  56.5286520  62.7274150   5.9012730  55.6122060  62.5141950
   5.2225990  56.8873810  62.9671950  13.3008000  54.2575550  59.5100530
  12.6073160  54.2552840  58.8502810  14.0430860  53.8334870  59.0794700
  12.8657930  55.8838260  63.5849020  13.3214880  55.1027640  63.8987640
  13.2050450  56.5945080  64.1290200  17.6134740  44.8137110  73.9173460
  16.9979010  45.3216780  73.3888920  17.2931160  43.9135440  73.8599400
   5.3879250  40.7860480  65.7800330   4.9447400  41.5670020  65.4484850
   5.9464240  41.1090370  66.4871270   9.6749060  43.6529000  71.3835650
   9.2128430  43.8612020  72.1955590   9.2727170  42.8388350  71.0806320
  14.6753570  44.8737950  72.5132310  13.8247160  44.5743700  72.8341380
  14.5155360  45.1179960  71.6016130  11.7703280  46.3739700  74.6131100
  12.0956690  45.5403450  74.2733330  12.5583610  46.8968220  74.7609430
   8.5038070  40.4071180  60.6606160   7.8792250  40.4031050  61.3859470
   8.4168190  39.5402140  60.2642130   7.4255150  41.3307810  67.6389930
   7.7227480  42.2370640  67.5581950   7.9740710  40.8426590  67.0249500
   5.1793470  45.9094050  63.5081580   4.9534390  45.6931220  64.4128200
   4.3986000  46.3422510  63.1627550  12.4091230  45.9157420  62.1072230
  11.8100120  46.6393220  61.9235850  12.9570840  45.8534200  61.3248680
   7.6192680  46.8079630  74.1741850   7.5236280  45.8674360  74.0242250
   8.4624660  47.0294700  73.7789920  11.0156100  44.5520960  64.1375510
  11.4085670  44.8693160  63.3244200  11.3772950  43.6732840  64.2520030
   2.7503220  43.2193300  72.3275630   2.3566610  44.0668510  72.5348410
   2.0621620  42.5819670  72.5184270   9.3248270  43.3028270  75.3972370
   8.6346590  43.1100470  76.0318460  10.0680570  43.5862910  75.9296670
  11.6011240  47.1426710  68.2326290  10.8692360  47.6513520  68.5816390
  11.2035580  46.3256690  67.9315070   8.0388630  43.8180910  66.6378780
   8.0424690  43.3770860  65.7883320   8.9339750  44.1398240  66.7450600
   3.8891010  43.7007400  65.5972990   3.5491060  44.1782630  66.3540040
   3.1268330  43.2472520  65.2374090   8.1008780  44.8192990  59.6285540
   8.2221600  44.7779470  60.5771360   7.7157290  45.6817140  59.4732270
  12.0637150  42.5960390  67.6449230  12.0809890  43.0469040  68.4891080
  11.8152730  41.6966030  67.8582670   7.1130280  47.1294130  59.0268840
   6.5447180  46.6812380  58.4004750   7.8219280  47.4886910  58.4933990
  15.4907900  40.0092570  73.4835610  15.8153670  39.2782230  74.0093590
  15.5264410  39.6906210  72.5816600   2.1899460  51.0306150  72.9035570
   1.8054250  50.3899820  73.5018530   2.5011650  51.7342270  73.4730300
   8.3396600  47.8782690  68.3844190   8.7066730  47.4041260  69.1305530
   8.1501660  48.7524260  68.7252530   6.1295970  46.9191330  70.7028400
   5.8253040  47.7983310  70.9278760   7.0842430  46.9791120  70.7385840
   4.6577760  51.1252320  61.2995250   3.8840020  50.5849940  61.1393970
   5.3872390  50.6058930  60.9613010  10.8775680  41.5155640  61.2351030
  10.0640290  41.0168810  61.1596340  10.6837630  42.3553890  60.8187380
  10.7984540  50.1926740  72.9790640  10.7321850  49.2722410  72.7248230
  10.1689680  50.2902180  73.6935280  13.5924070  45.8875290  59.5313190
  14.4803690  46.1992520  59.3564530  13.5629160  45.0147540  59.1393770
   4.7015160  50.7932700  64.9374060   5.2193830  49.9900960  64.8830950
   4.2499180  50.7311840  65.7790890   9.5884660  52.0598980  60.2101360
   9.9300360  52.8041210  59.7144680   8.7597370  52.3730100  60.5726190
   2.1859700  47.7594070  71.8499760   1.8274640  48.4247920  72.4373100
   1.8914260  46.9277620  72.2212380   5.3872820  48.2178310  74.7339310
   5.0872960  48.3635490  73.8367130   6.1584060  47.6583600  74.6412700
  10.7301270  53.0147310  72.7294440  10.7445810  52.0828270  72.5113350
  10.0226370  53.1007070  73.3684210  15.8638340  47.1987130  58.9993050
  15.7802060  47.6301350  58.1489490  16.5832530  47.6585480  59.4319870
  16.9412480  49.6554650  72.0763020  16.2160670  50.2483430  71.8792410
  17.4687940  49.6478190  71.2776390  12.4712070  51.3814820  65.5746870
  12.8235890  50.7842950  64.9148240  11.5874400  51.0559050  65.7455120
   8.5575350  52.1412510  62.9817280   9.2446480  52.6881720  63.3624870
   7.7707770  52.6853240  63.0166890   7.8602560  49.1458540  62.5942640
   8.3165340  49.9563790  62.8202830   7.5090770  48.8281680  63.4261130
  10.1635170  54.6564880  69.8234940  10.8077390  54.8624260  70.5008360
  10.5264610  53.8953280  69.3705790   3.7614340  39.4896190  63.0665160
   3.6328970  39.4814090  64.0150080   2.9376360  39.8279280  62.7156170
  11.4367250  52.6597230  68.5412390  12.0789480  51.9590390  68.6544560
  11.9616600  53.4395670  68.3609280  15.2822970  52.9445850  58.2651530
  15.0560550  52.2276290  58.8576170  14.8919170  52.6958290  57.4273280
  13.2104870  53.4592130  71.7448450  13.5461110  54.0458820  72.4226370
  12.2905210  53.3284840  71.9746240  14.8639220  50.8617790  59.9265690
  14.5760920  51.3230480  60.7143570  15.6591390  50.4015560  60.1949910
   9.0393450  53.5083460  74.9136510   8.7190320  52.7892700  75.4582200
   8.3651810  54.1838530  74.9872570   7.0807620  54.3543910  59.8569660
   7.0717720  55.0873600  59.2414170   6.1605980  54.1075490  59.9496620
   2.6814260  49.5758800  60.6016420   2.0742210  50.3157700  60.6111720
   3.1563610  49.6658160  59.7754620  12.2547050  43.7409620  70.2773310
  12.6227870  42.9204830  70.6052880  11.3945250  43.8011510  70.6928960
  15.6209080  42.6966560  61.0860870  14.9922240  42.8012230  60.3719100
  15.1261000  42.9163340  61.8754750  10.0667220  54.4172150  58.5194850
  10.1679200  54.2136140  57.5896830   9.1668960  54.1630430  58.7242630
   7.5893110  44.9752510  62.5018750   6.8809260  45.4438850  62.9432360
   7.8737590  44.3174520  63.1363940   9.2149040  46.3949210  70.5011280
   9.7134290  46.8695030  71.1663130   9.3571990  45.4712730  70.7081310
  11.6208540  41.7003170  63.9414540  11.4976320  41.7189300  62.9924050
  12.5693100  41.7482110  64.0612940   8.7085330  56.9358470  63.2142520
   8.9626830  56.8979860  62.2921890   7.7597810  56.8091800  63.2070770
   5.7928130  43.2837590  59.8769460   6.6418660  43.7207740  59.8109650
   5.4259400  43.5957850  60.7041520  16.4215900  42.6117170  71.3439670
  15.9189500  43.3522570  71.6833480  17.2372560  43.0001170  71.0276460
  14.7137910  47.8550350  64.7901030  13.7728050  47.8700580  64.9648720
  15.0281980  47.0686310  65.2361330   4.6919550  49.5369950  58.3504990
   5.4582820  49.4251310  58.9130420   4.7694240  48.8407920  57.6981760
   3.3866310  46.9695020  59.0337880   3.4669900  46.0222530  59.1455280
   4.2786060  47.3001900  59.1398540   4.1881020  57.1190410  66.1372420
   4.9243500  56.5705870  66.4080990   4.5721940  57.9846420  65.9978410
   3.1939300  56.3036480  75.3258000   3.9952030  56.6248530  75.7393400
   2.6791120  55.9432060  76.0477910   7.2983330  56.2920720  57.9597990
   8.0911940  56.5809550  57.5079780   6.7787680  55.8612890  57.2810470
  12.0303930  52.4116350  75.2733410  11.4242090  52.4347950  74.5329160
  11.7258040  51.6799390  75.8100660  13.4604300  56.1396640  73.8842820
  14.4126050  56.0554660  73.8343060  13.3132520  56.8038350  74.5576610
   7.8160730  51.5124130  57.8240340   7.7111370  50.8976480  58.5501720
   7.6484950  50.9890020  57.0403350   7.9675050  50.1980930  73.8029570
   7.2020720  50.7665930  73.7184240   8.1491010  49.9057140  72.9097800
  11.0563460  50.5744160  58.4282330  10.5073560  51.0213460  59.0725070
  11.6782720  50.0693410  58.9520000  15.1098400  51.9286260  74.3604590
  15.8507870  52.2662020  73.8572050  14.3471080  52.0978320  73.8074360
   2.9460190  46.9339530  75.1644120   2.9865530  46.6353400  76.0729350
   3.8005690  47.3347140  75.0051640   6.7238580  49.5335080  60.3247630
   7.1455000  49.3674950  61.1679020   6.8489420  48.7235310  59.8302770
   4.8866000  45.5131630  73.1318610   4.3562460  45.0222580  72.5041950
   5.5554070  45.9415830  72.5976540   9.2366220  48.5572690  57.5724730
   9.7571880  47.8421710  57.2065880   9.8834620  49.1958560  57.8725240
  13.7844060  49.9801090  72.8959800  14.1985080  50.1346170  73.7450220
  12.8495060  50.1056310  73.0585580  14.2566230  47.3197250  74.8998950
  14.8387000  46.5649570  74.8119430  14.4328000  47.8504690  74.1230430
   5.3738300  42.4794000  73.2115900   5.2795170  41.8614750  72.4866770
   4.7935690  43.2060290  72.9845810   8.1399740  41.0367240  70.2443290
   7.6917040  41.0591500  69.3988840   7.5064940  40.6386260  70.8413590
   8.5459290  49.9321570  70.8655730   8.9647400  50.7754300  70.6931970
   7.6267920  50.0693610  70.6362510  10.8823190  47.6637750  72.2493570
  11.0019400  47.0678890  72.9888410  11.7417190  47.7007440  71.8294870
  13.2211090  48.2174940  70.8256080  12.6946310  48.7417560  70.2221220
  13.5642430  48.8502330  71.4565810   5.6197480  45.6068310  57.2705790
   5.4186540  44.7435670  57.6319130   5.4489530  45.5201670  56.3327390
   6.3966710  56.2374580  71.9813460   5.8587800  56.9620640  71.6622160
   6.6500670  55.7604920  71.1910800   7.6491960  44.2059100  73.5069390
   8.2391650  43.8974950  74.1947210   6.8312200  43.7338850  73.6629290
  12.4685390  43.8224910  73.7402410  11.7800910  43.1606450  73.6752400
  13.1891410  43.3763180  74.1850870  13.0985790  40.4176540  59.7992670
  13.3788080  39.5744440  60.1552090  12.3251520  40.6499650  60.3131420
   4.4180280  42.7068930  57.2583670   4.7206180  42.7136360  56.3502820
   5.1574870  42.3566790  57.7551330   9.2528920  57.4725790  72.2400110
   9.1787620  58.3760930  72.5472480   8.3507760  57.1537690  72.2122180
   7.6365210  41.6503550  58.2439870   7.2887210  40.9727540  57.6642320
   7.8377980  41.1893060  59.0583260   9.8014250  56.6384300  59.8626470
  10.6965040  56.9769270  59.8845230   9.8331880  55.9163710  59.2350750
   3.4410410  52.0111350  58.0913470   3.8785280  52.5541020  58.7471050
   3.9258140  51.1858300  58.1009810   5.2518130  53.1309390  63.2035700
   4.9513670  53.0074360  64.1039610   5.1455620  52.2717980  62.7951430
  16.7808600  55.1687970  72.5692670  16.1810590  55.2280530  71.8256590
  16.9102500  54.2292950  72.6989520  17.4766510  49.6553270  60.4096580
  18.2385420  50.2249920  60.5156270  17.4920880  49.0880470  61.1804890
  15.4660240  51.8939950  70.6668830  14.6520080  52.3237110  70.9294620
  15.8734440  52.5058360  70.0537880  17.5285680  49.9487640  57.5669100
  17.8034520  50.8566520  57.4388320  17.3396420  49.8850170  58.5031090
  13.9261290  42.9732490  58.8622730  14.3446170  42.7863470  58.0219390
  13.6197350  42.1211540  59.1725660  17.4251020  47.8856630  62.5598530
  17.0494620  47.1184560  62.1279820  16.6954140  48.2679330  63.0473460
   2.0146780  48.5643770  69.1807580   2.3819820  48.4771170  70.0603600
   1.4457600  47.8010320  69.0814440  16.8150640  47.0328150  72.1938050
  16.5836730  46.8040900  71.2936000  17.0755190  47.9527700  72.1482940
  15.2538710  42.2584580  74.9717750  16.1308890  42.2667980  75.3551750
  15.2659550  41.5215420  74.3610100  16.7001980  46.1114120  65.8605770
  17.2239460  45.6176770  65.2295940  17.2861400  46.2464480  66.6053340
  16.8791700  46.1953990  69.3825320  15.9294410  46.1617530  69.4970310
  17.0604710  47.1054100  69.1475090   2.7336140  44.4455670  58.4923950
   3.4427840  44.0238890  58.0071230   2.0176080  44.5130900  57.8607300
   2.3810300  40.4995000  57.5326600   3.1038430  41.0403940  57.8507820
   2.6534820  40.2258420  56.6568140  16.1901950  45.3687470  61.7998180
  16.6861070  45.1358340  62.5847060  15.9918020  44.5299310  61.3835820
   2.0702490  39.7501190  67.4349220   2.7178680  39.1998570  66.9944380
   2.4904330  40.0044340  68.2565030  17.6189110  44.0048420  64.3335860
  17.5088390  43.8504460  65.2718130  18.3796700  43.4769360  64.0911270
  15.9654830  39.9442550  70.7918860  16.6027050  40.5576690  71.1578050
  16.1129720  39.9803210  69.8468090  18.5079380  41.8356340  57.5742000
  19.4328690  41.7037520  57.3660290  18.4855170  41.9149160  58.5278450
   1.8234490  39.9056860  70.1774540   1.4749310  40.3620680  70.9432720
   1.4922190  39.0113990  70.2596970   3.4298860  53.0776460  74.3427730
   3.3868490  52.7069370  75.2242190   3.5609870  54.0154030  74.4829550
   7.1304890  54.6336050  69.9437450   6.8896250  54.9010610  69.0567970
   8.0707530  54.8041780  69.9988310   9.3359310  41.0968740  73.6993960
   9.2748200  41.6890570  74.4489370  10.2759690  40.9894700  73.5544220
  11.9733870  40.7538800  73.3386250  12.5874280  41.0718090  72.6767330
  12.5183430  40.2687390  73.9582110  18.3909050  56.6530430  70.7448090
  17.8967330  57.0499300  70.0275220  17.7822340  56.0279640  71.1385370
   2.4955130  39.4333060  73.4525310   3.0438120  39.2521110  72.6891420
   2.5610440  38.6427170  73.9881620   3.2686890  56.0238710  71.4625510
   2.6747210  55.8923410  72.2015550   3.2610730  55.1876850  70.9967610
  12.7141910  39.3170940  69.6655540  11.8401750  39.6506050  69.4628470
  12.6052660  38.8444120  70.4907410  13.6213890  41.5241810  71.0497260
  13.2927250  40.7093570  70.6698990  14.5696190  41.4811620  70.9262950
   2.8999120  53.3897090  70.4133550   2.1733180  52.7702380  70.3459500
   2.9608270  53.7837700  69.5431630   6.5044220  55.6042090  67.1982960
   7.0209240  54.9929450  66.6731220   7.1541600  56.1070870  67.6893970
   9.2439720  56.4950580  68.0251940   9.5317530  56.2404880  67.1484950
   9.7562940  55.9427940  68.6157510  10.4616730  40.2340780  68.6048450
   9.6788520  40.7086280  68.8845210  10.1679660  39.3295610  68.4961630
  15.0137800  40.9363880  66.6497540  15.4545890  40.8808980  65.8019140
  14.7445390  41.8521890  66.7207720  16.8776370  40.5679120  64.6606360
  16.8164770  39.6240340  64.5137380  17.6568400  40.6759210  65.2059820
   1.8057140  40.5388260  61.1262170   2.5636500  40.6517140  60.5526200
   1.3434310  41.3757460  61.0805600   8.3470950  42.6527530  64.1164480
   7.5345460  42.2784420  63.7760360   8.8512590  41.8972610  64.4185670
  12.8495930  39.3169980  65.3547550  13.4525300  39.8890190  65.8296070
  12.1088920  39.8809420  65.1321450  15.9930530  39.7191540  60.6287830
  16.1881160  40.6174990  60.8955260  15.2060400  39.4878620  61.1220780
   2.7891820  55.4004710  61.0680450   2.2639440  55.7812740  60.3642410
   2.7136400  56.0255480  61.7890160   4.1782290  41.0652310  59.6664140
   4.7075050  40.2782110  59.5372090   4.8110610  41.7443500  59.8999670
   6.3720130  40.8027450  62.7209530   5.7422870  40.1014760  62.8879660
   5.8325270  41.5631580  62.5042690   9.3112080  57.4166680  75.3920140
  10.2379390  57.1810950  75.4356100   9.2962510  58.2438680  74.9106170
   6.4975690  40.0811430  75.1562020   6.2159960  40.5845030  74.3922840
   6.8795390  39.2833180  74.7904150   5.3884790  57.3487090  59.9429700
   6.1203610  57.0646370  59.3953590   5.6478460  57.1100370  60.8329080
   4.5499580  53.4651820  59.9476030   3.9208460  53.9336920  60.4961860
   4.6647410  52.6201040  60.3822220  13.0991150  39.4965010  75.7342490
  12.9856600  39.8159620  76.6294010  13.9160890  39.8977520  75.4379770
  15.8789640  56.6436540  75.2161180  16.6714960  56.1485770  75.0087140
  16.1722790  57.3226680  75.8236790  12.0049300  47.5157480  46.0977230
  11.9243350  46.6012090  45.8268940  11.5913720  48.0124550  45.3916940
  10.1367340  49.2936500  47.9786500   9.3609440  48.8136940  48.2685070
  10.7880270  48.6142150  47.8042660   4.1533170  49.6056310  48.8562260
   3.3218050  49.3505020  49.2558770   4.7614150  49.6767080  49.5920180
  14.1574770  53.6996690  46.7585630  13.6956300  52.9283930  47.0872800
  14.9700320  53.7262760  47.2638080   4.1334430  53.6396400  49.0520280
   4.4362470  52.7494140  48.8730500   4.8778020  54.1966620  48.8242530
   2.5625120  44.5658200  42.6404650   1.6741820  44.9074170  42.5384530
   2.8466310  44.3658520  41.7485480  10.3838080  55.9854700  46.3789620
   9.7649520  56.4412200  45.8084060  11.2389860  56.1406160  45.9779320
   9.5776330  51.9693690  47.9856660   9.5084610  51.0283630  47.8245790
  10.3396190  52.0595100  48.5579230   1.7683000  42.5748210  50.3113280
   1.5885840  41.6773960  50.5916040   1.3663080  43.1220080  50.9860230
  10.6081500  44.7764070  48.2125590  10.9846320  43.9035950  48.0999260
  10.5101010  45.1122770  47.3216030   4.7386510  43.1489700  43.6743030
   4.8453260  44.0493430  43.9811790   3.8278870  43.1007670  43.3837680
  14.3905620  42.2714510  45.1453930  15.2115240  41.7811080  45.1879410
  14.4239700  42.8612170  45.8985770   2.3869670  45.0708710  48.9195620
   3.0679780  45.3347080  49.5383020   2.0717720  44.2309580  49.2533630
   6.5794240  46.1176070  48.0068210   7.0872460  46.6157040  48.6473230
   7.1107480  45.3411270  47.8307570  18.6805170  44.2881260  51.7097560
  17.9757340  44.6762970  51.1912670  18.9463090  44.9831550  52.3118490
   4.8630340  40.7574630  52.2731630   4.8648780  41.2747020  51.4677530
   4.0334650  40.2804810  52.2501560  11.2501430  50.8693940  43.7721530
  10.6318700  51.3343390  43.2084250  11.7624680  51.5621420  44.1891040
   6.1133190  50.3969810  50.4505130   5.7802570  51.0238730  51.0926200
   6.2899870  50.9231690  49.6706800  14.6267100  44.2114890  47.9181470
  13.9222670  44.4999780  48.4984580  14.9879260  45.0215000  47.5581030
   4.5445670  42.4684590  50.2802080   4.8862480  43.3126640  49.9855950
   3.6061480  42.6168330  50.3967420   5.3252290  52.3650610  52.2654310
   5.9426290  53.0401690  51.9838760   4.4645410  52.7738590  52.1741810
  16.2429880  53.8290020  50.1808950  15.5593400  54.4989130  50.1725620
  16.7824170  54.0270670  49.4153810  17.6954020  43.6569680  48.3090680
  16.7478930  43.6908660  48.4406110  18.0204010  44.4708630  48.6940040
   8.2273560  39.9566860  46.6046670   8.5348540  39.4013750  45.8882170
   7.2974260  40.0911320  46.4219660  13.7788620  55.6734150  48.8954130
  13.7915780  55.2696440  48.0276390  13.2263840  56.4481440  48.7915560
  15.0734040  52.3950370  43.9844300  14.9630370  51.4524700  44.1093720
  15.0702290  52.7566010  44.8707060  13.1774060  50.5763990  50.2236740
  13.5942850  50.3624100  49.3890200  13.9013880  50.8336780  50.7945360
  10.6154320  48.0215690  43.3406790   9.6883600  47.9553070  43.5695260
  10.7679140  48.9595820  43.2262030  10.6023400  44.2932690  40.3373950
   9.6627070  44.4546650  40.4226410  10.9206660  45.0118370  39.7909940
  17.1236160  48.9751210  50.3152980  16.2954790  49.0444300  49.8403110
  17.7186640  49.5605520  49.8468810  14.6451610  49.5835990  43.8442040
  14.0264030  49.2455540  43.1968340  14.6276060  48.9395750  44.5521230
  14.0878170  45.7620530  51.2607850  13.6749350  46.5874240  51.5147840
  13.3554120  45.1765570  51.0684210   6.2210960  48.5480430  46.1226520
   5.8167960  47.8357680  45.6272420   6.3074080  48.2033670  47.0114560
   6.6892660  52.2347990  48.2865730   6.3920950  51.6293460  47.6073510
   7.6392480  52.2725300  48.1755090   4.9339580  45.3223640  49.9025560
   5.4854170  45.4318980  49.1278810   5.4483090  45.6961240  50.6180790
  14.7778270  55.8079860  51.9488830  14.3008830  56.6152050  51.7561440
  14.0940060  55.1558190  52.1015040   5.7811090  51.9729680  54.9373530
   4.8839620  52.1969650  55.1846930   5.8063960  52.0964620  53.9884930
  12.8216310  48.8222800  40.8514790  13.2609590  47.9845230  40.7052610
  13.5344730  49.4552200  40.9378930   4.6082310  48.8443000  53.5130900
   4.4690080  49.7165800  53.8818300   3.7263670  48.5015810  53.3678840
  10.9311690  53.7618870  44.8196030  11.3707600  54.5043200  44.4051420
  10.8698580  54.0045440  45.7434990   6.4062660  54.7864700  55.7216050
   6.3778090  55.1907650  54.8544480   6.2427630  53.8575060  55.5587650
  16.4033450  40.0765610  39.1655830  16.0906110  40.1692440  40.0654900
  17.1645920  40.6546640  39.1153260   2.9215590  47.4425410  43.6233170
   2.8013190  48.1687500  43.0114440   2.6116480  46.6728320  43.1461080
   1.8048590  52.3140740  45.8407990   1.3976670  52.4555330  44.9861590
   2.6961600  52.0300900  45.6379200  11.6227470  56.4632650  52.7475040
  12.1372140  56.3740660  53.5497470  10.7796550  56.8092350  53.0402950
  13.5981870  56.7487990  42.1759040  13.4383010  56.4590930  43.0740870
  13.4328580  55.9728120  41.6404270   6.0770250  56.5286520  43.9530660
   5.9012730  55.6122060  43.7398460   5.2225990  56.8873810  44.1928460
  13.3008000  54.2575550  40.7357040  12.6073160  54.2552840  40.0759320
  14.0430860  53.8334870  40.3051210  12.8657930  55.8838260  44.8105530
  13.3214880  55.1027640  45.1244150  13.2050450  56.5945080  45.3546710
  17.6134740  44.8137110  55.1429970  16.9979010  45.3216780  54.6145430
  17.2931160  43.9135440  55.0855910   5.3879250  40.7860480  47.0056840
   4.9447400  41.5670020  46.6741360   5.9464240  41.1090370  47.7127780
   9.6749060  43.6529000  52.6092160   9.2128430  43.8612020  53.4212100
   9.2727170  42.8388350  52.3062830  14.6753570  44.8737950  53.7388820
  13.8247160  44.5743700  54.0597890  14.5155360  45.1179960  52.8272640
  11.7703280  46.3739700  55.8387610  12.0956690  45.5403450  55.4989840
  12.5583610  46.8968220  55.9865940   8.5038070  40.4071180  41.8862670
   7.8792250  40.4031050  42.6115980   8.4168190  39.5402140  41.4898640
   7.4255150  41.3307810  48.8646440   7.7227480  42.2370640  48.7838460
   7.9740710  40.8426590  48.2506010   5.1793470  45.9094050  44.7338090
   4.9534390  45.6931220  45.6384710   4.3986000  46.3422510  44.3884060
  12.4091230  45.9157420  43.3328740  11.8100120  46.6393220  43.1492360
  12.9570840  45.8534200  42.5505190   7.6192680  46.8079630  55.3998360
   7.5236280  45.8674360  55.2498760   8.4624660  47.0294700  55.0046430
  11.0156100  44.5520960  45.3632020  11.4085670  44.8693160  44.5500710
  11.3772950  43.6732840  45.4776540   2.7503220  43.2193300  53.5532140
   2.3566610  44.0668510  53.7604920   2.0621620  42.5819670  53.7440780
   9.3248270  43.3028270  56.6228880   8.6346590  43.1100470  57.2574970
  10.0680570  43.5862910  57.1553180  11.6011240  47.1426710  49.4582800
  10.8692360  47.6513520  49.8072900  11.2035580  46.3256690  49.1571580
   8.0388630  43.8180910  47.8635290   8.0424690  43.3770860  47.0139830
   8.9339750  44.1398240  47.9707110   3.8891010  43.7007400  46.8229500
   3.5491060  44.1782630  47.5796550   3.1268330  43.2472520  46.4630600
   8.1008780  44.8192990  40.8542050   8.2221600  44.7779470  41.8027870
   7.7157290  45.6817140  40.6988780  12.0637150  42.5960390  48.8705740
  12.0809890  43.0469040  49.7147590  11.8152730  41.6966030  49.0839180
   7.1130280  47.1294130  40.2525350   6.5447180  46.6812380  39.6261260
   7.8219280  47.4886910  39.7190500  15.4907900  40.0092570  54.7092120
  15.8153670  39.2782230  55.2350100  15.5264410  39.6906210  53.8073110
   2.1899460  51.0306150  54.1292080   1.8054250  50.3899820  54.7275040
   2.5011650  51.7342270  54.6986810   8.3396600  47.8782690  49.6100700
   8.7066730  47.4041260  50.3562040   8.1501660  48.7524260  49.9509040
   6.1295970  46.9191330  51.9284910   5.8253040  47.7983310  52.1535270
   7.0842430  46.9791120  51.9642350   4.6577760  51.1252320  42.5251760
   3.8840020  50.5849940  42.3650480   5.3872390  50.6058930  42.1869520
  15.4165740  50.1217680  48.3178150  16.1364860  50.6172970  47.9274260
  15.2147560  49.4435570  47.6732020  10.8775680  41.5155640  42.4607540
  10.0640290  41.0168810  42.3852850  10.6837630  42.3553890  42.0443890
  10.7984540  50.1926740  54.2047150  10.7321850  49.2722410  53.9504740
  10.1689680  50.2902180  54.9191790  13.5924070  45.8875290  40.7569700
  14.4803690  46.1992520  40.5821040  13.5629160  45.0147540  40.3650280
   4.7015160  50.7932700  46.1630570   5.2193830  49.9900960  46.1087460
   4.2499180  50.7311840  47.0047400   9.5884660  52.0598980  41.4357870
   9.9300360  52.8041210  40.9401190   8.7597370  52.3730100  41.7982700
   2.1859700  47.7594070  53.0756270   1.8274640  48.4247920  53.6629610
   1.8914260  46.9277620  53.4468890   5.3872820  48.2178310  55.9595820
   5.0872960  48.3635490  55.0623640   6.1584060  47.6583600  55.8669210
  10.7301270  53.0147310  53.9550950  10.7445810  52.0828270  53.7369860
  10.0226370  53.1007070  54.5940720  15.8638340  47.1987130  40.2249560
  15.7802060  47.6301350  39.3746000  16.5832530  47.6585480  40.6576380
  16.9412480  49.6554650  53.3019530  16.2160670  50.2483430  53.1048920
  17.4687940  49.6478190  52.5032900  16.8925590  54.0529390  42.9531690
  16.2501750  53.3985010  43.2275410  16.5056250  54.4584480  42.1772360
  12.4712070  51.3814820  46.8003380  12.8235890  50.7842950  46.1404750
  11.5874400  51.0559050  46.9711630   8.5575350  52.1412510  44.2073790
   9.2446480  52.6881720  44.5881380   7.7707770  52.6853240  44.2423400
   7.8602560  49.1458540  43.8199150   8.3165340  49.9563790  44.0459340
   7.5090770  48.8281680  44.6517640  10.1635170  54.6564880  51.0491450
  10.8077390  54.8624260  51.7264870  10.5264610  53.8953280  50.5962300
   3.7614340  39.4896190  44.2921670   3.6328970  39.4814090  45.2406590
   2.9376360  39.8279280  43.9412680  11.4367250  52.6597230  49.7668900
  12.0789480  51.9590390  49.8801070  11.9616600  53.4395670  49.5865790
  15.2822970  52.9445850  39.4908040  15.0560550  52.2276290  40.0832680
  14.8919170  52.6958290  38.6529790  13.2104870  53.4592130  52.9704960
  13.5461110  54.0458820  53.6482880  12.2905210  53.3284840  53.2002750
  14.8639220  50.8617790  41.1522200  14.5760920  51.3230480  41.9400080
  15.6591390  50.4015560  41.4206420   9.0393450  53.5083460  56.1393020
   8.7190320  52.7892700  56.6838710   8.3651810  54.1838530  56.2129080
   7.0807620  54.3543910  41.0826170   7.0717720  55.0873600  40.4670680
   6.1605980  54.1075490  41.1753130   2.6814260  49.5758800  41.8272930
   2.0742210  50.3157700  41.8368230   3.1563610  49.6658160  41.0011130
  12.2547050  43.7409620  51.5029820  12.6227870  42.9204830  51.8309390
  11.3945250  43.8011510  51.9185470  15.6209080  42.6966560  42.3117380
  14.9922240  42.8012230  41.5975610  15.1261000  42.9163340  43.1011260
  10.0667220  54.4172150  39.7451360  10.1679200  54.2136140  38.8153340
   9.1668960  54.1630430  39.9499140   7.5893110  44.9752510  43.7275260
   6.8809260  45.4438850  44.1688870   7.8737590  44.3174520  44.3620450
   9.2149040  46.3949210  51.7267790   9.7134290  46.8695030  52.3919640
   9.3571990  45.4712730  51.9337820  11.6208540  41.7003170  45.1671050
  11.4976320  41.7189300  44.2180560  12.5693100  41.7482110  45.2869450
   8.7085330  56.9358470  44.4399030   8.9626830  56.8979860  43.5178400
   7.7597810  56.8091800  44.4327280   5.7928130  43.2837590  41.1025970
   6.6418660  43.7207740  41.0366160   5.4259400  43.5957850  41.9298030
  16.4215900  42.6117170  52.5696180  15.9189500  43.3522570  52.9089990
  17.2372560  43.0001170  52.2532970  14.7137910  47.8550350  46.0157540
  13.7728050  47.8700580  46.1905230  15.0281980  47.0686310  46.4617840
   4.6919550  49.5369950  39.5761500   5.4582820  49.4251310  40.1386930
   4.7694240  48.8407920  38.9238270   3.3866310  46.9695020  40.2594390
   3.4669900  46.0222530  40.3711790   4.2786060  47.3001900  40.3655050
  16.7163490  55.0259200  47.6911800  16.8410910  55.8490370  48.1635610
  17.5829050  54.8149930  47.3435950   4.1881020  57.1190410  47.3628930
   4.9243500  56.5705870  47.6337500   4.5721940  57.9846420  47.2234920
   3.1939300  56.3036480  56.5514510   3.9952030  56.6248530  56.9649910
   2.6791120  55.9432060  57.2734420   7.2983330  56.2920720  39.1854500
   8.0911940  56.5809550  38.7336290   6.7787680  55.8612890  38.5066980
  12.0303930  52.4116350  56.4989920  11.4242090  52.4347950  55.7585670
  11.7258040  51.6799390  57.0357170  16.3513500  55.5190850  40.6091240
  16.0655010  55.1055990  39.7945420  16.1533050  56.4478560  40.4891760
   7.8160730  51.5124130  39.0496850   7.7111370  50.8976480  39.7758230
   7.6484950  50.9890020  38.2659860   7.9675050  50.1980930  55.0286080
   7.2020720  50.7665930  54.9440750   8.1491010  49.9057140  54.1354310
  11.0563460  50.5744160  39.6538840  10.5073560  51.0213460  40.2981580
  11.6782720  50.0693410  40.1776510  15.1098400  51.9286260  55.5861100
  15.8507870  52.2662020  55.0828560  14.3471080  52.0978320  55.0330870
   2.9460190  46.9339530  56.3900630   2.9865530  46.6353400  57.2985860
   3.8005690  47.3347140  56.2308150   6.7238580  49.5335080  41.5504140
   7.1455000  49.3674950  42.3935530   6.8489420  48.7235310  41.0559280
   4.8866000  45.5131630  54.3575120   4.3562460  45.0222580  53.7298460
   5.5554070  45.9415830  53.8233050   9.2366220  48.5572690  38.7981240
   9.7571880  47.8421710  38.4322390   9.8834620  49.1958560  39.0981750
  13.7844060  49.9801090  54.1216310  14.1985080  50.1346170  54.9706730
  12.8495060  50.1056310  54.2842090  14.2566230  47.3197250  56.1255460
  14.8387000  46.5649570  56.0375940  14.4328000  47.8504690  55.3486940
   5.3738300  42.4794000  54.4372410   5.2795170  41.8614750  53.7123280
   4.7935690  43.2060290  54.2102320   8.1399740  41.0367240  51.4699800
   7.6917040  41.0591500  50.6245350   7.5064940  40.6386260  52.0670100
   8.5459290  49.9321570  52.0912240   8.9647400  50.7754300  51.9188480
   7.6267920  50.0693610  51.8619020  10.8823190  47.6637750  53.4750080
  11.0019400  47.0678890  54.2144920  11.7417190  47.7007440  53.0551380
  13.2211090  48.2174940  52.0512590  12.6946310  48.7417560  51.4477730
  13.5642430  48.8502330  52.6822320   5.6197480  45.6068310  38.4962300
   5.4186540  44.7435670  38.8575640   5.4489530  45.5201670  37.5583900
   6.3966710  56.2374580  53.2069970   5.8587800  56.9620640  52.8878670
   6.6500670  55.7604920  52.4167310   7.6491960  44.2059100  54.7325900
   8.2391650  43.8974950  55.4203720   6.8312200  43.7338850  54.8885800
  12.4685390  43.8224910  54.9658920  11.7800910  43.1606450  54.9008910
  13.1891410  43.3763180  55.4107380  13.0985790  40.4176540  41.0249180
  13.3788080  39.5744440  41.3808600  12.3251520  40.6499650  41.5387930
   4.4180280  42.7068930  38.4840180   4.7206180  42.7136360  37.5759330
   5.1574870  42.3566790  38.9807840   9.2528920  57.4725790  53.4656620
   9.1787620  58.3760930  53.7728990   8.3507760  57.1537690  53.4378690
   7.6365210  41.6503550  39.4696380   7.2887210  40.9727540  38.8898830
   7.8377980  41.1893060  40.2839770   9.8014250  56.6384300  41.0882980
  10.6965040  56.9769270  41.1101740   9.8331880  55.9163710  40.4607260
   3.4410410  52.0111350  39.3169980   3.8785280  52.5541020  39.9727560
   3.9258140  51.1858300  39.3266320   5.2518130  53.1309390  44.4292210
   4.9513670  53.0074360  45.3296120   5.1455620  52.2717980  44.0207940
  18.0210050  52.9105790  39.1318890  17.1903010  52.9782440  39.6026120
  18.1981880  53.8009910  38.8285750  17.4766510  49.6553270  41.6353090
  18.2385420  50.2249920  41.7412780  17.4920880  49.0880470  42.4061400
  18.4826480  50.5103370  46.4795020  18.8535310  49.7270690  46.0730990
  19.1228410  51.1992470  46.3012320  15.4660240  51.8939950  51.8925340
  14.6520080  52.3237110  52.1551130  15.8734440  52.5058360  51.2794390
  17.5285680  49.9487640  38.7925610  17.8034520  50.8566520  38.6644830
  17.3396420  49.8850170  39.7287600  13.9261290  42.9732490  40.0879240
  14.3446170  42.7863470  39.2475900  13.6197350  42.1211540  40.3982170
  17.4251020  47.8856630  43.7855040  17.0494620  47.1184560  43.3536330
  16.6954140  48.2679330  44.2729970   2.0146780  48.5643770  50.4064090
   2.3819820  48.4771170  51.2860110   1.4457600  47.8010320  50.3070950
  16.8150640  47.0328150  53.4194560  16.5836730  46.8040900  52.5192510
  17.0755190  47.9527700  53.3739450  15.2538710  42.2584580  56.1974260
  16.1308890  42.2667980  56.5808260  15.2659550  41.5215420  55.5866610
  16.7001980  46.1114120  47.0862280  17.2239460  45.6176770  46.4552450
  17.2861400  46.2464480  47.8309850  16.8791700  46.1953990  50.6081830
  15.9294410  46.1617530  50.7226820  17.0604710  47.1054100  50.3731600
   2.7336140  44.4455670  39.7180460   3.4427840  44.0238890  39.2327740
   2.0176080  44.5130900  39.0863810   2.3810300  40.4995000  38.7583110
   3.1038430  41.0403940  39.0764330   2.6534820  40.2258420  37.8824650
  16.1901950  45.3687470  43.0254690  16.6861070  45.1358340  43.8103570
  15.9918020  44.5299310  42.6092330   2.0702490  39.7501190  48.6605730
   2.7178680  39.1998570  48.2200890   2.4904330  40.0044340  49.4821540
  17.6189110  44.0048420  45.5592370  17.5088390  43.8504460  46.4974640
  18.3796700  43.4769360  45.3167780  15.9654830  39.9442550  52.0175370
  16.6027050  40.5576690  52.3834560  16.1129720  39.9803210  51.0724600
  18.5079380  41.8356340  38.7998510  19.4328690  41.7037520  38.5916800
  18.4855170  41.9149160  39.7534960  18.5817870  42.6067000  41.4255220
  17.7869370  42.5412120  41.9548130  18.7861150  43.5417640  41.4140570
  15.5236290  56.6458550  45.4193610  16.1195360  56.3243120  44.7428030
  15.7814440  56.1730370  46.2106880   1.8234490  39.9056860  51.4031050
   1.4749310  40.3620680  52.1689230   1.4922190  39.0113990  51.4853480
   3.4298860  53.0776460  55.5684240   3.3868490  52.7069370  56.4498700
   3.5609870  54.0154030  55.7086060   7.1304890  54.6336050  51.1693960
   6.8896250  54.9010610  50.2824480   8.0707530  54.8041780  51.2244820
   9.3359310  41.0968740  54.9250470   9.2748200  41.6890570  55.6745880
  10.2759690  40.9894700  54.7800730  11.9733870  40.7538800  54.5642760
  12.5874280  41.0718090  53.9023840  12.5183430  40.2687390  55.1838620
  18.3909050  56.6530430  51.9704600  17.8967330  57.0499300  51.2531730
  17.7822340  56.0279640  52.3641880   2.4955130  39.4333060  54.6781820
   3.0438120  39.2521110  53.9147930   2.5610440  38.6427170  55.2138130
   3.2686890  56.0238710  52.6882020   2.6747210  55.8923410  53.4272060
   3.2610730  55.1876850  52.2224120  12.7141910  39.3170940  50.8912050
  11.8401750  39.6506050  50.6884980  12.6052660  38.8444120  51.7163920
  13.6213890  41.5241810  52.2753770  13.2927250  40.7093570  51.8955500
  14.5696190  41.4811620  52.1519460  16.0748500  57.2953850  49.2491340
  15.6151470  58.0469660  48.8749360  15.4460960  56.5760320  49.1906140
   2.8999120  53.3897090  51.6390060   2.1733180  52.7702380  51.5716010
   2.9608270  53.7837700  50.7688140   6.5044220  55.6042090  48.4239470
   7.0209240  54.9929450  47.8987730   7.1541600  56.1070870  48.9150480
   9.2439720  56.4950580  49.2508450   9.5317530  56.2404880  48.3741460
   9.7562940  55.9427940  49.8414020  10.4616730  40.2340780  49.8304960
   9.6788520  40.7086280  50.1101720  10.1679660  39.3295610  49.7218140
  15.0137800  40.9363880  47.8754050  15.4545890  40.8808980  47.0275650
  14.7445390  41.8521890  47.9464230  16.8776370  40.5679120  45.8862870
  16.8164770  39.6240340  45.7393890  17.6568400  40.6759210  46.4316330
   1.8057140  40.5388260  42.3518680   2.5636500  40.6517140  41.7782710
   1.3434310  41.3757460  42.3062110   8.3470950  42.6527530  45.3420990
   7.5345460  42.2784420  45.0016870   8.8512590  41.8972610  45.6442180
  12.8495930  39.3169980  46.5804060  13.4525300  39.8890190  47.0552580
  12.1088920  39.8809420  46.3577960  15.9930530  39.7191540  41.8544340
  16.1881160  40.6174990  42.1211770  15.2060400  39.4878620  42.3477290
   2.7891820  55.4004710  42.2936960   2.2639440  55.7812740  41.5898920
   2.7136400  56.0255480  43.0146670   4.1782290  41.0652310  40.8920650
   4.7075050  40.2782110  40.7628600   4.8110610  41.7443500  41.1256180
   6.3720130  40.8027450  43.9466040   5.7422870  40.1014760  44.1136170
   5.8325270  41.5631580  43.7299200   9.3112080  57.4166680  56.6176650
  10.2379390  57.1810950  56.6612610   9.2962510  58.2438680  56.1362680
  17.5457140  56.9592250  43.6150900  17.7209330  56.2729990  42.9711820
  16.8478710  57.4839300  43.2227570   6.4975690  40.0811430  56.3818530
   6.2159960  40.5845030  55.6179350   6.8795390  39.2833180  56.0160660
   5.3884790  57.3487090  41.1686210   6.1203610  57.0646370  40.6210100
   5.6478460  57.1100370  42.0585590   4.5499580  53.4651820  41.1732540
   3.9208460  53.9336920  41.7218370   4.6647410  52.6201040  41.6078730
  13.0991150  39.4965010  56.9599000  12.9856600  39.8159620  57.8550520
  13.9160890  39.8977520  56.6636280  12.0049300  47.5157480  27.3233740
  11.9243350  46.6012090  27.0525450  11.5913720  48.0124550  26.6173450
  10.1367340  49.2936500  29.2043010   9.3609440  48.8136940  29.4941580
  10.7880270  48.6142150  29.0299170   4.1533170  49.6056310  30.0818770
   3.3218050  49.3505020  30.4815280   4.7614150  49.6767080  30.8176690
  14.1574770  53.6996690  27.9842140  13.6956300  52.9283930  28.3129310
  14.9700320  53.7262760  28.4894590   4.1334430  53.6396400  30.2776790
   4.4362470  52.7494140  30.0987010   4.8778020  54.1966620  30.0499040
   2.5625120  44.5658200  23.8661160   1.6741820  44.9074170  23.7641040
   2.8466310  44.3658520  22.9741990  10.3838080  55.9854700  27.6046130
   9.7649520  56.4412200  27.0340570  11.2389860  56.1406160  27.2035830
   9.5776330  51.9693690  29.2113170   9.5084610  51.0283630  29.0502300
  10.3396190  52.0595100  29.7835740   1.7683000  42.5748210  31.5369790
   1.5885840  41.6773960  31.8172550   1.3663080  43.1220080  32.2116740
  10.6081500  44.7764070  29.4382100  10.9846320  43.9035950  29.3255770
  10.5101010  45.1122770  28.5472540   4.7386510  43.1489700  24.8999540
   4.8453260  44.0493430  25.2068300   3.8278870  43.1007670  24.6094190
  14.3905620  42.2714510  26.3710440  15.2115240  41.7811080  26.4135920
  14.4239700  42.8612170  27.1242280   2.3869670  45.0708710  30.1452130
   3.0679780  45.3347080  30.7639530   2.0717720  44.2309580  30.4790140
   6.5794240  46.1176070  29.2324720   7.0872460  46.6157040  29.8729740
   7.1107480  45.3411270  29.0564080  18.6805170  44.2881260  32.9354070
  17.9757340  44.6762970  32.4169180  18.9463090  44.9831550  33.5375000
   4.8630340  40.7574630  33.4988140   4.8648780  41.2747020  32.6934040
   4.0334650  40.2804810  33.4758070  11.2501430  50.8693940  24.9978040
  10.6318700  51.3343390  24.4340760  11.7624680  51.5621420  25.4147550
   6.1133190  50.3969810  31.6761640   5.7802570  51.0238730  32.3182710
   6.2899870  50.9231690  30.8963310  14.6267100  44.2114890  29.1437980
  13.9222670  44.4999780  29.7241090  14.9879260  45.0215000  28.7837540
   4.5445670  42.4684590  31.5058590   4.8862480  43.3126640  31.2112460
   3.6061480  42.6168330  31.6223930   5.3252290  52.3650610  33.4910820
   5.9426290  53.0401690  33.2095270   4.4645410  52.7738590  33.3998320
  16.2429880  53.8290020  31.4065460  15.5593400  54.4989130  31.3982130
  16.7824170  54.0270670  30.6410320  17.6954020  43.6569680  29.5347190
  16.7478930  43.6908660  29.6662620  18.0204010  44.4708630  29.9196550
   8.2273560  39.9566860  27.8303180   8.5348540  39.4013750  27.1138680
   7.2974260  40.0911320  27.6476170  13.7788620  55.6734150  30.1210640
  13.7915780  55.2696440  29.2532900  13.2263840  56.4481440  30.0172070
  15.0734040  52.3950370  25.2100810  14.9630370  51.4524700  25.3350230
  15.0702290  52.7566010  26.0963570  13.1774060  50.5763990  31.4493250
  13.5942850  50.3624100  30.6146710  13.9013880  50.8336780  32.0201870
  10.6154320  48.0215690  24.5663300   9.6883600  47.9553070  24.7951770
  10.7679140  48.9595820  24.4518540  10.6023400  44.2932690  21.5630460
   9.6627070  44.4546650  21.6482920  10.9206660  45.0118370  21.0166450
  17.1236160  48.9751210  31.5409490  16.2954790  49.0444300  31.0659620
  17.7186640  49.5605520  31.0725320  14.6451610  49.5835990  25.0698550
  14.0264030  49.2455540  24.4224850  14.6276060  48.9395750  25.7777740
  14.0878170  45.7620530  32.4864360  13.6749350  46.5874240  32.7404350
  13.3554120  45.1765570  32.2940720   6.2210960  48.5480430  27.3483030
   5.8167960  47.8357680  26.8528930   6.3074080  48.2033670  28.2371070
   6.6892660  52.2347990  29.5122240   6.3920950  51.6293460  28.8330020
   7.6392480  52.2725300  29.4011600   4.9339580  45.3223640  31.1282070
   5.4854170  45.4318980  30.3535320   5.4483090  45.6961240  31.8437300
  14.7778270  55.8079860  33.1745340  14.3008830  56.6152050  32.9817950
  14.0940060  55.1558190  33.3271550   5.7811090  51.9729680  36.1630040
   4.8839620  52.1969650  36.4103440   5.8063960  52.0964620  35.2141440
  12.8216310  48.8222800  22.0771300  13.2609590  47.9845230  21.9309120
  13.5344730  49.4552200  22.1635440   4.6082310  48.8443000  34.7387410
   4.4690080  49.7165800  35.1074810   3.7263670  48.5015810  34.5935350
  10.9311690  53.7618870  26.0452540  11.3707600  54.5043200  25.6307930
  10.8698580  54.0045440  26.9691500   6.4062660  54.7864700  36.9472560
   6.3778090  55.1907650  36.0800990   6.2427630  53.8575060  36.7844160
  16.4033450  40.0765610  20.3912340  16.0906110  40.1692440  21.2911410
  17.1645920  40.6546640  20.3409770   2.9215590  47.4425410  24.8489680
   2.8013190  48.1687500  24.2370950   2.6116480  46.6728320  24.3717590
  18.3577480  55.5691800  38.2436730  18.8337200  56.0474690  38.9225810
  18.9784640  55.5009290  37.5182230   1.8048590  52.3140740  27.0664500
   1.3976670  52.4555330  26.2118100   2.6961600  52.0300900  26.8635710
  17.7610730  52.7604650  35.4036740  17.8873790  52.5216530  34.4853920
  17.8032110  51.9289190  35.8758820  11.6227470  56.4632650  33.9731550
  12.1372140  56.3740660  34.7753980  10.7796550  56.8092350  34.2659460
  13.5981870  56.7487990  23.4015550  13.4383010  56.4590930  24.2997380
  13.4328580  55.9728120  22.8660780   6.0770250  56.5286520  25.1787170
   5.9012730  55.6122060  24.9654970   5.2225990  56.8873810  25.4184970
  13.3008000  54.2575550  21.9613550  12.6073160  54.2552840  21.3015830
  14.0430860  53.8334870  21.5307720  12.8657930  55.8838260  26.0362040
  13.3214880  55.1027640  26.3500660  13.2050450  56.5945080  26.5803220
  17.6134740  44.8137110  36.3686480  16.9979010  45.3216780  35.8401940
  17.2931160  43.9135440  36.3112420   5.3879250  40.7860480  28.2313350
   4.9447400  41.5670020  27.8997870   5.9464240  41.1090370  28.9384290
   9.6749060  43.6529000  33.8348670   9.2128430  43.8612020  34.6468610
   9.2727170  42.8388350  33.5319340  14.6753570  44.8737950  34.9645330
  13.8247160  44.5743700  35.2854400  14.5155360  45.1179960  34.0529150
  11.7703280  46.3739700  37.0644120  12.0956690  45.5403450  36.7246350
  12.5583610  46.8968220  37.2122450   8.5038070  40.4071180  23.1119180
   7.8792250  40.4031050  23.8372490   8.4168190  39.5402140  22.7155150
   7.4255150  41.3307810  30.0902950   7.7227480  42.2370640  30.0094970
   7.9740710  40.8426590  29.4762520   5.1793470  45.9094050  25.9594600
   4.9534390  45.6931220  26.8641220   4.3986000  46.3422510  25.6140570
  12.4091230  45.9157420  24.5585250  11.8100120  46.6393220  24.3748870
  12.9570840  45.8534200  23.7761700   7.6192680  46.8079630  36.6254870
   7.5236280  45.8674360  36.4755270   8.4624660  47.0294700  36.2302940
  11.0156100  44.5520960  26.5888530  11.4085670  44.8693160  25.7757220
  11.3772950  43.6732840  26.7033050   2.7503220  43.2193300  34.7788650
   2.3566610  44.0668510  34.9861430   2.0621620  42.5819670  34.9697290
   9.3248270  43.3028270  37.8485390   8.6346590  43.1100470  38.4831480
  10.0680570  43.5862910  38.3809690  11.6011240  47.1426710  30.6839310
  10.8692360  47.6513520  31.0329410  11.2035580  46.3256690  30.3828090
   8.0388630  43.8180910  29.0891800   8.0424690  43.3770860  28.2396340
   8.9339750  44.1398240  29.1963620   3.8891010  43.7007400  28.0486010
   3.5491060  44.1782630  28.8053060   3.1268330  43.2472520  27.6887110
   8.1008780  44.8192990  22.0798560   8.2221600  44.7779470  23.0284380
   7.7157290  45.6817140  21.9245290  12.0637150  42.5960390  30.0962250
  12.0809890  43.0469040  30.9404100  11.8152730  41.6966030  30.3095690
   7.1130280  47.1294130  21.4781860   6.5447180  46.6812380  20.8517770
   7.8219280  47.4886910  20.9447010  15.4907900  40.0092570  35.9348630
  15.8153670  39.2782230  36.4606610  15.5264410  39.6906210  35.0329620
   2.1899460  51.0306150  35.3548590   1.8054250  50.3899820  35.9531550
   2.5011650  51.7342270  35.9243320   8.3396600  47.8782690  30.8357210
   8.7066730  47.4041260  31.5818550   8.1501660  48.7524260  31.1765550
   6.1295970  46.9191330  33.1541420   5.8253040  47.7983310  33.3791780
   7.0842430  46.9791120  33.1898860   4.6577760  51.1252320  23.7508270
   3.8840020  50.5849940  23.5906990   5.3872390  50.6058930  23.4126030
  15.4165740  50.1217680  29.5434660  16.1364860  50.6172970  29.1530770
  15.2147560  49.4435570  28.8988530  10.8775680  41.5155640  23.6864050
  10.0640290  41.0168810  23.6109360  10.6837630  42.3553890  23.2700400
  10.7984540  50.1926740  35.4303660  10.7321850  49.2722410  35.1761250
  10.1689680  50.2902180  36.1448300  13.5924070  45.8875290  21.9826210
  14.4803690  46.1992520  21.8077550  13.5629160  45.0147540  21.5906790
   4.7015160  50.7932700  27.3887080   5.2193830  49.9900960  27.3343970
   4.2499180  50.7311840  28.2303910   9.5884660  52.0598980  22.6614380
   9.9300360  52.8041210  22.1657700   8.7597370  52.3730100  23.0239210
   2.1859700  47.7594070  34.3012780   1.8274640  48.4247920  34.8886120
   1.8914260  46.9277620  34.6725400   5.3872820  48.2178310  37.1852330
   5.0872960  48.3635490  36.2880150   6.1584060  47.6583600  37.0925720
  10.7301270  53.0147310  35.1807460  10.7445810  52.0828270  34.9626370
  10.0226370  53.1007070  35.8197230  15.8638340  47.1987130  21.4506070
  15.7802060  47.6301350  20.6002510  16.5832530  47.6585480  21.8832890
  16.9412480  49.6554650  34.5276040  16.2160670  50.2483430  34.3305430
  17.4687940  49.6478190  33.7289410  16.8925590  54.0529390  24.1788200
  16.2501750  53.3985010  24.4531920  16.5056250  54.4584480  23.4028870
  12.4712070  51.3814820  28.0259890  12.8235890  50.7842950  27.3661260
  11.5874400  51.0559050  28.1968140   8.5575350  52.1412510  25.4330300
   9.2446480  52.6881720  25.8137890   7.7707770  52.6853240  25.4679910
   7.8602560  49.1458540  25.0455660   8.3165340  49.9563790  25.2715850
   7.5090770  48.8281680  25.8774150  10.1635170  54.6564880  32.2747960
  10.8077390  54.8624260  32.9521380  10.5264610  53.8953280  31.8218810
   3.7614340  39.4896190  25.5178180   3.6328970  39.4814090  26.4663100
   2.9376360  39.8279280  25.1669190  11.4367250  52.6597230  30.9925410
  12.0789480  51.9590390  31.1057580  11.9616600  53.4395670  30.8122300
  15.2822970  52.9445850  20.7164550  15.0560550  52.2276290  21.3089190
  14.8919170  52.6958290  19.8786300  13.2104870  53.4592130  34.1961470
  13.5461110  54.0458820  34.8739390  12.2905210  53.3284840  34.4259260
  14.8639220  50.8617790  22.3778710  14.5760920  51.3230480  23.1656590
  15.6591390  50.4015560  22.6462930   9.0393450  53.5083460  37.3649530
   8.7190320  52.7892700  37.9095220   8.3651810  54.1838530  37.4385590
   7.0807620  54.3543910  22.3082680   7.0717720  55.0873600  21.6927190
   6.1605980  54.1075490  22.4009640   2.6814260  49.5758800  23.0529440
   2.0742210  50.3157700  23.0624740   3.1563610  49.6658160  22.2267640
  12.2547050  43.7409620  32.7286330  12.6227870  42.9204830  33.0565900
  11.3945250  43.8011510  33.1441980  15.6209080  42.6966560  23.5373890
  14.9922240  42.8012230  22.8232120  15.1261000  42.9163340  24.3267770
  10.0667220  54.4172150  20.9707870  10.1679200  54.2136140  20.0409850
   9.1668960  54.1630430  21.1755650   7.5893110  44.9752510  24.9531770
   6.8809260  45.4438850  25.3945380   7.8737590  44.3174520  25.5876960
   9.2149040  46.3949210  32.9524300   9.7134290  46.8695030  33.6176150
   9.3571990  45.4712730  33.1594330  11.6208540  41.7003170  26.3927560
  11.4976320  41.7189300  25.4437070  12.5693100  41.7482110  26.5125960
   8.7085330  56.9358470  25.6655540   8.9626830  56.8979860  24.7434910
   7.7597810  56.8091800  25.6583790   5.7928130  43.2837590  22.3282480
   6.6418660  43.7207740  22.2622670   5.4259400  43.5957850  23.1554540
  16.4215900  42.6117170  33.7952690  15.9189500  43.3522570  34.1346500
  17.2372560  43.0001170  33.4789480  14.7137910  47.8550350  27.2414050
  13.7728050  47.8700580  27.4161740  15.0281980  47.0686310  27.6874350
   4.6919550  49.5369950  20.8018010   5.4582820  49.4251310  21.3643440
   4.7694240  48.8407920  20.1494780   3.3866310  46.9695020  21.4850900
   3.4669900  46.0222530  21.5968300   4.2786060  47.3001900  21.5911560
  16.7163490  55.0259200  28.9168310  16.8410910  55.8490370  29.3892120
  17.5829050  54.8149930  28.5692460   4.1881020  57.1190410  28.5885440
   4.9243500  56.5705870  28.8594010   4.5721940  57.9846420  28.4491430
   3.1939300  56.3036480  37.7771020   3.9952030  56.6248530  38.1906420
   2.6791120  55.9432060  38.4990930   7.2983330  56.2920720  20.4111010
   8.0911940  56.5809550  19.9592800   6.7787680  55.8612890  19.7323490
  12.0303930  52.4116350  37.7246430  11.4242090  52.4347950  36.9842180
  11.7258040  51.6799390  38.2613680  13.4604300  56.1396640  36.3355840
  14.4126050  56.0554660  36.2856080  13.3132520  56.8038350  37.0089630
  16.3513500  55.5190850  21.8347750  16.0655010  55.1055990  21.0201930
  16.1533050  56.4478560  21.7148270   7.8160730  51.5124130  20.2753360
   7.7111370  50.8976480  21.0014740   7.6484950  50.9890020  19.4916370
   7.9675050  50.1980930  36.2542590   7.2020720  50.7665930  36.1697260
   8.1491010  49.9057140  35.3610820  11.0563460  50.5744160  20.8795350
  10.5073560  51.0213460  21.5238090  11.6782720  50.0693410  21.4033020
  15.1098400  51.9286260  36.8117610  15.8507870  52.2662020  36.3085070
  14.3471080  52.0978320  36.2587380   2.9460190  46.9339530  37.6157140
   2.9865530  46.6353400  38.5242370   3.8005690  47.3347140  37.4564660
   6.7238580  49.5335080  22.7760650   7.1455000  49.3674950  23.6192040
   6.8489420  48.7235310  22.2815790   4.8866000  45.5131630  35.5831630
   4.3562460  45.0222580  34.9554970   5.5554070  45.9415830  35.0489560
   9.2366220  48.5572690  20.0237750   9.7571880  47.8421710  19.6578900
   9.8834620  49.1958560  20.3238260  13.7844060  49.9801090  35.3472820
  14.1985080  50.1346170  36.1963240  12.8495060  50.1056310  35.5098600
  14.2566230  47.3197250  37.3511970  14.8387000  46.5649570  37.2632450
  14.4328000  47.8504690  36.5743450   5.3738300  42.4794000  35.6628920
   5.2795170  41.8614750  34.9379790   4.7935690  43.2060290  35.4358830
   8.1399740  41.0367240  32.6956310   7.6917040  41.0591500  31.8501860
   7.5064940  40.6386260  33.2926610   8.5459290  49.9321570  33.3168750
   8.9647400  50.7754300  33.1444990   7.6267920  50.0693610  33.0875530
  10.8823190  47.6637750  34.7006590  11.0019400  47.0678890  35.4401430
  11.7417190  47.7007440  34.2807890  13.2211090  48.2174940  33.2769100
  12.6946310  48.7417560  32.6734240  13.5642430  48.8502330  33.9078830
   5.6197480  45.6068310  19.7218810   5.4186540  44.7435670  20.0832150
   5.4489530  45.5201670  18.7840410   6.3966710  56.2374580  34.4326480
   5.8587800  56.9620640  34.1135180   6.6500670  55.7604920  33.6423820
   7.6491960  44.2059100  35.9582410   8.2391650  43.8974950  36.6460230
   6.8312200  43.7338850  36.1142310  12.4685390  43.8224910  36.1915430
  11.7800910  43.1606450  36.1265420  13.1891410  43.3763180  36.6363890
  13.0985790  40.4176540  22.2505690  13.3788080  39.5744440  22.6065110
  12.3251520  40.6499650  22.7644440   4.4180280  42.7068930  19.7096690
   4.7206180  42.7136360  18.8015840   5.1574870  42.3566790  20.2064350
   9.2528920  57.4725790  34.6913130   9.1787620  58.3760930  34.9985500
   8.3507760  57.1537690  34.6635200   7.6365210  41.6503550  20.6952890
   7.2887210  40.9727540  20.1155340   7.8377980  41.1893060  21.5096280
   9.8014250  56.6384300  22.3139490  10.6965040  56.9769270  22.3358250
   9.8331880  55.9163710  21.6863770   3.4410410  52.0111350  20.5426490
   3.8785280  52.5541020  21.1984070   3.9258140  51.1858300  20.5522830
   5.2518130  53.1309390  25.6548720   4.9513670  53.0074360  26.5552630
   5.1455620  52.2717980  25.2464450  16.7808600  55.1687970  35.0205690
  16.1810590  55.2280530  34.2769610  16.9102500  54.2292950  35.1502540
  18.0210050  52.9105790  20.3575400  17.1903010  52.9782440  20.8282630
  18.1981880  53.8009910  20.0542260  17.4766510  49.6553270  22.8609600
  18.2385420  50.2249920  22.9669290  17.4920880  49.0880470  23.6317910
  18.4826480  50.5103370  27.7051530  18.8535310  49.7270690  27.2987500
  19.1228410  51.1992470  27.5268830  15.4660240  51.8939950  33.1181850
  14.6520080  52.3237110  33.3807640  15.8734440  52.5058360  32.5050900
  17.5285680  49.9487640  20.0182120  17.8034520  50.8566520  19.8901340
  17.3396420  49.8850170  20.9544110  13.9261290  42.9732490  21.3135750
  14.3446170  42.7863470  20.4732410  13.6197350  42.1211540  21.6238680
  17.4251020  47.8856630  25.0111550  17.0494620  47.1184560  24.5792840
  16.6954140  48.2679330  25.4986480   2.0146780  48.5643770  31.6320600
   2.3819820  48.4771170  32.5116620   1.4457600  47.8010320  31.5327460
  16.8150640  47.0328150  34.6451070  16.5836730  46.8040900  33.7449020
  17.0755190  47.9527700  34.5995960  15.2538710  42.2584580  37.4230770
  16.1308890  42.2667980  37.8064770  15.2659550  41.5215420  36.8123120
  16.7001980  46.1114120  28.3118790  17.2239460  45.6176770  27.6808960
  17.2861400  46.2464480  29.0566360  16.8791700  46.1953990  31.8338340
  15.9294410  46.1617530  31.9483330  17.0604710  47.1054100  31.5988110
   2.7336140  44.4455670  20.9436970   3.4427840  44.0238890  20.4584250
   2.0176080  44.5130900  20.3120320   2.3810300  40.4995000  19.9839620
   3.1038430  41.0403940  20.3020840   2.6534820  40.2258420  19.1081160
  16.1901950  45.3687470  24.2511200  16.6861070  45.1358340  25.0360080
  15.9918020  44.5299310  23.8348840   2.0702490  39.7501190  29.8862240
   2.7178680  39.1998570  29.4457400   2.4904330  40.0044340  30.7078050
  17.6189110  44.0048420  26.7848880  17.5088390  43.8504460  27.7231150
  18.3796700  43.4769360  26.5424290  15.9654830  39.9442550  33.2431880
  16.6027050  40.5576690  33.6091070  16.1129720  39.9803210  32.2981110
  18.5079380  41.8356340  20.0255020  19.4328690  41.7037520  19.8173310
  18.4855170  41.9149160  20.9791470  18.5817870  42.6067000  22.6511730
  17.7869370  42.5412120  23.1804640  18.7861150  43.5417640  22.6397080
  15.5236290  56.6458550  26.6450120  16.1195360  56.3243120  25.9684540
  15.7814440  56.1730370  27.4363390   1.8234490  39.9056860  32.6287560
   1.4749310  40.3620680  33.3945740   1.4922190  39.0113990  32.7109990
   3.4298860  53.0776460  36.7940750   3.3868490  52.7069370  37.6755210
   3.5609870  54.0154030  36.9342570   7.1304890  54.6336050  32.3950470
   6.8896250  54.9010610  31.5080990   8.0707530  54.8041780  32.4501330
   9.3359310  41.0968740  36.1506980   9.2748200  41.6890570  36.9002390
  10.2759690  40.9894700  36.0057240  11.9733870  40.7538800  35.7899270
  12.5874280  41.0718090  35.1280350  12.5183430  40.2687390  36.4095130
  18.3909050  56.6530430  33.1961110  17.8967330  57.0499300  32.4788240
  17.7822340  56.0279640  33.5898390   2.4955130  39.4333060  35.9038330
   3.0438120  39.2521110  35.1404440   2.5610440  38.6427170  36.4394640
   3.2686890  56.0238710  33.9138530   2.6747210  55.8923410  34.6528570
   3.2610730  55.1876850  33.4480630  12.7141910  39.3170940  32.1168560
  11.8401750  39.6506050  31.9141490  12.6052660  38.8444120  32.9420430
  13.6213890  41.5241810  33.5010280  13.2927250  40.7093570  33.1212010
  14.5696190  41.4811620  33.3775970  16.0748500  57.2953850  30.4747850
  15.6151470  58.0469660  30.1005870  15.4460960  56.5760320  30.4162650
   2.8999120  53.3897090  32.8646570   2.1733180  52.7702380  32.7972520
   2.9608270  53.7837700  31.9944650   6.5044220  55.6042090  29.6495980
   7.0209240  54.9929450  29.1244240   7.1541600  56.1070870  30.1406990
   9.2439720  56.4950580  30.4764960   9.5317530  56.2404880  29.5997970
   9.7562940  55.9427940  31.0670530  10.4616730  40.2340780  31.0561470
   9.6788520  40.7086280  31.3358230  10.1679660  39.3295610  30.9474650
  15.0137800  40.9363880  29.1010560  15.4545890  40.8808980  28.2532160
  14.7445390  41.8521890  29.1720740  16.8776370  40.5679120  27.1119380
  16.8164770  39.6240340  26.9650400  17.6568400  40.6759210  27.6572840
   1.8057140  40.5388260  23.5775190   2.5636500  40.6517140  23.0039220
   1.3434310  41.3757460  23.5318620   8.3470950  42.6527530  26.5677500
   7.5345460  42.2784420  26.2273380   8.8512590  41.8972610  26.8698690
  12.8495930  39.3169980  27.8060570  13.4525300  39.8890190  28.2809090
  12.1088920  39.8809420  27.5834470  15.9930530  39.7191540  23.0800850
  16.1881160  40.6174990  23.3468280  15.2060400  39.4878620  23.5733800
   2.7891820  55.4004710  23.5193470   2.2639440  55.7812740  22.8155430
   2.7136400  56.0255480  24.2403180   4.1782290  41.0652310  22.1177160
   4.7075050  40.2782110  21.9885110   4.8110610  41.7443500  22.3512690
   6.3720130  40.8027450  25.1722550   5.7422870  40.1014760  25.3392680
   5.8325270  41.5631580  24.9555710   9.3112080  57.4166680  37.8433160
  10.2379390  57.1810950  37.8869120   9.2962510  58.2438680  37.3619190
  17.5457140  56.9592250  24.8407410  17.7209330  56.2729990  24.1968330
  16.8478710  57.4839300  24.4484080   6.4975690  40.0811430  37.6075040
   6.2159960  40.5845030  36.8435860   6.8795390  39.2833180  37.2417170
   5.3884790  57.3487090  22.3942720   6.1203610  57.0646370  21.8466610
   5.6478460  57.1100370  23.2842100   4.5499580  53.4651820  22.3989050
   3.9208460  53.9336920  22.9474880   4.6647410  52.6201040  22.8335240
  13.0991150  39.4965010  38.1855510  12.9856600  39.8159620  39.0807030
  13.9160890  39.8977520  37.8892790  15.8789640  56.6436540  37.6674200
  16.6714960  56.1485770  37.4600160  16.1722790  57.3226680  38.2749810
  12.0049300  47.5157480   8.5490250  11.9243350  46.6012090   8.2781960
  11.5913720  48.0124550   7.8429960  10.1367340  49.2936500  10.4299520
   9.3609440  48.8136940  10.7198090  10.7880270  48.6142150  10.2555680
   4.1533170  49.6056310  11.3075280   3.3218050  49.3505020  11.7071790
   4.7614150  49.6767080  12.0433200  14.1574770  53.6996690   9.2098650
  13.6956300  52.9283930   9.5385820  14.9700320  53.7262760   9.7151100
   4.1334430  53.6396400  11.5033300   4.4362470  52.7494140  11.3243520
   4.8778020  54.1966620  11.2755550   2.5625120  44.5658200   5.0917670
   1.6741820  44.9074170   4.9897550   2.8466310  44.3658520   4.1998500
  10.3838080  55.9854700   8.8302640   9.7649520  56.4412200   8.2597080
  11.2389860  56.1406160   8.4292340   9.5776330  51.9693690  10.4369680
   9.5084610  51.0283630  10.2758810  10.3396190  52.0595100  11.0092250
   1.7683000  42.5748210  12.7626300   1.5885840  41.6773960  13.0429060
   1.3663080  43.1220080  13.4373250  10.6081500  44.7764070  10.6638610
  10.9846320  43.9035950  10.5512280  10.5101010  45.1122770   9.7729050
   4.7386510  43.1489700   6.1256050   4.8453260  44.0493430   6.4324810
   3.8278870  43.1007670   5.8350700  14.3905620  42.2714510   7.5966950
  15.2115240  41.7811080   7.6392430  14.4239700  42.8612170   8.3498790
   2.3869670  45.0708710  11.3708640   3.0679780  45.3347080  11.9896040
   2.0717720  44.2309580  11.7046650   6.5794240  46.1176070  10.4581230
   7.0872460  46.6157040  11.0986250   7.1107480  45.3411270  10.2820590
  18.6805170  44.2881260  14.1610580  17.9757340  44.6762970  13.6425690
  18.9463090  44.9831550  14.7631510   4.8630340  40.7574630  14.7244650
   4.8648780  41.2747020  13.9190550   4.0334650  40.2804810  14.7014580
  11.2501430  50.8693940   6.2234550  10.6318700  51.3343390   5.6597270
  11.7624680  51.5621420   6.6404060   6.1133190  50.3969810  12.9018150
   5.7802570  51.0238730  13.5439220   6.2899870  50.9231690  12.1219820
  14.6267100  44.2114890  10.3694490  13.9222670  44.4999780  10.9497600
  14.9879260  45.0215000  10.0094050   4.5445670  42.4684590  12.7315100
   4.8862480  43.3126640  12.4368970   3.6061480  42.6168330  12.8480440
   5.3252290  52.3650610  14.7167330   5.9426290  53.0401690  14.4351780
   4.4645410  52.7738590  14.6254830  16.2429880  53.8290020  12.6321970
  15.5593400  54.4989130  12.6238640  16.7824170  54.0270670  11.8666830
  17.6954020  43.6569680  10.7603700  16.7478930  43.6908660  10.8919130
  18.0204010  44.4708630  11.1453060   8.2273560  39.9566860   9.0559690
   8.5348540  39.4013750   8.3395190   7.2974260  40.0911320   8.8732680
  13.7788620  55.6734150  11.3467150  13.7915780  55.2696440  10.4789410
  13.2263840  56.4481440  11.2428580  15.0734040  52.3950370   6.4357320
  14.9630370  51.4524700   6.5606740  15.0702290  52.7566010   7.3220080
  13.1774060  50.5763990  12.6749760  13.5942850  50.3624100  11.8403220
  13.9013880  50.8336780  13.2458380  10.6154320  48.0215690   5.7919810
   9.6883600  47.9553070   6.0208280  10.7679140  48.9595820   5.6775050
  10.6023400  44.2932690   2.7886970   9.6627070  44.4546650   2.8739430
  10.9206660  45.0118370   2.2422960  17.1236160  48.9751210  12.7666000
  16.2954790  49.0444300  12.2916130  17.7186640  49.5605520  12.2981830
  14.6451610  49.5835990   6.2955060  14.0264030  49.2455540   5.6481360
  14.6276060  48.9395750   7.0034250  14.0878170  45.7620530  13.7120870
  13.6749350  46.5874240  13.9660860  13.3554120  45.1765570  13.5197230
   6.2210960  48.5480430   8.5739540   5.8167960  47.8357680   8.0785440
   6.3074080  48.2033670   9.4627580   6.6892660  52.2347990  10.7378750
   6.3920950  51.6293460  10.0586530   7.6392480  52.2725300  10.6268110
   4.9339580  45.3223640  12.3538580   5.4854170  45.4318980  11.5791830
   5.4483090  45.6961240  13.0693810  14.7778270  55.8079860  14.4001850
  14.3008830  56.6152050  14.2074460  14.0940060  55.1558190  14.5528060
   5.7811090  51.9729680  17.3886550   4.8839620  52.1969650  17.6359950
   5.8063960  52.0964620  16.4397950  12.8216310  48.8222800   3.3027810
  13.2609590  47.9845230   3.1565630  13.5344730  49.4552200   3.3891950
   4.6082310  48.8443000  15.9643920   4.4690080  49.7165800  16.3331320
   3.7263670  48.5015810  15.8191860  10.9311690  53.7618870   7.2709050
  11.3707600  54.5043200   6.8564440  10.8698580  54.0045440   8.1948010
   6.4062660  54.7864700  18.1729070   6.3778090  55.1907650  17.3057500
   6.2427630  53.8575060  18.0100670   2.9215590  47.4425410   6.0746190
   2.8013190  48.1687500   5.4627460   2.6116480  46.6728320   5.5974100
  18.3577480  55.5691800  19.4693240  18.8337200  56.0474690  20.1482320
  18.9784640  55.5009290  18.7438740   1.8048590  52.3140740   8.2921010
   1.3976670  52.4555330   7.4374610   2.6961600  52.0300900   8.0892220
  17.7610730  52.7604650  16.6293250  17.8873790  52.5216530  15.7110430
  17.8032110  51.9289190  17.1015330  11.6227470  56.4632650  15.1988060
  12.1372140  56.3740660  16.0010490  10.7796550  56.8092350  15.4915970
  13.5981870  56.7487990   4.6272060  13.4383010  56.4590930   5.5253890
  13.4328580  55.9728120   4.0917290   6.0770250  56.5286520   6.4043680
   5.9012730  55.6122060   6.1911480   5.2225990  56.8873810   6.6441480
  13.3008000  54.2575550   3.1870060  12.6073160  54.2552840   2.5272340
  14.0430860  53.8334870   2.7564230  12.8657930  55.8838260   7.2618550
  13.3214880  55.1027640   7.5757170  13.2050450  56.5945080   7.8059730
  17.6134740  44.8137110  17.5942990  16.9979010  45.3216780  17.0658450
  17.2931160  43.9135440  17.5368930   5.3879250  40.7860480   9.4569860
   4.9447400  41.5670020   9.1254380   5.9464240  41.1090370  10.1640800
   9.6749060  43.6529000  15.0605180   9.2128430  43.8612020  15.8725120
   9.2727170  42.8388350  14.7575850  14.6753570  44.8737950  16.1901840
  13.8247160  44.5743700  16.5110910  14.5155360  45.1179960  15.2785660
  11.7703280  46.3739700  18.2900630  12.0956690  45.5403450  17.9502860
  12.5583610  46.8968220  18.4378960   8.5038070  40.4071180   4.3375690
   7.8792250  40.4031050   5.0629000   8.4168190  39.5402140   3.9411660
   7.4255150  41.3307810  11.3159460   7.7227480  42.2370640  11.2351480
   7.9740710  40.8426590  10.7019030   5.1793470  45.9094050   7.1851110
   4.9534390  45.6931220   8.0897730   4.3986000  46.3422510   6.8397080
  12.4091230  45.9157420   5.7841760  11.8100120  46.6393220   5.6005380
  12.9570840  45.8534200   5.0018210   7.6192680  46.8079630  17.8511380
   7.5236280  45.8674360  17.7011780   8.4624660  47.0294700  17.4559450
  11.0156100  44.5520960   7.8145040  11.4085670  44.8693160   7.0013730
  11.3772950  43.6732840   7.9289560   2.7503220  43.2193300  16.0045160
   2.3566610  44.0668510  16.2117940   2.0621620  42.5819670  16.1953800
   9.3248270  43.3028270  19.0741900   8.6346590  43.1100470  19.7087990
  10.0680570  43.5862910  19.6066200  11.6011240  47.1426710  11.9095820
  10.8692360  47.6513520  12.2585920  11.2035580  46.3256690  11.6084600
   8.0388630  43.8180910  10.3148310   8.0424690  43.3770860   9.4652850
   8.9339750  44.1398240  10.4220130   3.8891010  43.7007400   9.2742520
   3.5491060  44.1782630  10.0309570   3.1268330  43.2472520   8.9143620
   8.1008780  44.8192990   3.3055070   8.2221600  44.7779470   4.2540890
   7.7157290  45.6817140   3.1501800  12.0637150  42.5960390  11.3218760
  12.0809890  43.0469040  12.1660610  11.8152730  41.6966030  11.5352200
   7.1130280  47.1294130   2.7038370   6.5447180  46.6812380   2.0774280
   7.8219280  47.4886910   2.1703520  15.4907900  40.0092570  17.1605140
  15.8153670  39.2782230  17.6863120  15.5264410  39.6906210  16.2586130
   2.1899460  51.0306150  16.5805100   1.8054250  50.3899820  17.1788060
   2.5011650  51.7342270  17.1499830   8.3396600  47.8782690  12.0613720
   8.7066730  47.4041260  12.8075060   8.1501660  48.7524260  12.4022060
   6.1295970  46.9191330  14.3797930   5.8253040  47.7983310  14.6048290
   7.0842430  46.9791120  14.4155370   4.6577760  51.1252320   4.9764780
   3.8840020  50.5849940   4.8163500   5.3872390  50.6058930   4.6382540
  15.4165740  50.1217680  10.7691170  16.1364860  50.6172970  10.3787280
  15.2147560  49.4435570  10.1245040  10.8775680  41.5155640   4.9120560
  10.0640290  41.0168810   4.8365870  10.6837630  42.3553890   4.4956910
  10.7984540  50.1926740  16.6560170  10.7321850  49.2722410  16.4017760
  10.1689680  50.2902180  17.3704810  13.5924070  45.8875290   3.2082720
  14.4803690  46.1992520   3.0334060  13.5629160  45.0147540   2.8163300
   4.7015160  50.7932700   8.6143590   5.2193830  49.9900960   8.5600480
   4.2499180  50.7311840   9.4560420   9.5884660  52.0598980   3.8870890
   9.9300360  52.8041210   3.3914210   8.7597370  52.3730100   4.2495720
   2.1859700  47.7594070  15.5269290   1.8274640  48.4247920  16.1142630
   1.8914260  46.9277620  15.8981910   5.3872820  48.2178310  18.4108840
   5.0872960  48.3635490  17.5136660   6.1584060  47.6583600  18.3182230
  10.7301270  53.0147310  16.4063970  10.7445810  52.0828270  16.1882880
  10.0226370  53.1007070  17.0453740  15.8638340  47.1987130   2.6762580
  15.7802060  47.6301350   1.8259020  16.5832530  47.6585480   3.1089400
  16.9412480  49.6554650  15.7532550  16.2160670  50.2483430  15.5561940
  17.4687940  49.6478190  14.9545920  16.8925590  54.0529390   5.4044710
  16.2501750  53.3985010   5.6788430  16.5056250  54.4584480   4.6285380
  12.4712070  51.3814820   9.2516400  12.8235890  50.7842950   8.5917770
  11.5874400  51.0559050   9.4224650   8.5575350  52.1412510   6.6586810
   9.2446480  52.6881720   7.0394400   7.7707770  52.6853240   6.6936420
   7.8602560  49.1458540   6.2712170   8.3165340  49.9563790   6.4972360
   7.5090770  48.8281680   7.1030660  10.1635170  54.6564880  13.5004470
  10.8077390  54.8624260  14.1777890  10.5264610  53.8953280  13.0475320
   3.7614340  39.4896190   6.7434690   3.6328970  39.4814090   7.6919610
   2.9376360  39.8279280   6.3925700  11.4367250  52.6597230  12.2181920
  12.0789480  51.9590390  12.3314090  11.9616600  53.4395670  12.0378810
  13.2104870  53.4592130  15.4217980  13.5461110  54.0458820  16.0995900
  12.2905210  53.3284840  15.6515770  14.8639220  50.8617790   3.6035220
  14.5760920  51.3230480   4.3913100  15.6591390  50.4015560   3.8719440
   9.0393450  53.5083460  18.5906040   8.7190320  52.7892700  19.1351730
   8.3651810  54.1838530  18.6642100   7.0807620  54.3543910   3.5339190
   7.0717720  55.0873600   2.9183700   6.1605980  54.1075490   3.6266150
   2.6814260  49.5758800   4.2785950   2.0742210  50.3157700   4.2881250
   3.1563610  49.6658160   3.4524150  12.2547050  43.7409620  13.9542840
  12.6227870  42.9204830  14.2822410  11.3945250  43.8011510  14.3698490
  15.6209080  42.6966560   4.7630400  14.9922240  42.8012230   4.0488630
  15.1261000  42.9163340   5.5524280   7.5893110  44.9752510   6.1788280
   6.8809260  45.4438850   6.6201890   7.8737590  44.3174520   6.8133470
   9.2149040  46.3949210  14.1780810   9.7134290  46.8695030  14.8432660
   9.3571990  45.4712730  14.3850840  11.6208540  41.7003170   7.6184070
  11.4976320  41.7189300   6.6693580  12.5693100  41.7482110   7.7382470
   8.7085330  56.9358470   6.8912050   8.9626830  56.8979860   5.9691420
   7.7597810  56.8091800   6.8840300   5.7928130  43.2837590   3.5538990
   6.6418660  43.7207740   3.4879180   5.4259400  43.5957850   4.3811050
  16.4215900  42.6117170  15.0209200  15.9189500  43.3522570  15.3603010
  17.2372560  43.0001170  14.7045990  14.7137910  47.8550350   8.4670560
  13.7728050  47.8700580   8.6418250  15.0281980  47.0686310   8.9130860
   3.3866310  46.9695020   2.7107410   3.4669900  46.0222530   2.8224810
   4.2786060  47.3001900   2.8168070  16.7163490  55.0259200  10.1424820
  16.8410910  55.8490370  10.6148630  17.5829050  54.8149930   9.7948970
   4.1881020  57.1190410   9.8141950   4.9243500  56.5705870  10.0850520
   4.5721940  57.9846420   9.6747940   3.1939300  56.3036480  19.0027530
   3.9952030  56.6248530  19.4162930   2.6791120  55.9432060  19.7247440
  12.0303930  52.4116350  18.9502940  11.4242090  52.4347950  18.2098690
  11.7258040  51.6799390  19.4870190  13.4604300  56.1396640  17.5612350
  14.4126050  56.0554660  17.5112590  13.3132520  56.8038350  18.2346140
  16.3513500  55.5190850   3.0604260  16.0655010  55.1055990   2.2458440
  16.1533050  56.4478560   2.9404780   7.9675050  50.1980930  17.4799100
   7.2020720  50.7665930  17.3953770   8.1491010  49.9057140  16.5867330
  11.0563460  50.5744160   2.1051860  10.5073560  51.0213460   2.7494600
  11.6782720  50.0693410   2.6289530  15.1098400  51.9286260  18.0374120
  15.8507870  52.2662020  17.5341580  14.3471080  52.0978320  17.4843890
   2.9460190  46.9339530  18.8413650   2.9865530  46.6353400  19.7498880
   3.8005690  47.3347140  18.6821170   6.7238580  49.5335080   4.0017160
   7.1455000  49.3674950   4.8448550   6.8489420  48.7235310   3.5072300
   4.8866000  45.5131630  16.8088140   4.3562460  45.0222580  16.1811480
   5.5554070  45.9415830  16.2746070  13.7844060  49.9801090  16.5729330
  14.1985080  50.1346170  17.4219750  12.8495060  50.1056310  16.7355110
  14.2566230  47.3197250  18.5768480  14.8387000  46.5649570  18.4888960
  14.4328000  47.8504690  17.7999960   5.3738300  42.4794000  16.8885430
   5.2795170  41.8614750  16.1636300   4.7935690  43.2060290  16.6615340
   8.1399740  41.0367240  13.9212820   7.6917040  41.0591500  13.0758370
   7.5064940  40.6386260  14.5183120   8.5459290  49.9321570  14.5425260
   8.9647400  50.7754300  14.3701500   7.6267920  50.0693610  14.3132040
  10.8823190  47.6637750  15.9263100  11.0019400  47.0678890  16.6657940
  11.7417190  47.7007440  15.5064400  13.2211090  48.2174940  14.5025610
  12.6946310  48.7417560  13.8990750  13.5642430  48.8502330  15.1335340
   6.3966710  56.2374580  15.6582990   5.8587800  56.9620640  15.3391690
   6.6500670  55.7604920  14.8680330   7.6491960  44.2059100  17.1838920
   8.2391650  43.8974950  17.8716740   6.8312200  43.7338850  17.3398820
  12.4685390  43.8224910  17.4171940  11.7800910  43.1606450  17.3521930
  13.1891410  43.3763180  17.8620400  13.0985790  40.4176540   3.4762200
  13.3788080  39.5744440   3.8321620  12.3251520  40.6499650   3.9900950
   9.2528920  57.4725790  15.9169640   9.1787620  58.3760930  16.2242010
   8.3507760  57.1537690  15.8891710   9.8014250  56.6384300   3.5396000
  10.6965040  56.9769270   3.5614760   9.8331880  55.9163710   2.9120280
   3.4410410  52.0111350   1.7683000   3.8785280  52.5541020   2.4240580
   3.9258140  51.1858300   1.7779340   5.2518130  53.1309390   6.8805230
   4.9513670  53.0074360   7.7809140   5.1455620  52.2717980   6.4720960
  16.7808600  55.1687970  16.2462200  16.1810590  55.2280530  15.5026120
  16.9102500  54.2292950  16.3759050  17.4766510  49.6553270   4.0866110
  18.2385420  50.2249920   4.1925800  17.4920880  49.0880470   4.8574420
  18.4826480  50.5103370   8.9308040  18.8535310  49.7270690   8.5244010
  19.1228410  51.1992470   8.7525340  15.4660240  51.8939950  14.3438360
  14.6520080  52.3237110  14.6064150  15.8734440  52.5058360  13.7307410
  13.9261290  42.9732490   2.5392260  14.3446170  42.7863470   1.6988920
  13.6197350  42.1211540   2.8495190  17.4251020  47.8856630   6.2368060
  17.0494620  47.1184560   5.8049350  16.6954140  48.2679330   6.7242990
   2.0146780  48.5643770  12.8577110   2.3819820  48.4771170  13.7373130
   1.4457600  47.8010320  12.7583970  16.8150640  47.0328150  15.8707580
  16.5836730  46.8040900  14.9705530  17.0755190  47.9527700  15.8252470
  15.2538710  42.2584580  18.6487280  16.1308890  42.2667980  19.0321280
  15.2659550  41.5215420  18.0379630  16.7001980  46.1114120   9.5375300
  17.2239460  45.6176770   8.9065470  17.2861400  46.2464480  10.2822870
  16.8791700  46.1953990  13.0594850  15.9294410  46.1617530  13.1739840
  17.0604710  47.1054100  12.8244620  16.1901950  45.3687470   5.4767710
  16.6861070  45.1358340   6.2616590  15.9918020  44.5299310   5.0605350
   2.0702490  39.7501190  11.1118750   2.7178680  39.1998570  10.6713910
   2.4904330  40.0044340  11.9334560  17.6189110  44.0048420   8.0105390
  17.5088390  43.8504460   8.9487660  18.3796700  43.4769360   7.7680800
  15.9654830  39.9442550  14.4688390  16.6027050  40.5576690  14.8347580
  16.1129720  39.9803210  13.5237620  18.5817870  42.6067000   3.8768240
  17.7869370  42.5412120   4.4061150  18.7861150  43.5417640   3.8653590
  15.5236290  56.6458550   7.8706630  16.1195360  56.3243120   7.1941050
  15.7814440  56.1730370   8.6619900   1.8234490  39.9056860  13.8544070
   1.4749310  40.3620680  14.6202250   1.4922190  39.0113990  13.9366500
   3.4298860  53.0776460  18.0197260   3.3868490  52.7069370  18.9011720
   3.5609870  54.0154030  18.1599080   7.1304890  54.6336050  13.6206980
   6.8896250  54.9010610  12.7337500   8.0707530  54.8041780  13.6757840
   9.3359310  41.0968740  17.3763490   9.2748200  41.6890570  18.1258900
  10.2759690  40.9894700  17.2313750  11.9733870  40.7538800  17.0155780
  12.5874280  41.0718090  16.3536860  12.5183430  40.2687390  17.6351640
  18.3909050  56.6530430  14.4217620  17.8967330  57.0499300  13.7044750
  17.7822340  56.0279640  14.8154900   2.4955130  39.4333060  17.1294840
   3.0438120  39.2521110  16.3660950   2.5610440  38.6427170  17.6651150
   3.2686890  56.0238710  15.1395040   2.6747210  55.8923410  15.8785080
   3.2610730  55.1876850  14.6737140  12.7141910  39.3170940  13.3425070
  11.8401750  39.6506050  13.1398000  12.6052660  38.8444120  14.1676940
  13.6213890  41.5241810  14.7266790  13.2927250  40.7093570  14.3468520
  14.5696190  41.4811620  14.6032480  16.0748500  57.2953850  11.7004360
  15.6151470  58.0469660  11.3262380  15.4460960  56.5760320  11.6419160
   2.8999120  53.3897090  14.0903080   2.1733180  52.7702380  14.0229030
   2.9608270  53.7837700  13.2201160   6.5044220  55.6042090  10.8752490
   7.0209240  54.9929450  10.3500750   7.1541600  56.1070870  11.3663500
   9.2439720  56.4950580  11.7021470   9.5317530  56.2404880  10.8254480
   9.7562940  55.9427940  12.2927040  10.4616730  40.2340780  12.2817980
   9.6788520  40.7086280  12.5614740  10.1679660  39.3295610  12.1731160
  15.0137800  40.9363880  10.3267070  15.4545890  40.8808980   9.4788670
  14.7445390  41.8521890  10.3977250  16.8776370  40.5679120   8.3375890
  16.8164770  39.6240340   8.1906910  17.6568400  40.6759210   8.8829350
   1.8057140  40.5388260   4.8031700   2.5636500  40.6517140   4.2295730
   1.3434310  41.3757460   4.7575130   8.3470950  42.6527530   7.7934010
   7.5345460  42.2784420   7.4529890   8.8512590  41.8972610   8.0955200
  12.8495930  39.3169980   9.0317080  13.4525300  39.8890190   9.5065600
  12.1088920  39.8809420   8.8090980  15.9930530  39.7191540   4.3057360
  16.1881160  40.6174990   4.5724790  15.2060400  39.4878620   4.7990310
   2.7891820  55.4004710   4.7449980   2.2639440  55.7812740   4.0411940
   2.7136400  56.0255480   5.4659690   4.1782290  41.0652310   3.3433670
   4.7075050  40.2782110   3.2141620   4.8110610  41.7443500   3.5769200
   6.3720130  40.8027450   6.3979060   5.7422870  40.1014760   6.5649190
   5.8325270  41.5631580   6.1812220   9.3112080  57.4166680  19.0689670
  10.2379390  57.1810950  19.1125630   9.2962510  58.2438680  18.5875700
  17.5457140  56.9592250   6.0663920  17.7209330  56.2729990   5.4224840
  16.8478710  57.4839300   5.6740590   6.4975690  40.0811430  18.8331550
   6.2159960  40.5845030  18.0692370   6.8795390  39.2833180  18.4673680
   5.3884790  57.3487090   3.6199230   6.1203610  57.0646370   3.0723120
   5.6478460  57.1100370   4.5098610   4.5499580  53.4651820   3.6245560
   3.9208460  53.9336920   4.1731390   4.6647410  52.6201040   4.0591750
  13.0991150  39.4965010  19.4112020  12.9856600  39.8159620  20.3063540
  13.9160890  39.8977520  19.1149300  15.8789640  56.6436540  18.8930710
  16.6714960  56.1485770  18.6856670  16.1722790  57.3226680  19.5006320
  12.0049300  28.7413990 139.9694680  11.9243350  27.8268600 139.6986390
  11.5913720  29.2381060 139.2634390  10.1367340  30.5193010 141.8503950
   9.3609440  30.0393450 142.1402520  10.7880270  29.8398660 141.6760110
   4.1533170  30.8312820 142.7279710   3.3218050  30.5761530 143.1276220
   4.7614150  30.9023590 143.4637630  14.1574770  34.9253200 140.6303080
  13.6956300  34.1540440 140.9590250  14.9700320  34.9519270 141.1355530
   4.1334430  34.8652910 142.9237730   4.4362470  33.9750650 142.7447950
   4.8778020  35.4223130 142.6959980   2.5625120  25.7914710 136.5122100
   1.6741820  26.1330680 136.4101980   2.8466310  25.5915030 135.6202930
  10.3838080  37.2111210 140.2507070   9.7649520  37.6668710 139.6801510
  11.2389860  37.3662670 139.8496770   9.5776330  33.1950200 141.8574110
   9.5084610  32.2540140 141.6963240  10.3396190  33.2851610 142.4296680
   1.7683000  23.8004720 144.1830730   1.5885840  22.9030470 144.4633490
   1.3663080  24.3476590 144.8577680  10.6081500  26.0020580 142.0843040
  10.9846320  25.1292460 141.9716710  10.5101010  26.3379280 141.1933480
   4.7386510  24.3746210 137.5460480   4.8453260  25.2749940 137.8529240
   3.8278870  24.3264180 137.2555130  14.3905620  23.4971020 139.0171380
  15.2115240  23.0067590 139.0596860  14.4239700  24.0868680 139.7703220
   2.3869670  26.2965220 142.7913070   3.0679780  26.5603590 143.4100470
   2.0717720  25.4566090 143.1251080   6.5794240  27.3432580 141.8785660
   7.0872460  27.8413550 142.5190680   7.1107480  26.5667780 141.7025020
  18.6805170  25.5137770 145.5815010  17.9757340  25.9019480 145.0630120
  18.9463090  26.2088060 146.1835940   4.8630340  21.9831140 146.1449080
   4.8648780  22.5003530 145.3394980   4.0334650  21.5061320 146.1219010
  11.2501430  32.0950450 137.6438980  10.6318700  32.5599900 137.0801700
  11.7624680  32.7877930 138.0608490   6.1133190  31.6226320 144.3222580
   5.7802570  32.2495240 144.9643650   6.2899870  32.1488200 143.5424250
  14.6267100  25.4371400 141.7898920  13.9222670  25.7256290 142.3702030
  14.9879260  26.2471510 141.4298480   4.5445670  23.6941100 144.1519530
   4.8862480  24.5383150 143.8573400   3.6061480  23.8424840 144.2684870
   5.3252290  33.5907120 146.1371760   5.9426290  34.2658200 145.8556210
   4.4645410  33.9995100 146.0459260  16.2429880  35.0546530 144.0526400
  15.5593400  35.7245640 144.0443070  16.7824170  35.2527180 143.2871260
  17.6954020  24.8826190 142.1808130  16.7478930  24.9165170 142.3123560
  18.0204010  25.6965140 142.5657490   8.2273560  21.1823370 140.4764120
   8.5348540  20.6270260 139.7599620   7.2974260  21.3167830 140.2937110
  13.7788620  36.8990660 142.7671580  13.7915780  36.4952950 141.8993840
  13.2263840  37.6737950 142.6633010  15.0734040  33.6206880 137.8561750
  14.9630370  32.6781210 137.9811170  15.0702290  33.9822520 138.7424510
  13.1774060  31.8020500 144.0954190  13.5942850  31.5880610 143.2607650
  13.9013880  32.0593290 144.6662810  10.6154320  29.2472200 137.2124240
   9.6883600  29.1809580 137.4412710  10.7679140  30.1852330 137.0979480
  10.6023400  25.5189200 134.2091400   9.6627070  25.6803160 134.2943860
  10.9206660  26.2374880 133.6627390  17.1236160  30.2007720 144.1870430
  16.2954790  30.2700810 143.7120560  17.7186640  30.7862030 143.7186260
  14.6451610  30.8092500 137.7159490  14.0264030  30.4712050 137.0685790
  14.6276060  30.1652260 138.4238680  14.0878170  26.9877040 145.1325300
  13.6749350  27.8130750 145.3865290  13.3554120  26.4022080 144.9401660
   6.2210960  29.7736940 139.9943970   5.8167960  29.0614190 139.4989870
   6.3074080  29.4290180 140.8832010   6.6892660  33.4604500 142.1583180
   6.3920950  32.8549970 141.4790960   7.6392480  33.4981810 142.0472540
   4.9339580  26.5480150 143.7743010   5.4854170  26.6575490 142.9996260
   5.4483090  26.9217750 144.4898240  14.7778270  37.0336370 145.8206280
  14.3008830  37.8408560 145.6278890  14.0940060  36.3814700 145.9732490
   5.7811090  33.1986190 148.8090980   4.8839620  33.4226160 149.0564380
   5.8063960  33.3221130 147.8602380  12.8216310  30.0479310 134.7232240
  13.2609590  29.2101740 134.5770060  13.5344730  30.6808710 134.8096380
   4.6082310  30.0699510 147.3848350   4.4690080  30.9422310 147.7535750
   3.7263670  29.7272320 147.2396290  10.9311690  34.9875380 138.6913480
  11.3707600  35.7299710 138.2768870  10.8698580  35.2301950 139.6152440
   6.4062660  36.0121210 149.5933500   6.3778090  36.4164160 148.7261930
   6.2427630  35.0831570 149.4305100  16.4033450  21.3022120 133.0373280
  16.0906110  21.3948950 133.9372350  17.1645920  21.8803150 132.9870710
   2.9215590  28.6681920 137.4950620   2.8013190  29.3944010 136.8831890
   2.6116480  27.8984830 137.0178530   1.8048590  33.5397250 139.7125440
   1.3976670  33.6811840 138.8579040   2.6961600  33.2557410 139.5096650
  17.7610730  33.9861160 148.0497680  17.8873790  33.7473040 147.1314860
  17.8032110  33.1545700 148.5219760  11.6227470  37.6889160 146.6192490
  12.1372140  37.5997170 147.4214920  10.7796550  38.0348860 146.9120400
  13.5981870  37.9744500 136.0476490  13.4383010  37.6847440 136.9458320
  13.4328580  37.1984630 135.5121720   6.0770250  37.7543030 137.8248110
   5.9012730  36.8378570 137.6115910   5.2225990  38.1130320 138.0645910
  13.3008000  35.4832060 134.6074490  12.6073160  35.4809350 133.9476770
  14.0430860  35.0591380 134.1768660  12.8657930  37.1094770 138.6822980
  13.3214880  36.3284150 138.9961600  13.2050450  37.8201590 139.2264160
  17.6134740  26.0393620 149.0147420  16.9979010  26.5473290 148.4862880
  17.2931160  25.1391950 148.9573360   5.3879250  22.0116990 140.8774290
   4.9447400  22.7926530 140.5458810   5.9464240  22.3346880 141.5845230
   9.6749060  24.8785510 146.4809610   9.2128430  25.0868530 147.2929550
   9.2727170  24.0644860 146.1780280  14.6753570  26.0994460 147.6106270
  13.8247160  25.8000210 147.9315340  14.5155360  26.3436470 146.6990090
  11.7703280  27.5996210 149.7105060  12.0956690  26.7659960 149.3707290
  12.5583610  28.1224730 149.8583390   8.5038070  21.6327690 135.7580120
   7.8792250  21.6287560 136.4833430   8.4168190  20.7658650 135.3616090
   7.4255150  22.5564320 142.7363890   7.7227480  23.4627150 142.6555910
   7.9740710  22.0683100 142.1223460   5.1793470  27.1350560 138.6055540
   4.9534390  26.9187730 139.5102160   4.3986000  27.5679020 138.2601510
  12.4091230  27.1413930 137.2046190  11.8100120  27.8649730 137.0209810
  12.9570840  27.0790710 136.4222640   7.6192680  28.0336140 149.2715810
   7.5236280  27.0930870 149.1216210   8.4624660  28.2551210 148.8763880
  11.0156100  25.7777470 139.2349470  11.4085670  26.0949670 138.4218160
  11.3772950  24.8989350 139.3493990   2.7503220  24.4449810 147.4249590
   2.3566610  25.2925020 147.6322370   2.0621620  23.8076180 147.6158230
  11.6011240  28.3683220 143.3300250  10.8692360  28.8770030 143.6790350
  11.2035580  27.5513200 143.0289030   8.0388630  25.0437420 141.7352740
   8.0424690  24.6027370 140.8857280   8.9339750  25.3654750 141.8424560
   3.8891010  24.9263910 140.6946950   3.5491060  25.4039140 141.4514000
   3.1268330  24.4729030 140.3348050   8.1008780  26.0449500 134.7259500
   8.2221600  26.0035980 135.6745320   7.7157290  26.9073650 134.5706230
  12.0637150  23.8216900 142.7423190  12.0809890  24.2725550 143.5865040
  11.8152730  22.9222540 142.9556630   7.1130280  28.3550640 134.1242800
   6.5447180  27.9068890 133.4978710   7.8219280  28.7143420 133.5907950
  15.4907900  21.2349080 148.5809570  15.8153670  20.5038740 149.1067550
  15.5264410  20.9162720 147.6790560   2.1899460  32.2562660 148.0009530
   1.8054250  31.6156330 148.5992490   2.5011650  32.9598780 148.5704260
   8.3396600  29.1039200 143.4818150   8.7066730  28.6297770 144.2279490
   8.1501660  29.9780770 143.8226490   6.1295970  28.1447840 145.8002360
   5.8253040  29.0239820 146.0252720   7.0842430  28.2047630 145.8359800
   4.6577760  32.3508830 136.3969210   3.8840020  31.8106450 136.2367930
   5.3872390  31.8315440 136.0586970  15.4165740  31.3474190 142.1895600
  16.1364860  31.8429480 141.7991710  15.2147560  30.6692080 141.5449470
  10.8775680  22.7412150 136.3324990  10.0640290  22.2425320 136.2570300
  10.6837630  23.5810400 135.9161340  10.7984540  31.4183250 148.0764600
  10.7321850  30.4978920 147.8222190  10.1689680  31.5158690 148.7909240
  13.5924070  27.1131800 134.6287150  14.4803690  27.4249030 134.4538490
  13.5629160  26.2404050 134.2367730   4.7015160  32.0189210 140.0348020
   5.2193830  31.2157470 139.9804910   4.2499180  31.9568350 140.8764850
   9.5884660  33.2855490 135.3075320   9.9300360  34.0297720 134.8118640
   8.7597370  33.5986610 135.6700150   2.1859700  28.9850580 146.9473720
   1.8274640  29.6504430 147.5347060   1.8914260  28.1534130 147.3186340
   5.3872820  29.4434820 149.8313270   5.0872960  29.5892000 148.9341090
   6.1584060  28.8840110 149.7386660  10.7301270  34.2403820 147.8268400
  10.7445810  33.3084780 147.6087310  10.0226370  34.3263580 148.4658170
  15.8638340  28.4243640 134.0967010  15.7802060  28.8557860 133.2463450
  16.5832530  28.8841990 134.5293830  16.9412480  30.8811160 147.1736980
  16.2160670  31.4739940 146.9766370  17.4687940  30.8734700 146.3750350
  16.8925590  35.2785900 136.8249140  16.2501750  34.6241520 137.0992860
  16.5056250  35.6840990 136.0489810  12.4712070  32.6071330 140.6720830
  12.8235890  32.0099460 140.0122200  11.5874400  32.2815560 140.8429080
   8.5575350  33.3669020 138.0791240   9.2446480  33.9138230 138.4598830
   7.7707770  33.9109750 138.1140850   7.8602560  30.3715050 137.6916600
   8.3165340  31.1820300 137.9176790   7.5090770  30.0538190 138.5235090
  10.1635170  35.8821390 144.9208900  10.8077390  36.0880770 145.5982320
  10.5264610  35.1209790 144.4679750   3.7614340  20.7152700 138.1639120
   3.6328970  20.7070600 139.1124040   2.9376360  21.0535790 137.8130130
  11.4367250  33.8853740 143.6386350  12.0789480  33.1846900 143.7518520
  11.9616600  34.6652180 143.4583240  15.2822970  34.1702360 133.3625490
  15.0560550  33.4532800 133.9550130  14.8919170  33.9214800 132.5247240
  13.2104870  34.6848640 146.8422410  13.5461110  35.2715330 147.5200330
  12.2905210  34.5541350 147.0720200  14.8639220  32.0874300 135.0239650
  14.5760920  32.5486990 135.8117530  15.6591390  31.6272070 135.2923870
   7.0807620  35.5800420 134.9543620   7.0717720  36.3130110 134.3388130
   6.1605980  35.3332000 135.0470580   2.6814260  30.8015310 135.6990380
   2.0742210  31.5414210 135.7085680   3.1563610  30.8914670 134.8728580
  12.2547050  24.9666130 145.3747270  12.6227870  24.1461340 145.7026840
  11.3945250  25.0268020 145.7902920  15.6209080  23.9223070 136.1834830
  14.9922240  24.0268740 135.4693060  15.1261000  24.1419850 136.9728710
  10.0667220  35.6428660 133.6168810  10.1679200  35.4392650 132.6870790
   9.1668960  35.3886940 133.8216590   7.5893110  26.2009020 137.5992710
   6.8809260  26.6695360 138.0406320   7.8737590  25.5431030 138.2337900
   9.2149040  27.6205720 145.5985240   9.7134290  28.0951540 146.2637090
   9.3571990  26.6969240 145.8055270  11.6208540  22.9259680 139.0388500
  11.4976320  22.9445810 138.0898010  12.5693100  22.9738620 139.1586900
   8.7085330  38.1614980 138.3116480   8.9626830  38.1236370 137.3895850
   7.7597810  38.0348310 138.3044730   5.7928130  24.5094100 134.9743420
   6.6418660  24.9464250 134.9083610   5.4259400  24.8214360 135.8015480
  16.4215900  23.8373680 146.4413630  15.9189500  24.5779080 146.7807440
  17.2372560  24.2257680 146.1250420  14.7137910  29.0806860 139.8874990
  13.7728050  29.0957090 140.0622680  15.0281980  28.2942820 140.3335290
   4.6919550  30.7626460 133.4478950   5.4582820  30.6507820 134.0104380
   4.7694240  30.0664430 132.7955720   3.3866310  28.1951530 134.1311840
   3.4669900  27.2479040 134.2429240   4.2786060  28.5258410 134.2372500
  16.7163490  36.2515710 141.5629250  16.8410910  37.0746880 142.0353060
  17.5829050  36.0406440 141.2153400   4.1881020  38.3446920 141.2346380
   4.9243500  37.7962380 141.5054950   4.5721940  39.2102930 141.0952370
   7.2983330  37.5177230 133.0571950   8.0911940  37.8066060 132.6053740
   6.7787680  37.0869400 132.3784430  13.4604300  37.3653150 148.9816780
  14.4126050  37.2811170 148.9317020  13.3132520  38.0294860 149.6550570
  16.3513500  36.7447360 134.4808690  16.0655010  36.3312500 133.6662870
  16.1533050  37.6735070 134.3609210   7.8160730  32.7380640 132.9214300
   7.7111370  32.1232990 133.6475680   7.6484950  32.2146530 132.1377310
   7.9675050  31.4237440 148.9003530   7.2020720  31.9922440 148.8158200
   8.1491010  31.1313650 148.0071760  11.0563460  31.8000670 133.5256290
  10.5073560  32.2469970 134.1699030  11.6782720  31.2949920 134.0493960
  15.1098400  33.1542770 149.4578550  15.8507870  33.4918530 148.9546010
  14.3471080  33.3234830 148.9048320   6.7238580  30.7591590 135.4221590
   7.1455000  30.5931460 136.2652980   6.8489420  29.9491820 134.9276730
   4.8866000  26.7388140 148.2292570   4.3562460  26.2479090 147.6015910
   5.5554070  27.1672340 147.6950500   9.2366220  29.7829200 132.6698690
   9.7571880  29.0678220 132.3039840   9.8834620  30.4215070 132.9699200
  13.7844060  31.2057600 147.9933760  14.1985080  31.3602680 148.8424180
  12.8495060  31.3312820 148.1559540  14.2566230  28.5453760 149.9972910
  14.8387000  27.7906080 149.9093390  14.4328000  29.0761200 149.2204390
   5.3738300  23.7050510 148.3089860   5.2795170  23.0871260 147.5840730
   4.7935690  24.4316800 148.0819770   8.1399740  22.2623750 145.3417250
   7.6917040  22.2848010 144.4962800   7.5064940  21.8642770 145.9387550
   8.5459290  31.1578080 145.9629690   8.9647400  32.0010810 145.7905930
   7.6267920  31.2950120 145.7336470  10.8823190  28.8894260 147.3467530
  11.0019400  28.2935400 148.0862370  11.7417190  28.9263950 146.9268830
  13.2211090  29.4431450 145.9230040  12.6946310  29.9674070 145.3195180
  13.5642430  30.0758840 146.5539770   5.6197480  26.8324820 132.3679750
   5.4186540  25.9692180 132.7293090   5.4489530  26.7458180 131.4301350
   6.3966710  37.4631090 147.0787420   5.8587800  38.1877150 146.7596120
   6.6500670  36.9861430 146.2884760   7.6491960  25.4315610 148.6043350
   8.2391650  25.1231460 149.2921170   6.8312200  24.9595360 148.7603250
  12.4685390  25.0481420 148.8376370  11.7800910  24.3862960 148.7726360
  13.1891410  24.6019690 149.2824830  13.0985790  21.6433050 134.8966630
  13.3788080  20.8000950 135.2526050  12.3251520  21.8756160 135.4105380
   4.4180280  23.9325440 132.3557630   4.7206180  23.9392870 131.4476780
   5.1574870  23.5823300 132.8525290   9.2528920  38.6982300 147.3374070
   9.1787620  39.6017440 147.6446440   8.3507760  38.3794200 147.3096140
   7.6365210  22.8760060 133.3413830   7.2887210  22.1984050 132.7616280
   7.8377980  22.4149570 134.1557220   9.8014250  37.8640810 134.9600430
  10.6965040  38.2025780 134.9819190   9.8331880  37.1420220 134.3324710
   3.4410410  33.2367860 133.1887430   3.8785280  33.7797530 133.8445010
   3.9258140  32.4114810 133.1983770   5.2518130  34.3565900 138.3009660
   4.9513670  34.2330870 139.2013570   5.1455620  33.4974490 137.8925390
  16.7808600  36.3944480 147.6666630  16.1810590  36.4537040 146.9230550
  16.9102500  35.4549460 147.7963480  18.0210050  34.1362300 133.0036340
  17.1903010  34.2038950 133.4743570  18.1981880  35.0266420 132.7003200
  17.4766510  30.8809780 135.5070540  18.2385420  31.4506430 135.6130230
  17.4920880  30.3136980 136.2778850  18.4826480  31.7359880 140.3512470
  18.8535310  30.9527200 139.9448440  19.1228410  32.4248980 140.1729770
  15.4660240  33.1196460 145.7642790  14.6520080  33.5493620 146.0268580
  15.8734440  33.7314870 145.1511840  17.5285680  31.1744150 132.6643060
  17.8034520  32.0823030 132.5362280  17.3396420  31.1106680 133.6005050
  13.9261290  24.1989000 133.9596690  14.3446170  24.0119980 133.1193350
  13.6197350  23.3468050 134.2699620  17.4251020  29.1113140 137.6572490
  17.0494620  28.3441070 137.2253780  16.6954140  29.4935840 138.1447420
   2.0146780  29.7900280 144.2781540   2.3819820  29.7027680 145.1577560
   1.4457600  29.0266830 144.1788400  16.8150640  28.2584660 147.2912010
  16.5836730  28.0297410 146.3909960  17.0755190  29.1784210 147.2456900
  16.7001980  27.3370630 140.9579730  17.2239460  26.8433280 140.3269900
  17.2861400  27.4720990 141.7027300  16.8791700  27.4210500 144.4799280
  15.9294410  27.3874040 144.5944270  17.0604710  28.3310610 144.2449050
   2.7336140  25.6712180 133.5897910   3.4427840  25.2495400 133.1045190
   2.0176080  25.7387410 132.9581260   2.3810300  21.7251510 132.6300560
   3.1038430  22.2660450 132.9481780   2.6534820  21.4514930 131.7542100
  16.1901950  26.5943980 136.8972140  16.6861070  26.3614850 137.6821020
  15.9918020  25.7555820 136.4809780   2.0702490  20.9757700 142.5323180
   2.7178680  20.4255080 142.0918340   2.4904330  21.2300850 143.3538990
  17.6189110  25.2304930 139.4309820  17.5088390  25.0760970 140.3692090
  18.3796700  24.7025870 139.1885230  15.9654830  21.1699060 145.8892820
  16.6027050  21.7833200 146.2552010  16.1129720  21.2059720 144.9442050
  18.5079380  23.0612850 132.6715960  19.4328690  22.9294030 132.4634250
  18.4855170  23.1405670 133.6252410  18.5817870  23.8323510 135.2972670
  17.7869370  23.7668630 135.8265580  18.7861150  24.7674150 135.2858020
  15.5236290  37.8715060 139.2911060  16.1195360  37.5499630 138.6145480
  15.7814440  37.3986880 140.0824330   1.8234490  21.1313370 145.2748500
   1.4749310  21.5877190 146.0406680   1.4922190  20.2370500 145.3570930
   7.1304890  35.8592560 145.0411410   6.8896250  36.1267120 144.1541930
   8.0707530  36.0298290 145.0962270   9.3359310  22.3225250 148.7967920
   9.2748200  22.9147080 149.5463330  10.2759690  22.2151210 148.6518180
  11.9733870  21.9795310 148.4360210  12.5874280  22.2974600 147.7741290
  12.5183430  21.4943900 149.0556070  18.3909050  37.8786940 145.8422050
  17.8967330  38.2755810 145.1249180  17.7822340  37.2536150 146.2359330
   2.4955130  20.6589570 148.5499270   3.0438120  20.4777620 147.7865380
   2.5610440  19.8683680 149.0855580   3.2686890  37.2495220 146.5599470
   2.6747210  37.1179920 147.2989510   3.2610730  36.4133360 146.0941570
  12.7141910  20.5427450 144.7629500  11.8401750  20.8762560 144.5602430
  12.6052660  20.0700630 145.5881370  13.6213890  22.7498320 146.1471220
  13.2927250  21.9350080 145.7672950  14.5696190  22.7068130 146.0236910
  16.0748500  38.5210360 143.1208790  15.6151470  39.2726170 142.7466810
  15.4460960  37.8016830 143.0623590   2.8999120  34.6153600 145.5107510
   2.1733180  33.9958890 145.4433460   2.9608270  35.0094210 144.6405590
   6.5044220  36.8298600 142.2956920   7.0209240  36.2185960 141.7705180
   7.1541600  37.3327380 142.7867930   9.2439720  37.7207090 143.1225900
   9.5317530  37.4661390 142.2458910   9.7562940  37.1684450 143.7131470
  10.4616730  21.4597290 143.7022410   9.6788520  21.9342790 143.9819170
  10.1679660  20.5552120 143.5935590  15.0137800  22.1620390 141.7471500
  15.4545890  22.1065490 140.8993100  14.7445390  23.0778400 141.8181680
  16.8776370  21.7935630 139.7580320  16.8164770  20.8496850 139.6111340
  17.6568400  21.9015720 140.3033780   1.8057140  21.7644770 136.2236130
   2.5636500  21.8773650 135.6500160   1.3434310  22.6013970 136.1779560
   8.3470950  23.8784040 139.2138440   7.5345460  23.5040930 138.8734320
   8.8512590  23.1229120 139.5159630  12.8495930  20.5426490 140.4521510
  13.4525300  21.1146700 140.9270030  12.1088920  21.1065930 140.2295410
  15.9930530  20.9448050 135.7261790  16.1881160  21.8431500 135.9929220
  15.2060400  20.7135130 136.2194740   2.7891820  36.6261220 136.1654410
   2.2639440  37.0069250 135.4616370   2.7136400  37.2511990 136.8864120
   4.1782290  22.2908820 134.7638100   4.7075050  21.5038620 134.6346050
   4.8110610  22.9700010 134.9973630   6.3720130  22.0283960 137.8183490
   5.7422870  21.3271270 137.9853620   5.8325270  22.7888090 137.6016650
  17.5457140  38.1848760 137.4868350  17.7209330  37.4986500 136.8429270
  16.8478710  38.7095810 137.0945020   5.3884790  38.5743600 135.0403660
   6.1203610  38.2902880 134.4927550   5.6478460  38.3356880 135.9303040
   4.5499580  34.6908330 135.0449990   3.9208460  35.1593430 135.5935820
   4.6647410  33.8457550 135.4796180  12.0049300  28.7413990 121.1951190
  11.9243350  27.8268600 120.9242900  11.5913720  29.2381060 120.4890900
  10.1367340  30.5193010 123.0760460   9.3609440  30.0393450 123.3659030
  10.7880270  29.8398660 122.9016620   4.1533170  30.8312820 123.9536220
   3.3218050  30.5761530 124.3532730   4.7614150  30.9023590 124.6894140
  14.1574770  34.9253200 121.8559590  13.6956300  34.1540440 122.1846760
  14.9700320  34.9519270 122.3612040   4.1334430  34.8652910 124.1494240
   4.4362470  33.9750650 123.9704460   4.8778020  35.4223130 123.9216490
   2.5625120  25.7914710 117.7378610   1.6741820  26.1330680 117.6358490
   2.8466310  25.5915030 116.8459440  10.3838080  37.2111210 121.4763580
   9.7649520  37.6668710 120.9058020  11.2389860  37.3662670 121.0753280
   9.5776330  33.1950200 123.0830620   9.5084610  32.2540140 122.9219750
  10.3396190  33.2851610 123.6553190   1.7683000  23.8004720 125.4087240
   1.5885840  22.9030470 125.6890000   1.3663080  24.3476590 126.0834190
  10.6081500  26.0020580 123.3099550  10.9846320  25.1292460 123.1973220
  10.5101010  26.3379280 122.4189990   4.7386510  24.3746210 118.7716990
   4.8453260  25.2749940 119.0785750   3.8278870  24.3264180 118.4811640
  14.3905620  23.4971020 120.2427890  15.2115240  23.0067590 120.2853370
  14.4239700  24.0868680 120.9959730   2.3869670  26.2965220 124.0169580
   3.0679780  26.5603590 124.6356980   2.0717720  25.4566090 124.3507590
   6.5794240  27.3432580 123.1042170   7.0872460  27.8413550 123.7447190
   7.1107480  26.5667780 122.9281530  18.6805170  25.5137770 126.8071520
  17.9757340  25.9019480 126.2886630  18.9463090  26.2088060 127.4092450
   4.8630340  21.9831140 127.3705590   4.8648780  22.5003530 126.5651490
   4.0334650  21.5061320 127.3475520  11.2501430  32.0950450 118.8695490
  10.6318700  32.5599900 118.3058210  11.7624680  32.7877930 119.2865000
   6.1133190  31.6226320 125.5479090   5.7802570  32.2495240 126.1900160
   6.2899870  32.1488200 124.7680760  14.6267100  25.4371400 123.0155430
  13.9222670  25.7256290 123.5958540  14.9879260  26.2471510 122.6554990
   4.5445670  23.6941100 125.3776040   4.8862480  24.5383150 125.0829910
   3.6061480  23.8424840 125.4941380   5.3252290  33.5907120 127.3628270
   5.9426290  34.2658200 127.0812720   4.4645410  33.9995100 127.2715770
  16.2429880  35.0546530 125.2782910  15.5593400  35.7245640 125.2699580
  16.7824170  35.2527180 124.5127770  17.6954020  24.8826190 123.4064640
  16.7478930  24.9165170 123.5380070  18.0204010  25.6965140 123.7914000
   8.2273560  21.1823370 121.7020630   8.5348540  20.6270260 120.9856130
   7.2974260  21.3167830 121.5193620  13.7788620  36.8990660 123.9928090
  13.7915780  36.4952950 123.1250350  13.2263840  37.6737950 123.8889520
  15.0734040  33.6206880 119.0818260  14.9630370  32.6781210 119.2067680
  15.0702290  33.9822520 119.9681020  13.1774060  31.8020500 125.3210700
  13.5942850  31.5880610 124.4864160  13.9013880  32.0593290 125.8919320
  10.6154320  29.2472200 118.4380750   9.6883600  29.1809580 118.6669220
  10.7679140  30.1852330 118.3235990  10.6023400  25.5189200 115.4347910
   9.6627070  25.6803160 115.5200370  10.9206660  26.2374880 114.8883900
  17.1236160  30.2007720 125.4126940  16.2954790  30.2700810 124.9377070
  17.7186640  30.7862030 124.9442770  14.6451610  30.8092500 118.9416000
  14.0264030  30.4712050 118.2942300  14.6276060  30.1652260 119.6495190
  14.0878170  26.9877040 126.3581810  13.6749350  27.8130750 126.6121800
  13.3554120  26.4022080 126.1658170   6.2210960  29.7736940 121.2200480
   5.8167960  29.0614190 120.7246380   6.3074080  29.4290180 122.1088520
   6.6892660  33.4604500 123.3839690   6.3920950  32.8549970 122.7047470
   7.6392480  33.4981810 123.2729050   4.9339580  26.5480150 124.9999520
   5.4854170  26.6575490 124.2252770   5.4483090  26.9217750 125.7154750
  14.7778270  37.0336370 127.0462790  14.3008830  37.8408560 126.8535400
  14.0940060  36.3814700 127.1989000   5.7811090  33.1986190 130.0347490
   4.8839620  33.4226160 130.2820890   5.8063960  33.3221130 129.0858890
  12.8216310  30.0479310 115.9488750  13.2609590  29.2101740 115.8026570
  13.5344730  30.6808710 116.0352890   4.6082310  30.0699510 128.6104860
   4.4690080  30.9422310 128.9792260   3.7263670  29.7272320 128.4652800
  10.9311690  34.9875380 119.9169990  11.3707600  35.7299710 119.5025380
  10.8698580  35.2301950 120.8408950   6.4062660  36.0121210 130.8190010
   6.3778090  36.4164160 129.9518440   6.2427630  35.0831570 130.6561610
  16.4033450  21.3022120 114.2629790  16.0906110  21.3948950 115.1628860
  17.1645920  21.8803150 114.2127220   2.9215590  28.6681920 118.7207130
   2.8013190  29.3944010 118.1088400   2.6116480  27.8984830 118.2435040
  18.3577480  36.7948310 132.1154180  18.8337200  37.2731200 132.7943260
  18.9784640  36.7265800 131.3899680   1.8048590  33.5397250 120.9381950
   1.3976670  33.6811840 120.0835550   2.6961600  33.2557410 120.7353160
  17.7610730  33.9861160 129.2754190  17.8873790  33.7473040 128.3571370
  17.8032110  33.1545700 129.7476270  11.6227470  37.6889160 127.8449000
  12.1372140  37.5997170 128.6471430  10.7796550  38.0348860 128.1376910
  13.5981870  37.9744500 117.2733000  13.4383010  37.6847440 118.1714830
  13.4328580  37.1984630 116.7378230   6.0770250  37.7543030 119.0504620
   5.9012730  36.8378570 118.8372420   5.2225990  38.1130320 119.2902420
  13.3008000  35.4832060 115.8331000  12.6073160  35.4809350 115.1733280
  14.0430860  35.0591380 115.4025170  12.8657930  37.1094770 119.9079490
  13.3214880  36.3284150 120.2218110  13.2050450  37.8201590 120.4520670
  17.6134740  26.0393620 130.2403930  16.9979010  26.5473290 129.7119390
  17.2931160  25.1391950 130.1829870   5.3879250  22.0116990 122.1030800
   4.9447400  22.7926530 121.7715320   5.9464240  22.3346880 122.8101740
   9.6749060  24.8785510 127.7066120   9.2128430  25.0868530 128.5186060
   9.2727170  24.0644860 127.4036790  14.6753570  26.0994460 128.8362780
  13.8247160  25.8000210 129.1571850  14.5155360  26.3436470 127.9246600
  11.7703280  27.5996210 130.9361570  12.0956690  26.7659960 130.5963800
  12.5583610  28.1224730 131.0839900   8.5038070  21.6327690 116.9836630
   7.8792250  21.6287560 117.7089940   8.4168190  20.7658650 116.5872600
   7.4255150  22.5564320 123.9620400   7.7227480  23.4627150 123.8812420
   7.9740710  22.0683100 123.3479970   5.1793470  27.1350560 119.8312050
   4.9534390  26.9187730 120.7358670   4.3986000  27.5679020 119.4858020
  12.4091230  27.1413930 118.4302700  11.8100120  27.8649730 118.2466320
  12.9570840  27.0790710 117.6479150   7.6192680  28.0336140 130.4972320
   7.5236280  27.0930870 130.3472720   8.4624660  28.2551210 130.1020390
  11.0156100  25.7777470 120.4605980  11.4085670  26.0949670 119.6474670
  11.3772950  24.8989350 120.5750500   2.7503220  24.4449810 128.6506100
   2.3566610  25.2925020 128.8578880   2.0621620  23.8076180 128.8414740
   9.3248270  24.5284780 131.7202840   8.6346590  24.3356980 132.3548930
  10.0680570  24.8119420 132.2527140  11.6011240  28.3683220 124.5556760
  10.8692360  28.8770030 124.9046860  11.2035580  27.5513200 124.2545540
   8.0388630  25.0437420 122.9609250   8.0424690  24.6027370 122.1113790
   8.9339750  25.3654750 123.0681070   3.8891010  24.9263910 121.9203460
   3.5491060  25.4039140 122.6770510   3.1268330  24.4729030 121.5604560
   8.1008780  26.0449500 115.9516010   8.2221600  26.0035980 116.9001830
   7.7157290  26.9073650 115.7962740  12.0637150  23.8216900 123.9679700
  12.0809890  24.2725550 124.8121550  11.8152730  22.9222540 124.1813140
   7.1130280  28.3550640 115.3499310   6.5447180  27.9068890 114.7235220
   7.8219280  28.7143420 114.8164460  15.4907900  21.2349080 129.8066080
  15.8153670  20.5038740 130.3324060  15.5264410  20.9162720 128.9047070
   2.1899460  32.2562660 129.2266040   1.8054250  31.6156330 129.8249000
   2.5011650  32.9598780 129.7960770   8.3396600  29.1039200 124.7074660
   8.7066730  28.6297770 125.4536000   8.1501660  29.9780770 125.0483000
   6.1295970  28.1447840 127.0258870   5.8253040  29.0239820 127.2509230
   7.0842430  28.2047630 127.0616310   4.6577760  32.3508830 117.6225720
   3.8840020  31.8106450 117.4624440   5.3872390  31.8315440 117.2843480
  15.4165740  31.3474190 123.4152110  16.1364860  31.8429480 123.0248220
  15.2147560  30.6692080 122.7705980  10.8775680  22.7412150 117.5581500
  10.0640290  22.2425320 117.4826810  10.6837630  23.5810400 117.1417850
  10.7984540  31.4183250 129.3021110  10.7321850  30.4978920 129.0478700
  10.1689680  31.5158690 130.0165750  13.5924070  27.1131800 115.8543660
  14.4803690  27.4249030 115.6795000  13.5629160  26.2404050 115.4624240
   4.7015160  32.0189210 121.2604530   5.2193830  31.2157470 121.2061420
   4.2499180  31.9568350 122.1021360   9.5884660  33.2855490 116.5331830
   9.9300360  34.0297720 116.0375150   8.7597370  33.5986610 116.8956660
   2.1859700  28.9850580 128.1730230   1.8274640  29.6504430 128.7603570
   1.8914260  28.1534130 128.5442850   5.3872820  29.4434820 131.0569780
   5.0872960  29.5892000 130.1597600   6.1584060  28.8840110 130.9643170
  10.7301270  34.2403820 129.0524910  10.7445810  33.3084780 128.8343820
  10.0226370  34.3263580 129.6914680  15.8638340  28.4243640 115.3223520
  15.7802060  28.8557860 114.4719960  16.5832530  28.8841990 115.7550340
  16.9412480  30.8811160 128.3993490  16.2160670  31.4739940 128.2022880
  17.4687940  30.8734700 127.6006860  16.8925590  35.2785900 118.0505650
  16.2501750  34.6241520 118.3249370  16.5056250  35.6840990 117.2746320
  12.4712070  32.6071330 121.8977340  12.8235890  32.0099460 121.2378710
  11.5874400  32.2815560 122.0685590   8.5575350  33.3669020 119.3047750
   9.2446480  33.9138230 119.6855340   7.7707770  33.9109750 119.3397360
   7.8602560  30.3715050 118.9173110   8.3165340  31.1820300 119.1433300
   7.5090770  30.0538190 119.7491600  10.1635170  35.8821390 126.1465410
  10.8077390  36.0880770 126.8238830  10.5264610  35.1209790 125.6936260
   3.7614340  20.7152700 119.3895630   3.6328970  20.7070600 120.3380550
   2.9376360  21.0535790 119.0386640  11.4367250  33.8853740 124.8642860
  12.0789480  33.1846900 124.9775030  11.9616600  34.6652180 124.6839750
  15.2822970  34.1702360 114.5882000  15.0560550  33.4532800 115.1806640
  14.8919170  33.9214800 113.7503750  13.2104870  34.6848640 128.0678920
  13.5461110  35.2715330 128.7456840  12.2905210  34.5541350 128.2976710
  14.8639220  32.0874300 116.2496160  14.5760920  32.5486990 117.0374040
  15.6591390  31.6272070 116.5180380   9.0393450  34.7339970 131.2366980
   8.7190320  34.0149210 131.7812670   8.3651810  35.4095040 131.3103040
   7.0807620  35.5800420 116.1800130   7.0717720  36.3130110 115.5644640
   6.1605980  35.3332000 116.2727090   2.6814260  30.8015310 116.9246890
   2.0742210  31.5414210 116.9342190   3.1563610  30.8914670 116.0985090
  12.2547050  24.9666130 126.6003780  12.6227870  24.1461340 126.9283350
  11.3945250  25.0268020 127.0159430  15.6209080  23.9223070 117.4091340
  14.9922240  24.0268740 116.6949570  15.1261000  24.1419850 118.1985220
  10.0667220  35.6428660 114.8425320  10.1679200  35.4392650 113.9127300
   9.1668960  35.3886940 115.0473100   7.5893110  26.2009020 118.8249220
   6.8809260  26.6695360 119.2662830   7.8737590  25.5431030 119.4594410
   9.2149040  27.6205720 126.8241750   9.7134290  28.0951540 127.4893600
   9.3571990  26.6969240 127.0311780  11.6208540  22.9259680 120.2645010
  11.4976320  22.9445810 119.3154520  12.5693100  22.9738620 120.3843410
   8.7085330  38.1614980 119.5372990   8.9626830  38.1236370 118.6152360
   7.7597810  38.0348310 119.5301240   5.7928130  24.5094100 116.1999930
   6.6418660  24.9464250 116.1340120   5.4259400  24.8214360 117.0271990
  16.4215900  23.8373680 127.6670140  15.9189500  24.5779080 128.0063950
  17.2372560  24.2257680 127.3506930  14.7137910  29.0806860 121.1131500
  13.7728050  29.0957090 121.2879190  15.0281980  28.2942820 121.5591800
   4.6919550  30.7626460 114.6735460   5.4582820  30.6507820 115.2360890
   4.7694240  30.0664430 114.0212230   3.3866310  28.1951530 115.3568350
   3.4669900  27.2479040 115.4685750   4.2786060  28.5258410 115.4629010
  16.7163490  36.2515710 122.7885760  16.8410910  37.0746880 123.2609570
  17.5829050  36.0406440 122.4409910   4.1881020  38.3446920 122.4602890
   4.9243500  37.7962380 122.7311460   4.5721940  39.2102930 122.3208880
   3.1939300  37.5292990 131.6488470   3.9952030  37.8505040 132.0623870
   2.6791120  37.1688570 132.3708380   7.2983330  37.5177230 114.2828460
   8.0911940  37.8066060 113.8310250   6.7787680  37.0869400 113.6040940
  12.0303930  33.6372860 131.5963880  11.4242090  33.6604460 130.8559630
  11.7258040  32.9055900 132.1331130  13.4604300  37.3653150 130.2073290
  14.4126050  37.2811170 130.1573530  13.3132520  38.0294860 130.8807080
  16.3513500  36.7447360 115.7065200  16.0655010  36.3312500 114.8919380
  16.1533050  37.6735070 115.5865720   7.8160730  32.7380640 114.1470810
   7.7111370  32.1232990 114.8732190   7.6484950  32.2146530 113.3633820
   7.9675050  31.4237440 130.1260040   7.2020720  31.9922440 130.0414710
   8.1491010  31.1313650 129.2328270  11.0563460  31.8000670 114.7512800
  10.5073560  32.2469970 115.3955540  11.6782720  31.2949920 115.2750470
  15.1098400  33.1542770 130.6835060  15.8507870  33.4918530 130.1802520
  14.3471080  33.3234830 130.1304830   2.9460190  28.1596040 131.4874590
   2.9865530  27.8609910 132.3959820   3.8005690  28.5603650 131.3282110
   6.7238580  30.7591590 116.6478100   7.1455000  30.5931460 117.4909490
   6.8489420  29.9491820 116.1533240   4.8866000  26.7388140 129.4549080
   4.3562460  26.2479090 128.8272420   5.5554070  27.1672340 128.9207010
   9.2366220  29.7829200 113.8955200   9.7571880  29.0678220 113.5296350
   9.8834620  30.4215070 114.1955710  13.7844060  31.2057600 129.2190270
  14.1985080  31.3602680 130.0680690  12.8495060  31.3312820 129.3816050
  14.2566230  28.5453760 131.2229420  14.8387000  27.7906080 131.1349900
  14.4328000  29.0761200 130.4460900   5.3738300  23.7050510 129.5346370
   5.2795170  23.0871260 128.8097240   4.7935690  24.4316800 129.3076280
   8.1399740  22.2623750 126.5673760   7.6917040  22.2848010 125.7219310
   7.5064940  21.8642770 127.1644060   8.5459290  31.1578080 127.1886200
   8.9647400  32.0010810 127.0162440   7.6267920  31.2950120 126.9592980
  10.8823190  28.8894260 128.5724040  11.0019400  28.2935400 129.3118880
  11.7417190  28.9263950 128.1525340  13.2211090  29.4431450 127.1486550
  12.6946310  29.9674070 126.5451690  13.5642430  30.0758840 127.7796280
   5.6197480  26.8324820 113.5936260   5.4186540  25.9692180 113.9549600
   5.4489530  26.7458180 112.6557860   6.3966710  37.4631090 128.3043930
   5.8587800  38.1877150 127.9852630   6.6500670  36.9861430 127.5141270
   7.6491960  25.4315610 129.8299860   8.2391650  25.1231460 130.5177680
   6.8312200  24.9595360 129.9859760  12.4685390  25.0481420 130.0632880
  11.7800910  24.3862960 129.9982870  13.1891410  24.6019690 130.5081340
  13.0985790  21.6433050 116.1223140  13.3788080  20.8000950 116.4782560
  12.3251520  21.8756160 116.6361890   4.4180280  23.9325440 113.5814140
   4.7206180  23.9392870 112.6733290   5.1574870  23.5823300 114.0781800
   9.2528920  38.6982300 128.5630580   9.1787620  39.6017440 128.8702950
   8.3507760  38.3794200 128.5352650   7.6365210  22.8760060 114.5670340
   7.2887210  22.1984050 113.9872790   7.8377980  22.4149570 115.3813730
   9.8014250  37.8640810 116.1856940  10.6965040  38.2025780 116.2075700
   9.8331880  37.1420220 115.5581220   3.4410410  33.2367860 114.4143940
   3.8785280  33.7797530 115.0701520   3.9258140  32.4114810 114.4240280
   5.2518130  34.3565900 119.5266170   4.9513670  34.2330870 120.4270080
   5.1455620  33.4974490 119.1181900  16.7808600  36.3944480 128.8923140
  16.1810590  36.4537040 128.1487060  16.9102500  35.4549460 129.0219990
  18.0210050  34.1362300 114.2292850  17.1903010  34.2038950 114.7000080
  18.1981880  35.0266420 113.9259710  17.4766510  30.8809780 116.7327050
  18.2385420  31.4506430 116.8386740  17.4920880  30.3136980 117.5035360
  18.4826480  31.7359880 121.5768980  18.8535310  30.9527200 121.1704950
  19.1228410  32.4248980 121.3986280  15.4660240  33.1196460 126.9899300
  14.6520080  33.5493620 127.2525090  15.8734440  33.7314870 126.3768350
  17.5285680  31.1744150 113.8899570  17.8034520  32.0823030 113.7618790
  17.3396420  31.1106680 114.8261560  13.9261290  24.1989000 115.1853200
  14.3446170  24.0119980 114.3449860  13.6197350  23.3468050 115.4956130
  17.4251020  29.1113140 118.8829000  17.0494620  28.3441070 118.4510290
  16.6954140  29.4935840 119.3703930   2.0146780  29.7900280 125.5038050
   2.3819820  29.7027680 126.3834070   1.4457600  29.0266830 125.4044910
  16.8150640  28.2584660 128.5168520  16.5836730  28.0297410 127.6166470
  17.0755190  29.1784210 128.4713410  15.2538710  23.4841090 131.2948220
  16.1308890  23.4924490 131.6782220  15.2659550  22.7471930 130.6840570
  16.7001980  27.3370630 122.1836240  17.2239460  26.8433280 121.5526410
  17.2861400  27.4720990 122.9283810  16.8791700  27.4210500 125.7055790
  15.9294410  27.3874040 125.8200780  17.0604710  28.3310610 125.4705560
   2.7336140  25.6712180 114.8154420   3.4427840  25.2495400 114.3301700
   2.0176080  25.7387410 114.1837770   2.3810300  21.7251510 113.8557070
   3.1038430  22.2660450 114.1738290   2.6534820  21.4514930 112.9798610
  16.1901950  26.5943980 118.1228650  16.6861070  26.3614850 118.9077530
  15.9918020  25.7555820 117.7066290   2.0702490  20.9757700 123.7579690
   2.7178680  20.4255080 123.3174850   2.4904330  21.2300850 124.5795500
  17.6189110  25.2304930 120.6566330  17.5088390  25.0760970 121.5948600
  18.3796700  24.7025870 120.4141740  15.9654830  21.1699060 127.1149330
  16.6027050  21.7833200 127.4808520  16.1129720  21.2059720 126.1698560
  18.5079380  23.0612850 113.8972470  19.4328690  22.9294030 113.6890760
  18.4855170  23.1405670 114.8508920  18.5817870  23.8323510 116.5229180
  17.7869370  23.7668630 117.0522090  18.7861150  24.7674150 116.5114530
  15.5236290  37.8715060 120.5167570  16.1195360  37.5499630 119.8401990
  15.7814440  37.3986880 121.3080840   1.8234490  21.1313370 126.5005010
   1.4749310  21.5877190 127.2663190   1.4922190  20.2370500 126.5827440
   3.4298860  34.3032970 130.6658200   3.3868490  33.9325880 131.5472660
   3.5609870  35.2410540 130.8060020   7.1304890  35.8592560 126.2667920
   6.8896250  36.1267120 125.3798440   8.0707530  36.0298290 126.3218780
   9.3359310  22.3225250 130.0224430   9.2748200  22.9147080 130.7719840
  10.2759690  22.2151210 129.8774690  11.9733870  21.9795310 129.6616720
  12.5874280  22.2974600 128.9997800  12.5183430  21.4943900 130.2812580
  18.3909050  37.8786940 127.0678560  17.8967330  38.2755810 126.3505690
  17.7822340  37.2536150 127.4615840   2.4955130  20.6589570 129.7755780
   3.0438120  20.4777620 129.0121890   2.5610440  19.8683680 130.3112090
   3.2686890  37.2495220 127.7855980   2.6747210  37.1179920 128.5246020
   3.2610730  36.4133360 127.3198080  12.7141910  20.5427450 125.9886010
  11.8401750  20.8762560 125.7858940  12.6052660  20.0700630 126.8137880
  13.6213890  22.7498320 127.3727730  13.2927250  21.9350080 126.9929460
  14.5696190  22.7068130 127.2493420  16.0748500  38.5210360 124.3465300
  15.6151470  39.2726170 123.9723320  15.4460960  37.8016830 124.2880100
   2.8999120  34.6153600 126.7364020   2.1733180  33.9958890 126.6689970
   2.9608270  35.0094210 125.8662100   6.5044220  36.8298600 123.5213430
   7.0209240  36.2185960 122.9961690   7.1541600  37.3327380 124.0124440
   9.2439720  37.7207090 124.3482410   9.5317530  37.4661390 123.4715420
   9.7562940  37.1684450 124.9387980  10.4616730  21.4597290 124.9278920
   9.6788520  21.9342790 125.2075680  10.1679660  20.5552120 124.8192100
  15.0137800  22.1620390 122.9728010  15.4545890  22.1065490 122.1249610
  14.7445390  23.0778400 123.0438190  16.8776370  21.7935630 120.9836830
  16.8164770  20.8496850 120.8367850  17.6568400  21.9015720 121.5290290
   1.8057140  21.7644770 117.4492640   2.5636500  21.8773650 116.8756670
   1.3434310  22.6013970 117.4036070   8.3470950  23.8784040 120.4394950
   7.5345460  23.5040930 120.0990830   8.8512590  23.1229120 120.7416140
  12.8495930  20.5426490 121.6778020  13.4525300  21.1146700 122.1526540
  12.1088920  21.1065930 121.4551920  15.9930530  20.9448050 116.9518300
  16.1881160  21.8431500 117.2185730  15.2060400  20.7135130 117.4451250
   2.7891820  36.6261220 117.3910920   2.2639440  37.0069250 116.6872880
   2.7136400  37.2511990 118.1120630   4.1782290  22.2908820 115.9894610
   4.7075050  21.5038620 115.8602560   4.8110610  22.9700010 116.2230140
   6.3720130  22.0283960 119.0440000   5.7422870  21.3271270 119.2110130
   5.8325270  22.7888090 118.8273160   9.3112080  38.6423190 131.7150610
  10.2379390  38.4067460 131.7586570   9.2962510  39.4695190 131.2336640
  17.5457140  38.1848760 118.7124860  17.7209330  37.4986500 118.0685780
  16.8478710  38.7095810 118.3201530   6.4975690  21.3067940 131.4792490
   6.2159960  21.8101540 130.7153310   6.8795390  20.5089690 131.1134620
   5.3884790  38.5743600 116.2660170   6.1203610  38.2902880 115.7184060
   5.6478460  38.3356880 117.1559550   4.5499580  34.6908330 116.2706500
   3.9208460  35.1593430 116.8192330   4.6647410  33.8457550 116.7052690
  13.0991150  20.7221520 132.0572960  12.9856600  21.0416130 132.9524480
  13.9160890  21.1234030 131.7610240  15.8789640  37.8693050 131.5391650
  16.6714960  37.3742280 131.3317610  16.1722790  38.5483190 132.1467260
  12.0049300  28.7413990 102.4207700  11.9243350  27.8268600 102.1499410
  11.5913720  29.2381060 101.7147410  10.1367340  30.5193010 104.3016970
   9.3609440  30.0393450 104.5915540  10.7880270  29.8398660 104.1273130
   4.1533170  30.8312820 105.1792730   3.3218050  30.5761530 105.5789240
   4.7614150  30.9023590 105.9150650  14.1574770  34.9253200 103.0816100
  13.6956300  34.1540440 103.4103270  14.9700320  34.9519270 103.5868550
   4.1334430  34.8652910 105.3750750   4.4362470  33.9750650 105.1960970
   4.8778020  35.4223130 105.1473000   2.5625120  25.7914710  98.9635120
   1.6741820  26.1330680  98.8615000   2.8466310  25.5915030  98.0715950
  10.3838080  37.2111210 102.7020090   9.7649520  37.6668710 102.1314530
  11.2389860  37.3662670 102.3009790   9.5776330  33.1950200 104.3087130
   9.5084610  32.2540140 104.1476260  10.3396190  33.2851610 104.8809700
   1.7683000  23.8004720 106.6343750   1.5885840  22.9030470 106.9146510
   1.3663080  24.3476590 107.3090700  10.6081500  26.0020580 104.5356060
  10.9846320  25.1292460 104.4229730  10.5101010  26.3379280 103.6446500
   4.7386510  24.3746210  99.9973500   4.8453260  25.2749940 100.3042260
   3.8278870  24.3264180  99.7068150  14.3905620  23.4971020 101.4684400
  15.2115240  23.0067590 101.5109880  14.4239700  24.0868680 102.2216240
   2.3869670  26.2965220 105.2426090   3.0679780  26.5603590 105.8613490
   2.0717720  25.4566090 105.5764100   6.5794240  27.3432580 104.3298680
   7.0872460  27.8413550 104.9703700   7.1107480  26.5667780 104.1538040
  18.6805170  25.5137770 108.0328030  17.9757340  25.9019480 107.5143140
  18.9463090  26.2088060 108.6348960   4.8630340  21.9831140 108.5962100
   4.8648780  22.5003530 107.7908000   4.0334650  21.5061320 108.5732030
  11.2501430  32.0950450 100.0952000  10.6318700  32.5599900  99.5314720
  11.7624680  32.7877930 100.5121510   6.1133190  31.6226320 106.7735600
   5.7802570  32.2495240 107.4156670   6.2899870  32.1488200 105.9937270
  14.6267100  25.4371400 104.2411940  13.9222670  25.7256290 104.8215050
  14.9879260  26.2471510 103.8811500   4.5445670  23.6941100 106.6032550
   4.8862480  24.5383150 106.3086420   3.6061480  23.8424840 106.7197890
   5.3252290  33.5907120 108.5884780   5.9426290  34.2658200 108.3069230
   4.4645410  33.9995100 108.4972280  16.2429880  35.0546530 106.5039420
  15.5593400  35.7245640 106.4956090  16.7824170  35.2527180 105.7384280
  17.6954020  24.8826190 104.6321150  16.7478930  24.9165170 104.7636580
  18.0204010  25.6965140 105.0170510   8.2273560  21.1823370 102.9277140
   8.5348540  20.6270260 102.2112640   7.2974260  21.3167830 102.7450130
  13.7788620  36.8990660 105.2184600  13.7915780  36.4952950 104.3506860
  13.2263840  37.6737950 105.1146030  15.0734040  33.6206880 100.3074770
  14.9630370  32.6781210 100.4324190  15.0702290  33.9822520 101.1937530
  13.1774060  31.8020500 106.5467210  13.5942850  31.5880610 105.7120670
  13.9013880  32.0593290 107.1175830  10.6154320  29.2472200  99.6637260
   9.6883600  29.1809580  99.8925730  10.7679140  30.1852330  99.5492500
  10.6023400  25.5189200  96.6604420   9.6627070  25.6803160  96.7456880
  10.9206660  26.2374880  96.1140410  17.1236160  30.2007720 106.6383450
  16.2954790  30.2700810 106.1633580  17.7186640  30.7862030 106.1699280
  14.6451610  30.8092500 100.1672510  14.0264030  30.4712050  99.5198810
  14.6276060  30.1652260 100.8751700  14.0878170  26.9877040 107.5838320
  13.6749350  27.8130750 107.8378310  13.3554120  26.4022080 107.3914680
   6.2210960  29.7736940 102.4456990   5.8167960  29.0614190 101.9502890
   6.3074080  29.4290180 103.3345030   6.6892660  33.4604500 104.6096200
   6.3920950  32.8549970 103.9303980   7.6392480  33.4981810 104.4985560
   4.9339580  26.5480150 106.2256030   5.4854170  26.6575490 105.4509280
   5.4483090  26.9217750 106.9411260  14.7778270  37.0336370 108.2719300
  14.3008830  37.8408560 108.0791910  14.0940060  36.3814700 108.4245510
   5.7811090  33.1986190 111.2604000   4.8839620  33.4226160 111.5077400
   5.8063960  33.3221130 110.3115400  12.8216310  30.0479310  97.1745260
  13.2609590  29.2101740  97.0283080  13.5344730  30.6808710  97.2609400
   4.6082310  30.0699510 109.8361370   4.4690080  30.9422310 110.2048770
   3.7263670  29.7272320 109.6909310  10.9311690  34.9875380 101.1426500
  11.3707600  35.7299710 100.7281890  10.8698580  35.2301950 102.0665460
   6.4062660  36.0121210 112.0446520   6.3778090  36.4164160 111.1774950
   6.2427630  35.0831570 111.8818120  16.4033450  21.3022120  95.4886300
  16.0906110  21.3948950  96.3885370  17.1645920  21.8803150  95.4383730
   2.9215590  28.6681920  99.9463640   2.8013190  29.3944010  99.3344910
   2.6116480  27.8984830  99.4691550  18.3577480  36.7948310 113.3410690
  18.8337200  37.2731200 114.0199770  18.9784640  36.7265800 112.6156190
   1.8048590  33.5397250 102.1638460   1.3976670  33.6811840 101.3092060
   2.6961600  33.2557410 101.9609670  17.7610730  33.9861160 110.5010700
  17.8873790  33.7473040 109.5827880  17.8032110  33.1545700 110.9732780
  11.6227470  37.6889160 109.0705510  12.1372140  37.5997170 109.8727940
  10.7796550  38.0348860 109.3633420  13.5981870  37.9744500  98.4989510
  13.4383010  37.6847440  99.3971340  13.4328580  37.1984630  97.9634740
   6.0770250  37.7543030 100.2761130   5.9012730  36.8378570 100.0628930
   5.2225990  38.1130320 100.5158930  13.3008000  35.4832060  97.0587510
  12.6073160  35.4809350  96.3989790  14.0430860  35.0591380  96.6281680
  12.8657930  37.1094770 101.1336000  13.3214880  36.3284150 101.4474620
  13.2050450  37.8201590 101.6777180  17.6134740  26.0393620 111.4660440
  16.9979010  26.5473290 110.9375900  17.2931160  25.1391950 111.4086380
   5.3879250  22.0116990 103.3287310   4.9447400  22.7926530 102.9971830
   5.9464240  22.3346880 104.0358250   9.6749060  24.8785510 108.9322630
   9.2128430  25.0868530 109.7442570   9.2727170  24.0644860 108.6293300
  14.6753570  26.0994460 110.0619290  13.8247160  25.8000210 110.3828360
  14.5155360  26.3436470 109.1503110  11.7703280  27.5996210 112.1618080
  12.0956690  26.7659960 111.8220310  12.5583610  28.1224730 112.3096410
   8.5038070  21.6327690  98.2093140   7.8792250  21.6287560  98.9346450
   8.4168190  20.7658650  97.8129110   7.4255150  22.5564320 105.1876910
   7.7227480  23.4627150 105.1068930   7.9740710  22.0683100 104.5736480
   5.1793470  27.1350560 101.0568560   4.9534390  26.9187730 101.9615180
   4.3986000  27.5679020 100.7114530  12.4091230  27.1413930  99.6559210
  11.8100120  27.8649730  99.4722830  12.9570840  27.0790710  98.8735660
   7.6192680  28.0336140 111.7228830   7.5236280  27.0930870 111.5729230
   8.4624660  28.2551210 111.3276900  11.0156100  25.7777470 101.6862490
  11.4085670  26.0949670 100.8731180  11.3772950  24.8989350 101.8007010
   2.7503220  24.4449810 109.8762610   2.3566610  25.2925020 110.0835390
   2.0621620  23.8076180 110.0671250   9.3248270  24.5284780 112.9459350
   8.6346590  24.3356980 113.5805440  10.0680570  24.8119420 113.4783650
  11.6011240  28.3683220 105.7813270  10.8692360  28.8770030 106.1303370
  11.2035580  27.5513200 105.4802050   8.0388630  25.0437420 104.1865760
   8.0424690  24.6027370 103.3370300   8.9339750  25.3654750 104.2937580
   3.8891010  24.9263910 103.1459970   3.5491060  25.4039140 103.9027020
   3.1268330  24.4729030 102.7861070   8.1008780  26.0449500  97.1772520
   8.2221600  26.0035980  98.1258340   7.7157290  26.9073650  97.0219250
  12.0637150  23.8216900 105.1936210  12.0809890  24.2725550 106.0378060
  11.8152730  22.9222540 105.4069650   7.1130280  28.3550640  96.5755820
   6.5447180  27.9068890  95.9491730   7.8219280  28.7143420  96.0420970
  15.4907900  21.2349080 111.0322590  15.8153670  20.5038740 111.5580570
  15.5264410  20.9162720 110.1303580   2.1899460  32.2562660 110.4522550
   1.8054250  31.6156330 111.0505510   2.5011650  32.9598780 111.0217280
   8.3396600  29.1039200 105.9331170   8.7066730  28.6297770 106.6792510
   8.1501660  29.9780770 106.2739510   6.1295970  28.1447840 108.2515380
   5.8253040  29.0239820 108.4765740   7.0842430  28.2047630 108.2872820
   4.6577760  32.3508830  98.8482230   3.8840020  31.8106450  98.6880950
   5.3872390  31.8315440  98.5099990  15.4165740  31.3474190 104.6408620
  16.1364860  31.8429480 104.2504730  15.2147560  30.6692080 103.9962490
  10.8775680  22.7412150  98.7838010  10.0640290  22.2425320  98.7083320
  10.6837630  23.5810400  98.3674360  10.7984540  31.4183250 110.5277620
  10.7321850  30.4978920 110.2735210  10.1689680  31.5158690 111.2422260
  13.5924070  27.1131800  97.0800170  14.4803690  27.4249030  96.9051510
  13.5629160  26.2404050  96.6880750   4.7015160  32.0189210 102.4861040
   5.2193830  31.2157470 102.4317930   4.2499180  31.9568350 103.3277870
   9.5884660  33.2855490  97.7588340   9.9300360  34.0297720  97.2631660
   8.7597370  33.5986610  98.1213170   2.1859700  28.9850580 109.3986740
   1.8274640  29.6504430 109.9860080   1.8914260  28.1534130 109.7699360
   5.3872820  29.4434820 112.2826290   5.0872960  29.5892000 111.3854110
   6.1584060  28.8840110 112.1899680  10.7301270  34.2403820 110.2781420
  10.7445810  33.3084780 110.0600330  10.0226370  34.3263580 110.9171190
  15.8638340  28.4243640  96.5480030  15.7802060  28.8557860  95.6976470
  16.5832530  28.8841990  96.9806850  16.9412480  30.8811160 109.6250000
  16.2160670  31.4739940 109.4279390  17.4687940  30.8734700 108.8263370
  16.8925590  35.2785900  99.2762160  16.2501750  34.6241520  99.5505880
  16.5056250  35.6840990  98.5002830  12.4712070  32.6071330 103.1233850
  12.8235890  32.0099460 102.4635220  11.5874400  32.2815560 103.2942100
   8.5575350  33.3669020 100.5304260   9.2446480  33.9138230 100.9111850
   7.7707770  33.9109750 100.5653870   7.8602560  30.3715050 100.1429620
   8.3165340  31.1820300 100.3689810   7.5090770  30.0538190 100.9748110
  10.1635170  35.8821390 107.3721920  10.8077390  36.0880770 108.0495340
  10.5264610  35.1209790 106.9192770   3.7614340  20.7152700 100.6152140
   3.6328970  20.7070600 101.5637060   2.9376360  21.0535790 100.2643150
  11.4367250  33.8853740 106.0899370  12.0789480  33.1846900 106.2031540
  11.9616600  34.6652180 105.9096260  15.2822970  34.1702360  95.8138510
  15.0560550  33.4532800  96.4063150  14.8919170  33.9214800  94.9760260
  13.2104870  34.6848640 109.2935430  13.5461110  35.2715330 109.9713350
  12.2905210  34.5541350 109.5233220  14.8639220  32.0874300  97.4752670
  14.5760920  32.5486990  98.2630550  15.6591390  31.6272070  97.7436890
   9.0393450  34.7339970 112.4623490   8.7190320  34.0149210 113.0069180
   8.3651810  35.4095040 112.5359550   7.0807620  35.5800420  97.4056640
   7.0717720  36.3130110  96.7901150   6.1605980  35.3332000  97.4983600
   2.6814260  30.8015310  98.1503400   2.0742210  31.5414210  98.1598700
   3.1563610  30.8914670  97.3241600  12.2547050  24.9666130 107.8260290
  12.6227870  24.1461340 108.1539860  11.3945250  25.0268020 108.2415940
  15.6209080  23.9223070  98.6347850  14.9922240  24.0268740  97.9206080
  15.1261000  24.1419850  99.4241730  10.0667220  35.6428660  96.0681830
  10.1679200  35.4392650  95.1383810   9.1668960  35.3886940  96.2729610
   7.5893110  26.2009020 100.0505730   6.8809260  26.6695360 100.4919340
   7.8737590  25.5431030 100.6850920   9.2149040  27.6205720 108.0498260
   9.7134290  28.0951540 108.7150110   9.3571990  26.6969240 108.2568290
  11.6208540  22.9259680 101.4901520  11.4976320  22.9445810 100.5411030
  12.5693100  22.9738620 101.6099920   8.7085330  38.1614980 100.7629500
   8.9626830  38.1236370  99.8408870   7.7597810  38.0348310 100.7557750
   5.7928130  24.5094100  97.4256440   6.6418660  24.9464250  97.3596630
   5.4259400  24.8214360  98.2528500  16.4215900  23.8373680 108.8926650
  15.9189500  24.5779080 109.2320460  17.2372560  24.2257680 108.5763440
  14.7137910  29.0806860 102.3388010  13.7728050  29.0957090 102.5135700
  15.0281980  28.2942820 102.7848310   4.6919550  30.7626460  95.8991970
   5.4582820  30.6507820  96.4617400   4.7694240  30.0664430  95.2468740
   3.3866310  28.1951530  96.5824860   3.4669900  27.2479040  96.6942260
   4.2786060  28.5258410  96.6885520  16.7163490  36.2515710 104.0142270
  16.8410910  37.0746880 104.4866080  17.5829050  36.0406440 103.6666420
   4.1881020  38.3446920 103.6859400   4.9243500  37.7962380 103.9567970
   4.5721940  39.2102930 103.5465390   3.1939300  37.5292990 112.8744980
   3.9952030  37.8505040 113.2880380   2.6791120  37.1688570 113.5964890
   7.2983330  37.5177230  95.5084970   8.0911940  37.8066060  95.0566760
   6.7787680  37.0869400  94.8297450  12.0303930  33.6372860 112.8220390
  11.4242090  33.6604460 112.0816140  11.7258040  32.9055900 113.3587640
  13.4604300  37.3653150 111.4329800  14.4126050  37.2811170 111.3830040
  13.3132520  38.0294860 112.1063590  16.3513500  36.7447360  96.9321710
  16.0655010  36.3312500  96.1175890  16.1533050  37.6735070  96.8122230
   7.8160730  32.7380640  95.3727320   7.7111370  32.1232990  96.0988700
   7.6484950  32.2146530  94.5890330   7.9675050  31.4237440 111.3516550
   7.2020720  31.9922440 111.2671220   8.1491010  31.1313650 110.4584780
  11.0563460  31.8000670  95.9769310  10.5073560  32.2469970  96.6212050
  11.6782720  31.2949920  96.5006980  15.1098400  33.1542770 111.9091570
  15.8507870  33.4918530 111.4059030  14.3471080  33.3234830 111.3561340
   2.9460190  28.1596040 112.7131100   2.9865530  27.8609910 113.6216330
   3.8005690  28.5603650 112.5538620   6.7238580  30.7591590  97.8734610
   7.1455000  30.5931460  98.7166000   6.8489420  29.9491820  97.3789750
   4.8866000  26.7388140 110.6805590   4.3562460  26.2479090 110.0528930
   5.5554070  27.1672340 110.1463520   9.2366220  29.7829200  95.1211710
   9.7571880  29.0678220  94.7552860   9.8834620  30.4215070  95.4212220
  13.7844060  31.2057600 110.4446780  14.1985080  31.3602680 111.2937200
  12.8495060  31.3312820 110.6072560  14.2566230  28.5453760 112.4485930
  14.8387000  27.7906080 112.3606410  14.4328000  29.0761200 111.6717410
   5.3738300  23.7050510 110.7602880   5.2795170  23.0871260 110.0353750
   4.7935690  24.4316800 110.5332790   8.1399740  22.2623750 107.7930270
   7.6917040  22.2848010 106.9475820   7.5064940  21.8642770 108.3900570
   8.5459290  31.1578080 108.4142710   8.9647400  32.0010810 108.2418950
   7.6267920  31.2950120 108.1849490  10.8823190  28.8894260 109.7980550
  11.0019400  28.2935400 110.5375390  11.7417190  28.9263950 109.3781850
  13.2211090  29.4431450 108.3743060  12.6946310  29.9674070 107.7708200
  13.5642430  30.0758840 109.0052790   5.6197480  26.8324820  94.8192770
   5.4186540  25.9692180  95.1806110   5.4489530  26.7458180  93.8814370
   6.3966710  37.4631090 109.5300440   5.8587800  38.1877150 109.2109140
   6.6500670  36.9861430 108.7397780   7.6491960  25.4315610 111.0556370
   8.2391650  25.1231460 111.7434190   6.8312200  24.9595360 111.2116270
  12.4685390  25.0481420 111.2889390  11.7800910  24.3862960 111.2239380
  13.1891410  24.6019690 111.7337850  13.0985790  21.6433050  97.3479650
  13.3788080  20.8000950  97.7039070  12.3251520  21.8756160  97.8618400
   4.4180280  23.9325440  94.8070650   4.7206180  23.9392870  93.8989800
   5.1574870  23.5823300  95.3038310   9.2528920  38.6982300 109.7887090
   9.1787620  39.6017440 110.0959460   8.3507760  38.3794200 109.7609160
   7.6365210  22.8760060  95.7926850   7.2887210  22.1984050  95.2129300
   7.8377980  22.4149570  96.6070240   9.8014250  37.8640810  97.4113450
  10.6965040  38.2025780  97.4332210   9.8331880  37.1420220  96.7837730
   3.4410410  33.2367860  95.6400450   3.8785280  33.7797530  96.2958030
   3.9258140  32.4114810  95.6496790   5.2518130  34.3565900 100.7522680
   4.9513670  34.2330870 101.6526590   5.1455620  33.4974490 100.3438410
  16.7808600  36.3944480 110.1179650  16.1810590  36.4537040 109.3743570
  16.9102500  35.4549460 110.2476500  18.0210050  34.1362300  95.4549360
  17.1903010  34.2038950  95.9256590  18.1981880  35.0266420  95.1516220
  17.4766510  30.8809780  97.9583560  18.2385420  31.4506430  98.0643250
  17.4920880  30.3136980  98.7291870  18.4826480  31.7359880 102.8025490
  18.8535310  30.9527200 102.3961460  19.1228410  32.4248980 102.6242790
  15.4660240  33.1196460 108.2155810  14.6520080  33.5493620 108.4781600
  15.8734440  33.7314870 107.6024860  17.5285680  31.1744150  95.1156080
  17.8034520  32.0823030  94.9875300  17.3396420  31.1106680  96.0518070
  13.9261290  24.1989000  96.4109710  14.3446170  24.0119980  95.5706370
  13.6197350  23.3468050  96.7212640  17.4251020  29.1113140 100.1085510
  17.0494620  28.3441070  99.6766800  16.6954140  29.4935840 100.5960440
   2.0146780  29.7900280 106.7294560   2.3819820  29.7027680 107.6090580
   1.4457600  29.0266830 106.6301420  16.8150640  28.2584660 109.7425030
  16.5836730  28.0297410 108.8422980  17.0755190  29.1784210 109.6969920
  15.2538710  23.4841090 112.5204730  16.1308890  23.4924490 112.9038730
  15.2659550  22.7471930 111.9097080  16.7001980  27.3370630 103.4092750
  17.2239460  26.8433280 102.7782920  17.2861400  27.4720990 104.1540320
  16.8791700  27.4210500 106.9312300  15.9294410  27.3874040 107.0457290
  17.0604710  28.3310610 106.6962070   2.7336140  25.6712180  96.0410930
   3.4427840  25.2495400  95.5558210   2.0176080  25.7387410  95.4094280
   2.3810300  21.7251510  95.0813580   3.1038430  22.2660450  95.3994800
   2.6534820  21.4514930  94.2055120  16.1901950  26.5943980  99.3485160
  16.6861070  26.3614850 100.1334040  15.9918020  25.7555820  98.9322800
   2.0702490  20.9757700 104.9836200   2.7178680  20.4255080 104.5431360
   2.4904330  21.2300850 105.8052010  17.6189110  25.2304930 101.8822840
  17.5088390  25.0760970 102.8205110  18.3796700  24.7025870 101.6398250
  15.9654830  21.1699060 108.3405840  16.6027050  21.7833200 108.7065030
  16.1129720  21.2059720 107.3955070  18.5079380  23.0612850  95.1228980
  19.4328690  22.9294030  94.9147270  18.4855170  23.1405670  96.0765430
  18.5817870  23.8323510  97.7485690  17.7869370  23.7668630  98.2778600
  18.7861150  24.7674150  97.7371040  15.5236290  37.8715060 101.7424080
  16.1195360  37.5499630 101.0658500  15.7814440  37.3986880 102.5337350
   1.8234490  21.1313370 107.7261520   1.4749310  21.5877190 108.4919700
   1.4922190  20.2370500 107.8083950   3.4298860  34.3032970 111.8914710
   3.3868490  33.9325880 112.7729170   3.5609870  35.2410540 112.0316530
   7.1304890  35.8592560 107.4924430   6.8896250  36.1267120 106.6054950
   8.0707530  36.0298290 107.5475290   9.3359310  22.3225250 111.2480940
   9.2748200  22.9147080 111.9976350  10.2759690  22.2151210 111.1031200
  11.9733870  21.9795310 110.8873230  12.5874280  22.2974600 110.2254310
  12.5183430  21.4943900 111.5069090  18.3909050  37.8786940 108.2935070
  17.8967330  38.2755810 107.5762200  17.7822340  37.2536150 108.6872350
   2.4955130  20.6589570 111.0012290   3.0438120  20.4777620 110.2378400
   2.5610440  19.8683680 111.5368600   3.2686890  37.2495220 109.0112490
   2.6747210  37.1179920 109.7502530   3.2610730  36.4133360 108.5454590
  12.7141910  20.5427450 107.2142520  11.8401750  20.8762560 107.0115450
  12.6052660  20.0700630 108.0394390  13.6213890  22.7498320 108.5984240
  13.2927250  21.9350080 108.2185970  14.5696190  22.7068130 108.4749930
  16.0748500  38.5210360 105.5721810  15.6151470  39.2726170 105.1979830
  15.4460960  37.8016830 105.5136610   2.8999120  34.6153600 107.9620530
   2.1733180  33.9958890 107.8946480   2.9608270  35.0094210 107.0918610
   6.5044220  36.8298600 104.7469940   7.0209240  36.2185960 104.2218200
   7.1541600  37.3327380 105.2380950   9.2439720  37.7207090 105.5738920
   9.5317530  37.4661390 104.6971930   9.7562940  37.1684450 106.1644490
  10.4616730  21.4597290 106.1535430   9.6788520  21.9342790 106.4332190
  10.1679660  20.5552120 106.0448610  15.0137800  22.1620390 104.1984520
  15.4545890  22.1065490 103.3506120  14.7445390  23.0778400 104.2694700
  16.8776370  21.7935630 102.2093340  16.8164770  20.8496850 102.0624360
  17.6568400  21.9015720 102.7546800   1.8057140  21.7644770  98.6749150
   2.5636500  21.8773650  98.1013180   1.3434310  22.6013970  98.6292580
   8.3470950  23.8784040 101.6651460   7.5345460  23.5040930 101.3247340
   8.8512590  23.1229120 101.9672650  12.8495930  20.5426490 102.9034530
  13.4525300  21.1146700 103.3783050  12.1088920  21.1065930 102.6808430
  15.9930530  20.9448050  98.1774810  16.1881160  21.8431500  98.4442240
  15.2060400  20.7135130  98.6707760   2.7891820  36.6261220  98.6167430
   2.2639440  37.0069250  97.9129390   2.7136400  37.2511990  99.3377140
   4.1782290  22.2908820  97.2151120   4.7075050  21.5038620  97.0859070
   4.8110610  22.9700010  97.4486650   6.3720130  22.0283960 100.2696510
   5.7422870  21.3271270 100.4366640   5.8325270  22.7888090 100.0529670
   9.3112080  38.6423190 112.9407120  10.2379390  38.4067460 112.9843080
   9.2962510  39.4695190 112.4593150  17.5457140  38.1848760  99.9381370
  17.7209330  37.4986500  99.2942290  16.8478710  38.7095810  99.5458040
   6.4975690  21.3067940 112.7049000   6.2159960  21.8101540 111.9409820
   6.8795390  20.5089690 112.3391130   5.3884790  38.5743600  97.4916680
   6.1203610  38.2902880  96.9440570   5.6478460  38.3356880  98.3816060
   4.5499580  34.6908330  97.4963010   3.9208460  35.1593430  98.0448840
   4.6647410  33.8457550  97.9309200  13.0991150  20.7221520 113.2829470
  12.9856600  21.0416130 114.1780990  13.9160890  21.1234030 112.9866750
  15.8789640  37.8693050 112.7648160  16.6714960  37.3742280 112.5574120
  16.1722790  38.5483190 113.3723770  12.0049300  28.7413990  83.6464210
  11.9243350  27.8268600  83.3755920  11.5913720  29.2381060  82.9403920
  10.1367340  30.5193010  85.5273480   9.3609440  30.0393450  85.8172050
  10.7880270  29.8398660  85.3529640   4.1533170  30.8312820  86.4049240
   3.3218050  30.5761530  86.8045750   4.7614150  30.9023590  87.1407160
  14.1574770  34.9253200  84.3072610  13.6956300  34.1540440  84.6359780
  14.9700320  34.9519270  84.8125060   4.1334430  34.8652910  86.6007260
   4.4362470  33.9750650  86.4217480   4.8778020  35.4223130  86.3729510
   2.5625120  25.7914710  80.1891630   1.6741820  26.1330680  80.0871510
   2.8466310  25.5915030  79.2972460  10.3838080  37.2111210  83.9276600
   9.7649520  37.6668710  83.3571040  11.2389860  37.3662670  83.5266300
   9.5776330  33.1950200  85.5343640   9.5084610  32.2540140  85.3732770
  10.3396190  33.2851610  86.1066210   1.7683000  23.8004720  87.8600260
   1.5885840  22.9030470  88.1403020   1.3663080  24.3476590  88.5347210
  10.6081500  26.0020580  85.7612570  10.9846320  25.1292460  85.6486240
  10.5101010  26.3379280  84.8703010   4.7386510  24.3746210  81.2230010
   4.8453260  25.2749940  81.5298770   3.8278870  24.3264180  80.9324660
  14.3905620  23.4971020  82.6940910  15.2115240  23.0067590  82.7366390
  14.4239700  24.0868680  83.4472750   2.3869670  26.2965220  86.4682600
   3.0679780  26.5603590  87.0870000   2.0717720  25.4566090  86.8020610
   6.5794240  27.3432580  85.5555190   7.0872460  27.8413550  86.1960210
   7.1107480  26.5667780  85.3794550  18.6805170  25.5137770  89.2584540
  17.9757340  25.9019480  88.7399650  18.9463090  26.2088060  89.8605470
   4.8630340  21.9831140  89.8218610   4.8648780  22.5003530  89.0164510
   4.0334650  21.5061320  89.7988540  11.2501430  32.0950450  81.3208510
  10.6318700  32.5599900  80.7571230  11.7624680  32.7877930  81.7378020
   6.1133190  31.6226320  87.9992110   5.7802570  32.2495240  88.6413180
   6.2899870  32.1488200  87.2193780  14.6267100  25.4371400  85.4668450
  13.9222670  25.7256290  86.0471560  14.9879260  26.2471510  85.1068010
   4.5445670  23.6941100  87.8289060   4.8862480  24.5383150  87.5342930
   3.6061480  23.8424840  87.9454400   5.3252290  33.5907120  89.8141290
   5.9426290  34.2658200  89.5325740   4.4645410  33.9995100  89.7228790
  16.2429880  35.0546530  87.7295930  15.5593400  35.7245640  87.7212600
  16.7824170  35.2527180  86.9640790  17.6954020  24.8826190  85.8577660
  16.7478930  24.9165170  85.9893090  18.0204010  25.6965140  86.2427020
   8.2273560  21.1823370  84.1533650   8.5348540  20.6270260  83.4369150
   7.2974260  21.3167830  83.9706640  13.7788620  36.8990660  86.4441110
  13.7915780  36.4952950  85.5763370  13.2263840  37.6737950  86.3402540
  15.0734040  33.6206880  81.5331280  14.9630370  32.6781210  81.6580700
  15.0702290  33.9822520  82.4194040  13.1774060  31.8020500  87.7723720
  13.5942850  31.5880610  86.9377180  13.9013880  32.0593290  88.3432340
  10.6154320  29.2472200  80.8893770   9.6883600  29.1809580  81.1182240
  10.7679140  30.1852330  80.7749010  10.6023400  25.5189200  77.8860930
   9.6627070  25.6803160  77.9713390  10.9206660  26.2374880  77.3396920
  17.1236160  30.2007720  87.8639960  16.2954790  30.2700810  87.3890090
  17.7186640  30.7862030  87.3955790  14.6451610  30.8092500  81.3929020
  14.0264030  30.4712050  80.7455320  14.6276060  30.1652260  82.1008210
  14.0878170  26.9877040  88.8094830  13.6749350  27.8130750  89.0634820
  13.3554120  26.4022080  88.6171190   6.2210960  29.7736940  83.6713500
   5.8167960  29.0614190  83.1759400   6.3074080  29.4290180  84.5601540
   6.6892660  33.4604500  85.8352710   6.3920950  32.8549970  85.1560490
   7.6392480  33.4981810  85.7242070   4.9339580  26.5480150  87.4512540
   5.4854170  26.6575490  86.6765790   5.4483090  26.9217750  88.1667770
  14.7778270  37.0336370  89.4975810  14.3008830  37.8408560  89.3048420
  14.0940060  36.3814700  89.6502020   5.7811090  33.1986190  92.4860510
   4.8839620  33.4226160  92.7333910   5.8063960  33.3221130  91.5371910
  12.8216310  30.0479310  78.4001770  13.2609590  29.2101740  78.2539590
  13.5344730  30.6808710  78.4865910   4.6082310  30.0699510  91.0617880
   4.4690080  30.9422310  91.4305280   3.7263670  29.7272320  90.9165820
  10.9311690  34.9875380  82.3683010  11.3707600  35.7299710  81.9538400
  10.8698580  35.2301950  83.2921970   6.4062660  36.0121210  93.2703030
   6.3778090  36.4164160  92.4031460   6.2427630  35.0831570  93.1074630
  16.4033450  21.3022120  76.7142810  16.0906110  21.3948950  77.6141880
  17.1645920  21.8803150  76.6640240   2.9215590  28.6681920  81.1720150
   2.8013190  29.3944010  80.5601420   2.6116480  27.8984830  80.6948060
  18.3577480  36.7948310  94.5667200  18.8337200  37.2731200  95.2456280
  18.9784640  36.7265800  93.8412700   1.8048590  33.5397250  83.3894970
   1.3976670  33.6811840  82.5348570   2.6961600  33.2557410  83.1866180
  17.7610730  33.9861160  91.7267210  17.8873790  33.7473040  90.8084390
  17.8032110  33.1545700  92.1989290  11.6227470  37.6889160  90.2962020
  12.1372140  37.5997170  91.0984450  10.7796550  38.0348860  90.5889930
  13.5981870  37.9744500  79.7246020  13.4383010  37.6847440  80.6227850
  13.4328580  37.1984630  79.1891250   6.0770250  37.7543030  81.5017640
   5.9012730  36.8378570  81.2885440   5.2225990  38.1130320  81.7415440
  13.3008000  35.4832060  78.2844020  12.6073160  35.4809350  77.6246300
  14.0430860  35.0591380  77.8538190  12.8657930  37.1094770  82.3592510
  13.3214880  36.3284150  82.6731130  13.2050450  37.8201590  82.9033690
  17.6134740  26.0393620  92.6916950  16.9979010  26.5473290  92.1632410
  17.2931160  25.1391950  92.6342890   5.3879250  22.0116990  84.5543820
   4.9447400  22.7926530  84.2228340   5.9464240  22.3346880  85.2614760
   9.6749060  24.8785510  90.1579140   9.2128430  25.0868530  90.9699080
   9.2727170  24.0644860  89.8549810  14.6753570  26.0994460  91.2875800
  13.8247160  25.8000210  91.6084870  14.5155360  26.3436470  90.3759620
  11.7703280  27.5996210  93.3874590  12.0956690  26.7659960  93.0476820
  12.5583610  28.1224730  93.5352920   8.5038070  21.6327690  79.4349650
   7.8792250  21.6287560  80.1602960   8.4168190  20.7658650  79.0385620
   7.4255150  22.5564320  86.4133420   7.7227480  23.4627150  86.3325440
   7.9740710  22.0683100  85.7992990   5.1793470  27.1350560  82.2825070
   4.9534390  26.9187730  83.1871690   4.3986000  27.5679020  81.9371040
  12.4091230  27.1413930  80.8815720  11.8100120  27.8649730  80.6979340
  12.9570840  27.0790710  80.0992170   7.6192680  28.0336140  92.9485340
   7.5236280  27.0930870  92.7985740   8.4624660  28.2551210  92.5533410
  11.0156100  25.7777470  82.9119000  11.4085670  26.0949670  82.0987690
  11.3772950  24.8989350  83.0263520   2.7503220  24.4449810  91.1019120
   2.3566610  25.2925020  91.3091900   2.0621620  23.8076180  91.2927760
   9.3248270  24.5284780  94.1715860   8.6346590  24.3356980  94.8061950
  10.0680570  24.8119420  94.7040160  11.6011240  28.3683220  87.0069780
  10.8692360  28.8770030  87.3559880  11.2035580  27.5513200  86.7058560
   8.0388630  25.0437420  85.4122270   8.0424690  24.6027370  84.5626810
   8.9339750  25.3654750  85.5194090   3.8891010  24.9263910  84.3716480
   3.5491060  25.4039140  85.1283530   3.1268330  24.4729030  84.0117580
   8.1008780  26.0449500  78.4029030   8.2221600  26.0035980  79.3514850
   7.7157290  26.9073650  78.2475760  12.0637150  23.8216900  86.4192720
  12.0809890  24.2725550  87.2634570  11.8152730  22.9222540  86.6326160
   7.1130280  28.3550640  77.8012330   6.5447180  27.9068890  77.1748240
   7.8219280  28.7143420  77.2677480  15.4907900  21.2349080  92.2579100
  15.8153670  20.5038740  92.7837080  15.5264410  20.9162720  91.3560090
   2.1899460  32.2562660  91.6779060   1.8054250  31.6156330  92.2762020
   2.5011650  32.9598780  92.2473790   8.3396600  29.1039200  87.1587680
   8.7066730  28.6297770  87.9049020   8.1501660  29.9780770  87.4996020
   6.1295970  28.1447840  89.4771890   5.8253040  29.0239820  89.7022250
   7.0842430  28.2047630  89.5129330   4.6577760  32.3508830  80.0738740
   3.8840020  31.8106450  79.9137460   5.3872390  31.8315440  79.7356500
  15.4165740  31.3474190  85.8665130  16.1364860  31.8429480  85.4761240
  15.2147560  30.6692080  85.2219000  10.8775680  22.7412150  80.0094520
  10.0640290  22.2425320  79.9339830  10.6837630  23.5810400  79.5930870
  10.7984540  31.4183250  91.7534130  10.7321850  30.4978920  91.4991720
  10.1689680  31.5158690  92.4678770  13.5924070  27.1131800  78.3056680
  14.4803690  27.4249030  78.1308020  13.5629160  26.2404050  77.9137260
   4.7015160  32.0189210  83.7117550   5.2193830  31.2157470  83.6574440
   4.2499180  31.9568350  84.5534380   9.5884660  33.2855490  78.9844850
   9.9300360  34.0297720  78.4888170   8.7597370  33.5986610  79.3469680
   2.1859700  28.9850580  90.6243250   1.8274640  29.6504430  91.2116590
   1.8914260  28.1534130  90.9955870   5.3872820  29.4434820  93.5082800
   5.0872960  29.5892000  92.6110620   6.1584060  28.8840110  93.4156190
  10.7301270  34.2403820  91.5037930  10.7445810  33.3084780  91.2856840
  10.0226370  34.3263580  92.1427700  15.8638340  28.4243640  77.7736540
  15.7802060  28.8557860  76.9232980  16.5832530  28.8841990  78.2063360
  16.9412480  30.8811160  90.8506510  16.2160670  31.4739940  90.6535900
  17.4687940  30.8734700  90.0519880  16.8925590  35.2785900  80.5018670
  16.2501750  34.6241520  80.7762390  16.5056250  35.6840990  79.7259340
  12.4712070  32.6071330  84.3490360  12.8235890  32.0099460  83.6891730
  11.5874400  32.2815560  84.5198610   8.5575350  33.3669020  81.7560770
   9.2446480  33.9138230  82.1368360   7.7707770  33.9109750  81.7910380
   7.8602560  30.3715050  81.3686130   8.3165340  31.1820300  81.5946320
   7.5090770  30.0538190  82.2004620  10.1635170  35.8821390  88.5978430
  10.8077390  36.0880770  89.2751850  10.5264610  35.1209790  88.1449280
   3.7614340  20.7152700  81.8408650   3.6328970  20.7070600  82.7893570
   2.9376360  21.0535790  81.4899660  11.4367250  33.8853740  87.3155880
  12.0789480  33.1846900  87.4288050  11.9616600  34.6652180  87.1352770
  15.2822970  34.1702360  77.0395020  15.0560550  33.4532800  77.6319660
  14.8919170  33.9214800  76.2016770  13.2104870  34.6848640  90.5191940
  13.5461110  35.2715330  91.1969860  12.2905210  34.5541350  90.7489730
  14.8639220  32.0874300  78.7009180  14.5760920  32.5486990  79.4887060
  15.6591390  31.6272070  78.9693400   9.0393450  34.7339970  93.6880000
   8.7190320  34.0149210  94.2325690   8.3651810  35.4095040  93.7616060
   7.0807620  35.5800420  78.6313150   7.0717720  36.3130110  78.0157660
   6.1605980  35.3332000  78.7240110   2.6814260  30.8015310  79.3759910
   2.0742210  31.5414210  79.3855210   3.1563610  30.8914670  78.5498110
  12.2547050  24.9666130  89.0516800  12.6227870  24.1461340  89.3796370
  11.3945250  25.0268020  89.4672450  15.6209080  23.9223070  79.8604360
  14.9922240  24.0268740  79.1462590  15.1261000  24.1419850  80.6498240
  10.0667220  35.6428660  77.2938340  10.1679200  35.4392650  76.3640320
   9.1668960  35.3886940  77.4986120   7.5893110  26.2009020  81.2762240
   6.8809260  26.6695360  81.7175850   7.8737590  25.5431030  81.9107430
   9.2149040  27.6205720  89.2754770   9.7134290  28.0951540  89.9406620
   9.3571990  26.6969240  89.4824800  11.6208540  22.9259680  82.7158030
  11.4976320  22.9445810  81.7667540  12.5693100  22.9738620  82.8356430
   8.7085330  38.1614980  81.9886010   8.9626830  38.1236370  81.0665380
   7.7597810  38.0348310  81.9814260   5.7928130  24.5094100  78.6512950
   6.6418660  24.9464250  78.5853140   5.4259400  24.8214360  79.4785010
  16.4215900  23.8373680  90.1183160  15.9189500  24.5779080  90.4576970
  17.2372560  24.2257680  89.8019950  14.7137910  29.0806860  83.5644520
  13.7728050  29.0957090  83.7392210  15.0281980  28.2942820  84.0104820
   4.6919550  30.7626460  77.1248480   5.4582820  30.6507820  77.6873910
   4.7694240  30.0664430  76.4725250   3.3866310  28.1951530  77.8081370
   3.4669900  27.2479040  77.9198770   4.2786060  28.5258410  77.9142030
  16.7163490  36.2515710  85.2398780  16.8410910  37.0746880  85.7122590
  17.5829050  36.0406440  84.8922930   4.1881020  38.3446920  84.9115910
   4.9243500  37.7962380  85.1824480   4.5721940  39.2102930  84.7721900
   3.1939300  37.5292990  94.1001490   3.9952030  37.8505040  94.5136890
   2.6791120  37.1688570  94.8221400   7.2983330  37.5177230  76.7341480
   8.0911940  37.8066060  76.2823270   6.7787680  37.0869400  76.0553960
  12.0303930  33.6372860  94.0476900  11.4242090  33.6604460  93.3072650
  11.7258040  32.9055900  94.5844150  13.4604300  37.3653150  92.6586310
  14.4126050  37.2811170  92.6086550  13.3132520  38.0294860  93.3320100
  16.3513500  36.7447360  78.1578220  16.0655010  36.3312500  77.3432400
  16.1533050  37.6735070  78.0378740   7.8160730  32.7380640  76.5983830
   7.7111370  32.1232990  77.3245210   7.6484950  32.2146530  75.8146840
   7.9675050  31.4237440  92.5773060   7.2020720  31.9922440  92.4927730
   8.1491010  31.1313650  91.6841290  11.0563460  31.8000670  77.2025820
  10.5073560  32.2469970  77.8468560  11.6782720  31.2949920  77.7263490
  15.1098400  33.1542770  93.1348080  15.8507870  33.4918530  92.6315540
  14.3471080  33.3234830  92.5817850   2.9460190  28.1596040  93.9387610
   2.9865530  27.8609910  94.8472840   3.8005690  28.5603650  93.7795130
   6.7238580  30.7591590  79.0991120   7.1455000  30.5931460  79.9422510
   6.8489420  29.9491820  78.6046260   4.8866000  26.7388140  91.9062100
   4.3562460  26.2479090  91.2785440   5.5554070  27.1672340  91.3720030
   9.2366220  29.7829200  76.3468220   9.7571880  29.0678220  75.9809370
   9.8834620  30.4215070  76.6468730  13.7844060  31.2057600  91.6703290
  14.1985080  31.3602680  92.5193710  12.8495060  31.3312820  91.8329070
  14.2566230  28.5453760  93.6742440  14.8387000  27.7906080  93.5862920
  14.4328000  29.0761200  92.8973920   5.3738300  23.7050510  91.9859390
   5.2795170  23.0871260  91.2610260   4.7935690  24.4316800  91.7589300
   8.1399740  22.2623750  89.0186780   7.6917040  22.2848010  88.1732330
   7.5064940  21.8642770  89.6157080   8.5459290  31.1578080  89.6399220
   8.9647400  32.0010810  89.4675460   7.6267920  31.2950120  89.4106000
  10.8823190  28.8894260  91.0237060  11.0019400  28.2935400  91.7631900
  11.7417190  28.9263950  90.6038360  13.2211090  29.4431450  89.5999570
  12.6946310  29.9674070  88.9964710  13.5642430  30.0758840  90.2309300
   5.6197480  26.8324820  76.0449280   5.4186540  25.9692180  76.4062620
   5.4489530  26.7458180  75.1070880   6.3966710  37.4631090  90.7556950
   5.8587800  38.1877150  90.4365650   6.6500670  36.9861430  89.9654290
   7.6491960  25.4315610  92.2812880   8.2391650  25.1231460  92.9690700
   6.8312200  24.9595360  92.4372780  12.4685390  25.0481420  92.5145900
  11.7800910  24.3862960  92.4495890  13.1891410  24.6019690  92.9594360
  13.0985790  21.6433050  78.5736160  13.3788080  20.8000950  78.9295580
  12.3251520  21.8756160  79.0874910   4.4180280  23.9325440  76.0327160
   4.7206180  23.9392870  75.1246310   5.1574870  23.5823300  76.5294820
   9.2528920  38.6982300  91.0143600   9.1787620  39.6017440  91.3215970
   8.3507760  38.3794200  90.9865670   7.6365210  22.8760060  77.0183360
   7.2887210  22.1984050  76.4385810   7.8377980  22.4149570  77.8326750
   9.8014250  37.8640810  78.6369960  10.6965040  38.2025780  78.6588720
   9.8331880  37.1420220  78.0094240   3.4410410  33.2367860  76.8656960
   3.8785280  33.7797530  77.5214540   3.9258140  32.4114810  76.8753300
   5.2518130  34.3565900  81.9779190   4.9513670  34.2330870  82.8783100
   5.1455620  33.4974490  81.5694920  16.7808600  36.3944480  91.3436160
  16.1810590  36.4537040  90.6000080  16.9102500  35.4549460  91.4733010
  18.0210050  34.1362300  76.6805870  17.1903010  34.2038950  77.1513100
  18.1981880  35.0266420  76.3772730  17.4766510  30.8809780  79.1840070
  18.2385420  31.4506430  79.2899760  17.4920880  30.3136980  79.9548380
  18.4826480  31.7359880  84.0282000  18.8535310  30.9527200  83.6217970
  19.1228410  32.4248980  83.8499300  15.4660240  33.1196460  89.4412320
  14.6520080  33.5493620  89.7038110  15.8734440  33.7314870  88.8281370
  17.5285680  31.1744150  76.3412590  17.8034520  32.0823030  76.2131810
  17.3396420  31.1106680  77.2774580  13.9261290  24.1989000  77.6366220
  14.3446170  24.0119980  76.7962880  13.6197350  23.3468050  77.9469150
  17.4251020  29.1113140  81.3342020  17.0494620  28.3441070  80.9023310
  16.6954140  29.4935840  81.8216950   2.0146780  29.7900280  87.9551070
   2.3819820  29.7027680  88.8347090   1.4457600  29.0266830  87.8557930
  16.8150640  28.2584660  90.9681540  16.5836730  28.0297410  90.0679490
  17.0755190  29.1784210  90.9226430  15.2538710  23.4841090  93.7461240
  16.1308890  23.4924490  94.1295240  15.2659550  22.7471930  93.1353590
  16.7001980  27.3370630  84.6349260  17.2239460  26.8433280  84.0039430
  17.2861400  27.4720990  85.3796830  16.8791700  27.4210500  88.1568810
  15.9294410  27.3874040  88.2713800  17.0604710  28.3310610  87.9218580
   2.7336140  25.6712180  77.2667440   3.4427840  25.2495400  76.7814720
   2.0176080  25.7387410  76.6350790   2.3810300  21.7251510  76.3070090
   3.1038430  22.2660450  76.6251310   2.6534820  21.4514930  75.4311630
  16.1901950  26.5943980  80.5741670  16.6861070  26.3614850  81.3590550
  15.9918020  25.7555820  80.1579310   2.0702490  20.9757700  86.2092710
   2.7178680  20.4255080  85.7687870   2.4904330  21.2300850  87.0308520
  17.6189110  25.2304930  83.1079350  17.5088390  25.0760970  84.0461620
  18.3796700  24.7025870  82.8654760  15.9654830  21.1699060  89.5662350
  16.6027050  21.7833200  89.9321540  16.1129720  21.2059720  88.6211580
  18.5079380  23.0612850  76.3485490  19.4328690  22.9294030  76.1403780
  18.4855170  23.1405670  77.3021940  18.5817870  23.8323510  78.9742200
  17.7869370  23.7668630  79.5035110  18.7861150  24.7674150  78.9627550
  15.5236290  37.8715060  82.9680590  16.1195360  37.5499630  82.2915010
  15.7814440  37.3986880  83.7593860   1.8234490  21.1313370  88.9518030
   1.4749310  21.5877190  89.7176210   1.4922190  20.2370500  89.0340460
   3.4298860  34.3032970  93.1171220   3.3868490  33.9325880  93.9985680
   3.5609870  35.2410540  93.2573040   7.1304890  35.8592560  88.7180940
   6.8896250  36.1267120  87.8311460   8.0707530  36.0298290  88.7731800
   9.3359310  22.3225250  92.4737450   9.2748200  22.9147080  93.2232860
  10.2759690  22.2151210  92.3287710  11.9733870  21.9795310  92.1129740
  12.5874280  22.2974600  91.4510820  12.5183430  21.4943900  92.7325600
  18.3909050  37.8786940  89.5191580  17.8967330  38.2755810  88.8018710
  17.7822340  37.2536150  89.9128860   2.4955130  20.6589570  92.2268800
   3.0438120  20.4777620  91.4634910   2.5610440  19.8683680  92.7625110
   3.2686890  37.2495220  90.2369000   2.6747210  37.1179920  90.9759040
   3.2610730  36.4133360  89.7711100  12.7141910  20.5427450  88.4399030
  11.8401750  20.8762560  88.2371960  12.6052660  20.0700630  89.2650900
  13.6213890  22.7498320  89.8240750  13.2927250  21.9350080  89.4442480
  14.5696190  22.7068130  89.7006440  16.0748500  38.5210360  86.7978320
  15.6151470  39.2726170  86.4236340  15.4460960  37.8016830  86.7393120
   2.8999120  34.6153600  89.1877040   2.1733180  33.9958890  89.1202990
   2.9608270  35.0094210  88.3175120   6.5044220  36.8298600  85.9726450
   7.0209240  36.2185960  85.4474710   7.1541600  37.3327380  86.4637460
   9.2439720  37.7207090  86.7995430   9.5317530  37.4661390  85.9228440
   9.7562940  37.1684450  87.3901000  10.4616730  21.4597290  87.3791940
   9.6788520  21.9342790  87.6588700  10.1679660  20.5552120  87.2705120
  15.0137800  22.1620390  85.4241030  15.4545890  22.1065490  84.5762630
  14.7445390  23.0778400  85.4951210  16.8776370  21.7935630  83.4349850
  16.8164770  20.8496850  83.2880870  17.6568400  21.9015720  83.9803310
   1.8057140  21.7644770  79.9005660   2.5636500  21.8773650  79.3269690
   1.3434310  22.6013970  79.8549090   8.3470950  23.8784040  82.8907970
   7.5345460  23.5040930  82.5503850   8.8512590  23.1229120  83.1929160
  12.8495930  20.5426490  84.1291040  13.4525300  21.1146700  84.6039560
  12.1088920  21.1065930  83.9064940  15.9930530  20.9448050  79.4031320
  16.1881160  21.8431500  79.6698750  15.2060400  20.7135130  79.8964270
   2.7891820  36.6261220  79.8423940   2.2639440  37.0069250  79.1385900
   2.7136400  37.2511990  80.5633650   4.1782290  22.2908820  78.4407630
   4.7075050  21.5038620  78.3115580   4.8110610  22.9700010  78.6743160
   6.3720130  22.0283960  81.4953020   5.7422870  21.3271270  81.6623150
   5.8325270  22.7888090  81.2786180   9.3112080  38.6423190  94.1663630
  10.2379390  38.4067460  94.2099590   9.2962510  39.4695190  93.6849660
  17.5457140  38.1848760  81.1637880  17.7209330  37.4986500  80.5198800
  16.8478710  38.7095810  80.7714550   6.4975690  21.3067940  93.9305510
   6.2159960  21.8101540  93.1666330   6.8795390  20.5089690  93.5647640
   5.3884790  38.5743600  78.7173190   6.1203610  38.2902880  78.1697080
   5.6478460  38.3356880  79.6072570   4.5499580  34.6908330  78.7219520
   3.9208460  35.1593430  79.2705350   4.6647410  33.8457550  79.1565710
  13.0991150  20.7221520  94.5085980  12.9856600  21.0416130  95.4037500
  13.9160890  21.1234030  94.2123260  15.8789640  37.8693050  93.9904670
  16.6714960  37.3742280  93.7830630  16.1722790  38.5483190  94.5980280
  12.0049300  28.7413990  64.8720720  11.9243350  27.8268600  64.6012430
  11.5913720  29.2381060  64.1660430  10.1367340  30.5193010  66.7529990
   9.3609440  30.0393450  67.0428560  10.7880270  29.8398660  66.5786150
   4.1533170  30.8312820  67.6305750   3.3218050  30.5761530  68.0302260
   4.7614150  30.9023590  68.3663670  14.1574770  34.9253200  65.5329120
  13.6956300  34.1540440  65.8616290  14.9700320  34.9519270  66.0381570
   4.1334430  34.8652910  67.8263770   4.4362470  33.9750650  67.6473990
   4.8778020  35.4223130  67.5986020   2.5625120  25.7914710  61.4148140
   1.6741820  26.1330680  61.3128020   2.8466310  25.5915030  60.5228970
  10.3838080  37.2111210  65.1533110   9.7649520  37.6668710  64.5827550
  11.2389860  37.3662670  64.7522810   9.5776330  33.1950200  66.7600150
   9.5084610  32.2540140  66.5989280  10.3396190  33.2851610  67.3322720
   1.7683000  23.8004720  69.0856770   1.5885840  22.9030470  69.3659530
   1.3663080  24.3476590  69.7603720  10.6081500  26.0020580  66.9869080
  10.9846320  25.1292460  66.8742750  10.5101010  26.3379280  66.0959520
   4.7386510  24.3746210  62.4486520   4.8453260  25.2749940  62.7555280
   3.8278870  24.3264180  62.1581170  14.3905620  23.4971020  63.9197420
  15.2115240  23.0067590  63.9622900  14.4239700  24.0868680  64.6729260
   2.3869670  26.2965220  67.6939110   3.0679780  26.5603590  68.3126510
   2.0717720  25.4566090  68.0277120   6.5794240  27.3432580  66.7811700
   7.0872460  27.8413550  67.4216720   7.1107480  26.5667780  66.6051060
  18.6805170  25.5137770  70.4841050  17.9757340  25.9019480  69.9656160
  18.9463090  26.2088060  71.0861980   4.8630340  21.9831140  71.0475120
   4.8648780  22.5003530  70.2421020   4.0334650  21.5061320  71.0245050
  11.2501430  32.0950450  62.5465020  10.6318700  32.5599900  61.9827740
  11.7624680  32.7877930  62.9634530   6.1133190  31.6226320  69.2248620
   5.7802570  32.2495240  69.8669690   6.2899870  32.1488200  68.4450290
  14.6267100  25.4371400  66.6924960  13.9222670  25.7256290  67.2728070
  14.9879260  26.2471510  66.3324520   4.5445670  23.6941100  69.0545570
   4.8862480  24.5383150  68.7599440   3.6061480  23.8424840  69.1710910
   5.3252290  33.5907120  71.0397800   5.9426290  34.2658200  70.7582250
   4.4645410  33.9995100  70.9485300  16.2429880  35.0546530  68.9552440
  15.5593400  35.7245640  68.9469110  16.7824170  35.2527180  68.1897300
  17.6954020  24.8826190  67.0834170  16.7478930  24.9165170  67.2149600
  18.0204010  25.6965140  67.4683530   8.2273560  21.1823370  65.3790160
   8.5348540  20.6270260  64.6625660   7.2974260  21.3167830  65.1963150
  13.7788620  36.8990660  67.6697620  13.7915780  36.4952950  66.8019880
  13.2263840  37.6737950  67.5659050  15.0734040  33.6206880  62.7587790
  14.9630370  32.6781210  62.8837210  15.0702290  33.9822520  63.6450550
  13.1774060  31.8020500  68.9980230  13.5942850  31.5880610  68.1633690
  13.9013880  32.0593290  69.5688850  10.6154320  29.2472200  62.1150280
   9.6883600  29.1809580  62.3438750  10.7679140  30.1852330  62.0005520
  10.6023400  25.5189200  59.1117440   9.6627070  25.6803160  59.1969900
  10.9206660  26.2374880  58.5653430  17.1236160  30.2007720  69.0896470
  16.2954790  30.2700810  68.6146600  17.7186640  30.7862030  68.6212300
  14.6451610  30.8092500  62.6185530  14.0264030  30.4712050  61.9711830
  14.6276060  30.1652260  63.3264720  14.0878170  26.9877040  70.0351340
  13.6749350  27.8130750  70.2891330  13.3554120  26.4022080  69.8427700
   6.2210960  29.7736940  64.8970010   5.8167960  29.0614190  64.4015910
   6.3074080  29.4290180  65.7858050   6.6892660  33.4604500  67.0609220
   6.3920950  32.8549970  66.3817000   7.6392480  33.4981810  66.9498580
   4.9339580  26.5480150  68.6769050   5.4854170  26.6575490  67.9022300
   5.4483090  26.9217750  69.3924280  14.7778270  37.0336370  70.7232320
  14.3008830  37.8408560  70.5304930  14.0940060  36.3814700  70.8758530
   5.7811090  33.1986190  73.7117020   4.8839620  33.4226160  73.9590420
   5.8063960  33.3221130  72.7628420  12.8216310  30.0479310  59.6258280
  13.2609590  29.2101740  59.4796100  13.5344730  30.6808710  59.7122420
   4.6082310  30.0699510  72.2874390   4.4690080  30.9422310  72.6561790
   3.7263670  29.7272320  72.1422330  10.9311690  34.9875380  63.5939520
  11.3707600  35.7299710  63.1794910  10.8698580  35.2301950  64.5178480
   6.4062660  36.0121210  74.4959540   6.3778090  36.4164160  73.6287970
   6.2427630  35.0831570  74.3331140  16.4033450  21.3022120  57.9399320
  16.0906110  21.3948950  58.8398390  17.1645920  21.8803150  57.8896750
   2.9215590  28.6681920  62.3976660   2.8013190  29.3944010  61.7857930
   2.6116480  27.8984830  61.9204570  18.3577480  36.7948310  75.7923710
  18.8337200  37.2731200  76.4712790  18.9784640  36.7265800  75.0669210
   1.8048590  33.5397250  64.6151480   1.3976670  33.6811840  63.7605080
   2.6961600  33.2557410  64.4122690  17.7610730  33.9861160  72.9523720
  17.8873790  33.7473040  72.0340900  17.8032110  33.1545700  73.4245800
  11.6227470  37.6889160  71.5218530  12.1372140  37.5997170  72.3240960
  10.7796550  38.0348860  71.8146440  13.5981870  37.9744500  60.9502530
  13.4383010  37.6847440  61.8484360  13.4328580  37.1984630  60.4147760
   6.0770250  37.7543030  62.7274150   5.9012730  36.8378570  62.5141950
   5.2225990  38.1130320  62.9671950  13.3008000  35.4832060  59.5100530
  12.6073160  35.4809350  58.8502810  14.0430860  35.0591380  59.0794700
  12.8657930  37.1094770  63.5849020  13.3214880  36.3284150  63.8987640
  13.2050450  37.8201590  64.1290200  17.6134740  26.0393620  73.9173460
  16.9979010  26.5473290  73.3888920  17.2931160  25.1391950  73.8599400
   5.3879250  22.0116990  65.7800330   4.9447400  22.7926530  65.4484850
   5.9464240  22.3346880  66.4871270   9.6749060  24.8785510  71.3835650
   9.2128430  25.0868530  72.1955590   9.2727170  24.0644860  71.0806320
  14.6753570  26.0994460  72.5132310  13.8247160  25.8000210  72.8341380
  14.5155360  26.3436470  71.6016130  11.7703280  27.5996210  74.6131100
  12.0956690  26.7659960  74.2733330  12.5583610  28.1224730  74.7609430
   8.5038070  21.6327690  60.6606160   7.8792250  21.6287560  61.3859470
   8.4168190  20.7658650  60.2642130   7.4255150  22.5564320  67.6389930
   7.7227480  23.4627150  67.5581950   7.9740710  22.0683100  67.0249500
   5.1793470  27.1350560  63.5081580   4.9534390  26.9187730  64.4128200
   4.3986000  27.5679020  63.1627550  12.4091230  27.1413930  62.1072230
  11.8100120  27.8649730  61.9235850  12.9570840  27.0790710  61.3248680
   7.6192680  28.0336140  74.1741850   7.5236280  27.0930870  74.0242250
   8.4624660  28.2551210  73.7789920  11.0156100  25.7777470  64.1375510
  11.4085670  26.0949670  63.3244200  11.3772950  24.8989350  64.2520030
   2.7503220  24.4449810  72.3275630   2.3566610  25.2925020  72.5348410
   2.0621620  23.8076180  72.5184270   9.3248270  24.5284780  75.3972370
   8.6346590  24.3356980  76.0318460  10.0680570  24.8119420  75.9296670
  11.6011240  28.3683220  68.2326290  10.8692360  28.8770030  68.5816390
  11.2035580  27.5513200  67.9315070   8.0388630  25.0437420  66.6378780
   8.0424690  24.6027370  65.7883320   8.9339750  25.3654750  66.7450600
   3.8891010  24.9263910  65.5972990   3.5491060  25.4039140  66.3540040
   3.1268330  24.4729030  65.2374090   8.1008780  26.0449500  59.6285540
   8.2221600  26.0035980  60.5771360   7.7157290  26.9073650  59.4732270
  12.0637150  23.8216900  67.6449230  12.0809890  24.2725550  68.4891080
  11.8152730  22.9222540  67.8582670   7.1130280  28.3550640  59.0268840
   6.5447180  27.9068890  58.4004750   7.8219280  28.7143420  58.4933990
  15.4907900  21.2349080  73.4835610  15.8153670  20.5038740  74.0093590
  15.5264410  20.9162720  72.5816600   2.1899460  32.2562660  72.9035570
   1.8054250  31.6156330  73.5018530   2.5011650  32.9598780  73.4730300
   8.3396600  29.1039200  68.3844190   8.7066730  28.6297770  69.1305530
   8.1501660  29.9780770  68.7252530   6.1295970  28.1447840  70.7028400
   5.8253040  29.0239820  70.9278760   7.0842430  28.2047630  70.7385840
   4.6577760  32.3508830  61.2995250   3.8840020  31.8106450  61.1393970
   5.3872390  31.8315440  60.9613010  15.4165740  31.3474190  67.0921640
  16.1364860  31.8429480  66.7017750  15.2147560  30.6692080  66.4475510
  10.8775680  22.7412150  61.2351030  10.0640290  22.2425320  61.1596340
  10.6837630  23.5810400  60.8187380  10.7984540  31.4183250  72.9790640
  10.7321850  30.4978920  72.7248230  10.1689680  31.5158690  73.6935280
  13.5924070  27.1131800  59.5313190  14.4803690  27.4249030  59.3564530
  13.5629160  26.2404050  59.1393770   4.7015160  32.0189210  64.9374060
   5.2193830  31.2157470  64.8830950   4.2499180  31.9568350  65.7790890
   9.5884660  33.2855490  60.2101360   9.9300360  34.0297720  59.7144680
   8.7597370  33.5986610  60.5726190   2.1859700  28.9850580  71.8499760
   1.8274640  29.6504430  72.4373100   1.8914260  28.1534130  72.2212380
   5.3872820  29.4434820  74.7339310   5.0872960  29.5892000  73.8367130
   6.1584060  28.8840110  74.6412700  10.7301270  34.2403820  72.7294440
  10.7445810  33.3084780  72.5113350  10.0226370  34.3263580  73.3684210
  15.8638340  28.4243640  58.9993050  15.7802060  28.8557860  58.1489490
  16.5832530  28.8841990  59.4319870  16.9412480  30.8811160  72.0763020
  16.2160670  31.4739940  71.8792410  17.4687940  30.8734700  71.2776390
  16.8925590  35.2785900  61.7275180  16.2501750  34.6241520  62.0018900
  16.5056250  35.6840990  60.9515850  12.4712070  32.6071330  65.5746870
  12.8235890  32.0099460  64.9148240  11.5874400  32.2815560  65.7455120
   8.5575350  33.3669020  62.9817280   9.2446480  33.9138230  63.3624870
   7.7707770  33.9109750  63.0166890   7.8602560  30.3715050  62.5942640
   8.3165340  31.1820300  62.8202830   7.5090770  30.0538190  63.4261130
  10.1635170  35.8821390  69.8234940  10.8077390  36.0880770  70.5008360
  10.5264610  35.1209790  69.3705790   3.7614340  20.7152700  63.0665160
   3.6328970  20.7070600  64.0150080   2.9376360  21.0535790  62.7156170
  11.4367250  33.8853740  68.5412390  12.0789480  33.1846900  68.6544560
  11.9616600  34.6652180  68.3609280  15.2822970  34.1702360  58.2651530
  15.0560550  33.4532800  58.8576170  14.8919170  33.9214800  57.4273280
  13.2104870  34.6848640  71.7448450  13.5461110  35.2715330  72.4226370
  12.2905210  34.5541350  71.9746240  14.8639220  32.0874300  59.9265690
  14.5760920  32.5486990  60.7143570  15.6591390  31.6272070  60.1949910
   9.0393450  34.7339970  74.9136510   8.7190320  34.0149210  75.4582200
   8.3651810  35.4095040  74.9872570   7.0807620  35.5800420  59.8569660
   7.0717720  36.3130110  59.2414170   6.1605980  35.3332000  59.9496620
   2.6814260  30.8015310  60.6016420   2.0742210  31.5414210  60.6111720
   3.1563610  30.8914670  59.7754620  12.2547050  24.9666130  70.2773310
  12.6227870  24.1461340  70.6052880  11.3945250  25.0268020  70.6928960
  15.6209080  23.9223070  61.0860870  14.9922240  24.0268740  60.3719100
  15.1261000  24.1419850  61.8754750  10.0667220  35.6428660  58.5194850
  10.1679200  35.4392650  57.5896830   9.1668960  35.3886940  58.7242630
   7.5893110  26.2009020  62.5018750   6.8809260  26.6695360  62.9432360
   7.8737590  25.5431030  63.1363940   9.2149040  27.6205720  70.5011280
   9.7134290  28.0951540  71.1663130   9.3571990  26.6969240  70.7081310
  11.6208540  22.9259680  63.9414540  11.4976320  22.9445810  62.9924050
  12.5693100  22.9738620  64.0612940   8.7085330  38.1614980  63.2142520
   8.9626830  38.1236370  62.2921890   7.7597810  38.0348310  63.2070770
   5.7928130  24.5094100  59.8769460   6.6418660  24.9464250  59.8109650
   5.4259400  24.8214360  60.7041520  16.4215900  23.8373680  71.3439670
  15.9189500  24.5779080  71.6833480  17.2372560  24.2257680  71.0276460
  14.7137910  29.0806860  64.7901030  13.7728050  29.0957090  64.9648720
  15.0281980  28.2942820  65.2361330   4.6919550  30.7626460  58.3504990
   5.4582820  30.6507820  58.9130420   4.7694240  30.0664430  57.6981760
   3.3866310  28.1951530  59.0337880   3.4669900  27.2479040  59.1455280
   4.2786060  28.5258410  59.1398540  16.7163490  36.2515710  66.4655290
  16.8410910  37.0746880  66.9379100  17.5829050  36.0406440  66.1179440
   4.1881020  38.3446920  66.1372420   4.9243500  37.7962380  66.4080990
   4.5721940  39.2102930  65.9978410   3.1939300  37.5292990  75.3258000
   3.9952030  37.8505040  75.7393400   2.6791120  37.1688570  76.0477910
   7.2983330  37.5177230  57.9597990   8.0911940  37.8066060  57.5079780
   6.7787680  37.0869400  57.2810470  12.0303930  33.6372860  75.2733410
  11.4242090  33.6604460  74.5329160  11.7258040  32.9055900  75.8100660
  13.4604300  37.3653150  73.8842820  14.4126050  37.2811170  73.8343060
  13.3132520  38.0294860  74.5576610  16.3513500  36.7447360  59.3834730
  16.0655010  36.3312500  58.5688910  16.1533050  37.6735070  59.2635250
   7.8160730  32.7380640  57.8240340   7.7111370  32.1232990  58.5501720
   7.6484950  32.2146530  57.0403350   7.9675050  31.4237440  73.8029570
   7.2020720  31.9922440  73.7184240   8.1491010  31.1313650  72.9097800
  11.0563460  31.8000670  58.4282330  10.5073560  32.2469970  59.0725070
  11.6782720  31.2949920  58.9520000  15.1098400  33.1542770  74.3604590
  15.8507870  33.4918530  73.8572050  14.3471080  33.3234830  73.8074360
   2.9460190  28.1596040  75.1644120   2.9865530  27.8609910  76.0729350
   3.8005690  28.5603650  75.0051640   6.7238580  30.7591590  60.3247630
   7.1455000  30.5931460  61.1679020   6.8489420  29.9491820  59.8302770
   4.8866000  26.7388140  73.1318610   4.3562460  26.2479090  72.5041950
   5.5554070  27.1672340  72.5976540   9.2366220  29.7829200  57.5724730
   9.7571880  29.0678220  57.2065880   9.8834620  30.4215070  57.8725240
  13.7844060  31.2057600  72.8959800  14.1985080  31.3602680  73.7450220
  12.8495060  31.3312820  73.0585580  14.2566230  28.5453760  74.8998950
  14.8387000  27.7906080  74.8119430  14.4328000  29.0761200  74.1230430
   5.3738300  23.7050510  73.2115900   5.2795170  23.0871260  72.4866770
   4.7935690  24.4316800  72.9845810   8.1399740  22.2623750  70.2443290
   7.6917040  22.2848010  69.3988840   7.5064940  21.8642770  70.8413590
   8.5459290  31.1578080  70.8655730   8.9647400  32.0010810  70.6931970
   7.6267920  31.2950120  70.6362510  10.8823190  28.8894260  72.2493570
  11.0019400  28.2935400  72.9888410  11.7417190  28.9263950  71.8294870
  13.2211090  29.4431450  70.8256080  12.6946310  29.9674070  70.2221220
  13.5642430  30.0758840  71.4565810   5.6197480  26.8324820  57.2705790
   5.4186540  25.9692180  57.6319130   5.4489530  26.7458180  56.3327390
   6.3966710  37.4631090  71.9813460   5.8587800  38.1877150  71.6622160
   6.6500670  36.9861430  71.1910800   7.6491960  25.4315610  73.5069390
   8.2391650  25.1231460  74.1947210   6.8312200  24.9595360  73.6629290
  12.4685390  25.0481420  73.7402410  11.7800910  24.3862960  73.6752400
  13.1891410  24.6019690  74.1850870  13.0985790  21.6433050  59.7992670
  13.3788080  20.8000950  60.1552090  12.3251520  21.8756160  60.3131420
   4.4180280  23.9325440  57.2583670   4.7206180  23.9392870  56.3502820
   5.1574870  23.5823300  57.7551330   9.2528920  38.6982300  72.2400110
   9.1787620  39.6017440  72.5472480   8.3507760  38.3794200  72.2122180
   7.6365210  22.8760060  58.2439870   7.2887210  22.1984050  57.6642320
   7.8377980  22.4149570  59.0583260   9.8014250  37.8640810  59.8626470
  10.6965040  38.2025780  59.8845230   9.8331880  37.1420220  59.2350750
   3.4410410  33.2367860  58.0913470   3.8785280  33.7797530  58.7471050
   3.9258140  32.4114810  58.1009810   5.2518130  34.3565900  63.2035700
   4.9513670  34.2330870  64.1039610   5.1455620  33.4974490  62.7951430
  16.7808600  36.3944480  72.5692670  16.1810590  36.4537040  71.8256590
  16.9102500  35.4549460  72.6989520  18.0210050  34.1362300  57.9062380
  17.1903010  34.2038950  58.3769610  18.1981880  35.0266420  57.6029240
  17.4766510  30.8809780  60.4096580  18.2385420  31.4506430  60.5156270
  17.4920880  30.3136980  61.1804890  18.4826480  31.7359880  65.2538510
  18.8535310  30.9527200  64.8474480  19.1228410  32.4248980  65.0755810
  15.4660240  33.1196460  70.6668830  14.6520080  33.5493620  70.9294620
  15.8734440  33.7314870  70.0537880  17.5285680  31.1744150  57.5669100
  17.8034520  32.0823030  57.4388320  17.3396420  31.1106680  58.5031090
  13.9261290  24.1989000  58.8622730  14.3446170  24.0119980  58.0219390
  13.6197350  23.3468050  59.1725660  17.4251020  29.1113140  62.5598530
  17.0494620  28.3441070  62.1279820  16.6954140  29.4935840  63.0473460
   2.0146780  29.7900280  69.1807580   2.3819820  29.7027680  70.0603600
   1.4457600  29.0266830  69.0814440  16.8150640  28.2584660  72.1938050
  16.5836730  28.0297410  71.2936000  17.0755190  29.1784210  72.1482940
  15.2538710  23.4841090  74.9717750  16.1308890  23.4924490  75.3551750
  15.2659550  22.7471930  74.3610100  16.7001980  27.3370630  65.8605770
  17.2239460  26.8433280  65.2295940  17.2861400  27.4720990  66.6053340
  16.8791700  27.4210500  69.3825320  15.9294410  27.3874040  69.4970310
  17.0604710  28.3310610  69.1475090   2.7336140  25.6712180  58.4923950
   3.4427840  25.2495400  58.0071230   2.0176080  25.7387410  57.8607300
   2.3810300  21.7251510  57.5326600   3.1038430  22.2660450  57.8507820
   2.6534820  21.4514930  56.6568140  16.1901950  26.5943980  61.7998180
  16.6861070  26.3614850  62.5847060  15.9918020  25.7555820  61.3835820
   2.0702490  20.9757700  67.4349220   2.7178680  20.4255080  66.9944380
   2.4904330  21.2300850  68.2565030  17.6189110  25.2304930  64.3335860
  17.5088390  25.0760970  65.2718130  18.3796700  24.7025870  64.0911270
  15.9654830  21.1699060  70.7918860  16.6027050  21.7833200  71.1578050
  16.1129720  21.2059720  69.8468090  18.5079380  23.0612850  57.5742000
  19.4328690  22.9294030  57.3660290  18.4855170  23.1405670  58.5278450
  18.5817870  23.8323510  60.1998710  17.7869370  23.7668630  60.7291620
  18.7861150  24.7674150  60.1884060  15.5236290  37.8715060  64.1937100
  16.1195360  37.5499630  63.5171520  15.7814440  37.3986880  64.9850370
   1.8234490  21.1313370  70.1774540   1.4749310  21.5877190  70.9432720
   1.4922190  20.2370500  70.2596970   3.4298860  34.3032970  74.3427730
   3.3868490  33.9325880  75.2242190   3.5609870  35.2410540  74.4829550
   7.1304890  35.8592560  69.9437450   6.8896250  36.1267120  69.0567970
   8.0707530  36.0298290  69.9988310   9.3359310  22.3225250  73.6993960
   9.2748200  22.9147080  74.4489370  10.2759690  22.2151210  73.5544220
  11.9733870  21.9795310  73.3386250  12.5874280  22.2974600  72.6767330
  12.5183430  21.4943900  73.9582110  18.3909050  37.8786940  70.7448090
  17.8967330  38.2755810  70.0275220  17.7822340  37.2536150  71.1385370
   2.4955130  20.6589570  73.4525310   3.0438120  20.4777620  72.6891420
   2.5610440  19.8683680  73.9881620   3.2686890  37.2495220  71.4625510
   2.6747210  37.1179920  72.2015550   3.2610730  36.4133360  70.9967610
  12.7141910  20.5427450  69.6655540  11.8401750  20.8762560  69.4628470
  12.6052660  20.0700630  70.4907410  13.6213890  22.7498320  71.0497260
  13.2927250  21.9350080  70.6698990  14.5696190  22.7068130  70.9262950
  16.0748500  38.5210360  68.0234830  15.6151470  39.2726170  67.6492850
  15.4460960  37.8016830  67.9649630   2.8999120  34.6153600  70.4133550
   2.1733180  33.9958890  70.3459500   2.9608270  35.0094210  69.5431630
   6.5044220  36.8298600  67.1982960   7.0209240  36.2185960  66.6731220
   7.1541600  37.3327380  67.6893970   9.2439720  37.7207090  68.0251940
   9.5317530  37.4661390  67.1484950   9.7562940  37.1684450  68.6157510
  10.4616730  21.4597290  68.6048450   9.6788520  21.9342790  68.8845210
  10.1679660  20.5552120  68.4961630  15.0137800  22.1620390  66.6497540
  15.4545890  22.1065490  65.8019140  14.7445390  23.0778400  66.7207720
  16.8776370  21.7935630  64.6606360  16.8164770  20.8496850  64.5137380
  17.6568400  21.9015720  65.2059820   1.8057140  21.7644770  61.1262170
   2.5636500  21.8773650  60.5526200   1.3434310  22.6013970  61.0805600
   8.3470950  23.8784040  64.1164480   7.5345460  23.5040930  63.7760360
   8.8512590  23.1229120  64.4185670  12.8495930  20.5426490  65.3547550
  13.4525300  21.1146700  65.8296070  12.1088920  21.1065930  65.1321450
  15.9930530  20.9448050  60.6287830  16.1881160  21.8431500  60.8955260
  15.2060400  20.7135130  61.1220780   2.7891820  36.6261220  61.0680450
   2.2639440  37.0069250  60.3642410   2.7136400  37.2511990  61.7890160
   4.1782290  22.2908820  59.6664140   4.7075050  21.5038620  59.5372090
   4.8110610  22.9700010  59.8999670   6.3720130  22.0283960  62.7209530
   5.7422870  21.3271270  62.8879660   5.8325270  22.7888090  62.5042690
   9.3112080  38.6423190  75.3920140  10.2379390  38.4067460  75.4356100
   9.2962510  39.4695190  74.9106170  17.5457140  38.1848760  62.3894390
  17.7209330  37.4986500  61.7455310  16.8478710  38.7095810  61.9971060
   6.4975690  21.3067940  75.1562020   6.2159960  21.8101540  74.3922840
   6.8795390  20.5089690  74.7904150   5.3884790  38.5743600  59.9429700
   6.1203610  38.2902880  59.3953590   5.6478460  38.3356880  60.8329080
   4.5499580  34.6908330  59.9476030   3.9208460  35.1593430  60.4961860
   4.6647410  33.8457550  60.3822220  13.0991150  20.7221520  75.7342490
  12.9856600  21.0416130  76.6294010  13.9160890  21.1234030  75.4379770
  15.8789640  37.8693050  75.2161180  16.6714960  37.3742280  75.0087140
  16.1722790  38.5483190  75.8236790  12.0049300  28.7413990  46.0977230
  11.9243350  27.8268600  45.8268940  11.5913720  29.2381060  45.3916940
  10.1367340  30.5193010  47.9786500   9.3609440  30.0393450  48.2685070
  10.7880270  29.8398660  47.8042660   4.1533170  30.8312820  48.8562260
   3.3218050  30.5761530  49.2558770   4.7614150  30.9023590  49.5920180
  14.1574770  34.9253200  46.7585630  13.6956300  34.1540440  47.0872800
  14.9700320  34.9519270  47.2638080   4.1334430  34.8652910  49.0520280
   4.4362470  33.9750650  48.8730500   4.8778020  35.4223130  48.8242530
   2.5625120  25.7914710  42.6404650   1.6741820  26.1330680  42.5384530
   2.8466310  25.5915030  41.7485480  10.3838080  37.2111210  46.3789620
   9.7649520  37.6668710  45.8084060  11.2389860  37.3662670  45.9779320
   9.5776330  33.1950200  47.9856660   9.5084610  32.2540140  47.8245790
  10.3396190  33.2851610  48.5579230   1.7683000  23.8004720  50.3113280
   1.5885840  22.9030470  50.5916040   1.3663080  24.3476590  50.9860230
  10.6081500  26.0020580  48.2125590  10.9846320  25.1292460  48.0999260
  10.5101010  26.3379280  47.3216030   4.7386510  24.3746210  43.6743030
   4.8453260  25.2749940  43.9811790   3.8278870  24.3264180  43.3837680
  14.3905620  23.4971020  45.1453930  15.2115240  23.0067590  45.1879410
  14.4239700  24.0868680  45.8985770   2.3869670  26.2965220  48.9195620
   3.0679780  26.5603590  49.5383020   2.0717720  25.4566090  49.2533630
   6.5794240  27.3432580  48.0068210   7.0872460  27.8413550  48.6473230
   7.1107480  26.5667780  47.8307570  18.6805170  25.5137770  51.7097560
  17.9757340  25.9019480  51.1912670  18.9463090  26.2088060  52.3118490
   4.8630340  21.9831140  52.2731630   4.8648780  22.5003530  51.4677530
   4.0334650  21.5061320  52.2501560  11.2501430  32.0950450  43.7721530
  10.6318700  32.5599900  43.2084250  11.7624680  32.7877930  44.1891040
   6.1133190  31.6226320  50.4505130   5.7802570  32.2495240  51.0926200
   6.2899870  32.1488200  49.6706800  14.6267100  25.4371400  47.9181470
  13.9222670  25.7256290  48.4984580  14.9879260  26.2471510  47.5581030
   4.5445670  23.6941100  50.2802080   4.8862480  24.5383150  49.9855950
   3.6061480  23.8424840  50.3967420   5.3252290  33.5907120  52.2654310
   5.9426290  34.2658200  51.9838760   4.4645410  33.9995100  52.1741810
  16.2429880  35.0546530  50.1808950  15.5593400  35.7245640  50.1725620
  16.7824170  35.2527180  49.4153810  17.6954020  24.8826190  48.3090680
  16.7478930  24.9165170  48.4406110  18.0204010  25.6965140  48.6940040
   8.2273560  21.1823370  46.6046670   8.5348540  20.6270260  45.8882170
   7.2974260  21.3167830  46.4219660  13.7788620  36.8990660  48.8954130
  13.7915780  36.4952950  48.0276390  13.2263840  37.6737950  48.7915560
  15.0734040  33.6206880  43.9844300  14.9630370  32.6781210  44.1093720
  15.0702290  33.9822520  44.8707060  13.1774060  31.8020500  50.2236740
  13.5942850  31.5880610  49.3890200  13.9013880  32.0593290  50.7945360
  10.6154320  29.2472200  43.3406790   9.6883600  29.1809580  43.5695260
  10.7679140  30.1852330  43.2262030  10.6023400  25.5189200  40.3373950
   9.6627070  25.6803160  40.4226410  10.9206660  26.2374880  39.7909940
  17.1236160  30.2007720  50.3152980  16.2954790  30.2700810  49.8403110
  17.7186640  30.7862030  49.8468810  14.6451610  30.8092500  43.8442040
  14.0264030  30.4712050  43.1968340  14.6276060  30.1652260  44.5521230
  14.0878170  26.9877040  51.2607850  13.6749350  27.8130750  51.5147840
  13.3554120  26.4022080  51.0684210   6.2210960  29.7736940  46.1226520
   5.8167960  29.0614190  45.6272420   6.3074080  29.4290180  47.0114560
   6.6892660  33.4604500  48.2865730   6.3920950  32.8549970  47.6073510
   7.6392480  33.4981810  48.1755090   4.9339580  26.5480150  49.9025560
   5.4854170  26.6575490  49.1278810   5.4483090  26.9217750  50.6180790
  14.7778270  37.0336370  51.9488830  14.3008830  37.8408560  51.7561440
  14.0940060  36.3814700  52.1015040   5.7811090  33.1986190  54.9373530
   4.8839620  33.4226160  55.1846930   5.8063960  33.3221130  53.9884930
  12.8216310  30.0479310  40.8514790  13.2609590  29.2101740  40.7052610
  13.5344730  30.6808710  40.9378930   4.6082310  30.0699510  53.5130900
   4.4690080  30.9422310  53.8818300   3.7263670  29.7272320  53.3678840
  10.9311690  34.9875380  44.8196030  11.3707600  35.7299710  44.4051420
  10.8698580  35.2301950  45.7434990   6.4062660  36.0121210  55.7216050
   6.3778090  36.4164160  54.8544480   6.2427630  35.0831570  55.5587650
  16.4033450  21.3022120  39.1655830  16.0906110  21.3948950  40.0654900
  17.1645920  21.8803150  39.1153260   2.9215590  28.6681920  43.6233170
   2.8013190  29.3944010  43.0114440   2.6116480  27.8984830  43.1461080
  18.3577480  36.7948310  57.0180220  18.8337200  37.2731200  57.6969300
  18.9784640  36.7265800  56.2925720   1.8048590  33.5397250  45.8407990
   1.3976670  33.6811840  44.9861590   2.6961600  33.2557410  45.6379200
  17.7610730  33.9861160  54.1780230  17.8873790  33.7473040  53.2597410
  17.8032110  33.1545700  54.6502310  11.6227470  37.6889160  52.7475040
  12.1372140  37.5997170  53.5497470  10.7796550  38.0348860  53.0402950
  13.5981870  37.9744500  42.1759040  13.4383010  37.6847440  43.0740870
  13.4328580  37.1984630  41.6404270   6.0770250  37.7543030  43.9530660
   5.9012730  36.8378570  43.7398460   5.2225990  38.1130320  44.1928460
  13.3008000  35.4832060  40.7357040  12.6073160  35.4809350  40.0759320
  14.0430860  35.0591380  40.3051210  12.8657930  37.1094770  44.8105530
  13.3214880  36.3284150  45.1244150  13.2050450  37.8201590  45.3546710
  17.6134740  26.0393620  55.1429970  16.9979010  26.5473290  54.6145430
  17.2931160  25.1391950  55.0855910   5.3879250  22.0116990  47.0056840
   4.9447400  22.7926530  46.6741360   5.9464240  22.3346880  47.7127780
   9.6749060  24.8785510  52.6092160   9.2128430  25.0868530  53.4212100
   9.2727170  24.0644860  52.3062830  14.6753570  26.0994460  53.7388820
  13.8247160  25.8000210  54.0597890  14.5155360  26.3436470  52.8272640
  11.7703280  27.5996210  55.8387610  12.0956690  26.7659960  55.4989840
  12.5583610  28.1224730  55.9865940   8.5038070  21.6327690  41.8862670
   7.8792250  21.6287560  42.6115980   8.4168190  20.7658650  41.4898640
   7.4255150  22.5564320  48.8646440   7.7227480  23.4627150  48.7838460
   7.9740710  22.0683100  48.2506010   5.1793470  27.1350560  44.7338090
   4.9534390  26.9187730  45.6384710   4.3986000  27.5679020  44.3884060
  12.4091230  27.1413930  43.3328740  11.8100120  27.8649730  43.1492360
  12.9570840  27.0790710  42.5505190   7.6192680  28.0336140  55.3998360
   7.5236280  27.0930870  55.2498760   8.4624660  28.2551210  55.0046430
  11.0156100  25.7777470  45.3632020  11.4085670  26.0949670  44.5500710
  11.3772950  24.8989350  45.4776540   2.7503220  24.4449810  53.5532140
   2.3566610  25.2925020  53.7604920   2.0621620  23.8076180  53.7440780
   9.3248270  24.5284780  56.6228880   8.6346590  24.3356980  57.2574970
  10.0680570  24.8119420  57.1553180  11.6011240  28.3683220  49.4582800
  10.8692360  28.8770030  49.8072900  11.2035580  27.5513200  49.1571580
   8.0388630  25.0437420  47.8635290   8.0424690  24.6027370  47.0139830
   8.9339750  25.3654750  47.9707110   3.8891010  24.9263910  46.8229500
   3.5491060  25.4039140  47.5796550   3.1268330  24.4729030  46.4630600
   8.1008780  26.0449500  40.8542050   8.2221600  26.0035980  41.8027870
   7.7157290  26.9073650  40.6988780  12.0637150  23.8216900  48.8705740
  12.0809890  24.2725550  49.7147590  11.8152730  22.9222540  49.0839180
   7.1130280  28.3550640  40.2525350   6.5447180  27.9068890  39.6261260
   7.8219280  28.7143420  39.7190500  15.4907900  21.2349080  54.7092120
  15.8153670  20.5038740  55.2350100  15.5264410  20.9162720  53.8073110
   2.1899460  32.2562660  54.1292080   1.8054250  31.6156330  54.7275040
   2.5011650  32.9598780  54.6986810   8.3396600  29.1039200  49.6100700
   8.7066730  28.6297770  50.3562040   8.1501660  29.9780770  49.9509040
   6.1295970  28.1447840  51.9284910   5.8253040  29.0239820  52.1535270
   7.0842430  28.2047630  51.9642350   4.6577760  32.3508830  42.5251760
   3.8840020  31.8106450  42.3650480   5.3872390  31.8315440  42.1869520
  15.4165740  31.3474190  48.3178150  16.1364860  31.8429480  47.9274260
  15.2147560  30.6692080  47.6732020  10.8775680  22.7412150  42.4607540
  10.0640290  22.2425320  42.3852850  10.6837630  23.5810400  42.0443890
  10.7984540  31.4183250  54.2047150  10.7321850  30.4978920  53.9504740
  10.1689680  31.5158690  54.9191790  13.5924070  27.1131800  40.7569700
  14.4803690  27.4249030  40.5821040  13.5629160  26.2404050  40.3650280
   4.7015160  32.0189210  46.1630570   5.2193830  31.2157470  46.1087460
   4.2499180  31.9568350  47.0047400   9.5884660  33.2855490  41.4357870
   9.9300360  34.0297720  40.9401190   8.7597370  33.5986610  41.7982700
   2.1859700  28.9850580  53.0756270   1.8274640  29.6504430  53.6629610
   1.8914260  28.1534130  53.4468890   5.3872820  29.4434820  55.9595820
   5.0872960  29.5892000  55.0623640   6.1584060  28.8840110  55.8669210
  10.7301270  34.2403820  53.9550950  10.7445810  33.3084780  53.7369860
  10.0226370  34.3263580  54.5940720  15.8638340  28.4243640  40.2249560
  15.7802060  28.8557860  39.3746000  16.5832530  28.8841990  40.6576380
  16.9412480  30.8811160  53.3019530  16.2160670  31.4739940  53.1048920
  17.4687940  30.8734700  52.5032900  16.8925590  35.2785900  42.9531690
  16.2501750  34.6241520  43.2275410  16.5056250  35.6840990  42.1772360
  12.4712070  32.6071330  46.8003380  12.8235890  32.0099460  46.1404750
  11.5874400  32.2815560  46.9711630   8.5575350  33.3669020  44.2073790
   9.2446480  33.9138230  44.5881380   7.7707770  33.9109750  44.2423400
   7.8602560  30.3715050  43.8199150   8.3165340  31.1820300  44.0459340
   7.5090770  30.0538190  44.6517640  10.1635170  35.8821390  51.0491450
  10.8077390  36.0880770  51.7264870  10.5264610  35.1209790  50.5962300
   3.7614340  20.7152700  44.2921670   3.6328970  20.7070600  45.2406590
   2.9376360  21.0535790  43.9412680  11.4367250  33.8853740  49.7668900
  12.0789480  33.1846900  49.8801070  11.9616600  34.6652180  49.5865790
  15.2822970  34.1702360  39.4908040  15.0560550  33.4532800  40.0832680
  14.8919170  33.9214800  38.6529790  13.2104870  34.6848640  52.9704960
  13.5461110  35.2715330  53.6482880  12.2905210  34.5541350  53.2002750
  14.8639220  32.0874300  41.1522200  14.5760920  32.5486990  41.9400080
  15.6591390  31.6272070  41.4206420   9.0393450  34.7339970  56.1393020
   8.7190320  34.0149210  56.6838710   8.3651810  35.4095040  56.2129080
   7.0807620  35.5800420  41.0826170   7.0717720  36.3130110  40.4670680
   6.1605980  35.3332000  41.1753130   2.6814260  30.8015310  41.8272930
   2.0742210  31.5414210  41.8368230   3.1563610  30.8914670  41.0011130
  12.2547050  24.9666130  51.5029820  12.6227870  24.1461340  51.8309390
  11.3945250  25.0268020  51.9185470  15.6209080  23.9223070  42.3117380
  14.9922240  24.0268740  41.5975610  15.1261000  24.1419850  43.1011260
  10.0667220  35.6428660  39.7451360  10.1679200  35.4392650  38.8153340
   9.1668960  35.3886940  39.9499140   7.5893110  26.2009020  43.7275260
   6.8809260  26.6695360  44.1688870   7.8737590  25.5431030  44.3620450
   9.2149040  27.6205720  51.7267790   9.7134290  28.0951540  52.3919640
   9.3571990  26.6969240  51.9337820  11.6208540  22.9259680  45.1671050
  11.4976320  22.9445810  44.2180560  12.5693100  22.9738620  45.2869450
   8.7085330  38.1614980  44.4399030   8.9626830  38.1236370  43.5178400
   7.7597810  38.0348310  44.4327280   5.7928130  24.5094100  41.1025970
   6.6418660  24.9464250  41.0366160   5.4259400  24.8214360  41.9298030
  16.4215900  23.8373680  52.5696180  15.9189500  24.5779080  52.9089990
  17.2372560  24.2257680  52.2532970  14.7137910  29.0806860  46.0157540
  13.7728050  29.0957090  46.1905230  15.0281980  28.2942820  46.4617840
   4.6919550  30.7626460  39.5761500   5.4582820  30.6507820  40.1386930
   4.7694240  30.0664430  38.9238270   3.3866310  28.1951530  40.2594390
   3.4669900  27.2479040  40.3711790   4.2786060  28.5258410  40.3655050
  16.7163490  36.2515710  47.6911800  16.8410910  37.0746880  48.1635610
  17.5829050  36.0406440  47.3435950   4.1881020  38.3446920  47.3628930
   4.9243500  37.7962380  47.6337500   4.5721940  39.2102930  47.2234920
   3.1939300  37.5292990  56.5514510   3.9952030  37.8505040  56.9649910
   2.6791120  37.1688570  57.2734420   7.2983330  37.5177230  39.1854500
   8.0911940  37.8066060  38.7336290   6.7787680  37.0869400  38.5066980
  12.0303930  33.6372860  56.4989920  11.4242090  33.6604460  55.7585670
  11.7258040  32.9055900  57.0357170  13.4604300  37.3653150  55.1099330
  14.4126050  37.2811170  55.0599570  13.3132520  38.0294860  55.7833120
  16.3513500  36.7447360  40.6091240  16.0655010  36.3312500  39.7945420
  16.1533050  37.6735070  40.4891760   7.8160730  32.7380640  39.0496850
   7.7111370  32.1232990  39.7758230   7.6484950  32.2146530  38.2659860
   7.9675050  31.4237440  55.0286080   7.2020720  31.9922440  54.9440750
   8.1491010  31.1313650  54.1354310  11.0563460  31.8000670  39.6538840
  10.5073560  32.2469970  40.2981580  11.6782720  31.2949920  40.1776510
  15.1098400  33.1542770  55.5861100  15.8507870  33.4918530  55.0828560
  14.3471080  33.3234830  55.0330870   2.9460190  28.1596040  56.3900630
   2.9865530  27.8609910  57.2985860   3.8005690  28.5603650  56.2308150
   6.7238580  30.7591590  41.5504140   7.1455000  30.5931460  42.3935530
   6.8489420  29.9491820  41.0559280   4.8866000  26.7388140  54.3575120
   4.3562460  26.2479090  53.7298460   5.5554070  27.1672340  53.8233050
   9.2366220  29.7829200  38.7981240   9.7571880  29.0678220  38.4322390
   9.8834620  30.4215070  39.0981750  13.7844060  31.2057600  54.1216310
  14.1985080  31.3602680  54.9706730  12.8495060  31.3312820  54.2842090
  14.2566230  28.5453760  56.1255460  14.8387000  27.7906080  56.0375940
  14.4328000  29.0761200  55.3486940   5.3738300  23.7050510  54.4372410
   5.2795170  23.0871260  53.7123280   4.7935690  24.4316800  54.2102320
   8.1399740  22.2623750  51.4699800   7.6917040  22.2848010  50.6245350
   7.5064940  21.8642770  52.0670100   8.5459290  31.1578080  52.0912240
   8.9647400  32.0010810  51.9188480   7.6267920  31.2950120  51.8619020
  10.8823190  28.8894260  53.4750080  11.0019400  28.2935400  54.2144920
  11.7417190  28.9263950  53.0551380  13.2211090  29.4431450  52.0512590
  12.6946310  29.9674070  51.4477730  13.5642430  30.0758840  52.6822320
   5.6197480  26.8324820  38.4962300   5.4186540  25.9692180  38.8575640
   5.4489530  26.7458180  37.5583900   6.3966710  37.4631090  53.2069970
   5.8587800  38.1877150  52.8878670   6.6500670  36.9861430  52.4167310
   7.6491960  25.4315610  54.7325900   8.2391650  25.1231460  55.4203720
   6.8312200  24.9595360  54.8885800  12.4685390  25.0481420  54.9658920
  11.7800910  24.3862960  54.9008910  13.1891410  24.6019690  55.4107380
  13.0985790  21.6433050  41.0249180  13.3788080  20.8000950  41.3808600
  12.3251520  21.8756160  41.5387930   4.4180280  23.9325440  38.4840180
   4.7206180  23.9392870  37.5759330   5.1574870  23.5823300  38.9807840
   9.2528920  38.6982300  53.4656620   9.1787620  39.6017440  53.7728990
   8.3507760  38.3794200  53.4378690   7.6365210  22.8760060  39.4696380
   7.2887210  22.1984050  38.8898830   7.8377980  22.4149570  40.2839770
   9.8014250  37.8640810  41.0882980  10.6965040  38.2025780  41.1101740
   9.8331880  37.1420220  40.4607260   3.4410410  33.2367860  39.3169980
   3.8785280  33.7797530  39.9727560   3.9258140  32.4114810  39.3266320
   5.2518130  34.3565900  44.4292210   4.9513670  34.2330870  45.3296120
   5.1455620  33.4974490  44.0207940  16.7808600  36.3944480  53.7949180
  16.1810590  36.4537040  53.0513100  16.9102500  35.4549460  53.9246030
  18.0210050  34.1362300  39.1318890  17.1903010  34.2038950  39.6026120
  18.1981880  35.0266420  38.8285750  17.4766510  30.8809780  41.6353090
  18.2385420  31.4506430  41.7412780  17.4920880  30.3136980  42.4061400
  18.4826480  31.7359880  46.4795020  18.8535310  30.9527200  46.0730990
  19.1228410  32.4248980  46.3012320  15.4660240  33.1196460  51.8925340
  14.6520080  33.5493620  52.1551130  15.8734440  33.7314870  51.2794390
  17.5285680  31.1744150  38.7925610  17.8034520  32.0823030  38.6644830
  17.3396420  31.1106680  39.7287600  13.9261290  24.1989000  40.0879240
  14.3446170  24.0119980  39.2475900  13.6197350  23.3468050  40.3982170
  17.4251020  29.1113140  43.7855040  17.0494620  28.3441070  43.3536330
  16.6954140  29.4935840  44.2729970   2.0146780  29.7900280  50.4064090
   2.3819820  29.7027680  51.2860110   1.4457600  29.0266830  50.3070950
  16.8150640  28.2584660  53.4194560  16.5836730  28.0297410  52.5192510
  17.0755190  29.1784210  53.3739450  15.2538710  23.4841090  56.1974260
  16.1308890  23.4924490  56.5808260  15.2659550  22.7471930  55.5866610
  16.7001980  27.3370630  47.0862280  17.2239460  26.8433280  46.4552450
  17.2861400  27.4720990  47.8309850  16.8791700  27.4210500  50.6081830
  15.9294410  27.3874040  50.7226820  17.0604710  28.3310610  50.3731600
   2.7336140  25.6712180  39.7180460   3.4427840  25.2495400  39.2327740
   2.0176080  25.7387410  39.0863810   2.3810300  21.7251510  38.7583110
   3.1038430  22.2660450  39.0764330   2.6534820  21.4514930  37.8824650
  16.1901950  26.5943980  43.0254690  16.6861070  26.3614850  43.8103570
  15.9918020  25.7555820  42.6092330   2.0702490  20.9757700  48.6605730
   2.7178680  20.4255080  48.2200890   2.4904330  21.2300850  49.4821540
  17.6189110  25.2304930  45.5592370  17.5088390  25.0760970  46.4974640
  18.3796700  24.7025870  45.3167780  15.9654830  21.1699060  52.0175370
  16.6027050  21.7833200  52.3834560  16.1129720  21.2059720  51.0724600
  18.5079380  23.0612850  38.7998510  19.4328690  22.9294030  38.5916800
  18.4855170  23.1405670  39.7534960  18.5817870  23.8323510  41.4255220
  17.7869370  23.7668630  41.9548130  18.7861150  24.7674150  41.4140570
  15.5236290  37.8715060  45.4193610  16.1195360  37.5499630  44.7428030
  15.7814440  37.3986880  46.2106880   1.8234490  21.1313370  51.4031050
   1.4749310  21.5877190  52.1689230   1.4922190  20.2370500  51.4853480
   3.4298860  34.3032970  55.5684240   3.3868490  33.9325880  56.4498700
   3.5609870  35.2410540  55.7086060   7.1304890  35.8592560  51.1693960
   6.8896250  36.1267120  50.2824480   8.0707530  36.0298290  51.2244820
   9.3359310  22.3225250  54.9250470   9.2748200  22.9147080  55.6745880
  10.2759690  22.2151210  54.7800730  11.9733870  21.9795310  54.5642760
  12.5874280  22.2974600  53.9023840  12.5183430  21.4943900  55.1838620
  18.3909050  37.8786940  51.9704600  17.8967330  38.2755810  51.2531730
  17.7822340  37.2536150  52.3641880   2.4955130  20.6589570  54.6781820
   3.0438120  20.4777620  53.9147930   2.5610440  19.8683680  55.2138130
   3.2686890  37.2495220  52.6882020   2.6747210  37.1179920  53.4272060
   3.2610730  36.4133360  52.2224120  12.7141910  20.5427450  50.8912050
  11.8401750  20.8762560  50.6884980  12.6052660  20.0700630  51.7163920
  13.6213890  22.7498320  52.2753770  13.2927250  21.9350080  51.8955500
  14.5696190  22.7068130  52.1519460  16.0748500  38.5210360  49.2491340
  15.6151470  39.2726170  48.8749360  15.4460960  37.8016830  49.1906140
   2.8999120  34.6153600  51.6390060   2.1733180  33.9958890  51.5716010
   2.9608270  35.0094210  50.7688140   6.5044220  36.8298600  48.4239470
   7.0209240  36.2185960  47.8987730   7.1541600  37.3327380  48.9150480
   9.2439720  37.7207090  49.2508450   9.5317530  37.4661390  48.3741460
   9.7562940  37.1684450  49.8414020  10.4616730  21.4597290  49.8304960
   9.6788520  21.9342790  50.1101720  10.1679660  20.5552120  49.7218140
  15.0137800  22.1620390  47.8754050  15.4545890  22.1065490  47.0275650
  14.7445390  23.0778400  47.9464230  16.8776370  21.7935630  45.8862870
  16.8164770  20.8496850  45.7393890  17.6568400  21.9015720  46.4316330
   1.8057140  21.7644770  42.3518680   2.5636500  21.8773650  41.7782710
   1.3434310  22.6013970  42.3062110   8.3470950  23.8784040  45.3420990
   7.5345460  23.5040930  45.0016870   8.8512590  23.1229120  45.6442180
  12.8495930  20.5426490  46.5804060  13.4525300  21.1146700  47.0552580
  12.1088920  21.1065930  46.3577960  15.9930530  20.9448050  41.8544340
  16.1881160  21.8431500  42.1211770  15.2060400  20.7135130  42.3477290
   2.7891820  36.6261220  42.2936960   2.2639440  37.0069250  41.5898920
   2.7136400  37.2511990  43.0146670   4.1782290  22.2908820  40.8920650
   4.7075050  21.5038620  40.7628600   4.8110610  22.9700010  41.1256180
   6.3720130  22.0283960  43.9466040   5.7422870  21.3271270  44.1136170
   5.8325270  22.7888090  43.7299200   9.3112080  38.6423190  56.6176650
  10.2379390  38.4067460  56.6612610   9.2962510  39.4695190  56.1362680
  17.5457140  38.1848760  43.6150900  17.7209330  37.4986500  42.9711820
  16.8478710  38.7095810  43.2227570   6.4975690  21.3067940  56.3818530
   6.2159960  21.8101540  55.6179350   6.8795390  20.5089690  56.0160660
   5.3884790  38.5743600  41.1686210   6.1203610  38.2902880  40.6210100
   5.6478460  38.3356880  42.0585590   4.5499580  34.6908330  41.1732540
   3.9208460  35.1593430  41.7218370   4.6647410  33.8457550  41.6078730
  13.0991150  20.7221520  56.9599000  12.9856600  21.0416130  57.8550520
  13.9160890  21.1234030  56.6636280  15.8789640  37.8693050  56.4417690
  16.6714960  37.3742280  56.2343650  16.1722790  38.5483190  57.0493300
  12.0049300  28.7413990  27.3233740  11.9243350  27.8268600  27.0525450
  11.5913720  29.2381060  26.6173450  10.1367340  30.5193010  29.2043010
   9.3609440  30.0393450  29.4941580  10.7880270  29.8398660  29.0299170
   4.1533170  30.8312820  30.0818770   3.3218050  30.5761530  30.4815280
   4.7614150  30.9023590  30.8176690  14.1574770  34.9253200  27.9842140
  13.6956300  34.1540440  28.3129310  14.9700320  34.9519270  28.4894590
   4.1334430  34.8652910  30.2776790   4.4362470  33.9750650  30.0987010
   4.8778020  35.4223130  30.0499040   2.5625120  25.7914710  23.8661160
   1.6741820  26.1330680  23.7641040   2.8466310  25.5915030  22.9741990
  10.3838080  37.2111210  27.6046130   9.7649520  37.6668710  27.0340570
  11.2389860  37.3662670  27.2035830   9.5776330  33.1950200  29.2113170
   9.5084610  32.2540140  29.0502300  10.3396190  33.2851610  29.7835740
   1.7683000  23.8004720  31.5369790   1.5885840  22.9030470  31.8172550
   1.3663080  24.3476590  32.2116740  10.6081500  26.0020580  29.4382100
  10.9846320  25.1292460  29.3255770  10.5101010  26.3379280  28.5472540
   4.7386510  24.3746210  24.8999540   4.8453260  25.2749940  25.2068300
   3.8278870  24.3264180  24.6094190  14.3905620  23.4971020  26.3710440
  15.2115240  23.0067590  26.4135920  14.4239700  24.0868680  27.1242280
   2.3869670  26.2965220  30.1452130   3.0679780  26.5603590  30.7639530
   2.0717720  25.4566090  30.4790140   6.5794240  27.3432580  29.2324720
   7.0872460  27.8413550  29.8729740   7.1107480  26.5667780  29.0564080
  18.6805170  25.5137770  32.9354070  17.9757340  25.9019480  32.4169180
  18.9463090  26.2088060  33.5375000   4.8630340  21.9831140  33.4988140
   4.8648780  22.5003530  32.6934040   4.0334650  21.5061320  33.4758070
  11.2501430  32.0950450  24.9978040  10.6318700  32.5599900  24.4340760
  11.7624680  32.7877930  25.4147550   6.1133190  31.6226320  31.6761640
   5.7802570  32.2495240  32.3182710   6.2899870  32.1488200  30.8963310
  14.6267100  25.4371400  29.1437980  13.9222670  25.7256290  29.7241090
  14.9879260  26.2471510  28.7837540   4.5445670  23.6941100  31.5058590
   4.8862480  24.5383150  31.2112460   3.6061480  23.8424840  31.6223930
   5.3252290  33.5907120  33.4910820   5.9426290  34.2658200  33.2095270
   4.4645410  33.9995100  33.3998320  16.2429880  35.0546530  31.4065460
  15.5593400  35.7245640  31.3982130  16.7824170  35.2527180  30.6410320
  17.6954020  24.8826190  29.5347190  16.7478930  24.9165170  29.6662620
  18.0204010  25.6965140  29.9196550   8.2273560  21.1823370  27.8303180
   8.5348540  20.6270260  27.1138680   7.2974260  21.3167830  27.6476170
  13.7788620  36.8990660  30.1210640  13.7915780  36.4952950  29.2532900
  13.2263840  37.6737950  30.0172070  15.0734040  33.6206880  25.2100810
  14.9630370  32.6781210  25.3350230  15.0702290  33.9822520  26.0963570
  13.1774060  31.8020500  31.4493250  13.5942850  31.5880610  30.6146710
  13.9013880  32.0593290  32.0201870  10.6154320  29.2472200  24.5663300
   9.6883600  29.1809580  24.7951770  10.7679140  30.1852330  24.4518540
  10.6023400  25.5189200  21.5630460   9.6627070  25.6803160  21.6482920
  10.9206660  26.2374880  21.0166450  17.1236160  30.2007720  31.5409490
  16.2954790  30.2700810  31.0659620  17.7186640  30.7862030  31.0725320
  14.6451610  30.8092500  25.0698550  14.0264030  30.4712050  24.4224850
  14.6276060  30.1652260  25.7777740  14.0878170  26.9877040  32.4864360
  13.6749350  27.8130750  32.7404350  13.3554120  26.4022080  32.2940720
   6.2210960  29.7736940  27.3483030   5.8167960  29.0614190  26.8528930
   6.3074080  29.4290180  28.2371070   6.6892660  33.4604500  29.5122240
   6.3920950  32.8549970  28.8330020   7.6392480  33.4981810  29.4011600
   4.9339580  26.5480150  31.1282070   5.4854170  26.6575490  30.3535320
   5.4483090  26.9217750  31.8437300  14.7778270  37.0336370  33.1745340
  14.3008830  37.8408560  32.9817950  14.0940060  36.3814700  33.3271550
   5.7811090  33.1986190  36.1630040   4.8839620  33.4226160  36.4103440
   5.8063960  33.3221130  35.2141440  12.8216310  30.0479310  22.0771300
  13.2609590  29.2101740  21.9309120  13.5344730  30.6808710  22.1635440
   4.6082310  30.0699510  34.7387410   4.4690080  30.9422310  35.1074810
   3.7263670  29.7272320  34.5935350  10.9311690  34.9875380  26.0452540
  11.3707600  35.7299710  25.6307930  10.8698580  35.2301950  26.9691500
   6.4062660  36.0121210  36.9472560   6.3778090  36.4164160  36.0800990
   6.2427630  35.0831570  36.7844160  16.4033450  21.3022120  20.3912340
  16.0906110  21.3948950  21.2911410  17.1645920  21.8803150  20.3409770
   2.9215590  28.6681920  24.8489680   2.8013190  29.3944010  24.2370950
   2.6116480  27.8984830  24.3717590  18.3577480  36.7948310  38.2436730
  18.8337200  37.2731200  38.9225810  18.9784640  36.7265800  37.5182230
   1.8048590  33.5397250  27.0664500   1.3976670  33.6811840  26.2118100
   2.6961600  33.2557410  26.8635710  17.7610730  33.9861160  35.4036740
  17.8873790  33.7473040  34.4853920  17.8032110  33.1545700  35.8758820
  11.6227470  37.6889160  33.9731550  12.1372140  37.5997170  34.7753980
  10.7796550  38.0348860  34.2659460  13.5981870  37.9744500  23.4015550
  13.4383010  37.6847440  24.2997380  13.4328580  37.1984630  22.8660780
   6.0770250  37.7543030  25.1787170   5.9012730  36.8378570  24.9654970
   5.2225990  38.1130320  25.4184970  13.3008000  35.4832060  21.9613550
  12.6073160  35.4809350  21.3015830  14.0430860  35.0591380  21.5307720
  12.8657930  37.1094770  26.0362040  13.3214880  36.3284150  26.3500660
  13.2050450  37.8201590  26.5803220  17.6134740  26.0393620  36.3686480
  16.9979010  26.5473290  35.8401940  17.2931160  25.1391950  36.3112420
   5.3879250  22.0116990  28.2313350   4.9447400  22.7926530  27.8997870
   5.9464240  22.3346880  28.9384290   9.6749060  24.8785510  33.8348670
   9.2128430  25.0868530  34.6468610   9.2727170  24.0644860  33.5319340
  14.6753570  26.0994460  34.9645330  13.8247160  25.8000210  35.2854400
  14.5155360  26.3436470  34.0529150  11.7703280  27.5996210  37.0644120
  12.0956690  26.7659960  36.7246350  12.5583610  28.1224730  37.2122450
   8.5038070  21.6327690  23.1119180   7.8792250  21.6287560  23.8372490
   8.4168190  20.7658650  22.7155150   7.4255150  22.5564320  30.0902950
   7.7227480  23.4627150  30.0094970   7.9740710  22.0683100  29.4762520
   5.1793470  27.1350560  25.9594600   4.9534390  26.9187730  26.8641220
   4.3986000  27.5679020  25.6140570  12.4091230  27.1413930  24.5585250
  11.8100120  27.8649730  24.3748870  12.9570840  27.0790710  23.7761700
   7.6192680  28.0336140  36.6254870   7.5236280  27.0930870  36.4755270
   8.4624660  28.2551210  36.2302940  11.0156100  25.7777470  26.5888530
  11.4085670  26.0949670  25.7757220  11.3772950  24.8989350  26.7033050
   2.7503220  24.4449810  34.7788650   2.3566610  25.2925020  34.9861430
   2.0621620  23.8076180  34.9697290   9.3248270  24.5284780  37.8485390
   8.6346590  24.3356980  38.4831480  10.0680570  24.8119420  38.3809690
  11.6011240  28.3683220  30.6839310  10.8692360  28.8770030  31.0329410
  11.2035580  27.5513200  30.3828090   8.0388630  25.0437420  29.0891800
   8.0424690  24.6027370  28.2396340   8.9339750  25.3654750  29.1963620
   3.8891010  24.9263910  28.0486010   3.5491060  25.4039140  28.8053060
   3.1268330  24.4729030  27.6887110   8.1008780  26.0449500  22.0798560
   8.2221600  26.0035980  23.0284380   7.7157290  26.9073650  21.9245290
  12.0637150  23.8216900  30.0962250  12.0809890  24.2725550  30.9404100
  11.8152730  22.9222540  30.3095690   7.1130280  28.3550640  21.4781860
   6.5447180  27.9068890  20.8517770   7.8219280  28.7143420  20.9447010
  15.4907900  21.2349080  35.9348630  15.8153670  20.5038740  36.4606610
  15.5264410  20.9162720  35.0329620   2.1899460  32.2562660  35.3548590
   1.8054250  31.6156330  35.9531550   2.5011650  32.9598780  35.9243320
   8.3396600  29.1039200  30.8357210   8.7066730  28.6297770  31.5818550
   8.1501660  29.9780770  31.1765550   6.1295970  28.1447840  33.1541420
   5.8253040  29.0239820  33.3791780   7.0842430  28.2047630  33.1898860
   4.6577760  32.3508830  23.7508270   3.8840020  31.8106450  23.5906990
   5.3872390  31.8315440  23.4126030  15.4165740  31.3474190  29.5434660
  16.1364860  31.8429480  29.1530770  15.2147560  30.6692080  28.8988530
  10.8775680  22.7412150  23.6864050  10.0640290  22.2425320  23.6109360
  10.6837630  23.5810400  23.2700400  10.7984540  31.4183250  35.4303660
  10.7321850  30.4978920  35.1761250  10.1689680  31.5158690  36.1448300
  13.5924070  27.1131800  21.9826210  14.4803690  27.4249030  21.8077550
  13.5629160  26.2404050  21.5906790   4.7015160  32.0189210  27.3887080
   5.2193830  31.2157470  27.3343970   4.2499180  31.9568350  28.2303910
   9.5884660  33.2855490  22.6614380   9.9300360  34.0297720  22.1657700
   8.7597370  33.5986610  23.0239210   2.1859700  28.9850580  34.3012780
   1.8274640  29.6504430  34.8886120   1.8914260  28.1534130  34.6725400
   5.3872820  29.4434820  37.1852330   5.0872960  29.5892000  36.2880150
   6.1584060  28.8840110  37.0925720  10.7301270  34.2403820  35.1807460
  10.7445810  33.3084780  34.9626370  10.0226370  34.3263580  35.8197230
  15.8638340  28.4243640  21.4506070  15.7802060  28.8557860  20.6002510
  16.5832530  28.8841990  21.8832890  16.9412480  30.8811160  34.5276040
  16.2160670  31.4739940  34.3305430  17.4687940  30.8734700  33.7289410
  16.8925590  35.2785900  24.1788200  16.2501750  34.6241520  24.4531920
  16.5056250  35.6840990  23.4028870  12.4712070  32.6071330  28.0259890
  12.8235890  32.0099460  27.3661260  11.5874400  32.2815560  28.1968140
   8.5575350  33.3669020  25.4330300   9.2446480  33.9138230  25.8137890
   7.7707770  33.9109750  25.4679910   7.8602560  30.3715050  25.0455660
   8.3165340  31.1820300  25.2715850   7.5090770  30.0538190  25.8774150
  10.1635170  35.8821390  32.2747960  10.8077390  36.0880770  32.9521380
  10.5264610  35.1209790  31.8218810   3.7614340  20.7152700  25.5178180
   3.6328970  20.7070600  26.4663100   2.9376360  21.0535790  25.1669190
  11.4367250  33.8853740  30.9925410  12.0789480  33.1846900  31.1057580
  11.9616600  34.6652180  30.8122300  15.2822970  34.1702360  20.7164550
  15.0560550  33.4532800  21.3089190  14.8919170  33.9214800  19.8786300
  13.2104870  34.6848640  34.1961470  13.5461110  35.2715330  34.8739390
  12.2905210  34.5541350  34.4259260  14.8639220  32.0874300  22.3778710
  14.5760920  32.5486990  23.1656590  15.6591390  31.6272070  22.6462930
   9.0393450  34.7339970  37.3649530   8.7190320  34.0149210  37.9095220
   8.3651810  35.4095040  37.4385590   7.0807620  35.5800420  22.3082680
   7.0717720  36.3130110  21.6927190   6.1605980  35.3332000  22.4009640
   2.6814260  30.8015310  23.0529440   2.0742210  31.5414210  23.0624740
   3.1563610  30.8914670  22.2267640  12.2547050  24.9666130  32.7286330
  12.6227870  24.1461340  33.0565900  11.3945250  25.0268020  33.1441980
  15.6209080  23.9223070  23.5373890  14.9922240  24.0268740  22.8232120
  15.1261000  24.1419850  24.3267770  10.0667220  35.6428660  20.9707870
  10.1679200  35.4392650  20.0409850   9.1668960  35.3886940  21.1755650
   7.5893110  26.2009020  24.9531770   6.8809260  26.6695360  25.3945380
   7.8737590  25.5431030  25.5876960   9.2149040  27.6205720  32.9524300
   9.7134290  28.0951540  33.6176150   9.3571990  26.6969240  33.1594330
  11.6208540  22.9259680  26.3927560  11.4976320  22.9445810  25.4437070
  12.5693100  22.9738620  26.5125960   8.7085330  38.1614980  25.6655540
   8.9626830  38.1236370  24.7434910   7.7597810  38.0348310  25.6583790
   5.7928130  24.5094100  22.3282480   6.6418660  24.9464250  22.2622670
   5.4259400  24.8214360  23.1554540  16.4215900  23.8373680  33.7952690
  15.9189500  24.5779080  34.1346500  17.2372560  24.2257680  33.4789480
  14.7137910  29.0806860  27.2414050  13.7728050  29.0957090  27.4161740
  15.0281980  28.2942820  27.6874350   4.6919550  30.7626460  20.8018010
   5.4582820  30.6507820  21.3643440   4.7694240  30.0664430  20.1494780
   3.3866310  28.1951530  21.4850900   3.4669900  27.2479040  21.5968300
   4.2786060  28.5258410  21.5911560  16.7163490  36.2515710  28.9168310
  16.8410910  37.0746880  29.3892120  17.5829050  36.0406440  28.5692460
   4.1881020  38.3446920  28.5885440   4.9243500  37.7962380  28.8594010
   4.5721940  39.2102930  28.4491430   3.1939300  37.5292990  37.7771020
   3.9952030  37.8505040  38.1906420   2.6791120  37.1688570  38.4990930
   7.2983330  37.5177230  20.4111010   8.0911940  37.8066060  19.9592800
   6.7787680  37.0869400  19.7323490  12.0303930  33.6372860  37.7246430
  11.4242090  33.6604460  36.9842180  11.7258040  32.9055900  38.2613680
  13.4604300  37.3653150  36.3355840  14.4126050  37.2811170  36.2856080
  13.3132520  38.0294860  37.0089630  16.3513500  36.7447360  21.8347750
  16.0655010  36.3312500  21.0201930  16.1533050  37.6735070  21.7148270
   7.8160730  32.7380640  20.2753360   7.7111370  32.1232990  21.0014740
   7.6484950  32.2146530  19.4916370   7.9675050  31.4237440  36.2542590
   7.2020720  31.9922440  36.1697260   8.1491010  31.1313650  35.3610820
  11.0563460  31.8000670  20.8795350  10.5073560  32.2469970  21.5238090
  11.6782720  31.2949920  21.4033020  15.1098400  33.1542770  36.8117610
  15.8507870  33.4918530  36.3085070  14.3471080  33.3234830  36.2587380
   2.9460190  28.1596040  37.6157140   2.9865530  27.8609910  38.5242370
   3.8005690  28.5603650  37.4564660   6.7238580  30.7591590  22.7760650
   7.1455000  30.5931460  23.6192040   6.8489420  29.9491820  22.2815790
   4.8866000  26.7388140  35.5831630   4.3562460  26.2479090  34.9554970
   5.5554070  27.1672340  35.0489560   9.2366220  29.7829200  20.0237750
   9.7571880  29.0678220  19.6578900   9.8834620  30.4215070  20.3238260
  13.7844060  31.2057600  35.3472820  14.1985080  31.3602680  36.1963240
  12.8495060  31.3312820  35.5098600  14.2566230  28.5453760  37.3511970
  14.8387000  27.7906080  37.2632450  14.4328000  29.0761200  36.5743450
   5.3738300  23.7050510  35.6628920   5.2795170  23.0871260  34.9379790
   4.7935690  24.4316800  35.4358830   8.1399740  22.2623750  32.6956310
   7.6917040  22.2848010  31.8501860   7.5064940  21.8642770  33.2926610
   8.5459290  31.1578080  33.3168750   8.9647400  32.0010810  33.1444990
   7.6267920  31.2950120  33.0875530  10.8823190  28.8894260  34.7006590
  11.0019400  28.2935400  35.4401430  11.7417190  28.9263950  34.2807890
  13.2211090  29.4431450  33.2769100  12.6946310  29.9674070  32.6734240
  13.5642430  30.0758840  33.9078830   5.6197480  26.8324820  19.7218810
   5.4186540  25.9692180  20.0832150   5.4489530  26.7458180  18.7840410
   6.3966710  37.4631090  34.4326480   5.8587800  38.1877150  34.1135180
   6.6500670  36.9861430  33.6423820   7.6491960  25.4315610  35.9582410
   8.2391650  25.1231460  36.6460230   6.8312200  24.9595360  36.1142310
  12.4685390  25.0481420  36.1915430  11.7800910  24.3862960  36.1265420
  13.1891410  24.6019690  36.6363890  13.0985790  21.6433050  22.2505690
  13.3788080  20.8000950  22.6065110  12.3251520  21.8756160  22.7644440
   4.4180280  23.9325440  19.7096690   4.7206180  23.9392870  18.8015840
   5.1574870  23.5823300  20.2064350   9.2528920  38.6982300  34.6913130
   9.1787620  39.6017440  34.9985500   8.3507760  38.3794200  34.6635200
   7.6365210  22.8760060  20.6952890   7.2887210  22.1984050  20.1155340
   7.8377980  22.4149570  21.5096280   9.8014250  37.8640810  22.3139490
  10.6965040  38.2025780  22.3358250   9.8331880  37.1420220  21.6863770
   3.4410410  33.2367860  20.5426490   3.8785280  33.7797530  21.1984070
   3.9258140  32.4114810  20.5522830   5.2518130  34.3565900  25.6548720
   4.9513670  34.2330870  26.5552630   5.1455620  33.4974490  25.2464450
  16.7808600  36.3944480  35.0205690  16.1810590  36.4537040  34.2769610
  16.9102500  35.4549460  35.1502540  18.0210050  34.1362300  20.3575400
  17.1903010  34.2038950  20.8282630  18.1981880  35.0266420  20.0542260
  17.4766510  30.8809780  22.8609600  18.2385420  31.4506430  22.9669290
  17.4920880  30.3136980  23.6317910  18.4826480  31.7359880  27.7051530
  18.8535310  30.9527200  27.2987500  19.1228410  32.4248980  27.5268830
  15.4660240  33.1196460  33.1181850  14.6520080  33.5493620  33.3807640
  15.8734440  33.7314870  32.5050900  17.5285680  31.1744150  20.0182120
  17.8034520  32.0823030  19.8901340  17.3396420  31.1106680  20.9544110
  13.9261290  24.1989000  21.3135750  14.3446170  24.0119980  20.4732410
  13.6197350  23.3468050  21.6238680  17.4251020  29.1113140  25.0111550
  17.0494620  28.3441070  24.5792840  16.6954140  29.4935840  25.4986480
   2.0146780  29.7900280  31.6320600   2.3819820  29.7027680  32.5116620
   1.4457600  29.0266830  31.5327460  16.8150640  28.2584660  34.6451070
  16.5836730  28.0297410  33.7449020  17.0755190  29.1784210  34.5995960
  15.2538710  23.4841090  37.4230770  16.1308890  23.4924490  37.8064770
  15.2659550  22.7471930  36.8123120  16.7001980  27.3370630  28.3118790
  17.2239460  26.8433280  27.6808960  17.2861400  27.4720990  29.0566360
  16.8791700  27.4210500  31.8338340  15.9294410  27.3874040  31.9483330
  17.0604710  28.3310610  31.5988110   2.7336140  25.6712180  20.9436970
   3.4427840  25.2495400  20.4584250   2.0176080  25.7387410  20.3120320
   2.3810300  21.7251510  19.9839620   3.1038430  22.2660450  20.3020840
   2.6534820  21.4514930  19.1081160  16.1901950  26.5943980  24.2511200
  16.6861070  26.3614850  25.0360080  15.9918020  25.7555820  23.8348840
   2.0702490  20.9757700  29.8862240   2.7178680  20.4255080  29.4457400
   2.4904330  21.2300850  30.7078050  17.6189110  25.2304930  26.7848880
  17.5088390  25.0760970  27.7231150  18.3796700  24.7025870  26.5424290
  15.9654830  21.1699060  33.2431880  16.6027050  21.7833200  33.6091070
  16.1129720  21.2059720  32.2981110  18.5079380  23.0612850  20.0255020
  19.4328690  22.9294030  19.8173310  18.4855170  23.1405670  20.9791470
  18.5817870  23.8323510  22.6511730  17.7869370  23.7668630  23.1804640
  18.7861150  24.7674150  22.6397080  15.5236290  37.8715060  26.6450120
  16.1195360  37.5499630  25.9684540  15.7814440  37.3986880  27.4363390
   1.8234490  21.1313370  32.6287560   1.4749310  21.5877190  33.3945740
   1.4922190  20.2370500  32.7109990   3.4298860  34.3032970  36.7940750
   3.3868490  33.9325880  37.6755210   3.5609870  35.2410540  36.9342570
   7.1304890  35.8592560  32.3950470   6.8896250  36.1267120  31.5080990
   8.0707530  36.0298290  32.4501330   9.3359310  22.3225250  36.1506980
   9.2748200  22.9147080  36.9002390  10.2759690  22.2151210  36.0057240
  11.9733870  21.9795310  35.7899270  12.5874280  22.2974600  35.1280350
  12.5183430  21.4943900  36.4095130  18.3909050  37.8786940  33.1961110
  17.8967330  38.2755810  32.4788240  17.7822340  37.2536150  33.5898390
   2.4955130  20.6589570  35.9038330   3.0438120  20.4777620  35.1404440
   2.5610440  19.8683680  36.4394640   3.2686890  37.2495220  33.9138530
   2.6747210  37.1179920  34.6528570   3.2610730  36.4133360  33.4480630
  12.7141910  20.5427450  32.1168560  11.8401750  20.8762560  31.9141490
  12.6052660  20.0700630  32.9420430  13.6213890  22.7498320  33.5010280
  13.2927250  21.9350080  33.1212010  14.5696190  22.7068130  33.3775970
  16.0748500  38.5210360  30.4747850  15.6151470  39.2726170  30.1005870
  15.4460960  37.8016830  30.4162650   2.8999120  34.6153600  32.8646570
   2.1733180  33.9958890  32.7972520   2.9608270  35.0094210  31.9944650
   6.5044220  36.8298600  29.6495980   7.0209240  36.2185960  29.1244240
   7.1541600  37.3327380  30.1406990   9.2439720  37.7207090  30.4764960
   9.5317530  37.4661390  29.5997970   9.7562940  37.1684450  31.0670530
  10.4616730  21.4597290  31.0561470   9.6788520  21.9342790  31.3358230
  10.1679660  20.5552120  30.9474650  15.0137800  22.1620390  29.1010560
  15.4545890  22.1065490  28.2532160  14.7445390  23.0778400  29.1720740
  16.8776370  21.7935630  27.1119380  16.8164770  20.8496850  26.9650400
  17.6568400  21.9015720  27.6572840   1.8057140  21.7644770  23.5775190
   2.5636500  21.8773650  23.0039220   1.3434310  22.6013970  23.5318620
   8.3470950  23.8784040  26.5677500   7.5345460  23.5040930  26.2273380
   8.8512590  23.1229120  26.8698690  12.8495930  20.5426490  27.8060570
  13.4525300  21.1146700  28.2809090  12.1088920  21.1065930  27.5834470
  15.9930530  20.9448050  23.0800850  16.1881160  21.8431500  23.3468280
  15.2060400  20.7135130  23.5733800   2.7891820  36.6261220  23.5193470
   2.2639440  37.0069250  22.8155430   2.7136400  37.2511990  24.2403180
   4.1782290  22.2908820  22.1177160   4.7075050  21.5038620  21.9885110
   4.8110610  22.9700010  22.3512690   6.3720130  22.0283960  25.1722550
   5.7422870  21.3271270  25.3392680   5.8325270  22.7888090  24.9555710
   9.3112080  38.6423190  37.8433160  10.2379390  38.4067460  37.8869120
   9.2962510  39.4695190  37.3619190  17.5457140  38.1848760  24.8407410
  17.7209330  37.4986500  24.1968330  16.8478710  38.7095810  24.4484080
   6.4975690  21.3067940  37.6075040   6.2159960  21.8101540  36.8435860
   6.8795390  20.5089690  37.2417170   5.3884790  38.5743600  22.3942720
   6.1203610  38.2902880  21.8466610   5.6478460  38.3356880  23.2842100
   4.5499580  34.6908330  22.3989050   3.9208460  35.1593430  22.9474880
   4.6647410  33.8457550  22.8335240  13.0991150  20.7221520  38.1855510
  12.9856600  21.0416130  39.0807030  13.9160890  21.1234030  37.8892790
  15.8789640  37.8693050  37.6674200  16.6714960  37.3742280  37.4600160
  16.1722790  38.5483190  38.2749810  12.0049300  28.7413990   8.5490250
  11.9243350  27.8268600   8.2781960  11.5913720  29.2381060   7.8429960
  10.1367340  30.5193010  10.4299520   9.3609440  30.0393450  10.7198090
  10.7880270  29.8398660  10.2555680   4.1533170  30.8312820  11.3075280
   3.3218050  30.5761530  11.7071790   4.7614150  30.9023590  12.0433200
  14.1574770  34.9253200   9.2098650  13.6956300  34.1540440   9.5385820
  14.9700320  34.9519270   9.7151100   4.1334430  34.8652910  11.5033300
   4.4362470  33.9750650  11.3243520   4.8778020  35.4223130  11.2755550
   2.5625120  25.7914710   5.0917670   1.6741820  26.1330680   4.9897550
   2.8466310  25.5915030   4.1998500  10.3838080  37.2111210   8.8302640
   9.7649520  37.6668710   8.2597080  11.2389860  37.3662670   8.4292340
   9.5776330  33.1950200  10.4369680   9.5084610  32.2540140  10.2758810
  10.3396190  33.2851610  11.0092250   1.7683000  23.8004720  12.7626300
   1.5885840  22.9030470  13.0429060   1.3663080  24.3476590  13.4373250
  10.6081500  26.0020580  10.6638610  10.9846320  25.1292460  10.5512280
  10.5101010  26.3379280   9.7729050   4.7386510  24.3746210   6.1256050
   4.8453260  25.2749940   6.4324810   3.8278870  24.3264180   5.8350700
  14.3905620  23.4971020   7.5966950  15.2115240  23.0067590   7.6392430
  14.4239700  24.0868680   8.3498790   2.3869670  26.2965220  11.3708640
   3.0679780  26.5603590  11.9896040   2.0717720  25.4566090  11.7046650
   6.5794240  27.3432580  10.4581230   7.0872460  27.8413550  11.0986250
   7.1107480  26.5667780  10.2820590  18.6805170  25.5137770  14.1610580
  17.9757340  25.9019480  13.6425690  18.9463090  26.2088060  14.7631510
   4.8630340  21.9831140  14.7244650   4.8648780  22.5003530  13.9190550
   4.0334650  21.5061320  14.7014580  11.2501430  32.0950450   6.2234550
  10.6318700  32.5599900   5.6597270  11.7624680  32.7877930   6.6404060
   6.1133190  31.6226320  12.9018150   5.7802570  32.2495240  13.5439220
   6.2899870  32.1488200  12.1219820  14.6267100  25.4371400  10.3694490
  13.9222670  25.7256290  10.9497600  14.9879260  26.2471510  10.0094050
   4.5445670  23.6941100  12.7315100   4.8862480  24.5383150  12.4368970
   3.6061480  23.8424840  12.8480440   5.3252290  33.5907120  14.7167330
   5.9426290  34.2658200  14.4351780   4.4645410  33.9995100  14.6254830
  16.2429880  35.0546530  12.6321970  15.5593400  35.7245640  12.6238640
  16.7824170  35.2527180  11.8666830  17.6954020  24.8826190  10.7603700
  16.7478930  24.9165170  10.8919130  18.0204010  25.6965140  11.1453060
   8.2273560  21.1823370   9.0559690   8.5348540  20.6270260   8.3395190
   7.2974260  21.3167830   8.8732680  13.7788620  36.8990660  11.3467150
  13.7915780  36.4952950  10.4789410  13.2263840  37.6737950  11.2428580
  15.0734040  33.6206880   6.4357320  14.9630370  32.6781210   6.5606740
  15.0702290  33.9822520   7.3220080  13.1774060  31.8020500  12.6749760
  13.5942850  31.5880610  11.8403220  13.9013880  32.0593290  13.2458380
  10.6154320  29.2472200   5.7919810   9.6883600  29.1809580   6.0208280
  10.7679140  30.1852330   5.6775050  10.6023400  25.5189200   2.7886970
   9.6627070  25.6803160   2.8739430  10.9206660  26.2374880   2.2422960
  17.1236160  30.2007720  12.7666000  16.2954790  30.2700810  12.2916130
  17.7186640  30.7862030  12.2981830  14.6451610  30.8092500   6.2955060
  14.0264030  30.4712050   5.6481360  14.6276060  30.1652260   7.0034250
  14.0878170  26.9877040  13.7120870  13.6749350  27.8130750  13.9660860
  13.3554120  26.4022080  13.5197230   6.2210960  29.7736940   8.5739540
   5.8167960  29.0614190   8.0785440   6.3074080  29.4290180   9.4627580
   6.6892660  33.4604500  10.7378750   6.3920950  32.8549970  10.0586530
   7.6392480  33.4981810  10.6268110   4.9339580  26.5480150  12.3538580
   5.4854170  26.6575490  11.5791830   5.4483090  26.9217750  13.0693810
  14.7778270  37.0336370  14.4001850  14.3008830  37.8408560  14.2074460
  14.0940060  36.3814700  14.5528060   5.7811090  33.1986190  17.3886550
   4.8839620  33.4226160  17.6359950   5.8063960  33.3221130  16.4397950
  12.8216310  30.0479310   3.3027810  13.2609590  29.2101740   3.1565630
  13.5344730  30.6808710   3.3891950   4.6082310  30.0699510  15.9643920
   4.4690080  30.9422310  16.3331320   3.7263670  29.7272320  15.8191860
  10.9311690  34.9875380   7.2709050  11.3707600  35.7299710   6.8564440
  10.8698580  35.2301950   8.1948010   6.4062660  36.0121210  18.1729070
   6.3778090  36.4164160  17.3057500   6.2427630  35.0831570  18.0100670
   2.9215590  28.6681920   6.0746190   2.8013190  29.3944010   5.4627460
   2.6116480  27.8984830   5.5974100  18.3577480  36.7948310  19.4693240
  18.8337200  37.2731200  20.1482320  18.9784640  36.7265800  18.7438740
   1.8048590  33.5397250   8.2921010   1.3976670  33.6811840   7.4374610
   2.6961600  33.2557410   8.0892220  17.7610730  33.9861160  16.6293250
  17.8873790  33.7473040  15.7110430  17.8032110  33.1545700  17.1015330
  11.6227470  37.6889160  15.1988060  12.1372140  37.5997170  16.0010490
  10.7796550  38.0348860  15.4915970  13.5981870  37.9744500   4.6272060
  13.4383010  37.6847440   5.5253890  13.4328580  37.1984630   4.0917290
   6.0770250  37.7543030   6.4043680   5.9012730  36.8378570   6.1911480
   5.2225990  38.1130320   6.6441480  13.3008000  35.4832060   3.1870060
  12.6073160  35.4809350   2.5272340  14.0430860  35.0591380   2.7564230
  12.8657930  37.1094770   7.2618550  13.3214880  36.3284150   7.5757170
  13.2050450  37.8201590   7.8059730  17.6134740  26.0393620  17.5942990
  16.9979010  26.5473290  17.0658450  17.2931160  25.1391950  17.5368930
   5.3879250  22.0116990   9.4569860   4.9447400  22.7926530   9.1254380
   5.9464240  22.3346880  10.1640800   9.6749060  24.8785510  15.0605180
   9.2128430  25.0868530  15.8725120   9.2727170  24.0644860  14.7575850
  14.6753570  26.0994460  16.1901840  13.8247160  25.8000210  16.5110910
  14.5155360  26.3436470  15.2785660  11.7703280  27.5996210  18.2900630
  12.0956690  26.7659960  17.9502860  12.5583610  28.1224730  18.4378960
   8.5038070  21.6327690   4.3375690   7.8792250  21.6287560   5.0629000
   8.4168190  20.7658650   3.9411660   7.4255150  22.5564320  11.3159460
   7.7227480  23.4627150  11.2351480   7.9740710  22.0683100  10.7019030
   5.1793470  27.1350560   7.1851110   4.9534390  26.9187730   8.0897730
   4.3986000  27.5679020   6.8397080  12.4091230  27.1413930   5.7841760
  11.8100120  27.8649730   5.6005380  12.9570840  27.0790710   5.0018210
   7.6192680  28.0336140  17.8511380   7.5236280  27.0930870  17.7011780
   8.4624660  28.2551210  17.4559450  11.0156100  25.7777470   7.8145040
  11.4085670  26.0949670   7.0013730  11.3772950  24.8989350   7.9289560
   2.7503220  24.4449810  16.0045160   2.3566610  25.2925020  16.2117940
   2.0621620  23.8076180  16.1953800   9.3248270  24.5284780  19.0741900
   8.6346590  24.3356980  19.7087990  10.0680570  24.8119420  19.6066200
  11.6011240  28.3683220  11.9095820  10.8692360  28.8770030  12.2585920
  11.2035580  27.5513200  11.6084600   8.0388630  25.0437420  10.3148310
   8.0424690  24.6027370   9.4652850   8.9339750  25.3654750  10.4220130
   3.8891010  24.9263910   9.2742520   3.5491060  25.4039140  10.0309570
   3.1268330  24.4729030   8.9143620   8.1008780  26.0449500   3.3055070
   8.2221600  26.0035980   4.2540890   7.7157290  26.9073650   3.1501800
  12.0637150  23.8216900  11.3218760  12.0809890  24.2725550  12.1660610
  11.8152730  22.9222540  11.5352200   7.1130280  28.3550640   2.7038370
   6.5447180  27.9068890   2.0774280   7.8219280  28.7143420   2.1703520
  15.4907900  21.2349080  17.1605140  15.8153670  20.5038740  17.6863120
  15.5264410  20.9162720  16.2586130   2.1899460  32.2562660  16.5805100
   1.8054250  31.6156330  17.1788060   2.5011650  32.9598780  17.1499830
   8.3396600  29.1039200  12.0613720   8.7066730  28.6297770  12.8075060
   8.1501660  29.9780770  12.4022060   6.1295970  28.1447840  14.3797930
   5.8253040  29.0239820  14.6048290   7.0842430  28.2047630  14.4155370
   4.6577760  32.3508830   4.9764780   3.8840020  31.8106450   4.8163500
   5.3872390  31.8315440   4.6382540  15.4165740  31.3474190  10.7691170
  16.1364860  31.8429480  10.3787280  15.2147560  30.6692080  10.1245040
  10.8775680  22.7412150   4.9120560  10.0640290  22.2425320   4.8365870
  10.6837630  23.5810400   4.4956910  10.7984540  31.4183250  16.6560170
  10.7321850  30.4978920  16.4017760  10.1689680  31.5158690  17.3704810
  13.5924070  27.1131800   3.2082720  14.4803690  27.4249030   3.0334060
  13.5629160  26.2404050   2.8163300   4.7015160  32.0189210   8.6143590
   5.2193830  31.2157470   8.5600480   4.2499180  31.9568350   9.4560420
   9.5884660  33.2855490   3.8870890   9.9300360  34.0297720   3.3914210
   8.7597370  33.5986610   4.2495720   2.1859700  28.9850580  15.5269290
   1.8274640  29.6504430  16.1142630   1.8914260  28.1534130  15.8981910
   5.3872820  29.4434820  18.4108840   5.0872960  29.5892000  17.5136660
   6.1584060  28.8840110  18.3182230  10.7301270  34.2403820  16.4063970
  10.7445810  33.3084780  16.1882880  10.0226370  34.3263580  17.0453740
  15.8638340  28.4243640   2.6762580  15.7802060  28.8557860   1.8259020
  16.5832530  28.8841990   3.1089400  16.9412480  30.8811160  15.7532550
  16.2160670  31.4739940  15.5561940  17.4687940  30.8734700  14.9545920
  16.8925590  35.2785900   5.4044710  16.2501750  34.6241520   5.6788430
  16.5056250  35.6840990   4.6285380  12.4712070  32.6071330   9.2516400
  12.8235890  32.0099460   8.5917770  11.5874400  32.2815560   9.4224650
   8.5575350  33.3669020   6.6586810   9.2446480  33.9138230   7.0394400
   7.7707770  33.9109750   6.6936420   7.8602560  30.3715050   6.2712170
   8.3165340  31.1820300   6.4972360   7.5090770  30.0538190   7.1030660
  10.1635170  35.8821390  13.5004470  10.8077390  36.0880770  14.1777890
  10.5264610  35.1209790  13.0475320   3.7614340  20.7152700   6.7434690
   3.6328970  20.7070600   7.6919610   2.9376360  21.0535790   6.3925700
  11.4367250  33.8853740  12.2181920  12.0789480  33.1846900  12.3314090
  11.9616600  34.6652180  12.0378810  13.2104870  34.6848640  15.4217980
  13.5461110  35.2715330  16.0995900  12.2905210  34.5541350  15.6515770
  14.8639220  32.0874300   3.6035220  14.5760920  32.5486990   4.3913100
  15.6591390  31.6272070   3.8719440   9.0393450  34.7339970  18.5906040
   8.7190320  34.0149210  19.1351730   8.3651810  35.4095040  18.6642100
   7.0807620  35.5800420   3.5339190   7.0717720  36.3130110   2.9183700
   6.1605980  35.3332000   3.6266150   2.6814260  30.8015310   4.2785950
   2.0742210  31.5414210   4.2881250   3.1563610  30.8914670   3.4524150
  12.2547050  24.9666130  13.9542840  12.6227870  24.1461340  14.2822410
  11.3945250  25.0268020  14.3698490  15.6209080  23.9223070   4.7630400
  14.9922240  24.0268740   4.0488630  15.1261000  24.1419850   5.5524280
   7.5893110  26.2009020   6.1788280   6.8809260  26.6695360   6.6201890
   7.8737590  25.5431030   6.8133470   9.2149040  27.6205720  14.1780810
   9.7134290  28.0951540  14.8432660   9.3571990  26.6969240  14.3850840
  11.6208540  22.9259680   7.6184070  11.4976320  22.9445810   6.6693580
  12.5693100  22.9738620   7.7382470   8.7085330  38.1614980   6.8912050
   8.9626830  38.1236370   5.9691420   7.7597810  38.0348310   6.8840300
   5.7928130  24.5094100   3.5538990   6.6418660  24.9464250   3.4879180
   5.4259400  24.8214360   4.3811050  16.4215900  23.8373680  15.0209200
  15.9189500  24.5779080  15.3603010  17.2372560  24.2257680  14.7045990
  14.7137910  29.0806860   8.4670560  13.7728050  29.0957090   8.6418250
  15.0281980  28.2942820   8.9130860   3.3866310  28.1951530   2.7107410
   3.4669900  27.2479040   2.8224810   4.2786060  28.5258410   2.8168070
  16.7163490  36.2515710  10.1424820  16.8410910  37.0746880  10.6148630
  17.5829050  36.0406440   9.7948970   4.1881020  38.3446920   9.8141950
   4.9243500  37.7962380  10.0850520   4.5721940  39.2102930   9.6747940
   3.1939300  37.5292990  19.0027530   3.9952030  37.8505040  19.4162930
   2.6791120  37.1688570  19.7247440  12.0303930  33.6372860  18.9502940
  11.4242090  33.6604460  18.2098690  11.7258040  32.9055900  19.4870190
  13.4604300  37.3653150  17.5612350  14.4126050  37.2811170  17.5112590
  13.3132520  38.0294860  18.2346140  16.3513500  36.7447360   3.0604260
  16.0655010  36.3312500   2.2458440  16.1533050  37.6735070   2.9404780
   7.9675050  31.4237440  17.4799100   7.2020720  31.9922440  17.3953770
   8.1491010  31.1313650  16.5867330  11.0563460  31.8000670   2.1051860
  10.5073560  32.2469970   2.7494600  11.6782720  31.2949920   2.6289530
  15.1098400  33.1542770  18.0374120  15.8507870  33.4918530  17.5341580
  14.3471080  33.3234830  17.4843890   2.9460190  28.1596040  18.8413650
   2.9865530  27.8609910  19.7498880   3.8005690  28.5603650  18.6821170
   6.7238580  30.7591590   4.0017160   7.1455000  30.5931460   4.8448550
   6.8489420  29.9491820   3.5072300   4.8866000  26.7388140  16.8088140
   4.3562460  26.2479090  16.1811480   5.5554070  27.1672340  16.2746070
  13.7844060  31.2057600  16.5729330  14.1985080  31.3602680  17.4219750
  12.8495060  31.3312820  16.7355110  14.2566230  28.5453760  18.5768480
  14.8387000  27.7906080  18.4888960  14.4328000  29.0761200  17.7999960
   5.3738300  23.7050510  16.8885430   5.2795170  23.0871260  16.1636300
   4.7935690  24.4316800  16.6615340   8.1399740  22.2623750  13.9212820
   7.6917040  22.2848010  13.0758370   7.5064940  21.8642770  14.5183120
   8.5459290  31.1578080  14.5425260   8.9647400  32.0010810  14.3701500
   7.6267920  31.2950120  14.3132040  10.8823190  28.8894260  15.9263100
  11.0019400  28.2935400  16.6657940  11.7417190  28.9263950  15.5064400
  13.2211090  29.4431450  14.5025610  12.6946310  29.9674070  13.8990750
  13.5642430  30.0758840  15.1335340   6.3966710  37.4631090  15.6582990
   5.8587800  38.1877150  15.3391690   6.6500670  36.9861430  14.8680330
   7.6491960  25.4315610  17.1838920   8.2391650  25.1231460  17.8716740
   6.8312200  24.9595360  17.3398820  12.4685390  25.0481420  17.4171940
  11.7800910  24.3862960  17.3521930  13.1891410  24.6019690  17.8620400
  13.0985790  21.6433050   3.4762200  13.3788080  20.8000950   3.8321620
  12.3251520  21.8756160   3.9900950   9.2528920  38.6982300  15.9169640
   9.1787620  39.6017440  16.2242010   8.3507760  38.3794200  15.8891710
   9.8014250  37.8640810   3.5396000  10.6965040  38.2025780   3.5614760
   9.8331880  37.1420220   2.9120280   3.4410410  33.2367860   1.7683000
   3.8785280  33.7797530   2.4240580   3.9258140  32.4114810   1.7779340
   5.2518130  34.3565900   6.8805230   4.9513670  34.2330870   7.7809140
   5.1455620  33.4974490   6.4720960  16.7808600  36.3944480  16.2462200
  16.1810590  36.4537040  15.5026120  16.9102500  35.4549460  16.3759050
  17.4766510  30.8809780   4.0866110  18.2385420  31.4506430   4.1925800
  17.4920880  30.3136980   4.8574420  18.4826480  31.7359880   8.9308040
  18.8535310  30.9527200   8.5244010  19.1228410  32.4248980   8.7525340
  15.4660240  33.1196460  14.3438360  14.6520080  33.5493620  14.6064150
  15.8734440  33.7314870  13.7307410  13.9261290  24.1989000   2.5392260
  14.3446170  24.0119980   1.6988920  13.6197350  23.3468050   2.8495190
  17.4251020  29.1113140   6.2368060  17.0494620  28.3441070   5.8049350
  16.6954140  29.4935840   6.7242990   2.0146780  29.7900280  12.8577110
   2.3819820  29.7027680  13.7373130   1.4457600  29.0266830  12.7583970
  16.8150640  28.2584660  15.8707580  16.5836730  28.0297410  14.9705530
  17.0755190  29.1784210  15.8252470  15.2538710  23.4841090  18.6487280
  16.1308890  23.4924490  19.0321280  15.2659550  22.7471930  18.0379630
  16.7001980  27.3370630   9.5375300  17.2239460  26.8433280   8.9065470
  17.2861400  27.4720990  10.2822870  16.8791700  27.4210500  13.0594850
  15.9294410  27.3874040  13.1739840  17.0604710  28.3310610  12.8244620
  16.1901950  26.5943980   5.4767710  16.6861070  26.3614850   6.2616590
  15.9918020  25.7555820   5.0605350   2.0702490  20.9757700  11.1118750
   2.7178680  20.4255080  10.6713910   2.4904330  21.2300850  11.9334560
  17.6189110  25.2304930   8.0105390  17.5088390  25.0760970   8.9487660
  18.3796700  24.7025870   7.7680800  15.9654830  21.1699060  14.4688390
  16.6027050  21.7833200  14.8347580  16.1129720  21.2059720  13.5237620
  18.5817870  23.8323510   3.8768240  17.7869370  23.7668630   4.4061150
  18.7861150  24.7674150   3.8653590  15.5236290  37.8715060   7.8706630
  16.1195360  37.5499630   7.1941050  15.7814440  37.3986880   8.6619900
   1.8234490  21.1313370  13.8544070   1.4749310  21.5877190  14.6202250
   1.4922190  20.2370500  13.9366500   3.4298860  34.3032970  18.0197260
   3.3868490  33.9325880  18.9011720   3.5609870  35.2410540  18.1599080
   7.1304890  35.8592560  13.6206980   6.8896250  36.1267120  12.7337500
   8.0707530  36.0298290  13.6757840   9.3359310  22.3225250  17.3763490
   9.2748200  22.9147080  18.1258900  10.2759690  22.2151210  17.2313750
  11.9733870  21.9795310  17.0155780  12.5874280  22.2974600  16.3536860
  12.5183430  21.4943900  17.6351640  18.3909050  37.8786940  14.4217620
  17.8967330  38.2755810  13.7044750  17.7822340  37.2536150  14.8154900
   2.4955130  20.6589570  17.1294840   3.0438120  20.4777620  16.3660950
   2.5610440  19.8683680  17.6651150   3.2686890  37.2495220  15.1395040
   2.6747210  37.1179920  15.8785080   3.2610730  36.4133360  14.6737140
  12.7141910  20.5427450  13.3425070  11.8401750  20.8762560  13.1398000
  12.6052660  20.0700630  14.1676940  13.6213890  22.7498320  14.7266790
  13.2927250  21.9350080  14.3468520  14.5696190  22.7068130  14.6032480
  16.0748500  38.5210360  11.7004360  15.6151470  39.2726170  11.3262380
  15.4460960  37.8016830  11.6419160   2.8999120  34.6153600  14.0903080
   2.1733180  33.9958890  14.0229030   2.9608270  35.0094210  13.2201160
   6.5044220  36.8298600  10.8752490   7.0209240  36.2185960  10.3500750
   7.1541600  37.3327380  11.3663500   9.2439720  37.7207090  11.7021470
   9.5317530  37.4661390  10.8254480   9.7562940  37.1684450  12.2927040
  10.4616730  21.4597290  12.2817980   9.6788520  21.9342790  12.5614740
  10.1679660  20.5552120  12.1731160  15.0137800  22.1620390  10.3267070
  15.4545890  22.1065490   9.4788670  14.7445390  23.0778400  10.3977250
  16.8776370  21.7935630   8.3375890  16.8164770  20.8496850   8.1906910
  17.6568400  21.9015720   8.8829350   1.8057140  21.7644770   4.8031700
   2.5636500  21.8773650   4.2295730   1.3434310  22.6013970   4.7575130
   8.3470950  23.8784040   7.7934010   7.5345460  23.5040930   7.4529890
   8.8512590  23.1229120   8.0955200  12.8495930  20.5426490   9.0317080
  13.4525300  21.1146700   9.5065600  12.1088920  21.1065930   8.8090980
  15.9930530  20.9448050   4.3057360  16.1881160  21.8431500   4.5724790
  15.2060400  20.7135130   4.7990310   2.7891820  36.6261220   4.7449980
   2.2639440  37.0069250   4.0411940   2.7136400  37.2511990   5.4659690
   4.1782290  22.2908820   3.3433670   4.7075050  21.5038620   3.2141620
   4.8110610  22.9700010   3.5769200   6.3720130  22.0283960   6.3979060
   5.7422870  21.3271270   6.5649190   5.8325270  22.7888090   6.1812220
   9.3112080  38.6423190  19.0689670  10.2379390  38.4067460  19.1125630
   9.2962510  39.4695190  18.5875700  17.5457140  38.1848760   6.0663920
  17.7209330  37.4986500   5.4224840  16.8478710  38.7095810   5.6740590
   6.4975690  21.3067940  18.8331550   6.2159960  21.8101540  18.0692370
   6.8795390  20.5089690  18.4673680   5.3884790  38.5743600   3.6199230
   6.1203610  38.2902880   3.0723120   5.6478460  38.3356880   4.5098610
   4.5499580  34.6908330   3.6245560   3.9208460  35.1593430   4.1731390
   4.6647410  33.8457550   4.0591750  13.0991150  20.7221520  19.4112020
  12.9856600  21.0416130  20.3063540  13.9160890  21.1234030  19.1149300
  15.8789640  37.8693050  18.8930710  16.6714960  37.3742280  18.6856670
  16.1722790  38.5483190  19.5006320  12.0049300   9.9670500 139.9694680
  11.9243350   9.0525110 139.6986390  11.5913720  10.4637570 139.2634390
  10.1367340  11.7449520 141.8503950   9.3609440  11.2649960 142.1402520
  10.7880270  11.0655170 141.6760110   4.1533170  12.0569330 142.7279710
   3.3218050  11.8018040 143.1276220   4.7614150  12.1280100 143.4637630
  14.1574770  16.1509710 140.6303080  13.6956300  15.3796950 140.9590250
  14.9700320  16.1775780 141.1355530   4.1334430  16.0909420 142.9237730
   4.4362470  15.2007160 142.7447950   4.8778020  16.6479640 142.6959980
   2.5625120   7.0171220 136.5122100   1.6741820   7.3587190 136.4101980
   2.8466310   6.8171540 135.6202930  10.3838080  18.4367720 140.2507070
   9.7649520  18.8925220 139.6801510  11.2389860  18.5919180 139.8496770
   9.5776330  14.4206710 141.8574110   9.5084610  13.4796650 141.6963240
  10.3396190  14.5108120 142.4296680   1.7683000   5.0261230 144.1830730
   1.5885840   4.1286980 144.4633490   1.3663080   5.5733100 144.8577680
  10.6081500   7.2277090 142.0843040  10.9846320   6.3548970 141.9716710
  10.5101010   7.5635790 141.1933480   4.7386510   5.6002720 137.5460480
   4.8453260   6.5006450 137.8529240   3.8278870   5.5520690 137.2555130
  14.3905620   4.7227530 139.0171380  15.2115240   4.2324100 139.0596860
  14.4239700   5.3125190 139.7703220   2.3869670   7.5221730 142.7913070
   3.0679780   7.7860100 143.4100470   2.0717720   6.6822600 143.1251080
   6.5794240   8.5689090 141.8785660   7.0872460   9.0670060 142.5190680
   7.1107480   7.7924290 141.7025020  18.6805170   6.7394280 145.5815010
  17.9757340   7.1275990 145.0630120  18.9463090   7.4344570 146.1835940
   4.8630340   3.2087650 146.1449080   4.8648780   3.7260040 145.3394980
   4.0334650   2.7317830 146.1219010  11.2501430  13.3206960 137.6438980
  10.6318700  13.7856410 137.0801700  11.7624680  14.0134440 138.0608490
   6.1133190  12.8482830 144.3222580   5.7802570  13.4751750 144.9643650
   6.2899870  13.3744710 143.5424250  14.6267100   6.6627910 141.7898920
  13.9222670   6.9512800 142.3702030  14.9879260   7.4728020 141.4298480
   4.5445670   4.9197610 144.1519530   4.8862480   5.7639660 143.8573400
   3.6061480   5.0681350 144.2684870   5.3252290  14.8163630 146.1371760
   5.9426290  15.4914710 145.8556210   4.4645410  15.2251610 146.0459260
  16.2429880  16.2803040 144.0526400  15.5593400  16.9502150 144.0443070
  16.7824170  16.4783690 143.2871260  17.6954020   6.1082700 142.1808130
  16.7478930   6.1421680 142.3123560  18.0204010   6.9221650 142.5657490
   8.2273560   2.4079880 140.4764120   8.5348540   1.8526770 139.7599620
   7.2974260   2.5424340 140.2937110  13.7788620  18.1247170 142.7671580
  13.7915780  17.7209460 141.8993840  13.2263840  18.8994460 142.6633010
  15.0734040  14.8463390 137.8561750  14.9630370  13.9037720 137.9811170
  15.0702290  15.2079030 138.7424510  13.1774060  13.0277010 144.0954190
  13.5942850  12.8137120 143.2607650  13.9013880  13.2849800 144.6662810
  10.6154320  10.4728710 137.2124240   9.6883600  10.4066090 137.4412710
  10.7679140  11.4108840 137.0979480  10.6023400   6.7445710 134.2091400
   9.6627070   6.9059670 134.2943860  10.9206660   7.4631390 133.6627390
  17.1236160  11.4264230 144.1870430  16.2954790  11.4957320 143.7120560
  17.7186640  12.0118540 143.7186260  14.6451610  12.0349010 137.7159490
  14.0264030  11.6968560 137.0685790  14.6276060  11.3908770 138.4238680
  14.0878170   8.2133550 145.1325300  13.6749350   9.0387260 145.3865290
  13.3554120   7.6278590 144.9401660   6.2210960  10.9993450 139.9943970
   5.8167960  10.2870700 139.4989870   6.3074080  10.6546690 140.8832010
   6.6892660  14.6861010 142.1583180   6.3920950  14.0806480 141.4790960
   7.6392480  14.7238320 142.0472540   4.9339580   7.7736660 143.7743010
   5.4854170   7.8832000 142.9996260   5.4483090   8.1474260 144.4898240
  14.7778270  18.2592880 145.8206280  14.3008830  19.0665070 145.6278890
  14.0940060  17.6071210 145.9732490   5.7811090  14.4242700 148.8090980
   4.8839620  14.6482670 149.0564380   5.8063960  14.5477640 147.8602380
  12.8216310  11.2735820 134.7232240  13.2609590  10.4358250 134.5770060
  13.5344730  11.9065220 134.8096380   4.6082310  11.2956020 147.3848350
   4.4690080  12.1678820 147.7535750   3.7263670  10.9528830 147.2396290
  10.9311690  16.2131890 138.6913480  11.3707600  16.9556220 138.2768870
  10.8698580  16.4558460 139.6152440   6.4062660  17.2377720 149.5933500
   6.3778090  17.6420670 148.7261930   6.2427630  16.3088080 149.4305100
  16.4033450   2.5278630 133.0373280  16.0906110   2.6205460 133.9372350
  17.1645920   3.1059660 132.9870710   2.9215590   9.8938430 137.4950620
   2.8013190  10.6200520 136.8831890   2.6116480   9.1241340 137.0178530
   1.8048590  14.7653760 139.7125440   1.3976670  14.9068350 138.8579040
   2.6961600  14.4813920 139.5096650  17.7610730  15.2117670 148.0497680
  17.8873790  14.9729550 147.1314860  17.8032110  14.3802210 148.5219760
  11.6227470  18.9145670 146.6192490  12.1372140  18.8253680 147.4214920
  10.7796550  19.2605370 146.9120400  13.5981870  19.2001010 136.0476490
  13.4383010  18.9103950 136.9458320  13.4328580  18.4241140 135.5121720
   6.0770250  18.9799540 137.8248110   5.9012730  18.0635080 137.6115910
   5.2225990  19.3386830 138.0645910  13.3008000  16.7088570 134.6074490
  12.6073160  16.7065860 133.9476770  14.0430860  16.2847890 134.1768660
  12.8657930  18.3351280 138.6822980  13.3214880  17.5540660 138.9961600
  13.2050450  19.0458100 139.2264160  17.6134740   7.2650130 149.0147420
  16.9979010   7.7729800 148.4862880  17.2931160   6.3648460 148.9573360
   5.3879250   3.2373500 140.8774290   4.9447400   4.0183040 140.5458810
   5.9464240   3.5603390 141.5845230   9.6749060   6.1042020 146.4809610
   9.2128430   6.3125040 147.2929550   9.2727170   5.2901370 146.1780280
  14.6753570   7.3250970 147.6106270  13.8247160   7.0256720 147.9315340
  14.5155360   7.5692980 146.6990090  11.7703280   8.8252720 149.7105060
  12.0956690   7.9916470 149.3707290  12.5583610   9.3481240 149.8583390
   8.5038070   2.8584200 135.7580120   7.8792250   2.8544070 136.4833430
   8.4168190   1.9915160 135.3616090   7.4255150   3.7820830 142.7363890
   7.7227480   4.6883660 142.6555910   7.9740710   3.2939610 142.1223460
   5.1793470   8.3607070 138.6055540   4.9534390   8.1444240 139.5102160
   4.3986000   8.7935530 138.2601510  12.4091230   8.3670440 137.2046190
  11.8100120   9.0906240 137.0209810  12.9570840   8.3047220 136.4222640
   7.6192680   9.2592650 149.2715810   7.5236280   8.3187380 149.1216210
   8.4624660   9.4807720 148.8763880  11.0156100   7.0033980 139.2349470
  11.4085670   7.3206180 138.4218160  11.3772950   6.1245860 139.3493990
   2.7503220   5.6706320 147.4249590   2.3566610   6.5181530 147.6322370
   2.0621620   5.0332690 147.6158230  11.6011240   9.5939730 143.3300250
  10.8692360  10.1026540 143.6790350  11.2035580   8.7769710 143.0289030
   8.0388630   6.2693930 141.7352740   8.0424690   5.8283880 140.8857280
   8.9339750   6.5911260 141.8424560   3.8891010   6.1520420 140.6946950
   3.5491060   6.6295650 141.4514000   3.1268330   5.6985540 140.3348050
   8.1008780   7.2706010 134.7259500   8.2221600   7.2292490 135.6745320
   7.7157290   8.1330160 134.5706230  12.0637150   5.0473410 142.7423190
  12.0809890   5.4982060 143.5865040  11.8152730   4.1479050 142.9556630
   7.1130280   9.5807150 134.1242800   6.5447180   9.1325400 133.4978710
   7.8219280   9.9399930 133.5907950  15.4907900   2.4605590 148.5809570
  15.8153670   1.7295250 149.1067550  15.5264410   2.1419230 147.6790560
   2.1899460  13.4819170 148.0009530   1.8054250  12.8412840 148.5992490
   2.5011650  14.1855290 148.5704260   8.3396600  10.3295710 143.4818150
   8.7066730   9.8554280 144.2279490   8.1501660  11.2037280 143.8226490
   6.1295970   9.3704350 145.8002360   5.8253040  10.2496330 146.0252720
   7.0842430   9.4304140 145.8359800   4.6577760  13.5765340 136.3969210
   3.8840020  13.0362960 136.2367930   5.3872390  13.0571950 136.0586970
  15.4165740  12.5730700 142.1895600  16.1364860  13.0685990 141.7991710
  15.2147560  11.8948590 141.5449470  10.8775680   3.9668660 136.3324990
  10.0640290   3.4681830 136.2570300  10.6837630   4.8066910 135.9161340
  10.7984540  12.6439760 148.0764600  10.7321850  11.7235430 147.8222190
  10.1689680  12.7415200 148.7909240  13.5924070   8.3388310 134.6287150
  14.4803690   8.6505540 134.4538490  13.5629160   7.4660560 134.2367730
   4.7015160  13.2445720 140.0348020   5.2193830  12.4413980 139.9804910
   4.2499180  13.1824860 140.8764850   9.5884660  14.5112000 135.3075320
   9.9300360  15.2554230 134.8118640   8.7597370  14.8243120 135.6700150
   2.1859700  10.2107090 146.9473720   1.8274640  10.8760940 147.5347060
   1.8914260   9.3790640 147.3186340   5.3872820  10.6691330 149.8313270
   5.0872960  10.8148510 148.9341090   6.1584060  10.1096620 149.7386660
  10.7301270  15.4660330 147.8268400  10.7445810  14.5341290 147.6087310
  10.0226370  15.5520090 148.4658170  15.8638340   9.6500150 134.0967010
  15.7802060  10.0814370 133.2463450  16.5832530  10.1098500 134.5293830
  16.9412480  12.1067670 147.1736980  16.2160670  12.6996450 146.9766370
  17.4687940  12.0991210 146.3750350  16.8925590  16.5042410 136.8249140
  16.2501750  15.8498030 137.0992860  16.5056250  16.9097500 136.0489810
  12.4712070  13.8327840 140.6720830  12.8235890  13.2355970 140.0122200
  11.5874400  13.5072070 140.8429080   8.5575350  14.5925530 138.0791240
   9.2446480  15.1394740 138.4598830   7.7707770  15.1366260 138.1140850
   7.8602560  11.5971560 137.6916600   8.3165340  12.4076810 137.9176790
   7.5090770  11.2794700 138.5235090  10.1635170  17.1077900 144.9208900
  10.8077390  17.3137280 145.5982320  10.5264610  16.3466300 144.4679750
   3.7614340   1.9409210 138.1639120   3.6328970   1.9327110 139.1124040
   2.9376360   2.2792300 137.8130130  11.4367250  15.1110250 143.6386350
  12.0789480  14.4103410 143.7518520  11.9616600  15.8908690 143.4583240
  15.2822970  15.3958870 133.3625490  15.0560550  14.6789310 133.9550130
  14.8919170  15.1471310 132.5247240  13.2104870  15.9105150 146.8422410
  13.5461110  16.4971840 147.5200330  12.2905210  15.7797860 147.0720200
  14.8639220  13.3130810 135.0239650  14.5760920  13.7743500 135.8117530
  15.6591390  12.8528580 135.2923870   7.0807620  16.8056930 134.9543620
   7.0717720  17.5386620 134.3388130   6.1605980  16.5588510 135.0470580
   2.6814260  12.0271820 135.6990380   2.0742210  12.7670720 135.7085680
   3.1563610  12.1171180 134.8728580  12.2547050   6.1922640 145.3747270
  12.6227870   5.3717850 145.7026840  11.3945250   6.2524530 145.7902920
  15.6209080   5.1479580 136.1834830  14.9922240   5.2525250 135.4693060
  15.1261000   5.3676360 136.9728710  10.0667220  16.8685170 133.6168810
  10.1679200  16.6649160 132.6870790   9.1668960  16.6143450 133.8216590
   7.5893110   7.4265530 137.5992710   6.8809260   7.8951870 138.0406320
   7.8737590   6.7687540 138.2337900   9.2149040   8.8462230 145.5985240
   9.7134290   9.3208050 146.2637090   9.3571990   7.9225750 145.8055270
  11.6208540   4.1516190 139.0388500  11.4976320   4.1702320 138.0898010
  12.5693100   4.1995130 139.1586900   8.7085330  19.3871490 138.3116480
   8.9626830  19.3492880 137.3895850   7.7597810  19.2604820 138.3044730
   5.7928130   5.7350610 134.9743420   6.6418660   6.1720760 134.9083610
   5.4259400   6.0470870 135.8015480  16.4215900   5.0630190 146.4413630
  15.9189500   5.8035590 146.7807440  17.2372560   5.4514190 146.1250420
  14.7137910  10.3063370 139.8874990  13.7728050  10.3213600 140.0622680
  15.0281980   9.5199330 140.3335290   4.6919550  11.9882970 133.4478950
   5.4582820  11.8764330 134.0104380   4.7694240  11.2920940 132.7955720
   3.3866310   9.4208040 134.1311840   3.4669900   8.4735550 134.2429240
   4.2786060   9.7514920 134.2372500  16.7163490  17.4772220 141.5629250
  16.8410910  18.3003390 142.0353060  17.5829050  17.2662950 141.2153400
   4.1881020  19.5703430 141.2346380   4.9243500  19.0218890 141.5054950
   4.5721940  20.4359440 141.0952370   7.2983330  18.7433740 133.0571950
   8.0911940  19.0322570 132.6053740   6.7787680  18.3125910 132.3784430
  13.4604300  18.5909660 148.9816780  14.4126050  18.5067680 148.9317020
  13.3132520  19.2551370 149.6550570  16.3513500  17.9703870 134.4808690
  16.0655010  17.5569010 133.6662870  16.1533050  18.8991580 134.3609210
   7.8160730  13.9637150 132.9214300   7.7111370  13.3489500 133.6475680
   7.6484950  13.4403040 132.1377310   7.9675050  12.6493950 148.9003530
   7.2020720  13.2178950 148.8158200   8.1491010  12.3570160 148.0071760
  11.0563460  13.0257180 133.5256290  10.5073560  13.4726480 134.1699030
  11.6782720  12.5206430 134.0493960  15.1098400  14.3799280 149.4578550
  15.8507870  14.7175040 148.9546010  14.3471080  14.5491340 148.9048320
   6.7238580  11.9848100 135.4221590   7.1455000  11.8187970 136.2652980
   6.8489420  11.1748330 134.9276730   4.8866000   7.9644650 148.2292570
   4.3562460   7.4735600 147.6015910   5.5554070   8.3928850 147.6950500
   9.2366220  11.0085710 132.6698690   9.7571880  10.2934730 132.3039840
   9.8834620  11.6471580 132.9699200  13.7844060  12.4314110 147.9933760
  14.1985080  12.5859190 148.8424180  12.8495060  12.5569330 148.1559540
  14.2566230   9.7710270 149.9972910  14.8387000   9.0162590 149.9093390
  14.4328000  10.3017710 149.2204390   5.3738300   4.9307020 148.3089860
   5.2795170   4.3127770 147.5840730   4.7935690   5.6573310 148.0819770
   8.1399740   3.4880260 145.3417250   7.6917040   3.5104520 144.4962800
   7.5064940   3.0899280 145.9387550   8.5459290  12.3834590 145.9629690
   8.9647400  13.2267320 145.7905930   7.6267920  12.5206630 145.7336470
  10.8823190  10.1150770 147.3467530  11.0019400   9.5191910 148.0862370
  11.7417190  10.1520460 146.9268830  13.2211090  10.6687960 145.9230040
  12.6946310  11.1930580 145.3195180  13.5642430  11.3015350 146.5539770
   5.6197480   8.0581330 132.3679750   5.4186540   7.1948690 132.7293090
   5.4489530   7.9714690 131.4301350   6.3966710  18.6887600 147.0787420
   5.8587800  19.4133660 146.7596120   6.6500670  18.2117940 146.2884760
   7.6491960   6.6572120 148.6043350   8.2391650   6.3487970 149.2921170
   6.8312200   6.1851870 148.7603250  12.4685390   6.2737930 148.8376370
  11.7800910   5.6119470 148.7726360  13.1891410   5.8276200 149.2824830
  13.0985790   2.8689560 134.8966630  13.3788080   2.0257460 135.2526050
  12.3251520   3.1012670 135.4105380   4.4180280   5.1581950 132.3557630
   4.7206180   5.1649380 131.4476780   5.1574870   4.8079810 132.8525290
   9.2528920  19.9238810 147.3374070   9.1787620  20.8273950 147.6446440
   8.3507760  19.6050710 147.3096140   7.6365210   4.1016570 133.3413830
   7.2887210   3.4240560 132.7616280   7.8377980   3.6406080 134.1557220
   9.8014250  19.0897320 134.9600430  10.6965040  19.4282290 134.9819190
   9.8331880  18.3676730 134.3324710   3.4410410  14.4624370 133.1887430
   3.8785280  15.0054040 133.8445010   3.9258140  13.6371320 133.1983770
   5.2518130  15.5822410 138.3009660   4.9513670  15.4587380 139.2013570
   5.1455620  14.7231000 137.8925390  16.7808600  17.6200990 147.6666630
  16.1810590  17.6793550 146.9230550  16.9102500  16.6805970 147.7963480
  18.0210050  15.3618810 133.0036340  17.1903010  15.4295460 133.4743570
  18.1981880  16.2522930 132.7003200  17.4766510  12.1066290 135.5070540
  18.2385420  12.6762940 135.6130230  17.4920880  11.5393490 136.2778850
  18.4826480  12.9616390 140.3512470  18.8535310  12.1783710 139.9448440
  19.1228410  13.6505490 140.1729770  15.4660240  14.3452970 145.7642790
  14.6520080  14.7750130 146.0268580  15.8734440  14.9571380 145.1511840
  17.5285680  12.4000660 132.6643060  17.8034520  13.3079540 132.5362280
  17.3396420  12.3363190 133.6005050  13.9261290   5.4245510 133.9596690
  14.3446170   5.2376490 133.1193350  13.6197350   4.5724560 134.2699620
  17.4251020  10.3369650 137.6572490  17.0494620   9.5697580 137.2253780
  16.6954140  10.7192350 138.1447420   2.0146780  11.0156790 144.2781540
   2.3819820  10.9284190 145.1577560   1.4457600  10.2523340 144.1788400
  16.8150640   9.4841170 147.2912010  16.5836730   9.2553920 146.3909960
  17.0755190  10.4040720 147.2456900  16.7001980   8.5627140 140.9579730
  17.2239460   8.0689790 140.3269900  17.2861400   8.6977500 141.7027300
  16.8791700   8.6467010 144.4799280  15.9294410   8.6130550 144.5944270
  17.0604710   9.5567120 144.2449050   2.7336140   6.8968690 133.5897910
   3.4427840   6.4751910 133.1045190   2.0176080   6.9643920 132.9581260
   2.3810300   2.9508020 132.6300560   3.1038430   3.4916960 132.9481780
   2.6534820   2.6771440 131.7542100  16.1901950   7.8200490 136.8972140
  16.6861070   7.5871360 137.6821020  15.9918020   6.9812330 136.4809780
   2.0702490   2.2014210 142.5323180   2.7178680   1.6511590 142.0918340
   2.4904330   2.4557360 143.3538990  17.6189110   6.4561440 139.4309820
  17.5088390   6.3017480 140.3692090  18.3796700   5.9282380 139.1885230
  15.9654830   2.3955570 145.8892820  16.6027050   3.0089710 146.2552010
  16.1129720   2.4316230 144.9442050  18.5079380   4.2869360 132.6715960
  19.4328690   4.1550540 132.4634250  18.4855170   4.3662180 133.6252410
  18.5817870   5.0580020 135.2972670  17.7869370   4.9925140 135.8265580
  18.7861150   5.9930660 135.2858020  15.5236290  19.0971570 139.2911060
  16.1195360  18.7756140 138.6145480  15.7814440  18.6243390 140.0824330
   1.8234490   2.3569880 145.2748500   1.4749310   2.8133700 146.0406680
   1.4922190   1.4627010 145.3570930   7.1304890  17.0849070 145.0411410
   6.8896250  17.3523630 144.1541930   8.0707530  17.2554800 145.0962270
   9.3359310   3.5481760 148.7967920   9.2748200   4.1403590 149.5463330
  10.2759690   3.4407720 148.6518180  11.9733870   3.2051820 148.4360210
  12.5874280   3.5231110 147.7741290  12.5183430   2.7200410 149.0556070
  18.3909050  19.1043450 145.8422050  17.8967330  19.5012320 145.1249180
  17.7822340  18.4792660 146.2359330   3.2686890  18.4751730 146.5599470
   2.6747210  18.3436430 147.2989510   3.2610730  17.6389870 146.0941570
  13.6213890   3.9754830 146.1471220  13.2927250   3.1606590 145.7672950
  14.5696190   3.9324640 146.0236910  16.0748500  19.7466870 143.1208790
  15.6151470  20.4982680 142.7466810  15.4460960  19.0273340 143.0623590
   2.8999120  15.8410110 145.5107510   2.1733180  15.2215400 145.4433460
   2.9608270  16.2350720 144.6405590   6.5044220  18.0555110 142.2956920
   7.0209240  17.4442470 141.7705180   7.1541600  18.5583890 142.7867930
   9.2439720  18.9463600 143.1225900   9.5317530  18.6917900 142.2458910
   9.7562940  18.3940960 143.7131470  10.4616730   2.6853800 143.7022410
   9.6788520   3.1599300 143.9819170  10.1679660   1.7808630 143.5935590
  15.0137800   3.3876900 141.7471500  15.4545890   3.3322000 140.8993100
  14.7445390   4.3034910 141.8181680  16.8776370   3.0192140 139.7580320
  16.8164770   2.0753360 139.6111340  17.6568400   3.1272230 140.3033780
   1.8057140   2.9901280 136.2236130   2.5636500   3.1030160 135.6500160
   1.3434310   3.8270480 136.1779560   8.3470950   5.1040550 139.2138440
   7.5345460   4.7297440 138.8734320   8.8512590   4.3485630 139.5159630
  12.8495930   1.7683000 140.4521510  13.4525300   2.3403210 140.9270030
  12.1088920   2.3322440 140.2295410  15.9930530   2.1704560 135.7261790
  16.1881160   3.0688010 135.9929220  15.2060400   1.9391640 136.2194740
   2.7891820  17.8517730 136.1654410   2.2639440  18.2325760 135.4616370
   2.7136400  18.4768500 136.8864120   4.1782290   3.5165330 134.7638100
   4.7075050   2.7295130 134.6346050   4.8110610   4.1956520 134.9973630
   6.3720130   3.2540470 137.8183490   5.7422870   2.5527780 137.9853620
   5.8325270   4.0144600 137.6016650  17.5457140  19.4105270 137.4868350
  17.7209330  18.7243010 136.8429270  16.8478710  19.9352320 137.0945020
   5.3884790  19.8000110 135.0403660   6.1203610  19.5159390 134.4927550
   5.6478460  19.5613390 135.9303040   4.5499580  15.9164840 135.0449990
   3.9208460  16.3849940 135.5935820   4.6647410  15.0714060 135.4796180
  12.0049300   9.9670500 121.1951190  11.9243350   9.0525110 120.9242900
  11.5913720  10.4637570 120.4890900  10.1367340  11.7449520 123.0760460
   9.3609440  11.2649960 123.3659030  10.7880270  11.0655170 122.9016620
   4.1533170  12.0569330 123.9536220   3.3218050  11.8018040 124.3532730
   4.7614150  12.1280100 124.6894140  14.1574770  16.1509710 121.8559590
  13.6956300  15.3796950 122.1846760  14.9700320  16.1775780 122.3612040
   4.1334430  16.0909420 124.1494240   4.4362470  15.2007160 123.9704460
   4.8778020  16.6479640 123.9216490   2.5625120   7.0171220 117.7378610
   1.6741820   7.3587190 117.6358490   2.8466310   6.8171540 116.8459440
  10.3838080  18.4367720 121.4763580   9.7649520  18.8925220 120.9058020
  11.2389860  18.5919180 121.0753280   9.5776330  14.4206710 123.0830620
   9.5084610  13.4796650 122.9219750  10.3396190  14.5108120 123.6553190
   1.7683000   5.0261230 125.4087240   1.5885840   4.1286980 125.6890000
   1.3663080   5.5733100 126.0834190  10.6081500   7.2277090 123.3099550
  10.9846320   6.3548970 123.1973220  10.5101010   7.5635790 122.4189990
   4.7386510   5.6002720 118.7716990   4.8453260   6.5006450 119.0785750
   3.8278870   5.5520690 118.4811640  14.3905620   4.7227530 120.2427890
  15.2115240   4.2324100 120.2853370  14.4239700   5.3125190 120.9959730
   2.3869670   7.5221730 124.0169580   3.0679780   7.7860100 124.6356980
   2.0717720   6.6822600 124.3507590   6.5794240   8.5689090 123.1042170
   7.0872460   9.0670060 123.7447190   7.1107480   7.7924290 122.9281530
  18.6805170   6.7394280 126.8071520  17.9757340   7.1275990 126.2886630
  18.9463090   7.4344570 127.4092450   4.8630340   3.2087650 127.3705590
   4.8648780   3.7260040 126.5651490   4.0334650   2.7317830 127.3475520
  11.2501430  13.3206960 118.8695490  10.6318700  13.7856410 118.3058210
  11.7624680  14.0134440 119.2865000   6.1133190  12.8482830 125.5479090
   5.7802570  13.4751750 126.1900160   6.2899870  13.3744710 124.7680760
  14.6267100   6.6627910 123.0155430  13.9222670   6.9512800 123.5958540
  14.9879260   7.4728020 122.6554990   4.5445670   4.9197610 125.3776040
   4.8862480   5.7639660 125.0829910   3.6061480   5.0681350 125.4941380
   5.3252290  14.8163630 127.3628270   5.9426290  15.4914710 127.0812720
   4.4645410  15.2251610 127.2715770  16.2429880  16.2803040 125.2782910
  15.5593400  16.9502150 125.2699580  16.7824170  16.4783690 124.5127770
  17.6954020   6.1082700 123.4064640  16.7478930   6.1421680 123.5380070
  18.0204010   6.9221650 123.7914000   8.2273560   2.4079880 121.7020630
   8.5348540   1.8526770 120.9856130   7.2974260   2.5424340 121.5193620
  13.7788620  18.1247170 123.9928090  13.7915780  17.7209460 123.1250350
  13.2263840  18.8994460 123.8889520  15.0734040  14.8463390 119.0818260
  14.9630370  13.9037720 119.2067680  15.0702290  15.2079030 119.9681020
  13.1774060  13.0277010 125.3210700  13.5942850  12.8137120 124.4864160
  13.9013880  13.2849800 125.8919320  10.6154320  10.4728710 118.4380750
   9.6883600  10.4066090 118.6669220  10.7679140  11.4108840 118.3235990
  10.6023400   6.7445710 115.4347910   9.6627070   6.9059670 115.5200370
  10.9206660   7.4631390 114.8883900  17.1236160  11.4264230 125.4126940
  16.2954790  11.4957320 124.9377070  17.7186640  12.0118540 124.9442770
  14.6451610  12.0349010 118.9416000  14.0264030  11.6968560 118.2942300
  14.6276060  11.3908770 119.6495190  14.0878170   8.2133550 126.3581810
  13.6749350   9.0387260 126.6121800  13.3554120   7.6278590 126.1658170
   6.2210960  10.9993450 121.2200480   5.8167960  10.2870700 120.7246380
   6.3074080  10.6546690 122.1088520   6.6892660  14.6861010 123.3839690
   6.3920950  14.0806480 122.7047470   7.6392480  14.7238320 123.2729050
   4.9339580   7.7736660 124.9999520   5.4854170   7.8832000 124.2252770
   5.4483090   8.1474260 125.7154750  14.7778270  18.2592880 127.0462790
  14.3008830  19.0665070 126.8535400  14.0940060  17.6071210 127.1989000
   5.7811090  14.4242700 130.0347490   4.8839620  14.6482670 130.2820890
   5.8063960  14.5477640 129.0858890  12.8216310  11.2735820 115.9488750
  13.2609590  10.4358250 115.8026570  13.5344730  11.9065220 116.0352890
   4.6082310  11.2956020 128.6104860   4.4690080  12.1678820 128.9792260
   3.7263670  10.9528830 128.4652800  10.9311690  16.2131890 119.9169990
  11.3707600  16.9556220 119.5025380  10.8698580  16.4558460 120.8408950
   6.4062660  17.2377720 130.8190010   6.3778090  17.6420670 129.9518440
   6.2427630  16.3088080 130.6561610  16.4033450   2.5278630 114.2629790
  16.0906110   2.6205460 115.1628860  17.1645920   3.1059660 114.2127220
   2.9215590   9.8938430 118.7207130   2.8013190  10.6200520 118.1088400
   2.6116480   9.1241340 118.2435040  18.3577480  18.0204820 132.1154180
  18.8337200  18.4987710 132.7943260  18.9784640  17.9522310 131.3899680
   1.8048590  14.7653760 120.9381950   1.3976670  14.9068350 120.0835550
   2.6961600  14.4813920 120.7353160  17.7610730  15.2117670 129.2754190
  17.8873790  14.9729550 128.3571370  17.8032110  14.3802210 129.7476270
  11.6227470  18.9145670 127.8449000  12.1372140  18.8253680 128.6471430
  10.7796550  19.2605370 128.1376910  13.5981870  19.2001010 117.2733000
  13.4383010  18.9103950 118.1714830  13.4328580  18.4241140 116.7378230
   6.0770250  18.9799540 119.0504620   5.9012730  18.0635080 118.8372420
   5.2225990  19.3386830 119.2902420  13.3008000  16.7088570 115.8331000
  12.6073160  16.7065860 115.1733280  14.0430860  16.2847890 115.4025170
  12.8657930  18.3351280 119.9079490  13.3214880  17.5540660 120.2218110
  13.2050450  19.0458100 120.4520670  17.6134740   7.2650130 130.2403930
  16.9979010   7.7729800 129.7119390  17.2931160   6.3648460 130.1829870
   5.3879250   3.2373500 122.1030800   4.9447400   4.0183040 121.7715320
   5.9464240   3.5603390 122.8101740   9.6749060   6.1042020 127.7066120
   9.2128430   6.3125040 128.5186060   9.2727170   5.2901370 127.4036790
  14.6753570   7.3250970 128.8362780  13.8247160   7.0256720 129.1571850
  14.5155360   7.5692980 127.9246600  11.7703280   8.8252720 130.9361570
  12.0956690   7.9916470 130.5963800  12.5583610   9.3481240 131.0839900
   8.5038070   2.8584200 116.9836630   7.8792250   2.8544070 117.7089940
   8.4168190   1.9915160 116.5872600   7.4255150   3.7820830 123.9620400
   7.7227480   4.6883660 123.8812420   7.9740710   3.2939610 123.3479970
   5.1793470   8.3607070 119.8312050   4.9534390   8.1444240 120.7358670
   4.3986000   8.7935530 119.4858020  12.4091230   8.3670440 118.4302700
  11.8100120   9.0906240 118.2466320  12.9570840   8.3047220 117.6479150
   7.6192680   9.2592650 130.4972320   7.5236280   8.3187380 130.3472720
   8.4624660   9.4807720 130.1020390  11.0156100   7.0033980 120.4605980
  11.4085670   7.3206180 119.6474670  11.3772950   6.1245860 120.5750500
   2.7503220   5.6706320 128.6506100   2.3566610   6.5181530 128.8578880
   2.0621620   5.0332690 128.8414740   9.3248270   5.7541290 131.7202840
   8.6346590   5.5613490 132.3548930  10.0680570   6.0375930 132.2527140
  11.6011240   9.5939730 124.5556760  10.8692360  10.1026540 124.9046860
  11.2035580   8.7769710 124.2545540   8.0388630   6.2693930 122.9609250
   8.0424690   5.8283880 122.1113790   8.9339750   6.5911260 123.0681070
   3.8891010   6.1520420 121.9203460   3.5491060   6.6295650 122.6770510
   3.1268330   5.6985540 121.5604560   8.1008780   7.2706010 115.9516010
   8.2221600   7.2292490 116.9001830   7.7157290   8.1330160 115.7962740
  12.0637150   5.0473410 123.9679700  12.0809890   5.4982060 124.8121550
  11.8152730   4.1479050 124.1813140   7.1130280   9.5807150 115.3499310
   6.5447180   9.1325400 114.7235220   7.8219280   9.9399930 114.8164460
  15.4907900   2.4605590 129.8066080  15.8153670   1.7295250 130.3324060
  15.5264410   2.1419230 128.9047070   2.1899460  13.4819170 129.2266040
   1.8054250  12.8412840 129.8249000   2.5011650  14.1855290 129.7960770
   8.3396600  10.3295710 124.7074660   8.7066730   9.8554280 125.4536000
   8.1501660  11.2037280 125.0483000   6.1295970   9.3704350 127.0258870
   5.8253040  10.2496330 127.2509230   7.0842430   9.4304140 127.0616310
   4.6577760  13.5765340 117.6225720   3.8840020  13.0362960 117.4624440
   5.3872390  13.0571950 117.2843480  15.4165740  12.5730700 123.4152110
  16.1364860  13.0685990 123.0248220  15.2147560  11.8948590 122.7705980
  10.8775680   3.9668660 117.5581500  10.0640290   3.4681830 117.4826810
  10.6837630   4.8066910 117.1417850  10.7984540  12.6439760 129.3021110
  10.7321850  11.7235430 129.0478700  10.1689680  12.7415200 130.0165750
  13.5924070   8.3388310 115.8543660  14.4803690   8.6505540 115.6795000
  13.5629160   7.4660560 115.4624240   4.7015160  13.2445720 121.2604530
   5.2193830  12.4413980 121.2061420   4.2499180  13.1824860 122.1021360
   9.5884660  14.5112000 116.5331830   9.9300360  15.2554230 116.0375150
   8.7597370  14.8243120 116.8956660   2.1859700  10.2107090 128.1730230
   1.8274640  10.8760940 128.7603570   1.8914260   9.3790640 128.5442850
   5.3872820  10.6691330 131.0569780   5.0872960  10.8148510 130.1597600
   6.1584060  10.1096620 130.9643170  10.7301270  15.4660330 129.0524910
  10.7445810  14.5341290 128.8343820  10.0226370  15.5520090 129.6914680
  15.8638340   9.6500150 115.3223520  15.7802060  10.0814370 114.4719960
  16.5832530  10.1098500 115.7550340  16.9412480  12.1067670 128.3993490
  16.2160670  12.6996450 128.2022880  17.4687940  12.0991210 127.6006860
  16.8925590  16.5042410 118.0505650  16.2501750  15.8498030 118.3249370
  16.5056250  16.9097500 117.2746320  12.4712070  13.8327840 121.8977340
  12.8235890  13.2355970 121.2378710  11.5874400  13.5072070 122.0685590
   8.5575350  14.5925530 119.3047750   9.2446480  15.1394740 119.6855340
   7.7707770  15.1366260 119.3397360   7.8602560  11.5971560 118.9173110
   8.3165340  12.4076810 119.1433300   7.5090770  11.2794700 119.7491600
  10.1635170  17.1077900 126.1465410  10.8077390  17.3137280 126.8238830
  10.5264610  16.3466300 125.6936260   3.7614340   1.9409210 119.3895630
   3.6328970   1.9327110 120.3380550   2.9376360   2.2792300 119.0386640
  11.4367250  15.1110250 124.8642860  12.0789480  14.4103410 124.9775030
  11.9616600  15.8908690 124.6839750  15.2822970  15.3958870 114.5882000
  15.0560550  14.6789310 115.1806640  14.8919170  15.1471310 113.7503750
  13.2104870  15.9105150 128.0678920  13.5461110  16.4971840 128.7456840
  12.2905210  15.7797860 128.2976710  14.8639220  13.3130810 116.2496160
  14.5760920  13.7743500 117.0374040  15.6591390  12.8528580 116.5180380
   9.0393450  15.9596480 131.2366980   8.7190320  15.2405720 131.7812670
   8.3651810  16.6351550 131.3103040   7.0807620  16.8056930 116.1800130
   7.0717720  17.5386620 115.5644640   6.1605980  16.5588510 116.2727090
   2.6814260  12.0271820 116.9246890   2.0742210  12.7670720 116.9342190
   3.1563610  12.1171180 116.0985090  12.2547050   6.1922640 126.6003780
  12.6227870   5.3717850 126.9283350  11.3945250   6.2524530 127.0159430
  15.6209080   5.1479580 117.4091340  14.9922240   5.2525250 116.6949570
  15.1261000   5.3676360 118.1985220  10.0667220  16.8685170 114.8425320
  10.1679200  16.6649160 113.9127300   9.1668960  16.6143450 115.0473100
   7.5893110   7.4265530 118.8249220   6.8809260   7.8951870 119.2662830
   7.8737590   6.7687540 119.4594410   9.2149040   8.8462230 126.8241750
   9.7134290   9.3208050 127.4893600   9.3571990   7.9225750 127.0311780
  11.6208540   4.1516190 120.2645010  11.4976320   4.1702320 119.3154520
  12.5693100   4.1995130 120.3843410   8.7085330  19.3871490 119.5372990
   8.9626830  19.3492880 118.6152360   7.7597810  19.2604820 119.5301240
   5.7928130   5.7350610 116.1999930   6.6418660   6.1720760 116.1340120
   5.4259400   6.0470870 117.0271990  16.4215900   5.0630190 127.6670140
  15.9189500   5.8035590 128.0063950  17.2372560   5.4514190 127.3506930
  14.7137910  10.3063370 121.1131500  13.7728050  10.3213600 121.2879190
  15.0281980   9.5199330 121.5591800   4.6919550  11.9882970 114.6735460
   5.4582820  11.8764330 115.2360890   4.7694240  11.2920940 114.0212230
   3.3866310   9.4208040 115.3568350   3.4669900   8.4735550 115.4685750
   4.2786060   9.7514920 115.4629010  16.7163490  17.4772220 122.7885760
  16.8410910  18.3003390 123.2609570  17.5829050  17.2662950 122.4409910
   4.1881020  19.5703430 122.4602890   4.9243500  19.0218890 122.7311460
   4.5721940  20.4359440 122.3208880   3.1939300  18.7549500 131.6488470
   3.9952030  19.0761550 132.0623870   2.6791120  18.3945080 132.3708380
   7.2983330  18.7433740 114.2828460   8.0911940  19.0322570 113.8310250
   6.7787680  18.3125910 113.6040940  12.0303930  14.8629370 131.5963880
  11.4242090  14.8860970 130.8559630  11.7258040  14.1312410 132.1331130
  13.4604300  18.5909660 130.2073290  14.4126050  18.5067680 130.1573530
  13.3132520  19.2551370 130.8807080  16.3513500  17.9703870 115.7065200
  16.0655010  17.5569010 114.8919380  16.1533050  18.8991580 115.5865720
   7.8160730  13.9637150 114.1470810   7.7111370  13.3489500 114.8732190
   7.6484950  13.4403040 113.3633820   7.9675050  12.6493950 130.1260040
   7.2020720  13.2178950 130.0414710   8.1491010  12.3570160 129.2328270
  11.0563460  13.0257180 114.7512800  10.5073560  13.4726480 115.3955540
  11.6782720  12.5206430 115.2750470  15.1098400  14.3799280 130.6835060
  15.8507870  14.7175040 130.1802520  14.3471080  14.5491340 130.1304830
   2.9460190   9.3852550 131.4874590   2.9865530   9.0866420 132.3959820
   3.8005690   9.7860160 131.3282110   6.7238580  11.9848100 116.6478100
   7.1455000  11.8187970 117.4909490   6.8489420  11.1748330 116.1533240
   4.8866000   7.9644650 129.4549080   4.3562460   7.4735600 128.8272420
   5.5554070   8.3928850 128.9207010   9.2366220  11.0085710 113.8955200
   9.7571880  10.2934730 113.5296350   9.8834620  11.6471580 114.1955710
  13.7844060  12.4314110 129.2190270  14.1985080  12.5859190 130.0680690
  12.8495060  12.5569330 129.3816050  14.2566230   9.7710270 131.2229420
  14.8387000   9.0162590 131.1349900  14.4328000  10.3017710 130.4460900
   5.3738300   4.9307020 129.5346370   5.2795170   4.3127770 128.8097240
   4.7935690   5.6573310 129.3076280   8.1399740   3.4880260 126.5673760
   7.6917040   3.5104520 125.7219310   7.5064940   3.0899280 127.1644060
   8.5459290  12.3834590 127.1886200   8.9647400  13.2267320 127.0162440
   7.6267920  12.5206630 126.9592980  10.8823190  10.1150770 128.5724040
  11.0019400   9.5191910 129.3118880  11.7417190  10.1520460 128.1525340
  13.2211090  10.6687960 127.1486550  12.6946310  11.1930580 126.5451690
  13.5642430  11.3015350 127.7796280   5.6197480   8.0581330 113.5936260
   5.4186540   7.1948690 113.9549600   5.4489530   7.9714690 112.6557860
   6.3966710  18.6887600 128.3043930   5.8587800  19.4133660 127.9852630
   6.6500670  18.2117940 127.5141270   7.6491960   6.6572120 129.8299860
   8.2391650   6.3487970 130.5177680   6.8312200   6.1851870 129.9859760
  12.4685390   6.2737930 130.0632880  11.7800910   5.6119470 129.9982870
  13.1891410   5.8276200 130.5081340  13.0985790   2.8689560 116.1223140
  13.3788080   2.0257460 116.4782560  12.3251520   3.1012670 116.6361890
   4.4180280   5.1581950 113.5814140   4.7206180   5.1649380 112.6733290
   5.1574870   4.8079810 114.0781800   9.2528920  19.9238810 128.5630580
   9.1787620  20.8273950 128.8702950   8.3507760  19.6050710 128.5352650
   7.6365210   4.1016570 114.5670340   7.2887210   3.4240560 113.9872790
   7.8377980   3.6406080 115.3813730   9.8014250  19.0897320 116.1856940
  10.6965040  19.4282290 116.2075700   9.8331880  18.3676730 115.5581220
   3.4410410  14.4624370 114.4143940   3.8785280  15.0054040 115.0701520
   3.9258140  13.6371320 114.4240280   5.2518130  15.5822410 119.5266170
   4.9513670  15.4587380 120.4270080   5.1455620  14.7231000 119.1181900
  16.7808600  17.6200990 128.8923140  16.1810590  17.6793550 128.1487060
  16.9102500  16.6805970 129.0219990  18.0210050  15.3618810 114.2292850
  17.1903010  15.4295460 114.7000080  18.1981880  16.2522930 113.9259710
  17.4766510  12.1066290 116.7327050  18.2385420  12.6762940 116.8386740
  17.4920880  11.5393490 117.5035360  18.4826480  12.9616390 121.5768980
  18.8535310  12.1783710 121.1704950  19.1228410  13.6505490 121.3986280
  15.4660240  14.3452970 126.9899300  14.6520080  14.7750130 127.2525090
  15.8734440  14.9571380 126.3768350  17.5285680  12.4000660 113.8899570
  17.8034520  13.3079540 113.7618790  17.3396420  12.3363190 114.8261560
  13.9261290   5.4245510 115.1853200  14.3446170   5.2376490 114.3449860
  13.6197350   4.5724560 115.4956130  17.4251020  10.3369650 118.8829000
  17.0494620   9.5697580 118.4510290  16.6954140  10.7192350 119.3703930
   2.0146780  11.0156790 125.5038050   2.3819820  10.9284190 126.3834070
   1.4457600  10.2523340 125.4044910  16.8150640   9.4841170 128.5168520
  16.5836730   9.2553920 127.6166470  17.0755190  10.4040720 128.4713410
  15.2538710   4.7097600 131.2948220  16.1308890   4.7181000 131.6782220
  15.2659550   3.9728440 130.6840570  16.7001980   8.5627140 122.1836240
  17.2239460   8.0689790 121.5526410  17.2861400   8.6977500 122.9283810
  16.8791700   8.6467010 125.7055790  15.9294410   8.6130550 125.8200780
  17.0604710   9.5567120 125.4705560   2.7336140   6.8968690 114.8154420
   3.4427840   6.4751910 114.3301700   2.0176080   6.9643920 114.1837770
   2.3810300   2.9508020 113.8557070   3.1038430   3.4916960 114.1738290
   2.6534820   2.6771440 112.9798610  16.1901950   7.8200490 118.1228650
  16.6861070   7.5871360 118.9077530  15.9918020   6.9812330 117.7066290
   2.0702490   2.2014210 123.7579690   2.7178680   1.6511590 123.3174850
   2.4904330   2.4557360 124.5795500  17.6189110   6.4561440 120.6566330
  17.5088390   6.3017480 121.5948600  18.3796700   5.9282380 120.4141740
  15.9654830   2.3955570 127.1149330  16.6027050   3.0089710 127.4808520
  16.1129720   2.4316230 126.1698560  18.5079380   4.2869360 113.8972470
  19.4328690   4.1550540 113.6890760  18.4855170   4.3662180 114.8508920
  18.5817870   5.0580020 116.5229180  17.7869370   4.9925140 117.0522090
  18.7861150   5.9930660 116.5114530  15.5236290  19.0971570 120.5167570
  16.1195360  18.7756140 119.8401990  15.7814440  18.6243390 121.3080840
   1.8234490   2.3569880 126.5005010   1.4749310   2.8133700 127.2663190
   1.4922190   1.4627010 126.5827440   3.4298860  15.5289480 130.6658200
   3.3868490  15.1582390 131.5472660   3.5609870  16.4667050 130.8060020
   7.1304890  17.0849070 126.2667920   6.8896250  17.3523630 125.3798440
   8.0707530  17.2554800 126.3218780   9.3359310   3.5481760 130.0224430
   9.2748200   4.1403590 130.7719840  10.2759690   3.4407720 129.8774690
  11.9733870   3.2051820 129.6616720  12.5874280   3.5231110 128.9997800
  12.5183430   2.7200410 130.2812580  18.3909050  19.1043450 127.0678560
  17.8967330  19.5012320 126.3505690  17.7822340  18.4792660 127.4615840
   3.2686890  18.4751730 127.7855980   2.6747210  18.3436430 128.5246020
   3.2610730  17.6389870 127.3198080  13.6213890   3.9754830 127.3727730
  13.2927250   3.1606590 126.9929460  14.5696190   3.9324640 127.2493420
  16.0748500  19.7466870 124.3465300  15.6151470  20.4982680 123.9723320
  15.4460960  19.0273340 124.2880100   2.8999120  15.8410110 126.7364020
   2.1733180  15.2215400 126.6689970   2.9608270  16.2350720 125.8662100
   6.5044220  18.0555110 123.5213430   7.0209240  17.4442470 122.9961690
   7.1541600  18.5583890 124.0124440   9.2439720  18.9463600 124.3482410
   9.5317530  18.6917900 123.4715420   9.7562940  18.3940960 124.9387980
  10.4616730   2.6853800 124.9278920   9.6788520   3.1599300 125.2075680
  10.1679660   1.7808630 124.8192100  15.0137800   3.3876900 122.9728010
  15.4545890   3.3322000 122.1249610  14.7445390   4.3034910 123.0438190
  16.8776370   3.0192140 120.9836830  16.8164770   2.0753360 120.8367850
  17.6568400   3.1272230 121.5290290   1.8057140   2.9901280 117.4492640
   2.5636500   3.1030160 116.8756670   1.3434310   3.8270480 117.4036070
   8.3470950   5.1040550 120.4394950   7.5345460   4.7297440 120.0990830
   8.8512590   4.3485630 120.7416140  12.8495930   1.7683000 121.6778020
  13.4525300   2.3403210 122.1526540  12.1088920   2.3322440 121.4551920
  15.9930530   2.1704560 116.9518300  16.1881160   3.0688010 117.2185730
  15.2060400   1.9391640 117.4451250   2.7891820  17.8517730 117.3910920
   2.2639440  18.2325760 116.6872880   2.7136400  18.4768500 118.1120630
   4.1782290   3.5165330 115.9894610   4.7075050   2.7295130 115.8602560
   4.8110610   4.1956520 116.2230140   6.3720130   3.2540470 119.0440000
   5.7422870   2.5527780 119.2110130   5.8325270   4.0144600 118.8273160
   9.3112080  19.8679700 131.7150610  10.2379390  19.6323970 131.7586570
   9.2962510  20.6951700 131.2336640  17.5457140  19.4105270 118.7124860
  17.7209330  18.7243010 118.0685780  16.8478710  19.9352320 118.3201530
   6.4975690   2.5324450 131.4792490   6.2159960   3.0358050 130.7153310
   6.8795390   1.7346200 131.1134620   5.3884790  19.8000110 116.2660170
   6.1203610  19.5159390 115.7184060   5.6478460  19.5613390 117.1559550
   4.5499580  15.9164840 116.2706500   3.9208460  16.3849940 116.8192330
   4.6647410  15.0714060 116.7052690  13.0991150   1.9478030 132.0572960
  12.9856600   2.2672640 132.9524480  13.9160890   2.3490540 131.7610240
  15.8789640  19.0949560 131.5391650  16.6714960  18.5998790 131.3317610
  16.1722790  19.7739700 132.1467260  12.0049300   9.9670500 102.4207700
  11.9243350   9.0525110 102.1499410  11.5913720  10.4637570 101.7147410
  10.1367340  11.7449520 104.3016970   9.3609440  11.2649960 104.5915540
  10.7880270  11.0655170 104.1273130   4.1533170  12.0569330 105.1792730
   3.3218050  11.8018040 105.5789240   4.7614150  12.1280100 105.9150650
  14.1574770  16.1509710 103.0816100  13.6956300  15.3796950 103.4103270
  14.9700320  16.1775780 103.5868550   4.1334430  16.0909420 105.3750750
   4.4362470  15.2007160 105.1960970   4.8778020  16.6479640 105.1473000
   2.5625120   7.0171220  98.9635120   1.6741820   7.3587190  98.8615000
   2.8466310   6.8171540  98.0715950  10.3838080  18.4367720 102.7020090
   9.7649520  18.8925220 102.1314530  11.2389860  18.5919180 102.3009790
   9.5776330  14.4206710 104.3087130   9.5084610  13.4796650 104.1476260
  10.3396190  14.5108120 104.8809700   1.7683000   5.0261230 106.6343750
   1.5885840   4.1286980 106.9146510   1.3663080   5.5733100 107.3090700
  10.6081500   7.2277090 104.5356060  10.9846320   6.3548970 104.4229730
  10.5101010   7.5635790 103.6446500   4.7386510   5.6002720  99.9973500
   4.8453260   6.5006450 100.3042260   3.8278870   5.5520690  99.7068150
  14.3905620   4.7227530 101.4684400  15.2115240   4.2324100 101.5109880
  14.4239700   5.3125190 102.2216240   2.3869670   7.5221730 105.2426090
   3.0679780   7.7860100 105.8613490   2.0717720   6.6822600 105.5764100
   6.5794240   8.5689090 104.3298680   7.0872460   9.0670060 104.9703700
   7.1107480   7.7924290 104.1538040  18.6805170   6.7394280 108.0328030
  17.9757340   7.1275990 107.5143140  18.9463090   7.4344570 108.6348960
   4.8630340   3.2087650 108.5962100   4.8648780   3.7260040 107.7908000
   4.0334650   2.7317830 108.5732030  11.2501430  13.3206960 100.0952000
  10.6318700  13.7856410  99.5314720  11.7624680  14.0134440 100.5121510
   6.1133190  12.8482830 106.7735600   5.7802570  13.4751750 107.4156670
   6.2899870  13.3744710 105.9937270  14.6267100   6.6627910 104.2411940
  13.9222670   6.9512800 104.8215050  14.9879260   7.4728020 103.8811500
   4.5445670   4.9197610 106.6032550   4.8862480   5.7639660 106.3086420
   3.6061480   5.0681350 106.7197890   5.3252290  14.8163630 108.5884780
   5.9426290  15.4914710 108.3069230   4.4645410  15.2251610 108.4972280
  16.2429880  16.2803040 106.5039420  15.5593400  16.9502150 106.4956090
  16.7824170  16.4783690 105.7384280  17.6954020   6.1082700 104.6321150
  16.7478930   6.1421680 104.7636580  18.0204010   6.9221650 105.0170510
   8.2273560   2.4079880 102.9277140   8.5348540   1.8526770 102.2112640
   7.2974260   2.5424340 102.7450130  13.7788620  18.1247170 105.2184600
  13.7915780  17.7209460 104.3506860  13.2263840  18.8994460 105.1146030
  15.0734040  14.8463390 100.3074770  14.9630370  13.9037720 100.4324190
  15.0702290  15.2079030 101.1937530  13.1774060  13.0277010 106.5467210
  13.5942850  12.8137120 105.7120670  13.9013880  13.2849800 107.1175830
  10.6154320  10.4728710  99.6637260   9.6883600  10.4066090  99.8925730
  10.7679140  11.4108840  99.5492500  10.6023400   6.7445710  96.6604420
   9.6627070   6.9059670  96.7456880  10.9206660   7.4631390  96.1140410
  17.1236160  11.4264230 106.6383450  16.2954790  11.4957320 106.1633580
  17.7186640  12.0118540 106.1699280  14.6451610  12.0349010 100.1672510
  14.0264030  11.6968560  99.5198810  14.6276060  11.3908770 100.8751700
  14.0878170   8.2133550 107.5838320  13.6749350   9.0387260 107.8378310
  13.3554120   7.6278590 107.3914680   6.2210960  10.9993450 102.4456990
   5.8167960  10.2870700 101.9502890   6.3074080  10.6546690 103.3345030
   6.6892660  14.6861010 104.6096200   6.3920950  14.0806480 103.9303980
   7.6392480  14.7238320 104.4985560   4.9339580   7.7736660 106.2256030
   5.4854170   7.8832000 105.4509280   5.4483090   8.1474260 106.9411260
  14.7778270  18.2592880 108.2719300  14.3008830  19.0665070 108.0791910
  14.0940060  17.6071210 108.4245510   5.7811090  14.4242700 111.2604000
   4.8839620  14.6482670 111.5077400   5.8063960  14.5477640 110.3115400
  12.8216310  11.2735820  97.1745260  13.2609590  10.4358250  97.0283080
  13.5344730  11.9065220  97.2609400   4.6082310  11.2956020 109.8361370
   4.4690080  12.1678820 110.2048770   3.7263670  10.9528830 109.6909310
  10.9311690  16.2131890 101.1426500  11.3707600  16.9556220 100.7281890
  10.8698580  16.4558460 102.0665460   6.4062660  17.2377720 112.0446520
   6.3778090  17.6420670 111.1774950   6.2427630  16.3088080 111.8818120
  16.4033450   2.5278630  95.4886300  16.0906110   2.6205460  96.3885370
  17.1645920   3.1059660  95.4383730   2.9215590   9.8938430  99.9463640
   2.8013190  10.6200520  99.3344910   2.6116480   9.1241340  99.4691550
  18.3577480  18.0204820 113.3410690  18.8337200  18.4987710 114.0199770
  18.9784640  17.9522310 112.6156190   1.8048590  14.7653760 102.1638460
   1.3976670  14.9068350 101.3092060   2.6961600  14.4813920 101.9609670
  17.7610730  15.2117670 110.5010700  17.8873790  14.9729550 109.5827880
  17.8032110  14.3802210 110.9732780  11.6227470  18.9145670 109.0705510
  12.1372140  18.8253680 109.8727940  10.7796550  19.2605370 109.3633420
  13.5981870  19.2001010  98.4989510  13.4383010  18.9103950  99.3971340
  13.4328580  18.4241140  97.9634740   6.0770250  18.9799540 100.2761130
   5.9012730  18.0635080 100.0628930   5.2225990  19.3386830 100.5158930
  13.3008000  16.7088570  97.0587510  12.6073160  16.7065860  96.3989790
  14.0430860  16.2847890  96.6281680  12.8657930  18.3351280 101.1336000
  13.3214880  17.5540660 101.4474620  13.2050450  19.0458100 101.6777180
  17.6134740   7.2650130 111.4660440  16.9979010   7.7729800 110.9375900
  17.2931160   6.3648460 111.4086380   5.3879250   3.2373500 103.3287310
   4.9447400   4.0183040 102.9971830   5.9464240   3.5603390 104.0358250
   9.6749060   6.1042020 108.9322630   9.2128430   6.3125040 109.7442570
   9.2727170   5.2901370 108.6293300  14.6753570   7.3250970 110.0619290
  13.8247160   7.0256720 110.3828360  14.5155360   7.5692980 109.1503110
  11.7703280   8.8252720 112.1618080  12.0956690   7.9916470 111.8220310
  12.5583610   9.3481240 112.3096410   8.5038070   2.8584200  98.2093140
   7.8792250   2.8544070  98.9346450   8.4168190   1.9915160  97.8129110
   7.4255150   3.7820830 105.1876910   7.7227480   4.6883660 105.1068930
   7.9740710   3.2939610 104.5736480   5.1793470   8.3607070 101.0568560
   4.9534390   8.1444240 101.9615180   4.3986000   8.7935530 100.7114530
  12.4091230   8.3670440  99.6559210  11.8100120   9.0906240  99.4722830
  12.9570840   8.3047220  98.8735660   7.6192680   9.2592650 111.7228830
   7.5236280   8.3187380 111.5729230   8.4624660   9.4807720 111.3276900
  11.0156100   7.0033980 101.6862490  11.4085670   7.3206180 100.8731180
  11.3772950   6.1245860 101.8007010   2.7503220   5.6706320 109.8762610
   2.3566610   6.5181530 110.0835390   2.0621620   5.0332690 110.0671250
   9.3248270   5.7541290 112.9459350   8.6346590   5.5613490 113.5805440
  10.0680570   6.0375930 113.4783650  11.6011240   9.5939730 105.7813270
  10.8692360  10.1026540 106.1303370  11.2035580   8.7769710 105.4802050
   8.0388630   6.2693930 104.1865760   8.0424690   5.8283880 103.3370300
   8.9339750   6.5911260 104.2937580   3.8891010   6.1520420 103.1459970
   3.5491060   6.6295650 103.9027020   3.1268330   5.6985540 102.7861070
   8.1008780   7.2706010  97.1772520   8.2221600   7.2292490  98.1258340
   7.7157290   8.1330160  97.0219250  12.0637150   5.0473410 105.1936210
  12.0809890   5.4982060 106.0378060  11.8152730   4.1479050 105.4069650
   7.1130280   9.5807150  96.5755820   6.5447180   9.1325400  95.9491730
   7.8219280   9.9399930  96.0420970  15.4907900   2.4605590 111.0322590
  15.8153670   1.7295250 111.5580570  15.5264410   2.1419230 110.1303580
   2.1899460  13.4819170 110.4522550   1.8054250  12.8412840 111.0505510
   2.5011650  14.1855290 111.0217280   8.3396600  10.3295710 105.9331170
   8.7066730   9.8554280 106.6792510   8.1501660  11.2037280 106.2739510
   6.1295970   9.3704350 108.2515380   5.8253040  10.2496330 108.4765740
   7.0842430   9.4304140 108.2872820   4.6577760  13.5765340  98.8482230
   3.8840020  13.0362960  98.6880950   5.3872390  13.0571950  98.5099990
  15.4165740  12.5730700 104.6408620  16.1364860  13.0685990 104.2504730
  15.2147560  11.8948590 103.9962490  10.8775680   3.9668660  98.7838010
  10.0640290   3.4681830  98.7083320  10.6837630   4.8066910  98.3674360
  10.7984540  12.6439760 110.5277620  10.7321850  11.7235430 110.2735210
  10.1689680  12.7415200 111.2422260  13.5924070   8.3388310  97.0800170
  14.4803690   8.6505540  96.9051510  13.5629160   7.4660560  96.6880750
   4.7015160  13.2445720 102.4861040   5.2193830  12.4413980 102.4317930
   4.2499180  13.1824860 103.3277870   9.5884660  14.5112000  97.7588340
   9.9300360  15.2554230  97.2631660   8.7597370  14.8243120  98.1213170
   2.1859700  10.2107090 109.3986740   1.8274640  10.8760940 109.9860080
   1.8914260   9.3790640 109.7699360   5.3872820  10.6691330 112.2826290
   5.0872960  10.8148510 111.3854110   6.1584060  10.1096620 112.1899680
  10.7301270  15.4660330 110.2781420  10.7445810  14.5341290 110.0600330
  10.0226370  15.5520090 110.9171190  15.8638340   9.6500150  96.5480030
  15.7802060  10.0814370  95.6976470  16.5832530  10.1098500  96.9806850
  16.9412480  12.1067670 109.6250000  16.2160670  12.6996450 109.4279390
  17.4687940  12.0991210 108.8263370  16.8925590  16.5042410  99.2762160
  16.2501750  15.8498030  99.5505880  16.5056250  16.9097500  98.5002830
  12.4712070  13.8327840 103.1233850  12.8235890  13.2355970 102.4635220
  11.5874400  13.5072070 103.2942100   8.5575350  14.5925530 100.5304260
   9.2446480  15.1394740 100.9111850   7.7707770  15.1366260 100.5653870
   7.8602560  11.5971560 100.1429620   8.3165340  12.4076810 100.3689810
   7.5090770  11.2794700 100.9748110  10.1635170  17.1077900 107.3721920
  10.8077390  17.3137280 108.0495340  10.5264610  16.3466300 106.9192770
   3.7614340   1.9409210 100.6152140   3.6328970   1.9327110 101.5637060
   2.9376360   2.2792300 100.2643150  11.4367250  15.1110250 106.0899370
  12.0789480  14.4103410 106.2031540  11.9616600  15.8908690 105.9096260
  15.2822970  15.3958870  95.8138510  15.0560550  14.6789310  96.4063150
  14.8919170  15.1471310  94.9760260  13.2104870  15.9105150 109.2935430
  13.5461110  16.4971840 109.9713350  12.2905210  15.7797860 109.5233220
  14.8639220  13.3130810  97.4752670  14.5760920  13.7743500  98.2630550
  15.6591390  12.8528580  97.7436890   9.0393450  15.9596480 112.4623490
   8.7190320  15.2405720 113.0069180   8.3651810  16.6351550 112.5359550
   7.0807620  16.8056930  97.4056640   7.0717720  17.5386620  96.7901150
   6.1605980  16.5588510  97.4983600   2.6814260  12.0271820  98.1503400
   2.0742210  12.7670720  98.1598700   3.1563610  12.1171180  97.3241600
  12.2547050   6.1922640 107.8260290  12.6227870   5.3717850 108.1539860
  11.3945250   6.2524530 108.2415940  15.6209080   5.1479580  98.6347850
  14.9922240   5.2525250  97.9206080  15.1261000   5.3676360  99.4241730
  10.0667220  16.8685170  96.0681830  10.1679200  16.6649160  95.1383810
   9.1668960  16.6143450  96.2729610   7.5893110   7.4265530 100.0505730
   6.8809260   7.8951870 100.4919340   7.8737590   6.7687540 100.6850920
   9.2149040   8.8462230 108.0498260   9.7134290   9.3208050 108.7150110
   9.3571990   7.9225750 108.2568290  11.6208540   4.1516190 101.4901520
  11.4976320   4.1702320 100.5411030  12.5693100   4.1995130 101.6099920
   8.7085330  19.3871490 100.7629500   8.9626830  19.3492880  99.8408870
   7.7597810  19.2604820 100.7557750   5.7928130   5.7350610  97.4256440
   6.6418660   6.1720760  97.3596630   5.4259400   6.0470870  98.2528500
  16.4215900   5.0630190 108.8926650  15.9189500   5.8035590 109.2320460
  17.2372560   5.4514190 108.5763440  14.7137910  10.3063370 102.3388010
  13.7728050  10.3213600 102.5135700  15.0281980   9.5199330 102.7848310
   4.6919550  11.9882970  95.8991970   5.4582820  11.8764330  96.4617400
   4.7694240  11.2920940  95.2468740   3.3866310   9.4208040  96.5824860
   3.4669900   8.4735550  96.6942260   4.2786060   9.7514920  96.6885520
  16.7163490  17.4772220 104.0142270  16.8410910  18.3003390 104.4866080
  17.5829050  17.2662950 103.6666420   4.1881020  19.5703430 103.6859400
   4.9243500  19.0218890 103.9567970   4.5721940  20.4359440 103.5465390
   3.1939300  18.7549500 112.8744980   3.9952030  19.0761550 113.2880380
   2.6791120  18.3945080 113.5964890   7.2983330  18.7433740  95.5084970
   8.0911940  19.0322570  95.0566760   6.7787680  18.3125910  94.8297450
  12.0303930  14.8629370 112.8220390  11.4242090  14.8860970 112.0816140
  11.7258040  14.1312410 113.3587640  13.4604300  18.5909660 111.4329800
  14.4126050  18.5067680 111.3830040  13.3132520  19.2551370 112.1063590
  16.3513500  17.9703870  96.9321710  16.0655010  17.5569010  96.1175890
  16.1533050  18.8991580  96.8122230   7.8160730  13.9637150  95.3727320
   7.7111370  13.3489500  96.0988700   7.6484950  13.4403040  94.5890330
   7.9675050  12.6493950 111.3516550   7.2020720  13.2178950 111.2671220
   8.1491010  12.3570160 110.4584780  11.0563460  13.0257180  95.9769310
  10.5073560  13.4726480  96.6212050  11.6782720  12.5206430  96.5006980
  15.1098400  14.3799280 111.9091570  15.8507870  14.7175040 111.4059030
  14.3471080  14.5491340 111.3561340   2.9460190   9.3852550 112.7131100
   2.9865530   9.0866420 113.6216330   3.8005690   9.7860160 112.5538620
   6.7238580  11.9848100  97.8734610   7.1455000  11.8187970  98.7166000
   6.8489420  11.1748330  97.3789750   4.8866000   7.9644650 110.6805590
   4.3562460   7.4735600 110.0528930   5.5554070   8.3928850 110.1463520
   9.2366220  11.0085710  95.1211710   9.7571880  10.2934730  94.7552860
   9.8834620  11.6471580  95.4212220  13.7844060  12.4314110 110.4446780
  14.1985080  12.5859190 111.2937200  12.8495060  12.5569330 110.6072560
  14.2566230   9.7710270 112.4485930  14.8387000   9.0162590 112.3606410
  14.4328000  10.3017710 111.6717410   5.3738300   4.9307020 110.7602880
   5.2795170   4.3127770 110.0353750   4.7935690   5.6573310 110.5332790
   8.1399740   3.4880260 107.7930270   7.6917040   3.5104520 106.9475820
   7.5064940   3.0899280 108.3900570   8.5459290  12.3834590 108.4142710
   8.9647400  13.2267320 108.2418950   7.6267920  12.5206630 108.1849490
  10.8823190  10.1150770 109.7980550  11.0019400   9.5191910 110.5375390
  11.7417190  10.1520460 109.3781850  13.2211090  10.6687960 108.3743060
  12.6946310  11.1930580 107.7708200  13.5642430  11.3015350 109.0052790
   5.6197480   8.0581330  94.8192770   5.4186540   7.1948690  95.1806110
   5.4489530   7.9714690  93.8814370   6.3966710  18.6887600 109.5300440
   5.8587800  19.4133660 109.2109140   6.6500670  18.2117940 108.7397780
   7.6491960   6.6572120 111.0556370   8.2391650   6.3487970 111.7434190
   6.8312200   6.1851870 111.2116270  12.4685390   6.2737930 111.2889390
  11.7800910   5.6119470 111.2239380  13.1891410   5.8276200 111.7337850
  13.0985790   2.8689560  97.3479650  13.3788080   2.0257460  97.7039070
  12.3251520   3.1012670  97.8618400   4.4180280   5.1581950  94.8070650
   4.7206180   5.1649380  93.8989800   5.1574870   4.8079810  95.3038310
   9.2528920  19.9238810 109.7887090   9.1787620  20.8273950 110.0959460
   8.3507760  19.6050710 109.7609160   7.6365210   4.1016570  95.7926850
   7.2887210   3.4240560  95.2129300   7.8377980   3.6406080  96.6070240
   9.8014250  19.0897320  97.4113450  10.6965040  19.4282290  97.4332210
   9.8331880  18.3676730  96.7837730   3.4410410  14.4624370  95.6400450
   3.8785280  15.0054040  96.2958030   3.9258140  13.6371320  95.6496790
   5.2518130  15.5822410 100.7522680   4.9513670  15.4587380 101.6526590
   5.1455620  14.7231000 100.3438410  16.7808600  17.6200990 110.1179650
  16.1810590  17.6793550 109.3743570  16.9102500  16.6805970 110.2476500
  18.0210050  15.3618810  95.4549360  17.1903010  15.4295460  95.9256590
  18.1981880  16.2522930  95.1516220  17.4766510  12.1066290  97.9583560
  18.2385420  12.6762940  98.0643250  17.4920880  11.5393490  98.7291870
  18.4826480  12.9616390 102.8025490  18.8535310  12.1783710 102.3961460
  19.1228410  13.6505490 102.6242790  15.4660240  14.3452970 108.2155810
  14.6520080  14.7750130 108.4781600  15.8734440  14.9571380 107.6024860
  17.5285680  12.4000660  95.1156080  17.8034520  13.3079540  94.9875300
  17.3396420  12.3363190  96.0518070  13.9261290   5.4245510  96.4109710
  14.3446170   5.2376490  95.5706370  13.6197350   4.5724560  96.7212640
  17.4251020  10.3369650 100.1085510  17.0494620   9.5697580  99.6766800
  16.6954140  10.7192350 100.5960440   2.0146780  11.0156790 106.7294560
   2.3819820  10.9284190 107.6090580   1.4457600  10.2523340 106.6301420
  16.8150640   9.4841170 109.7425030  16.5836730   9.2553920 108.8422980
  17.0755190  10.4040720 109.6969920  15.2538710   4.7097600 112.5204730
  16.1308890   4.7181000 112.9038730  15.2659550   3.9728440 111.9097080
  16.7001980   8.5627140 103.4092750  17.2239460   8.0689790 102.7782920
  17.2861400   8.6977500 104.1540320  16.8791700   8.6467010 106.9312300
  15.9294410   8.6130550 107.0457290  17.0604710   9.5567120 106.6962070
   2.7336140   6.8968690  96.0410930   3.4427840   6.4751910  95.5558210
   2.0176080   6.9643920  95.4094280   2.3810300   2.9508020  95.0813580
   3.1038430   3.4916960  95.3994800   2.6534820   2.6771440  94.2055120
  16.1901950   7.8200490  99.3485160  16.6861070   7.5871360 100.1334040
  15.9918020   6.9812330  98.9322800   2.0702490   2.2014210 104.9836200
   2.7178680   1.6511590 104.5431360   2.4904330   2.4557360 105.8052010
  17.6189110   6.4561440 101.8822840  17.5088390   6.3017480 102.8205110
  18.3796700   5.9282380 101.6398250  15.9654830   2.3955570 108.3405840
  16.6027050   3.0089710 108.7065030  16.1129720   2.4316230 107.3955070
  18.5079380   4.2869360  95.1228980  19.4328690   4.1550540  94.9147270
  18.4855170   4.3662180  96.0765430  18.5817870   5.0580020  97.7485690
  17.7869370   4.9925140  98.2778600  18.7861150   5.9930660  97.7371040
  15.5236290  19.0971570 101.7424080  16.1195360  18.7756140 101.0658500
  15.7814440  18.6243390 102.5337350   1.8234490   2.3569880 107.7261520
   1.4749310   2.8133700 108.4919700   1.4922190   1.4627010 107.8083950
   3.4298860  15.5289480 111.8914710   3.3868490  15.1582390 112.7729170
   3.5609870  16.4667050 112.0316530   7.1304890  17.0849070 107.4924430
   6.8896250  17.3523630 106.6054950   8.0707530  17.2554800 107.5475290
   9.3359310   3.5481760 111.2480940   9.2748200   4.1403590 111.9976350
  10.2759690   3.4407720 111.1031200  11.9733870   3.2051820 110.8873230
  12.5874280   3.5231110 110.2254310  12.5183430   2.7200410 111.5069090
  18.3909050  19.1043450 108.2935070  17.8967330  19.5012320 107.5762200
  17.7822340  18.4792660 108.6872350   3.2686890  18.4751730 109.0112490
   2.6747210  18.3436430 109.7502530   3.2610730  17.6389870 108.5454590
  13.6213890   3.9754830 108.5984240  13.2927250   3.1606590 108.2185970
  14.5696190   3.9324640 108.4749930  16.0748500  19.7466870 105.5721810
  15.6151470  20.4982680 105.1979830  15.4460960  19.0273340 105.5136610
   2.8999120  15.8410110 107.9620530   2.1733180  15.2215400 107.8946480
   2.9608270  16.2350720 107.0918610   6.5044220  18.0555110 104.7469940
   7.0209240  17.4442470 104.2218200   7.1541600  18.5583890 105.2380950
   9.2439720  18.9463600 105.5738920   9.5317530  18.6917900 104.6971930
   9.7562940  18.3940960 106.1644490  10.4616730   2.6853800 106.1535430
   9.6788520   3.1599300 106.4332190  10.1679660   1.7808630 106.0448610
  15.0137800   3.3876900 104.1984520  15.4545890   3.3322000 103.3506120
  14.7445390   4.3034910 104.2694700  16.8776370   3.0192140 102.2093340
  16.8164770   2.0753360 102.0624360  17.6568400   3.1272230 102.7546800
   1.8057140   2.9901280  98.6749150   2.5636500   3.1030160  98.1013180
   1.3434310   3.8270480  98.6292580   8.3470950   5.1040550 101.6651460
   7.5345460   4.7297440 101.3247340   8.8512590   4.3485630 101.9672650
  12.8495930   1.7683000 102.9034530  13.4525300   2.3403210 103.3783050
  12.1088920   2.3322440 102.6808430  15.9930530   2.1704560  98.1774810
  16.1881160   3.0688010  98.4442240  15.2060400   1.9391640  98.6707760
   2.7891820  17.8517730  98.6167430   2.2639440  18.2325760  97.9129390
   2.7136400  18.4768500  99.3377140   4.1782290   3.5165330  97.2151120
   4.7075050   2.7295130  97.0859070   4.8110610   4.1956520  97.4486650
   6.3720130   3.2540470 100.2696510   5.7422870   2.5527780 100.4366640
   5.8325270   4.0144600 100.0529670   9.3112080  19.8679700 112.9407120
  10.2379390  19.6323970 112.9843080   9.2962510  20.6951700 112.4593150
  17.5457140  19.4105270  99.9381370  17.7209330  18.7243010  99.2942290
  16.8478710  19.9352320  99.5458040   6.4975690   2.5324450 112.7049000
   6.2159960   3.0358050 111.9409820   6.8795390   1.7346200 112.3391130
   5.3884790  19.8000110  97.4916680   6.1203610  19.5159390  96.9440570
   5.6478460  19.5613390  98.3816060   4.5499580  15.9164840  97.4963010
   3.9208460  16.3849940  98.0448840   4.6647410  15.0714060  97.9309200
  13.0991150   1.9478030 113.2829470  12.9856600   2.2672640 114.1780990
  13.9160890   2.3490540 112.9866750  15.8789640  19.0949560 112.7648160
  16.6714960  18.5998790 112.5574120  16.1722790  19.7739700 113.3723770
  12.0049300   9.9670500  83.6464210  11.9243350   9.0525110  83.3755920
  11.5913720  10.4637570  82.9403920  10.1367340  11.7449520  85.5273480
   9.3609440  11.2649960  85.8172050  10.7880270  11.0655170  85.3529640
   4.1533170  12.0569330  86.4049240   3.3218050  11.8018040  86.8045750
   4.7614150  12.1280100  87.1407160  14.1574770  16.1509710  84.3072610
  13.6956300  15.3796950  84.6359780  14.9700320  16.1775780  84.8125060
   4.1334430  16.0909420  86.6007260   4.4362470  15.2007160  86.4217480
   4.8778020  16.6479640  86.3729510   2.5625120   7.0171220  80.1891630
   1.6741820   7.3587190  80.0871510   2.8466310   6.8171540  79.2972460
  10.3838080  18.4367720  83.9276600   9.7649520  18.8925220  83.3571040
  11.2389860  18.5919180  83.5266300   9.5776330  14.4206710  85.5343640
   9.5084610  13.4796650  85.3732770  10.3396190  14.5108120  86.1066210
   1.7683000   5.0261230  87.8600260   1.5885840   4.1286980  88.1403020
   1.3663080   5.5733100  88.5347210  10.6081500   7.2277090  85.7612570
  10.9846320   6.3548970  85.6486240  10.5101010   7.5635790  84.8703010
   4.7386510   5.6002720  81.2230010   4.8453260   6.5006450  81.5298770
   3.8278870   5.5520690  80.9324660  14.3905620   4.7227530  82.6940910
  15.2115240   4.2324100  82.7366390  14.4239700   5.3125190  83.4472750
   2.3869670   7.5221730  86.4682600   3.0679780   7.7860100  87.0870000
   2.0717720   6.6822600  86.8020610   6.5794240   8.5689090  85.5555190
   7.0872460   9.0670060  86.1960210   7.1107480   7.7924290  85.3794550
  18.6805170   6.7394280  89.2584540  17.9757340   7.1275990  88.7399650
  18.9463090   7.4344570  89.8605470   4.8630340   3.2087650  89.8218610
   4.8648780   3.7260040  89.0164510   4.0334650   2.7317830  89.7988540
  11.2501430  13.3206960  81.3208510  10.6318700  13.7856410  80.7571230
  11.7624680  14.0134440  81.7378020   6.1133190  12.8482830  87.9992110
   5.7802570  13.4751750  88.6413180   6.2899870  13.3744710  87.2193780
  14.6267100   6.6627910  85.4668450  13.9222670   6.9512800  86.0471560
  14.9879260   7.4728020  85.1068010   4.5445670   4.9197610  87.8289060
   4.8862480   5.7639660  87.5342930   3.6061480   5.0681350  87.9454400
   5.3252290  14.8163630  89.8141290   5.9426290  15.4914710  89.5325740
   4.4645410  15.2251610  89.7228790  16.2429880  16.2803040  87.7295930
  15.5593400  16.9502150  87.7212600  16.7824170  16.4783690  86.9640790
  17.6954020   6.1082700  85.8577660  16.7478930   6.1421680  85.9893090
  18.0204010   6.9221650  86.2427020   8.2273560   2.4079880  84.1533650
   8.5348540   1.8526770  83.4369150   7.2974260   2.5424340  83.9706640
  13.7788620  18.1247170  86.4441110  13.7915780  17.7209460  85.5763370
  13.2263840  18.8994460  86.3402540  15.0734040  14.8463390  81.5331280
  14.9630370  13.9037720  81.6580700  15.0702290  15.2079030  82.4194040
  13.1774060  13.0277010  87.7723720  13.5942850  12.8137120  86.9377180
  13.9013880  13.2849800  88.3432340  10.6154320  10.4728710  80.8893770
   9.6883600  10.4066090  81.1182240  10.7679140  11.4108840  80.7749010
  10.6023400   6.7445710  77.8860930   9.6627070   6.9059670  77.9713390
  10.9206660   7.4631390  77.3396920  17.1236160  11.4264230  87.8639960
  16.2954790  11.4957320  87.3890090  17.7186640  12.0118540  87.3955790
  14.6451610  12.0349010  81.3929020  14.0264030  11.6968560  80.7455320
  14.6276060  11.3908770  82.1008210  14.0878170   8.2133550  88.8094830
  13.6749350   9.0387260  89.0634820  13.3554120   7.6278590  88.6171190
   6.2210960  10.9993450  83.6713500   5.8167960  10.2870700  83.1759400
   6.3074080  10.6546690  84.5601540   6.6892660  14.6861010  85.8352710
   6.3920950  14.0806480  85.1560490   7.6392480  14.7238320  85.7242070
   4.9339580   7.7736660  87.4512540   5.4854170   7.8832000  86.6765790
   5.4483090   8.1474260  88.1667770  14.7778270  18.2592880  89.4975810
  14.3008830  19.0665070  89.3048420  14.0940060  17.6071210  89.6502020
   5.7811090  14.4242700  92.4860510   4.8839620  14.6482670  92.7333910
   5.8063960  14.5477640  91.5371910  12.8216310  11.2735820  78.4001770
  13.2609590  10.4358250  78.2539590  13.5344730  11.9065220  78.4865910
   4.6082310  11.2956020  91.0617880   4.4690080  12.1678820  91.4305280
   3.7263670  10.9528830  90.9165820  10.9311690  16.2131890  82.3683010
  11.3707600  16.9556220  81.9538400  10.8698580  16.4558460  83.2921970
   6.4062660  17.2377720  93.2703030   6.3778090  17.6420670  92.4031460
   6.2427630  16.3088080  93.1074630  16.4033450   2.5278630  76.7142810
  16.0906110   2.6205460  77.6141880  17.1645920   3.1059660  76.6640240
   2.9215590   9.8938430  81.1720150   2.8013190  10.6200520  80.5601420
   2.6116480   9.1241340  80.6948060  18.3577480  18.0204820  94.5667200
  18.8337200  18.4987710  95.2456280  18.9784640  17.9522310  93.8412700
   1.8048590  14.7653760  83.3894970   1.3976670  14.9068350  82.5348570
   2.6961600  14.4813920  83.1866180  17.7610730  15.2117670  91.7267210
  17.8873790  14.9729550  90.8084390  17.8032110  14.3802210  92.1989290
  11.6227470  18.9145670  90.2962020  12.1372140  18.8253680  91.0984450
  10.7796550  19.2605370  90.5889930  13.5981870  19.2001010  79.7246020
  13.4383010  18.9103950  80.6227850  13.4328580  18.4241140  79.1891250
   6.0770250  18.9799540  81.5017640   5.9012730  18.0635080  81.2885440
   5.2225990  19.3386830  81.7415440  13.3008000  16.7088570  78.2844020
  12.6073160  16.7065860  77.6246300  14.0430860  16.2847890  77.8538190
  12.8657930  18.3351280  82.3592510  13.3214880  17.5540660  82.6731130
  13.2050450  19.0458100  82.9033690  17.6134740   7.2650130  92.6916950
  16.9979010   7.7729800  92.1632410  17.2931160   6.3648460  92.6342890
   5.3879250   3.2373500  84.5543820   4.9447400   4.0183040  84.2228340
   5.9464240   3.5603390  85.2614760   9.6749060   6.1042020  90.1579140
   9.2128430   6.3125040  90.9699080   9.2727170   5.2901370  89.8549810
  14.6753570   7.3250970  91.2875800  13.8247160   7.0256720  91.6084870
  14.5155360   7.5692980  90.3759620  11.7703280   8.8252720  93.3874590
  12.0956690   7.9916470  93.0476820  12.5583610   9.3481240  93.5352920
   8.5038070   2.8584200  79.4349650   7.8792250   2.8544070  80.1602960
   8.4168190   1.9915160  79.0385620   7.4255150   3.7820830  86.4133420
   7.7227480   4.6883660  86.3325440   7.9740710   3.2939610  85.7992990
   5.1793470   8.3607070  82.2825070   4.9534390   8.1444240  83.1871690
   4.3986000   8.7935530  81.9371040  12.4091230   8.3670440  80.8815720
  11.8100120   9.0906240  80.6979340  12.9570840   8.3047220  80.0992170
   7.6192680   9.2592650  92.9485340   7.5236280   8.3187380  92.7985740
   8.4624660   9.4807720  92.5533410  11.0156100   7.0033980  82.9119000
  11.4085670   7.3206180  82.0987690  11.3772950   6.1245860  83.0263520
   2.7503220   5.6706320  91.1019120   2.3566610   6.5181530  91.3091900
   2.0621620   5.0332690  91.2927760   9.3248270   5.7541290  94.1715860
   8.6346590   5.5613490  94.8061950  10.0680570   6.0375930  94.7040160
  11.6011240   9.5939730  87.0069780  10.8692360  10.1026540  87.3559880
  11.2035580   8.7769710  86.7058560   8.0388630   6.2693930  85.4122270
   8.0424690   5.8283880  84.5626810   8.9339750   6.5911260  85.5194090
   3.8891010   6.1520420  84.3716480   3.5491060   6.6295650  85.1283530
   3.1268330   5.6985540  84.0117580   8.1008780   7.2706010  78.4029030
   8.2221600   7.2292490  79.3514850   7.7157290   8.1330160  78.2475760
  12.0637150   5.0473410  86.4192720  12.0809890   5.4982060  87.2634570
  11.8152730   4.1479050  86.6326160   7.1130280   9.5807150  77.8012330
   6.5447180   9.1325400  77.1748240   7.8219280   9.9399930  77.2677480
  15.4907900   2.4605590  92.2579100  15.8153670   1.7295250  92.7837080
  15.5264410   2.1419230  91.3560090   2.1899460  13.4819170  91.6779060
   1.8054250  12.8412840  92.2762020   2.5011650  14.1855290  92.2473790
   8.3396600  10.3295710  87.1587680   8.7066730   9.8554280  87.9049020
   8.1501660  11.2037280  87.4996020   6.1295970   9.3704350  89.4771890
   5.8253040  10.2496330  89.7022250   7.0842430   9.4304140  89.5129330
   4.6577760  13.5765340  80.0738740   3.8840020  13.0362960  79.9137460
   5.3872390  13.0571950  79.7356500  15.4165740  12.5730700  85.8665130
  16.1364860  13.0685990  85.4761240  15.2147560  11.8948590  85.2219000
  10.8775680   3.9668660  80.0094520  10.0640290   3.4681830  79.9339830
  10.6837630   4.8066910  79.5930870  10.7984540  12.6439760  91.7534130
  10.7321850  11.7235430  91.4991720  10.1689680  12.7415200  92.4678770
  13.5924070   8.3388310  78.3056680  14.4803690   8.6505540  78.1308020
  13.5629160   7.4660560  77.9137260   4.7015160  13.2445720  83.7117550
   5.2193830  12.4413980  83.6574440   4.2499180  13.1824860  84.5534380
   9.5884660  14.5112000  78.9844850   9.9300360  15.2554230  78.4888170
   8.7597370  14.8243120  79.3469680   2.1859700  10.2107090  90.6243250
   1.8274640  10.8760940  91.2116590   1.8914260   9.3790640  90.9955870
   5.3872820  10.6691330  93.5082800   5.0872960  10.8148510  92.6110620
   6.1584060  10.1096620  93.4156190  10.7301270  15.4660330  91.5037930
  10.7445810  14.5341290  91.2856840  10.0226370  15.5520090  92.1427700
  15.8638340   9.6500150  77.7736540  15.7802060  10.0814370  76.9232980
  16.5832530  10.1098500  78.2063360  16.9412480  12.1067670  90.8506510
  16.2160670  12.6996450  90.6535900  17.4687940  12.0991210  90.0519880
  16.8925590  16.5042410  80.5018670  16.2501750  15.8498030  80.7762390
  16.5056250  16.9097500  79.7259340  12.4712070  13.8327840  84.3490360
  12.8235890  13.2355970  83.6891730  11.5874400  13.5072070  84.5198610
   8.5575350  14.5925530  81.7560770   9.2446480  15.1394740  82.1368360
   7.7707770  15.1366260  81.7910380   7.8602560  11.5971560  81.3686130
   8.3165340  12.4076810  81.5946320   7.5090770  11.2794700  82.2004620
  10.1635170  17.1077900  88.5978430  10.8077390  17.3137280  89.2751850
  10.5264610  16.3466300  88.1449280   3.7614340   1.9409210  81.8408650
   3.6328970   1.9327110  82.7893570   2.9376360   2.2792300  81.4899660
  11.4367250  15.1110250  87.3155880  12.0789480  14.4103410  87.4288050
  11.9616600  15.8908690  87.1352770  15.2822970  15.3958870  77.0395020
  15.0560550  14.6789310  77.6319660  14.8919170  15.1471310  76.2016770
  13.2104870  15.9105150  90.5191940  13.5461110  16.4971840  91.1969860
  12.2905210  15.7797860  90.7489730  14.8639220  13.3130810  78.7009180
  14.5760920  13.7743500  79.4887060  15.6591390  12.8528580  78.9693400
   9.0393450  15.9596480  93.6880000   8.7190320  15.2405720  94.2325690
   8.3651810  16.6351550  93.7616060   7.0807620  16.8056930  78.6313150
   7.0717720  17.5386620  78.0157660   6.1605980  16.5588510  78.7240110
   2.6814260  12.0271820  79.3759910   2.0742210  12.7670720  79.3855210
   3.1563610  12.1171180  78.5498110  12.2547050   6.1922640  89.0516800
  12.6227870   5.3717850  89.3796370  11.3945250   6.2524530  89.4672450
  15.6209080   5.1479580  79.8604360  14.9922240   5.2525250  79.1462590
  15.1261000   5.3676360  80.6498240  10.0667220  16.8685170  77.2938340
  10.1679200  16.6649160  76.3640320   9.1668960  16.6143450  77.4986120
   7.5893110   7.4265530  81.2762240   6.8809260   7.8951870  81.7175850
   7.8737590   6.7687540  81.9107430   9.2149040   8.8462230  89.2754770
   9.7134290   9.3208050  89.9406620   9.3571990   7.9225750  89.4824800
  11.6208540   4.1516190  82.7158030  11.4976320   4.1702320  81.7667540
  12.5693100   4.1995130  82.8356430   8.7085330  19.3871490  81.9886010
   8.9626830  19.3492880  81.0665380   7.7597810  19.2604820  81.9814260
   5.7928130   5.7350610  78.6512950   6.6418660   6.1720760  78.5853140
   5.4259400   6.0470870  79.4785010  16.4215900   5.0630190  90.1183160
  15.9189500   5.8035590  90.4576970  17.2372560   5.4514190  89.8019950
  14.7137910  10.3063370  83.5644520  13.7728050  10.3213600  83.7392210
  15.0281980   9.5199330  84.0104820   4.6919550  11.9882970  77.1248480
   5.4582820  11.8764330  77.6873910   4.7694240  11.2920940  76.4725250
   3.3866310   9.4208040  77.8081370   3.4669900   8.4735550  77.9198770
   4.2786060   9.7514920  77.9142030  16.7163490  17.4772220  85.2398780
  16.8410910  18.3003390  85.7122590  17.5829050  17.2662950  84.8922930
   4.1881020  19.5703430  84.9115910   4.9243500  19.0218890  85.1824480
   4.5721940  20.4359440  84.7721900   3.1939300  18.7549500  94.1001490
   3.9952030  19.0761550  94.5136890   2.6791120  18.3945080  94.8221400
   7.2983330  18.7433740  76.7341480   8.0911940  19.0322570  76.2823270
   6.7787680  18.3125910  76.0553960  12.0303930  14.8629370  94.0476900
  11.4242090  14.8860970  93.3072650  11.7258040  14.1312410  94.5844150
  13.4604300  18.5909660  92.6586310  14.4126050  18.5067680  92.6086550
  13.3132520  19.2551370  93.3320100  16.3513500  17.9703870  78.1578220
  16.0655010  17.5569010  77.3432400  16.1533050  18.8991580  78.0378740
   7.8160730  13.9637150  76.5983830   7.7111370  13.3489500  77.3245210
   7.6484950  13.4403040  75.8146840   7.9675050  12.6493950  92.5773060
   7.2020720  13.2178950  92.4927730   8.1491010  12.3570160  91.6841290
  11.0563460  13.0257180  77.2025820  10.5073560  13.4726480  77.8468560
  11.6782720  12.5206430  77.7263490  15.1098400  14.3799280  93.1348080
  15.8507870  14.7175040  92.6315540  14.3471080  14.5491340  92.5817850
   2.9460190   9.3852550  93.9387610   2.9865530   9.0866420  94.8472840
   3.8005690   9.7860160  93.7795130   6.7238580  11.9848100  79.0991120
   7.1455000  11.8187970  79.9422510   6.8489420  11.1748330  78.6046260
   4.8866000   7.9644650  91.9062100   4.3562460   7.4735600  91.2785440
   5.5554070   8.3928850  91.3720030   9.2366220  11.0085710  76.3468220
   9.7571880  10.2934730  75.9809370   9.8834620  11.6471580  76.6468730
  13.7844060  12.4314110  91.6703290  14.1985080  12.5859190  92.5193710
  12.8495060  12.5569330  91.8329070  14.2566230   9.7710270  93.6742440
  14.8387000   9.0162590  93.5862920  14.4328000  10.3017710  92.8973920
   5.3738300   4.9307020  91.9859390   5.2795170   4.3127770  91.2610260
   4.7935690   5.6573310  91.7589300   8.1399740   3.4880260  89.0186780
   7.6917040   3.5104520  88.1732330   7.5064940   3.0899280  89.6157080
   8.5459290  12.3834590  89.6399220   8.9647400  13.2267320  89.4675460
   7.6267920  12.5206630  89.4106000  10.8823190  10.1150770  91.0237060
  11.0019400   9.5191910  91.7631900  11.7417190  10.1520460  90.6038360
  13.2211090  10.6687960  89.5999570  12.6946310  11.1930580  88.9964710
  13.5642430  11.3015350  90.2309300   5.6197480   8.0581330  76.0449280
   5.4186540   7.1948690  76.4062620   5.4489530   7.9714690  75.1070880
   6.3966710  18.6887600  90.7556950   5.8587800  19.4133660  90.4365650
   6.6500670  18.2117940  89.9654290   7.6491960   6.6572120  92.2812880
   8.2391650   6.3487970  92.9690700   6.8312200   6.1851870  92.4372780
  12.4685390   6.2737930  92.5145900  11.7800910   5.6119470  92.4495890
  13.1891410   5.8276200  92.9594360  13.0985790   2.8689560  78.5736160
  13.3788080   2.0257460  78.9295580  12.3251520   3.1012670  79.0874910
   4.4180280   5.1581950  76.0327160   4.7206180   5.1649380  75.1246310
   5.1574870   4.8079810  76.5294820   9.2528920  19.9238810  91.0143600
   9.1787620  20.8273950  91.3215970   8.3507760  19.6050710  90.9865670
   7.6365210   4.1016570  77.0183360   7.2887210   3.4240560  76.4385810
   7.8377980   3.6406080  77.8326750   9.8014250  19.0897320  78.6369960
  10.6965040  19.4282290  78.6588720   9.8331880  18.3676730  78.0094240
   3.4410410  14.4624370  76.8656960   3.8785280  15.0054040  77.5214540
   3.9258140  13.6371320  76.8753300   5.2518130  15.5822410  81.9779190
   4.9513670  15.4587380  82.8783100   5.1455620  14.7231000  81.5694920
  16.7808600  17.6200990  91.3436160  16.1810590  17.6793550  90.6000080
  16.9102500  16.6805970  91.4733010  18.0210050  15.3618810  76.6805870
  17.1903010  15.4295460  77.1513100  18.1981880  16.2522930  76.3772730
  17.4766510  12.1066290  79.1840070  18.2385420  12.6762940  79.2899760
  17.4920880  11.5393490  79.9548380  18.4826480  12.9616390  84.0282000
  18.8535310  12.1783710  83.6217970  19.1228410  13.6505490  83.8499300
  15.4660240  14.3452970  89.4412320  14.6520080  14.7750130  89.7038110
  15.8734440  14.9571380  88.8281370  17.5285680  12.4000660  76.3412590
  17.8034520  13.3079540  76.2131810  17.3396420  12.3363190  77.2774580
  13.9261290   5.4245510  77.6366220  14.3446170   5.2376490  76.7962880
  13.6197350   4.5724560  77.9469150  17.4251020  10.3369650  81.3342020
  17.0494620   9.5697580  80.9023310  16.6954140  10.7192350  81.8216950
   2.0146780  11.0156790  87.9551070   2.3819820  10.9284190  88.8347090
   1.4457600  10.2523340  87.8557930  16.8150640   9.4841170  90.9681540
  16.5836730   9.2553920  90.0679490  17.0755190  10.4040720  90.9226430
  15.2538710   4.7097600  93.7461240  16.1308890   4.7181000  94.1295240
  15.2659550   3.9728440  93.1353590  16.7001980   8.5627140  84.6349260
  17.2239460   8.0689790  84.0039430  17.2861400   8.6977500  85.3796830
  16.8791700   8.6467010  88.1568810  15.9294410   8.6130550  88.2713800
  17.0604710   9.5567120  87.9218580   2.7336140   6.8968690  77.2667440
   3.4427840   6.4751910  76.7814720   2.0176080   6.9643920  76.6350790
   2.3810300   2.9508020  76.3070090   3.1038430   3.4916960  76.6251310
   2.6534820   2.6771440  75.4311630  16.1901950   7.8200490  80.5741670
  16.6861070   7.5871360  81.3590550  15.9918020   6.9812330  80.1579310
   2.0702490   2.2014210  86.2092710   2.7178680   1.6511590  85.7687870
   2.4904330   2.4557360  87.0308520  17.6189110   6.4561440  83.1079350
  17.5088390   6.3017480  84.0461620  18.3796700   5.9282380  82.8654760
  15.9654830   2.3955570  89.5662350  16.6027050   3.0089710  89.9321540
  16.1129720   2.4316230  88.6211580  18.5079380   4.2869360  76.3485490
  19.4328690   4.1550540  76.1403780  18.4855170   4.3662180  77.3021940
  18.5817870   5.0580020  78.9742200  17.7869370   4.9925140  79.5035110
  18.7861150   5.9930660  78.9627550  15.5236290  19.0971570  82.9680590
  16.1195360  18.7756140  82.2915010  15.7814440  18.6243390  83.7593860
   1.8234490   2.3569880  88.9518030   1.4749310   2.8133700  89.7176210
   1.4922190   1.4627010  89.0340460   3.4298860  15.5289480  93.1171220
   3.3868490  15.1582390  93.9985680   3.5609870  16.4667050  93.2573040
   7.1304890  17.0849070  88.7180940   6.8896250  17.3523630  87.8311460
   8.0707530  17.2554800  88.7731800   9.3359310   3.5481760  92.4737450
   9.2748200   4.1403590  93.2232860  10.2759690   3.4407720  92.3287710
  11.9733870   3.2051820  92.1129740  12.5874280   3.5231110  91.4510820
  12.5183430   2.7200410  92.7325600  18.3909050  19.1043450  89.5191580
  17.8967330  19.5012320  88.8018710  17.7822340  18.4792660  89.9128860
   3.2686890  18.4751730  90.2369000   2.6747210  18.3436430  90.9759040
   3.2610730  17.6389870  89.7711100  13.6213890   3.9754830  89.8240750
  13.2927250   3.1606590  89.4442480  14.5696190   3.9324640  89.7006440
  16.0748500  19.7466870  86.7978320  15.6151470  20.4982680  86.4236340
  15.4460960  19.0273340  86.7393120   2.8999120  15.8410110  89.1877040
   2.1733180  15.2215400  89.1202990   2.9608270  16.2350720  88.3175120
   6.5044220  18.0555110  85.9726450   7.0209240  17.4442470  85.4474710
   7.1541600  18.5583890  86.4637460   9.2439720  18.9463600  86.7995430
   9.5317530  18.6917900  85.9228440   9.7562940  18.3940960  87.3901000
  10.4616730   2.6853800  87.3791940   9.6788520   3.1599300  87.6588700
  10.1679660   1.7808630  87.2705120  15.0137800   3.3876900  85.4241030
  15.4545890   3.3322000  84.5762630  14.7445390   4.3034910  85.4951210
  16.8776370   3.0192140  83.4349850  16.8164770   2.0753360  83.2880870
  17.6568400   3.1272230  83.9803310   1.8057140   2.9901280  79.9005660
   2.5636500   3.1030160  79.3269690   1.3434310   3.8270480  79.8549090
   8.3470950   5.1040550  82.8907970   7.5345460   4.7297440  82.5503850
   8.8512590   4.3485630  83.1929160  12.8495930   1.7683000  84.1291040
  13.4525300   2.3403210  84.6039560  12.1088920   2.3322440  83.9064940
  15.9930530   2.1704560  79.4031320  16.1881160   3.0688010  79.6698750
  15.2060400   1.9391640  79.8964270   2.7891820  17.8517730  79.8423940
   2.2639440  18.2325760  79.1385900   2.7136400  18.4768500  80.5633650
   4.1782290   3.5165330  78.4407630   4.7075050   2.7295130  78.3115580
   4.8110610   4.1956520  78.6743160   6.3720130   3.2540470  81.4953020
   5.7422870   2.5527780  81.6623150   5.8325270   4.0144600  81.2786180
   9.3112080  19.8679700  94.1663630  10.2379390  19.6323970  94.2099590
   9.2962510  20.6951700  93.6849660  17.5457140  19.4105270  81.1637880
  17.7209330  18.7243010  80.5198800  16.8478710  19.9352320  80.7714550
   6.4975690   2.5324450  93.9305510   6.2159960   3.0358050  93.1666330
   6.8795390   1.7346200  93.5647640   5.3884790  19.8000110  78.7173190
   6.1203610  19.5159390  78.1697080   5.6478460  19.5613390  79.6072570
   4.5499580  15.9164840  78.7219520   3.9208460  16.3849940  79.2705350
   4.6647410  15.0714060  79.1565710  13.0991150   1.9478030  94.5085980
  12.9856600   2.2672640  95.4037500  13.9160890   2.3490540  94.2123260
  15.8789640  19.0949560  93.9904670  16.6714960  18.5998790  93.7830630
  16.1722790  19.7739700  94.5980280  12.0049300   9.9670500  64.8720720
  11.9243350   9.0525110  64.6012430  11.5913720  10.4637570  64.1660430
  10.1367340  11.7449520  66.7529990   9.3609440  11.2649960  67.0428560
  10.7880270  11.0655170  66.5786150   4.1533170  12.0569330  67.6305750
   3.3218050  11.8018040  68.0302260   4.7614150  12.1280100  68.3663670
  14.1574770  16.1509710  65.5329120  13.6956300  15.3796950  65.8616290
  14.9700320  16.1775780  66.0381570   4.1334430  16.0909420  67.8263770
   4.4362470  15.2007160  67.6473990   4.8778020  16.6479640  67.5986020
   2.5625120   7.0171220  61.4148140   1.6741820   7.3587190  61.3128020
   2.8466310   6.8171540  60.5228970  10.3838080  18.4367720  65.1533110
   9.7649520  18.8925220  64.5827550  11.2389860  18.5919180  64.7522810
   9.5776330  14.4206710  66.7600150   9.5084610  13.4796650  66.5989280
  10.3396190  14.5108120  67.3322720   1.7683000   5.0261230  69.0856770
   1.5885840   4.1286980  69.3659530   1.3663080   5.5733100  69.7603720
  10.6081500   7.2277090  66.9869080  10.9846320   6.3548970  66.8742750
  10.5101010   7.5635790  66.0959520   4.7386510   5.6002720  62.4486520
   4.8453260   6.5006450  62.7555280   3.8278870   5.5520690  62.1581170
  14.3905620   4.7227530  63.9197420  15.2115240   4.2324100  63.9622900
  14.4239700   5.3125190  64.6729260   2.3869670   7.5221730  67.6939110
   3.0679780   7.7860100  68.3126510   2.0717720   6.6822600  68.0277120
   6.5794240   8.5689090  66.7811700   7.0872460   9.0670060  67.4216720
   7.1107480   7.7924290  66.6051060  18.6805170   6.7394280  70.4841050
  17.9757340   7.1275990  69.9656160  18.9463090   7.4344570  71.0861980
   4.8630340   3.2087650  71.0475120   4.8648780   3.7260040  70.2421020
   4.0334650   2.7317830  71.0245050  11.2501430  13.3206960  62.5465020
  10.6318700  13.7856410  61.9827740  11.7624680  14.0134440  62.9634530
   6.1133190  12.8482830  69.2248620   5.7802570  13.4751750  69.8669690
   6.2899870  13.3744710  68.4450290  14.6267100   6.6627910  66.6924960
  13.9222670   6.9512800  67.2728070  14.9879260   7.4728020  66.3324520
   4.5445670   4.9197610  69.0545570   4.8862480   5.7639660  68.7599440
   3.6061480   5.0681350  69.1710910   5.3252290  14.8163630  71.0397800
   5.9426290  15.4914710  70.7582250   4.4645410  15.2251610  70.9485300
  16.2429880  16.2803040  68.9552440  15.5593400  16.9502150  68.9469110
  16.7824170  16.4783690  68.1897300  17.6954020   6.1082700  67.0834170
  16.7478930   6.1421680  67.2149600  18.0204010   6.9221650  67.4683530
   8.2273560   2.4079880  65.3790160   8.5348540   1.8526770  64.6625660
   7.2974260   2.5424340  65.1963150  13.7788620  18.1247170  67.6697620
  13.7915780  17.7209460  66.8019880  13.2263840  18.8994460  67.5659050
  15.0734040  14.8463390  62.7587790  14.9630370  13.9037720  62.8837210
  15.0702290  15.2079030  63.6450550  13.1774060  13.0277010  68.9980230
  13.5942850  12.8137120  68.1633690  13.9013880  13.2849800  69.5688850
  10.6154320  10.4728710  62.1150280   9.6883600  10.4066090  62.3438750
  10.7679140  11.4108840  62.0005520  10.6023400   6.7445710  59.1117440
   9.6627070   6.9059670  59.1969900  10.9206660   7.4631390  58.5653430
  17.1236160  11.4264230  69.0896470  16.2954790  11.4957320  68.6146600
  17.7186640  12.0118540  68.6212300  14.6451610  12.0349010  62.6185530
  14.0264030  11.6968560  61.9711830  14.6276060  11.3908770  63.3264720
  14.0878170   8.2133550  70.0351340  13.6749350   9.0387260  70.2891330
  13.3554120   7.6278590  69.8427700   6.2210960  10.9993450  64.8970010
   5.8167960  10.2870700  64.4015910   6.3074080  10.6546690  65.7858050
   6.6892660  14.6861010  67.0609220   6.3920950  14.0806480  66.3817000
   7.6392480  14.7238320  66.9498580   4.9339580   7.7736660  68.6769050
   5.4854170   7.8832000  67.9022300   5.4483090   8.1474260  69.3924280
  14.7778270  18.2592880  70.7232320  14.3008830  19.0665070  70.5304930
  14.0940060  17.6071210  70.8758530   5.7811090  14.4242700  73.7117020
   4.8839620  14.6482670  73.9590420   5.8063960  14.5477640  72.7628420
  12.8216310  11.2735820  59.6258280  13.2609590  10.4358250  59.4796100
  13.5344730  11.9065220  59.7122420   4.6082310  11.2956020  72.2874390
   4.4690080  12.1678820  72.6561790   3.7263670  10.9528830  72.1422330
  10.9311690  16.2131890  63.5939520  11.3707600  16.9556220  63.1794910
  10.8698580  16.4558460  64.5178480   6.4062660  17.2377720  74.4959540
   6.3778090  17.6420670  73.6287970   6.2427630  16.3088080  74.3331140
  16.4033450   2.5278630  57.9399320  16.0906110   2.6205460  58.8398390
  17.1645920   3.1059660  57.8896750   2.9215590   9.8938430  62.3976660
   2.8013190  10.6200520  61.7857930   2.6116480   9.1241340  61.9204570
  18.3577480  18.0204820  75.7923710  18.8337200  18.4987710  76.4712790
  18.9784640  17.9522310  75.0669210   1.8048590  14.7653760  64.6151480
   1.3976670  14.9068350  63.7605080   2.6961600  14.4813920  64.4122690
  17.7610730  15.2117670  72.9523720  17.8873790  14.9729550  72.0340900
  17.8032110  14.3802210  73.4245800  11.6227470  18.9145670  71.5218530
  12.1372140  18.8253680  72.3240960  10.7796550  19.2605370  71.8146440
  13.5981870  19.2001010  60.9502530  13.4383010  18.9103950  61.8484360
  13.4328580  18.4241140  60.4147760   6.0770250  18.9799540  62.7274150
   5.9012730  18.0635080  62.5141950   5.2225990  19.3386830  62.9671950
  13.3008000  16.7088570  59.5100530  12.6073160  16.7065860  58.8502810
  14.0430860  16.2847890  59.0794700  12.8657930  18.3351280  63.5849020
  13.3214880  17.5540660  63.8987640  13.2050450  19.0458100  64.1290200
  17.6134740   7.2650130  73.9173460  16.9979010   7.7729800  73.3888920
  17.2931160   6.3648460  73.8599400   5.3879250   3.2373500  65.7800330
   4.9447400   4.0183040  65.4484850   5.9464240   3.5603390  66.4871270
   9.6749060   6.1042020  71.3835650   9.2128430   6.3125040  72.1955590
   9.2727170   5.2901370  71.0806320  14.6753570   7.3250970  72.5132310
  13.8247160   7.0256720  72.8341380  14.5155360   7.5692980  71.6016130
  11.7703280   8.8252720  74.6131100  12.0956690   7.9916470  74.2733330
  12.5583610   9.3481240  74.7609430   8.5038070   2.8584200  60.6606160
   7.8792250   2.8544070  61.3859470   8.4168190   1.9915160  60.2642130
   7.4255150   3.7820830  67.6389930   7.7227480   4.6883660  67.5581950
   7.9740710   3.2939610  67.0249500   5.1793470   8.3607070  63.5081580
   4.9534390   8.1444240  64.4128200   4.3986000   8.7935530  63.1627550
  12.4091230   8.3670440  62.1072230  11.8100120   9.0906240  61.9235850
  12.9570840   8.3047220  61.3248680   7.6192680   9.2592650  74.1741850
   7.5236280   8.3187380  74.0242250   8.4624660   9.4807720  73.7789920
  11.0156100   7.0033980  64.1375510  11.4085670   7.3206180  63.3244200
  11.3772950   6.1245860  64.2520030   2.7503220   5.6706320  72.3275630
   2.3566610   6.5181530  72.5348410   2.0621620   5.0332690  72.5184270
   9.3248270   5.7541290  75.3972370   8.6346590   5.5613490  76.0318460
  10.0680570   6.0375930  75.9296670  11.6011240   9.5939730  68.2326290
  10.8692360  10.1026540  68.5816390  11.2035580   8.7769710  67.9315070
   8.0388630   6.2693930  66.6378780   8.0424690   5.8283880  65.7883320
   8.9339750   6.5911260  66.7450600   3.8891010   6.1520420  65.5972990
   3.5491060   6.6295650  66.3540040   3.1268330   5.6985540  65.2374090
   8.1008780   7.2706010  59.6285540   8.2221600   7.2292490  60.5771360
   7.7157290   8.1330160  59.4732270  12.0637150   5.0473410  67.6449230
  12.0809890   5.4982060  68.4891080  11.8152730   4.1479050  67.8582670
   7.1130280   9.5807150  59.0268840   6.5447180   9.1325400  58.4004750
   7.8219280   9.9399930  58.4933990  15.4907900   2.4605590  73.4835610
  15.8153670   1.7295250  74.0093590  15.5264410   2.1419230  72.5816600
   2.1899460  13.4819170  72.9035570   1.8054250  12.8412840  73.5018530
   2.5011650  14.1855290  73.4730300   8.3396600  10.3295710  68.3844190
   8.7066730   9.8554280  69.1305530   8.1501660  11.2037280  68.7252530
   6.1295970   9.3704350  70.7028400   5.8253040  10.2496330  70.9278760
   7.0842430   9.4304140  70.7385840   4.6577760  13.5765340  61.2995250
   3.8840020  13.0362960  61.1393970   5.3872390  13.0571950  60.9613010
  15.4165740  12.5730700  67.0921640  16.1364860  13.0685990  66.7017750
  15.2147560  11.8948590  66.4475510  10.8775680   3.9668660  61.2351030
  10.0640290   3.4681830  61.1596340  10.6837630   4.8066910  60.8187380
  10.7984540  12.6439760  72.9790640  10.7321850  11.7235430  72.7248230
  10.1689680  12.7415200  73.6935280  13.5924070   8.3388310  59.5313190
  14.4803690   8.6505540  59.3564530  13.5629160   7.4660560  59.1393770
   4.7015160  13.2445720  64.9374060   5.2193830  12.4413980  64.8830950
   4.2499180  13.1824860  65.7790890   9.5884660  14.5112000  60.2101360
   9.9300360  15.2554230  59.7144680   8.7597370  14.8243120  60.5726190
   2.1859700  10.2107090  71.8499760   1.8274640  10.8760940  72.4373100
   1.8914260   9.3790640  72.2212380   5.3872820  10.6691330  74.7339310
   5.0872960  10.8148510  73.8367130   6.1584060  10.1096620  74.6412700
  10.7301270  15.4660330  72.7294440  10.7445810  14.5341290  72.5113350
  10.0226370  15.5520090  73.3684210  15.8638340   9.6500150  58.9993050
  15.7802060  10.0814370  58.1489490  16.5832530  10.1098500  59.4319870
  16.9412480  12.1067670  72.0763020  16.2160670  12.6996450  71.8792410
  17.4687940  12.0991210  71.2776390  16.8925590  16.5042410  61.7275180
  16.2501750  15.8498030  62.0018900  16.5056250  16.9097500  60.9515850
  12.4712070  13.8327840  65.5746870  12.8235890  13.2355970  64.9148240
  11.5874400  13.5072070  65.7455120   8.5575350  14.5925530  62.9817280
   9.2446480  15.1394740  63.3624870   7.7707770  15.1366260  63.0166890
   7.8602560  11.5971560  62.5942640   8.3165340  12.4076810  62.8202830
   7.5090770  11.2794700  63.4261130  10.1635170  17.1077900  69.8234940
  10.8077390  17.3137280  70.5008360  10.5264610  16.3466300  69.3705790
   3.7614340   1.9409210  63.0665160   3.6328970   1.9327110  64.0150080
   2.9376360   2.2792300  62.7156170  11.4367250  15.1110250  68.5412390
  12.0789480  14.4103410  68.6544560  11.9616600  15.8908690  68.3609280
  15.2822970  15.3958870  58.2651530  15.0560550  14.6789310  58.8576170
  14.8919170  15.1471310  57.4273280  13.2104870  15.9105150  71.7448450
  13.5461110  16.4971840  72.4226370  12.2905210  15.7797860  71.9746240
  14.8639220  13.3130810  59.9265690  14.5760920  13.7743500  60.7143570
  15.6591390  12.8528580  60.1949910   9.0393450  15.9596480  74.9136510
   8.7190320  15.2405720  75.4582200   8.3651810  16.6351550  74.9872570
   7.0807620  16.8056930  59.8569660   7.0717720  17.5386620  59.2414170
   6.1605980  16.5588510  59.9496620   2.6814260  12.0271820  60.6016420
   2.0742210  12.7670720  60.6111720   3.1563610  12.1171180  59.7754620
  12.2547050   6.1922640  70.2773310  12.6227870   5.3717850  70.6052880
  11.3945250   6.2524530  70.6928960  15.6209080   5.1479580  61.0860870
  14.9922240   5.2525250  60.3719100  15.1261000   5.3676360  61.8754750
  10.0667220  16.8685170  58.5194850  10.1679200  16.6649160  57.5896830
   9.1668960  16.6143450  58.7242630   7.5893110   7.4265530  62.5018750
   6.8809260   7.8951870  62.9432360   7.8737590   6.7687540  63.1363940
   9.2149040   8.8462230  70.5011280   9.7134290   9.3208050  71.1663130
   9.3571990   7.9225750  70.7081310  11.6208540   4.1516190  63.9414540
  11.4976320   4.1702320  62.9924050  12.5693100   4.1995130  64.0612940
   8.7085330  19.3871490  63.2142520   8.9626830  19.3492880  62.2921890
   7.7597810  19.2604820  63.2070770   5.7928130   5.7350610  59.8769460
   6.6418660   6.1720760  59.8109650   5.4259400   6.0470870  60.7041520
  16.4215900   5.0630190  71.3439670  15.9189500   5.8035590  71.6833480
  17.2372560   5.4514190  71.0276460  14.7137910  10.3063370  64.7901030
  13.7728050  10.3213600  64.9648720  15.0281980   9.5199330  65.2361330
   4.6919550  11.9882970  58.3504990   5.4582820  11.8764330  58.9130420
   4.7694240  11.2920940  57.6981760   3.3866310   9.4208040  59.0337880
   3.4669900   8.4735550  59.1455280   4.2786060   9.7514920  59.1398540
  16.7163490  17.4772220  66.4655290  16.8410910  18.3003390  66.9379100
  17.5829050  17.2662950  66.1179440   4.1881020  19.5703430  66.1372420
   4.9243500  19.0218890  66.4080990   4.5721940  20.4359440  65.9978410
   3.1939300  18.7549500  75.3258000   3.9952030  19.0761550  75.7393400
   2.6791120  18.3945080  76.0477910   7.2983330  18.7433740  57.9597990
   8.0911940  19.0322570  57.5079780   6.7787680  18.3125910  57.2810470
  12.0303930  14.8629370  75.2733410  11.4242090  14.8860970  74.5329160
  11.7258040  14.1312410  75.8100660  13.4604300  18.5909660  73.8842820
  14.4126050  18.5067680  73.8343060  13.3132520  19.2551370  74.5576610
  16.3513500  17.9703870  59.3834730  16.0655010  17.5569010  58.5688910
  16.1533050  18.8991580  59.2635250   7.8160730  13.9637150  57.8240340
   7.7111370  13.3489500  58.5501720   7.6484950  13.4403040  57.0403350
   7.9675050  12.6493950  73.8029570   7.2020720  13.2178950  73.7184240
   8.1491010  12.3570160  72.9097800  11.0563460  13.0257180  58.4282330
  10.5073560  13.4726480  59.0725070  11.6782720  12.5206430  58.9520000
  15.1098400  14.3799280  74.3604590  15.8507870  14.7175040  73.8572050
  14.3471080  14.5491340  73.8074360   2.9460190   9.3852550  75.1644120
   2.9865530   9.0866420  76.0729350   3.8005690   9.7860160  75.0051640
   6.7238580  11.9848100  60.3247630   7.1455000  11.8187970  61.1679020
   6.8489420  11.1748330  59.8302770   4.8866000   7.9644650  73.1318610
   4.3562460   7.4735600  72.5041950   5.5554070   8.3928850  72.5976540
   9.2366220  11.0085710  57.5724730   9.7571880  10.2934730  57.2065880
   9.8834620  11.6471580  57.8725240  13.7844060  12.4314110  72.8959800
  14.1985080  12.5859190  73.7450220  12.8495060  12.5569330  73.0585580
  14.2566230   9.7710270  74.8998950  14.8387000   9.0162590  74.8119430
  14.4328000  10.3017710  74.1230430   5.3738300   4.9307020  73.2115900
   5.2795170   4.3127770  72.4866770   4.7935690   5.6573310  72.9845810
   8.1399740   3.4880260  70.2443290   7.6917040   3.5104520  69.3988840
   7.5064940   3.0899280  70.8413590   8.5459290  12.3834590  70.8655730
   8.9647400  13.2267320  70.6931970   7.6267920  12.5206630  70.6362510
  10.8823190  10.1150770  72.2493570  11.0019400   9.5191910  72.9888410
  11.7417190  10.1520460  71.8294870  13.2211090  10.6687960  70.8256080
  12.6946310  11.1930580  70.2221220  13.5642430  11.3015350  71.4565810
   5.6197480   8.0581330  57.2705790   5.4186540   7.1948690  57.6319130
   5.4489530   7.9714690  56.3327390   6.3966710  18.6887600  71.9813460
   5.8587800  19.4133660  71.6622160   6.6500670  18.2117940  71.1910800
   7.6491960   6.6572120  73.5069390   8.2391650   6.3487970  74.1947210
   6.8312200   6.1851870  73.6629290  12.4685390   6.2737930  73.7402410
  11.7800910   5.6119470  73.6752400  13.1891410   5.8276200  74.1850870
  13.0985790   2.8689560  59.7992670  13.3788080   2.0257460  60.1552090
  12.3251520   3.1012670  60.3131420   4.4180280   5.1581950  57.2583670
   4.7206180   5.1649380  56.3502820   5.1574870   4.8079810  57.7551330
   9.2528920  19.9238810  72.2400110   9.1787620  20.8273950  72.5472480
   8.3507760  19.6050710  72.2122180   7.6365210   4.1016570  58.2439870
   7.2887210   3.4240560  57.6642320   7.8377980   3.6406080  59.0583260
   9.8014250  19.0897320  59.8626470  10.6965040  19.4282290  59.8845230
   9.8331880  18.3676730  59.2350750   3.4410410  14.4624370  58.0913470
   3.8785280  15.0054040  58.7471050   3.9258140  13.6371320  58.1009810
   5.2518130  15.5822410  63.2035700   4.9513670  15.4587380  64.1039610
   5.1455620  14.7231000  62.7951430  16.7808600  17.6200990  72.5692670
  16.1810590  17.6793550  71.8256590  16.9102500  16.6805970  72.6989520
  18.0210050  15.3618810  57.9062380  17.1903010  15.4295460  58.3769610
  18.1981880  16.2522930  57.6029240  17.4766510  12.1066290  60.4096580
  18.2385420  12.6762940  60.5156270  17.4920880  11.5393490  61.1804890
  18.4826480  12.9616390  65.2538510  18.8535310  12.1783710  64.8474480
  19.1228410  13.6505490  65.0755810  15.4660240  14.3452970  70.6668830
  14.6520080  14.7750130  70.9294620  15.8734440  14.9571380  70.0537880
  17.5285680  12.4000660  57.5669100  17.8034520  13.3079540  57.4388320
  17.3396420  12.3363190  58.5031090  13.9261290   5.4245510  58.8622730
  14.3446170   5.2376490  58.0219390  13.6197350   4.5724560  59.1725660
  17.4251020  10.3369650  62.5598530  17.0494620   9.5697580  62.1279820
  16.6954140  10.7192350  63.0473460   2.0146780  11.0156790  69.1807580
   2.3819820  10.9284190  70.0603600   1.4457600  10.2523340  69.0814440
  16.8150640   9.4841170  72.1938050  16.5836730   9.2553920  71.2936000
  17.0755190  10.4040720  72.1482940  15.2538710   4.7097600  74.9717750
  16.1308890   4.7181000  75.3551750  15.2659550   3.9728440  74.3610100
  16.7001980   8.5627140  65.8605770  17.2239460   8.0689790  65.2295940
  17.2861400   8.6977500  66.6053340  16.8791700   8.6467010  69.3825320
  15.9294410   8.6130550  69.4970310  17.0604710   9.5567120  69.1475090
   2.7336140   6.8968690  58.4923950   3.4427840   6.4751910  58.0071230
   2.0176080   6.9643920  57.8607300   2.3810300   2.9508020  57.5326600
   3.1038430   3.4916960  57.8507820   2.6534820   2.6771440  56.6568140
  16.1901950   7.8200490  61.7998180  16.6861070   7.5871360  62.5847060
  15.9918020   6.9812330  61.3835820   2.0702490   2.2014210  67.4349220
   2.7178680   1.6511590  66.9944380   2.4904330   2.4557360  68.2565030
  17.6189110   6.4561440  64.3335860  17.5088390   6.3017480  65.2718130
  18.3796700   5.9282380  64.0911270  15.9654830   2.3955570  70.7918860
  16.6027050   3.0089710  71.1578050  16.1129720   2.4316230  69.8468090
  18.5079380   4.2869360  57.5742000  19.4328690   4.1550540  57.3660290
  18.4855170   4.3662180  58.5278450  18.5817870   5.0580020  60.1998710
  17.7869370   4.9925140  60.7291620  18.7861150   5.9930660  60.1884060
  15.5236290  19.0971570  64.1937100  16.1195360  18.7756140  63.5171520
  15.7814440  18.6243390  64.9850370   1.8234490   2.3569880  70.1774540
   1.4749310   2.8133700  70.9432720   1.4922190   1.4627010  70.2596970
   3.4298860  15.5289480  74.3427730   3.3868490  15.1582390  75.2242190
   3.5609870  16.4667050  74.4829550   7.1304890  17.0849070  69.9437450
   6.8896250  17.3523630  69.0567970   8.0707530  17.2554800  69.9988310
   9.3359310   3.5481760  73.6993960   9.2748200   4.1403590  74.4489370
  10.2759690   3.4407720  73.5544220  11.9733870   3.2051820  73.3386250
  12.5874280   3.5231110  72.6767330  12.5183430   2.7200410  73.9582110
  18.3909050  19.1043450  70.7448090  17.8967330  19.5012320  70.0275220
  17.7822340  18.4792660  71.1385370   3.2686890  18.4751730  71.4625510
   2.6747210  18.3436430  72.2015550   3.2610730  17.6389870  70.9967610
  13.6213890   3.9754830  71.0497260  13.2927250   3.1606590  70.6698990
  14.5696190   3.9324640  70.9262950  16.0748500  19.7466870  68.0234830
  15.6151470  20.4982680  67.6492850  15.4460960  19.0273340  67.9649630
   2.8999120  15.8410110  70.4133550   2.1733180  15.2215400  70.3459500
   2.9608270  16.2350720  69.5431630   6.5044220  18.0555110  67.1982960
   7.0209240  17.4442470  66.6731220   7.1541600  18.5583890  67.6893970
   9.2439720  18.9463600  68.0251940   9.5317530  18.6917900  67.1484950
   9.7562940  18.3940960  68.6157510  10.4616730   2.6853800  68.6048450
   9.6788520   3.1599300  68.8845210  10.1679660   1.7808630  68.4961630
  15.0137800   3.3876900  66.6497540  15.4545890   3.3322000  65.8019140
  14.7445390   4.3034910  66.7207720  16.8776370   3.0192140  64.6606360
  16.8164770   2.0753360  64.5137380  17.6568400   3.1272230  65.2059820
   1.8057140   2.9901280  61.1262170   2.5636500   3.1030160  60.5526200
   1.3434310   3.8270480  61.0805600   8.3470950   5.1040550  64.1164480
   7.5345460   4.7297440  63.7760360   8.8512590   4.3485630  64.4185670
  12.8495930   1.7683000  65.3547550  13.4525300   2.3403210  65.8296070
  12.1088920   2.3322440  65.1321450  15.9930530   2.1704560  60.6287830
  16.1881160   3.0688010  60.8955260  15.2060400   1.9391640  61.1220780
   2.7891820  17.8517730  61.0680450   2.2639440  18.2325760  60.3642410
   2.7136400  18.4768500  61.7890160   4.1782290   3.5165330  59.6664140
   4.7075050   2.7295130  59.5372090   4.8110610   4.1956520  59.8999670
   6.3720130   3.2540470  62.7209530   5.7422870   2.5527780  62.8879660
   5.8325270   4.0144600  62.5042690   9.3112080  19.8679700  75.3920140
  10.2379390  19.6323970  75.4356100   9.2962510  20.6951700  74.9106170
  17.5457140  19.4105270  62.3894390  17.7209330  18.7243010  61.7455310
  16.8478710  19.9352320  61.9971060   6.4975690   2.5324450  75.1562020
   6.2159960   3.0358050  74.3922840   6.8795390   1.7346200  74.7904150
   5.3884790  19.8000110  59.9429700   6.1203610  19.5159390  59.3953590
   5.6478460  19.5613390  60.8329080   4.5499580  15.9164840  59.9476030
   3.9208460  16.3849940  60.4961860   4.6647410  15.0714060  60.3822220
  13.0991150   1.9478030  75.7342490  12.9856600   2.2672640  76.6294010
  13.9160890   2.3490540  75.4379770  15.8789640  19.0949560  75.2161180
  16.6714960  18.5998790  75.0087140  16.1722790  19.7739700  75.8236790
  12.0049300   9.9670500  46.0977230  11.9243350   9.0525110  45.8268940
  11.5913720  10.4637570  45.3916940  10.1367340  11.7449520  47.9786500
   9.3609440  11.2649960  48.2685070  10.7880270  11.0655170  47.8042660
   4.1533170  12.0569330  48.8562260   3.3218050  11.8018040  49.2558770
   4.7614150  12.1280100  49.5920180  14.1574770  16.1509710  46.7585630
  13.6956300  15.3796950  47.0872800  14.9700320  16.1775780  47.2638080
   4.1334430  16.0909420  49.0520280   4.4362470  15.2007160  48.8730500
   4.8778020  16.6479640  48.8242530   2.5625120   7.0171220  42.6404650
   1.6741820   7.3587190  42.5384530   2.8466310   6.8171540  41.7485480
  10.3838080  18.4367720  46.3789620   9.7649520  18.8925220  45.8084060
  11.2389860  18.5919180  45.9779320   9.5776330  14.4206710  47.9856660
   9.5084610  13.4796650  47.8245790  10.3396190  14.5108120  48.5579230
   1.7683000   5.0261230  50.3113280   1.5885840   4.1286980  50.5916040
   1.3663080   5.5733100  50.9860230  10.6081500   7.2277090  48.2125590
  10.9846320   6.3548970  48.0999260  10.5101010   7.5635790  47.3216030
   4.7386510   5.6002720  43.6743030   4.8453260   6.5006450  43.9811790
   3.8278870   5.5520690  43.3837680  14.3905620   4.7227530  45.1453930
  15.2115240   4.2324100  45.1879410  14.4239700   5.3125190  45.8985770
   2.3869670   7.5221730  48.9195620   3.0679780   7.7860100  49.5383020
   2.0717720   6.6822600  49.2533630   6.5794240   8.5689090  48.0068210
   7.0872460   9.0670060  48.6473230   7.1107480   7.7924290  47.8307570
  18.6805170   6.7394280  51.7097560  17.9757340   7.1275990  51.1912670
  18.9463090   7.4344570  52.3118490   4.8630340   3.2087650  52.2731630
   4.8648780   3.7260040  51.4677530   4.0334650   2.7317830  52.2501560
  11.2501430  13.3206960  43.7721530  10.6318700  13.7856410  43.2084250
  11.7624680  14.0134440  44.1891040   6.1133190  12.8482830  50.4505130
   5.7802570  13.4751750  51.0926200   6.2899870  13.3744710  49.6706800
  14.6267100   6.6627910  47.9181470  13.9222670   6.9512800  48.4984580
  14.9879260   7.4728020  47.5581030   4.5445670   4.9197610  50.2802080
   4.8862480   5.7639660  49.9855950   3.6061480   5.0681350  50.3967420
   5.3252290  14.8163630  52.2654310   5.9426290  15.4914710  51.9838760
   4.4645410  15.2251610  52.1741810  16.2429880  16.2803040  50.1808950
  15.5593400  16.9502150  50.1725620  16.7824170  16.4783690  49.4153810
  17.6954020   6.1082700  48.3090680  16.7478930   6.1421680  48.4406110
  18.0204010   6.9221650  48.6940040   8.2273560   2.4079880  46.6046670
   8.5348540   1.8526770  45.8882170   7.2974260   2.5424340  46.4219660
  13.7788620  18.1247170  48.8954130  13.7915780  17.7209460  48.0276390
  13.2263840  18.8994460  48.7915560  15.0734040  14.8463390  43.9844300
  14.9630370  13.9037720  44.1093720  15.0702290  15.2079030  44.8707060
  13.1774060  13.0277010  50.2236740  13.5942850  12.8137120  49.3890200
  13.9013880  13.2849800  50.7945360  10.6154320  10.4728710  43.3406790
   9.6883600  10.4066090  43.5695260  10.7679140  11.4108840  43.2262030
  10.6023400   6.7445710  40.3373950   9.6627070   6.9059670  40.4226410
  10.9206660   7.4631390  39.7909940  17.1236160  11.4264230  50.3152980
  16.2954790  11.4957320  49.8403110  17.7186640  12.0118540  49.8468810
  14.6451610  12.0349010  43.8442040  14.0264030  11.6968560  43.1968340
  14.6276060  11.3908770  44.5521230  14.0878170   8.2133550  51.2607850
  13.6749350   9.0387260  51.5147840  13.3554120   7.6278590  51.0684210
   6.2210960  10.9993450  46.1226520   5.8167960  10.2870700  45.6272420
   6.3074080  10.6546690  47.0114560   6.6892660  14.6861010  48.2865730
   6.3920950  14.0806480  47.6073510   7.6392480  14.7238320  48.1755090
   4.9339580   7.7736660  49.9025560   5.4854170   7.8832000  49.1278810
   5.4483090   8.1474260  50.6180790  14.7778270  18.2592880  51.9488830
  14.3008830  19.0665070  51.7561440  14.0940060  17.6071210  52.1015040
   5.7811090  14.4242700  54.9373530   4.8839620  14.6482670  55.1846930
   5.8063960  14.5477640  53.9884930  12.8216310  11.2735820  40.8514790
  13.2609590  10.4358250  40.7052610  13.5344730  11.9065220  40.9378930
   4.6082310  11.2956020  53.5130900   4.4690080  12.1678820  53.8818300
   3.7263670  10.9528830  53.3678840  10.9311690  16.2131890  44.8196030
  11.3707600  16.9556220  44.4051420  10.8698580  16.4558460  45.7434990
   6.4062660  17.2377720  55.7216050   6.3778090  17.6420670  54.8544480
   6.2427630  16.3088080  55.5587650  16.4033450   2.5278630  39.1655830
  16.0906110   2.6205460  40.0654900  17.1645920   3.1059660  39.1153260
   2.9215590   9.8938430  43.6233170   2.8013190  10.6200520  43.0114440
   2.6116480   9.1241340  43.1461080  18.3577480  18.0204820  57.0180220
  18.8337200  18.4987710  57.6969300  18.9784640  17.9522310  56.2925720
   1.8048590  14.7653760  45.8407990   1.3976670  14.9068350  44.9861590
   2.6961600  14.4813920  45.6379200  17.7610730  15.2117670  54.1780230
  17.8873790  14.9729550  53.2597410  17.8032110  14.3802210  54.6502310
  11.6227470  18.9145670  52.7475040  12.1372140  18.8253680  53.5497470
  10.7796550  19.2605370  53.0402950  13.5981870  19.2001010  42.1759040
  13.4383010  18.9103950  43.0740870  13.4328580  18.4241140  41.6404270
   6.0770250  18.9799540  43.9530660   5.9012730  18.0635080  43.7398460
   5.2225990  19.3386830  44.1928460  13.3008000  16.7088570  40.7357040
  12.6073160  16.7065860  40.0759320  14.0430860  16.2847890  40.3051210
  12.8657930  18.3351280  44.8105530  13.3214880  17.5540660  45.1244150
  13.2050450  19.0458100  45.3546710  17.6134740   7.2650130  55.1429970
  16.9979010   7.7729800  54.6145430  17.2931160   6.3648460  55.0855910
   5.3879250   3.2373500  47.0056840   4.9447400   4.0183040  46.6741360
   5.9464240   3.5603390  47.7127780   9.6749060   6.1042020  52.6092160
   9.2128430   6.3125040  53.4212100   9.2727170   5.2901370  52.3062830
  14.6753570   7.3250970  53.7388820  13.8247160   7.0256720  54.0597890
  14.5155360   7.5692980  52.8272640  11.7703280   8.8252720  55.8387610
  12.0956690   7.9916470  55.4989840  12.5583610   9.3481240  55.9865940
   8.5038070   2.8584200  41.8862670   7.8792250   2.8544070  42.6115980
   8.4168190   1.9915160  41.4898640   7.4255150   3.7820830  48.8646440
   7.7227480   4.6883660  48.7838460   7.9740710   3.2939610  48.2506010
   5.1793470   8.3607070  44.7338090   4.9534390   8.1444240  45.6384710
   4.3986000   8.7935530  44.3884060  12.4091230   8.3670440  43.3328740
  11.8100120   9.0906240  43.1492360  12.9570840   8.3047220  42.5505190
   7.6192680   9.2592650  55.3998360   7.5236280   8.3187380  55.2498760
   8.4624660   9.4807720  55.0046430  11.0156100   7.0033980  45.3632020
  11.4085670   7.3206180  44.5500710  11.3772950   6.1245860  45.4776540
   2.7503220   5.6706320  53.5532140   2.3566610   6.5181530  53.7604920
   2.0621620   5.0332690  53.7440780   9.3248270   5.7541290  56.6228880
   8.6346590   5.5613490  57.2574970  10.0680570   6.0375930  57.1553180
  11.6011240   9.5939730  49.4582800  10.8692360  10.1026540  49.8072900
  11.2035580   8.7769710  49.1571580   8.0388630   6.2693930  47.8635290
   8.0424690   5.8283880  47.0139830   8.9339750   6.5911260  47.9707110
   3.8891010   6.1520420  46.8229500   3.5491060   6.6295650  47.5796550
   3.1268330   5.6985540  46.4630600   8.1008780   7.2706010  40.8542050
   8.2221600   7.2292490  41.8027870   7.7157290   8.1330160  40.6988780
  12.0637150   5.0473410  48.8705740  12.0809890   5.4982060  49.7147590
  11.8152730   4.1479050  49.0839180   7.1130280   9.5807150  40.2525350
   6.5447180   9.1325400  39.6261260   7.8219280   9.9399930  39.7190500
  15.4907900   2.4605590  54.7092120  15.8153670   1.7295250  55.2350100
  15.5264410   2.1419230  53.8073110   2.1899460  13.4819170  54.1292080
   1.8054250  12.8412840  54.7275040   2.5011650  14.1855290  54.6986810
   8.3396600  10.3295710  49.6100700   8.7066730   9.8554280  50.3562040
   8.1501660  11.2037280  49.9509040   6.1295970   9.3704350  51.9284910
   5.8253040  10.2496330  52.1535270   7.0842430   9.4304140  51.9642350
   4.6577760  13.5765340  42.5251760   3.8840020  13.0362960  42.3650480
   5.3872390  13.0571950  42.1869520  15.4165740  12.5730700  48.3178150
  16.1364860  13.0685990  47.9274260  15.2147560  11.8948590  47.6732020
  10.8775680   3.9668660  42.4607540  10.0640290   3.4681830  42.3852850
  10.6837630   4.8066910  42.0443890  10.7984540  12.6439760  54.2047150
  10.7321850  11.7235430  53.9504740  10.1689680  12.7415200  54.9191790
  13.5924070   8.3388310  40.7569700  14.4803690   8.6505540  40.5821040
  13.5629160   7.4660560  40.3650280   4.7015160  13.2445720  46.1630570
   5.2193830  12.4413980  46.1087460   4.2499180  13.1824860  47.0047400
   9.5884660  14.5112000  41.4357870   9.9300360  15.2554230  40.9401190
   8.7597370  14.8243120  41.7982700   2.1859700  10.2107090  53.0756270
   1.8274640  10.8760940  53.6629610   1.8914260   9.3790640  53.4468890
   5.3872820  10.6691330  55.9595820   5.0872960  10.8148510  55.0623640
   6.1584060  10.1096620  55.8669210  10.7301270  15.4660330  53.9550950
  10.7445810  14.5341290  53.7369860  10.0226370  15.5520090  54.5940720
  15.8638340   9.6500150  40.2249560  15.7802060  10.0814370  39.3746000
  16.5832530  10.1098500  40.6576380  16.9412480  12.1067670  53.3019530
  16.2160670  12.6996450  53.1048920  17.4687940  12.0991210  52.5032900
  16.8925590  16.5042410  42.9531690  16.2501750  15.8498030  43.2275410
  16.5056250  16.9097500  42.1772360  12.4712070  13.8327840  46.8003380
  12.8235890  13.2355970  46.1404750  11.5874400  13.5072070  46.9711630
   8.5575350  14.5925530  44.2073790   9.2446480  15.1394740  44.5881380
   7.7707770  15.1366260  44.2423400   7.8602560  11.5971560  43.8199150
   8.3165340  12.4076810  44.0459340   7.5090770  11.2794700  44.6517640
  10.1635170  17.1077900  51.0491450  10.8077390  17.3137280  51.7264870
  10.5264610  16.3466300  50.5962300   3.7614340   1.9409210  44.2921670
   3.6328970   1.9327110  45.2406590   2.9376360   2.2792300  43.9412680
  11.4367250  15.1110250  49.7668900  12.0789480  14.4103410  49.8801070
  11.9616600  15.8908690  49.5865790  15.2822970  15.3958870  39.4908040
  15.0560550  14.6789310  40.0832680  14.8919170  15.1471310  38.6529790
  13.2104870  15.9105150  52.9704960  13.5461110  16.4971840  53.6482880
  12.2905210  15.7797860  53.2002750  14.8639220  13.3130810  41.1522200
  14.5760920  13.7743500  41.9400080  15.6591390  12.8528580  41.4206420
   9.0393450  15.9596480  56.1393020   8.7190320  15.2405720  56.6838710
   8.3651810  16.6351550  56.2129080   7.0807620  16.8056930  41.0826170
   7.0717720  17.5386620  40.4670680   6.1605980  16.5588510  41.1753130
   2.6814260  12.0271820  41.8272930   2.0742210  12.7670720  41.8368230
   3.1563610  12.1171180  41.0011130  12.2547050   6.1922640  51.5029820
  12.6227870   5.3717850  51.8309390  11.3945250   6.2524530  51.9185470
  15.6209080   5.1479580  42.3117380  14.9922240   5.2525250  41.5975610
  15.1261000   5.3676360  43.1011260  10.0667220  16.8685170  39.7451360
  10.1679200  16.6649160  38.8153340   9.1668960  16.6143450  39.9499140
   7.5893110   7.4265530  43.7275260   6.8809260   7.8951870  44.1688870
   7.8737590   6.7687540  44.3620450   9.2149040   8.8462230  51.7267790
   9.7134290   9.3208050  52.3919640   9.3571990   7.9225750  51.9337820
  11.6208540   4.1516190  45.1671050  11.4976320   4.1702320  44.2180560
  12.5693100   4.1995130  45.2869450   8.7085330  19.3871490  44.4399030
   8.9626830  19.3492880  43.5178400   7.7597810  19.2604820  44.4327280
   5.7928130   5.7350610  41.1025970   6.6418660   6.1720760  41.0366160
   5.4259400   6.0470870  41.9298030  16.4215900   5.0630190  52.5696180
  15.9189500   5.8035590  52.9089990  17.2372560   5.4514190  52.2532970
  14.7137910  10.3063370  46.0157540  13.7728050  10.3213600  46.1905230
  15.0281980   9.5199330  46.4617840   4.6919550  11.9882970  39.5761500
   5.4582820  11.8764330  40.1386930   4.7694240  11.2920940  38.9238270
   3.3866310   9.4208040  40.2594390   3.4669900   8.4735550  40.3711790
   4.2786060   9.7514920  40.3655050  16.7163490  17.4772220  47.6911800
  16.8410910  18.3003390  48.1635610  17.5829050  17.2662950  47.3435950
   4.1881020  19.5703430  47.3628930   4.9243500  19.0218890  47.6337500
   4.5721940  20.4359440  47.2234920   3.1939300  18.7549500  56.5514510
   3.9952030  19.0761550  56.9649910   2.6791120  18.3945080  57.2734420
   7.2983330  18.7433740  39.1854500   8.0911940  19.0322570  38.7336290
   6.7787680  18.3125910  38.5066980  12.0303930  14.8629370  56.4989920
  11.4242090  14.8860970  55.7585670  11.7258040  14.1312410  57.0357170
  13.4604300  18.5909660  55.1099330  14.4126050  18.5067680  55.0599570
  13.3132520  19.2551370  55.7833120  16.3513500  17.9703870  40.6091240
  16.0655010  17.5569010  39.7945420  16.1533050  18.8991580  40.4891760
   7.8160730  13.9637150  39.0496850   7.7111370  13.3489500  39.7758230
   7.6484950  13.4403040  38.2659860   7.9675050  12.6493950  55.0286080
   7.2020720  13.2178950  54.9440750   8.1491010  12.3570160  54.1354310
  11.0563460  13.0257180  39.6538840  10.5073560  13.4726480  40.2981580
  11.6782720  12.5206430  40.1776510  15.1098400  14.3799280  55.5861100
  15.8507870  14.7175040  55.0828560  14.3471080  14.5491340  55.0330870
   2.9460190   9.3852550  56.3900630   2.9865530   9.0866420  57.2985860
   3.8005690   9.7860160  56.2308150   6.7238580  11.9848100  41.5504140
   7.1455000  11.8187970  42.3935530   6.8489420  11.1748330  41.0559280
   4.8866000   7.9644650  54.3575120   4.3562460   7.4735600  53.7298460
   5.5554070   8.3928850  53.8233050   9.2366220  11.0085710  38.7981240
   9.7571880  10.2934730  38.4322390   9.8834620  11.6471580  39.0981750
  13.7844060  12.4314110  54.1216310  14.1985080  12.5859190  54.9706730
  12.8495060  12.5569330  54.2842090  14.2566230   9.7710270  56.1255460
  14.8387000   9.0162590  56.0375940  14.4328000  10.3017710  55.3486940
   5.3738300   4.9307020  54.4372410   5.2795170   4.3127770  53.7123280
   4.7935690   5.6573310  54.2102320   8.1399740   3.4880260  51.4699800
   7.6917040   3.5104520  50.6245350   7.5064940   3.0899280  52.0670100
   8.5459290  12.3834590  52.0912240   8.9647400  13.2267320  51.9188480
   7.6267920  12.5206630  51.8619020  10.8823190  10.1150770  53.4750080
  11.0019400   9.5191910  54.2144920  11.7417190  10.1520460  53.0551380
  13.2211090  10.6687960  52.0512590  12.6946310  11.1930580  51.4477730
  13.5642430  11.3015350  52.6822320   5.6197480   8.0581330  38.4962300
   5.4186540   7.1948690  38.8575640   5.4489530   7.9714690  37.5583900
   6.3966710  18.6887600  53.2069970   5.8587800  19.4133660  52.8878670
   6.6500670  18.2117940  52.4167310   7.6491960   6.6572120  54.7325900
   8.2391650   6.3487970  55.4203720   6.8312200   6.1851870  54.8885800
  12.4685390   6.2737930  54.9658920  11.7800910   5.6119470  54.9008910
  13.1891410   5.8276200  55.4107380  13.0985790   2.8689560  41.0249180
  13.3788080   2.0257460  41.3808600  12.3251520   3.1012670  41.5387930
   4.4180280   5.1581950  38.4840180   4.7206180   5.1649380  37.5759330
   5.1574870   4.8079810  38.9807840   9.2528920  19.9238810  53.4656620
   9.1787620  20.8273950  53.7728990   8.3507760  19.6050710  53.4378690
   7.6365210   4.1016570  39.4696380   7.2887210   3.4240560  38.8898830
   7.8377980   3.6406080  40.2839770   9.8014250  19.0897320  41.0882980
  10.6965040  19.4282290  41.1101740   9.8331880  18.3676730  40.4607260
   3.4410410  14.4624370  39.3169980   3.8785280  15.0054040  39.9727560
   3.9258140  13.6371320  39.3266320   5.2518130  15.5822410  44.4292210
   4.9513670  15.4587380  45.3296120   5.1455620  14.7231000  44.0207940
  16.7808600  17.6200990  53.7949180  16.1810590  17.6793550  53.0513100
  16.9102500  16.6805970  53.9246030  18.0210050  15.3618810  39.1318890
  17.1903010  15.4295460  39.6026120  18.1981880  16.2522930  38.8285750
  17.4766510  12.1066290  41.6353090  18.2385420  12.6762940  41.7412780
  17.4920880  11.5393490  42.4061400  18.4826480  12.9616390  46.4795020
  18.8535310  12.1783710  46.0730990  19.1228410  13.6505490  46.3012320
  15.4660240  14.3452970  51.8925340  14.6520080  14.7750130  52.1551130
  15.8734440  14.9571380  51.2794390  17.5285680  12.4000660  38.7925610
  17.8034520  13.3079540  38.6644830  17.3396420  12.3363190  39.7287600
  13.9261290   5.4245510  40.0879240  14.3446170   5.2376490  39.2475900
  13.6197350   4.5724560  40.3982170  17.4251020  10.3369650  43.7855040
  17.0494620   9.5697580  43.3536330  16.6954140  10.7192350  44.2729970
   2.0146780  11.0156790  50.4064090   2.3819820  10.9284190  51.2860110
   1.4457600  10.2523340  50.3070950  16.8150640   9.4841170  53.4194560
  16.5836730   9.2553920  52.5192510  17.0755190  10.4040720  53.3739450
  15.2538710   4.7097600  56.1974260  16.1308890   4.7181000  56.5808260
  15.2659550   3.9728440  55.5866610  16.7001980   8.5627140  47.0862280
  17.2239460   8.0689790  46.4552450  17.2861400   8.6977500  47.8309850
  16.8791700   8.6467010  50.6081830  15.9294410   8.6130550  50.7226820
  17.0604710   9.5567120  50.3731600   2.7336140   6.8968690  39.7180460
   3.4427840   6.4751910  39.2327740   2.0176080   6.9643920  39.0863810
   2.3810300   2.9508020  38.7583110   3.1038430   3.4916960  39.0764330
   2.6534820   2.6771440  37.8824650  16.1901950   7.8200490  43.0254690
  16.6861070   7.5871360  43.8103570  15.9918020   6.9812330  42.6092330
   2.0702490   2.2014210  48.6605730   2.7178680   1.6511590  48.2200890
   2.4904330   2.4557360  49.4821540  17.6189110   6.4561440  45.5592370
  17.5088390   6.3017480  46.4974640  18.3796700   5.9282380  45.3167780
  15.9654830   2.3955570  52.0175370  16.6027050   3.0089710  52.3834560
  16.1129720   2.4316230  51.0724600  18.5079380   4.2869360  38.7998510
  19.4328690   4.1550540  38.5916800  18.4855170   4.3662180  39.7534960
  18.5817870   5.0580020  41.4255220  17.7869370   4.9925140  41.9548130
  18.7861150   5.9930660  41.4140570  15.5236290  19.0971570  45.4193610
  16.1195360  18.7756140  44.7428030  15.7814440  18.6243390  46.2106880
   1.8234490   2.3569880  51.4031050   1.4749310   2.8133700  52.1689230
   1.4922190   1.4627010  51.4853480   3.4298860  15.5289480  55.5684240
   3.3868490  15.1582390  56.4498700   3.5609870  16.4667050  55.7086060
   7.1304890  17.0849070  51.1693960   6.8896250  17.3523630  50.2824480
   8.0707530  17.2554800  51.2244820   9.3359310   3.5481760  54.9250470
   9.2748200   4.1403590  55.6745880  10.2759690   3.4407720  54.7800730
  11.9733870   3.2051820  54.5642760  12.5874280   3.5231110  53.9023840
  12.5183430   2.7200410  55.1838620  18.3909050  19.1043450  51.9704600
  17.8967330  19.5012320  51.2531730  17.7822340  18.4792660  52.3641880
   3.2686890  18.4751730  52.6882020   2.6747210  18.3436430  53.4272060
   3.2610730  17.6389870  52.2224120  13.6213890   3.9754830  52.2753770
  13.2927250   3.1606590  51.8955500  14.5696190   3.9324640  52.1519460
  16.0748500  19.7466870  49.2491340  15.6151470  20.4982680  48.8749360
  15.4460960  19.0273340  49.1906140   2.8999120  15.8410110  51.6390060
   2.1733180  15.2215400  51.5716010   2.9608270  16.2350720  50.7688140
   6.5044220  18.0555110  48.4239470   7.0209240  17.4442470  47.8987730
   7.1541600  18.5583890  48.9150480   9.2439720  18.9463600  49.2508450
   9.5317530  18.6917900  48.3741460   9.7562940  18.3940960  49.8414020
  10.4616730   2.6853800  49.8304960   9.6788520   3.1599300  50.1101720
  10.1679660   1.7808630  49.7218140  15.0137800   3.3876900  47.8754050
  15.4545890   3.3322000  47.0275650  14.7445390   4.3034910  47.9464230
  16.8776370   3.0192140  45.8862870  16.8164770   2.0753360  45.7393890
  17.6568400   3.1272230  46.4316330   1.8057140   2.9901280  42.3518680
   2.5636500   3.1030160  41.7782710   1.3434310   3.8270480  42.3062110
   8.3470950   5.1040550  45.3420990   7.5345460   4.7297440  45.0016870
   8.8512590   4.3485630  45.6442180  12.8495930   1.7683000  46.5804060
  13.4525300   2.3403210  47.0552580  12.1088920   2.3322440  46.3577960
  15.9930530   2.1704560  41.8544340  16.1881160   3.0688010  42.1211770
  15.2060400   1.9391640  42.3477290   2.7891820  17.8517730  42.2936960
   2.2639440  18.2325760  41.5898920   2.7136400  18.4768500  43.0146670
   4.1782290   3.5165330  40.8920650   4.7075050   2.7295130  40.7628600
   4.8110610   4.1956520  41.1256180   6.3720130   3.2540470  43.9466040
   5.7422870   2.5527780  44.1136170   5.8325270   4.0144600  43.7299200
   9.3112080  19.8679700  56.6176650  10.2379390  19.6323970  56.6612610
   9.2962510  20.6951700  56.1362680  17.5457140  19.4105270  43.6150900
  17.7209330  18.7243010  42.9711820  16.8478710  19.9352320  43.2227570
   6.4975690   2.5324450  56.3818530   6.2159960   3.0358050  55.6179350
   6.8795390   1.7346200  56.0160660   5.3884790  19.8000110  41.1686210
   6.1203610  19.5159390  40.6210100   5.6478460  19.5613390  42.0585590
   4.5499580  15.9164840  41.1732540   3.9208460  16.3849940  41.7218370
   4.6647410  15.0714060  41.6078730  13.0991150   1.9478030  56.9599000
  12.9856600   2.2672640  57.8550520  13.9160890   2.3490540  56.6636280
  15.8789640  19.0949560  56.4417690  16.6714960  18.5998790  56.2343650
  16.1722790  19.7739700  57.0493300  12.0049300   9.9670500  27.3233740
  11.9243350   9.0525110  27.0525450  11.5913720  10.4637570  26.6173450
  10.1367340  11.7449520  29.2043010   9.3609440  11.2649960  29.4941580
  10.7880270  11.0655170  29.0299170   4.1533170  12.0569330  30.0818770
   3.3218050  11.8018040  30.4815280   4.7614150  12.1280100  30.8176690
  14.1574770  16.1509710  27.9842140  13.6956300  15.3796950  28.3129310
  14.9700320  16.1775780  28.4894590   4.1334430  16.0909420  30.2776790
   4.4362470  15.2007160  30.0987010   4.8778020  16.6479640  30.0499040
   2.5625120   7.0171220  23.8661160   1.6741820   7.3587190  23.7641040
   2.8466310   6.8171540  22.9741990  10.3838080  18.4367720  27.6046130
   9.7649520  18.8925220  27.0340570  11.2389860  18.5919180  27.2035830
   9.5776330  14.4206710  29.2113170   9.5084610  13.4796650  29.0502300
  10.3396190  14.5108120  29.7835740   1.7683000   5.0261230  31.5369790
   1.5885840   4.1286980  31.8172550   1.3663080   5.5733100  32.2116740
  10.6081500   7.2277090  29.4382100  10.9846320   6.3548970  29.3255770
  10.5101010   7.5635790  28.5472540   4.7386510   5.6002720  24.8999540
   4.8453260   6.5006450  25.2068300   3.8278870   5.5520690  24.6094190
  14.3905620   4.7227530  26.3710440  15.2115240   4.2324100  26.4135920
  14.4239700   5.3125190  27.1242280   2.3869670   7.5221730  30.1452130
   3.0679780   7.7860100  30.7639530   2.0717720   6.6822600  30.4790140
   6.5794240   8.5689090  29.2324720   7.0872460   9.0670060  29.8729740
   7.1107480   7.7924290  29.0564080  18.6805170   6.7394280  32.9354070
  17.9757340   7.1275990  32.4169180  18.9463090   7.4344570  33.5375000
   4.8630340   3.2087650  33.4988140   4.8648780   3.7260040  32.6934040
   4.0334650   2.7317830  33.4758070  11.2501430  13.3206960  24.9978040
  10.6318700  13.7856410  24.4340760  11.7624680  14.0134440  25.4147550
   6.1133190  12.8482830  31.6761640   5.7802570  13.4751750  32.3182710
   6.2899870  13.3744710  30.8963310  14.6267100   6.6627910  29.1437980
  13.9222670   6.9512800  29.7241090  14.9879260   7.4728020  28.7837540
   4.5445670   4.9197610  31.5058590   4.8862480   5.7639660  31.2112460
   3.6061480   5.0681350  31.6223930   5.3252290  14.8163630  33.4910820
   5.9426290  15.4914710  33.2095270   4.4645410  15.2251610  33.3998320
  16.2429880  16.2803040  31.4065460  15.5593400  16.9502150  31.3982130
  16.7824170  16.4783690  30.6410320  17.6954020   6.1082700  29.5347190
  16.7478930   6.1421680  29.6662620  18.0204010   6.9221650  29.9196550
   8.2273560   2.4079880  27.8303180   8.5348540   1.8526770  27.1138680
   7.2974260   2.5424340  27.6476170  13.7788620  18.1247170  30.1210640
  13.7915780  17.7209460  29.2532900  13.2263840  18.8994460  30.0172070
  15.0734040  14.8463390  25.2100810  14.9630370  13.9037720  25.3350230
  15.0702290  15.2079030  26.0963570  13.1774060  13.0277010  31.4493250
  13.5942850  12.8137120  30.6146710  13.9013880  13.2849800  32.0201870
  10.6154320  10.4728710  24.5663300   9.6883600  10.4066090  24.7951770
  10.7679140  11.4108840  24.4518540  10.6023400   6.7445710  21.5630460
   9.6627070   6.9059670  21.6482920  10.9206660   7.4631390  21.0166450
  17.1236160  11.4264230  31.5409490  16.2954790  11.4957320  31.0659620
  17.7186640  12.0118540  31.0725320  14.6451610  12.0349010  25.0698550
  14.0264030  11.6968560  24.4224850  14.6276060  11.3908770  25.7777740
  14.0878170   8.2133550  32.4864360  13.6749350   9.0387260  32.7404350
  13.3554120   7.6278590  32.2940720   6.2210960  10.9993450  27.3483030
   5.8167960  10.2870700  26.8528930   6.3074080  10.6546690  28.2371070
   6.6892660  14.6861010  29.5122240   6.3920950  14.0806480  28.8330020
   7.6392480  14.7238320  29.4011600   4.9339580   7.7736660  31.1282070
   5.4854170   7.8832000  30.3535320   5.4483090   8.1474260  31.8437300
  14.7778270  18.2592880  33.1745340  14.3008830  19.0665070  32.9817950
  14.0940060  17.6071210  33.3271550   5.7811090  14.4242700  36.1630040
   4.8839620  14.6482670  36.4103440   5.8063960  14.5477640  35.2141440
  12.8216310  11.2735820  22.0771300  13.2609590  10.4358250  21.9309120
  13.5344730  11.9065220  22.1635440   4.6082310  11.2956020  34.7387410
   4.4690080  12.1678820  35.1074810   3.7263670  10.9528830  34.5935350
  10.9311690  16.2131890  26.0452540  11.3707600  16.9556220  25.6307930
  10.8698580  16.4558460  26.9691500   6.4062660  17.2377720  36.9472560
   6.3778090  17.6420670  36.0800990   6.2427630  16.3088080  36.7844160
  16.4033450   2.5278630  20.3912340  16.0906110   2.6205460  21.2911410
  17.1645920   3.1059660  20.3409770   2.9215590   9.8938430  24.8489680
   2.8013190  10.6200520  24.2370950   2.6116480   9.1241340  24.3717590
  18.3577480  18.0204820  38.2436730  18.8337200  18.4987710  38.9225810
  18.9784640  17.9522310  37.5182230   1.8048590  14.7653760  27.0664500
   1.3976670  14.9068350  26.2118100   2.6961600  14.4813920  26.8635710
  17.7610730  15.2117670  35.4036740  17.8873790  14.9729550  34.4853920
  17.8032110  14.3802210  35.8758820  11.6227470  18.9145670  33.9731550
  12.1372140  18.8253680  34.7753980  10.7796550  19.2605370  34.2659460
  13.5981870  19.2001010  23.4015550  13.4383010  18.9103950  24.2997380
  13.4328580  18.4241140  22.8660780   6.0770250  18.9799540  25.1787170
   5.9012730  18.0635080  24.9654970   5.2225990  19.3386830  25.4184970
  13.3008000  16.7088570  21.9613550  12.6073160  16.7065860  21.3015830
  14.0430860  16.2847890  21.5307720  12.8657930  18.3351280  26.0362040
  13.3214880  17.5540660  26.3500660  13.2050450  19.0458100  26.5803220
  17.6134740   7.2650130  36.3686480  16.9979010   7.7729800  35.8401940
  17.2931160   6.3648460  36.3112420   5.3879250   3.2373500  28.2313350
   4.9447400   4.0183040  27.8997870   5.9464240   3.5603390  28.9384290
   9.6749060   6.1042020  33.8348670   9.2128430   6.3125040  34.6468610
   9.2727170   5.2901370  33.5319340  14.6753570   7.3250970  34.9645330
  13.8247160   7.0256720  35.2854400  14.5155360   7.5692980  34.0529150
  11.7703280   8.8252720  37.0644120  12.0956690   7.9916470  36.7246350
  12.5583610   9.3481240  37.2122450   8.5038070   2.8584200  23.1119180
   7.8792250   2.8544070  23.8372490   8.4168190   1.9915160  22.7155150
   7.4255150   3.7820830  30.0902950   7.7227480   4.6883660  30.0094970
   7.9740710   3.2939610  29.4762520   5.1793470   8.3607070  25.9594600
   4.9534390   8.1444240  26.8641220   4.3986000   8.7935530  25.6140570
  12.4091230   8.3670440  24.5585250  11.8100120   9.0906240  24.3748870
  12.9570840   8.3047220  23.7761700   7.6192680   9.2592650  36.6254870
   7.5236280   8.3187380  36.4755270   8.4624660   9.4807720  36.2302940
  11.0156100   7.0033980  26.5888530  11.4085670   7.3206180  25.7757220
  11.3772950   6.1245860  26.7033050   2.7503220   5.6706320  34.7788650
   2.3566610   6.5181530  34.9861430   2.0621620   5.0332690  34.9697290
   9.3248270   5.7541290  37.8485390   8.6346590   5.5613490  38.4831480
  10.0680570   6.0375930  38.3809690  11.6011240   9.5939730  30.6839310
  10.8692360  10.1026540  31.0329410  11.2035580   8.7769710  30.3828090
   8.0388630   6.2693930  29.0891800   8.0424690   5.8283880  28.2396340
   8.9339750   6.5911260  29.1963620   3.8891010   6.1520420  28.0486010
   3.5491060   6.6295650  28.8053060   3.1268330   5.6985540  27.6887110
   8.1008780   7.2706010  22.0798560   8.2221600   7.2292490  23.0284380
   7.7157290   8.1330160  21.9245290  12.0637150   5.0473410  30.0962250
  12.0809890   5.4982060  30.9404100  11.8152730   4.1479050  30.3095690
   7.1130280   9.5807150  21.4781860   6.5447180   9.1325400  20.8517770
   7.8219280   9.9399930  20.9447010  15.4907900   2.4605590  35.9348630
  15.8153670   1.7295250  36.4606610  15.5264410   2.1419230  35.0329620
   2.1899460  13.4819170  35.3548590   1.8054250  12.8412840  35.9531550
   2.5011650  14.1855290  35.9243320   8.3396600  10.3295710  30.8357210
   8.7066730   9.8554280  31.5818550   8.1501660  11.2037280  31.1765550
   6.1295970   9.3704350  33.1541420   5.8253040  10.2496330  33.3791780
   7.0842430   9.4304140  33.1898860   4.6577760  13.5765340  23.7508270
   3.8840020  13.0362960  23.5906990   5.3872390  13.0571950  23.4126030
  15.4165740  12.5730700  29.5434660  16.1364860  13.0685990  29.1530770
  15.2147560  11.8948590  28.8988530  10.8775680   3.9668660  23.6864050
  10.0640290   3.4681830  23.6109360  10.6837630   4.8066910  23.2700400
  10.7984540  12.6439760  35.4303660  10.7321850  11.7235430  35.1761250
  10.1689680  12.7415200  36.1448300  13.5924070   8.3388310  21.9826210
  14.4803690   8.6505540  21.8077550  13.5629160   7.4660560  21.5906790
   4.7015160  13.2445720  27.3887080   5.2193830  12.4413980  27.3343970
   4.2499180  13.1824860  28.2303910   9.5884660  14.5112000  22.6614380
   9.9300360  15.2554230  22.1657700   8.7597370  14.8243120  23.0239210
   2.1859700  10.2107090  34.3012780   1.8274640  10.8760940  34.8886120
   1.8914260   9.3790640  34.6725400   5.3872820  10.6691330  37.1852330
   5.0872960  10.8148510  36.2880150   6.1584060  10.1096620  37.0925720
  10.7301270  15.4660330  35.1807460  10.7445810  14.5341290  34.9626370
  10.0226370  15.5520090  35.8197230  15.8638340   9.6500150  21.4506070
  15.7802060  10.0814370  20.6002510  16.5832530  10.1098500  21.8832890
  16.9412480  12.1067670  34.5276040  16.2160670  12.6996450  34.3305430
  17.4687940  12.0991210  33.7289410  16.8925590  16.5042410  24.1788200
  16.2501750  15.8498030  24.4531920  16.5056250  16.9097500  23.4028870
  12.4712070  13.8327840  28.0259890  12.8235890  13.2355970  27.3661260
  11.5874400  13.5072070  28.1968140   8.5575350  14.5925530  25.4330300
   9.2446480  15.1394740  25.8137890   7.7707770  15.1366260  25.4679910
   7.8602560  11.5971560  25.0455660   8.3165340  12.4076810  25.2715850
   7.5090770  11.2794700  25.8774150  10.1635170  17.1077900  32.2747960
  10.8077390  17.3137280  32.9521380  10.5264610  16.3466300  31.8218810
   3.7614340   1.9409210  25.5178180   3.6328970   1.9327110  26.4663100
   2.9376360   2.2792300  25.1669190  11.4367250  15.1110250  30.9925410
  12.0789480  14.4103410  31.1057580  11.9616600  15.8908690  30.8122300
  15.2822970  15.3958870  20.7164550  15.0560550  14.6789310  21.3089190
  14.8919170  15.1471310  19.8786300  13.2104870  15.9105150  34.1961470
  13.5461110  16.4971840  34.8739390  12.2905210  15.7797860  34.4259260
  14.8639220  13.3130810  22.3778710  14.5760920  13.7743500  23.1656590
  15.6591390  12.8528580  22.6462930   9.0393450  15.9596480  37.3649530
   8.7190320  15.2405720  37.9095220   8.3651810  16.6351550  37.4385590
   7.0807620  16.8056930  22.3082680   7.0717720  17.5386620  21.6927190
   6.1605980  16.5588510  22.4009640   2.6814260  12.0271820  23.0529440
   2.0742210  12.7670720  23.0624740   3.1563610  12.1171180  22.2267640
  12.2547050   6.1922640  32.7286330  12.6227870   5.3717850  33.0565900
  11.3945250   6.2524530  33.1441980  15.6209080   5.1479580  23.5373890
  14.9922240   5.2525250  22.8232120  15.1261000   5.3676360  24.3267770
  10.0667220  16.8685170  20.9707870  10.1679200  16.6649160  20.0409850
   9.1668960  16.6143450  21.1755650   7.5893110   7.4265530  24.9531770
   6.8809260   7.8951870  25.3945380   7.8737590   6.7687540  25.5876960
   9.2149040   8.8462230  32.9524300   9.7134290   9.3208050  33.6176150
   9.3571990   7.9225750  33.1594330  11.6208540   4.1516190  26.3927560
  11.4976320   4.1702320  25.4437070  12.5693100   4.1995130  26.5125960
   8.7085330  19.3871490  25.6655540   8.9626830  19.3492880  24.7434910
   7.7597810  19.2604820  25.6583790   5.7928130   5.7350610  22.3282480
   6.6418660   6.1720760  22.2622670   5.4259400   6.0470870  23.1554540
  16.4215900   5.0630190  33.7952690  15.9189500   5.8035590  34.1346500
  17.2372560   5.4514190  33.4789480  14.7137910  10.3063370  27.2414050
  13.7728050  10.3213600  27.4161740  15.0281980   9.5199330  27.6874350
   4.6919550  11.9882970  20.8018010   5.4582820  11.8764330  21.3643440
   4.7694240  11.2920940  20.1494780   3.3866310   9.4208040  21.4850900
   3.4669900   8.4735550  21.5968300   4.2786060   9.7514920  21.5911560
  16.7163490  17.4772220  28.9168310  16.8410910  18.3003390  29.3892120
  17.5829050  17.2662950  28.5692460   4.1881020  19.5703430  28.5885440
   4.9243500  19.0218890  28.8594010   4.5721940  20.4359440  28.4491430
   3.1939300  18.7549500  37.7771020   3.9952030  19.0761550  38.1906420
   2.6791120  18.3945080  38.4990930   7.2983330  18.7433740  20.4111010
   8.0911940  19.0322570  19.9592800   6.7787680  18.3125910  19.7323490
  12.0303930  14.8629370  37.7246430  11.4242090  14.8860970  36.9842180
  11.7258040  14.1312410  38.2613680  13.4604300  18.5909660  36.3355840
  14.4126050  18.5067680  36.2856080  13.3132520  19.2551370  37.0089630
  16.3513500  17.9703870  21.8347750  16.0655010  17.5569010  21.0201930
  16.1533050  18.8991580  21.7148270   7.8160730  13.9637150  20.2753360
   7.7111370  13.3489500  21.0014740   7.6484950  13.4403040  19.4916370
   7.9675050  12.6493950  36.2542590   7.2020720  13.2178950  36.1697260
   8.1491010  12.3570160  35.3610820  11.0563460  13.0257180  20.8795350
  10.5073560  13.4726480  21.5238090  11.6782720  12.5206430  21.4033020
  15.1098400  14.3799280  36.8117610  15.8507870  14.7175040  36.3085070
  14.3471080  14.5491340  36.2587380   2.9460190   9.3852550  37.6157140
   2.9865530   9.0866420  38.5242370   3.8005690   9.7860160  37.4564660
   6.7238580  11.9848100  22.7760650   7.1455000  11.8187970  23.6192040
   6.8489420  11.1748330  22.2815790   4.8866000   7.9644650  35.5831630
   4.3562460   7.4735600  34.9554970   5.5554070   8.3928850  35.0489560
   9.2366220  11.0085710  20.0237750   9.7571880  10.2934730  19.6578900
   9.8834620  11.6471580  20.3238260  13.7844060  12.4314110  35.3472820
  14.1985080  12.5859190  36.1963240  12.8495060  12.5569330  35.5098600
  14.2566230   9.7710270  37.3511970  14.8387000   9.0162590  37.2632450
  14.4328000  10.3017710  36.5743450   5.3738300   4.9307020  35.6628920
   5.2795170   4.3127770  34.9379790   4.7935690   5.6573310  35.4358830
   8.1399740   3.4880260  32.6956310   7.6917040   3.5104520  31.8501860
   7.5064940   3.0899280  33.2926610   8.5459290  12.3834590  33.3168750
   8.9647400  13.2267320  33.1444990   7.6267920  12.5206630  33.0875530
  10.8823190  10.1150770  34.7006590  11.0019400   9.5191910  35.4401430
  11.7417190  10.1520460  34.2807890  13.2211090  10.6687960  33.2769100
  12.6946310  11.1930580  32.6734240  13.5642430  11.3015350  33.9078830
   5.6197480   8.0581330  19.7218810   5.4186540   7.1948690  20.0832150
   5.4489530   7.9714690  18.7840410   6.3966710  18.6887600  34.4326480
   5.8587800  19.4133660  34.1135180   6.6500670  18.2117940  33.6423820
   7.6491960   6.6572120  35.9582410   8.2391650   6.3487970  36.6460230
   6.8312200   6.1851870  36.1142310  12.4685390   6.2737930  36.1915430
  11.7800910   5.6119470  36.1265420  13.1891410   5.8276200  36.6363890
  13.0985790   2.8689560  22.2505690  13.3788080   2.0257460  22.6065110
  12.3251520   3.1012670  22.7644440   4.4180280   5.1581950  19.7096690
   4.7206180   5.1649380  18.8015840   5.1574870   4.8079810  20.2064350
   9.2528920  19.9238810  34.6913130   9.1787620  20.8273950  34.9985500
   8.3507760  19.6050710  34.6635200   7.6365210   4.1016570  20.6952890
   7.2887210   3.4240560  20.1155340   7.8377980   3.6406080  21.5096280
   9.8014250  19.0897320  22.3139490  10.6965040  19.4282290  22.3358250
   9.8331880  18.3676730  21.6863770   3.4410410  14.4624370  20.5426490
   3.8785280  15.0054040  21.1984070   3.9258140  13.6371320  20.5522830
   5.2518130  15.5822410  25.6548720   4.9513670  15.4587380  26.5552630
   5.1455620  14.7231000  25.2464450  16.7808600  17.6200990  35.0205690
  16.1810590  17.6793550  34.2769610  16.9102500  16.6805970  35.1502540
  18.0210050  15.3618810  20.3575400  17.1903010  15.4295460  20.8282630
  18.1981880  16.2522930  20.0542260  17.4766510  12.1066290  22.8609600
  18.2385420  12.6762940  22.9669290  17.4920880  11.5393490  23.6317910
  18.4826480  12.9616390  27.7051530  18.8535310  12.1783710  27.2987500
  19.1228410  13.6505490  27.5268830  15.4660240  14.3452970  33.1181850
  14.6520080  14.7750130  33.3807640  15.8734440  14.9571380  32.5050900
  17.5285680  12.4000660  20.0182120  17.8034520  13.3079540  19.8901340
  17.3396420  12.3363190  20.9544110  13.9261290   5.4245510  21.3135750
  14.3446170   5.2376490  20.4732410  13.6197350   4.5724560  21.6238680
  17.4251020  10.3369650  25.0111550  17.0494620   9.5697580  24.5792840
  16.6954140  10.7192350  25.4986480   2.0146780  11.0156790  31.6320600
   2.3819820  10.9284190  32.5116620   1.4457600  10.2523340  31.5327460
  16.8150640   9.4841170  34.6451070  16.5836730   9.2553920  33.7449020
  17.0755190  10.4040720  34.5995960  15.2538710   4.7097600  37.4230770
  16.1308890   4.7181000  37.8064770  15.2659550   3.9728440  36.8123120
  16.7001980   8.5627140  28.3118790  17.2239460   8.0689790  27.6808960
  17.2861400   8.6977500  29.0566360  16.8791700   8.6467010  31.8338340
  15.9294410   8.6130550  31.9483330  17.0604710   9.5567120  31.5988110
   2.7336140   6.8968690  20.9436970   3.4427840   6.4751910  20.4584250
   2.0176080   6.9643920  20.3120320   2.3810300   2.9508020  19.9839620
   3.1038430   3.4916960  20.3020840   2.6534820   2.6771440  19.1081160
  16.1901950   7.8200490  24.2511200  16.6861070   7.5871360  25.0360080
  15.9918020   6.9812330  23.8348840   2.0702490   2.2014210  29.8862240
   2.7178680   1.6511590  29.4457400   2.4904330   2.4557360  30.7078050
  17.6189110   6.4561440  26.7848880  17.5088390   6.3017480  27.7231150
  18.3796700   5.9282380  26.5424290  15.9654830   2.3955570  33.2431880
  16.6027050   3.0089710  33.6091070  16.1129720   2.4316230  32.2981110
  18.5079380   4.2869360  20.0255020  19.4328690   4.1550540  19.8173310
  18.4855170   4.3662180  20.9791470  18.5817870   5.0580020  22.6511730
  17.7869370   4.9925140  23.1804640  18.7861150   5.9930660  22.6397080
  15.5236290  19.0971570  26.6450120  16.1195360  18.7756140  25.9684540
  15.7814440  18.6243390  27.4363390   1.8234490   2.3569880  32.6287560
   1.4749310   2.8133700  33.3945740   1.4922190   1.4627010  32.7109990
   3.4298860  15.5289480  36.7940750   3.3868490  15.1582390  37.6755210
   3.5609870  16.4667050  36.9342570   7.1304890  17.0849070  32.3950470
   6.8896250  17.3523630  31.5080990   8.0707530  17.2554800  32.4501330
   9.3359310   3.5481760  36.1506980   9.2748200   4.1403590  36.9002390
  10.2759690   3.4407720  36.0057240  11.9733870   3.2051820  35.7899270
  12.5874280   3.5231110  35.1280350  12.5183430   2.7200410  36.4095130
  18.3909050  19.1043450  33.1961110  17.8967330  19.5012320  32.4788240
  17.7822340  18.4792660  33.5898390   3.2686890  18.4751730  33.9138530
   2.6747210  18.3436430  34.6528570   3.2610730  17.6389870  33.4480630
  13.6213890   3.9754830  33.5010280  13.2927250   3.1606590  33.1212010
  14.5696190   3.9324640  33.3775970  16.0748500  19.7466870  30.4747850
  15.6151470  20.4982680  30.1005870  15.4460960  19.0273340  30.4162650
   2.8999120  15.8410110  32.8646570   2.1733180  15.2215400  32.7972520
   2.9608270  16.2350720  31.9944650   6.5044220  18.0555110  29.6495980
   7.0209240  17.4442470  29.1244240   7.1541600  18.5583890  30.1406990
   9.2439720  18.9463600  30.4764960   9.5317530  18.6917900  29.5997970
   9.7562940  18.3940960  31.0670530  10.4616730   2.6853800  31.0561470
   9.6788520   3.1599300  31.3358230  10.1679660   1.7808630  30.9474650
  15.0137800   3.3876900  29.1010560  15.4545890   3.3322000  28.2532160
  14.7445390   4.3034910  29.1720740  16.8776370   3.0192140  27.1119380
  16.8164770   2.0753360  26.9650400  17.6568400   3.1272230  27.6572840
   1.8057140   2.9901280  23.5775190   2.5636500   3.1030160  23.0039220
   1.3434310   3.8270480  23.5318620   8.3470950   5.1040550  26.5677500
   7.5345460   4.7297440  26.2273380   8.8512590   4.3485630  26.8698690
  12.8495930   1.7683000  27.8060570  13.4525300   2.3403210  28.2809090
  12.1088920   2.3322440  27.5834470  15.9930530   2.1704560  23.0800850
  16.1881160   3.0688010  23.3468280  15.2060400   1.9391640  23.5733800
   2.7891820  17.8517730  23.5193470   2.2639440  18.2325760  22.8155430
   2.7136400  18.4768500  24.2403180   4.1782290   3.5165330  22.1177160
   4.7075050   2.7295130  21.9885110   4.8110610   4.1956520  22.3512690
   6.3720130   3.2540470  25.1722550   5.7422870   2.5527780  25.3392680
   5.8325270   4.0144600  24.9555710   9.3112080  19.8679700  37.8433160
  10.2379390  19.6323970  37.8869120   9.2962510  20.6951700  37.3619190
  17.5457140  19.4105270  24.8407410  17.7209330  18.7243010  24.1968330
  16.8478710  19.9352320  24.4484080   6.4975690   2.5324450  37.6075040
   6.2159960   3.0358050  36.8435860   6.8795390   1.7346200  37.2417170
   5.3884790  19.8000110  22.3942720   6.1203610  19.5159390  21.8466610
   5.6478460  19.5613390  23.2842100   4.5499580  15.9164840  22.3989050
   3.9208460  16.3849940  22.9474880   4.6647410  15.0714060  22.8335240
  13.0991150   1.9478030  38.1855510  12.9856600   2.2672640  39.0807030
  13.9160890   2.3490540  37.8892790  15.8789640  19.0949560  37.6674200
  16.6714960  18.5998790  37.4600160  16.1722790  19.7739700  38.2749810
  12.0049300   9.9670500   8.5490250  11.9243350   9.0525110   8.2781960
  11.5913720  10.4637570   7.8429960  10.1367340  11.7449520  10.4299520
   9.3609440  11.2649960  10.7198090  10.7880270  11.0655170  10.2555680
   4.1533170  12.0569330  11.3075280   3.3218050  11.8018040  11.7071790
   4.7614150  12.1280100  12.0433200  14.1574770  16.1509710   9.2098650
  13.6956300  15.3796950   9.5385820  14.9700320  16.1775780   9.7151100
   4.1334430  16.0909420  11.5033300   4.4362470  15.2007160  11.3243520
   4.8778020  16.6479640  11.2755550   2.5625120   7.0171220   5.0917670
   1.6741820   7.3587190   4.9897550   2.8466310   6.8171540   4.1998500
  10.3838080  18.4367720   8.8302640   9.7649520  18.8925220   8.2597080
  11.2389860  18.5919180   8.4292340   9.5776330  14.4206710  10.4369680
   9.5084610  13.4796650  10.2758810  10.3396190  14.5108120  11.0092250
   1.7683000   5.0261230  12.7626300   1.5885840   4.1286980  13.0429060
   1.3663080   5.5733100  13.4373250  10.6081500   7.2277090  10.6638610
  10.9846320   6.3548970  10.5512280  10.5101010   7.5635790   9.7729050
   4.7386510   5.6002720   6.1256050   4.8453260   6.5006450   6.4324810
   3.8278870   5.5520690   5.8350700  14.3905620   4.7227530   7.5966950
  15.2115240   4.2324100   7.6392430  14.4239700   5.3125190   8.3498790
   2.3869670   7.5221730  11.3708640   3.0679780   7.7860100  11.9896040
   2.0717720   6.6822600  11.7046650   6.5794240   8.5689090  10.4581230
   7.0872460   9.0670060  11.0986250   7.1107480   7.7924290  10.2820590
  18.6805170   6.7394280  14.1610580  17.9757340   7.1275990  13.6425690
  18.9463090   7.4344570  14.7631510   4.8630340   3.2087650  14.7244650
   4.8648780   3.7260040  13.9190550   4.0334650   2.7317830  14.7014580
  11.2501430  13.3206960   6.2234550  10.6318700  13.7856410   5.6597270
  11.7624680  14.0134440   6.6404060   6.1133190  12.8482830  12.9018150
   5.7802570  13.4751750  13.5439220   6.2899870  13.3744710  12.1219820
  14.6267100   6.6627910  10.3694490  13.9222670   6.9512800  10.9497600
  14.9879260   7.4728020  10.0094050   4.5445670   4.9197610  12.7315100
   4.8862480   5.7639660  12.4368970   3.6061480   5.0681350  12.8480440
   5.3252290  14.8163630  14.7167330   5.9426290  15.4914710  14.4351780
   4.4645410  15.2251610  14.6254830  16.2429880  16.2803040  12.6321970
  15.5593400  16.9502150  12.6238640  16.7824170  16.4783690  11.8666830
  17.6954020   6.1082700  10.7603700  16.7478930   6.1421680  10.8919130
  18.0204010   6.9221650  11.1453060   8.2273560   2.4079880   9.0559690
   8.5348540   1.8526770   8.3395190   7.2974260   2.5424340   8.8732680
  13.7788620  18.1247170  11.3467150  13.7915780  17.7209460  10.4789410
  13.2263840  18.8994460  11.2428580  15.0734040  14.8463390   6.4357320
  14.9630370  13.9037720   6.5606740  15.0702290  15.2079030   7.3220080
  13.1774060  13.0277010  12.6749760  13.5942850  12.8137120  11.8403220
  13.9013880  13.2849800  13.2458380  10.6154320  10.4728710   5.7919810
   9.6883600  10.4066090   6.0208280  10.7679140  11.4108840   5.6775050
  10.6023400   6.7445710   2.7886970   9.6627070   6.9059670   2.8739430
  10.9206660   7.4631390   2.2422960  17.1236160  11.4264230  12.7666000
  16.2954790  11.4957320  12.2916130  17.7186640  12.0118540  12.2981830
  14.6451610  12.0349010   6.2955060  14.0264030  11.6968560   5.6481360
  14.6276060  11.3908770   7.0034250  14.0878170   8.2133550  13.7120870
  13.6749350   9.0387260  13.9660860  13.3554120   7.6278590  13.5197230
   6.2210960  10.9993450   8.5739540   5.8167960  10.2870700   8.0785440
   6.3074080  10.6546690   9.4627580   6.6892660  14.6861010  10.7378750
   6.3920950  14.0806480  10.0586530   7.6392480  14.7238320  10.6268110
   4.9339580   7.7736660  12.3538580   5.4854170   7.8832000  11.5791830
   5.4483090   8.1474260  13.0693810  14.7778270  18.2592880  14.4001850
  14.3008830  19.0665070  14.2074460  14.0940060  17.6071210  14.5528060
   5.7811090  14.4242700  17.3886550   4.8839620  14.6482670  17.6359950
   5.8063960  14.5477640  16.4397950  12.8216310  11.2735820   3.3027810
  13.2609590  10.4358250   3.1565630  13.5344730  11.9065220   3.3891950
   4.6082310  11.2956020  15.9643920   4.4690080  12.1678820  16.3331320
   3.7263670  10.9528830  15.8191860  10.9311690  16.2131890   7.2709050
  11.3707600  16.9556220   6.8564440  10.8698580  16.4558460   8.1948010
   6.4062660  17.2377720  18.1729070   6.3778090  17.6420670  17.3057500
   6.2427630  16.3088080  18.0100670   2.9215590   9.8938430   6.0746190
   2.8013190  10.6200520   5.4627460   2.6116480   9.1241340   5.5974100
  18.3577480  18.0204820  19.4693240  18.8337200  18.4987710  20.1482320
  18.9784640  17.9522310  18.7438740   1.8048590  14.7653760   8.2921010
   1.3976670  14.9068350   7.4374610   2.6961600  14.4813920   8.0892220
  17.7610730  15.2117670  16.6293250  17.8873790  14.9729550  15.7110430
  17.8032110  14.3802210  17.1015330  11.6227470  18.9145670  15.1988060
  12.1372140  18.8253680  16.0010490  10.7796550  19.2605370  15.4915970
  13.5981870  19.2001010   4.6272060  13.4383010  18.9103950   5.5253890
  13.4328580  18.4241140   4.0917290   6.0770250  18.9799540   6.4043680
   5.9012730  18.0635080   6.1911480   5.2225990  19.3386830   6.6441480
  13.3008000  16.7088570   3.1870060  12.6073160  16.7065860   2.5272340
  14.0430860  16.2847890   2.7564230  12.8657930  18.3351280   7.2618550
  13.3214880  17.5540660   7.5757170  13.2050450  19.0458100   7.8059730
  17.6134740   7.2650130  17.5942990  16.9979010   7.7729800  17.0658450
  17.2931160   6.3648460  17.5368930   5.3879250   3.2373500   9.4569860
   4.9447400   4.0183040   9.1254380   5.9464240   3.5603390  10.1640800
   9.6749060   6.1042020  15.0605180   9.2128430   6.3125040  15.8725120
   9.2727170   5.2901370  14.7575850  14.6753570   7.3250970  16.1901840
  13.8247160   7.0256720  16.5110910  14.5155360   7.5692980  15.2785660
  11.7703280   8.8252720  18.2900630  12.0956690   7.9916470  17.9502860
  12.5583610   9.3481240  18.4378960   8.5038070   2.8584200   4.3375690
   7.8792250   2.8544070   5.0629000   8.4168190   1.9915160   3.9411660
   7.4255150   3.7820830  11.3159460   7.7227480   4.6883660  11.2351480
   7.9740710   3.2939610  10.7019030   5.1793470   8.3607070   7.1851110
   4.9534390   8.1444240   8.0897730   4.3986000   8.7935530   6.8397080
  12.4091230   8.3670440   5.7841760  11.8100120   9.0906240   5.6005380
  12.9570840   8.3047220   5.0018210   7.6192680   9.2592650  17.8511380
   7.5236280   8.3187380  17.7011780   8.4624660   9.4807720  17.4559450
  11.0156100   7.0033980   7.8145040  11.4085670   7.3206180   7.0013730
  11.3772950   6.1245860   7.9289560   2.7503220   5.6706320  16.0045160
   2.3566610   6.5181530  16.2117940   2.0621620   5.0332690  16.1953800
   9.3248270   5.7541290  19.0741900   8.6346590   5.5613490  19.7087990
  10.0680570   6.0375930  19.6066200  11.6011240   9.5939730  11.9095820
  10.8692360  10.1026540  12.2585920  11.2035580   8.7769710  11.6084600
   8.0388630   6.2693930  10.3148310   8.0424690   5.8283880   9.4652850
   8.9339750   6.5911260  10.4220130   3.8891010   6.1520420   9.2742520
   3.5491060   6.6295650  10.0309570   3.1268330   5.6985540   8.9143620
   8.1008780   7.2706010   3.3055070   8.2221600   7.2292490   4.2540890
   7.7157290   8.1330160   3.1501800  12.0637150   5.0473410  11.3218760
  12.0809890   5.4982060  12.1660610  11.8152730   4.1479050  11.5352200
   7.1130280   9.5807150   2.7038370   6.5447180   9.1325400   2.0774280
   7.8219280   9.9399930   2.1703520  15.4907900   2.4605590  17.1605140
  15.8153670   1.7295250  17.6863120  15.5264410   2.1419230  16.2586130
   2.1899460  13.4819170  16.5805100   1.8054250  12.8412840  17.1788060
   2.5011650  14.1855290  17.1499830   8.3396600  10.3295710  12.0613720
   8.7066730   9.8554280  12.8075060   8.1501660  11.2037280  12.4022060
   6.1295970   9.3704350  14.3797930   5.8253040  10.2496330  14.6048290
   7.0842430   9.4304140  14.4155370   4.6577760  13.5765340   4.9764780
   3.8840020  13.0362960   4.8163500   5.3872390  13.0571950   4.6382540
  15.4165740  12.5730700  10.7691170  16.1364860  13.0685990  10.3787280
  15.2147560  11.8948590  10.1245040  10.8775680   3.9668660   4.9120560
  10.0640290   3.4681830   4.8365870  10.6837630   4.8066910   4.4956910
  10.7984540  12.6439760  16.6560170  10.7321850  11.7235430  16.4017760
  10.1689680  12.7415200  17.3704810  13.5924070   8.3388310   3.2082720
  14.4803690   8.6505540   3.0334060  13.5629160   7.4660560   2.8163300
   4.7015160  13.2445720   8.6143590   5.2193830  12.4413980   8.5600480
   4.2499180  13.1824860   9.4560420   9.5884660  14.5112000   3.8870890
   9.9300360  15.2554230   3.3914210   8.7597370  14.8243120   4.2495720
   2.1859700  10.2107090  15.5269290   1.8274640  10.8760940  16.1142630
   1.8914260   9.3790640  15.8981910   5.3872820  10.6691330  18.4108840
   5.0872960  10.8148510  17.5136660   6.1584060  10.1096620  18.3182230
  10.7301270  15.4660330  16.4063970  10.7445810  14.5341290  16.1882880
  10.0226370  15.5520090  17.0453740  15.8638340   9.6500150   2.6762580
  15.7802060  10.0814370   1.8259020  16.5832530  10.1098500   3.1089400
  16.9412480  12.1067670  15.7532550  16.2160670  12.6996450  15.5561940
  17.4687940  12.0991210  14.9545920  16.8925590  16.5042410   5.4044710
  16.2501750  15.8498030   5.6788430  16.5056250  16.9097500   4.6285380
  12.4712070  13.8327840   9.2516400  12.8235890  13.2355970   8.5917770
  11.5874400  13.5072070   9.4224650   8.5575350  14.5925530   6.6586810
   9.2446480  15.1394740   7.0394400   7.7707770  15.1366260   6.6936420
   7.8602560  11.5971560   6.2712170   8.3165340  12.4076810   6.4972360
   7.5090770  11.2794700   7.1030660  10.1635170  17.1077900  13.5004470
  10.8077390  17.3137280  14.1777890  10.5264610  16.3466300  13.0475320
   3.7614340   1.9409210   6.7434690   3.6328970   1.9327110   7.6919610
   2.9376360   2.2792300   6.3925700  11.4367250  15.1110250  12.2181920
  12.0789480  14.4103410  12.3314090  11.9616600  15.8908690  12.0378810
  13.2104870  15.9105150  15.4217980  13.5461110  16.4971840  16.0995900
  12.2905210  15.7797860  15.6515770  14.8639220  13.3130810   3.6035220
  14.5760920  13.7743500   4.3913100  15.6591390  12.8528580   3.8719440
   9.0393450  15.9596480  18.5906040   8.7190320  15.2405720  19.1351730
   8.3651810  16.6351550  18.6642100   7.0807620  16.8056930   3.5339190
   7.0717720  17.5386620   2.9183700   6.1605980  16.5588510   3.6266150
   2.6814260  12.0271820   4.2785950   2.0742210  12.7670720   4.2881250
   3.1563610  12.1171180   3.4524150  12.2547050   6.1922640  13.9542840
  12.6227870   5.3717850  14.2822410  11.3945250   6.2524530  14.3698490
  15.6209080   5.1479580   4.7630400  14.9922240   5.2525250   4.0488630
  15.1261000   5.3676360   5.5524280   7.5893110   7.4265530   6.1788280
   6.8809260   7.8951870   6.6201890   7.8737590   6.7687540   6.8133470
   9.2149040   8.8462230  14.1780810   9.7134290   9.3208050  14.8432660
   9.3571990   7.9225750  14.3850840  11.6208540   4.1516190   7.6184070
  11.4976320   4.1702320   6.6693580  12.5693100   4.1995130   7.7382470
   8.7085330  19.3871490   6.8912050   8.9626830  19.3492880   5.9691420
   7.7597810  19.2604820   6.8840300   5.7928130   5.7350610   3.5538990
   6.6418660   6.1720760   3.4879180   5.4259400   6.0470870   4.3811050
  16.4215900   5.0630190  15.0209200  15.9189500   5.8035590  15.3603010
  17.2372560   5.4514190  14.7045990  14.7137910  10.3063370   8.4670560
  13.7728050  10.3213600   8.6418250  15.0281980   9.5199330   8.9130860
   3.3866310   9.4208040   2.7107410   3.4669900   8.4735550   2.8224810
   4.2786060   9.7514920   2.8168070  16.7163490  17.4772220  10.1424820
  16.8410910  18.3003390  10.6148630  17.5829050  17.2662950   9.7948970
   4.1881020  19.5703430   9.8141950   4.9243500  19.0218890  10.0850520
   4.5721940  20.4359440   9.6747940   3.1939300  18.7549500  19.0027530
   3.9952030  19.0761550  19.4162930   2.6791120  18.3945080  19.7247440
  12.0303930  14.8629370  18.9502940  11.4242090  14.8860970  18.2098690
  11.7258040  14.1312410  19.4870190  13.4604300  18.5909660  17.5612350
  14.4126050  18.5067680  17.5112590  13.3132520  19.2551370  18.2346140
  16.3513500  17.9703870   3.0604260  16.0655010  17.5569010   2.2458440
  16.1533050  18.8991580   2.9404780   7.9675050  12.6493950  17.4799100
   7.2020720  13.2178950  17.3953770   8.1491010  12.3570160  16.5867330
  11.0563460  13.0257180   2.1051860  10.5073560  13.4726480   2.7494600
  11.6782720  12.5206430   2.6289530  15.1098400  14.3799280  18.0374120
  15.8507870  14.7175040  17.5341580  14.3471080  14.5491340  17.4843890
   2.9460190   9.3852550  18.8413650   2.9865530   9.0866420  19.7498880
   3.8005690   9.7860160  18.6821170   6.7238580  11.9848100   4.0017160
   7.1455000  11.8187970   4.8448550   6.8489420  11.1748330   3.5072300
   4.8866000   7.9644650  16.8088140   4.3562460   7.4735600  16.1811480
   5.5554070   8.3928850  16.2746070  13.7844060  12.4314110  16.5729330
  14.1985080  12.5859190  17.4219750  12.8495060  12.5569330  16.7355110
  14.2566230   9.7710270  18.5768480  14.8387000   9.0162590  18.4888960
  14.4328000  10.3017710  17.7999960   5.3738300   4.9307020  16.8885430
   5.2795170   4.3127770  16.1636300   4.7935690   5.6573310  16.6615340
   8.1399740   3.4880260  13.9212820   7.6917040   3.5104520  13.0758370
   7.5064940   3.0899280  14.5183120   8.5459290  12.3834590  14.5425260
   8.9647400  13.2267320  14.3701500   7.6267920  12.5206630  14.3132040
  10.8823190  10.1150770  15.9263100  11.0019400   9.5191910  16.6657940
  11.7417190  10.1520460  15.5064400  13.2211090  10.6687960  14.5025610
  12.6946310  11.1930580  13.8990750  13.5642430  11.3015350  15.1335340
   6.3966710  18.6887600  15.6582990   5.8587800  19.4133660  15.3391690
   6.6500670  18.2117940  14.8680330   7.6491960   6.6572120  17.1838920
   8.2391650   6.3487970  17.8716740   6.8312200   6.1851870  17.3398820
  12.4685390   6.2737930  17.4171940  11.7800910   5.6119470  17.3521930
  13.1891410   5.8276200  17.8620400  13.0985790   2.8689560   3.4762200
  13.3788080   2.0257460   3.8321620  12.3251520   3.1012670   3.9900950
   9.2528920  19.9238810  15.9169640   9.1787620  20.8273950  16.2242010
   8.3507760  19.6050710  15.8891710   9.8014250  19.0897320   3.5396000
  10.6965040  19.4282290   3.5614760   9.8331880  18.3676730   2.9120280
   3.4410410  14.4624370   1.7683000   3.8785280  15.0054040   2.4240580
   3.9258140  13.6371320   1.7779340   5.2518130  15.5822410   6.8805230
   4.9513670  15.4587380   7.7809140   5.1455620  14.7231000   6.4720960
  16.7808600  17.6200990  16.2462200  16.1810590  17.6793550  15.5026120
  16.9102500  16.6805970  16.3759050  17.4766510  12.1066290   4.0866110
  18.2385420  12.6762940   4.1925800  17.4920880  11.5393490   4.8574420
  18.4826480  12.9616390   8.9308040  18.8535310  12.1783710   8.5244010
  19.1228410  13.6505490   8.7525340  15.4660240  14.3452970  14.3438360
  14.6520080  14.7750130  14.6064150  15.8734440  14.9571380  13.7307410
  13.9261290   5.4245510   2.5392260  14.3446170   5.2376490   1.6988920
  13.6197350   4.5724560   2.8495190  17.4251020  10.3369650   6.2368060
  17.0494620   9.5697580   5.8049350  16.6954140  10.7192350   6.7242990
   2.0146780  11.0156790  12.8577110   2.3819820  10.9284190  13.7373130
   1.4457600  10.2523340  12.7583970  16.8150640   9.4841170  15.8707580
  16.5836730   9.2553920  14.9705530  17.0755190  10.4040720  15.8252470
  15.2538710   4.7097600  18.6487280  16.1308890   4.7181000  19.0321280
  15.2659550   3.9728440  18.0379630  16.7001980   8.5627140   9.5375300
  17.2239460   8.0689790   8.9065470  17.2861400   8.6977500  10.2822870
  16.8791700   8.6467010  13.0594850  15.9294410   8.6130550  13.1739840
  17.0604710   9.5567120  12.8244620  16.1901950   7.8200490   5.4767710
  16.6861070   7.5871360   6.2616590  15.9918020   6.9812330   5.0605350
   2.0702490   2.2014210  11.1118750   2.7178680   1.6511590  10.6713910
   2.4904330   2.4557360  11.9334560  17.6189110   6.4561440   8.0105390
  17.5088390   6.3017480   8.9487660  18.3796700   5.9282380   7.7680800
  15.9654830   2.3955570  14.4688390  16.6027050   3.0089710  14.8347580
  16.1129720   2.4316230  13.5237620  18.5817870   5.0580020   3.8768240
  17.7869370   4.9925140   4.4061150  18.7861150   5.9930660   3.8653590
  15.5236290  19.0971570   7.8706630  16.1195360  18.7756140   7.1941050
  15.7814440  18.6243390   8.6619900   1.8234490   2.3569880  13.8544070
   1.4749310   2.8133700  14.6202250   1.4922190   1.4627010  13.9366500
   3.4298860  15.5289480  18.0197260   3.3868490  15.1582390  18.9011720
   3.5609870  16.4667050  18.1599080   7.1304890  17.0849070  13.6206980
   6.8896250  17.3523630  12.7337500   8.0707530  17.2554800  13.6757840
   9.3359310   3.5481760  17.3763490   9.2748200   4.1403590  18.1258900
  10.2759690   3.4407720  17.2313750  11.9733870   3.2051820  17.0155780
  12.5874280   3.5231110  16.3536860  12.5183430   2.7200410  17.6351640
  18.3909050  19.1043450  14.4217620  17.8967330  19.5012320  13.7044750
  17.7822340  18.4792660  14.8154900   3.2686890  18.4751730  15.1395040
   2.6747210  18.3436430  15.8785080   3.2610730  17.6389870  14.6737140
  13.6213890   3.9754830  14.7266790  13.2927250   3.1606590  14.3468520
  14.5696190   3.9324640  14.6032480  16.0748500  19.7466870  11.7004360
  15.6151470  20.4982680  11.3262380  15.4460960  19.0273340  11.6419160
   2.8999120  15.8410110  14.0903080   2.1733180  15.2215400  14.0229030
   2.9608270  16.2350720  13.2201160   6.5044220  18.0555110  10.8752490
   7.0209240  17.4442470  10.3500750   7.1541600  18.5583890  11.3663500
   9.2439720  18.9463600  11.7021470   9.5317530  18.6917900  10.8254480
   9.7562940  18.3940960  12.2927040  10.4616730   2.6853800  12.2817980
   9.6788520   3.1599300  12.5614740  10.1679660   1.7808630  12.1731160
  15.0137800   3.3876900  10.3267070  15.4545890   3.3322000   9.4788670
  14.7445390   4.3034910  10.3977250  16.8776370   3.0192140   8.3375890
  16.8164770   2.0753360   8.1906910  17.6568400   3.1272230   8.8829350
   1.8057140   2.9901280   4.8031700   2.5636500   3.1030160   4.2295730
   1.3434310   3.8270480   4.7575130   8.3470950   5.1040550   7.7934010
   7.5345460   4.7297440   7.4529890   8.8512590   4.3485630   8.0955200
  12.8495930   1.7683000   9.0317080  13.4525300   2.3403210   9.5065600
  12.1088920   2.3322440   8.8090980  15.9930530   2.1704560   4.3057360
  16.1881160   3.0688010   4.5724790  15.2060400   1.9391640   4.7990310
   2.7891820  17.8517730   4.7449980   2.2639440  18.2325760   4.0411940
   2.7136400  18.4768500   5.4659690   4.1782290   3.5165330   3.3433670
   4.7075050   2.7295130   3.2141620   4.8110610   4.1956520   3.5769200
   6.3720130   3.2540470   6.3979060   5.7422870   2.5527780   6.5649190
   5.8325270   4.0144600   6.1812220   9.3112080  19.8679700  19.0689670
  10.2379390  19.6323970  19.1125630   9.2962510  20.6951700  18.5875700
  17.5457140  19.4105270   6.0663920  17.7209330  18.7243010   5.4224840
  16.8478710  19.9352320   5.6740590   6.4975690   2.5324450  18.8331550
   6.2159960   3.0358050  18.0692370   6.8795390   1.7346200  18.4673680
   5.3884790  19.8000110   3.6199230   6.1203610  19.5159390   3.0723120
   5.6478460  19.5613390   4.5098610   4.5499580  15.9164840   3.6245560
   3.9208460  16.3849940   4.1731390   4.6647410  15.0714060   4.0591750
  13.0991150   1.9478030  19.4112020  12.9856600   2.2672640  20.3063540
  13.9160890   2.3490540  19.1149300  15.8789640  19.0949560  18.8930710
  16.6714960  18.5998790  18.6856670  16.1722790  19.7739700  19.5006320
 150.0813020 152.9887540 151.7655910  90.0000000  90.0000000  90.0000000
